MODEL 1
REMARK VINA RESULT:    -6.777      0.000      0.000
REMARK INTER + INTRA:          -9.107
REMARK INTER:                  -8.361
REMARK INTRA:                  -0.745
REMARK UNBOUND:                -0.745
REMARK  Name = /home/vital/Documents/PhD_2021/Malaria_codes/data/pdb_ligands_mmv/ligand_283.pdb
REMARK  5 active torsions:
REMARK  status: ('A' for Active; 'I' for Inactive)
REMARK    1  A    between atoms: C1_1  and  C2_2
REMARK    2  A    between atoms: C2_2  and  O1_3
REMARK    3  A    between atoms: O1_3  and  C3_4
REMARK    4  A    between atoms: C6_7  and  N1_8
REMARK    5  A    between atoms: N1_8  and  C7_9
REMARK                            x       y       z     vdW  Elec       q    Type
REMARK                         _______ _______ _______ _____ _____    ______ ____
ROOT
ATOM      1  C7  UNL     1       1.784  -3.596 -34.267  0.00  0.00    +0.050 A 
ATOM      2  C8  UNL     1       0.887  -2.603 -34.744  0.00  0.00    +0.022 A 
ATOM      3  C9  UNL     1       0.094  -2.735 -35.913  0.00  0.00    +0.012 A 
ATOM      4  C10 UNL     1      -0.770  -1.721 -36.319  0.00  0.00    +0.001 A 
ATOM      5  C11 UNL     1      -0.857  -0.558 -35.569  0.00  0.00    +0.002 A 
ATOM      6  C12 UNL     1      -0.071  -0.417 -34.424  0.00  0.00    +0.028 A 
ATOM      7  C13 UNL     1       0.801  -1.412 -34.000  0.00  0.00    +0.073 A 
ATOM      8  N2  UNL     1       1.527  -1.183 -32.896  0.00  0.00    -0.247 NA
ATOM      9  C14 UNL     1       2.389  -2.114 -32.463  0.00  0.00    +0.073 A 
ATOM     10  C15 UNL     1       3.135  -1.840 -31.324  0.00  0.00    +0.028 A 
ATOM     11  C16 UNL     1       4.055  -2.755 -30.803  0.00  0.00    +0.002 A 
ATOM     12  C17 UNL     1       4.236  -3.977 -31.432  0.00  0.00    +0.001 A 
ATOM     13  C18 UNL     1       3.497  -4.274 -32.575  0.00  0.00    +0.012 A 
ATOM     14  C19 UNL     1       2.567  -3.349 -33.110  0.00  0.00    +0.022 A 
ENDROOT
BRANCH   1  15
ATOM     15  N1  UNL     1       1.939  -4.833 -34.968  0.00  0.00    -0.313 N 
ATOM     16  H8  UNL     1       2.899  -4.937 -35.289  0.00  0.00    +0.152 HD
BRANCH  15  20
ATOM     17  C3  UNL     1       0.340  -8.486 -33.521  0.00  0.00    +0.121 A 
ATOM     18  C4  UNL     1      -0.490  -7.405 -33.809  0.00  0.00    +0.047 A 
ATOM     19  C5  UNL     1       0.056  -6.211 -34.299  0.00  0.00    +0.027 A 
ATOM     20  C6  UNL     1       1.433  -6.084 -34.532  0.00  0.00    +0.032 A 
ATOM     21  C20 UNL     1       2.259  -7.163 -34.206  0.00  0.00    +0.027 A 
ATOM     22  C21 UNL     1       1.714  -8.356 -33.719  0.00  0.00    +0.047 A 
BRANCH  17  23
ATOM     23  O1  UNL     1      -0.057  -9.703 -33.041  0.00  0.00    -0.492 OA
BRANCH  23  25
ATOM     24  C1  UNL     1      -2.364 -10.175 -32.685  0.00  0.00    +0.048 C 
ATOM     25  C2  UNL     1      -1.073  -9.706 -32.039  0.00  0.00    +0.225 C 
ENDBRANCH  23  25
ENDBRANCH  17  23
ENDBRANCH  15  20
ENDBRANCH   1  15
TORSDOF 4
ENDMDL
MODEL 2
REMARK VINA RESULT:    -6.723     16.462     19.447
REMARK INTER + INTRA:          -9.040
REMARK INTER:                  -8.151
REMARK INTRA:                  -0.889
REMARK UNBOUND:                -0.745
REMARK  Name = /home/vital/Documents/PhD_2021/Malaria_codes/data/pdb_ligands_mmv/ligand_283.pdb
REMARK  5 active torsions:
REMARK  status: ('A' for Active; 'I' for Inactive)
REMARK    1  A    between atoms: C1_1  and  C2_2
REMARK    2  A    between atoms: C2_2  and  O1_3
REMARK    3  A    between atoms: O1_3  and  C3_4
REMARK    4  A    between atoms: C6_7  and  N1_8
REMARK    5  A    between atoms: N1_8  and  C7_9
REMARK                            x       y       z     vdW  Elec       q    Type
REMARK                         _______ _______ _______ _____ _____    ______ ____
ROOT
ATOM      1  C7  UNL     1       1.278   6.623 -17.030  0.00  0.00    +0.050 A 
ATOM      2  C8  UNL     1       1.756   5.962 -15.868  0.00  0.00    +0.022 A 
ATOM      3  C9  UNL     1       0.923   5.391 -14.872  0.00  0.00    +0.012 A 
ATOM      4  C10 UNL     1       1.461   4.751 -13.757  0.00  0.00    +0.001 A 
ATOM      5  C11 UNL     1       2.838   4.674 -13.615  0.00  0.00    +0.002 A 
ATOM      6  C12 UNL     1       3.665   5.244 -14.586  0.00  0.00    +0.028 A 
ATOM      7  C13 UNL     1       3.152   5.889 -15.704  0.00  0.00    +0.073 A 
ATOM      8  N2  UNL     1       4.020   6.420 -16.577  0.00  0.00    -0.247 NA
ATOM      9  C14 UNL     1       3.563   7.062 -17.661  0.00  0.00    +0.073 A 
ATOM     10  C15 UNL     1       4.489   7.611 -18.539  0.00  0.00    +0.028 A 
ATOM     11  C16 UNL     1       4.101   8.296 -19.694  0.00  0.00    +0.002 A 
ATOM     12  C17 UNL     1       2.753   8.436 -19.986  0.00  0.00    +0.001 A 
ATOM     13  C18 UNL     1       1.806   7.891 -19.120  0.00  0.00    +0.012 A 
ATOM     14  C19 UNL     1       2.194   7.201 -17.946  0.00  0.00    +0.022 A 
ENDROOT
BRANCH   1  15
ATOM     15  N1  UNL     1      -0.126   6.748 -17.269  0.00  0.00    -0.313 N 
ATOM     16  H8  UNL     1      -0.338   7.672 -17.642  0.00  0.00    +0.152 HD
BRANCH  15  20
ATOM     17  C3  UNL     1      -2.603   3.771 -19.000  0.00  0.00    +0.121 A 
ATOM     18  C4  UNL     1      -3.131   4.729 -18.137  0.00  0.00    +0.047 A 
ATOM     19  C5  UNL     1      -2.299   5.713 -17.586  0.00  0.00    +0.027 A 
ATOM     20  C6  UNL     1      -0.934   5.771 -17.904  0.00  0.00    +0.032 A 
ATOM     21  C20 UNL     1      -0.410   4.784 -18.743  0.00  0.00    +0.027 A 
ATOM     22  C21 UNL     1      -1.241   3.802 -19.296  0.00  0.00    +0.047 A 
BRANCH  17  23
ATOM     23  O1  UNL     1      -3.298   2.760 -19.605  0.00  0.00    -0.492 OA
BRANCH  23  25
ATOM     24  C1  UNL     1      -3.565   0.401 -19.791  0.00  0.00    +0.048 C 
ATOM     25  C2  UNL     1      -2.585   1.556 -19.882  0.00  0.00    +0.225 C 
ENDBRANCH  23  25
ENDBRANCH  17  23
ENDBRANCH  15  20
ENDBRANCH   1  15
TORSDOF 4
ENDMDL
MODEL 3
REMARK VINA RESULT:    -6.674     17.151     20.306
REMARK INTER + INTRA:          -8.980
REMARK INTER:                  -8.194
REMARK INTRA:                  -0.786
REMARK UNBOUND:                -0.745
REMARK  Name = /home/vital/Documents/PhD_2021/Malaria_codes/data/pdb_ligands_mmv/ligand_283.pdb
REMARK  5 active torsions:
REMARK  status: ('A' for Active; 'I' for Inactive)
REMARK    1  A    between atoms: C1_1  and  C2_2
REMARK    2  A    between atoms: C2_2  and  O1_3
REMARK    3  A    between atoms: O1_3  and  C3_4
REMARK    4  A    between atoms: C6_7  and  N1_8
REMARK    5  A    between atoms: N1_8  and  C7_9
REMARK                            x       y       z     vdW  Elec       q    Type
REMARK                         _______ _______ _______ _____ _____    ______ ____
ROOT
ATOM      1  C7  UNL     1       0.948   6.932 -17.548  0.00  0.00    +0.050 A 
ATOM      2  C8  UNL     1       0.240   6.039 -18.396  0.00  0.00    +0.022 A 
ATOM      3  C9  UNL     1      -0.585   4.981 -17.935  0.00  0.00    +0.012 A 
ATOM      4  C10 UNL     1      -1.256   4.145 -18.825  0.00  0.00    +0.001 A 
ATOM      5  C11 UNL     1      -1.113   4.348 -20.189  0.00  0.00    +0.002 A 
ATOM      6  C12 UNL     1      -0.293   5.380 -20.651  0.00  0.00    +0.028 A 
ATOM      7  C13 UNL     1       0.388   6.224 -19.783  0.00  0.00    +0.073 A 
ATOM      8  N2  UNL     1       1.165   7.179 -20.316  0.00  0.00    -0.247 NA
ATOM      9  C14 UNL     1       1.848   8.005 -19.511  0.00  0.00    +0.073 A 
ATOM     10  C15 UNL     1       2.653   8.975 -20.095  0.00  0.00    +0.028 A 
ATOM     11  C16 UNL     1       3.399   9.877 -19.331  0.00  0.00    +0.002 A 
ATOM     12  C17 UNL     1       3.340   9.815 -17.948  0.00  0.00    +0.001 A 
ATOM     13  C18 UNL     1       2.538   8.851 -17.340  0.00  0.00    +0.012 A 
ATOM     14  C19 UNL     1       1.784   7.931 -18.109  0.00  0.00    +0.022 A 
ENDROOT
BRANCH   1  15
ATOM     15  N1  UNL     1       0.859   6.808 -16.126  0.00  0.00    -0.313 N 
ATOM     16  H8  UNL     1      -0.116   6.793 -15.835  0.00  0.00    +0.152 HD
BRANCH  15  20
ATOM     17  C3  UNL     1       3.045   4.174 -13.621  0.00  0.00    +0.121 A 
ATOM     18  C4  UNL     1       1.659   4.266 -13.527  0.00  0.00    +0.047 A 
ATOM     19  C5  UNL     1       0.952   5.132 -14.373  0.00  0.00    +0.027 A 
ATOM     20  C6  UNL     1       1.615   5.902 -15.340  0.00  0.00    +0.032 A 
ATOM     21  C20 UNL     1       3.009   5.827 -15.401  0.00  0.00    +0.027 A 
ATOM     22  C21 UNL     1       3.714   4.961 -14.558  0.00  0.00    +0.047 A 
BRANCH  17  23
ATOM     23  O1  UNL     1       3.854   3.374 -12.861  0.00  0.00    -0.492 OA
BRANCH  23  25
ATOM     24  C1  UNL     1       6.196   3.618 -12.506  0.00  0.00    +0.048 C 
ATOM     25  C2  UNL     1       5.126   3.030 -13.408  0.00  0.00    +0.225 C 
ENDBRANCH  23  25
ENDBRANCH  17  23
ENDBRANCH  15  20
ENDBRANCH   1  15
TORSDOF 4
ENDMDL
MODEL 4
REMARK VINA RESULT:    -6.631      2.530      6.382
REMARK INTER + INTRA:          -8.927
REMARK INTER:                  -8.040
REMARK INTRA:                  -0.887
REMARK UNBOUND:                -0.745
REMARK  Name = /home/vital/Documents/PhD_2021/Malaria_codes/data/pdb_ligands_mmv/ligand_283.pdb
REMARK  5 active torsions:
REMARK  status: ('A' for Active; 'I' for Inactive)
REMARK    1  A    between atoms: C1_1  and  C2_2
REMARK    2  A    between atoms: C2_2  and  O1_3
REMARK    3  A    between atoms: O1_3  and  C3_4
REMARK    4  A    between atoms: C6_7  and  N1_8
REMARK    5  A    between atoms: N1_8  and  C7_9
REMARK                            x       y       z     vdW  Elec       q    Type
REMARK                         _______ _______ _______ _____ _____    ______ ____
ROOT
ATOM      1  C7  UNL     1       1.493  -4.587 -34.317  0.00  0.00    +0.050 A 
ATOM      2  C8  UNL     1       1.159  -5.941 -34.050  0.00  0.00    +0.022 A 
ATOM      3  C9  UNL     1       2.107  -6.963 -33.787  0.00  0.00    +0.012 A 
ATOM      4  C10 UNL     1       1.706  -8.273 -33.527  0.00  0.00    +0.001 A 
ATOM      5  C11 UNL     1       0.356  -8.584 -33.529  0.00  0.00    +0.002 A 
ATOM      6  C12 UNL     1      -0.583  -7.586 -33.797  0.00  0.00    +0.028 A 
ATOM      7  C13 UNL     1      -0.208  -6.274 -34.063  0.00  0.00    +0.073 A 
ATOM      8  N2  UNL     1      -1.177  -5.385 -34.324  0.00  0.00    -0.247 NA
ATOM      9  C14 UNL     1      -0.854  -4.113 -34.598  0.00  0.00    +0.073 A 
ATOM     10  C15 UNL     1      -1.880  -3.220 -34.878  0.00  0.00    +0.028 A 
ATOM     11  C16 UNL     1      -1.634  -1.876 -35.172  0.00  0.00    +0.002 A 
ATOM     12  C17 UNL     1      -0.330  -1.406 -35.186  0.00  0.00    +0.001 A 
ATOM     13  C18 UNL     1       0.716  -2.284 -34.906  0.00  0.00    +0.012 A 
ATOM     14  C19 UNL     1       0.472  -3.648 -34.613  0.00  0.00    +0.022 A 
ENDROOT
BRANCH   1  15
ATOM     15  N1  UNL     1       2.860  -4.165 -34.332  0.00  0.00    -0.313 N 
ATOM     16  H8  UNL     1       2.994  -3.433 -35.026  0.00  0.00    +0.152 HD
BRANCH  15  20
ATOM     17  C3  UNL     1       5.226  -3.528 -30.869  0.00  0.00    +0.121 A 
ATOM     18  C4  UNL     1       5.739  -4.205 -31.972  0.00  0.00    +0.047 A 
ATOM     19  C5  UNL     1       4.947  -4.394 -33.113  0.00  0.00    +0.027 A 
ATOM     20  C6  UNL     1       3.639  -3.891 -33.179  0.00  0.00    +0.032 A 
ATOM     21  C20 UNL     1       3.124  -3.244 -32.053  0.00  0.00    +0.027 A 
ATOM     22  C21 UNL     1       3.916  -3.053 -30.915  0.00  0.00    +0.047 A 
BRANCH  17  23
ATOM     23  O1  UNL     1       5.887  -3.275 -29.699  0.00  0.00    -0.492 OA
BRANCH  23  25
ATOM     24  C1  UNL     1       6.917  -4.293 -27.809  0.00  0.00    +0.048 C 
ATOM     25  C2  UNL     1       5.632  -4.155 -28.605  0.00  0.00    +0.225 C 
ENDBRANCH  23  25
ENDBRANCH  17  23
ENDBRANCH  15  20
ENDBRANCH   1  15
TORSDOF 4
ENDMDL
MODEL 5
REMARK VINA RESULT:    -6.590     16.588     19.785
REMARK INTER + INTRA:          -8.876
REMARK INTER:                  -7.966
REMARK INTRA:                  -0.910
REMARK UNBOUND:                -0.745
REMARK  Name = /home/vital/Documents/PhD_2021/Malaria_codes/data/pdb_ligands_mmv/ligand_283.pdb
REMARK  5 active torsions:
REMARK  status: ('A' for Active; 'I' for Inactive)
REMARK    1  A    between atoms: C1_1  and  C2_2
REMARK    2  A    between atoms: C2_2  and  O1_3
REMARK    3  A    between atoms: O1_3  and  C3_4
REMARK    4  A    between atoms: C6_7  and  N1_8
REMARK    5  A    between atoms: N1_8  and  C7_9
REMARK                            x       y       z     vdW  Elec       q    Type
REMARK                         _______ _______ _______ _____ _____    ______ ____
ROOT
ATOM      1  C7  UNL     1       0.792   7.043 -18.411  0.00  0.00    +0.050 A 
ATOM      2  C8  UNL     1       1.771   7.954 -18.890  0.00  0.00    +0.022 A 
ATOM      3  C9  UNL     1       2.473   8.877 -18.073  0.00  0.00    +0.012 A 
ATOM      4  C10 UNL     1       3.427   9.739 -18.610  0.00  0.00    +0.001 A 
ATOM      5  C11 UNL     1       3.695   9.696 -19.970  0.00  0.00    +0.002 A 
ATOM      6  C12 UNL     1       3.000   8.797 -20.782  0.00  0.00    +0.028 A 
ATOM      7  C13 UNL     1       2.042   7.931 -20.271  0.00  0.00    +0.073 A 
ATOM      8  N2  UNL     1       1.415   7.112 -21.127  0.00  0.00    -0.247 NA
ATOM      9  C14 UNL     1       0.475   6.271 -20.673  0.00  0.00    +0.073 A 
ATOM     10  C15 UNL     1      -0.166   5.445 -21.589  0.00  0.00    +0.028 A 
ATOM     11  C16 UNL     1      -1.156   4.538 -21.203  0.00  0.00    +0.002 A 
ATOM     12  C17 UNL     1      -1.518   4.447 -19.868  0.00  0.00    +0.001 A 
ATOM     13  C18 UNL     1      -0.887   5.264 -18.931  0.00  0.00    +0.012 A 
ATOM     14  C19 UNL     1       0.113   6.189 -19.318  0.00  0.00    +0.022 A 
ENDROOT
BRANCH   1  15
ATOM     15  N1  UNL     1       0.450   7.007 -17.023  0.00  0.00    -0.313 N 
ATOM     16  H8  UNL     1      -0.561   7.019 -16.910  0.00  0.00    +0.152 HD
BRANCH  15  20
ATOM     17  C3  UNL     1       2.060   4.460 -14.037  0.00  0.00    +0.121 A 
ATOM     18  C4  UNL     1       0.753   4.297 -14.489  0.00  0.00    +0.047 A 
ATOM     19  C5  UNL     1       0.244   5.139 -15.487  0.00  0.00    +0.027 A 
ATOM     20  C6  UNL     1       1.036   6.142 -16.064  0.00  0.00    +0.032 A 
ATOM     21  C20 UNL     1       2.334   6.318 -15.578  0.00  0.00    +0.027 A 
ATOM     22  C21 UNL     1       2.844   5.476 -14.583  0.00  0.00    +0.047 A 
BRANCH  17  23
ATOM     23  O1  UNL     1       2.681   3.712 -13.075  0.00  0.00    -0.492 OA
BRANCH  23  25
ATOM     24  C1  UNL     1       3.889   2.026 -14.246  0.00  0.00    +0.048 C 
ATOM     25  C2  UNL     1       4.002   3.253 -13.359  0.00  0.00    +0.225 C 
ENDBRANCH  23  25
ENDBRANCH  17  23
ENDBRANCH  15  20
ENDBRANCH   1  15
TORSDOF 4
ENDMDL
MODEL 6
REMARK VINA RESULT:    -6.556     16.385     19.157
REMARK INTER + INTRA:          -8.835
REMARK INTER:                  -7.972
REMARK INTRA:                  -0.863
REMARK UNBOUND:                -0.745
REMARK  Name = /home/vital/Documents/PhD_2021/Malaria_codes/data/pdb_ligands_mmv/ligand_283.pdb
REMARK  5 active torsions:
REMARK  status: ('A' for Active; 'I' for Inactive)
REMARK    1  A    between atoms: C1_1  and  C2_2
REMARK    2  A    between atoms: C2_2  and  O1_3
REMARK    3  A    between atoms: O1_3  and  C3_4
REMARK    4  A    between atoms: C6_7  and  N1_8
REMARK    5  A    between atoms: N1_8  and  C7_9
REMARK                            x       y       z     vdW  Elec       q    Type
REMARK                         _______ _______ _______ _____ _____    ______ ____
ROOT
ATOM      1  C7  UNL     1       1.234   6.598 -17.087  0.00  0.00    +0.050 A 
ATOM      2  C8  UNL     1       2.151   7.193 -17.993  0.00  0.00    +0.022 A 
ATOM      3  C9  UNL     1       1.775   7.923 -19.150  0.00  0.00    +0.012 A 
ATOM      4  C10 UNL     1       2.731   8.486 -19.993  0.00  0.00    +0.001 A 
ATOM      5  C11 UNL     1       4.077   8.327 -19.699  0.00  0.00    +0.002 A 
ATOM      6  C12 UNL     1       4.455   7.601 -18.568  0.00  0.00    +0.028 A 
ATOM      7  C13 UNL     1       3.521   7.028 -17.714  0.00  0.00    +0.073 A 
ATOM      8  N2  UNL     1       3.975   6.335 -16.659  0.00  0.00    -0.247 NA
ATOM      9  C14 UNL     1       3.105   5.756 -15.820  0.00  0.00    +0.073 A 
ATOM     10  C15 UNL     1       3.609   5.035 -14.746  0.00  0.00    +0.028 A 
ATOM     11  C16 UNL     1       2.773   4.401 -13.821  0.00  0.00    +0.002 A 
ATOM     12  C17 UNL     1       1.398   4.489 -13.969  0.00  0.00    +0.001 A 
ATOM     13  C18 UNL     1       0.870   5.209 -15.039  0.00  0.00    +0.012 A 
ATOM     14  C19 UNL     1       1.712   5.849 -15.981  0.00  0.00    +0.022 A 
ENDROOT
BRANCH   1  15
ATOM     15  N1  UNL     1      -0.176   6.711 -17.301  0.00  0.00    -0.313 N 
ATOM     16  H8  UNL     1      -0.401   7.630 -17.676  0.00  0.00    +0.152 HD
BRANCH  15  20
ATOM     17  C3  UNL     1      -2.672   3.711 -18.964  0.00  0.00    +0.121 A 
ATOM     18  C4  UNL     1      -3.202   4.727 -18.173  0.00  0.00    +0.047 A 
ATOM     19  C5  UNL     1      -2.364   5.718 -17.644  0.00  0.00    +0.027 A 
ATOM     20  C6  UNL     1      -0.987   5.723 -17.913  0.00  0.00    +0.032 A 
ATOM     21  C20 UNL     1      -0.462   4.679 -18.679  0.00  0.00    +0.027 A 
ATOM     22  C21 UNL     1      -1.299   3.691 -19.209  0.00  0.00    +0.047 A 
BRANCH  17  23
ATOM     23  O1  UNL     1      -3.372   2.688 -19.540  0.00  0.00    -0.492 OA
BRANCH  23  25
ATOM     24  C1  UNL     1      -3.500   0.325 -19.806  0.00  0.00    +0.048 C 
ATOM     25  C2  UNL     1      -2.625   1.554 -19.977  0.00  0.00    +0.225 C 
ENDBRANCH  23  25
ENDBRANCH  17  23
ENDBRANCH  15  20
ENDBRANCH   1  15
TORSDOF 4
ENDMDL
MODEL 7
REMARK VINA RESULT:    -6.542      2.570      5.704
REMARK INTER + INTRA:          -8.817
REMARK INTER:                  -7.955
REMARK INTRA:                  -0.862
REMARK UNBOUND:                -0.745
REMARK  Name = /home/vital/Documents/PhD_2021/Malaria_codes/data/pdb_ligands_mmv/ligand_283.pdb
REMARK  5 active torsions:
REMARK  status: ('A' for Active; 'I' for Inactive)
REMARK    1  A    between atoms: C1_1  and  C2_2
REMARK    2  A    between atoms: C2_2  and  O1_3
REMARK    3  A    between atoms: O1_3  and  C3_4
REMARK    4  A    between atoms: C6_7  and  N1_8
REMARK    5  A    between atoms: N1_8  and  C7_9
REMARK                            x       y       z     vdW  Elec       q    Type
REMARK                         _______ _______ _______ _____ _____    ______ ____
ROOT
ATOM      1  C7  UNL     1       1.524  -4.643 -34.240  0.00  0.00    +0.050 A 
ATOM      2  C8  UNL     1       0.491  -3.690 -34.440  0.00  0.00    +0.022 A 
ATOM      3  C9  UNL     1       0.710  -2.307 -34.671  0.00  0.00    +0.012 A 
ATOM      4  C10 UNL     1      -0.354  -1.429 -34.865  0.00  0.00    +0.001 A 
ATOM      5  C11 UNL     1      -1.653  -1.913 -34.829  0.00  0.00    +0.002 A 
ATOM      6  C12 UNL     1      -1.876  -3.271 -34.592  0.00  0.00    +0.028 A 
ATOM      7  C13 UNL     1      -0.833  -4.166 -34.392  0.00  0.00    +0.073 A 
ATOM      8  N2  UNL     1      -1.142  -5.449 -34.156  0.00  0.00    -0.247 NA
ATOM      9  C14 UNL     1      -0.163  -6.340 -33.945  0.00  0.00    +0.073 A 
ATOM     10  C15 UNL     1      -0.518  -7.658 -33.691  0.00  0.00    +0.028 A 
ATOM     11  C16 UNL     1       0.438  -8.652 -33.461  0.00  0.00    +0.002 A 
ATOM     12  C17 UNL     1       1.785  -8.326 -33.489  0.00  0.00    +0.001 A 
ATOM     13  C18 UNL     1       2.164  -7.009 -33.744  0.00  0.00    +0.012 A 
ATOM     14  C19 UNL     1       1.200  -5.998 -33.972  0.00  0.00    +0.022 A 
ENDROOT
BRANCH   1  15
ATOM     15  N1  UNL     1       2.897  -4.242 -34.265  0.00  0.00    -0.313 N 
ATOM     16  H8  UNL     1       3.041  -3.527 -34.975  0.00  0.00    +0.152 HD
BRANCH  15  20
ATOM     17  C3  UNL     1       5.275  -3.569 -30.818  0.00  0.00    +0.121 A 
ATOM     18  C4  UNL     1       5.773  -4.286 -31.903  0.00  0.00    +0.047 A 
ATOM     19  C5  UNL     1       4.977  -4.486 -33.039  0.00  0.00    +0.027 A 
ATOM     20  C6  UNL     1       3.682  -3.956 -33.119  0.00  0.00    +0.032 A 
ATOM     21  C20 UNL     1       3.181  -3.268 -32.011  0.00  0.00    +0.027 A 
ATOM     22  C21 UNL     1       3.976  -3.066 -30.877  0.00  0.00    +0.047 A 
BRANCH  17  23
ATOM     23  O1  UNL     1       5.941  -3.301 -29.653  0.00  0.00    -0.492 OA
BRANCH  23  25
ATOM     24  C1  UNL     1       6.971  -4.150 -27.682  0.00  0.00    +0.048 C 
ATOM     25  C2  UNL     1       5.739  -4.203 -28.567  0.00  0.00    +0.225 C 
ENDBRANCH  23  25
ENDBRANCH  17  23
ENDBRANCH  15  20
ENDBRANCH   1  15
TORSDOF 4
ENDMDL
MODEL 8
REMARK VINA RESULT:    -6.332      1.128      3.801
REMARK INTER + INTRA:          -8.558
REMARK INTER:                  -7.601
REMARK INTRA:                  -0.957
REMARK UNBOUND:                -0.745
REMARK  Name = /home/vital/Documents/PhD_2021/Malaria_codes/data/pdb_ligands_mmv/ligand_283.pdb
REMARK  5 active torsions:
REMARK  status: ('A' for Active; 'I' for Inactive)
REMARK    1  A    between atoms: C1_1  and  C2_2
REMARK    2  A    between atoms: C2_2  and  O1_3
REMARK    3  A    between atoms: O1_3  and  C3_4
REMARK    4  A    between atoms: C6_7  and  N1_8
REMARK    5  A    between atoms: N1_8  and  C7_9
REMARK                            x       y       z     vdW  Elec       q    Type
REMARK                         _______ _______ _______ _____ _____    ______ ____
ROOT
ATOM      1  C7  UNL     1       2.326  -3.486 -33.384  0.00  0.00    +0.050 A 
ATOM      2  C8  UNL     1       2.730  -2.711 -32.265  0.00  0.00    +0.022 A 
ATOM      3  C9  UNL     1       3.626  -3.160 -31.261  0.00  0.00    +0.012 A 
ATOM      4  C10 UNL     1       3.983  -2.342 -30.192  0.00  0.00    +0.001 A 
ATOM      5  C11 UNL     1       3.451  -1.065 -30.103  0.00  0.00    +0.002 A 
ATOM      6  C12 UNL     1       2.560  -0.620 -31.082  0.00  0.00    +0.028 A 
ATOM      7  C13 UNL     1       2.185  -1.418 -32.156  0.00  0.00    +0.073 A 
ATOM      8  N2  UNL     1       1.312  -0.913 -33.040  0.00  0.00    -0.247 NA
ATOM      9  C14 UNL     1       0.917  -1.658 -34.082  0.00  0.00    +0.073 A 
ATOM     10  C15 UNL     1       0.002  -1.109 -34.971  0.00  0.00    +0.028 A 
ATOM     11  C16 UNL     1      -0.463  -1.815 -36.085  0.00  0.00    +0.002 A 
ATOM     12  C17 UNL     1      -0.002  -3.100 -36.322  0.00  0.00    +0.001 A 
ATOM     13  C18 UNL     1       0.918  -3.670 -35.443  0.00  0.00    +0.012 A 
ATOM     14  C19 UNL     1       1.388  -2.962 -34.311  0.00  0.00    +0.022 A 
ENDROOT
BRANCH   1  15
ATOM     15  N1  UNL     1       2.825  -4.814 -33.567  0.00  0.00    -0.313 N 
ATOM     16  H8  UNL     1       3.784  -4.877 -33.233  0.00  0.00    +0.152 HD
BRANCH  15  20
ATOM     17  C3  UNL     1       0.614  -8.343 -32.762  0.00  0.00    +0.121 A 
ATOM     18  C4  UNL     1       1.312  -8.193 -33.957  0.00  0.00    +0.047 A 
ATOM     19  C5  UNL     1       2.049  -7.025 -34.199  0.00  0.00    +0.027 A 
ATOM     20  C6  UNL     1       2.118  -6.000 -33.245  0.00  0.00    +0.032 A 
ATOM     21  C20 UNL     1       1.384  -6.148 -32.064  0.00  0.00    +0.027 A 
ATOM     22  C21 UNL     1       0.651  -7.314 -31.821  0.00  0.00    +0.047 A 
BRANCH  17  23
ATOM     23  O1  UNL     1      -0.140  -9.425 -32.398  0.00  0.00    -0.492 OA
BRANCH  23  25
ATOM     24  C1  UNL     1      -2.243  -9.201 -33.494  0.00  0.00    +0.048 C 
ATOM     25  C2  UNL     1      -0.962 -10.012 -33.405  0.00  0.00    +0.225 C 
ENDBRANCH  23  25
ENDBRANCH  17  23
ENDBRANCH  15  20
ENDBRANCH   1  15
TORSDOF 4
ENDMDL
MODEL 9
REMARK VINA RESULT:    -6.220      2.632      6.072
REMARK INTER + INTRA:          -8.419
REMARK INTER:                  -7.541
REMARK INTRA:                  -0.878
REMARK UNBOUND:                -0.745
REMARK  Name = /home/vital/Documents/PhD_2021/Malaria_codes/data/pdb_ligands_mmv/ligand_283.pdb
REMARK  5 active torsions:
REMARK  status: ('A' for Active; 'I' for Inactive)
REMARK    1  A    between atoms: C1_1  and  C2_2
REMARK    2  A    between atoms: C2_2  and  O1_3
REMARK    3  A    between atoms: O1_3  and  C3_4
REMARK    4  A    between atoms: C6_7  and  N1_8
REMARK    5  A    between atoms: N1_8  and  C7_9
REMARK                            x       y       z     vdW  Elec       q    Type
REMARK                         _______ _______ _______ _____ _____    ______ ____
ROOT
ATOM      1  C7  UNL     1       2.060  -4.857 -33.399  0.00  0.00    +0.050 A 
ATOM      2  C8  UNL     1       3.067  -4.230 -32.618  0.00  0.00    +0.022 A 
ATOM      3  C9  UNL     1       3.901  -3.180 -33.081  0.00  0.00    +0.012 A 
ATOM      4  C10 UNL     1       4.867  -2.606 -32.256  0.00  0.00    +0.001 A 
ATOM      5  C11 UNL     1       5.020  -3.072 -30.959  0.00  0.00    +0.002 A 
ATOM      6  C12 UNL     1       4.210  -4.113 -30.501  0.00  0.00    +0.028 A 
ATOM      7  C13 UNL     1       3.242  -4.703 -31.304  0.00  0.00    +0.073 A 
ATOM      8  N2  UNL     1       2.520  -5.707 -30.785  0.00  0.00    -0.247 NA
ATOM      9  C14 UNL     1       1.587  -6.310 -31.534  0.00  0.00    +0.073 A 
ATOM     10  C15 UNL     1       0.866  -7.355 -30.970  0.00  0.00    +0.028 A 
ATOM     11  C16 UNL     1      -0.127  -8.038 -31.678  0.00  0.00    +0.002 A 
ATOM     12  C17 UNL     1      -0.412  -7.670 -32.984  0.00  0.00    +0.001 A 
ATOM     13  C18 UNL     1       0.297  -6.623 -33.569  0.00  0.00    +0.012 A 
ATOM     14  C19 UNL     1       1.308  -5.931 -32.858  0.00  0.00    +0.022 A 
ENDROOT
BRANCH   1  15
ATOM     15  N1  UNL     1       1.822  -4.442 -34.746  0.00  0.00    -0.313 N 
ATOM     16  H8  UNL     1       1.826  -5.248 -35.368  0.00  0.00    +0.152 HD
BRANCH  15  20
ATOM     17  C3  UNL     1      -1.217  -1.666 -35.772  0.00  0.00    +0.121 A 
ATOM     18  C4  UNL     1      -0.210  -1.326 -34.872  0.00  0.00    +0.047 A 
ATOM     19  C5  UNL     1       0.793  -2.252 -34.557  0.00  0.00    +0.027 A 
ATOM     20  C6  UNL     1       0.821  -3.522 -35.150  0.00  0.00    +0.032 A 
ATOM     21  C20 UNL     1      -0.214  -3.864 -36.024  0.00  0.00    +0.027 A 
ATOM     22  C21 UNL     1      -1.216  -2.939 -36.341  0.00  0.00    +0.047 A 
BRANCH  17  23
ATOM     23  O1  UNL     1      -2.251  -0.863 -36.168  0.00  0.00    -0.492 OA
BRANCH  23  25
ATOM     24  C1  UNL     1      -3.686  -0.724 -34.272  0.00  0.00    +0.048 C 
ATOM     25  C2  UNL     1      -2.771   0.050 -35.203  0.00  0.00    +0.225 C 
ENDBRANCH  23  25
ENDBRANCH  17  23
ENDBRANCH  15  20
ENDBRANCH   1  15
TORSDOF 4
ENDMDL
