MODEL 1
REMARK VINA RESULT:    -6.213      0.000      0.000
REMARK INTER + INTRA:          -7.671
REMARK INTER:                  -7.302
REMARK INTRA:                  -0.369
REMARK UNBOUND:                -0.369
REMARK  Name = /home/vital/Documents/PhD_2021/Malaria_codes/data/pdb_ligands_mmv/ligand_44.pdb
REMARK  5 active torsions:
REMARK  status: ('A' for Active; 'I' for Inactive)
REMARK    1  A    between atoms: C1_1  and  N1_2
REMARK    2  A    between atoms: N1_2  and  C2_3
REMARK    3  A    between atoms: N1_2  and  C3_4
REMARK    4  A    between atoms: C6_7  and  C7_8
REMARK    5  A    between atoms: C8_9  and  C9_10
REMARK                            x       y       z     vdW  Elec       q    Type
REMARK                         _______ _______ _______ _____ _____    ______ ____
ROOT
ATOM      1  C7  UNL     1      -6.924   1.650 -24.227  0.00  0.00    +0.013 C 
ATOM      2  C8  UNL     1      -7.266   0.352 -24.240  0.00  0.00    +0.068 C 
ENDROOT
BRANCH   2   3
ATOM      3  C9  UNL     1      -6.384  -0.658 -23.614  0.00  0.00    +0.224 A 
ATOM      4  N2  UNL     1      -6.036  -1.781 -24.138  0.00  0.00    -0.173 NA
ATOM      5  C10 UNL     1      -5.210  -2.622 -23.447  0.00  0.00    +0.284 A 
ATOM      6  O1  UNL     1      -4.843  -3.704 -23.892  0.00  0.00    -0.265 OA
ATOM      7  C11 UNL     1      -4.741  -2.213 -22.115  0.00  0.00    +0.084 A 
ATOM      8  C12 UNL     1      -3.896  -3.015 -21.342  0.00  0.00    +0.017 A 
ATOM      9  C13 UNL     1      -3.485  -2.570 -20.083  0.00  0.00    +0.001 A 
ATOM     10  C14 UNL     1      -3.919  -1.331 -19.604  0.00  0.00    +0.004 A 
ATOM     11  C15 UNL     1      -4.763  -0.534 -20.379  0.00  0.00    +0.047 A 
ATOM     12  C16 UNL     1      -5.167  -0.986 -21.633  0.00  0.00    +0.143 A 
ATOM     13  O2  UNL     1      -6.009  -0.164 -22.379  0.00  0.00    -0.437 OA
ENDBRANCH   2   3
BRANCH   1  17
ATOM     14  C3  UNL     1      -9.288   4.884 -25.893  0.00  0.00    +0.029 A 
ATOM     15  C4  UNL     1      -9.152   3.655 -26.559  0.00  0.00    +0.023 A 
ATOM     16  C5  UNL     1      -8.398   2.592 -26.033  0.00  0.00    +0.010 A 
ATOM     17  C6  UNL     1      -7.746   2.719 -24.807  0.00  0.00    -0.025 A 
ATOM     18  C17 UNL     1      -7.837   3.941 -24.142  0.00  0.00    +0.010 A 
ATOM     19  C18 UNL     1      -8.593   4.997 -24.678  0.00  0.00    +0.023 A 
BRANCH  14  21
ATOM     20  C1  UNL     1     -10.965   5.675 -27.522  0.00  0.00    +0.129 C 
ATOM     21  N1  UNL     1     -10.029   5.944 -26.432  0.00  0.00    -0.336 N 
ATOM     22  C2  UNL     1      -9.455   7.288 -26.410  0.00  0.00    +0.129 C 
ENDBRANCH  14  21
ENDBRANCH   1  17
TORSDOF 3
ENDMDL
MODEL 2
REMARK VINA RESULT:    -6.025     15.616     17.506
REMARK INTER + INTRA:          -7.451
REMARK INTER:                  -7.067
REMARK INTRA:                  -0.384
REMARK UNBOUND:                -0.369
REMARK  Name = /home/vital/Documents/PhD_2021/Malaria_codes/data/pdb_ligands_mmv/ligand_44.pdb
REMARK  5 active torsions:
REMARK  status: ('A' for Active; 'I' for Inactive)
REMARK    1  A    between atoms: C1_1  and  N1_2
REMARK    2  A    between atoms: N1_2  and  C2_3
REMARK    3  A    between atoms: N1_2  and  C3_4
REMARK    4  A    between atoms: C6_7  and  C7_8
REMARK    5  A    between atoms: C8_9  and  C9_10
REMARK                            x       y       z     vdW  Elec       q    Type
REMARK                         _______ _______ _______ _____ _____    ______ ____
ROOT
ATOM      1  C7  UNL     1       9.741   0.083 -27.091  0.00  0.00    +0.013 C 
ATOM      2  C8  UNL     1      10.044  -0.278 -25.834  0.00  0.00    +0.068 C 
ENDROOT
BRANCH   2   3
ATOM      3  C9  UNL     1       9.210  -1.272 -25.122  0.00  0.00    +0.224 A 
ATOM      4  N2  UNL     1       8.897  -1.235 -23.874  0.00  0.00    -0.173 NA
ATOM      5  C10 UNL     1       8.115  -2.223 -23.344  0.00  0.00    +0.284 A 
ATOM      6  O1  UNL     1       7.782  -2.244 -22.165  0.00  0.00    -0.265 OA
ATOM      7  C11 UNL     1       7.653  -3.305 -24.225  0.00  0.00    +0.084 A 
ATOM      8  C12 UNL     1       6.851  -4.353 -23.763  0.00  0.00    +0.017 A 
ATOM      9  C13 UNL     1       6.444  -5.352 -24.651  0.00  0.00    +0.001 A 
ATOM     10  C14 UNL     1       6.838  -5.301 -25.991  0.00  0.00    +0.004 A 
ATOM     11  C15 UNL     1       7.638  -4.252 -26.447  0.00  0.00    +0.047 A 
ATOM     12  C16 UNL     1       8.039  -3.260 -25.555  0.00  0.00    +0.143 A 
ATOM     13  O2  UNL     1       8.837  -2.230 -26.046  0.00  0.00    -0.437 OA
ENDBRANCH   2   3
BRANCH   1  17
ATOM     14  C3  UNL     1      12.115   2.942 -29.330  0.00  0.00    +0.029 A 
ATOM     15  C4  UNL     1      11.377   1.934 -29.974  0.00  0.00    +0.023 A 
ATOM     16  C5  UNL     1      10.595   1.004 -29.268  0.00  0.00    +0.010 A 
ATOM     17  C6  UNL     1      10.520   1.047 -27.877  0.00  0.00    -0.025 A 
ATOM     18  C17 UNL     1      11.270   2.016 -27.211  0.00  0.00    +0.010 A 
ATOM     19  C18 UNL     1      12.048   2.940 -27.927  0.00  0.00    +0.023 A 
BRANCH  14  21
ATOM     20  C1  UNL     1      13.827   4.719 -29.304  0.00  0.00    +0.129 C 
ATOM     21  N1  UNL     1      12.904   3.856 -30.040  0.00  0.00    -0.336 N 
ATOM     22  C2  UNL     1      12.394   4.403 -31.295  0.00  0.00    +0.129 C 
ENDBRANCH  14  21
ENDBRANCH   1  17
TORSDOF 3
ENDMDL
MODEL 3
REMARK VINA RESULT:    -5.887      2.269      3.452
REMARK INTER + INTRA:          -7.289
REMARK INTER:                  -6.955
REMARK INTRA:                  -0.334
REMARK UNBOUND:                -0.369
REMARK  Name = /home/vital/Documents/PhD_2021/Malaria_codes/data/pdb_ligands_mmv/ligand_44.pdb
REMARK  5 active torsions:
REMARK  status: ('A' for Active; 'I' for Inactive)
REMARK    1  A    between atoms: C1_1  and  N1_2
REMARK    2  A    between atoms: N1_2  and  C2_3
REMARK    3  A    between atoms: N1_2  and  C3_4
REMARK    4  A    between atoms: C6_7  and  C7_8
REMARK    5  A    between atoms: C8_9  and  C9_10
REMARK                            x       y       z     vdW  Elec       q    Type
REMARK                         _______ _______ _______ _____ _____    ______ ____
ROOT
ATOM      1  C7  UNL     1      -6.006  -0.830 -24.201  0.00  0.00    +0.013 C 
ATOM      2  C8  UNL     1      -4.982  -1.240 -23.435  0.00  0.00    +0.068 C 
ENDROOT
BRANCH   2   3
ATOM      3  C9  UNL     1      -4.458  -2.618 -23.565  0.00  0.00    +0.224 A 
ATOM      4  N2  UNL     1      -4.894  -3.513 -24.381  0.00  0.00    -0.173 NA
ATOM      5  C10 UNL     1      -4.313  -4.751 -24.398  0.00  0.00    +0.284 A 
ATOM      6  O1  UNL     1      -4.682  -5.645 -25.152  0.00  0.00    -0.265 OA
ATOM      7  C11 UNL     1      -3.202  -5.021 -23.475  0.00  0.00    +0.084 A 
ATOM      8  C12 UNL     1      -2.555  -6.259 -23.428  0.00  0.00    +0.017 A 
ATOM      9  C13 UNL     1      -1.504  -6.454 -22.528  0.00  0.00    +0.001 A 
ATOM     10  C14 UNL     1      -1.105  -5.415 -21.683  0.00  0.00    +0.004 A 
ATOM     11  C15 UNL     1      -1.754  -4.180 -21.734  0.00  0.00    +0.047 A 
ATOM     12  C16 UNL     1      -2.801  -3.995 -22.635  0.00  0.00    +0.143 A 
ATOM     13  O2  UNL     1      -3.425  -2.751 -22.658  0.00  0.00    -0.437 OA
ENDBRANCH   2   3
BRANCH   1  17
ATOM     14  C3  UNL     1      -7.602   3.203 -24.100  0.00  0.00    +0.029 A 
ATOM     15  C4  UNL     1      -8.442   2.082 -24.209  0.00  0.00    +0.023 A 
ATOM     16  C5  UNL     1      -7.946   0.768 -24.234  0.00  0.00    +0.010 A 
ATOM     17  C6  UNL     1      -6.577   0.521 -24.151  0.00  0.00    -0.025 A 
ATOM     18  C17 UNL     1      -5.719   1.617 -24.077  0.00  0.00    +0.010 A 
ATOM     19  C18 UNL     1      -6.225   2.927 -24.052  0.00  0.00    +0.023 A 
BRANCH  14  21
ATOM     20  C1  UNL     1      -9.246   4.839 -24.940  0.00  0.00    +0.129 C 
ATOM     21  N1  UNL     1      -8.103   4.511 -24.090  0.00  0.00    -0.336 N 
ATOM     22  C2  UNL     1      -7.188   5.615 -23.809  0.00  0.00    +0.129 C 
ENDBRANCH  14  21
ENDBRANCH   1  17
TORSDOF 3
ENDMDL
MODEL 4
REMARK VINA RESULT:    -5.885     14.537     16.746
REMARK INTER + INTRA:          -7.286
REMARK INTER:                  -6.930
REMARK INTRA:                  -0.355
REMARK UNBOUND:                -0.369
REMARK  Name = /home/vital/Documents/PhD_2021/Malaria_codes/data/pdb_ligands_mmv/ligand_44.pdb
REMARK  5 active torsions:
REMARK  status: ('A' for Active; 'I' for Inactive)
REMARK    1  A    between atoms: C1_1  and  N1_2
REMARK    2  A    between atoms: N1_2  and  C2_3
REMARK    3  A    between atoms: N1_2  and  C3_4
REMARK    4  A    between atoms: C6_7  and  C7_8
REMARK    5  A    between atoms: C8_9  and  C9_10
REMARK                            x       y       z     vdW  Elec       q    Type
REMARK                         _______ _______ _______ _____ _____    ______ ____
ROOT
ATOM      1  C7  UNL     1       9.800  -0.811 -25.794  0.00  0.00    +0.013 C 
ATOM      2  C8  UNL     1       8.618  -1.238 -26.265  0.00  0.00    +0.068 C 
ENDROOT
BRANCH   2   3
ATOM      3  C9  UNL     1       7.928  -2.379 -25.622  0.00  0.00    +0.224 A 
ATOM      4  N2  UNL     1       7.753  -3.543 -26.145  0.00  0.00    -0.173 NA
ATOM      5  C10 UNL     1       7.097  -4.510 -25.436  0.00  0.00    +0.284 A 
ATOM      6  O1  UNL     1       6.900  -5.636 -25.877  0.00  0.00    -0.265 OA
ATOM      7  C11 UNL     1       6.608  -4.186 -24.088  0.00  0.00    +0.084 A 
ATOM      8  C12 UNL     1       5.927  -5.116 -23.298  0.00  0.00    +0.017 A 
ATOM      9  C13 UNL     1       5.487  -4.748 -22.023  0.00  0.00    +0.001 A 
ATOM     10  C14 UNL     1       5.729  -3.457 -21.547  0.00  0.00    +0.004 A 
ATOM     11  C15 UNL     1       6.409  -2.531 -22.339  0.00  0.00    +0.047 A 
ATOM     12  C16 UNL     1       6.844  -2.908 -23.609  0.00  0.00    +0.143 A 
ATOM     13  O2  UNL     1       7.519  -1.959 -24.371  0.00  0.00    -0.437 OA
ENDBRANCH   2   3
BRANCH   1  17
ATOM     14  C3  UNL     1      11.933   2.537 -27.546  0.00  0.00    +0.029 A 
ATOM     15  C4  UNL     1      11.868   2.353 -26.154  0.00  0.00    +0.023 A 
ATOM     16  C5  UNL     1      11.190   1.271 -25.567  0.00  0.00    +0.010 A 
ATOM     17  C6  UNL     1      10.545   0.322 -26.358  0.00  0.00    -0.025 A 
ATOM     18  C17 UNL     1      10.565   0.500 -27.741  0.00  0.00    +0.010 A 
ATOM     19  C18 UNL     1      11.245   1.585 -28.317  0.00  0.00    +0.023 A 
BRANCH  14  21
ATOM     20  C1  UNL     1      12.481   4.942 -27.496  0.00  0.00    +0.129 C 
ATOM     21  N1  UNL     1      12.598   3.626 -28.123  0.00  0.00    -0.336 N 
ATOM     22  C2  UNL     1      12.822   3.633 -29.567  0.00  0.00    +0.129 C 
ENDBRANCH  14  21
ENDBRANCH   1  17
TORSDOF 3
ENDMDL
MODEL 5
REMARK VINA RESULT:    -5.781     12.857     15.397
REMARK INTER + INTRA:          -7.164
REMARK INTER:                  -6.817
REMARK INTRA:                  -0.346
REMARK UNBOUND:                -0.369
REMARK  Name = /home/vital/Documents/PhD_2021/Malaria_codes/data/pdb_ligands_mmv/ligand_44.pdb
REMARK  5 active torsions:
REMARK  status: ('A' for Active; 'I' for Inactive)
REMARK    1  A    between atoms: C1_1  and  N1_2
REMARK    2  A    between atoms: N1_2  and  C2_3
REMARK    3  A    between atoms: N1_2  and  C3_4
REMARK    4  A    between atoms: C6_7  and  C7_8
REMARK    5  A    between atoms: C8_9  and  C9_10
REMARK                            x       y       z     vdW  Elec       q    Type
REMARK                         _______ _______ _______ _____ _____    ______ ____
ROOT
ATOM      1  C7  UNL     1       3.925  -4.247 -29.874  0.00  0.00    +0.013 C 
ATOM      2  C8  UNL     1       2.911  -5.050 -30.234  0.00  0.00    +0.068 C 
ENDROOT
BRANCH   2   3
ATOM      3  C9  UNL     1       2.446  -5.080 -31.638  0.00  0.00    +0.224 A 
ATOM      4  N2  UNL     1       2.444  -6.112 -32.407  0.00  0.00    -0.173 NA
ATOM      5  C10 UNL     1       1.982  -5.998 -33.689  0.00  0.00    +0.284 A 
ATOM      6  O1  UNL     1       1.953  -6.944 -34.469  0.00  0.00    -0.265 OA
ATOM      7  C11 UNL     1       1.499  -4.689 -34.151  0.00  0.00    +0.084 A 
ATOM      8  C12 UNL     1       1.012  -4.487 -35.445  0.00  0.00    +0.017 A 
ATOM      9  C13 UNL     1       0.567  -3.218 -35.824  0.00  0.00    +0.001 A 
ATOM     10  C14 UNL     1       0.610  -2.161 -34.912  0.00  0.00    +0.004 A 
ATOM     11  C15 UNL     1       1.097  -2.367 -33.620  0.00  0.00    +0.047 A 
ATOM     12  C16 UNL     1       1.539  -3.636 -33.251  0.00  0.00    +0.143 A 
ATOM     13  O2  UNL     1       2.018  -3.805 -31.955  0.00  0.00    -0.437 OA
ENDBRANCH   2   3
BRANCH   1  17
ATOM     14  C3  UNL     1       5.607  -3.971 -25.884  0.00  0.00    +0.029 A 
ATOM     15  C4  UNL     1       4.230  -3.814 -26.114  0.00  0.00    +0.023 A 
ATOM     16  C5  UNL     1       3.664  -3.908 -27.397  0.00  0.00    +0.010 A 
ATOM     17  C6  UNL     1       4.462  -4.166 -28.510  0.00  0.00    -0.025 A 
ATOM     18  C17 UNL     1       5.837  -4.292 -28.314  0.00  0.00    +0.010 A 
ATOM     19  C18 UNL     1       6.391  -4.196 -27.027  0.00  0.00    +0.023 A 
BRANCH  14  21
ATOM     20  C1  UNL     1       7.559  -3.443 -24.471  0.00  0.00    +0.129 C 
ATOM     21  N1  UNL     1       6.165  -3.861 -24.604  0.00  0.00    -0.336 N 
ATOM     22  C2  UNL     1       5.661  -4.723 -23.537  0.00  0.00    +0.129 C 
ENDBRANCH  14  21
ENDBRANCH   1  17
TORSDOF 3
ENDMDL
MODEL 6
REMARK VINA RESULT:    -5.752     13.242     14.791
REMARK INTER + INTRA:          -7.130
REMARK INTER:                  -6.762
REMARK INTRA:                  -0.368
REMARK UNBOUND:                -0.369
REMARK  Name = /home/vital/Documents/PhD_2021/Malaria_codes/data/pdb_ligands_mmv/ligand_44.pdb
REMARK  5 active torsions:
REMARK  status: ('A' for Active; 'I' for Inactive)
REMARK    1  A    between atoms: C1_1  and  N1_2
REMARK    2  A    between atoms: N1_2  and  C2_3
REMARK    3  A    between atoms: N1_2  and  C3_4
REMARK    4  A    between atoms: C6_7  and  C7_8
REMARK    5  A    between atoms: C8_9  and  C9_10
REMARK                            x       y       z     vdW  Elec       q    Type
REMARK                         _______ _______ _______ _____ _____    ______ ____
ROOT
ATOM      1  C7  UNL     1       2.977  -3.987 -32.193  0.00  0.00    +0.013 C 
ATOM      2  C8  UNL     1       3.396  -5.252 -32.031  0.00  0.00    +0.068 C 
ENDROOT
BRANCH   2   3
ATOM      3  C9  UNL     1       2.441  -6.376 -32.161  0.00  0.00    +0.224 A 
ATOM      4  N2  UNL     1       2.533  -7.347 -33.001  0.00  0.00    -0.173 NA
ATOM      5  C10 UNL     1       1.577  -8.324 -33.012  0.00  0.00    +0.284 A 
ATOM      6  O1  UNL     1       1.609  -9.274 -33.786  0.00  0.00    -0.265 OA
ATOM      7  C11 UNL     1       0.465  -8.232 -32.055  0.00  0.00    +0.084 A 
ATOM      8  C12 UNL     1      -0.554  -9.188 -32.001  0.00  0.00    +0.017 A 
ATOM      9  C13 UNL     1      -1.584  -9.045 -31.068  0.00  0.00    +0.001 A 
ATOM     10  C14 UNL     1      -1.593  -7.952 -30.198  0.00  0.00    +0.004 A 
ATOM     11  C15 UNL     1      -0.573  -7.000 -30.255  0.00  0.00    +0.047 A 
ATOM     12  C16 UNL     1       0.450  -7.151 -31.189  0.00  0.00    +0.143 A 
ATOM     13  O2  UNL     1       1.450  -6.183 -31.217  0.00  0.00    -0.437 OA
ENDBRANCH   2   3
BRANCH   1  17
ATOM     14  C3  UNL     1       5.662  -0.589 -31.935  0.00  0.00    +0.029 A 
ATOM     15  C4  UNL     1       4.338  -0.447 -32.381  0.00  0.00    +0.023 A 
ATOM     16  C5  UNL     1       3.450  -1.533 -32.464  0.00  0.00    +0.010 A 
ATOM     17  C6  UNL     1       3.856  -2.815 -32.099  0.00  0.00    -0.025 A 
ATOM     18  C17 UNL     1       5.177  -2.989 -31.686  0.00  0.00    +0.010 A 
ATOM     19  C18 UNL     1       6.056  -1.897 -31.607  0.00  0.00    +0.023 A 
BRANCH  14  21
ATOM     20  C1  UNL     1       6.011   1.854 -31.951  0.00  0.00    +0.129 C 
ATOM     21  N1  UNL     1       6.546   0.496 -31.869  0.00  0.00    -0.336 N 
ATOM     22  C2  UNL     1       7.911   0.325 -32.363  0.00  0.00    +0.129 C 
ENDBRANCH  14  21
ENDBRANCH   1  17
TORSDOF 3
ENDMDL
MODEL 7
REMARK VINA RESULT:    -5.717     13.782     14.681
REMARK INTER + INTRA:          -7.088
REMARK INTER:                  -6.782
REMARK INTRA:                  -0.307
REMARK UNBOUND:                -0.369
REMARK  Name = /home/vital/Documents/PhD_2021/Malaria_codes/data/pdb_ligands_mmv/ligand_44.pdb
REMARK  5 active torsions:
REMARK  status: ('A' for Active; 'I' for Inactive)
REMARK    1  A    between atoms: C1_1  and  N1_2
REMARK    2  A    between atoms: N1_2  and  C2_3
REMARK    3  A    between atoms: N1_2  and  C3_4
REMARK    4  A    between atoms: C6_7  and  C7_8
REMARK    5  A    between atoms: C8_9  and  C9_10
REMARK                            x       y       z     vdW  Elec       q    Type
REMARK                         _______ _______ _______ _____ _____    ______ ____
ROOT
ATOM      1  C7  UNL     1       5.002  -4.304 -29.534  0.00  0.00    +0.013 C 
ATOM      2  C8  UNL     1       5.191  -3.298 -28.666  0.00  0.00    +0.068 C 
ENDROOT
BRANCH   2   3
ATOM      3  C9  UNL     1       5.985  -3.514 -27.436  0.00  0.00    +0.224 A 
ATOM      4  N2  UNL     1       5.841  -4.491 -26.610  0.00  0.00    -0.173 NA
ATOM      5  C10 UNL     1       6.648  -4.569 -25.510  0.00  0.00    +0.284 A 
ATOM      6  O1  UNL     1       6.561  -5.475 -24.688  0.00  0.00    -0.265 OA
ATOM      7  C11 UNL     1       7.663  -3.526 -25.303  0.00  0.00    +0.084 A 
ATOM      8  C12 UNL     1       8.526  -3.532 -24.204  0.00  0.00    +0.017 A 
ATOM      9  C13 UNL     1       9.470  -2.511 -24.064  0.00  0.00    +0.001 A 
ATOM     10  C14 UNL     1       9.546  -1.493 -25.018  0.00  0.00    +0.004 A 
ATOM     11  C15 UNL     1       8.682  -1.492 -26.114  0.00  0.00    +0.047 A 
ATOM     12  C16 UNL     1       7.744  -2.514 -26.246  0.00  0.00    +0.143 A 
ATOM     13  O2  UNL     1       6.899  -2.480 -27.352  0.00  0.00    -0.437 OA
ENDBRANCH   2   3
BRANCH   1  17
ATOM     14  C3  UNL     1       2.670  -3.930 -33.174  0.00  0.00    +0.029 A 
ATOM     15  C4  UNL     1       3.942  -3.346 -33.052  0.00  0.00    +0.023 A 
ATOM     16  C5  UNL     1       4.717  -3.463 -31.886  0.00  0.00    +0.010 A 
ATOM     17  C6  UNL     1       4.245  -4.176 -30.785  0.00  0.00    -0.025 A 
ATOM     18  C17 UNL     1       2.970  -4.736 -30.867  0.00  0.00    +0.010 A 
ATOM     19  C18 UNL     1       2.204  -4.613 -32.038  0.00  0.00    +0.023 A 
BRANCH  14  21
ATOM     20  C1  UNL     1       1.133  -2.568 -34.540  0.00  0.00    +0.129 C 
ATOM     21  N1  UNL     1       1.897  -3.796 -34.334  0.00  0.00    -0.336 N 
ATOM     22  C2  UNL     1       1.341  -4.997 -34.954  0.00  0.00    +0.129 C 
ENDBRANCH  14  21
ENDBRANCH   1  17
TORSDOF 3
ENDMDL
MODEL 8
REMARK VINA RESULT:    -5.640     13.078     14.083
REMARK INTER + INTRA:          -6.998
REMARK INTER:                  -6.620
REMARK INTRA:                  -0.378
REMARK UNBOUND:                -0.369
REMARK  Name = /home/vital/Documents/PhD_2021/Malaria_codes/data/pdb_ligands_mmv/ligand_44.pdb
REMARK  5 active torsions:
REMARK  status: ('A' for Active; 'I' for Inactive)
REMARK    1  A    between atoms: C1_1  and  N1_2
REMARK    2  A    between atoms: N1_2  and  C2_3
REMARK    3  A    between atoms: N1_2  and  C3_4
REMARK    4  A    between atoms: C6_7  and  C7_8
REMARK    5  A    between atoms: C8_9  and  C9_10
REMARK                            x       y       z     vdW  Elec       q    Type
REMARK                         _______ _______ _______ _____ _____    ______ ____
ROOT
ATOM      1  C7  UNL     1       4.253  -4.090 -29.102  0.00  0.00    +0.013 C 
ATOM      2  C8  UNL     1       5.546  -4.335 -28.837  0.00  0.00    +0.068 C 
ENDROOT
BRANCH   2   3
ATOM      3  C9  UNL     1       6.056  -4.224 -27.452  0.00  0.00    +0.224 A 
ATOM      4  N2  UNL     1       7.279  -4.001 -27.118  0.00  0.00    -0.173 NA
ATOM      5  C10 UNL     1       7.614  -3.921 -25.794  0.00  0.00    +0.284 A 
ATOM      6  O1  UNL     1       8.759  -3.709 -25.412  0.00  0.00    -0.265 OA
ATOM      7  C11 UNL     1       6.557  -4.095 -24.788  0.00  0.00    +0.084 A 
ATOM      8  C12 UNL     1       6.814  -4.029 -23.416  0.00  0.00    +0.017 A 
ATOM      9  C13 UNL     1       5.766  -4.203 -22.508  0.00  0.00    +0.001 A 
ATOM     10  C14 UNL     1       4.470  -4.441 -22.974  0.00  0.00    +0.004 A 
ATOM     11  C15 UNL     1       4.218  -4.505 -24.346  0.00  0.00    +0.047 A 
ATOM     12  C16 UNL     1       5.270  -4.331 -25.243  0.00  0.00    +0.143 A 
ATOM     13  O2  UNL     1       4.980  -4.402 -26.603  0.00  0.00    -0.437 OA
ENDBRANCH   2   3
BRANCH   1  17
ATOM     14  C3  UNL     1       2.398  -4.420 -33.010  0.00  0.00    +0.029 A 
ATOM     15  C4  UNL     1       3.450  -3.521 -32.769  0.00  0.00    +0.023 A 
ATOM     16  C5  UNL     1       4.070  -3.404 -31.514  0.00  0.00    +0.010 A 
ATOM     17  C6  UNL     1       3.658  -4.192 -30.440  0.00  0.00    -0.025 A 
ATOM     18  C17 UNL     1       2.592  -5.069 -30.643  0.00  0.00    +0.010 A 
ATOM     19  C18 UNL     1       1.980  -5.177 -31.903  0.00  0.00    +0.023 A 
BRANCH  14  21
ATOM     20  C1  UNL     1       1.259  -3.308 -34.895  0.00  0.00    +0.129 C 
ATOM     21  N1  UNL     1       1.776  -4.519 -34.261  0.00  0.00    -0.336 N 
ATOM     22  C2  UNL     1       1.081  -5.758 -34.607  0.00  0.00    +0.129 C 
ENDBRANCH  14  21
ENDBRANCH   1  17
TORSDOF 3
ENDMDL
MODEL 9
REMARK VINA RESULT:    -5.622     13.957     14.611
REMARK INTER + INTRA:          -6.977
REMARK INTER:                  -6.628
REMARK INTRA:                  -0.350
REMARK UNBOUND:                -0.369
REMARK  Name = /home/vital/Documents/PhD_2021/Malaria_codes/data/pdb_ligands_mmv/ligand_44.pdb
REMARK  5 active torsions:
REMARK  status: ('A' for Active; 'I' for Inactive)
REMARK    1  A    between atoms: C1_1  and  N1_2
REMARK    2  A    between atoms: N1_2  and  C2_3
REMARK    3  A    between atoms: N1_2  and  C3_4
REMARK    4  A    between atoms: C6_7  and  C7_8
REMARK    5  A    between atoms: C8_9  and  C9_10
REMARK                            x       y       z     vdW  Elec       q    Type
REMARK                         _______ _______ _______ _____ _____    ______ ____
ROOT
ATOM      1  C7  UNL     1       4.874  -3.676 -30.045  0.00  0.00    +0.013 C 
ATOM      2  C8  UNL     1       4.892  -2.555 -29.306  0.00  0.00    +0.068 C 
ENDROOT
BRANCH   2   3
ATOM      3  C9  UNL     1       5.924  -2.366 -28.262  0.00  0.00    +0.224 A 
ATOM      4  N2  UNL     1       6.825  -1.446 -28.254  0.00  0.00    -0.173 NA
ATOM      5  C10 UNL     1       7.719  -1.386 -27.222  0.00  0.00    +0.284 A 
ATOM      6  O1  UNL     1       8.598  -0.535 -27.156  0.00  0.00    -0.265 OA
ATOM      7  C11 UNL     1       7.621  -2.383 -26.146  0.00  0.00    +0.084 A 
ATOM      8  C12 UNL     1       8.496  -2.392 -25.056  0.00  0.00    +0.017 A 
ATOM      9  C13 UNL     1       8.352  -3.366 -24.064  0.00  0.00    +0.001 A 
ATOM     10  C14 UNL     1       7.338  -4.322 -24.166  0.00  0.00    +0.004 A 
ATOM     11  C15 UNL     1       6.466  -4.308 -25.256  0.00  0.00    +0.047 A 
ATOM     12  C16 UNL     1       6.618  -3.333 -26.240  0.00  0.00    +0.143 A 
ATOM     13  O2  UNL     1       5.731  -3.351 -27.313  0.00  0.00    -0.437 OA
ENDBRANCH   2   3
BRANCH   1  17
ATOM     14  C3  UNL     1       2.070  -4.427 -33.270  0.00  0.00    +0.029 A 
ATOM     15  C4  UNL     1       1.994  -5.123 -32.052  0.00  0.00    +0.023 A 
ATOM     16  C5  UNL     1       2.886  -4.889 -30.992  0.00  0.00    +0.010 A 
ATOM     17  C6  UNL     1       3.900  -3.939 -31.110  0.00  0.00    -0.025 A 
ATOM     18  C17 UNL     1       4.019  -3.258 -32.321  0.00  0.00    +0.010 A 
ATOM     19  C18 UNL     1       3.121  -3.500 -33.374  0.00  0.00    +0.023 A 
BRANCH  14  21
ATOM     20  C1  UNL     1       0.711  -6.041 -34.547  0.00  0.00    +0.129 C 
ATOM     21  N1  UNL     1       1.186  -4.677 -34.327  0.00  0.00    -0.336 N 
ATOM     22  C2  UNL     1       1.253  -3.832 -35.518  0.00  0.00    +0.129 C 
ENDBRANCH  14  21
ENDBRANCH   1  17
TORSDOF 3
ENDMDL
