MODEL 1
REMARK VINA RESULT:    -6.168      0.000      0.000
REMARK INTER + INTRA:          -7.971
REMARK INTER:                  -7.431
REMARK INTRA:                  -0.541
REMARK UNBOUND:                -0.541
REMARK  Name = /home/vital/Documents/PhD_2021/Malaria_codes/data/pdb_ligands_mmv/ligand_399.pdb
REMARK  4 active torsions:
REMARK  status: ('A' for Active; 'I' for Inactive)
REMARK    1  A    between atoms: O1_1  and  C1_2
REMARK    2  A    between atoms: C1_2  and  C2_3
REMARK    3  A    between atoms: C2_3  and  N1_4
REMARK    4  A    between atoms: N3_8  and  C5_9
REMARK                            x       y       z     vdW  Elec       q    Type
REMARK                         _______ _______ _______ _____ _____    ______ ____
ROOT
ATOM      1  N1  UNL     1       7.357  -0.383 -27.013  0.00  0.00    -0.326 N 
ATOM      2  C3  UNL     1       6.857  -1.657 -27.332  0.00  0.00    +0.132 A 
ATOM      3  N2  UNL     1       6.342  -1.752 -28.568  0.00  0.00    -0.199 NA
ATOM      4  C4  UNL     1       5.893  -2.951 -28.965  0.00  0.00    +0.222 A 
ATOM      5  N3  UNL     1       5.381  -2.978 -30.261  0.00  0.00    -0.284 N 
ATOM      6  N4  UNL     1       5.940  -4.047 -28.202  0.00  0.00    -0.214 NA
ATOM      7  C11 UNL     1       6.425  -3.939 -26.961  0.00  0.00    +0.078 A 
ATOM      8  C12 UNL     1       6.448  -5.067 -26.148  0.00  0.00    +0.028 A 
ATOM      9  C13 UNL     1       6.918  -5.022 -24.833  0.00  0.00    +0.002 A 
ATOM     10  C14 UNL     1       7.370  -3.822 -24.303  0.00  0.00    +0.001 A 
ATOM     11  C15 UNL     1       7.360  -2.681 -25.100  0.00  0.00    +0.013 A 
ATOM     12  C16 UNL     1       6.905  -2.736 -26.443  0.00  0.00    +0.040 A 
ATOM     13  H6  UNL     1       7.008   0.212 -27.768  0.00  0.00    +0.148 HD
ATOM     14  H7  UNL     1       5.421  -2.043 -30.642  0.00  0.00    +0.155 HD
ENDROOT
BRANCH   5  15
ATOM     15  C5  UNL     1       4.788  -3.967 -31.053  0.00  0.00    +0.035 A 
ATOM     16  C6  UNL     1       5.367  -4.490 -32.212  0.00  0.00    +0.025 A 
ATOM     17  C7  UNL     1       4.717  -5.471 -32.972  0.00  0.00    +0.023 A 
ATOM     18  C8  UNL     1       3.466  -5.947 -32.585  0.00  0.00    +0.059 A 
ATOM     19 CL1  UNL     1       2.721  -7.156 -33.566  0.00  0.00    -0.082 Cl
ATOM     20  C9  UNL     1       2.867  -5.436 -31.433  0.00  0.00    +0.061 A 
ATOM     21 CL2  UNL     1       1.316  -5.967 -30.883  0.00  0.00    -0.082 Cl
ATOM     22  C10 UNL     1       3.524  -4.455 -30.680  0.00  0.00    +0.044 A 
ENDBRANCH   5  15
BRANCH   1  23
ATOM     23  C2  UNL     1       8.827  -0.317 -27.010  0.00  0.00    +0.130 C 
BRANCH  23  24
ATOM     24  C1  UNL     1       9.399   0.543 -28.148  0.00  0.00    +0.174 C 
BRANCH  24  25
ATOM     25  O1  UNL     1       8.654   0.347 -29.347  0.00  0.00    -0.393 OA
ATOM     26  H1  UNL     1       7.986  -0.336 -29.168  0.00  0.00    +0.209 HD
ENDBRANCH  24  25
ENDBRANCH  23  24
ENDBRANCH   1  23
TORSDOF 4
ENDMDL
MODEL 2
REMARK VINA RESULT:    -6.031     11.802     14.035
REMARK INTER + INTRA:          -7.806
REMARK INTER:                  -7.503
REMARK INTRA:                  -0.303
REMARK UNBOUND:                -0.541
REMARK  Name = /home/vital/Documents/PhD_2021/Malaria_codes/data/pdb_ligands_mmv/ligand_399.pdb
REMARK  4 active torsions:
REMARK  status: ('A' for Active; 'I' for Inactive)
REMARK    1  A    between atoms: O1_1  and  C1_2
REMARK    2  A    between atoms: C1_2  and  C2_3
REMARK    3  A    between atoms: C2_3  and  N1_4
REMARK    4  A    between atoms: N3_8  and  C5_9
REMARK                            x       y       z     vdW  Elec       q    Type
REMARK                         _______ _______ _______ _____ _____    ______ ____
ROOT
ATOM      1  N1  UNL     1       2.118   5.218 -15.722  0.00  0.00    -0.326 N 
ATOM      2  C3  UNL     1       1.696   4.225 -16.623  0.00  0.00    +0.132 A 
ATOM      3  N2  UNL     1       2.434   3.104 -16.591  0.00  0.00    -0.199 NA
ATOM      4  C4  UNL     1       2.061   2.091 -17.385  0.00  0.00    +0.222 A 
ATOM      5  N3  UNL     1       2.866   0.957 -17.293  0.00  0.00    -0.284 N 
ATOM      6  N4  UNL     1       0.996   2.137 -18.192  0.00  0.00    -0.214 NA
ATOM      7  C11 UNL     1       0.284   3.268 -18.242  0.00  0.00    +0.078 A 
ATOM      8  C12 UNL     1      -0.805   3.337 -19.103  0.00  0.00    +0.028 A 
ATOM      9  C13 UNL     1      -1.579   4.495 -19.226  0.00  0.00    +0.002 A 
ATOM     10  C14 UNL     1      -1.258   5.620 -18.480  0.00  0.00    +0.001 A 
ATOM     11  C15 UNL     1      -0.174   5.572 -17.609  0.00  0.00    +0.013 A 
ATOM     12  C16 UNL     1       0.594   4.387 -17.469  0.00  0.00    +0.040 A 
ATOM     13  H6  UNL     1       3.030   4.886 -15.402  0.00  0.00    +0.148 HD
ATOM     14  H7  UNL     1       3.618   1.148 -16.647  0.00  0.00    +0.155 HD
ENDROOT
BRANCH   5  15
ATOM     15  C5  UNL     1       2.876  -0.283 -17.941  0.00  0.00    +0.035 A 
ATOM     16  C6  UNL     1       1.782  -1.151 -17.984  0.00  0.00    +0.025 A 
ATOM     17  C7  UNL     1       1.858  -2.388 -18.637  0.00  0.00    +0.023 A 
ATOM     18  C8  UNL     1       3.040  -2.784 -19.260  0.00  0.00    +0.059 A 
ATOM     19 CL1  UNL     1       3.067  -4.320 -20.046  0.00  0.00    -0.082 Cl
ATOM     20  C9  UNL     1       4.148  -1.935 -19.226  0.00  0.00    +0.061 A 
ATOM     21 CL2  UNL     1       5.654  -2.347 -19.969  0.00  0.00    -0.082 Cl
ATOM     22  C10 UNL     1       4.062  -0.700 -18.570  0.00  0.00    +0.044 A 
ENDBRANCH   5  15
BRANCH   1  23
ATOM     23  C2  UNL     1       1.237   5.356 -14.551  0.00  0.00    +0.130 C 
BRANCH  23  24
ATOM     24  C1  UNL     1       1.778   4.651 -13.298  0.00  0.00    +0.174 C 
BRANCH  24  25
ATOM     25  O1  UNL     1       2.658   5.512 -12.579  0.00  0.00    -0.393 OA
ATOM     26  H1  UNL     1       3.535   5.090 -12.567  0.00  0.00    +0.209 HD
ENDBRANCH  24  25
ENDBRANCH  23  24
ENDBRANCH   1  23
TORSDOF 4
ENDMDL
MODEL 3
REMARK VINA RESULT:    -6.009      4.814      8.115
REMARK INTER + INTRA:          -7.779
REMARK INTER:                  -7.557
REMARK INTRA:                  -0.222
REMARK UNBOUND:                -0.541
REMARK  Name = /home/vital/Documents/PhD_2021/Malaria_codes/data/pdb_ligands_mmv/ligand_399.pdb
REMARK  4 active torsions:
REMARK  status: ('A' for Active; 'I' for Inactive)
REMARK    1  A    between atoms: O1_1  and  C1_2
REMARK    2  A    between atoms: C1_2  and  C2_3
REMARK    3  A    between atoms: C2_3  and  N1_4
REMARK    4  A    between atoms: N3_8  and  C5_9
REMARK                            x       y       z     vdW  Elec       q    Type
REMARK                         _______ _______ _______ _____ _____    ______ ____
ROOT
ATOM      1  N1  UNL     1       0.891  -5.836 -30.303  0.00  0.00    -0.326 N 
ATOM      2  C3  UNL     1       2.118  -5.174 -30.122  0.00  0.00    +0.132 A 
ATOM      3  N2  UNL     1       2.645  -5.318 -28.897  0.00  0.00    -0.199 NA
ATOM      4  C4  UNL     1       3.841  -4.759 -28.664  0.00  0.00    +0.222 A 
ATOM      5  N3  UNL     1       4.332  -4.957 -27.374  0.00  0.00    -0.284 N 
ATOM      6  N4  UNL     1       4.531  -4.080 -29.585  0.00  0.00    -0.214 NA
ATOM      7  C11 UNL     1       3.985  -3.912 -30.794  0.00  0.00    +0.078 A 
ATOM      8  C12 UNL     1       4.681  -3.178 -31.749  0.00  0.00    +0.028 A 
ATOM      9  C13 UNL     1       4.161  -2.942 -33.025  0.00  0.00    +0.002 A 
ATOM     10  C14 UNL     1       2.910  -3.441 -33.361  0.00  0.00    +0.001 A 
ATOM     11  C15 UNL     1       2.198  -4.182 -32.423  0.00  0.00    +0.013 A 
ATOM     12  C16 UNL     1       2.740  -4.439 -31.137  0.00  0.00    +0.040 A 
ATOM     13  H6  UNL     1       0.618  -6.106 -29.356  0.00  0.00    +0.148 HD
ATOM     14  H7  UNL     1       3.644  -5.473 -26.844  0.00  0.00    +0.155 HD
ENDROOT
BRANCH   5  15
ATOM     15  C5  UNL     1       5.482  -4.538 -26.696  0.00  0.00    +0.035 A 
ATOM     16  C6  UNL     1       6.779  -4.689 -27.193  0.00  0.00    +0.025 A 
ATOM     17  C7  UNL     1       7.894  -4.261 -26.460  0.00  0.00    +0.023 A 
ATOM     18  C8  UNL     1       7.729  -3.675 -25.206  0.00  0.00    +0.059 A 
ATOM     19 CL1  UNL     1       9.144  -3.170 -24.356  0.00  0.00    -0.082 Cl
ATOM     20  C9  UNL     1       6.443  -3.518 -24.689  0.00  0.00    +0.061 A 
ATOM     21 CL2  UNL     1       6.147  -2.805 -23.141  0.00  0.00    -0.082 Cl
ATOM     22  C10 UNL     1       5.334  -3.949 -25.429  0.00  0.00    +0.044 A 
ENDBRANCH   5  15
BRANCH   1  23
ATOM     23  C2  UNL     1       1.001  -7.056 -31.120  0.00  0.00    +0.130 C 
BRANCH  23  24
ATOM     24  C1  UNL     1      -0.148  -8.048 -30.887  0.00  0.00    +0.174 C 
BRANCH  24  25
ATOM     25  O1  UNL     1       0.114  -9.283 -31.549  0.00  0.00    -0.393 OA
ATOM     26  H1  UNL     1      -0.675  -9.509 -32.071  0.00  0.00    +0.209 HD
ENDBRANCH  24  25
ENDBRANCH  23  24
ENDBRANCH   1  23
TORSDOF 4
ENDMDL
MODEL 4
REMARK VINA RESULT:    -5.921      5.933      8.033
REMARK INTER + INTRA:          -7.673
REMARK INTER:                  -7.395
REMARK INTRA:                  -0.278
REMARK UNBOUND:                -0.541
REMARK  Name = /home/vital/Documents/PhD_2021/Malaria_codes/data/pdb_ligands_mmv/ligand_399.pdb
REMARK  4 active torsions:
REMARK  status: ('A' for Active; 'I' for Inactive)
REMARK    1  A    between atoms: O1_1  and  C1_2
REMARK    2  A    between atoms: C1_2  and  C2_3
REMARK    3  A    between atoms: C2_3  and  N1_4
REMARK    4  A    between atoms: N3_8  and  C5_9
REMARK                            x       y       z     vdW  Elec       q    Type
REMARK                         _______ _______ _______ _____ _____    ______ ____
ROOT
ATOM      1  N1  UNL     1      12.827   2.756 -25.430  0.00  0.00    -0.326 N 
ATOM      2  C3  UNL     1      11.909   1.810 -25.919  0.00  0.00    +0.132 A 
ATOM      3  N2  UNL     1      11.428   0.976 -24.983  0.00  0.00    -0.199 NA
ATOM      4  C4  UNL     1      10.507   0.079 -25.363  0.00  0.00    +0.222 A 
ATOM      5  N3  UNL     1      10.046  -0.747 -24.340  0.00  0.00    -0.284 N 
ATOM      6  N4  UNL     1      10.042  -0.018 -26.612  0.00  0.00    -0.214 NA
ATOM      7  C11 UNL     1      10.549   0.794 -27.546  0.00  0.00    +0.078 A 
ATOM      8  C12 UNL     1      10.095   0.677 -28.855  0.00  0.00    +0.028 A 
ATOM      9  C13 UNL     1      10.597   1.476 -29.887  0.00  0.00    +0.002 A 
ATOM     10  C14 UNL     1      11.585   2.412 -29.614  0.00  0.00    +0.001 A 
ATOM     11  C15 UNL     1      12.051   2.549 -28.310  0.00  0.00    +0.013 A 
ATOM     12  C16 UNL     1      11.521   1.753 -27.261  0.00  0.00    +0.040 A 
ATOM     13  H6  UNL     1      13.041   2.424 -24.488  0.00  0.00    +0.148 HD
ATOM     14  H7  UNL     1      10.545  -0.516 -23.492  0.00  0.00    +0.155 HD
ENDROOT
BRANCH   5  15
ATOM     15  C5  UNL     1       9.144  -1.815 -24.283  0.00  0.00    +0.035 A 
ATOM     16  C6  UNL     1       9.149  -2.888 -25.178  0.00  0.00    +0.025 A 
ATOM     17  C7  UNL     1       8.209  -3.922 -25.080  0.00  0.00    +0.023 A 
ATOM     18  C8  UNL     1       7.239  -3.899 -24.079  0.00  0.00    +0.059 A 
ATOM     19 CL1  UNL     1       6.112  -5.205 -24.014  0.00  0.00    -0.082 Cl
ATOM     20  C9  UNL     1       7.213  -2.835 -23.178  0.00  0.00    +0.061 A 
ATOM     21 CL2  UNL     1       6.043  -2.724 -21.909  0.00  0.00    -0.082 Cl
ATOM     22  C10 UNL     1       8.156  -1.804 -23.284  0.00  0.00    +0.044 A 
ENDBRANCH   5  15
BRANCH   1  23
ATOM     23  C2  UNL     1      12.266   4.114 -25.328  0.00  0.00    +0.130 C 
BRANCH  23  24
ATOM     24  C1  UNL     1      12.574   4.798 -23.987  0.00  0.00    +0.174 C 
BRANCH  24  25
ATOM     25  O1  UNL     1      13.405   3.968 -23.179  0.00  0.00    -0.393 OA
ATOM     26  H1  UNL     1      14.271   3.905 -23.619  0.00  0.00    +0.209 HD
ENDBRANCH  24  25
ENDBRANCH  23  24
ENDBRANCH   1  23
TORSDOF 4
ENDMDL
MODEL 5
REMARK VINA RESULT:    -5.822     13.528     15.558
REMARK INTER + INTRA:          -7.554
REMARK INTER:                  -7.149
REMARK INTRA:                  -0.406
REMARK UNBOUND:                -0.541
REMARK  Name = /home/vital/Documents/PhD_2021/Malaria_codes/data/pdb_ligands_mmv/ligand_399.pdb
REMARK  4 active torsions:
REMARK  status: ('A' for Active; 'I' for Inactive)
REMARK    1  A    between atoms: O1_1  and  C1_2
REMARK    2  A    between atoms: C1_2  and  C2_3
REMARK    3  A    between atoms: C2_3  and  N1_4
REMARK    4  A    between atoms: N3_8  and  C5_9
REMARK                            x       y       z     vdW  Elec       q    Type
REMARK                         _______ _______ _______ _____ _____    ______ ____
ROOT
ATOM      1  N1  UNL     1       3.231   3.297 -13.242  0.00  0.00    -0.326 N 
ATOM      2  C3  UNL     1       2.746   3.194 -14.558  0.00  0.00    +0.132 A 
ATOM      3  N2  UNL     1       1.634   3.909 -14.791  0.00  0.00    -0.199 NA
ATOM      4  C4  UNL     1       1.141   3.904 -16.037  0.00  0.00    +0.222 A 
ATOM      5  N3  UNL     1      -0.008   4.673 -16.209  0.00  0.00    -0.284 N 
ATOM      6  N4  UNL     1       1.701   3.236 -17.051  0.00  0.00    -0.214 NA
ATOM      7  C11 UNL     1       2.791   2.501 -16.805  0.00  0.00    +0.078 A 
ATOM      8  C12 UNL     1       3.361   1.777 -17.846  0.00  0.00    +0.028 A 
ATOM      9  C13 UNL     1       4.486   0.968 -17.656  0.00  0.00    +0.002 A 
ATOM     10  C14 UNL     1       5.056   0.867 -16.394  0.00  0.00    +0.001 A 
ATOM     11  C15 UNL     1       4.504   1.587 -15.339  0.00  0.00    +0.013 A 
ATOM     12  C16 UNL     1       3.377   2.425 -15.541  0.00  0.00    +0.040 A 
ATOM     13  H6  UNL     1       2.470   3.755 -12.737  0.00  0.00    +0.148 HD
ATOM     14  H7  UNL     1      -0.267   5.067 -15.316  0.00  0.00    +0.155 HD
ENDROOT
BRANCH   5  15
ATOM     15  C5  UNL     1      -0.859   4.923 -17.291  0.00  0.00    +0.035 A 
ATOM     16  C6  UNL     1      -2.218   4.598 -17.306  0.00  0.00    +0.025 A 
ATOM     17  C7  UNL     1      -3.017   4.860 -18.427  0.00  0.00    +0.023 A 
ATOM     18  C8  UNL     1      -2.466   5.451 -19.562  0.00  0.00    +0.059 A 
ATOM     19 CL1  UNL     1      -3.506   5.746 -20.908  0.00  0.00    -0.082 Cl
ATOM     20  C9  UNL     1      -1.110   5.779 -19.571  0.00  0.00    +0.061 A 
ATOM     21 CL2  UNL     1      -0.343   6.511 -20.938  0.00  0.00    -0.082 Cl
ATOM     22  C10 UNL     1      -0.318   5.513 -18.446  0.00  0.00    +0.044 A 
ENDBRANCH   5  15
BRANCH   1  23
ATOM     23  C2  UNL     1       4.436   4.136 -13.129  0.00  0.00    +0.130 C 
BRANCH  23  24
ATOM     24  C1  UNL     1       4.193   5.447 -12.366  0.00  0.00    +0.174 C 
BRANCH  24  25
ATOM     25  O1  UNL     1       2.806   5.611 -12.081  0.00  0.00    -0.393 OA
ATOM     26  H1  UNL     1       2.458   6.280 -12.696  0.00  0.00    +0.209 HD
ENDBRANCH  24  25
ENDBRANCH  23  24
ENDBRANCH   1  23
TORSDOF 4
ENDMDL
MODEL 6
REMARK VINA RESULT:    -5.763     12.070     13.529
REMARK INTER + INTRA:          -7.482
REMARK INTER:                  -6.999
REMARK INTRA:                  -0.483
REMARK UNBOUND:                -0.541
REMARK  Name = /home/vital/Documents/PhD_2021/Malaria_codes/data/pdb_ligands_mmv/ligand_399.pdb
REMARK  4 active torsions:
REMARK  status: ('A' for Active; 'I' for Inactive)
REMARK    1  A    between atoms: O1_1  and  C1_2
REMARK    2  A    between atoms: C1_2  and  C2_3
REMARK    3  A    between atoms: C2_3  and  N1_4
REMARK    4  A    between atoms: N3_8  and  C5_9
REMARK                            x       y       z     vdW  Elec       q    Type
REMARK                         _______ _______ _______ _____ _____    ______ ____
ROOT
ATOM      1  N1  UNL     1       2.598   3.247 -17.945  0.00  0.00    -0.326 N 
ATOM      2  C3  UNL     1       1.280   3.235 -18.434  0.00  0.00    +0.132 A 
ATOM      3  N2  UNL     1       0.831   2.017 -18.775  0.00  0.00    -0.199 NA
ATOM      4  C4  UNL     1      -0.436   1.918 -19.201  0.00  0.00    +0.222 A 
ATOM      5  N3  UNL     1      -0.838   0.624 -19.529  0.00  0.00    -0.284 N 
ATOM      6  N4  UNL     1      -1.269   2.959 -19.292  0.00  0.00    -0.214 NA
ATOM      7  C11 UNL     1      -0.806   4.174 -18.981  0.00  0.00    +0.078 A 
ATOM      8  C12 UNL     1      -1.655   5.269 -19.106  0.00  0.00    +0.028 A 
ATOM      9  C13 UNL     1      -1.231   6.570 -18.822  0.00  0.00    +0.002 A 
ATOM     10  C14 UNL     1       0.076   6.795 -18.412  0.00  0.00    +0.001 A 
ATOM     11  C15 UNL     1       0.942   5.714 -18.276  0.00  0.00    +0.013 A 
ATOM     12  C16 UNL     1       0.501   4.392 -18.542  0.00  0.00    +0.040 A 
ATOM     13  H6  UNL     1       2.949   2.313 -18.168  0.00  0.00    +0.148 HD
ATOM     14  H7  UNL     1      -0.050   0.003 -19.407  0.00  0.00    +0.155 HD
ENDROOT
BRANCH   5  15
ATOM     15  C5  UNL     1      -2.019   0.071 -20.035  0.00  0.00    +0.035 A 
ATOM     16  C6  UNL     1      -3.100  -0.320 -19.241  0.00  0.00    +0.025 A 
ATOM     17  C7  UNL     1      -4.252  -0.883 -19.806  0.00  0.00    +0.023 A 
ATOM     18  C8  UNL     1      -4.342  -1.069 -21.184  0.00  0.00    +0.059 A 
ATOM     19 CL1  UNL     1      -5.789  -1.767 -21.815  0.00  0.00    -0.082 Cl
ATOM     20  C9  UNL     1      -3.271  -0.691 -21.996  0.00  0.00    +0.061 A 
ATOM     21 CL2  UNL     1      -3.296  -0.889 -23.714  0.00  0.00    -0.082 Cl
ATOM     22  C10 UNL     1      -2.123  -0.129 -21.422  0.00  0.00    +0.044 A 
ENDBRANCH   5  15
BRANCH   1  23
ATOM     23  C2  UNL     1       2.678   3.439 -16.488  0.00  0.00    +0.130 C 
BRANCH  23  24
ATOM     24  C1  UNL     1       3.024   2.151 -15.724  0.00  0.00    +0.174 C 
BRANCH  24  25
ATOM     25  O1  UNL     1       1.841   1.422 -15.408  0.00  0.00    -0.393 OA
ATOM     26  H1  UNL     1       2.080   0.748 -14.750  0.00  0.00    +0.209 HD
ENDBRANCH  24  25
ENDBRANCH  23  24
ENDBRANCH   1  23
TORSDOF 4
ENDMDL
MODEL 7
REMARK VINA RESULT:    -5.672     12.111     13.784
REMARK INTER + INTRA:          -7.373
REMARK INTER:                  -7.019
REMARK INTRA:                  -0.353
REMARK UNBOUND:                -0.541
REMARK  Name = /home/vital/Documents/PhD_2021/Malaria_codes/data/pdb_ligands_mmv/ligand_399.pdb
REMARK  4 active torsions:
REMARK  status: ('A' for Active; 'I' for Inactive)
REMARK    1  A    between atoms: O1_1  and  C1_2
REMARK    2  A    between atoms: C1_2  and  C2_3
REMARK    3  A    between atoms: C2_3  and  N1_4
REMARK    4  A    between atoms: N3_8  and  C5_9
REMARK                            x       y       z     vdW  Elec       q    Type
REMARK                         _______ _______ _______ _____ _____    ______ ____
ROOT
ATOM      1  N1  UNL     1       2.966   3.397 -15.930  0.00  0.00    -0.326 N 
ATOM      2  C3  UNL     1       1.954   3.312 -16.902  0.00  0.00    +0.132 A 
ATOM      3  N2  UNL     1       1.734   2.070 -17.359  0.00  0.00    -0.199 NA
ATOM      4  C4  UNL     1       0.747   1.899 -18.249  0.00  0.00    +0.222 A 
ATOM      5  N3  UNL     1       0.569   0.584 -18.674  0.00  0.00    -0.284 N 
ATOM      6  N4  UNL     1      -0.028   2.894 -18.693  0.00  0.00    -0.214 NA
ATOM      7  C11 UNL     1       0.217   4.134 -18.257  0.00  0.00    +0.078 A 
ATOM      8  C12 UNL     1      -0.561   5.181 -18.739  0.00  0.00    +0.028 A 
ATOM      9  C13 UNL     1      -0.346   6.506 -18.346  0.00  0.00    +0.002 A 
ATOM     10  C14 UNL     1       0.678   6.803 -17.458  0.00  0.00    +0.001 A 
ATOM     11  C15 UNL     1       1.467   5.770 -16.960  0.00  0.00    +0.013 A 
ATOM     12  C16 UNL     1       1.229   4.424 -17.342  0.00  0.00    +0.040 A 
ATOM     13  H6  UNL     1       3.419   2.482 -15.969  0.00  0.00    +0.148 HD
ATOM     14  H7  UNL     1       1.271   0.006 -18.233  0.00  0.00    +0.155 HD
ENDROOT
BRANCH   5  15
ATOM     15  C5  UNL     1      -0.286  -0.035 -19.592  0.00  0.00    +0.035 A 
ATOM     16  C6  UNL     1       0.110  -0.461 -20.863  0.00  0.00    +0.025 A 
ATOM     17  C7  UNL     1      -0.797  -1.062 -21.744  0.00  0.00    +0.023 A 
ATOM     18  C8  UNL     1      -2.127  -1.246 -21.370  0.00  0.00    +0.059 A 
ATOM     19 CL1  UNL     1      -3.192  -1.993 -22.504  0.00  0.00    -0.082 Cl
ATOM     20  C9  UNL     1      -2.546  -0.823 -20.108  0.00  0.00    +0.061 A 
ATOM     21 CL2  UNL     1      -4.176  -1.008 -19.563  0.00  0.00    -0.082 Cl
ATOM     22  C10 UNL     1      -1.631  -0.223 -19.232  0.00  0.00    +0.044 A 
ENDBRANCH   5  15
BRANCH   1  23
ATOM     23  C2  UNL     1       2.451   3.604 -14.567  0.00  0.00    +0.130 C 
BRANCH  23  24
ATOM     24  C1  UNL     1       3.287   2.898 -13.488  0.00  0.00    +0.174 C 
BRANCH  24  25
ATOM     25  O1  UNL     1       2.599   2.899 -12.240  0.00  0.00    -0.393 OA
ATOM     26  H1  UNL     1       1.758   2.428 -12.369  0.00  0.00    +0.209 HD
ENDBRANCH  24  25
ENDBRANCH  23  24
ENDBRANCH   1  23
TORSDOF 4
ENDMDL
MODEL 8
REMARK VINA RESULT:    -5.592     12.288     14.197
REMARK INTER + INTRA:          -7.276
REMARK INTER:                  -6.922
REMARK INTRA:                  -0.354
REMARK UNBOUND:                -0.541
REMARK  Name = /home/vital/Documents/PhD_2021/Malaria_codes/data/pdb_ligands_mmv/ligand_399.pdb
REMARK  4 active torsions:
REMARK  status: ('A' for Active; 'I' for Inactive)
REMARK    1  A    between atoms: O1_1  and  C1_2
REMARK    2  A    between atoms: C1_2  and  C2_3
REMARK    3  A    between atoms: C2_3  and  N1_4
REMARK    4  A    between atoms: N3_8  and  C5_9
REMARK                            x       y       z     vdW  Elec       q    Type
REMARK                         _______ _______ _______ _____ _____    ______ ____
ROOT
ATOM      1  N1  UNL     1      -3.112  -3.462 -20.214  0.00  0.00    -0.326 N 
ATOM      2  C3  UNL     1      -3.279  -2.101 -20.527  0.00  0.00    +0.132 A 
ATOM      3  N2  UNL     1      -2.357  -1.294 -19.981  0.00  0.00    -0.199 NA
ATOM      4  C4  UNL     1      -2.419   0.012 -20.278  0.00  0.00    +0.222 A 
ATOM      5  N3  UNL     1      -1.425   0.789 -19.684  0.00  0.00    -0.284 N 
ATOM      6  N4  UNL     1      -3.338   0.543 -21.089  0.00  0.00    -0.214 NA
ATOM      7  C11 UNL     1      -4.273  -0.262 -21.605  0.00  0.00    +0.078 A 
ATOM      8  C12 UNL     1      -5.255   0.287 -22.423  0.00  0.00    +0.028 A 
ATOM      9  C13 UNL     1      -6.277  -0.490 -22.977  0.00  0.00    +0.002 A 
ATOM     10  C14 UNL     1      -6.334  -1.849 -22.702  0.00  0.00    +0.001 A 
ATOM     11  C15 UNL     1      -5.359  -2.421 -21.889  0.00  0.00    +0.013 A 
ATOM     12  C16 UNL     1      -4.310  -1.633 -21.349  0.00  0.00    +0.040 A 
ATOM     13  H6  UNL     1      -2.417  -3.455 -19.465  0.00  0.00    +0.148 HD
ATOM     14  H7  UNL     1      -0.858   0.192 -19.099  0.00  0.00    +0.155 HD
ENDROOT
BRANCH   5  15
ATOM     15  C5  UNL     1      -1.133   2.157 -19.680  0.00  0.00    +0.035 A 
ATOM     16  C6  UNL     1      -2.090   3.159 -19.500  0.00  0.00    +0.025 A 
ATOM     17  C7  UNL     1      -1.737   4.514 -19.521  0.00  0.00    +0.023 A 
ATOM     18  C8  UNL     1      -0.412   4.894 -19.727  0.00  0.00    +0.059 A 
ATOM     19 CL1  UNL     1      -0.046   6.581 -19.741  0.00  0.00    -0.082 Cl
ATOM     20  C9  UNL     1       0.559   3.910 -19.914  0.00  0.00    +0.061 A 
ATOM     21 CL2  UNL     1       2.225   4.292 -20.180  0.00  0.00    -0.082 Cl
ATOM     22  C10 UNL     1       0.198   2.557 -19.892  0.00  0.00    +0.044 A 
ENDBRANCH   5  15
BRANCH   1  23
ATOM     23  C2  UNL     1      -2.584  -4.258 -21.334  0.00  0.00    +0.130 C 
BRANCH  23  24
ATOM     24  C1  UNL     1      -1.126  -3.922 -21.682  0.00  0.00    +0.174 C 
BRANCH  24  25
ATOM     25  O1  UNL     1      -0.349  -3.770 -20.497  0.00  0.00    -0.393 OA
ATOM     26  H1  UNL     1       0.180  -4.579 -20.388  0.00  0.00    +0.209 HD
ENDBRANCH  24  25
ENDBRANCH  23  24
ENDBRANCH   1  23
TORSDOF 4
ENDMDL
MODEL 9
REMARK VINA RESULT:    -5.536      3.870      6.304
REMARK INTER + INTRA:          -7.209
REMARK INTER:                  -6.854
REMARK INTRA:                  -0.355
REMARK UNBOUND:                -0.541
REMARK  Name = /home/vital/Documents/PhD_2021/Malaria_codes/data/pdb_ligands_mmv/ligand_399.pdb
REMARK  4 active torsions:
REMARK  status: ('A' for Active; 'I' for Inactive)
REMARK    1  A    between atoms: O1_1  and  C1_2
REMARK    2  A    between atoms: C1_2  and  C2_3
REMARK    3  A    between atoms: C2_3  and  N1_4
REMARK    4  A    between atoms: N3_8  and  C5_9
REMARK                            x       y       z     vdW  Elec       q    Type
REMARK                         _______ _______ _______ _____ _____    ______ ____
ROOT
ATOM      1  N1  UNL     1       5.455  -2.471 -32.235  0.00  0.00    -0.326 N 
ATOM      2  C3  UNL     1       4.150  -2.992 -32.292  0.00  0.00    +0.132 A 
ATOM      3  N2  UNL     1       4.093  -4.332 -32.296  0.00  0.00    -0.199 NA
ATOM      4  C4  UNL     1       2.881  -4.904 -32.295  0.00  0.00    +0.222 A 
ATOM      5  N3  UNL     1       2.897  -6.297 -32.290  0.00  0.00    -0.284 N 
ATOM      6  N4  UNL     1       1.737  -4.211 -32.282  0.00  0.00    -0.214 NA
ATOM      7  C11 UNL     1       1.801  -2.876 -32.310  0.00  0.00    +0.078 A 
ATOM      8  C12 UNL     1       0.617  -2.148 -32.330  0.00  0.00    +0.028 A 
ATOM      9  C13 UNL     1       0.608  -0.751 -32.384  0.00  0.00    +0.002 A 
ATOM     10  C14 UNL     1       1.808  -0.056 -32.429  0.00  0.00    +0.001 A 
ATOM     11  C15 UNL     1       3.006  -0.764 -32.406  0.00  0.00    +0.013 A 
ATOM     12  C16 UNL     1       3.011  -2.181 -32.327  0.00  0.00    +0.040 A 
ATOM     13  H6  UNL     1       6.049  -3.283 -32.413  0.00  0.00    +0.148 HD
ATOM     14  H7  UNL     1       3.857  -6.608 -32.325  0.00  0.00    +0.155 HD
ENDROOT
BRANCH   5  15
ATOM     15  C5  UNL     1       1.903  -7.282 -32.325  0.00  0.00    +0.035 A 
ATOM     16  C6  UNL     1       1.818  -8.270 -33.310  0.00  0.00    +0.025 A 
ATOM     17  C7  UNL     1       0.790  -9.221 -33.300  0.00  0.00    +0.023 A 
ATOM     18  C8  UNL     1      -0.181  -9.198 -32.300  0.00  0.00    +0.059 A 
ATOM     19 CL1  UNL     1      -1.420 -10.399 -32.347  0.00  0.00    -0.082 Cl
ATOM     20  C9  UNL     1      -0.118  -8.217 -31.310  0.00  0.00    +0.061 A 
ATOM     21 CL2  UNL     1      -1.282  -8.113 -30.035  0.00  0.00    -0.082 Cl
ATOM     22  C10 UNL     1       0.913  -7.270 -31.328  0.00  0.00    +0.044 A 
ENDBRANCH   5  15
BRANCH   1  23
ATOM     23  C2  UNL     1       5.805  -1.918 -30.916  0.00  0.00    +0.130 C 
BRANCH  23  24
ATOM     24  C1  UNL     1       5.788  -2.967 -29.794  0.00  0.00    +0.174 C 
BRANCH  24  25
ATOM     25  O1  UNL     1       6.531  -4.122 -30.175  0.00  0.00    -0.393 OA
ATOM     26  H1  UNL     1       7.187  -3.842 -30.837  0.00  0.00    +0.209 HD
ENDBRANCH  24  25
ENDBRANCH  23  24
ENDBRANCH   1  23
TORSDOF 4
ENDMDL
