MODEL 1
REMARK VINA RESULT:    -5.809      0.000      0.000
REMARK INTER + INTRA:          -9.678
REMARK INTER:                  -8.186
REMARK INTRA:                  -1.492
REMARK UNBOUND:                -1.492
REMARK  Name = /home/vital/Documents/PhD_2021/Malaria_codes/data/pdb_ligands_mmv/ligand_347.pdb
REMARK  9 active torsions:
REMARK  status: ('A' for Active; 'I' for Inactive)
REMARK    1  A    between atoms: C1_1  and  C2_2
REMARK    2  A    between atoms: C2_2  and  O1_3
REMARK    3  A    between atoms: O1_3  and  C3_4
REMARK    4  A    between atoms: C3_4  and  C4_6
REMARK    5  A    between atoms: C9_12  and  O3_13
REMARK    6  A    between atoms: O3_13  and  C10_14
REMARK    7  A    between atoms: C13_17  and  N2_18
REMARK    8  A    between atoms: N2_18  and  C14_19
REMARK    9  A    between atoms: C14_19  and  C15_20
REMARK                            x       y       z     vdW  Elec       q    Type
REMARK                         _______ _______ _______ _____ _____    ______ ____
ROOT
ATOM      1  C4  UNL     1       4.433  -2.447 -31.933  0.00  0.00    +0.098 A 
ATOM      2  C5  UNL     1       3.756  -1.306 -31.529  0.00  0.00    +0.128 A 
ATOM      3  N1  UNL     1       2.572  -0.893 -32.038  0.00  0.00    -0.254 NA
ATOM      4  C6  UNL     1       2.017  -1.624 -33.017  0.00  0.00    +0.073 A 
ATOM      5  C7  UNL     1       0.808  -1.199 -33.550  0.00  0.00    +0.032 A 
ATOM      6  C8  UNL     1       0.164  -1.894 -34.580  0.00  0.00    +0.048 A 
ATOM      7  C9  UNL     1       0.742  -3.042 -35.102  0.00  0.00    +0.121 A 
ATOM      8  C11 UNL     1       1.958  -3.482 -34.576  0.00  0.00    +0.057 A 
ATOM      9  C12 UNL     1       2.610  -2.799 -33.522  0.00  0.00    +0.025 A 
ATOM     10  C13 UNL     1       3.850  -3.222 -32.957  0.00  0.00    +0.052 A 
ENDROOT
BRANCH   1  11
ATOM     11  C3  UNL     1       5.727  -2.819 -31.305  0.00  0.00    +0.342 C 
ATOM     12  O2  UNL     1       6.708  -3.181 -31.936  0.00  0.00    -0.245 OA
BRANCH  11  13
ATOM     13  O1  UNL     1       5.660  -2.707 -29.954  0.00  0.00    -0.461 OA
BRANCH  13  15
ATOM     14  C1  UNL     1       4.278  -4.288 -28.746  0.00  0.00    +0.048 C 
ATOM     15  C2  UNL     1       5.677  -3.940 -29.218  0.00  0.00    +0.229 C 
ENDBRANCH  13  15
ENDBRANCH  11  13
ENDBRANCH   1  11
BRANCH   7  16
ATOM     16  O3  UNL     1       0.235  -3.816 -36.108  0.00  0.00    -0.495 OA
ATOM     17  C10 UNL     1      -1.169  -3.749 -36.328  0.00  0.00    +0.277 C 
ENDBRANCH   7  16
BRANCH  10  18
ATOM     18  N2  UNL     1       4.424  -4.462 -33.382  0.00  0.00    -0.339 N 
ATOM     19  H13 UNL     1       5.431  -4.329 -33.541  0.00  0.00    +0.146 HD
BRANCH  18  20
ATOM     20  C14 UNL     1       4.277  -5.509 -32.364  0.00  0.00    +0.137 C 
BRANCH  20  21
ATOM     21  C15 UNL     1       2.961  -6.217 -32.575  0.00  0.00    -0.030 A 
ATOM     22  C16 UNL     1       2.770  -7.048 -33.688  0.00  0.00    +0.005 A 
ATOM     23  C17 UNL     1       1.557  -7.714 -33.875  0.00  0.00    +0.000 A 
ATOM     24  C18 UNL     1       0.529  -7.565 -32.945  0.00  0.00    +0.000 A 
ATOM     25  C19 UNL     1       0.714  -6.756 -31.825  0.00  0.00    +0.000 A 
ATOM     26  C20 UNL     1       1.925  -6.089 -31.637  0.00  0.00    +0.005 A 
ENDBRANCH  20  21
ENDBRANCH  18  20
ENDBRANCH  10  18
TORSDOF 7
ENDMDL
MODEL 2
REMARK VINA RESULT:    -5.800     17.300     20.523
REMARK INTER + INTRA:          -9.665
REMARK INTER:                  -8.400
REMARK INTRA:                  -1.265
REMARK UNBOUND:                -1.492
REMARK  Name = /home/vital/Documents/PhD_2021/Malaria_codes/data/pdb_ligands_mmv/ligand_347.pdb
REMARK  9 active torsions:
REMARK  status: ('A' for Active; 'I' for Inactive)
REMARK    1  A    between atoms: C1_1  and  C2_2
REMARK    2  A    between atoms: C2_2  and  O1_3
REMARK    3  A    between atoms: O1_3  and  C3_4
REMARK    4  A    between atoms: C3_4  and  C4_6
REMARK    5  A    between atoms: C9_12  and  O3_13
REMARK    6  A    between atoms: O3_13  and  C10_14
REMARK    7  A    between atoms: C13_17  and  N2_18
REMARK    8  A    between atoms: N2_18  and  C14_19
REMARK    9  A    between atoms: C14_19  and  C15_20
REMARK                            x       y       z     vdW  Elec       q    Type
REMARK                         _______ _______ _______ _____ _____    ______ ____
ROOT
ATOM      1  C4  UNL     1       1.012   4.893 -15.631  0.00  0.00    +0.098 A 
ATOM      2  C5  UNL     1       0.912   4.198 -14.434  0.00  0.00    +0.128 A 
ATOM      3  N1  UNL     1       1.884   4.141 -13.494  0.00  0.00    -0.254 NA
ATOM      4  C6  UNL     1       3.036   4.783 -13.739  0.00  0.00    +0.073 A 
ATOM      5  C7  UNL     1       4.040   4.719 -12.783  0.00  0.00    +0.032 A 
ATOM      6  C8  UNL     1       5.277   5.350 -12.959  0.00  0.00    +0.048 A 
ATOM      7  C9  UNL     1       5.527   6.060 -14.124  0.00  0.00    +0.121 A 
ATOM      8  C11 UNL     1       4.527   6.134 -15.095  0.00  0.00    +0.057 A 
ATOM      9  C12 UNL     1       3.265   5.516 -14.921  0.00  0.00    +0.025 A 
ATOM     10  C13 UNL     1       2.219   5.574 -15.889  0.00  0.00    +0.052 A 
ENDROOT
BRANCH   1  11
ATOM     11  C3  UNL     1      -0.117   4.899 -16.596  0.00  0.00    +0.342 C 
ATOM     12  O2  UNL     1      -1.283   5.077 -16.276  0.00  0.00    -0.245 OA
BRANCH  11  13
ATOM     13  O1  UNL     1       0.323   4.676 -17.860  0.00  0.00    -0.461 OA
BRANCH  13  15
ATOM     14  C1  UNL     1      -0.577   6.332 -19.382  0.00  0.00    +0.048 C 
ATOM     15  C2  UNL     1      -0.634   4.891 -18.909  0.00  0.00    +0.229 C 
ENDBRANCH  13  15
ENDBRANCH  11  13
ENDBRANCH   1  11
BRANCH   7  16
ATOM     16  O3  UNL     1       6.684   6.717 -14.436  0.00  0.00    -0.495 OA
ATOM     17  C10 UNL     1       6.559   7.923 -15.180  0.00  0.00    +0.277 C 
ENDBRANCH   7  16
BRANCH  10  18
ATOM     18  N2  UNL     1       2.388   6.390 -17.052  0.00  0.00    -0.339 N 
ATOM     19  H13 UNL     1       1.819   6.007 -17.818  0.00  0.00    +0.146 HD
BRANCH  18  20
ATOM     20  C14 UNL     1       1.940   7.769 -16.822  0.00  0.00    +0.137 C 
BRANCH  20  21
ATOM     21  C15 UNL     1       2.554   8.666 -17.870  0.00  0.00    -0.030 A 
ATOM     22  C16 UNL     1       2.584   8.272 -19.216  0.00  0.00    +0.005 A 
ATOM     23  C17 UNL     1       3.138   9.108 -20.186  0.00  0.00    +0.000 A 
ATOM     24  C18 UNL     1       3.658  10.349 -19.823  0.00  0.00    +0.000 A 
ATOM     25  C19 UNL     1       3.618  10.759 -18.491  0.00  0.00    +0.000 A 
ATOM     26  C20 UNL     1       3.064   9.925 -17.520  0.00  0.00    +0.005 A 
ENDBRANCH  20  21
ENDBRANCH  18  20
ENDBRANCH  10  18
TORSDOF 7
ENDMDL
MODEL 3
REMARK VINA RESULT:    -5.700     10.842     13.271
REMARK INTER + INTRA:          -9.524
REMARK INTER:                  -8.276
REMARK INTRA:                  -1.249
REMARK UNBOUND:                -1.492
REMARK  Name = /home/vital/Documents/PhD_2021/Malaria_codes/data/pdb_ligands_mmv/ligand_347.pdb
REMARK  9 active torsions:
REMARK  status: ('A' for Active; 'I' for Inactive)
REMARK    1  A    between atoms: C1_1  and  C2_2
REMARK    2  A    between atoms: C2_2  and  O1_3
REMARK    3  A    between atoms: O1_3  and  C3_4
REMARK    4  A    between atoms: C3_4  and  C4_6
REMARK    5  A    between atoms: C9_12  and  O3_13
REMARK    6  A    between atoms: O3_13  and  C10_14
REMARK    7  A    between atoms: C13_17  and  N2_18
REMARK    8  A    between atoms: N2_18  and  C14_19
REMARK    9  A    between atoms: C14_19  and  C15_20
REMARK                            x       y       z     vdW  Elec       q    Type
REMARK                         _______ _______ _______ _____ _____    ______ ____
ROOT
ATOM      1  C4  UNL     1      -3.905  -1.419 -20.589  0.00  0.00    +0.098 A 
ATOM      2  C5  UNL     1      -5.130  -1.146 -21.179  0.00  0.00    +0.128 A 
ATOM      3  N1  UNL     1      -5.600  -1.755 -22.293  0.00  0.00    -0.254 NA
ATOM      4  C6  UNL     1      -4.822  -2.674 -22.885  0.00  0.00    +0.073 A 
ATOM      5  C7  UNL     1      -5.295  -3.293 -24.034  0.00  0.00    +0.032 A 
ATOM      6  C8  UNL     1      -4.547  -4.256 -24.721  0.00  0.00    +0.048 A 
ATOM      7  C9  UNL     1      -3.287  -4.609 -24.258  0.00  0.00    +0.121 A 
ATOM      8  C11 UNL     1      -2.799  -3.994 -23.104  0.00  0.00    +0.057 A 
ATOM      9  C12 UNL     1      -3.553  -3.033 -22.388  0.00  0.00    +0.025 A 
ATOM     10  C13 UNL     1      -3.088  -2.389 -21.204  0.00  0.00    +0.052 A 
ENDROOT
BRANCH   1  11
ATOM     11  C3  UNL     1      -3.483  -0.699 -19.359  0.00  0.00    +0.342 C 
ATOM     12  O2  UNL     1      -3.175  -1.258 -18.318  0.00  0.00    -0.245 OA
BRANCH  11  13
ATOM     13  O1  UNL     1      -3.495   0.644 -19.555  0.00  0.00    -0.461 OA
BRANCH  13  15
ATOM     14  C1  UNL     1      -1.157   1.276 -19.553  0.00  0.00    +0.048 C 
ATOM     15  C2  UNL     1      -2.434   1.172 -20.366  0.00  0.00    +0.229 C 
ENDBRANCH  13  15
ENDBRANCH  11  13
ENDBRANCH   1  11
BRANCH   7  16
ATOM     16  O3  UNL     1      -2.445  -5.522 -24.826  0.00  0.00    -0.495 OA
ATOM     17  C10 UNL     1      -1.274  -5.863 -24.094  0.00  0.00    +0.277 C 
ENDBRANCH   7  16
BRANCH  10  18
ATOM     18  N2  UNL     1      -1.847  -2.804 -20.624  0.00  0.00    -0.339 N 
ATOM     19  H13 UNL     1      -1.700  -3.803 -20.823  0.00  0.00    +0.146 HD
BRANCH  18  20
ATOM     20  C14 UNL     1      -0.707  -2.074 -21.192  0.00  0.00    +0.137 C 
BRANCH  20  21
ATOM     21  C15 UNL     1       0.566  -2.582 -20.559  0.00  0.00    -0.030 A 
ATOM     22  C16 UNL     1       1.143  -1.901 -19.477  0.00  0.00    +0.005 A 
ATOM     23  C17 UNL     1       2.312  -2.379 -18.883  0.00  0.00    +0.000 A 
ATOM     24  C18 UNL     1       2.908  -3.546 -19.356  0.00  0.00    +0.000 A 
ATOM     25  C19 UNL     1       2.334  -4.241 -20.419  0.00  0.00    +0.000 A 
ATOM     26  C20 UNL     1       1.166  -3.765 -21.015  0.00  0.00    +0.005 A 
ENDBRANCH  20  21
ENDBRANCH  18  20
ENDBRANCH  10  18
TORSDOF 7
ENDMDL
MODEL 4
REMARK VINA RESULT:    -5.540      2.512      5.512
REMARK INTER + INTRA:          -9.299
REMARK INTER:                  -8.086
REMARK INTRA:                  -1.213
REMARK UNBOUND:                -1.492
REMARK  Name = /home/vital/Documents/PhD_2021/Malaria_codes/data/pdb_ligands_mmv/ligand_347.pdb
REMARK  9 active torsions:
REMARK  status: ('A' for Active; 'I' for Inactive)
REMARK    1  A    between atoms: C1_1  and  C2_2
REMARK    2  A    between atoms: C2_2  and  O1_3
REMARK    3  A    between atoms: O1_3  and  C3_4
REMARK    4  A    between atoms: C3_4  and  C4_6
REMARK    5  A    between atoms: C9_12  and  O3_13
REMARK    6  A    between atoms: O3_13  and  C10_14
REMARK    7  A    between atoms: C13_17  and  N2_18
REMARK    8  A    between atoms: N2_18  and  C14_19
REMARK    9  A    between atoms: C14_19  and  C15_20
REMARK                            x       y       z     vdW  Elec       q    Type
REMARK                         _______ _______ _______ _____ _____    ______ ____
ROOT
ATOM      1  C4  UNL     1       2.436  -5.943 -33.071  0.00  0.00    +0.098 A 
ATOM      2  C5  UNL     1       2.694  -7.306 -33.061  0.00  0.00    +0.128 A 
ATOM      3  N1  UNL     1       1.792  -8.262 -33.386  0.00  0.00    -0.254 NA
ATOM      4  C6  UNL     1       0.554  -7.872 -33.724  0.00  0.00    +0.073 A 
ATOM      5  C7  UNL     1      -0.378  -8.848 -34.047  0.00  0.00    +0.032 A 
ATOM      6  C8  UNL     1      -1.694  -8.533 -34.402  0.00  0.00    +0.048 A 
ATOM      7  C9  UNL     1      -2.101  -7.207 -34.428  0.00  0.00    +0.121 A 
ATOM      8  C11 UNL     1      -1.175  -6.213 -34.106  0.00  0.00    +0.057 A 
ATOM      9  C12 UNL     1       0.164  -6.517 -33.764  0.00  0.00    +0.025 A 
ATOM     10  C13 UNL     1       1.138  -5.528 -33.433  0.00  0.00    +0.052 A 
ENDROOT
BRANCH   1  11
ATOM     11  C3  UNL     1       3.499  -4.971 -32.704  0.00  0.00    +0.342 C 
ATOM     12  O2  UNL     1       4.595  -4.931 -33.241  0.00  0.00    -0.245 OA
BRANCH  11  13
ATOM     13  O1  UNL     1       3.085  -4.156 -31.701  0.00  0.00    -0.461 OA
BRANCH  13  15
ATOM     14  C1  UNL     1       3.472  -1.804 -32.135  0.00  0.00    +0.048 C 
ATOM     15  C2  UNL     1       3.943  -3.045 -31.398  0.00  0.00    +0.229 C 
ENDBRANCH  13  15
ENDBRANCH  11  13
ENDBRANCH   1  11
BRANCH   7  16
ATOM     16  O3  UNL     1      -3.349  -6.751 -34.747  0.00  0.00    -0.495 OA
ATOM     17  C10 UNL     1      -4.085  -7.503 -35.704  0.00  0.00    +0.277 C 
ENDBRANCH   7  16
BRANCH  10  18
ATOM     18  N2  UNL     1       0.798  -4.144 -33.560  0.00  0.00    -0.339 N 
ATOM     19  H13 UNL     1       1.400  -3.591 -32.935  0.00  0.00    +0.146 HD
BRANCH  18  20
ATOM     20  C14 UNL     1       1.014  -3.651 -34.925  0.00  0.00    +0.137 C 
BRANCH  20  21
ATOM     21  C15 UNL     1       0.385  -2.286 -35.060  0.00  0.00    -0.030 A 
ATOM     22  C16 UNL     1      -0.324  -1.940 -36.219  0.00  0.00    +0.005 A 
ATOM     23  C17 UNL     1      -0.918  -0.682 -36.337  0.00  0.00    +0.000 A 
ATOM     24  C18 UNL     1      -0.819   0.237 -35.293  0.00  0.00    +0.000 A 
ATOM     25  C19 UNL     1      -0.132  -0.102 -34.129  0.00  0.00    +0.000 A 
ATOM     26  C20 UNL     1       0.463  -1.359 -34.009  0.00  0.00    +0.005 A 
ENDBRANCH  20  21
ENDBRANCH  18  20
ENDBRANCH  10  18
TORSDOF 7
ENDMDL
MODEL 5
REMARK VINA RESULT:    -5.534     10.162     12.929
REMARK INTER + INTRA:          -9.291
REMARK INTER:                  -8.104
REMARK INTRA:                  -1.187
REMARK UNBOUND:                -1.492
REMARK  Name = /home/vital/Documents/PhD_2021/Malaria_codes/data/pdb_ligands_mmv/ligand_347.pdb
REMARK  9 active torsions:
REMARK  status: ('A' for Active; 'I' for Inactive)
REMARK    1  A    between atoms: C1_1  and  C2_2
REMARK    2  A    between atoms: C2_2  and  O1_3
REMARK    3  A    between atoms: O1_3  and  C3_4
REMARK    4  A    between atoms: C3_4  and  C4_6
REMARK    5  A    between atoms: C9_12  and  O3_13
REMARK    6  A    between atoms: O3_13  and  C10_14
REMARK    7  A    between atoms: C13_17  and  N2_18
REMARK    8  A    between atoms: N2_18  and  C14_19
REMARK    9  A    between atoms: C14_19  and  C15_20
REMARK                            x       y       z     vdW  Elec       q    Type
REMARK                         _______ _______ _______ _____ _____    ______ ____
ROOT
ATOM      1  C4  UNL     1      -2.549  -5.041 -23.281  0.00  0.00    +0.098 A 
ATOM      2  C5  UNL     1      -3.643  -4.730 -24.074  0.00  0.00    +0.128 A 
ATOM      3  N1  UNL     1      -4.511  -3.721 -23.826  0.00  0.00    -0.254 NA
ATOM      4  C6  UNL     1      -4.316  -2.978 -22.727  0.00  0.00    +0.073 A 
ATOM      5  C7  UNL     1      -5.209  -1.950 -22.462  0.00  0.00    +0.032 A 
ATOM      6  C8  UNL     1      -5.088  -1.131 -21.333  0.00  0.00    +0.048 A 
ATOM      7  C9  UNL     1      -4.053  -1.346 -20.435  0.00  0.00    +0.121 A 
ATOM      8  C11 UNL     1      -3.146  -2.377 -20.688  0.00  0.00    +0.057 A 
ATOM      9  C12 UNL     1      -3.246  -3.199 -21.836  0.00  0.00    +0.025 A 
ATOM     10  C13 UNL     1      -2.336  -4.258 -22.129  0.00  0.00    +0.052 A 
ENDROOT
BRANCH   1  11
ATOM     11  C3  UNL     1      -1.649  -6.167 -23.645  0.00  0.00    +0.342 C 
ATOM     12  O2  UNL     1      -1.298  -7.035 -22.861  0.00  0.00    -0.245 OA
BRANCH  11  13
ATOM     13  O1  UNL     1      -1.276  -6.088 -24.947  0.00  0.00    -0.461 OA
BRANCH  13  15
ATOM     14  C1  UNL     1       0.586  -6.183 -26.494  0.00  0.00    +0.048 C 
ATOM     15  C2  UNL     1       0.056  -5.610 -25.193  0.00  0.00    +0.229 C 
ENDBRANCH  13  15
ENDBRANCH  11  13
ENDBRANCH   1  11
BRANCH   7  16
ATOM     16  O3  UNL     1      -3.814  -0.635 -19.293  0.00  0.00    -0.495 OA
ATOM     17  C10 UNL     1      -2.454  -0.377 -18.966  0.00  0.00    +0.277 C 
ENDBRANCH   7  16
BRANCH  10  18
ATOM     18  N2  UNL     1      -1.188  -4.442 -21.295  0.00  0.00    -0.339 N 
ATOM     19  H13 UNL     1      -1.016  -5.449 -21.176  0.00  0.00    +0.146 HD
BRANCH  18  20
ATOM     20  C14 UNL     1       0.020  -3.860 -21.893  0.00  0.00    +0.137 C 
BRANCH  20  21
ATOM     21  C15 UNL     1       0.954  -3.426 -20.790  0.00  0.00    -0.030 A 
ATOM     22  C16 UNL     1       2.119  -4.157 -20.514  0.00  0.00    +0.005 A 
ATOM     23  C17 UNL     1       2.989  -3.747 -19.503  0.00  0.00    +0.000 A 
ATOM     24  C18 UNL     1       2.711  -2.597 -18.766  0.00  0.00    +0.000 A 
ATOM     25  C19 UNL     1       1.565  -1.853 -19.042  0.00  0.00    +0.000 A 
ATOM     26  C20 UNL     1       0.693  -2.261 -20.053  0.00  0.00    +0.005 A 
ENDBRANCH  20  21
ENDBRANCH  18  20
ENDBRANCH  10  18
TORSDOF 7
ENDMDL
MODEL 6
REMARK VINA RESULT:    -5.386     16.457     19.790
REMARK INTER + INTRA:          -9.082
REMARK INTER:                  -7.805
REMARK INTRA:                  -1.277
REMARK UNBOUND:                -1.492
REMARK  Name = /home/vital/Documents/PhD_2021/Malaria_codes/data/pdb_ligands_mmv/ligand_347.pdb
REMARK  9 active torsions:
REMARK  status: ('A' for Active; 'I' for Inactive)
REMARK    1  A    between atoms: C1_1  and  C2_2
REMARK    2  A    between atoms: C2_2  and  O1_3
REMARK    3  A    between atoms: O1_3  and  C3_4
REMARK    4  A    between atoms: C3_4  and  C4_6
REMARK    5  A    between atoms: C9_12  and  O3_13
REMARK    6  A    between atoms: O3_13  and  C10_14
REMARK    7  A    between atoms: C13_17  and  N2_18
REMARK    8  A    between atoms: N2_18  and  C14_19
REMARK    9  A    between atoms: C14_19  and  C15_20
REMARK                            x       y       z     vdW  Elec       q    Type
REMARK                         _______ _______ _______ _____ _____    ______ ____
ROOT
ATOM      1  C4  UNL     1       0.039   5.069 -16.501  0.00  0.00    +0.098 A 
ATOM      2  C5  UNL     1       0.002   4.692 -15.167  0.00  0.00    +0.128 A 
ATOM      3  N1  UNL     1       1.071   4.692 -14.337  0.00  0.00    -0.254 NA
ATOM      4  C6  UNL     1       2.258   5.064 -14.838  0.00  0.00    +0.073 A 
ATOM      5  C7  UNL     1       3.360   5.057 -13.995  0.00  0.00    +0.032 A 
ATOM      6  C8  UNL     1       4.638   5.420 -14.436  0.00  0.00    +0.048 A 
ATOM      7  C9  UNL     1       4.829   5.796 -15.758  0.00  0.00    +0.121 A 
ATOM      8  C11 UNL     1       3.729   5.809 -16.618  0.00  0.00    +0.057 A 
ATOM      9  C12 UNL     1       2.429   5.462 -16.181  0.00  0.00    +0.025 A 
ATOM     10  C13 UNL     1       1.283   5.468 -17.030  0.00  0.00    +0.052 A 
ENDROOT
BRANCH   1  11
ATOM     11  C3  UNL     1      -1.195   5.040 -17.328  0.00  0.00    +0.342 C 
ATOM     12  O2  UNL     1      -2.198   5.689 -17.072  0.00  0.00    -0.245 OA
BRANCH  11  13
ATOM     13  O1  UNL     1      -1.053   4.199 -18.383  0.00  0.00    -0.461 OA
BRANCH  13  15
ATOM     14  C1  UNL     1      -1.632   5.176 -20.523  0.00  0.00    +0.048 C 
ATOM     15  C2  UNL     1      -2.075   4.271 -19.389  0.00  0.00    +0.229 C 
ENDBRANCH  13  15
ENDBRANCH  11  13
ENDBRANCH   1  11
BRANCH   7  16
ATOM     16  O3  UNL     1       6.013   6.167 -16.328  0.00  0.00    -0.495 OA
ATOM     17  C10 UNL     1       6.519   5.334 -17.364  0.00  0.00    +0.277 C 
ENDBRANCH   7  16
BRANCH  10  18
ATOM     18  N2  UNL     1       1.409   5.959 -18.368  0.00  0.00    -0.339 N 
ATOM     19  H13 UNL     1       0.949   5.303 -19.012  0.00  0.00    +0.146 HD
BRANCH  18  20
ATOM     20  C14 UNL     1       0.758   7.264 -18.535  0.00  0.00    +0.137 C 
BRANCH  20  21
ATOM     21  C15 UNL     1       1.802   8.350 -18.437  0.00  0.00    -0.030 A 
ATOM     22  C16 UNL     1       2.133   8.909 -17.194  0.00  0.00    +0.005 A 
ATOM     23  C17 UNL     1       3.109   9.903 -17.103  0.00  0.00    +0.000 A 
ATOM     24  C18 UNL     1       3.771  10.339 -18.250  0.00  0.00    +0.000 A 
ATOM     25  C19 UNL     1       3.463   9.778 -19.488  0.00  0.00    +0.000 A 
ATOM     26  C20 UNL     1       2.487   8.785 -19.582  0.00  0.00    +0.005 A 
ENDBRANCH  20  21
ENDBRANCH  18  20
ENDBRANCH  10  18
TORSDOF 7
ENDMDL
MODEL 7
REMARK VINA RESULT:    -5.367      7.376     10.105
REMARK INTER + INTRA:          -9.056
REMARK INTER:                  -7.564
REMARK INTRA:                  -1.492
REMARK UNBOUND:                -1.492
REMARK  Name = /home/vital/Documents/PhD_2021/Malaria_codes/data/pdb_ligands_mmv/ligand_347.pdb
REMARK  9 active torsions:
REMARK  status: ('A' for Active; 'I' for Inactive)
REMARK    1  A    between atoms: C1_1  and  C2_2
REMARK    2  A    between atoms: C2_2  and  O1_3
REMARK    3  A    between atoms: O1_3  and  C3_4
REMARK    4  A    between atoms: C3_4  and  C4_6
REMARK    5  A    between atoms: C9_12  and  O3_13
REMARK    6  A    between atoms: O3_13  and  C10_14
REMARK    7  A    between atoms: C13_17  and  N2_18
REMARK    8  A    between atoms: N2_18  and  C14_19
REMARK    9  A    between atoms: C14_19  and  C15_20
REMARK                            x       y       z     vdW  Elec       q    Type
REMARK                         _______ _______ _______ _____ _____    ______ ____
ROOT
ATOM      1  C4  UNL     1       7.615  -3.409 -25.158  0.00  0.00    +0.098 A 
ATOM      2  C5  UNL     1       7.741  -4.219 -26.277  0.00  0.00    +0.128 A 
ATOM      3  N1  UNL     1       6.722  -4.899 -26.854  0.00  0.00    -0.254 NA
ATOM      4  C6  UNL     1       5.506  -4.804 -26.297  0.00  0.00    +0.073 A 
ATOM      5  C7  UNL     1       4.460  -5.507 -26.877  0.00  0.00    +0.032 A 
ATOM      6  C8  UNL     1       3.161  -5.473 -26.357  0.00  0.00    +0.048 A 
ATOM      7  C9  UNL     1       2.893  -4.723 -25.221  0.00  0.00    +0.121 A 
ATOM      8  C11 UNL     1       3.935  -4.009 -24.626  0.00  0.00    +0.057 A 
ATOM      9  C12 UNL     1       5.249  -4.020 -25.153  0.00  0.00    +0.025 A 
ATOM     10  C13 UNL     1       6.336  -3.300 -24.574  0.00  0.00    +0.052 A 
ENDROOT
BRANCH   1  11
ATOM     11  C3  UNL     1       8.796  -2.697 -24.605  0.00  0.00    +0.342 C 
ATOM     12  O2  UNL     1       9.789  -3.264 -24.175  0.00  0.00    -0.245 OA
BRANCH  11  13
ATOM     13  O1  UNL     1       8.613  -1.353 -24.640  0.00  0.00    -0.461 OA
BRANCH  13  15
ATOM     14  C1  UNL     1      10.305  -0.407 -26.092  0.00  0.00    +0.048 C 
ATOM     15  C2  UNL     1       8.832  -0.720 -25.911  0.00  0.00    +0.229 C 
ENDBRANCH  13  15
ENDBRANCH  11  13
ENDBRANCH   1  11
BRANCH   7  16
ATOM     16  O3  UNL     1       1.683  -4.601 -24.601  0.00  0.00    -0.495 OA
ATOM     17  C10 UNL     1       1.618  -3.729 -23.479  0.00  0.00    +0.277 C 
ENDBRANCH   7  16
BRANCH  10  18
ATOM     18  N2  UNL     1       6.085  -2.422 -23.473  0.00  0.00    -0.339 N 
ATOM     19  H13 UNL     1       5.072  -2.263 -23.394  0.00  0.00    +0.146 HD
BRANCH  18  20
ATOM     20  C14 UNL     1       6.536  -2.998 -22.201  0.00  0.00    +0.137 C 
BRANCH  20  21
ATOM     21  C15 UNL     1       5.330  -3.332 -21.357  0.00  0.00    -0.030 A 
ATOM     22  C16 UNL     1       4.383  -2.346 -21.047  0.00  0.00    +0.005 A 
ATOM     23  C17 UNL     1       3.260  -2.660 -20.279  0.00  0.00    +0.000 A 
ATOM     24  C18 UNL     1       3.068  -3.963 -19.824  0.00  0.00    +0.000 A 
ATOM     25  C19 UNL     1       3.993  -4.956 -20.141  0.00  0.00    +0.000 A 
ATOM     26  C20 UNL     1       5.117  -4.644 -20.909  0.00  0.00    +0.005 A 
ENDBRANCH  20  21
ENDBRANCH  18  20
ENDBRANCH  10  18
TORSDOF 7
ENDMDL
MODEL 8
REMARK VINA RESULT:    -5.359      7.144     11.442
REMARK INTER + INTRA:          -9.044
REMARK INTER:                  -7.823
REMARK INTRA:                  -1.221
REMARK UNBOUND:                -1.492
REMARK  Name = /home/vital/Documents/PhD_2021/Malaria_codes/data/pdb_ligands_mmv/ligand_347.pdb
REMARK  9 active torsions:
REMARK  status: ('A' for Active; 'I' for Inactive)
REMARK    1  A    between atoms: C1_1  and  C2_2
REMARK    2  A    between atoms: C2_2  and  O1_3
REMARK    3  A    between atoms: O1_3  and  C3_4
REMARK    4  A    between atoms: C3_4  and  C4_6
REMARK    5  A    between atoms: C9_12  and  O3_13
REMARK    6  A    between atoms: O3_13  and  C10_14
REMARK    7  A    between atoms: C13_17  and  N2_18
REMARK    8  A    between atoms: N2_18  and  C14_19
REMARK    9  A    between atoms: C14_19  and  C15_20
REMARK                            x       y       z     vdW  Elec       q    Type
REMARK                         _______ _______ _______ _____ _____    ______ ____
ROOT
ATOM      1  C4  UNL     1       6.888  -4.222 -25.347  0.00  0.00    +0.098 A 
ATOM      2  C5  UNL     1       7.870  -3.438 -25.934  0.00  0.00    +0.128 A 
ATOM      3  N1  UNL     1       8.554  -2.457 -25.298  0.00  0.00    -0.254 NA
ATOM      4  C6  UNL     1       8.251  -2.208 -24.016  0.00  0.00    +0.073 A 
ATOM      5  C7  UNL     1       8.941  -1.197 -23.362  0.00  0.00    +0.032 A 
ATOM      6  C8  UNL     1       8.685  -0.862 -22.027  0.00  0.00    +0.048 A 
ATOM      7  C9  UNL     1       7.706  -1.548 -21.322  0.00  0.00    +0.121 A 
ATOM      8  C11 UNL     1       7.003  -2.568 -21.966  0.00  0.00    +0.057 A 
ATOM      9  C12 UNL     1       7.266  -2.929 -23.309  0.00  0.00    +0.025 A 
ATOM     10  C13 UNL     1       6.572  -3.968 -23.997  0.00  0.00    +0.052 A 
ENDROOT
BRANCH   1  11
ATOM     11  C3  UNL     1       6.199  -5.280 -26.131  0.00  0.00    +0.342 C 
ATOM     12  O2  UNL     1       6.709  -6.353 -26.416  0.00  0.00    -0.245 OA
BRANCH  11  13
ATOM     13  O1  UNL     1       4.949  -4.886 -26.484  0.00  0.00    -0.461 OA
BRANCH  13  15
ATOM     14  C1  UNL     1       5.250  -4.244 -28.800  0.00  0.00    +0.048 C 
ATOM     15  C2  UNL     1       4.871  -3.786 -27.404  0.00  0.00    +0.229 C 
ENDBRANCH  13  15
ENDBRANCH  11  13
ENDBRANCH   1  11
BRANCH   7  16
ATOM     16  O3  UNL     1       7.343  -1.328 -20.024  0.00  0.00    -0.495 OA
ATOM     17  C10 UNL     1       5.963  -1.461 -19.708  0.00  0.00    +0.277 C 
ENDBRANCH   7  16
BRANCH  10  18
ATOM     18  N2  UNL     1       5.638  -4.778 -23.277  0.00  0.00    -0.339 N 
ATOM     19  H13 UNL     1       5.931  -4.835 -22.293  0.00  0.00    +0.146 HD
BRANCH  18  20
ATOM     20  C14 UNL     1       4.287  -4.205 -23.299  0.00  0.00    +0.137 C 
BRANCH  20  21
ATOM     21  C15 UNL     1       3.824  -3.986 -21.879  0.00  0.00    -0.030 A 
ATOM     22  C16 UNL     1       2.854  -3.015 -21.589  0.00  0.00    +0.005 A 
ATOM     23  C17 UNL     1       2.415  -2.823 -20.278  0.00  0.00    +0.000 A 
ATOM     24  C18 UNL     1       2.933  -3.605 -19.247  0.00  0.00    +0.000 A 
ATOM     25  C19 UNL     1       3.885  -4.584 -19.526  0.00  0.00    +0.000 A 
ATOM     26  C20 UNL     1       4.325  -4.778 -20.836  0.00  0.00    +0.005 A 
ENDBRANCH  20  21
ENDBRANCH  18  20
ENDBRANCH  10  18
TORSDOF 7
ENDMDL
MODEL 9
REMARK VINA RESULT:    -5.055      3.341      7.081
REMARK INTER + INTRA:          -8.615
REMARK INTER:                  -7.134
REMARK INTRA:                  -1.481
REMARK UNBOUND:                -1.492
REMARK  Name = /home/vital/Documents/PhD_2021/Malaria_codes/data/pdb_ligands_mmv/ligand_347.pdb
REMARK  9 active torsions:
REMARK  status: ('A' for Active; 'I' for Inactive)
REMARK    1  A    between atoms: C1_1  and  C2_2
REMARK    2  A    between atoms: C2_2  and  O1_3
REMARK    3  A    between atoms: O1_3  and  C3_4
REMARK    4  A    between atoms: C3_4  and  C4_6
REMARK    5  A    between atoms: C9_12  and  O3_13
REMARK    6  A    between atoms: O3_13  and  C10_14
REMARK    7  A    between atoms: C13_17  and  N2_18
REMARK    8  A    between atoms: N2_18  and  C14_19
REMARK    9  A    between atoms: C14_19  and  C15_20
REMARK                            x       y       z     vdW  Elec       q    Type
REMARK                         _______ _______ _______ _____ _____    ______ ____
ROOT
ATOM      1  C4  UNL     1       4.123  -4.375 -30.876  0.00  0.00    +0.098 A 
ATOM      2  C5  UNL     1       3.080  -5.057 -31.485  0.00  0.00    +0.128 A 
ATOM      3  N1  UNL     1       2.025  -5.595 -30.830  0.00  0.00    -0.254 NA
ATOM      4  C6  UNL     1       1.990  -5.483 -29.493  0.00  0.00    +0.073 A 
ATOM      5  C7  UNL     1       0.916  -6.042 -28.815  0.00  0.00    +0.032 A 
ATOM      6  C8  UNL     1       0.803  -5.981 -27.421  0.00  0.00    +0.048 A 
ATOM      7  C9  UNL     1       1.790  -5.352 -26.677  0.00  0.00    +0.121 A 
ATOM      8  C11 UNL     1       2.876  -4.783 -27.346  0.00  0.00    +0.057 A 
ATOM      9  C12 UNL     1       2.994  -4.822 -28.756  0.00  0.00    +0.025 A 
ATOM     10  C13 UNL     1       4.086  -4.249 -29.472  0.00  0.00    +0.052 A 
ENDROOT
BRANCH   1  11
ATOM     11  C3  UNL     1       5.234  -3.814 -31.688  0.00  0.00    +0.342 C 
ATOM     12  O2  UNL     1       6.015  -4.497 -32.332  0.00  0.00    -0.245 OA
BRANCH  11  13
ATOM     13  O1  UNL     1       5.258  -2.459 -31.605  0.00  0.00    -0.461 OA
BRANCH  13  15
ATOM     14  C1  UNL     1       4.506  -0.261 -32.289  0.00  0.00    +0.048 C 
ATOM     15  C2  UNL     1       4.406  -1.757 -32.523  0.00  0.00    +0.229 C 
ENDBRANCH  13  15
ENDBRANCH  11  13
ENDBRANCH   1  11
BRANCH   7  16
ATOM     16  O3  UNL     1       1.817  -5.221 -25.318  0.00  0.00    -0.495 OA
ATOM     17  C10 UNL     1       2.980  -4.632 -24.749  0.00  0.00    +0.277 C 
ENDBRANCH   7  16
BRANCH  10  18
ATOM     18  N2  UNL     1       5.066  -3.490 -28.759  0.00  0.00    -0.339 N 
ATOM     19  H13 UNL     1       4.651  -3.138 -27.887  0.00  0.00    +0.146 HD
BRANCH  18  20
ATOM     20  C14 UNL     1       6.229  -4.307 -28.390  0.00  0.00    +0.137 C 
BRANCH  20  21
ATOM     21  C15 UNL     1       6.394  -4.278 -26.890  0.00  0.00    -0.030 A 
ATOM     22  C16 UNL     1       6.432  -3.056 -26.202  0.00  0.00    +0.005 A 
ATOM     23  C17 UNL     1       6.570  -3.031 -24.813  0.00  0.00    +0.000 A 
ATOM     24  C18 UNL     1       6.659  -4.224 -24.098  0.00  0.00    +0.000 A 
ATOM     25  C19 UNL     1       6.605  -5.444 -24.770  0.00  0.00    +0.000 A 
ATOM     26  C20 UNL     1       6.467  -5.472 -26.158  0.00  0.00    +0.005 A 
ENDBRANCH  20  21
ENDBRANCH  18  20
ENDBRANCH  10  18
TORSDOF 7
ENDMDL
