MODEL 1
REMARK VINA RESULT:    -5.631      0.000      0.000
REMARK INTER + INTRA:         -11.864
REMARK INTER:                  -8.594
REMARK INTRA:                  -3.270
REMARK UNBOUND:                -3.270
REMARK  Name = /home/vital/Documents/PhD_2021/Malaria_codes/data/pdb_ligands_mmv/ligand_129.pdb
REMARK  11 active torsions:
REMARK  status: ('A' for Active; 'I' for Inactive)
REMARK    1  A    between atoms: C1_1  and  O1_2
REMARK    2  A    between atoms: O1_2  and  C2_3
REMARK    3  A    between atoms: C5_6  and  C6_7
REMARK    4  A    between atoms: C6_7  and  C7_8
REMARK    5  A    between atoms: C7_8  and  N1_9
REMARK    6  A    between atoms: C10_12  and  C11_13
REMARK    7  A    between atoms: C11_13  and  N2_14
REMARK    8  A    between atoms: N2_14  and  C12_15
REMARK    9  A    between atoms: N2_14  and  C13_16
REMARK   10  A    between atoms: C13_16  and  C14_17
REMARK   11  A    between atoms: N4_20  and  C17_22
REMARK                            x       y       z     vdW  Elec       q    Type
REMARK                         _______ _______ _______ _____ _____    ______ ____
ROOT
ATOM      1  N1  UNL     1      -2.972   4.711 -19.948  0.00  0.00    -0.302 NA
ATOM      2  C8  UNL     1      -3.122   4.894 -18.499  0.00  0.00    +0.085 C 
ATOM      3  C9  UNL     1      -1.801   5.161 -17.777  0.00  0.00    +0.020 C 
ATOM      4  C10 UNL     1      -1.055   6.371 -18.373  0.00  0.00    +0.005 C 
ATOM      5  C23 UNL     1      -0.947   6.215 -19.897  0.00  0.00    +0.020 C 
ATOM      6  C24 UNL     1      -2.296   5.871 -20.539  0.00  0.00    +0.085 C 
ENDROOT
BRANCH   1   7
ATOM      7  C7  UNL     1      -2.348   3.417 -20.283  0.00  0.00    +0.089 C 
BRANCH   7   8
ATOM      8  C6  UNL     1      -2.760   2.246 -19.367  0.00  0.00    +0.050 C 
BRANCH   8  12
ATOM      9  C2  UNL     1      -4.756  -0.981 -21.451  0.00  0.00    +0.120 A 
ATOM     10  C3  UNL     1      -4.458   0.208 -22.116  0.00  0.00    +0.046 A 
ATOM     11  C4  UNL     1      -3.813   1.250 -21.441  0.00  0.00    +0.007 A 
ATOM     12  C5  UNL     1      -3.458   1.120 -20.092  0.00  0.00    -0.046 A 
ATOM     13  C25 UNL     1      -3.756  -0.077 -19.432  0.00  0.00    +0.007 A 
ATOM     14  C26 UNL     1      -4.400  -1.116 -20.108  0.00  0.00    +0.046 A 
BRANCH   9  16
ATOM     15  C1  UNL     1      -6.447  -1.817 -22.896  0.00  0.00    +0.277 C 
ATOM     16  O1  UNL     1      -5.381  -2.072 -21.991  0.00  0.00    -0.495 OA
ENDBRANCH   9  16
ENDBRANCH   8  12
ENDBRANCH   7   8
ENDBRANCH   1   7
BRANCH   4  17
ATOM     17  C11 UNL     1       0.310   6.520 -17.659  0.00  0.00    +0.088 C 
BRANCH  17  18
ATOM     18  N2  UNL     1       0.824   5.427 -16.826  0.00  0.00    -0.301 NA
ATOM     19  C12 UNL     1       0.941   5.778 -15.414  0.00  0.00    +0.105 C 
BRANCH  18  20
ATOM     20  C13 UNL     1       2.023   4.777 -17.357  0.00  0.00    +0.122 C 
BRANCH  20  21
ATOM     21  C14 UNL     1       1.696   3.385 -17.785  0.00  0.00    +0.004 A 
ATOM     22  C15 UNL     1       1.992   2.185 -17.111  0.00  0.00    +0.139 A 
ATOM     23  N3  UNL     1       1.576   1.103 -17.768  0.00  0.00    -0.174 NA
ATOM     24  N4  UNL     1       0.985   1.587 -18.893  0.00  0.00    -0.240 N 
ATOM     25  C16 UNL     1       1.056   2.963 -18.934  0.00  0.00    +0.119 A 
BRANCH  24  26
ATOM     26  C17 UNL     1       0.404   0.709 -19.851  0.00  0.00    +0.065 A 
ATOM     27  C18 UNL     1       0.310   1.117 -21.191  0.00  0.00    +0.028 A 
ATOM     28  C19 UNL     1      -0.257   0.272 -22.147  0.00  0.00    +0.002 A 
ATOM     29  C20 UNL     1      -0.734  -0.983 -21.775  0.00  0.00    +0.000 A 
ATOM     30  C21 UNL     1      -0.643  -1.397 -20.446  0.00  0.00    +0.002 A 
ATOM     31  C22 UNL     1      -0.076  -0.556 -19.483  0.00  0.00    +0.028 A 
ENDBRANCH  24  26
ENDBRANCH  20  21
ENDBRANCH  18  20
ENDBRANCH  17  18
ENDBRANCH   4  17
TORSDOF 9
ENDMDL
MODEL 2
REMARK VINA RESULT:    -5.555      3.261      6.370
REMARK INTER + INTRA:         -11.748
REMARK INTER:                  -8.256
REMARK INTRA:                  -3.492
REMARK UNBOUND:                -3.270
REMARK  Name = /home/vital/Documents/PhD_2021/Malaria_codes/data/pdb_ligands_mmv/ligand_129.pdb
REMARK  11 active torsions:
REMARK  status: ('A' for Active; 'I' for Inactive)
REMARK    1  A    between atoms: C1_1  and  O1_2
REMARK    2  A    between atoms: O1_2  and  C2_3
REMARK    3  A    between atoms: C5_6  and  C6_7
REMARK    4  A    between atoms: C6_7  and  C7_8
REMARK    5  A    between atoms: C7_8  and  N1_9
REMARK    6  A    between atoms: C10_12  and  C11_13
REMARK    7  A    between atoms: C11_13  and  N2_14
REMARK    8  A    between atoms: N2_14  and  C12_15
REMARK    9  A    between atoms: N2_14  and  C13_16
REMARK   10  A    between atoms: C13_16  and  C14_17
REMARK   11  A    between atoms: N4_20  and  C17_22
REMARK                            x       y       z     vdW  Elec       q    Type
REMARK                         _______ _______ _______ _____ _____    ______ ____
ROOT
ATOM      1  N1  UNL     1       4.121   2.441 -17.749  0.00  0.00    -0.302 NA
ATOM      2  C8  UNL     1       5.271   3.347 -17.631  0.00  0.00    +0.085 C 
ATOM      3  C9  UNL     1       5.405   3.986 -16.249  0.00  0.00    +0.020 C 
ATOM      4  C10 UNL     1       5.466   2.929 -15.130  0.00  0.00    +0.005 C 
ATOM      5  C23 UNL     1       4.299   1.943 -15.283  0.00  0.00    +0.020 C 
ATOM      6  C24 UNL     1       4.182   1.405 -16.713  0.00  0.00    +0.085 C 
ENDROOT
BRANCH   1   7
ATOM      7  C7  UNL     1       2.841   3.172 -17.793  0.00  0.00    +0.089 C 
BRANCH   7   8
ATOM      8  C6  UNL     1       1.589   2.276 -17.877  0.00  0.00    +0.050 C 
BRANCH   8  12
ATOM      9  C2  UNL     1      -1.183   3.433 -20.995  0.00  0.00    +0.120 A 
ATOM     10  C3  UNL     1       0.118   3.935 -20.988  0.00  0.00    +0.046 A 
ATOM     11  C4  UNL     1       1.013   3.559 -19.979  0.00  0.00    +0.007 A 
ATOM     12  C5  UNL     1       0.619   2.680 -18.962  0.00  0.00    -0.046 A 
ATOM     13  C25 UNL     1      -0.686   2.177 -18.977  0.00  0.00    +0.007 A 
ATOM     14  C26 UNL     1      -1.577   2.553 -19.986  0.00  0.00    +0.046 A 
BRANCH   9  16
ATOM     15  C1  UNL     1      -2.131   5.020 -22.487  0.00  0.00    +0.277 C 
ATOM     16  O1  UNL     1      -2.152   3.718 -21.917  0.00  0.00    -0.495 OA
ENDBRANCH   9  16
ENDBRANCH   8  12
ENDBRANCH   7   8
ENDBRANCH   1   7
BRANCH   4  17
ATOM     17  C11 UNL     1       5.503   3.650 -13.760  0.00  0.00    +0.088 C 
BRANCH  17  18
ATOM     18  N2  UNL     1       5.007   5.026 -13.644  0.00  0.00    -0.301 NA
ATOM     19  C12 UNL     1       6.046   5.990 -13.293  0.00  0.00    +0.105 C 
BRANCH  18  20
ATOM     20  C13 UNL     1       3.799   5.165 -12.830  0.00  0.00    +0.122 C 
BRANCH  20  21
ATOM     21  C14 UNL     1       2.590   4.973 -13.684  0.00  0.00    +0.004 A 
ATOM     22  C15 UNL     1       1.586   3.995 -13.547  0.00  0.00    +0.139 A 
ATOM     23  N3  UNL     1       0.643   4.083 -14.486  0.00  0.00    -0.174 NA
ATOM     24  N4  UNL     1       1.018   5.140 -15.254  0.00  0.00    -0.240 N 
ATOM     25  C16 UNL     1       2.198   5.687 -14.799  0.00  0.00    +0.119 A 
BRANCH  24  26
ATOM     26  C17 UNL     1       0.234   5.549 -16.370  0.00  0.00    +0.065 A 
ATOM     27  C18 UNL     1       0.817   6.346 -17.367  0.00  0.00    +0.028 A 
ATOM     28  C19 UNL     1       0.066   6.759 -18.470  0.00  0.00    +0.002 A 
ATOM     29  C20 UNL     1      -1.270   6.381 -18.585  0.00  0.00    +0.000 A 
ATOM     30  C21 UNL     1      -1.857   5.588 -17.600  0.00  0.00    +0.002 A 
ATOM     31  C22 UNL     1      -1.111   5.170 -16.494  0.00  0.00    +0.028 A 
ENDBRANCH  24  26
ENDBRANCH  20  21
ENDBRANCH  18  20
ENDBRANCH  17  18
ENDBRANCH   4  17
TORSDOF 9
ENDMDL
MODEL 3
REMARK VINA RESULT:    -5.473     11.168     14.215
REMARK INTER + INTRA:         -11.622
REMARK INTER:                  -9.474
REMARK INTRA:                  -2.148
REMARK UNBOUND:                -3.270
REMARK  Name = /home/vital/Documents/PhD_2021/Malaria_codes/data/pdb_ligands_mmv/ligand_129.pdb
REMARK  11 active torsions:
REMARK  status: ('A' for Active; 'I' for Inactive)
REMARK    1  A    between atoms: C1_1  and  O1_2
REMARK    2  A    between atoms: O1_2  and  C2_3
REMARK    3  A    between atoms: C5_6  and  C6_7
REMARK    4  A    between atoms: C6_7  and  C7_8
REMARK    5  A    between atoms: C7_8  and  N1_9
REMARK    6  A    between atoms: C10_12  and  C11_13
REMARK    7  A    between atoms: C11_13  and  N2_14
REMARK    8  A    between atoms: N2_14  and  C12_15
REMARK    9  A    between atoms: N2_14  and  C13_16
REMARK   10  A    between atoms: C13_16  and  C14_17
REMARK   11  A    between atoms: N4_20  and  C17_22
REMARK                            x       y       z     vdW  Elec       q    Type
REMARK                         _______ _______ _______ _____ _____    ______ ____
ROOT
ATOM      1  N1  UNL     1       5.276  -3.667 -27.943  0.00  0.00    -0.302 NA
ATOM      2  C8  UNL     1       5.191  -2.218 -27.720  0.00  0.00    +0.085 C 
ATOM      3  C9  UNL     1       5.811  -1.390 -28.845  0.00  0.00    +0.020 C 
ATOM      4  C10 UNL     1       5.201  -1.735 -30.217  0.00  0.00    +0.005 C 
ATOM      5  C23 UNL     1       5.232  -3.255 -30.431  0.00  0.00    +0.020 C 
ATOM      6  C24 UNL     1       4.666  -4.019 -29.230  0.00  0.00    +0.085 C 
ENDROOT
BRANCH   1   7
ATOM      7  C7  UNL     1       6.650  -4.176 -27.770  0.00  0.00    +0.089 C 
BRANCH   7   8
ATOM      8  C6  UNL     1       6.917  -4.862 -26.415  0.00  0.00    +0.050 C 
BRANCH   8  12
ATOM      9  C2  UNL     1       8.458  -2.200 -23.368  0.00  0.00    +0.120 A 
ATOM     10  C3  UNL     1       7.153  -2.685 -23.285  0.00  0.00    +0.046 A 
ATOM     11  C4  UNL     1       6.657  -3.546 -24.270  0.00  0.00    +0.007 A 
ATOM     12  C5  UNL     1       7.456  -3.932 -25.354  0.00  0.00    -0.046 A 
ATOM     13  C25 UNL     1       8.765  -3.445 -25.430  0.00  0.00    +0.007 A 
ATOM     14  C26 UNL     1       9.259  -2.587 -24.444  0.00  0.00    +0.046 A 
BRANCH   9  16
ATOM     15  C1  UNL     1       8.211  -0.623 -21.609  0.00  0.00    +0.277 C 
ATOM     16  O1  UNL     1       9.064  -1.357 -22.477  0.00  0.00    -0.495 OA
ENDBRANCH   9  16
ENDBRANCH   8  12
ENDBRANCH   7   8
ENDBRANCH   1   7
BRANCH   4  17
ATOM     17  C11 UNL     1       5.942  -0.931 -31.313  0.00  0.00    +0.088 C 
BRANCH  17  18
ATOM     18  N2  UNL     1       6.272   0.481 -31.088  0.00  0.00    -0.301 NA
ATOM     19  C12 UNL     1       5.151   1.384 -31.324  0.00  0.00    +0.105 C 
BRANCH  18  20
ATOM     20  C13 UNL     1       7.510   0.920 -31.735  0.00  0.00    +0.122 C 
BRANCH  20  21
ATOM     21  C14 UNL     1       8.637   0.869 -30.757  0.00  0.00    +0.004 A 
ATOM     22  C15 UNL     1      10.017   0.883 -31.034  0.00  0.00    +0.139 A 
ATOM     23  N3  UNL     1      10.768   0.810 -29.935  0.00  0.00    -0.174 NA
ATOM     24  N4  UNL     1       9.877   0.755 -28.910  0.00  0.00    -0.240 N 
ATOM     25  C16 UNL     1       8.582   0.776 -29.381  0.00  0.00    +0.119 A 
BRANCH  24  26
ATOM     26  C17 UNL     1      10.319   0.678 -27.559  0.00  0.00    +0.065 A 
ATOM     27  C18 UNL     1       9.466   1.105 -26.529  0.00  0.00    +0.028 A 
ATOM     28  C19 UNL     1       9.880   1.040 -25.197  0.00  0.00    +0.002 A 
ATOM     29  C20 UNL     1      11.145   0.549 -24.883  0.00  0.00    +0.000 A 
ATOM     30  C21 UNL     1      11.999   0.121 -25.899  0.00  0.00    +0.002 A 
ATOM     31  C22 UNL     1      11.591   0.183 -27.236  0.00  0.00    +0.028 A 
ENDBRANCH  24  26
ENDBRANCH  20  21
ENDBRANCH  18  20
ENDBRANCH  17  18
ENDBRANCH   4  17
TORSDOF 9
ENDMDL
MODEL 4
REMARK VINA RESULT:    -5.444     12.185     15.630
REMARK INTER + INTRA:         -11.578
REMARK INTER:                  -7.909
REMARK INTRA:                  -3.669
REMARK UNBOUND:                -3.270
REMARK  Name = /home/vital/Documents/PhD_2021/Malaria_codes/data/pdb_ligands_mmv/ligand_129.pdb
REMARK  11 active torsions:
REMARK  status: ('A' for Active; 'I' for Inactive)
REMARK    1  A    between atoms: C1_1  and  O1_2
REMARK    2  A    between atoms: O1_2  and  C2_3
REMARK    3  A    between atoms: C5_6  and  C6_7
REMARK    4  A    between atoms: C6_7  and  C7_8
REMARK    5  A    between atoms: C7_8  and  N1_9
REMARK    6  A    between atoms: C10_12  and  C11_13
REMARK    7  A    between atoms: C11_13  and  N2_14
REMARK    8  A    between atoms: N2_14  and  C12_15
REMARK    9  A    between atoms: N2_14  and  C13_16
REMARK   10  A    between atoms: C13_16  and  C14_17
REMARK   11  A    between atoms: N4_20  and  C17_22
REMARK                            x       y       z     vdW  Elec       q    Type
REMARK                         _______ _______ _______ _____ _____    ______ ____
ROOT
ATOM      1  N1  UNL     1      -0.570  -4.884 -29.715  0.00  0.00    -0.302 NA
ATOM      2  C8  UNL     1      -1.639  -5.287 -30.639  0.00  0.00    +0.085 C 
ATOM      3  C9  UNL     1      -1.298  -6.529 -31.461  0.00  0.00    +0.020 C 
ATOM      4  C10 UNL     1      -0.915  -7.724 -30.566  0.00  0.00    +0.005 C 
ATOM      5  C23 UNL     1       0.160  -7.293 -29.559  0.00  0.00    +0.020 C 
ATOM      6  C24 UNL     1      -0.217  -5.999 -28.830  0.00  0.00    +0.085 C 
ENDROOT
BRANCH   1   7
ATOM      7  C7  UNL     1       0.580  -4.290 -30.423  0.00  0.00    +0.089 C 
BRANCH   7   8
ATOM      8  C6  UNL     1       1.202  -3.063 -29.726  0.00  0.00    +0.050 C 
BRANCH   8  12
ATOM      9  C2  UNL     1       5.172  -3.760 -28.145  0.00  0.00    +0.120 A 
ATOM     10  C3  UNL     1       4.716  -2.459 -28.355  0.00  0.00    +0.046 A 
ATOM     11  C4  UNL     1       3.433  -2.236 -28.865  0.00  0.00    +0.007 A 
ATOM     12  C5  UNL     1       2.588  -3.309 -29.176  0.00  0.00    -0.046 A 
ATOM     13  C25 UNL     1       3.049  -4.611 -28.960  0.00  0.00    +0.007 A 
ATOM     14  C26 UNL     1       4.330  -4.832 -28.449  0.00  0.00    +0.046 A 
BRANCH   9  16
ATOM     15  C1  UNL     1       6.435  -5.228 -26.770  0.00  0.00    +0.277 C 
ATOM     16  O1  UNL     1       6.398  -4.116 -27.654  0.00  0.00    -0.495 OA
ENDBRANCH   9  16
ENDBRANCH   8  12
ENDBRANCH   7   8
ENDBRANCH   1   7
BRANCH   4  17
ATOM     17  C11 UNL     1      -0.492  -8.910 -31.467  0.00  0.00    +0.088 C 
BRANCH  17  18
ATOM     18  N2  UNL     1       0.009  -8.658 -32.823  0.00  0.00    -0.301 NA
ATOM     19  C12 UNL     1      -0.603  -9.511 -33.836  0.00  0.00    +0.105 C 
BRANCH  18  20
ATOM     20  C13 UNL     1       1.468  -8.601 -32.925  0.00  0.00    +0.122 C 
BRANCH  20  21
ATOM     21  C14 UNL     1       1.907  -7.187 -33.112  0.00  0.00    +0.004 A 
ATOM     22  C15 UNL     1       1.382  -6.234 -34.005  0.00  0.00    +0.139 A 
ATOM     23  N3  UNL     1       2.008  -5.059 -33.938  0.00  0.00    -0.174 NA
ATOM     24  N4  UNL     1       2.957  -5.226 -32.980  0.00  0.00    -0.240 N 
ATOM     25  C16 UNL     1       2.926  -6.508 -32.474  0.00  0.00    +0.119 A 
BRANCH  24  26
ATOM     26  C17 UNL     1       3.831  -4.161 -32.621  0.00  0.00    +0.065 A 
ATOM     27  C18 UNL     1       3.407  -2.834 -32.792  0.00  0.00    +0.028 A 
ATOM     28  C19 UNL     1       4.249  -1.774 -32.448  0.00  0.00    +0.002 A 
ATOM     29  C20 UNL     1       5.517  -2.030 -31.932  0.00  0.00    +0.000 A 
ATOM     30  C21 UNL     1       5.946  -3.345 -31.757  0.00  0.00    +0.002 A 
ATOM     31  C22 UNL     1       5.108  -4.412 -32.099  0.00  0.00    +0.028 A 
ENDBRANCH  24  26
ENDBRANCH  20  21
ENDBRANCH  18  20
ENDBRANCH  17  18
ENDBRANCH   4  17
TORSDOF 9
ENDMDL
MODEL 5
REMARK VINA RESULT:    -5.403      7.832     11.235
REMARK INTER + INTRA:         -11.515
REMARK INTER:                  -8.014
REMARK INTRA:                  -3.501
REMARK UNBOUND:                -3.270
REMARK  Name = /home/vital/Documents/PhD_2021/Malaria_codes/data/pdb_ligands_mmv/ligand_129.pdb
REMARK  11 active torsions:
REMARK  status: ('A' for Active; 'I' for Inactive)
REMARK    1  A    between atoms: C1_1  and  O1_2
REMARK    2  A    between atoms: O1_2  and  C2_3
REMARK    3  A    between atoms: C5_6  and  C6_7
REMARK    4  A    between atoms: C6_7  and  C7_8
REMARK    5  A    between atoms: C7_8  and  N1_9
REMARK    6  A    between atoms: C10_12  and  C11_13
REMARK    7  A    between atoms: C11_13  and  N2_14
REMARK    8  A    between atoms: N2_14  and  C12_15
REMARK    9  A    between atoms: N2_14  and  C13_16
REMARK   10  A    between atoms: C13_16  and  C14_17
REMARK   11  A    between atoms: N4_20  and  C17_22
REMARK                            x       y       z     vdW  Elec       q    Type
REMARK                         _______ _______ _______ _____ _____    ______ ____
ROOT
ATOM      1  N1  UNL     1       5.154  -1.946 -20.906  0.00  0.00    -0.302 NA
ATOM      2  C8  UNL     1       4.024  -1.055 -20.612  0.00  0.00    +0.085 C 
ATOM      3  C9  UNL     1       2.663  -1.662 -20.953  0.00  0.00    +0.020 C 
ATOM      4  C10 UNL     1       2.446  -3.017 -20.251  0.00  0.00    +0.005 C 
ATOM      5  C23 UNL     1       3.651  -3.932 -20.505  0.00  0.00    +0.020 C 
ATOM      6  C24 UNL     1       4.981  -3.229 -20.216  0.00  0.00    +0.085 C 
ENDROOT
BRANCH   1   7
ATOM      7  C7  UNL     1       5.400  -2.072 -22.355  0.00  0.00    +0.089 C 
BRANCH   7   8
ATOM      8  C6  UNL     1       6.510  -3.071 -22.737  0.00  0.00    +0.050 C 
BRANCH   8  12
ATOM      9  C2  UNL     1       9.521  -1.432 -25.380  0.00  0.00    +0.120 A 
ATOM     10  C3  UNL     1       9.679  -2.707 -24.839  0.00  0.00    +0.046 A 
ATOM     11  C4  UNL     1       8.704  -3.235 -23.985  0.00  0.00    +0.007 A 
ATOM     12  C5  UNL     1       7.560  -2.496 -23.658  0.00  0.00    -0.046 A 
ATOM     13  C25 UNL     1       7.405  -1.219 -24.208  0.00  0.00    +0.007 A 
ATOM     14  C26 UNL     1       8.379  -0.694 -25.061  0.00  0.00    +0.046 A 
BRANCH   9  16
ATOM     15  C1  UNL     1       9.937   0.400 -26.835  0.00  0.00    +0.277 C 
ATOM     16  O1  UNL     1      10.393  -0.800 -26.224  0.00  0.00    -0.495 OA
ENDBRANCH   9  16
ENDBRANCH   8  12
ENDBRANCH   7   8
ENDBRANCH   1   7
BRANCH   4  17
ATOM     17  C11 UNL     1       1.095  -3.612 -20.718  0.00  0.00    +0.088 C 
BRANCH  17  18
ATOM     18  N2  UNL     1       0.524  -3.210 -22.009  0.00  0.00    -0.301 NA
ATOM     19  C12 UNL     1      -0.847  -2.720 -21.910  0.00  0.00    +0.105 C 
BRANCH  18  20
ATOM     20  C13 UNL     1       0.707  -4.191 -23.080  0.00  0.00    +0.122 C 
BRANCH  20  21
ATOM     21  C14 UNL     1       1.804  -3.746 -23.990  0.00  0.00    +0.004 A 
ATOM     22  C15 UNL     1       1.907  -2.524 -24.680  0.00  0.00    +0.139 A 
ATOM     23  N3  UNL     1       3.008  -2.440 -25.427  0.00  0.00    -0.174 NA
ATOM     24  N4  UNL     1       3.655  -3.619 -25.225  0.00  0.00    -0.240 N 
ATOM     25  C16 UNL     1       2.941  -4.432 -24.370  0.00  0.00    +0.119 A 
BRANCH  24  26
ATOM     26  C17 UNL     1       4.897  -3.893 -25.864  0.00  0.00    +0.065 A 
ATOM     27  C18 UNL     1       5.451  -2.937 -26.730  0.00  0.00    +0.028 A 
ATOM     28  C19 UNL     1       6.668  -3.185 -27.369  0.00  0.00    +0.002 A 
ATOM     29  C20 UNL     1       7.339  -4.386 -27.149  0.00  0.00    +0.000 A 
ATOM     30  C21 UNL     1       6.797  -5.340 -26.289  0.00  0.00    +0.002 A 
ATOM     31  C22 UNL     1       5.579  -5.098 -25.646  0.00  0.00    +0.028 A 
ENDBRANCH  24  26
ENDBRANCH  20  21
ENDBRANCH  18  20
ENDBRANCH  17  18
ENDBRANCH   4  17
TORSDOF 9
ENDMDL
MODEL 6
REMARK VINA RESULT:    -5.313     10.572     14.482
REMARK INTER + INTRA:         -11.378
REMARK INTER:                  -7.984
REMARK INTRA:                  -3.395
REMARK UNBOUND:                -3.270
REMARK  Name = /home/vital/Documents/PhD_2021/Malaria_codes/data/pdb_ligands_mmv/ligand_129.pdb
REMARK  11 active torsions:
REMARK  status: ('A' for Active; 'I' for Inactive)
REMARK    1  A    between atoms: C1_1  and  O1_2
REMARK    2  A    between atoms: O1_2  and  C2_3
REMARK    3  A    between atoms: C5_6  and  C6_7
REMARK    4  A    between atoms: C6_7  and  C7_8
REMARK    5  A    between atoms: C7_8  and  N1_9
REMARK    6  A    between atoms: C10_12  and  C11_13
REMARK    7  A    between atoms: C11_13  and  N2_14
REMARK    8  A    between atoms: N2_14  and  C12_15
REMARK    9  A    between atoms: N2_14  and  C13_16
REMARK   10  A    between atoms: C13_16  and  C14_17
REMARK   11  A    between atoms: N4_20  and  C17_22
REMARK                            x       y       z     vdW  Elec       q    Type
REMARK                         _______ _______ _______ _____ _____    ______ ____
ROOT
ATOM      1  N1  UNL     1       5.612  -2.912 -31.261  0.00  0.00    -0.302 NA
ATOM      2  C8  UNL     1       5.632  -4.029 -32.215  0.00  0.00    +0.085 C 
ATOM      3  C9  UNL     1       4.250  -4.397 -32.753  0.00  0.00    +0.020 C 
ATOM      4  C10 UNL     1       3.541  -3.188 -33.393  0.00  0.00    +0.005 C 
ATOM      5  C23 UNL     1       3.569  -1.998 -32.424  0.00  0.00    +0.020 C 
ATOM      6  C24 UNL     1       4.973  -1.739 -31.867  0.00  0.00    +0.085 C 
ENDROOT
BRANCH   1   7
ATOM      7  C7  UNL     1       5.040  -3.304 -29.960  0.00  0.00    +0.089 C 
BRANCH   7   8
ATOM      8  C6  UNL     1       5.884  -4.319 -29.163  0.00  0.00    +0.050 C 
BRANCH   8  12
ATOM      9  C2  UNL     1       7.268  -2.818 -25.345  0.00  0.00    +0.120 A 
ATOM     10  C3  UNL     1       6.676  -1.956 -26.267  0.00  0.00    +0.046 A 
ATOM     11  C4  UNL     1       6.229  -2.443 -27.500  0.00  0.00    +0.007 A 
ATOM     12  C5  UNL     1       6.369  -3.797 -27.830  0.00  0.00    -0.046 A 
ATOM     13  C25 UNL     1       6.960  -4.658 -26.899  0.00  0.00    +0.007 A 
ATOM     14  C26 UNL     1       7.404  -4.170 -25.668  0.00  0.00    +0.046 A 
BRANCH   9  16
ATOM     15  C1  UNL     1       9.117  -2.109 -24.033  0.00  0.00    +0.277 C 
ATOM     16  O1  UNL     1       7.745  -2.474 -24.110  0.00  0.00    -0.495 OA
ENDBRANCH   9  16
ENDBRANCH   8  12
ENDBRANCH   7   8
ENDBRANCH   1   7
BRANCH   4  17
ATOM     17  C11 UNL     1       2.117  -3.612 -33.825  0.00  0.00    +0.088 C 
BRANCH  17  18
ATOM     18  N2  UNL     1       1.516  -4.831 -33.271  0.00  0.00    -0.301 NA
ATOM     19  C12 UNL     1       1.059  -5.769 -34.292  0.00  0.00    +0.105 C 
BRANCH  18  20
ATOM     20  C13 UNL     1       0.520  -4.590 -32.226  0.00  0.00    +0.122 C 
BRANCH  20  21
ATOM     21  C14 UNL     1       1.111  -4.883 -30.887  0.00  0.00    +0.004 A 
ATOM     22  C15 UNL     1       1.431  -6.141 -30.344  0.00  0.00    +0.139 A 
ATOM     23  N3  UNL     1       1.934  -6.063 -29.113  0.00  0.00    -0.174 NA
ATOM     24  N4  UNL     1       1.960  -4.733 -28.832  0.00  0.00    -0.240 N 
ATOM     25  C16 UNL     1       1.455  -3.999 -29.884  0.00  0.00    +0.119 A 
BRANCH  24  26
ATOM     26  C17 UNL     1       2.453  -4.257 -27.585  0.00  0.00    +0.065 A 
ATOM     27  C18 UNL     1       3.054  -5.159 -26.692  0.00  0.00    +0.028 A 
ATOM     28  C19 UNL     1       3.543  -4.713 -25.462  0.00  0.00    +0.002 A 
ATOM     29  C20 UNL     1       3.435  -3.368 -25.114  0.00  0.00    +0.000 A 
ATOM     30  C21 UNL     1       2.841  -2.466 -25.995  0.00  0.00    +0.002 A 
ATOM     31  C22 UNL     1       2.350  -2.905 -27.229  0.00  0.00    +0.028 A 
ENDBRANCH  24  26
ENDBRANCH  20  21
ENDBRANCH  18  20
ENDBRANCH  17  18
ENDBRANCH   4  17
TORSDOF 9
ENDMDL
MODEL 7
REMARK VINA RESULT:    -5.054     11.275     14.320
REMARK INTER + INTRA:         -10.984
REMARK INTER:                  -7.402
REMARK INTRA:                  -3.582
REMARK UNBOUND:                -3.270
REMARK  Name = /home/vital/Documents/PhD_2021/Malaria_codes/data/pdb_ligands_mmv/ligand_129.pdb
REMARK  11 active torsions:
REMARK  status: ('A' for Active; 'I' for Inactive)
REMARK    1  A    between atoms: C1_1  and  O1_2
REMARK    2  A    between atoms: O1_2  and  C2_3
REMARK    3  A    between atoms: C5_6  and  C6_7
REMARK    4  A    between atoms: C6_7  and  C7_8
REMARK    5  A    between atoms: C7_8  and  N1_9
REMARK    6  A    between atoms: C10_12  and  C11_13
REMARK    7  A    between atoms: C11_13  and  N2_14
REMARK    8  A    between atoms: N2_14  and  C12_15
REMARK    9  A    between atoms: N2_14  and  C13_16
REMARK   10  A    between atoms: C13_16  and  C14_17
REMARK   11  A    between atoms: N4_20  and  C17_22
REMARK                            x       y       z     vdW  Elec       q    Type
REMARK                         _______ _______ _______ _____ _____    ______ ____
ROOT
ATOM      1  N1  UNL     1       4.464  -2.790 -32.054  0.00  0.00    -0.302 NA
ATOM      2  C8  UNL     1       4.550  -1.648 -31.135  0.00  0.00    +0.085 C 
ATOM      3  C9  UNL     1       4.696  -2.054 -29.669  0.00  0.00    +0.020 C 
ATOM      4  C10 UNL     1       5.905  -2.985 -29.447  0.00  0.00    +0.005 C 
ATOM      5  C23 UNL     1       5.852  -4.149 -30.445  0.00  0.00    +0.020 C 
ATOM      6  C24 UNL     1       5.626  -3.668 -31.883  0.00  0.00    +0.085 C 
ENDROOT
BRANCH   1   7
ATOM      7  C7  UNL     1       3.166  -3.484 -31.956  0.00  0.00    +0.089 C 
BRANCH   7   8
ATOM      8  C6  UNL     1       2.566  -3.923 -33.308  0.00  0.00    +0.050 C 
BRANCH   8  12
ATOM      9  C2  UNL     1       1.324  -8.069 -33.398  0.00  0.00    +0.120 A 
ATOM     10  C3  UNL     1       2.260  -7.635 -32.461  0.00  0.00    +0.046 A 
ATOM     11  C4  UNL     1       2.660  -6.294 -32.432  0.00  0.00    +0.007 A 
ATOM     12  C5  UNL     1       2.132  -5.369 -33.343  0.00  0.00    -0.046 A 
ATOM     13  C25 UNL     1       1.191  -5.810 -34.278  0.00  0.00    +0.007 A 
ATOM     14  C26 UNL     1       0.792  -7.149 -34.304  0.00  0.00    +0.046 A 
BRANCH   9  16
ATOM     15  C1  UNL     1      -0.563  -9.499 -33.599  0.00  0.00    +0.277 C 
ATOM     16  O1  UNL     1       0.849  -9.345 -33.534  0.00  0.00    -0.495 OA
ENDBRANCH   9  16
ENDBRANCH   8  12
ENDBRANCH   7   8
ENDBRANCH   1   7
BRANCH   4  17
ATOM     17  C11 UNL     1       5.930  -3.429 -27.964  0.00  0.00    +0.088 C 
BRANCH  17  18
ATOM     18  N2  UNL     1       4.671  -3.635 -27.240  0.00  0.00    -0.301 NA
ATOM     19  C12 UNL     1       4.568  -2.842 -26.019  0.00  0.00    +0.105 C 
BRANCH  18  20
ATOM     20  C13 UNL     1       4.313  -5.041 -27.043  0.00  0.00    +0.122 C 
BRANCH  20  21
ATOM     21  C14 UNL     1       2.919  -5.278 -27.521  0.00  0.00    +0.004 A 
ATOM     22  C15 UNL     1       1.802  -5.665 -26.757  0.00  0.00    +0.139 A 
ATOM     23  N3  UNL     1       0.696  -5.808 -27.488  0.00  0.00    -0.174 NA
ATOM     24  N4  UNL     1       1.078  -5.503 -28.756  0.00  0.00    -0.240 N 
ATOM     25  C16 UNL     1       2.420  -5.191 -28.805  0.00  0.00    +0.119 A 
BRANCH  24  26
ATOM     26  C17 UNL     1       0.144  -5.537 -29.831  0.00  0.00    +0.065 A 
ATOM     27  C18 UNL     1      -0.496  -6.745 -30.148  0.00  0.00    +0.028 A 
ATOM     28  C19 UNL     1      -1.415  -6.802 -31.199  0.00  0.00    +0.002 A 
ATOM     29  C20 UNL     1      -1.699  -5.657 -31.939  0.00  0.00    +0.000 A 
ATOM     30  C21 UNL     1      -1.068  -4.453 -31.630  0.00  0.00    +0.002 A 
ATOM     31  C22 UNL     1      -0.148  -4.388 -30.579  0.00  0.00    +0.028 A 
ENDBRANCH  24  26
ENDBRANCH  20  21
ENDBRANCH  18  20
ENDBRANCH  17  18
ENDBRANCH   4  17
TORSDOF 9
ENDMDL
MODEL 8
REMARK VINA RESULT:    -5.018      6.363      9.595
REMARK INTER + INTRA:         -10.928
REMARK INTER:                  -7.440
REMARK INTRA:                  -3.489
REMARK UNBOUND:                -3.270
REMARK  Name = /home/vital/Documents/PhD_2021/Malaria_codes/data/pdb_ligands_mmv/ligand_129.pdb
REMARK  11 active torsions:
REMARK  status: ('A' for Active; 'I' for Inactive)
REMARK    1  A    between atoms: C1_1  and  O1_2
REMARK    2  A    between atoms: O1_2  and  C2_3
REMARK    3  A    between atoms: C5_6  and  C6_7
REMARK    4  A    between atoms: C6_7  and  C7_8
REMARK    5  A    between atoms: C7_8  and  N1_9
REMARK    6  A    between atoms: C10_12  and  C11_13
REMARK    7  A    between atoms: C11_13  and  N2_14
REMARK    8  A    between atoms: N2_14  and  C12_15
REMARK    9  A    between atoms: N2_14  and  C13_16
REMARK   10  A    between atoms: C13_16  and  C14_17
REMARK   11  A    between atoms: N4_20  and  C17_22
REMARK                            x       y       z     vdW  Elec       q    Type
REMARK                         _______ _______ _______ _____ _____    ______ ____
ROOT
ATOM      1  N1  UNL     1       2.170  -3.656 -26.265  0.00  0.00    -0.302 NA
ATOM      2  C8  UNL     1       2.814  -2.587 -27.040  0.00  0.00    +0.085 C 
ATOM      3  C9  UNL     1       4.338  -2.588 -26.929  0.00  0.00    +0.020 C 
ATOM      4  C10 UNL     1       4.944  -3.948 -27.327  0.00  0.00    +0.005 C 
ATOM      5  C23 UNL     1       4.233  -5.075 -26.564  0.00  0.00    +0.020 C 
ATOM      6  C24 UNL     1       2.708  -4.963 -26.657  0.00  0.00    +0.085 C 
ENDROOT
BRANCH   1   7
ATOM      7  C7  UNL     1       2.219  -3.396 -24.814  0.00  0.00    +0.089 C 
BRANCH   7   8
ATOM      8  C6  UNL     1       1.454  -4.419 -23.949  0.00  0.00    +0.050 C 
BRANCH   8  12
ATOM      9  C2  UNL     1      -1.465  -2.641 -21.292  0.00  0.00    +0.120 A 
ATOM     10  C3  UNL     1      -1.205  -4.010 -21.237  0.00  0.00    +0.046 A 
ATOM     11  C4  UNL     1      -0.260  -4.582 -22.096  0.00  0.00    +0.007 A 
ATOM     12  C5  UNL     1       0.435  -3.796 -23.024  0.00  0.00    -0.046 A 
ATOM     13  C25 UNL     1       0.172  -2.423 -23.072  0.00  0.00    +0.007 A 
ATOM     14  C26 UNL     1      -0.770  -1.853 -22.212  0.00  0.00    +0.046 A 
BRANCH   9  16
ATOM     15  C1  UNL     1      -3.661  -1.767 -21.050  0.00  0.00    +0.277 C 
ATOM     16  O1  UNL     1      -2.359  -1.957 -20.513  0.00  0.00    -0.495 OA
ENDBRANCH   9  16
ENDBRANCH   8  12
ENDBRANCH   7   8
ENDBRANCH   1   7
BRANCH   4  17
ATOM     17  C11 UNL     1       6.474  -3.902 -27.098  0.00  0.00    +0.088 C 
BRANCH  17  18
ATOM     18  N2  UNL     1       7.029  -3.076 -26.020  0.00  0.00    -0.301 NA
ATOM     19  C12 UNL     1       7.906  -2.012 -26.496  0.00  0.00    +0.105 C 
BRANCH  18  20
ATOM     20  C13 UNL     1       7.603  -3.840 -24.911  0.00  0.00    +0.122 C 
BRANCH  20  21
ATOM     21  C14 UNL     1       6.556  -4.097 -23.879  0.00  0.00    +0.004 A 
ATOM     22  C15 UNL     1       6.141  -5.340 -23.365  0.00  0.00    +0.139 A 
ATOM     23  N3  UNL     1       5.168  -5.230 -22.460  0.00  0.00    -0.174 NA
ATOM     24  N4  UNL     1       4.936  -3.894 -22.362  0.00  0.00    -0.240 N 
ATOM     25  C16 UNL     1       5.753  -3.188 -23.219  0.00  0.00    +0.119 A 
BRANCH  24  26
ATOM     26  C17 UNL     1       3.951  -3.386 -21.469  0.00  0.00    +0.065 A 
ATOM     27  C18 UNL     1       3.616  -2.023 -21.516  0.00  0.00    +0.028 A 
ATOM     28  C19 UNL     1       2.653  -1.503 -20.648  0.00  0.00    +0.002 A 
ATOM     29  C20 UNL     1       2.020  -2.336 -19.729  0.00  0.00    +0.000 A 
ATOM     30  C21 UNL     1       2.346  -3.691 -19.676  0.00  0.00    +0.002 A 
ATOM     31  C22 UNL     1       3.309  -4.219 -20.542  0.00  0.00    +0.028 A 
ENDBRANCH  24  26
ENDBRANCH  20  21
ENDBRANCH  18  20
ENDBRANCH  17  18
ENDBRANCH   4  17
TORSDOF 9
ENDMDL
MODEL 9
REMARK VINA RESULT:    -4.995     10.857     13.045
REMARK INTER + INTRA:         -10.893
REMARK INTER:                  -7.526
REMARK INTRA:                  -3.367
REMARK UNBOUND:                -3.270
REMARK  Name = /home/vital/Documents/PhD_2021/Malaria_codes/data/pdb_ligands_mmv/ligand_129.pdb
REMARK  11 active torsions:
REMARK  status: ('A' for Active; 'I' for Inactive)
REMARK    1  A    between atoms: C1_1  and  O1_2
REMARK    2  A    between atoms: O1_2  and  C2_3
REMARK    3  A    between atoms: C5_6  and  C6_7
REMARK    4  A    between atoms: C6_7  and  C7_8
REMARK    5  A    between atoms: C7_8  and  N1_9
REMARK    6  A    between atoms: C10_12  and  C11_13
REMARK    7  A    between atoms: C11_13  and  N2_14
REMARK    8  A    between atoms: N2_14  and  C12_15
REMARK    9  A    between atoms: N2_14  and  C13_16
REMARK   10  A    between atoms: C13_16  and  C14_17
REMARK   11  A    between atoms: N4_20  and  C17_22
REMARK                            x       y       z     vdW  Elec       q    Type
REMARK                         _______ _______ _______ _____ _____    ______ ____
ROOT
ATOM      1  N1  UNL     1       5.483  -4.930 -27.347  0.00  0.00    -0.302 NA
ATOM      2  C8  UNL     1       6.810  -5.311 -26.846  0.00  0.00    +0.085 C 
ATOM      3  C9  UNL     1       7.370  -4.343 -25.805  0.00  0.00    +0.020 C 
ATOM      4  C10 UNL     1       6.407  -4.156 -24.616  0.00  0.00    +0.005 C 
ATOM      5  C23 UNL     1       5.003  -3.817 -25.135  0.00  0.00    +0.020 C 
ATOM      6  C24 UNL     1       4.542  -4.784 -26.230  0.00  0.00    +0.085 C 
ENDROOT
BRANCH   1   7
ATOM      7  C7  UNL     1       5.541  -3.759 -28.241  0.00  0.00    +0.089 C 
BRANCH   7   8
ATOM      8  C6  UNL     1       5.881  -4.085 -29.709  0.00  0.00    +0.050 C 
BRANCH   8  12
ATOM      9  C2  UNL     1       2.666  -3.220 -32.476  0.00  0.00    +0.120 A 
ATOM     10  C3  UNL     1       2.405  -3.351 -31.113  0.00  0.00    +0.046 A 
ATOM     11  C4  UNL     1       3.446  -3.630 -30.220  0.00  0.00    +0.007 A 
ATOM     12  C5  UNL     1       4.761  -3.785 -30.677  0.00  0.00    -0.046 A 
ATOM     13  C25 UNL     1       5.016  -3.649 -32.045  0.00  0.00    +0.007 A 
ATOM     14  C26 UNL     1       3.976  -3.369 -32.935  0.00  0.00    +0.046 A 
BRANCH   9  16
ATOM     15  C1  UNL     1       1.849  -3.698 -34.655  0.00  0.00    +0.277 C 
ATOM     16  O1  UNL     1       1.745  -2.950 -33.451  0.00  0.00    -0.495 OA
ENDBRANCH   9  16
ENDBRANCH   8  12
ENDBRANCH   7   8
ENDBRANCH   1   7
BRANCH   4  17
ATOM     17  C11 UNL     1       6.996  -3.094 -23.656  0.00  0.00    +0.088 C 
BRANCH  17  18
ATOM     18  N2  UNL     1       7.864  -2.034 -24.179  0.00  0.00    -0.301 NA
ATOM     19  C12 UNL     1       9.027  -1.768 -23.339  0.00  0.00    +0.105 C 
BRANCH  18  20
ATOM     20  C13 UNL     1       7.156  -0.818 -24.580  0.00  0.00    +0.122 C 
BRANCH  20  21
ATOM     21  C14 UNL     1       7.163  -0.696 -26.068  0.00  0.00    +0.004 A 
ATOM     22  C15 UNL     1       8.278  -0.716 -26.927  0.00  0.00    +0.139 A 
ATOM     23  N3  UNL     1       7.948  -0.568 -28.210  0.00  0.00    -0.174 NA
ATOM     24  N4  UNL     1       6.593  -0.457 -28.209  0.00  0.00    -0.240 N 
ATOM     25  C16 UNL     1       6.095  -0.517 -26.925  0.00  0.00    +0.119 A 
BRANCH  24  26
ATOM     26  C17 UNL     1       5.870  -0.292 -29.424  0.00  0.00    +0.065 A 
ATOM     27  C18 UNL     1       6.559  -0.333 -30.646  0.00  0.00    +0.028 A 
ATOM     28  C19 UNL     1       5.870  -0.172 -31.850  0.00  0.00    +0.002 A 
ATOM     29  C20 UNL     1       4.492   0.032 -31.843  0.00  0.00    +0.000 A 
ATOM     30  C21 UNL     1       3.800   0.073 -30.634  0.00  0.00    +0.002 A 
ATOM     31  C22 UNL     1       4.483  -0.088 -29.424  0.00  0.00    +0.028 A 
ENDBRANCH  24  26
ENDBRANCH  20  21
ENDBRANCH  18  20
ENDBRANCH  17  18
ENDBRANCH   4  17
TORSDOF 9
ENDMDL
