MODEL 1
REMARK VINA RESULT:    -6.970      0.000      0.000
REMARK INTER + INTRA:         -10.344
REMARK INTER:                  -9.007
REMARK INTRA:                  -1.336
REMARK UNBOUND:                -1.336
REMARK  Name = /home/vital/Documents/PhD_2021/Malaria_codes/data/pdb_ligands_mmv/ligand_107.pdb
REMARK  6 active torsions:
REMARK  status: ('A' for Active; 'I' for Inactive)
REMARK    1  A    between atoms: C1_1  and  O1_2
REMARK    2  A    between atoms: O1_2  and  C2_3
REMARK    3  A    between atoms: C5_6  and  C8_9
REMARK    4  A    between atoms: N1_11  and  C9_12
REMARK    5  A    between atoms: C14_18  and  C15_19
REMARK    6  A    between atoms: N2_21  and  C16_22
REMARK                            x       y       z     vdW  Elec       q    Type
REMARK                         _______ _______ _______ _____ _____    ______ ____
ROOT
ATOM      1  C9  UNL     1      10.031  -0.495 -25.507  0.00  0.00    +0.046 A 
ATOM      2  C10 UNL     1      11.115  -0.255 -26.361  0.00  0.00    +0.025 A 
ATOM      3  C11 UNL     1      12.018   0.782 -26.100  0.00  0.00    +0.022 A 
ATOM      4  C12 UNL     1      11.842   1.594 -24.987  0.00  0.00    +0.042 A 
ATOM      5 CL1  UNL     1      12.940   2.882 -24.683  0.00  0.00    -0.084 Cl
ATOM      6  C13 UNL     1      10.784   1.370 -24.113  0.00  0.00    +0.035 A 
ATOM      7  C14 UNL     1       9.890   0.311 -24.352  0.00  0.00    +0.060 A 
ENDROOT
BRANCH   1  10
ATOM      8  C8  UNL     1       8.979  -2.767 -25.203  0.00  0.00    +0.248 C 
ATOM      9  O2  UNL     1       9.727  -3.239 -24.353  0.00  0.00    -0.270 OA
ATOM     10  N1  UNL     1       9.073  -1.509 -25.764  0.00  0.00    -0.281 N 
ATOM     11  H8  UNL     1       8.443  -1.297 -26.540  0.00  0.00    +0.155 HD
BRANCH   8  15
ATOM     12  C2  UNL     1       5.726  -5.242 -26.561  0.00  0.00    +0.120 A 
ATOM     13  C3  UNL     1       6.412  -4.435 -27.473  0.00  0.00    +0.046 A 
ATOM     14  C4  UNL     1       7.471  -3.621 -27.057  0.00  0.00    +0.016 A 
ATOM     15  C5  UNL     1       7.861  -3.616 -25.714  0.00  0.00    +0.037 A 
ATOM     16  C6  UNL     1       7.163  -4.414 -24.797  0.00  0.00    +0.016 A 
ATOM     17  C7  UNL     1       6.103  -5.226 -25.218  0.00  0.00    +0.046 A 
BRANCH  12  19
ATOM     18  C1  UNL     1       3.436  -5.369 -27.183  0.00  0.00    +0.277 C 
ATOM     19  O1  UNL     1       4.715  -5.985 -27.105  0.00  0.00    -0.495 OA
ENDBRANCH  12  19
ENDBRANCH   8  15
ENDBRANCH   1  10
BRANCH   7  20
ATOM     20  C15 UNL     1       8.787   0.050 -23.372  0.00  0.00    +0.250 C 
ATOM     21  O3  UNL     1       7.712   0.615 -23.541  0.00  0.00    -0.270 OA
ATOM     22  N2  UNL     1       9.073  -0.879 -22.386  0.00  0.00    -0.281 N 
ATOM     23  H12 UNL     1       9.940  -1.396 -22.470  0.00  0.00    +0.155 HD
BRANCH  22  24
ATOM     24  C16 UNL     1       8.233  -1.274 -21.320  0.00  0.00    +0.037 A 
ATOM     25  C17 UNL     1       7.221  -2.191 -21.607  0.00  0.00    +0.043 A 
ATOM     26  C18 UNL     1       6.385  -2.601 -20.581  0.00  0.00    +0.112 A 
ATOM     27  N3  UNL     1       6.492  -2.166 -19.310  0.00  0.00    -0.263 NA
ATOM     28  C19 UNL     1       7.482  -1.286 -19.055  0.00  0.00    +0.112 A 
ATOM     29  C20 UNL     1       8.367  -0.816 -20.014  0.00  0.00    +0.043 A 
ENDBRANCH  22  24
ENDBRANCH   7  20
TORSDOF 5
ENDMDL
MODEL 2
REMARK VINA RESULT:    -6.666      6.457      9.799
REMARK INTER + INTRA:          -9.950
REMARK INTER:                  -8.772
REMARK INTRA:                  -1.178
REMARK UNBOUND:                -1.336
REMARK  Name = /home/vital/Documents/PhD_2021/Malaria_codes/data/pdb_ligands_mmv/ligand_107.pdb
REMARK  6 active torsions:
REMARK  status: ('A' for Active; 'I' for Inactive)
REMARK    1  A    between atoms: C1_1  and  O1_2
REMARK    2  A    between atoms: O1_2  and  C2_3
REMARK    3  A    between atoms: C5_6  and  C8_9
REMARK    4  A    between atoms: N1_11  and  C9_12
REMARK    5  A    between atoms: C14_18  and  C15_19
REMARK    6  A    between atoms: N2_21  and  C16_22
REMARK                            x       y       z     vdW  Elec       q    Type
REMARK                         _______ _______ _______ _____ _____    ______ ____
ROOT
ATOM      1  C9  UNL     1       4.436  -2.952 -32.555  0.00  0.00    +0.046 A 
ATOM      2  C10 UNL     1       3.391  -2.987 -33.486  0.00  0.00    +0.025 A 
ATOM      3  C11 UNL     1       2.527  -4.087 -33.556  0.00  0.00    +0.022 A 
ATOM      4  C12 UNL     1       2.705  -5.165 -32.699  0.00  0.00    +0.042 A 
ATOM      5 CL1  UNL     1       1.657  -6.525 -32.803  0.00  0.00    -0.084 Cl
ATOM      6  C13 UNL     1       3.725  -5.153 -31.753  0.00  0.00    +0.035 A 
ATOM      7  C14 UNL     1       4.577  -4.039 -31.657  0.00  0.00    +0.060 A 
ENDROOT
BRANCH   1  10
ATOM      8  C8  UNL     1       5.105  -0.547 -32.198  0.00  0.00    +0.248 C 
ATOM      9  O2  UNL     1       4.012  -0.055 -31.937  0.00  0.00    -0.270 OA
ATOM     10  N1  UNL     1       5.355  -1.874 -32.486  0.00  0.00    -0.281 N 
ATOM     11  H8  UNL     1       6.300  -2.115 -32.791  0.00  0.00    +0.155 HD
BRANCH   8  15
ATOM     12  C2  UNL     1       8.514   2.076 -32.418  0.00  0.00    +0.120 A 
ATOM     13  C3  UNL     1       8.138   1.529 -31.188  0.00  0.00    +0.046 A 
ATOM     14  C4  UNL     1       7.034   0.676 -31.090  0.00  0.00    +0.016 A 
ATOM     15  C5  UNL     1       6.297   0.353 -32.234  0.00  0.00    +0.037 A 
ATOM     16  C6  UNL     1       6.667   0.913 -33.465  0.00  0.00    +0.016 A 
ATOM     17  C7  UNL     1       7.772   1.768 -33.558  0.00  0.00    +0.046 A 
BRANCH  12  19
ATOM     18  C1  UNL     1      10.491   2.716 -31.264  0.00  0.00    +0.277 C 
ATOM     19  O1  UNL     1       9.611   2.891 -32.368  0.00  0.00    -0.495 OA
ENDBRANCH  12  19
ENDBRANCH   8  15
ENDBRANCH   1  10
BRANCH   7  20
ATOM     20  C15 UNL     1       5.636  -4.017 -30.597  0.00  0.00    +0.250 C 
ATOM     21  O3  UNL     1       6.811  -4.036 -30.948  0.00  0.00    -0.270 OA
ATOM     22  N2  UNL     1       5.175  -3.904 -29.297  0.00  0.00    -0.281 N 
ATOM     23  H12 UNL     1       4.188  -3.721 -29.165  0.00  0.00    +0.155 HD
BRANCH  22  24
ATOM     24  C16 UNL     1       5.953  -3.905 -28.116  0.00  0.00    +0.037 A 
ATOM     25  C17 UNL     1       6.052  -5.108 -27.415  0.00  0.00    +0.043 A 
ATOM     26  C18 UNL     1       6.812  -5.142 -26.257  0.00  0.00    +0.112 A 
ATOM     27  N3  UNL     1       7.470  -4.075 -25.763  0.00  0.00    -0.263 NA
ATOM     28  C19 UNL     1       7.365  -2.926 -26.461  0.00  0.00    +0.112 A 
ATOM     29  C20 UNL     1       6.629  -2.792 -27.628  0.00  0.00    +0.043 A 
ENDBRANCH  22  24
ENDBRANCH   7  20
TORSDOF 5
ENDMDL
MODEL 3
REMARK VINA RESULT:    -6.646     12.349     14.048
REMARK INTER + INTRA:          -9.924
REMARK INTER:                  -8.788
REMARK INTRA:                  -1.137
REMARK UNBOUND:                -1.336
REMARK  Name = /home/vital/Documents/PhD_2021/Malaria_codes/data/pdb_ligands_mmv/ligand_107.pdb
REMARK  6 active torsions:
REMARK  status: ('A' for Active; 'I' for Inactive)
REMARK    1  A    between atoms: C1_1  and  O1_2
REMARK    2  A    between atoms: O1_2  and  C2_3
REMARK    3  A    between atoms: C5_6  and  C8_9
REMARK    4  A    between atoms: N1_11  and  C9_12
REMARK    5  A    between atoms: C14_18  and  C15_19
REMARK    6  A    between atoms: N2_21  and  C16_22
REMARK                            x       y       z     vdW  Elec       q    Type
REMARK                         _______ _______ _______ _____ _____    ______ ____
ROOT
ATOM      1  C9  UNL     1      -0.218   4.812 -18.214  0.00  0.00    +0.046 A 
ATOM      2  C10 UNL     1      -1.400   4.127 -18.523  0.00  0.00    +0.025 A 
ATOM      3  C11 UNL     1      -2.271   4.606 -19.508  0.00  0.00    +0.022 A 
ATOM      4  C12 UNL     1      -1.972   5.779 -20.190  0.00  0.00    +0.042 A 
ATOM      5 CL1  UNL     1      -3.057   6.378 -21.383  0.00  0.00    -0.084 Cl
ATOM      6  C13 UNL     1      -0.799   6.473 -19.915  0.00  0.00    +0.035 A 
ATOM      7  C14 UNL     1       0.096   5.981 -18.948  0.00  0.00    +0.060 A 
ENDROOT
BRANCH   1  10
ATOM      8  C8  UNL     1       0.554   4.554 -15.827  0.00  0.00    +0.248 C 
ATOM      9  O2  UNL     1      -0.359   5.127 -15.241  0.00  0.00    -0.270 OA
ATOM     10  N1  UNL     1       0.665   4.379 -17.192  0.00  0.00    -0.281 N 
ATOM     11  H8  UNL     1       1.537   3.977 -17.541  0.00  0.00    +0.155 HD
BRANCH   8  15
ATOM     12  C2  UNL     1       3.811   2.865 -13.571  0.00  0.00    +0.120 A 
ATOM     13  C3  UNL     1       3.263   4.093 -13.187  0.00  0.00    +0.046 A 
ATOM     14  C4  UNL     1       2.206   4.662 -13.903  0.00  0.00    +0.016 A 
ATOM     15  C5  UNL     1       1.678   3.998 -15.015  0.00  0.00    +0.037 A 
ATOM     16  C6  UNL     1       2.237   2.775 -15.408  0.00  0.00    +0.016 A 
ATOM     17  C7  UNL     1       3.296   2.208 -14.688  0.00  0.00    +0.046 A 
BRANCH  12  19
ATOM     18  C1  UNL     1       5.881   3.354 -12.511  0.00  0.00    +0.277 C 
ATOM     19  O1  UNL     1       4.837   2.426 -12.781  0.00  0.00    -0.495 OA
ENDBRANCH  12  19
ENDBRANCH   8  15
ENDBRANCH   1  10
BRANCH   7  20
ATOM     20  C15 UNL     1       1.381   6.711 -18.703  0.00  0.00    +0.250 C 
ATOM     21  O3  UNL     1       2.291   6.577 -19.516  0.00  0.00    -0.270 OA
ATOM     22  N2  UNL     1       1.395   7.540 -17.595  0.00  0.00    -0.281 N 
ATOM     23  H12 UNL     1       0.517   7.688 -17.112  0.00  0.00    +0.155 HD
BRANCH  22  24
ATOM     24  C16 UNL     1       2.485   8.301 -17.115  0.00  0.00    +0.037 A 
ATOM     25  C17 UNL     1       3.555   7.604 -16.550  0.00  0.00    +0.043 A 
ATOM     26  C18 UNL     1       4.640   8.322 -16.076  0.00  0.00    +0.112 A 
ATOM     27  N3  UNL     1       4.729   9.666 -16.130  0.00  0.00    -0.263 NA
ATOM     28  C19 UNL     1       3.687  10.317 -16.687  0.00  0.00    +0.112 A 
ATOM     29  C20 UNL     1       2.557   9.688 -17.187  0.00  0.00    +0.043 A 
ENDBRANCH  22  24
ENDBRANCH   7  20
TORSDOF 5
ENDMDL
MODEL 4
REMARK VINA RESULT:    -6.379      6.226      9.995
REMARK INTER + INTRA:          -9.580
REMARK INTER:                  -8.414
REMARK INTRA:                  -1.166
REMARK UNBOUND:                -1.336
REMARK  Name = /home/vital/Documents/PhD_2021/Malaria_codes/data/pdb_ligands_mmv/ligand_107.pdb
REMARK  6 active torsions:
REMARK  status: ('A' for Active; 'I' for Inactive)
REMARK    1  A    between atoms: C1_1  and  O1_2
REMARK    2  A    between atoms: O1_2  and  C2_3
REMARK    3  A    between atoms: C5_6  and  C8_9
REMARK    4  A    between atoms: N1_11  and  C9_12
REMARK    5  A    between atoms: C14_18  and  C15_19
REMARK    6  A    between atoms: N2_21  and  C16_22
REMARK                            x       y       z     vdW  Elec       q    Type
REMARK                         _______ _______ _______ _____ _____    ______ ____
ROOT
ATOM      1  C9  UNL     1       3.835  -4.035 -31.711  0.00  0.00    +0.046 A 
ATOM      2  C10 UNL     1       3.223  -5.210 -32.167  0.00  0.00    +0.025 A 
ATOM      3  C11 UNL     1       2.402  -5.200 -33.300  0.00  0.00    +0.022 A 
ATOM      4  C12 UNL     1       2.178  -4.012 -33.985  0.00  0.00    +0.042 A 
ATOM      5 CL1  UNL     1       1.148  -3.998 -35.363  0.00  0.00    -0.084 Cl
ATOM      6  C13 UNL     1       2.783  -2.832 -33.565  0.00  0.00    +0.035 A 
ATOM      7  C14 UNL     1       3.634  -2.841 -32.446  0.00  0.00    +0.060 A 
ENDROOT
BRANCH   1  10
ATOM      8  C8  UNL     1       4.268  -4.252 -29.236  0.00  0.00    +0.248 C 
ATOM      9  O2  UNL     1       3.146  -4.563 -28.847  0.00  0.00    -0.270 OA
ATOM     10  N1  UNL     1       4.638  -4.002 -30.543  0.00  0.00    -0.281 N 
ATOM     11  H8  UNL     1       5.582  -3.646 -30.699  0.00  0.00    +0.155 HD
BRANCH   8  15
ATOM     12  C2  UNL     1       7.394  -3.943 -26.290  0.00  0.00    +0.120 A 
ATOM     13  C3  UNL     1       7.084  -2.840 -27.092  0.00  0.00    +0.046 A 
ATOM     14  C4  UNL     1       6.074  -2.916 -28.056  0.00  0.00    +0.016 A 
ATOM     15  C5  UNL     1       5.354  -4.103 -28.222  0.00  0.00    +0.037 A 
ATOM     16  C6  UNL     1       5.676  -5.213 -27.428  0.00  0.00    +0.016 A 
ATOM     17  C7  UNL     1       6.688  -5.133 -26.465  0.00  0.00    +0.046 A 
BRANCH  12  19
ATOM     18  C1  UNL     1       8.976  -2.427 -25.368  0.00  0.00    +0.277 C 
ATOM     19  O1  UNL     1       8.401  -3.728 -25.390  0.00  0.00    -0.495 OA
ENDBRANCH  12  19
ENDBRANCH   8  15
ENDBRANCH   1  10
BRANCH   7  20
ATOM     20  C15 UNL     1       4.322  -1.574 -32.040  0.00  0.00    +0.250 C 
ATOM     21  O3  UNL     1       3.882  -0.957 -31.075  0.00  0.00    -0.270 OA
ATOM     22  N2  UNL     1       5.455  -1.251 -32.766  0.00  0.00    -0.281 N 
ATOM     23  H12 UNL     1       5.802  -1.941 -33.421  0.00  0.00    +0.155 HD
BRANCH  22  24
ATOM     24  C16 UNL     1       6.258  -0.097 -32.620  0.00  0.00    +0.037 A 
ATOM     25  C17 UNL     1       6.215   0.849 -33.646  0.00  0.00    +0.043 A 
ATOM     26  C18 UNL     1       6.987   1.993 -33.529  0.00  0.00    +0.112 A 
ATOM     27  N3  UNL     1       7.784   2.252 -32.473  0.00  0.00    -0.263 NA
ATOM     28  C19 UNL     1       7.805   1.327 -31.492  0.00  0.00    +0.112 A 
ATOM     29  C20 UNL     1       7.069   0.152 -31.519  0.00  0.00    +0.043 A 
ENDBRANCH  22  24
ENDBRANCH   7  20
TORSDOF 5
ENDMDL
MODEL 5
REMARK VINA RESULT:    -6.244      9.610     12.660
REMARK INTER + INTRA:          -9.405
REMARK INTER:                  -8.194
REMARK INTRA:                  -1.211
REMARK UNBOUND:                -1.336
REMARK  Name = /home/vital/Documents/PhD_2021/Malaria_codes/data/pdb_ligands_mmv/ligand_107.pdb
REMARK  6 active torsions:
REMARK  status: ('A' for Active; 'I' for Inactive)
REMARK    1  A    between atoms: C1_1  and  O1_2
REMARK    2  A    between atoms: O1_2  and  C2_3
REMARK    3  A    between atoms: C5_6  and  C8_9
REMARK    4  A    between atoms: N1_11  and  C9_12
REMARK    5  A    between atoms: C14_18  and  C15_19
REMARK    6  A    between atoms: N2_21  and  C16_22
REMARK                            x       y       z     vdW  Elec       q    Type
REMARK                         _______ _______ _______ _____ _____    ______ ____
ROOT
ATOM      1  C9  UNL     1       1.071   4.113 -15.821  0.00  0.00    +0.046 A 
ATOM      2  C10 UNL     1       1.102   4.846 -14.628  0.00  0.00    +0.025 A 
ATOM      3  C11 UNL     1       1.954   4.477 -13.580  0.00  0.00    +0.022 A 
ATOM      4  C12 UNL     1       2.778   3.367 -13.712  0.00  0.00    +0.042 A 
ATOM      5 CL1  UNL     1       3.805   2.902 -12.414  0.00  0.00    -0.084 Cl
ATOM      6  C13 UNL     1       2.780   2.628 -14.890  0.00  0.00    +0.035 A 
ATOM      7  C14 UNL     1       1.950   3.010 -15.959  0.00  0.00    +0.060 A 
ENDROOT
BRANCH   1  10
ATOM      8  C8  UNL     1       0.203   5.540 -17.710  0.00  0.00    +0.248 C 
ATOM      9  O2  UNL     1       1.006   6.466 -17.668  0.00  0.00    -0.270 OA
ATOM     10  N1  UNL     1       0.190   4.432 -16.885  0.00  0.00    -0.281 N 
ATOM     11  H8  UNL     1      -0.607   3.799 -16.968  0.00  0.00    +0.155 HD
BRANCH   8  15
ATOM     12  C2  UNL     1      -3.021   5.636 -20.564  0.00  0.00    +0.120 A 
ATOM     13  C3  UNL     1      -1.884   6.422 -20.775  0.00  0.00    +0.046 A 
ATOM     14  C4  UNL     1      -0.824   6.409 -19.862  0.00  0.00    +0.016 A 
ATOM     15  C5  UNL     1      -0.891   5.596 -18.726  0.00  0.00    +0.037 A 
ATOM     16  C6  UNL     1      -2.038   4.820 -18.508  0.00  0.00    +0.016 A 
ATOM     17  C7  UNL     1      -3.097   4.837 -19.424  0.00  0.00    +0.046 A 
BRANCH  12  19
ATOM     18  C1  UNL     1      -3.777   6.750 -22.523  0.00  0.00    +0.277 C 
ATOM     19  O1  UNL     1      -3.977   5.746 -21.536  0.00  0.00    -0.495 OA
ENDBRANCH  12  19
ENDBRANCH   8  15
ENDBRANCH   1  10
BRANCH   7  20
ATOM     20  C15 UNL     1       2.004   2.237 -17.240  0.00  0.00    +0.250 C 
ATOM     21  O3  UNL     1       2.261   2.843 -18.276  0.00  0.00    -0.270 OA
ATOM     22  N2  UNL     1       1.823   0.870 -17.120  0.00  0.00    -0.281 N 
ATOM     23  H12 UNL     1       1.793   0.484 -16.184  0.00  0.00    +0.155 HD
BRANCH  22  24
ATOM     24  C16 UNL     1       1.783  -0.078 -18.168  0.00  0.00    +0.037 A 
ATOM     25  C17 UNL     1       2.849  -0.974 -18.263  0.00  0.00    +0.043 A 
ATOM     26  C18 UNL     1       2.835  -1.918 -19.277  0.00  0.00    +0.112 A 
ATOM     27  N3  UNL     1       1.844  -2.029 -20.183  0.00  0.00    -0.263 NA
ATOM     28  C19 UNL     1       0.821  -1.157 -20.066  0.00  0.00    +0.112 A 
ATOM     29  C20 UNL     1       0.745  -0.177 -19.089  0.00  0.00    +0.043 A 
ENDBRANCH  22  24
ENDBRANCH   7  20
TORSDOF 5
ENDMDL
MODEL 6
REMARK VINA RESULT:    -6.215      8.758     12.014
REMARK INTER + INTRA:          -9.368
REMARK INTER:                  -8.113
REMARK INTRA:                  -1.255
REMARK UNBOUND:                -1.336
REMARK  Name = /home/vital/Documents/PhD_2021/Malaria_codes/data/pdb_ligands_mmv/ligand_107.pdb
REMARK  6 active torsions:
REMARK  status: ('A' for Active; 'I' for Inactive)
REMARK    1  A    between atoms: C1_1  and  O1_2
REMARK    2  A    between atoms: O1_2  and  C2_3
REMARK    3  A    between atoms: C5_6  and  C8_9
REMARK    4  A    between atoms: N1_11  and  C9_12
REMARK    5  A    between atoms: C14_18  and  C15_19
REMARK    6  A    between atoms: N2_21  and  C16_22
REMARK                            x       y       z     vdW  Elec       q    Type
REMARK                         _______ _______ _______ _____ _____    ______ ____
ROOT
ATOM      1  C9  UNL     1       3.526  -3.729 -31.607  0.00  0.00    +0.046 A 
ATOM      2  C10 UNL     1       4.543  -3.613 -30.650  0.00  0.00    +0.025 A 
ATOM      3  C11 UNL     1       5.339  -2.464 -30.584  0.00  0.00    +0.022 A 
ATOM      4  C12 UNL     1       5.131  -1.422 -31.479  0.00  0.00    +0.042 A 
ATOM      5 CL1  UNL     1       6.127  -0.021 -31.410  0.00  0.00    -0.084 Cl
ATOM      6  C13 UNL     1       4.119  -1.502 -32.430  0.00  0.00    +0.035 A 
ATOM      7  C14 UNL     1       3.295  -2.640 -32.482  0.00  0.00    +0.060 A 
ENDROOT
BRANCH   1  10
ATOM      8  C8  UNL     1       3.011  -6.062 -32.414  0.00  0.00    +0.248 C 
ATOM      9  O2  UNL     1       4.033  -6.302 -33.049  0.00  0.00    -0.270 OA
ATOM     10  N1  UNL     1       2.730  -4.896 -31.730  0.00  0.00    -0.281 N 
ATOM     11  H8  UNL     1       1.791  -4.800 -31.339  0.00  0.00    +0.155 HD
BRANCH   8  15
ATOM     12  C2  UNL     1      -0.017  -9.125 -32.387  0.00  0.00    +0.120 A 
ATOM     13  C3  UNL     1       0.001  -8.158 -31.378  0.00  0.00    +0.046 A 
ATOM     14  C4  UNL     1       0.974  -7.153 -31.364  0.00  0.00    +0.016 A 
ATOM     15  C5  UNL     1       1.941  -7.104 -32.373  0.00  0.00    +0.037 A 
ATOM     16  C6  UNL     1       1.931  -8.083 -33.376  0.00  0.00    +0.016 A 
ATOM     17  C7  UNL     1       0.956  -9.087 -33.386  0.00  0.00    +0.046 A 
BRANCH  12  19
ATOM     18  C1  UNL     1      -2.328  -9.616 -32.651  0.00  0.00    +0.277 C 
ATOM     19  O1  UNL     1      -1.023 -10.045 -32.278  0.00  0.00    -0.495 OA
ENDBRANCH  12  19
ENDBRANCH   8  15
ENDBRANCH   1  10
BRANCH   7  20
ATOM     20  C15 UNL     1       2.176  -2.687 -33.476  0.00  0.00    +0.250 C 
ATOM     21  O3  UNL     1       2.274  -3.455 -34.428  0.00  0.00    -0.270 OA
ATOM     22  N2  UNL     1       1.081  -1.893 -33.180  0.00  0.00    -0.281 N 
ATOM     23  H12 UNL     1       1.062  -1.445 -32.272  0.00  0.00    +0.155 HD
BRANCH  22  24
ATOM     24  C16 UNL     1      -0.081  -1.719 -33.965  0.00  0.00    +0.037 A 
ATOM     25  C17 UNL     1      -0.036  -0.753 -34.972  0.00  0.00    +0.043 A 
ATOM     26  C18 UNL     1      -1.159  -0.564 -35.762  0.00  0.00    +0.112 A 
ATOM     27  N3  UNL     1      -2.301  -1.264 -35.618  0.00  0.00    -0.263 NA
ATOM     28  C19 UNL     1      -2.318  -2.196 -34.643  0.00  0.00    +0.112 A 
ATOM     29  C20 UNL     1      -1.248  -2.458 -33.802  0.00  0.00    +0.043 A 
ENDBRANCH  22  24
ENDBRANCH   7  20
TORSDOF 5
ENDMDL
MODEL 7
REMARK VINA RESULT:    -6.200      8.269     11.456
REMARK INTER + INTRA:          -9.349
REMARK INTER:                  -8.134
REMARK INTRA:                  -1.215
REMARK UNBOUND:                -1.336
REMARK  Name = /home/vital/Documents/PhD_2021/Malaria_codes/data/pdb_ligands_mmv/ligand_107.pdb
REMARK  6 active torsions:
REMARK  status: ('A' for Active; 'I' for Inactive)
REMARK    1  A    between atoms: C1_1  and  O1_2
REMARK    2  A    between atoms: O1_2  and  C2_3
REMARK    3  A    between atoms: C5_6  and  C8_9
REMARK    4  A    between atoms: N1_11  and  C9_12
REMARK    5  A    between atoms: C14_18  and  C15_19
REMARK    6  A    between atoms: N2_21  and  C16_22
REMARK                            x       y       z     vdW  Elec       q    Type
REMARK                         _______ _______ _______ _____ _____    ______ ____
ROOT
ATOM      1  C9  UNL     1       1.694  -6.985 -32.134  0.00  0.00    +0.046 A 
ATOM      2  C10 UNL     1       1.674  -7.814 -33.263  0.00  0.00    +0.025 A 
ATOM      3  C11 UNL     1       0.816  -8.918 -33.328  0.00  0.00    +0.022 A 
ATOM      4  C12 UNL     1      -0.027  -9.208 -32.263  0.00  0.00    +0.042 A 
ATOM      5 CL1  UNL     1      -1.063 -10.579 -32.336  0.00  0.00    -0.084 Cl
ATOM      6  C13 UNL     1      -0.040  -8.394 -31.135  0.00  0.00    +0.035 A 
ATOM      7  C14 UNL     1       0.797  -7.266 -31.075  0.00  0.00    +0.060 A 
ENDROOT
BRANCH   1  10
ATOM      8  C8  UNL     1       2.640  -4.741 -32.789  0.00  0.00    +0.248 C 
ATOM      9  O2  UNL     1       1.910  -4.466 -33.735  0.00  0.00    -0.270 OA
ATOM     10  N1  UNL     1       2.581  -5.885 -32.017  0.00  0.00    -0.281 N 
ATOM     11  H8  UNL     1       3.326  -6.025 -31.333  0.00  0.00    +0.155 HD
BRANCH   8  15
ATOM     12  C2  UNL     1       5.823  -2.052 -31.699  0.00  0.00    +0.120 A 
ATOM     13  C3  UNL     1       4.703  -1.563 -32.380  0.00  0.00    +0.046 A 
ATOM     14  C4  UNL     1       3.657  -2.416 -32.746  0.00  0.00    +0.016 A 
ATOM     15  C5  UNL     1       3.720  -3.776 -32.423  0.00  0.00    +0.037 A 
ATOM     16  C6  UNL     1       4.849  -4.267 -31.753  0.00  0.00    +0.016 A 
ATOM     17  C7  UNL     1       5.894  -3.409 -31.390  0.00  0.00    +0.046 A 
BRANCH  12  19
ATOM     18  C1  UNL     1       6.961  -0.072 -32.360  0.00  0.00    +0.277 C 
ATOM     19  O1  UNL     1       6.767  -1.107 -31.404  0.00  0.00    -0.495 OA
ENDBRANCH  12  19
ENDBRANCH   8  15
ENDBRANCH   1  10
BRANCH   7  20
ATOM     20  C15 UNL     1       0.731  -6.369 -29.877  0.00  0.00    +0.250 C 
ATOM     21  O3  UNL     1       0.484  -5.180 -30.053  0.00  0.00    -0.270 OA
ATOM     22  N2  UNL     1       0.890  -6.996 -28.653  0.00  0.00    -0.281 N 
ATOM     23  H12 UNL     1       0.913  -8.008 -28.647  0.00  0.00    +0.155 HD
BRANCH  22  24
ATOM     24  C16 UNL     1       0.916  -6.382 -27.380  0.00  0.00    +0.037 A 
ATOM     25  C17 UNL     1       2.109  -5.775 -26.984  0.00  0.00    +0.043 A 
ATOM     26  C18 UNL     1       2.162  -5.160 -25.744  0.00  0.00    +0.112 A 
ATOM     27  N3  UNL     1       1.123  -5.109 -24.889  0.00  0.00    -0.263 NA
ATOM     28  C19 UNL     1      -0.021  -5.697 -25.295  0.00  0.00    +0.112 A 
ATOM     29  C20 UNL     1      -0.173  -6.337 -26.516  0.00  0.00    +0.043 A 
ENDBRANCH  22  24
ENDBRANCH   7  20
TORSDOF 5
ENDMDL
MODEL 8
REMARK VINA RESULT:    -6.045     12.089     13.620
REMARK INTER + INTRA:          -9.148
REMARK INTER:                  -7.937
REMARK INTRA:                  -1.210
REMARK UNBOUND:                -1.336
REMARK  Name = /home/vital/Documents/PhD_2021/Malaria_codes/data/pdb_ligands_mmv/ligand_107.pdb
REMARK  6 active torsions:
REMARK  status: ('A' for Active; 'I' for Inactive)
REMARK    1  A    between atoms: C1_1  and  O1_2
REMARK    2  A    between atoms: O1_2  and  C2_3
REMARK    3  A    between atoms: C5_6  and  C8_9
REMARK    4  A    between atoms: N1_11  and  C9_12
REMARK    5  A    between atoms: C14_18  and  C15_19
REMARK    6  A    between atoms: N2_21  and  C16_22
REMARK                            x       y       z     vdW  Elec       q    Type
REMARK                         _______ _______ _______ _____ _____    ______ ____
ROOT
ATOM      1  C9  UNL     1      -0.957   4.539 -18.754  0.00  0.00    +0.046 A 
ATOM      2  C10 UNL     1      -0.245   4.539 -17.548  0.00  0.00    +0.025 A 
ATOM      3  C11 UNL     1       0.553   5.630 -17.185  0.00  0.00    +0.022 A 
ATOM      4  C12 UNL     1       0.652   6.730 -18.028  0.00  0.00    +0.042 A 
ATOM      5 CL1  UNL     1       1.653   8.059 -17.590  0.00  0.00    -0.084 Cl
ATOM      6  C13 UNL     1      -0.055   6.765 -19.225  0.00  0.00    +0.035 A 
ATOM      7  C14 UNL     1      -0.882   5.686 -19.582  0.00  0.00    +0.060 A 
ENDROOT
BRANCH   1  10
ATOM      8  C8  UNL     1      -1.325   2.154 -19.484  0.00  0.00    +0.248 C 
ATOM      9  O2  UNL     1      -0.173   1.736 -19.446  0.00  0.00    -0.270 OA
ATOM     10  N1  UNL     1      -1.740   3.433 -19.173  0.00  0.00    -0.281 N 
ATOM     11  H8  UNL     1      -2.718   3.665 -19.358  0.00  0.00    +0.155 HD
BRANCH   8  15
ATOM     12  C2  UNL     1      -4.446  -0.478 -20.858  0.00  0.00    +0.120 A 
ATOM     13  C3  UNL     1      -3.721  -0.802 -19.707  0.00  0.00    +0.046 A 
ATOM     14  C4  UNL     1      -2.703   0.036 -19.241  0.00  0.00    +0.016 A 
ATOM     15  C5  UNL     1      -2.404   1.219 -19.925  0.00  0.00    +0.037 A 
ATOM     16  C6  UNL     1      -3.121   1.535 -21.087  0.00  0.00    +0.016 A 
ATOM     17  C7  UNL     1      -4.140   0.693 -21.550  0.00  0.00    +0.046 A 
BRANCH  12  19
ATOM     18  C1  UNL     1      -6.156  -1.118 -22.380  0.00  0.00    +0.277 C 
ATOM     19  O1  UNL     1      -5.412  -1.384 -21.197  0.00  0.00    -0.495 OA
ENDBRANCH  12  19
ENDBRANCH   8  15
ENDBRANCH   1  10
BRANCH   7  20
ATOM     20  C15 UNL     1      -1.680   5.763 -20.848  0.00  0.00    +0.250 C 
ATOM     21  O3  UNL     1      -1.532   4.877 -21.683  0.00  0.00    -0.270 OA
ATOM     22  N2  UNL     1      -2.578   6.813 -20.924  0.00  0.00    -0.281 N 
ATOM     23  H12 UNL     1      -2.720   7.367 -20.088  0.00  0.00    +0.155 HD
BRANCH  22  24
ATOM     24  C16 UNL     1      -3.414   7.140 -22.016  0.00  0.00    +0.037 A 
ATOM     25  C17 UNL     1      -2.851   7.886 -23.053  0.00  0.00    +0.043 A 
ATOM     26  C18 UNL     1      -3.644   8.217 -24.139  0.00  0.00    +0.112 A 
ATOM     27  N3  UNL     1      -4.937   7.857 -24.259  0.00  0.00    -0.263 NA
ATOM     28  C19 UNL     1      -5.457   7.131 -23.248  0.00  0.00    +0.112 A 
ATOM     29  C20 UNL     1      -4.745   6.752 -22.120  0.00  0.00    +0.043 A 
ENDBRANCH  22  24
ENDBRANCH   7  20
TORSDOF 5
ENDMDL
MODEL 9
REMARK VINA RESULT:    -5.943     11.743     13.927
REMARK INTER + INTRA:          -9.017
REMARK INTER:                  -7.841
REMARK INTRA:                  -1.176
REMARK UNBOUND:                -1.336
REMARK  Name = /home/vital/Documents/PhD_2021/Malaria_codes/data/pdb_ligands_mmv/ligand_107.pdb
REMARK  6 active torsions:
REMARK  status: ('A' for Active; 'I' for Inactive)
REMARK    1  A    between atoms: C1_1  and  O1_2
REMARK    2  A    between atoms: O1_2  and  C2_3
REMARK    3  A    between atoms: C5_6  and  C8_9
REMARK    4  A    between atoms: N1_11  and  C9_12
REMARK    5  A    between atoms: C14_18  and  C15_19
REMARK    6  A    between atoms: N2_21  and  C16_22
REMARK                            x       y       z     vdW  Elec       q    Type
REMARK                         _______ _______ _______ _____ _____    ______ ____
ROOT
ATOM      1  C9  UNL     1      -1.670   5.167 -20.412  0.00  0.00    +0.046 A 
ATOM      2  C10 UNL     1      -1.914   6.495 -20.784  0.00  0.00    +0.025 A 
ATOM      3  C11 UNL     1      -2.598   6.797 -21.967  0.00  0.00    +0.022 A 
ATOM      4  C12 UNL     1      -3.041   5.772 -22.794  0.00  0.00    +0.042 A 
ATOM      5 CL1  UNL     1      -3.861   6.145 -24.259  0.00  0.00    -0.084 Cl
ATOM      6  C13 UNL     1      -2.827   4.443 -22.444  0.00  0.00    +0.035 A 
ATOM      7  C14 UNL     1      -2.167   4.132 -21.242  0.00  0.00    +0.060 A 
ENDROOT
BRANCH   1  10
ATOM      8  C8  UNL     1      -1.281   5.050 -17.923  0.00  0.00    +0.248 C 
ATOM      9  O2  UNL     1      -2.306   5.590 -17.519  0.00  0.00    -0.270 OA
ATOM     10  N1  UNL     1      -0.942   4.828 -19.244  0.00  0.00    -0.281 N 
ATOM     11  H8  UNL     1      -0.006   4.466 -19.429  0.00  0.00    +0.155 HD
BRANCH   8  15
ATOM     12  C2  UNL     1       1.674   3.671 -15.110  0.00  0.00    +0.120 A 
ATOM     13  C3  UNL     1       0.777   4.677 -14.738  0.00  0.00    +0.046 A 
ATOM     14  C4  UNL     1      -0.191   5.143 -15.633  0.00  0.00    +0.016 A 
ATOM     15  C5  UNL     1      -0.276   4.594 -16.917  0.00  0.00    +0.037 A 
ATOM     16  C6  UNL     1       0.633   3.596 -17.294  0.00  0.00    +0.016 A 
ATOM     17  C7  UNL     1       1.601   3.134 -16.394  0.00  0.00    +0.046 A 
BRANCH  12  19
ATOM     18  C1  UNL     1       3.058   4.355 -13.302  0.00  0.00    +0.277 C 
ATOM     19  O1  UNL     1       2.564   3.313 -14.136  0.00  0.00    -0.495 OA
ENDBRANCH  12  19
ENDBRANCH   8  15
ENDBRANCH   1  10
BRANCH   7  20
ATOM     20  C15 UNL     1      -1.993   2.696 -20.853  0.00  0.00    +0.250 C 
ATOM     21  O3  UNL     1      -0.893   2.331 -20.451  0.00  0.00    -0.270 OA
ATOM     22  N2  UNL     1      -3.135   1.918 -20.919  0.00  0.00    -0.281 N 
ATOM     23  H12 UNL     1      -4.012   2.391 -21.101  0.00  0.00    +0.155 HD
BRANCH  22  24
ATOM     24  C16 UNL     1      -3.238   0.534 -20.652  0.00  0.00    +0.037 A 
ATOM     25  C17 UNL     1      -3.363   0.145 -19.317  0.00  0.00    +0.043 A 
ATOM     26  C18 UNL     1      -3.471  -1.204 -19.025  0.00  0.00    +0.112 A 
ATOM     27  N3  UNL     1      -3.466  -2.175 -19.959  0.00  0.00    -0.263 NA
ATOM     28  C19 UNL     1      -3.351  -1.775 -21.242  0.00  0.00    +0.112 A 
ATOM     29  C20 UNL     1      -3.237  -0.450 -21.635  0.00  0.00    +0.043 A 
ENDBRANCH  22  24
ENDBRANCH   7  20
TORSDOF 5
ENDMDL
