MODEL 1
REMARK VINA RESULT:    -4.941      0.000      0.000
REMARK INTER + INTRA:          -9.653
REMARK INTER:                  -6.818
REMARK INTRA:                  -2.835
REMARK UNBOUND:                -2.835
REMARK  Name = /home/vital/Documents/PhD_2021/Malaria_codes/data/pdb_ligands_mmv/ligand_218.pdb
REMARK  9 active torsions:
REMARK  status: ('A' for Active; 'I' for Inactive)
REMARK    1  A    between atoms: C1_1  and  C2_2
REMARK    2  A    between atoms: C2_2  and  C3_3
REMARK    3  A    between atoms: C2_2  and  C4_4
REMARK    4  A    between atoms: C7_7  and  C8_8
REMARK    5  A    between atoms: C8_8  and  N1_9
REMARK    6  A    between atoms: N1_9  and  C9_10
REMARK    7  A    between atoms: C9_10  and  C10_11
REMARK    8  A    between atoms: C10_11  and  O1_12
REMARK    9  A    between atoms: C10_11  and  C11_13
REMARK                            x       y       z     vdW  Elec       q    Type
REMARK                         _______ _______ _______ _____ _____    ______ ____
ROOT
ATOM      1  N1  UNL     1       0.407  -3.132 -20.274  0.00  0.00    -0.309 NA
ATOM      2  H12 UNL     1      -0.239  -3.271 -19.496  0.00  0.00    +0.122 HD
ENDROOT
BRANCH   1   3
ATOM      3  C8  UNL     1      -0.105  -3.865 -21.434  0.00  0.00    +0.116 C 
BRANCH   3   7
ATOM      4  C4  UNL     1      -4.005  -2.544 -22.805  0.00  0.00    -0.045 A 
ATOM      5  C5  UNL     1      -2.852  -2.281 -23.558  0.00  0.00    +0.004 A 
ATOM      6  C6  UNL     1      -1.597  -2.704 -23.114  0.00  0.00    +0.005 A 
ATOM      7  C7  UNL     1      -1.462  -3.398 -21.905  0.00  0.00    -0.034 A 
ATOM      8  C17 UNL     1      -2.612  -3.666 -21.152  0.00  0.00    +0.005 A 
ATOM      9  C18 UNL     1      -3.868  -3.243 -21.596  0.00  0.00    +0.004 A 
BRANCH   4  11
ATOM     10  C1  UNL     1      -5.311  -0.762 -24.019  0.00  0.00    +0.012 C 
ATOM     11  C2  UNL     1      -5.379  -2.091 -23.264  0.00  0.00    +0.013 C 
ATOM     12  C3  UNL     1      -6.361  -2.003 -22.093  0.00  0.00    +0.012 C 
ENDBRANCH   4  11
ENDBRANCH   3   7
ENDBRANCH   1   3
BRANCH   1  13
ATOM     13  C9  UNL     1       0.555  -1.683 -20.500  0.00  0.00    +0.117 C 
BRANCH  13  14
ATOM     14  C10 UNL     1      -0.141  -0.730 -19.491  0.00  0.00    +0.158 C 
BRANCH  14  15
ATOM     15  C11 UNL     1      -1.543  -0.317 -19.899  0.00  0.00    -0.018 A 
ATOM     16  C12 UNL     1      -1.747   0.443 -21.060  0.00  0.00    +0.006 A 
ATOM     17  C13 UNL     1      -3.034   0.826 -21.441  0.00  0.00    +0.000 A 
ATOM     18  C14 UNL     1      -4.131   0.458 -20.665  0.00  0.00    +0.000 A 
ATOM     19  C15 UNL     1      -3.942  -0.290 -19.505  0.00  0.00    +0.000 A 
ATOM     20  C16 UNL     1      -2.657  -0.674 -19.122  0.00  0.00    +0.006 A 
ENDBRANCH  14  15
BRANCH  14  21
ATOM     21  O1  UNL     1      -0.198  -1.364 -18.210  0.00  0.00    -0.386 OA
ATOM     22  H16 UNL     1      -1.006  -1.906 -18.191  0.00  0.00    +0.210 HD
ENDBRANCH  14  21
ENDBRANCH  13  14
ENDBRANCH   1  13
TORSDOF 7
ENDMDL
MODEL 2
REMARK VINA RESULT:    -4.892      8.106     10.145
REMARK INTER + INTRA:          -9.586
REMARK INTER:                  -6.893
REMARK INTRA:                  -2.692
REMARK UNBOUND:                -2.835
REMARK  Name = /home/vital/Documents/PhD_2021/Malaria_codes/data/pdb_ligands_mmv/ligand_218.pdb
REMARK  9 active torsions:
REMARK  status: ('A' for Active; 'I' for Inactive)
REMARK    1  A    between atoms: C1_1  and  C2_2
REMARK    2  A    between atoms: C2_2  and  C3_3
REMARK    3  A    between atoms: C2_2  and  C4_4
REMARK    4  A    between atoms: C7_7  and  C8_8
REMARK    5  A    between atoms: C8_8  and  N1_9
REMARK    6  A    between atoms: N1_9  and  C9_10
REMARK    7  A    between atoms: C9_10  and  C10_11
REMARK    8  A    between atoms: C10_11  and  O1_12
REMARK    9  A    between atoms: C10_11  and  C11_13
REMARK                            x       y       z     vdW  Elec       q    Type
REMARK                         _______ _______ _______ _____ _____    ______ ____
ROOT
ATOM      1  N1  UNL     1       3.723   5.768 -13.948  0.00  0.00    -0.309 NA
ATOM      2  H12 UNL     1       3.123   6.568 -14.152  0.00  0.00    +0.122 HD
ENDROOT
BRANCH   1   3
ATOM      3  C8  UNL     1       2.889   4.565 -13.914  0.00  0.00    +0.116 C 
BRANCH   3   7
ATOM      4  C4  UNL     1      -0.266   4.490 -16.894  0.00  0.00    -0.045 A 
ATOM      5  C5  UNL     1       0.817   3.604 -16.972  0.00  0.00    +0.004 A 
ATOM      6  C6  UNL     1       1.834   3.630 -16.014  0.00  0.00    +0.005 A 
ATOM      7  C7  UNL     1       1.795   4.546 -14.955  0.00  0.00    -0.034 A 
ATOM      8  C17 UNL     1       0.714   5.431 -14.872  0.00  0.00    +0.005 A 
ATOM      9  C18 UNL     1      -0.304   5.405 -15.830  0.00  0.00    +0.004 A 
BRANCH   4  11
ATOM     10  C1  UNL     1      -0.855   4.819 -19.322  0.00  0.00    +0.012 C 
ATOM     11  C2  UNL     1      -1.380   4.484 -17.924  0.00  0.00    +0.013 C 
ATOM     12  C3  UNL     1      -2.517   5.429 -17.527  0.00  0.00    +0.012 C 
ENDBRANCH   4  11
ENDBRANCH   3   7
ENDBRANCH   1   3
BRANCH   1  13
ATOM     13  C9  UNL     1       4.796   5.725 -14.958  0.00  0.00    +0.117 C 
BRANCH  13  14
ATOM     14  C10 UNL     1       4.905   6.928 -15.933  0.00  0.00    +0.158 C 
BRANCH  14  15
ATOM     15  C11 UNL     1       3.668   7.147 -16.784  0.00  0.00    -0.018 A 
ATOM     16  C12 UNL     1       3.432   6.343 -17.908  0.00  0.00    +0.006 A 
ATOM     17  C13 UNL     1       2.296   6.540 -18.695  0.00  0.00    +0.000 A 
ATOM     18  C14 UNL     1       1.386   7.544 -18.371  0.00  0.00    +0.000 A 
ATOM     19  C15 UNL     1       1.613   8.355 -17.262  0.00  0.00    +0.000 A 
ATOM     20  C16 UNL     1       2.748   8.161 -16.474  0.00  0.00    +0.006 A 
ENDBRANCH  14  15
BRANCH  14  21
ATOM     21  O1  UNL     1       5.170   8.117 -15.182  0.00  0.00    -0.386 OA
ATOM     22  H16 UNL     1       4.413   8.716 -15.312  0.00  0.00    +0.210 HD
ENDBRANCH  14  21
ENDBRANCH  13  14
ENDBRANCH   1  13
TORSDOF 7
ENDMDL
MODEL 3
REMARK VINA RESULT:    -4.852      7.588     10.124
REMARK INTER + INTRA:          -9.531
REMARK INTER:                  -7.190
REMARK INTRA:                  -2.341
REMARK UNBOUND:                -2.835
REMARK  Name = /home/vital/Documents/PhD_2021/Malaria_codes/data/pdb_ligands_mmv/ligand_218.pdb
REMARK  9 active torsions:
REMARK  status: ('A' for Active; 'I' for Inactive)
REMARK    1  A    between atoms: C1_1  and  C2_2
REMARK    2  A    between atoms: C2_2  and  C3_3
REMARK    3  A    between atoms: C2_2  and  C4_4
REMARK    4  A    between atoms: C7_7  and  C8_8
REMARK    5  A    between atoms: C8_8  and  N1_9
REMARK    6  A    between atoms: N1_9  and  C9_10
REMARK    7  A    between atoms: C9_10  and  C10_11
REMARK    8  A    between atoms: C10_11  and  O1_12
REMARK    9  A    between atoms: C10_11  and  C11_13
REMARK                            x       y       z     vdW  Elec       q    Type
REMARK                         _______ _______ _______ _____ _____    ______ ____
ROOT
ATOM      1  N1  UNL     1       0.068   5.666 -15.109  0.00  0.00    -0.309 NA
ATOM      2  H12 UNL     1       0.035   5.405 -14.123  0.00  0.00    +0.122 HD
ENDROOT
BRANCH   1   3
ATOM      3  C8  UNL     1       1.458   5.576 -15.562  0.00  0.00    +0.116 C 
BRANCH   3   7
ATOM      4  C4  UNL     1       2.322   7.879 -19.137  0.00  0.00    -0.045 A 
ATOM      5  C5  UNL     1       1.916   8.513 -17.956  0.00  0.00    +0.004 A 
ATOM      6  C6  UNL     1       1.635   7.771 -16.805  0.00  0.00    +0.005 A 
ATOM      7  C7  UNL     1       1.750   6.375 -16.810  0.00  0.00    -0.034 A 
ATOM      8  C17 UNL     1       2.158   5.738 -17.987  0.00  0.00    +0.005 A 
ATOM      9  C18 UNL     1       2.440   6.480 -19.138  0.00  0.00    +0.004 A 
BRANCH   4  11
ATOM     10  C1  UNL     1       2.478   7.794 -21.652  0.00  0.00    +0.012 C 
ATOM     11  C2  UNL     1       2.629   8.662 -20.400  0.00  0.00    +0.013 C 
ATOM     12  C3  UNL     1       4.021   9.298 -20.342  0.00  0.00    +0.012 C 
ENDBRANCH   4  11
ENDBRANCH   3   7
ENDBRANCH   1   3
BRANCH   1  13
ATOM     13  C9  UNL     1      -0.860   4.792 -15.850  0.00  0.00    +0.117 C 
BRANCH  13  14
ATOM     14  C10 UNL     1      -1.835   5.473 -16.849  0.00  0.00    +0.158 C 
BRANCH  14  15
ATOM     15  C11 UNL     1      -1.401   5.374 -18.300  0.00  0.00    -0.018 A 
ATOM     16  C12 UNL     1      -1.340   6.524 -19.099  0.00  0.00    +0.006 A 
ATOM     17  C13 UNL     1      -0.942   6.440 -20.435  0.00  0.00    +0.000 A 
ATOM     18  C14 UNL     1      -0.605   5.206 -20.987  0.00  0.00    +0.000 A 
ATOM     19  C15 UNL     1      -0.670   4.054 -20.206  0.00  0.00    +0.000 A 
ATOM     20  C16 UNL     1      -1.067   4.136 -18.871  0.00  0.00    +0.006 A 
ENDBRANCH  14  15
BRANCH  14  21
ATOM     21  O1  UNL     1      -3.133   4.886 -16.711  0.00  0.00    -0.386 OA
ATOM     22  H16 UNL     1      -3.732   5.363 -17.312  0.00  0.00    +0.210 HD
ENDBRANCH  14  21
ENDBRANCH  13  14
ENDBRANCH   1  13
TORSDOF 7
ENDMDL
MODEL 4
REMARK VINA RESULT:    -4.725      8.674     10.569
REMARK INTER + INTRA:          -9.356
REMARK INTER:                  -6.686
REMARK INTRA:                  -2.670
REMARK UNBOUND:                -2.835
REMARK  Name = /home/vital/Documents/PhD_2021/Malaria_codes/data/pdb_ligands_mmv/ligand_218.pdb
REMARK  9 active torsions:
REMARK  status: ('A' for Active; 'I' for Inactive)
REMARK    1  A    between atoms: C1_1  and  C2_2
REMARK    2  A    between atoms: C2_2  and  C3_3
REMARK    3  A    between atoms: C2_2  and  C4_4
REMARK    4  A    between atoms: C7_7  and  C8_8
REMARK    5  A    between atoms: C8_8  and  N1_9
REMARK    6  A    between atoms: N1_9  and  C9_10
REMARK    7  A    between atoms: C9_10  and  C10_11
REMARK    8  A    between atoms: C10_11  and  O1_12
REMARK    9  A    between atoms: C10_11  and  C11_13
REMARK                            x       y       z     vdW  Elec       q    Type
REMARK                         _______ _______ _______ _____ _____    ______ ____
ROOT
ATOM      1  N1  UNL     1       4.637   5.872 -13.712  0.00  0.00    -0.309 NA
ATOM      2  H12 UNL     1       5.243   6.347 -13.041  0.00  0.00    +0.122 HD
ENDROOT
BRANCH   1   3
ATOM      3  C8  UNL     1       5.293   5.897 -15.021  0.00  0.00    +0.116 C 
BRANCH   3   7
ATOM      4  C4  UNL     1       2.563   6.520 -18.336  0.00  0.00    -0.045 A 
ATOM      5  C5  UNL     1       3.527   5.503 -18.382  0.00  0.00    +0.004 A 
ATOM      6  C6  UNL     1       4.408   5.305 -17.315  0.00  0.00    +0.005 A 
ATOM      7  C7  UNL     1       4.348   6.121 -16.178  0.00  0.00    -0.034 A 
ATOM      8  C17 UNL     1       3.385   7.135 -16.128  0.00  0.00    +0.005 A 
ATOM      9  C18 UNL     1       2.504   7.333 -17.194  0.00  0.00    +0.004 A 
BRANCH   4  11
ATOM     10  C1  UNL     1       2.008   7.971 -20.321  0.00  0.00    +0.012 C 
ATOM     11  C2  UNL     1       1.598   6.758 -19.484  0.00  0.00    +0.013 C 
ATOM     12  C3  UNL     1       0.158   6.900 -18.985  0.00  0.00    +0.012 C 
ENDBRANCH   4  11
ENDBRANCH   3   7
ENDBRANCH   1   3
BRANCH   1  13
ATOM     13  C9  UNL     1       4.362   4.514 -13.207  0.00  0.00    +0.117 C 
BRANCH  13  14
ATOM     14  C10 UNL     1       2.876   4.132 -12.965  0.00  0.00    +0.158 C 
BRANCH  14  15
ATOM     15  C11 UNL     1       2.031   4.111 -14.225  0.00  0.00    -0.018 A 
ATOM     16  C12 UNL     1       2.288   3.171 -15.233  0.00  0.00    +0.006 A 
ATOM     17  C13 UNL     1       1.514   3.148 -16.395  0.00  0.00    +0.000 A 
ATOM     18  C14 UNL     1       0.478   4.064 -16.564  0.00  0.00    +0.000 A 
ATOM     19  C15 UNL     1       0.217   5.008 -15.573  0.00  0.00    +0.000 A 
ATOM     20  C16 UNL     1       0.989   5.034 -14.412  0.00  0.00    +0.006 A 
ENDBRANCH  14  15
BRANCH  14  21
ATOM     21  O1  UNL     1       2.819   2.843 -12.345  0.00  0.00    -0.386 OA
ATOM     22  H16 UNL     1       3.172   2.940 -11.443  0.00  0.00    +0.210 HD
ENDBRANCH  14  21
ENDBRANCH  13  14
ENDBRANCH   1  13
TORSDOF 7
ENDMDL
MODEL 5
REMARK VINA RESULT:    -4.715     12.322     13.896
REMARK INTER + INTRA:          -9.342
REMARK INTER:                  -6.683
REMARK INTRA:                  -2.659
REMARK UNBOUND:                -2.835
REMARK  Name = /home/vital/Documents/PhD_2021/Malaria_codes/data/pdb_ligands_mmv/ligand_218.pdb
REMARK  9 active torsions:
REMARK  status: ('A' for Active; 'I' for Inactive)
REMARK    1  A    between atoms: C1_1  and  C2_2
REMARK    2  A    between atoms: C2_2  and  C3_3
REMARK    3  A    between atoms: C2_2  and  C4_4
REMARK    4  A    between atoms: C7_7  and  C8_8
REMARK    5  A    between atoms: C8_8  and  N1_9
REMARK    6  A    between atoms: N1_9  and  C9_10
REMARK    7  A    between atoms: C9_10  and  C10_11
REMARK    8  A    between atoms: C10_11  and  O1_12
REMARK    9  A    between atoms: C10_11  and  C11_13
REMARK                            x       y       z     vdW  Elec       q    Type
REMARK                         _______ _______ _______ _____ _____    ______ ____
ROOT
ATOM      1  N1  UNL     1      -0.488  -7.770 -32.383  0.00  0.00    -0.309 NA
ATOM      2  H12 UNL     1      -1.060  -8.444 -31.872  0.00  0.00    +0.122 HD
ENDROOT
BRANCH   1   3
ATOM      3  C8  UNL     1       0.910  -8.200 -32.305  0.00  0.00    +0.116 C 
BRANCH   3   7
ATOM      4  C4  UNL     1       3.743  -4.917 -32.127  0.00  0.00    -0.045 A 
ATOM      5  C5  UNL     1       3.851  -5.906 -33.115  0.00  0.00    +0.004 A 
ATOM      6  C6  UNL     1       2.940  -6.965 -33.169  0.00  0.00    +0.005 A 
ATOM      7  C7  UNL     1       1.900  -7.062 -32.236  0.00  0.00    -0.034 A 
ATOM      8  C17 UNL     1       1.787  -6.074 -31.250  0.00  0.00    +0.005 A 
ATOM      9  C18 UNL     1       2.698  -5.016 -31.196  0.00  0.00    +0.004 A 
BRANCH   4  11
ATOM     10  C1  UNL     1       5.755  -3.976 -30.936  0.00  0.00    +0.012 C 
ATOM     11  C2  UNL     1       4.722  -3.761 -32.045  0.00  0.00    +0.013 C 
ATOM     12  C3  UNL     1       3.998  -2.424 -31.863  0.00  0.00    +0.012 C 
ENDBRANCH   4  11
ENDBRANCH   3   7
ENDBRANCH   1   3
BRANCH   1  13
ATOM     13  C9  UNL     1      -1.007  -7.671 -33.759  0.00  0.00    +0.117 C 
BRANCH  13  14
ATOM     14  C10 UNL     1      -1.591  -6.302 -34.204  0.00  0.00    +0.158 C 
BRANCH  14  15
ATOM     15  C11 UNL     1      -0.576  -5.175 -34.221  0.00  0.00    -0.018 A 
ATOM     16  C12 UNL     1       0.434  -5.147 -35.194  0.00  0.00    +0.006 A 
ATOM     17  C13 UNL     1       1.371  -4.112 -35.215  0.00  0.00    +0.000 A 
ATOM     18  C14 UNL     1       1.313  -3.097 -34.262  0.00  0.00    +0.000 A 
ATOM     19  C15 UNL     1       0.320  -3.117 -33.285  0.00  0.00    +0.000 A 
ATOM     20  C16 UNL     1      -0.617  -4.150 -33.262  0.00  0.00    +0.006 A 
ENDBRANCH  14  15
BRANCH  14  21
ATOM     21  O1  UNL     1      -2.158  -6.437 -35.511  0.00  0.00    -0.386 OA
ATOM     22  H16 UNL     1      -2.862  -7.107 -35.453  0.00  0.00    +0.210 HD
ENDBRANCH  14  21
ENDBRANCH  13  14
ENDBRANCH   1  13
TORSDOF 7
ENDMDL
MODEL 6
REMARK VINA RESULT:    -4.649      1.716      2.606
REMARK INTER + INTRA:          -9.251
REMARK INTER:                  -6.571
REMARK INTRA:                  -2.679
REMARK UNBOUND:                -2.835
REMARK  Name = /home/vital/Documents/PhD_2021/Malaria_codes/data/pdb_ligands_mmv/ligand_218.pdb
REMARK  9 active torsions:
REMARK  status: ('A' for Active; 'I' for Inactive)
REMARK    1  A    between atoms: C1_1  and  C2_2
REMARK    2  A    between atoms: C2_2  and  C3_3
REMARK    3  A    between atoms: C2_2  and  C4_4
REMARK    4  A    between atoms: C7_7  and  C8_8
REMARK    5  A    between atoms: C8_8  and  N1_9
REMARK    6  A    between atoms: N1_9  and  C9_10
REMARK    7  A    between atoms: C9_10  and  C10_11
REMARK    8  A    between atoms: C10_11  and  O1_12
REMARK    9  A    between atoms: C10_11  and  C11_13
REMARK                            x       y       z     vdW  Elec       q    Type
REMARK                         _______ _______ _______ _____ _____    ______ ____
ROOT
ATOM      1  N1  UNL     1      -0.834  -1.289 -19.581  0.00  0.00    -0.309 NA
ATOM      2  H12 UNL     1      -1.300  -2.129 -19.235  0.00  0.00    +0.122 HD
ENDROOT
BRANCH   1   3
ATOM      3  C8  UNL     1      -0.386  -1.544 -20.952  0.00  0.00    +0.116 C 
BRANCH   3   7
ATOM      4  C4  UNL     1      -3.247  -3.711 -23.393  0.00  0.00    -0.045 A 
ATOM      5  C5  UNL     1      -2.688  -2.506 -23.841  0.00  0.00    +0.004 A 
ATOM      6  C6  UNL     1      -1.769  -1.808 -23.053  0.00  0.00    +0.005 A 
ATOM      7  C7  UNL     1      -1.389  -2.295 -21.796  0.00  0.00    -0.034 A 
ATOM      8  C17 UNL     1      -1.942  -3.500 -21.347  0.00  0.00    +0.005 A 
ATOM      9  C18 UNL     1      -2.861  -4.198 -22.135  0.00  0.00    +0.004 A 
BRANCH   4  11
ATOM     10  C1  UNL     1      -3.556  -5.335 -25.295  0.00  0.00    +0.012 C 
ATOM     11  C2  UNL     1      -4.250  -4.486 -24.228  0.00  0.00    +0.013 C 
ATOM     12  C3  UNL     1      -5.290  -3.558 -24.860  0.00  0.00    +0.012 C 
ENDBRANCH   4  11
ENDBRANCH   3   7
ENDBRANCH   1   3
BRANCH   1  13
ATOM     13  C9  UNL     1      -1.769  -0.157 -19.459  0.00  0.00    +0.117 C 
BRANCH  13  14
ATOM     14  C10 UNL     1      -3.263  -0.492 -19.200  0.00  0.00    +0.158 C 
BRANCH  14  15
ATOM     15  C11 UNL     1      -4.124  -0.481 -20.449  0.00  0.00    -0.018 A 
ATOM     16  C12 UNL     1      -4.014   0.568 -21.374  0.00  0.00    +0.006 A 
ATOM     17  C13 UNL     1      -4.804   0.583 -22.526  0.00  0.00    +0.000 A 
ATOM     18  C14 UNL     1      -5.712  -0.446 -22.764  0.00  0.00    +0.000 A 
ATOM     19  C15 UNL     1      -5.836  -1.490 -21.850  0.00  0.00    +0.000 A 
ATOM     20  C16 UNL     1      -5.049  -1.507 -20.698  0.00  0.00    +0.006 A 
ENDBRANCH  14  15
BRANCH  14  21
ATOM     21  O1  UNL     1      -3.355  -1.780 -18.583  0.00  0.00    -0.386 OA
ATOM     22  H16 UNL     1      -3.737  -1.650 -17.697  0.00  0.00    +0.210 HD
ENDBRANCH  14  21
ENDBRANCH  13  14
ENDBRANCH   1  13
TORSDOF 7
ENDMDL
MODEL 7
REMARK VINA RESULT:    -4.521      8.056     10.564
REMARK INTER + INTRA:          -9.074
REMARK INTER:                  -6.389
REMARK INTRA:                  -2.685
REMARK UNBOUND:                -2.835
REMARK  Name = /home/vital/Documents/PhD_2021/Malaria_codes/data/pdb_ligands_mmv/ligand_218.pdb
REMARK  9 active torsions:
REMARK  status: ('A' for Active; 'I' for Inactive)
REMARK    1  A    between atoms: C1_1  and  C2_2
REMARK    2  A    between atoms: C2_2  and  C3_3
REMARK    3  A    between atoms: C2_2  and  C4_4
REMARK    4  A    between atoms: C7_7  and  C8_8
REMARK    5  A    between atoms: C8_8  and  N1_9
REMARK    6  A    between atoms: N1_9  and  C9_10
REMARK    7  A    between atoms: C9_10  and  C10_11
REMARK    8  A    between atoms: C10_11  and  O1_12
REMARK    9  A    between atoms: C10_11  and  C11_13
REMARK                            x       y       z     vdW  Elec       q    Type
REMARK                         _______ _______ _______ _____ _____    ______ ____
ROOT
ATOM      1  N1  UNL     1       4.028  -5.335 -25.908  0.00  0.00    -0.309 NA
ATOM      2  H12 UNL     1       4.627  -5.886 -25.292  0.00  0.00    +0.122 HD
ENDROOT
BRANCH   1   3
ATOM      3  C8  UNL     1       3.420  -4.261 -25.119  0.00  0.00    +0.116 C 
BRANCH   3   7
ATOM      4  C4  UNL     1       5.885  -2.924 -21.806  0.00  0.00    -0.045 A 
ATOM      5  C5  UNL     1       5.676  -4.291 -22.040  0.00  0.00    +0.004 A 
ATOM      6  C6  UNL     1       4.880  -4.720 -23.105  0.00  0.00    +0.005 A 
ATOM      7  C7  UNL     1       4.270  -3.794 -23.961  0.00  0.00    -0.034 A 
ATOM      8  C17 UNL     1       4.479  -2.429 -23.732  0.00  0.00    +0.005 A 
ATOM      9  C18 UNL     1       5.275  -1.999 -22.667  0.00  0.00    +0.004 A 
BRANCH   4  11
ATOM     10  C1  UNL     1       5.898  -1.737 -19.583  0.00  0.00    +0.012 C 
ATOM     11  C2  UNL     1       6.741  -2.433 -20.653  0.00  0.00    +0.013 C 
ATOM     12  C3  UNL     1       7.867  -1.518 -21.142  0.00  0.00    +0.012 C 
ENDBRANCH   4  11
ENDBRANCH   3   7
ENDBRANCH   1   3
BRANCH   1  13
ATOM     13  C9  UNL     1       4.842  -4.857 -27.040  0.00  0.00    +0.117 C 
BRANCH  13  14
ATOM     14  C10 UNL     1       6.380  -5.047 -26.941  0.00  0.00    +0.158 C 
BRANCH  14  15
ATOM     15  C11 UNL     1       7.087  -3.955 -26.160  0.00  0.00    -0.018 A 
ATOM     16  C12 UNL     1       7.941  -4.285 -25.098  0.00  0.00    +0.006 A 
ATOM     17  C13 UNL     1       8.595  -3.285 -24.375  0.00  0.00    +0.000 A 
ATOM     18  C14 UNL     1       8.399  -1.945 -24.702  0.00  0.00    +0.000 A 
ATOM     19  C15 UNL     1       7.547  -1.603 -25.749  0.00  0.00    +0.000 A 
ATOM     20  C16 UNL     1       6.893  -2.600 -26.473  0.00  0.00    +0.006 A 
ENDBRANCH  14  15
BRANCH  14  21
ATOM     21  O1  UNL     1       6.659  -6.310 -26.329  0.00  0.00    -0.386 OA
ATOM     22  H16 UNL     1       5.894  -6.888 -26.499  0.00  0.00    +0.210 HD
ENDBRANCH  14  21
ENDBRANCH  13  14
ENDBRANCH   1  13
TORSDOF 7
ENDMDL
MODEL 8
REMARK VINA RESULT:    -4.519      2.943      5.474
REMARK INTER + INTRA:          -9.072
REMARK INTER:                  -6.306
REMARK INTRA:                  -2.765
REMARK UNBOUND:                -2.835
REMARK  Name = /home/vital/Documents/PhD_2021/Malaria_codes/data/pdb_ligands_mmv/ligand_218.pdb
REMARK  9 active torsions:
REMARK  status: ('A' for Active; 'I' for Inactive)
REMARK    1  A    between atoms: C1_1  and  C2_2
REMARK    2  A    between atoms: C2_2  and  C3_3
REMARK    3  A    between atoms: C2_2  and  C4_4
REMARK    4  A    between atoms: C7_7  and  C8_8
REMARK    5  A    between atoms: C8_8  and  N1_9
REMARK    6  A    between atoms: N1_9  and  C9_10
REMARK    7  A    between atoms: C9_10  and  C10_11
REMARK    8  A    between atoms: C10_11  and  O1_12
REMARK    9  A    between atoms: C10_11  and  C11_13
REMARK                            x       y       z     vdW  Elec       q    Type
REMARK                         _______ _______ _______ _____ _____    ______ ____
ROOT
ATOM      1  N1  UNL     1      -5.223  -2.769 -25.535  0.00  0.00    -0.309 NA
ATOM      2  H12 UNL     1      -5.567  -2.807 -26.495  0.00  0.00    +0.122 HD
ENDROOT
BRANCH   1   3
ATOM      3  C8  UNL     1      -6.051  -1.822 -24.786  0.00  0.00    +0.116 C 
BRANCH   3   7
ATOM      4  C4  UNL     1      -4.362  -0.587 -20.984  0.00  0.00    -0.045 A 
ATOM      5  C5  UNL     1      -3.797  -0.159 -22.193  0.00  0.00    +0.004 A 
ATOM      6  C6  UNL     1      -4.340  -0.559 -23.417  0.00  0.00    +0.005 A 
ATOM      7  C7  UNL     1      -5.459  -1.401 -23.462  0.00  0.00    -0.034 A 
ATOM      8  C17 UNL     1      -6.028  -1.827 -22.256  0.00  0.00    +0.005 A 
ATOM      9  C18 UNL     1      -5.485  -1.427 -21.032  0.00  0.00    +0.004 A 
BRANCH   4  11
ATOM     10  C1  UNL     1      -2.508   0.653 -19.809  0.00  0.00    +0.012 C 
ATOM     11  C2  UNL     1      -3.788  -0.169 -19.642  0.00  0.00    +0.013 C 
ATOM     12  C3  UNL     1      -3.546  -1.377 -18.734  0.00  0.00    +0.012 C 
ENDBRANCH   4  11
ENDBRANCH   3   7
ENDBRANCH   1   3
BRANCH   1  13
ATOM     13  C9  UNL     1      -5.232  -4.137 -24.985  0.00  0.00    +0.117 C 
BRANCH  13  14
ATOM     14  C10 UNL     1      -3.858  -4.817 -24.743  0.00  0.00    +0.158 C 
BRANCH  14  15
ATOM     15  C11 UNL     1      -3.038  -4.177 -23.638  0.00  0.00    -0.018 A 
ATOM     16  C12 UNL     1      -3.343  -4.433 -22.293  0.00  0.00    +0.006 A 
ATOM     17  C13 UNL     1      -2.593  -3.847 -21.272  0.00  0.00    +0.000 A 
ATOM     18  C14 UNL     1      -1.535  -2.997 -21.581  0.00  0.00    +0.000 A 
ATOM     19  C15 UNL     1      -1.226  -2.728 -22.913  0.00  0.00    +0.000 A 
ATOM     20  C16 UNL     1      -1.974  -3.312 -23.936  0.00  0.00    +0.006 A 
ENDBRANCH  14  15
BRANCH  14  21
ATOM     21  O1  UNL     1      -4.067  -6.197 -24.427  0.00  0.00    -0.386 OA
ATOM     22  H16 UNL     1      -3.699  -6.350 -23.539  0.00  0.00    +0.210 HD
ENDBRANCH  14  21
ENDBRANCH  13  14
ENDBRANCH   1  13
TORSDOF 7
ENDMDL
MODEL 9
REMARK VINA RESULT:    -4.278     12.201     13.340
REMARK INTER + INTRA:          -8.738
REMARK INTER:                  -6.128
REMARK INTRA:                  -2.610
REMARK UNBOUND:                -2.835
REMARK  Name = /home/vital/Documents/PhD_2021/Malaria_codes/data/pdb_ligands_mmv/ligand_218.pdb
REMARK  9 active torsions:
REMARK  status: ('A' for Active; 'I' for Inactive)
REMARK    1  A    between atoms: C1_1  and  C2_2
REMARK    2  A    between atoms: C2_2  and  C3_3
REMARK    3  A    between atoms: C2_2  and  C4_4
REMARK    4  A    between atoms: C7_7  and  C8_8
REMARK    5  A    between atoms: C8_8  and  N1_9
REMARK    6  A    between atoms: N1_9  and  C9_10
REMARK    7  A    between atoms: C9_10  and  C10_11
REMARK    8  A    between atoms: C10_11  and  O1_12
REMARK    9  A    between atoms: C10_11  and  C11_13
REMARK                            x       y       z     vdW  Elec       q    Type
REMARK                         _______ _______ _______ _____ _____    ______ ____
ROOT
ATOM      1  N1  UNL     1       3.848  -4.058 -33.294  0.00  0.00    -0.309 NA
ATOM      2  H12 UNL     1       4.777  -3.747 -33.580  0.00  0.00    +0.122 HD
ENDROOT
BRANCH   1   3
ATOM      3  C8  UNL     1       4.004  -5.165 -32.348  0.00  0.00    +0.116 C 
BRANCH   3   7
ATOM      4  C4  UNL     1       0.806  -8.096 -32.484  0.00  0.00    -0.045 A 
ATOM      5  C5  UNL     1       1.735  -7.999 -33.529  0.00  0.00    +0.004 A 
ATOM      6  C6  UNL     1       2.763  -7.053 -33.486  0.00  0.00    +0.005 A 
ATOM      7  C7  UNL     1       2.885  -6.178 -32.398  0.00  0.00    -0.034 A 
ATOM      8  C17 UNL     1       1.960  -6.275 -31.352  0.00  0.00    +0.005 A 
ATOM      9  C18 UNL     1       0.932  -7.221 -31.395  0.00  0.00    +0.004 A 
BRANCH   4  11
ATOM     10  C1  UNL     1      -1.140  -9.011 -33.799  0.00  0.00    +0.012 C 
ATOM     11  C2  UNL     1      -0.321  -9.112 -32.510  0.00  0.00    +0.013 C 
ATOM     12  C3  UNL     1      -1.223  -8.982 -31.279  0.00  0.00    +0.012 C 
ENDBRANCH   4  11
ENDBRANCH   3   7
ENDBRANCH   1   3
BRANCH   1  13
ATOM     13  C9  UNL     1       3.121  -2.900 -32.744  0.00  0.00    +0.117 C 
BRANCH  13  14
ATOM     14  C10 UNL     1       1.887  -2.390 -33.537  0.00  0.00    +0.158 C 
BRANCH  14  15
ATOM     15  C11 UNL     1       0.837  -3.454 -33.795  0.00  0.00    -0.018 A 
ATOM     16  C12 UNL     1       0.844  -4.179 -34.995  0.00  0.00    +0.006 A 
ATOM     17  C13 UNL     1      -0.121  -5.159 -35.238  0.00  0.00    +0.000 A 
ATOM     18  C14 UNL     1      -1.104  -5.422 -34.287  0.00  0.00    +0.000 A 
ATOM     19  C15 UNL     1      -1.127  -4.704 -33.094  0.00  0.00    +0.000 A 
ATOM     20  C16 UNL     1      -0.165  -3.724 -32.849  0.00  0.00    +0.006 A 
ENDBRANCH  14  15
BRANCH  14  21
ATOM     21  O1  UNL     1       1.286  -1.305 -32.823  0.00  0.00    -0.386 OA
ATOM     22  H16 UNL     1       1.957  -0.954 -32.212  0.00  0.00    +0.210 HD
ENDBRANCH  14  21
ENDBRANCH  13  14
ENDBRANCH   1  13
TORSDOF 7
ENDMDL
