MODEL 1
REMARK VINA RESULT:    -6.630      0.000      0.000
REMARK INTER + INTRA:          -8.525
REMARK INTER:                  -7.793
REMARK INTRA:                  -0.732
REMARK UNBOUND:                -0.732
REMARK  Name = /home/vital/Documents/PhD_2021/Malaria_codes/data/pdb_ligands_mmv/ligand_274.pdb
REMARK  5 active torsions:
REMARK  status: ('A' for Active; 'I' for Inactive)
REMARK    1  A    between atoms: C1_1  and  C2_2
REMARK    2  A    between atoms: C6_7  and  C7_8
REMARK    3  A    between atoms: C9_10  and  N2_11
REMARK    4  A    between atoms: N2_11  and  C10_12
REMARK    5  A    between atoms: C14_16  and  C16_18
REMARK                            x       y       z     vdW  Elec       q    Type
REMARK                         _______ _______ _______ _____ _____    ______ ____
ROOT
ATOM      1  C1  UNL     1       8.512  -0.323 -20.529  0.00  0.00    +0.044 C 
ATOM      2  C2  UNL     1       7.977  -1.326 -21.507  0.00  0.00    -0.050 A 
ATOM      3  C3  UNL     1       6.846  -2.079 -21.208  0.00  0.00    +0.005 A 
ATOM      4  C4  UNL     1       6.370  -3.022 -22.124  0.00  0.00    +0.028 A 
ATOM      5  C5  UNL     1       7.000  -3.253 -23.339  0.00  0.00    +0.073 A 
ATOM      6  N1  UNL     1       6.469  -4.168 -24.164  0.00  0.00    -0.252 NA
ATOM      7  C6  UNL     1       7.072  -4.402 -25.348  0.00  0.00    +0.041 A 
ATOM      8  C7  UNL     1       6.453  -5.435 -26.242  0.00  0.00    +0.065 C 
ATOM      9  C8  UNL     1       8.224  -3.741 -25.743  0.00  0.00    +0.047 A 
ATOM     10  C9  UNL     1       8.794  -2.791 -24.893  0.00  0.00    +0.042 A 
ATOM     11  C17 UNL     1       8.165  -2.522 -23.650  0.00  0.00    +0.022 A 
ATOM     12  C18 UNL     1       8.635  -1.559 -22.721  0.00  0.00    +0.015 A 
ENDROOT
BRANCH  10  13
ATOM     13  N2  UNL     1       9.989  -2.110 -25.250  0.00  0.00    -0.314 N 
ATOM     14  H10 UNL     1      10.703  -2.769 -25.546  0.00  0.00    +0.152 HD
BRANCH  13  15
ATOM     15  C10 UNL     1      10.170  -0.809 -25.755  0.00  0.00    +0.032 A 
ATOM     16  C11 UNL     1       9.412  -0.315 -26.823  0.00  0.00    +0.023 A 
ATOM     17  C12 UNL     1       9.603   0.982 -27.303  0.00  0.00    +0.002 A 
ATOM     18  C13 UNL     1      10.557   1.810 -26.715  0.00  0.00    +0.012 A 
ATOM     19  C14 UNL     1      11.329   1.346 -25.641  0.00  0.00    +0.057 A 
ATOM     20  C15 UNL     1      11.116   0.039 -25.164  0.00  0.00    +0.035 A 
BRANCH  19  21
ATOM     21  C16 UNL     1      12.342   2.243 -24.977  0.00  0.00    +0.417 C 
ATOM     22  F1  UNL     1      12.903   3.139 -25.837  0.00  0.00    -0.166 F 
ATOM     23  F2  UNL     1      13.378   1.544 -24.439  0.00  0.00    -0.166 F 
ATOM     24  F3  UNL     1      11.819   2.983 -23.960  0.00  0.00    -0.166 F 
ENDBRANCH  19  21
ENDBRANCH  13  15
ENDBRANCH  10  13
TORSDOF 3
ENDMDL
MODEL 2
REMARK VINA RESULT:    -6.487     11.538     13.555
REMARK INTER + INTRA:          -8.357
REMARK INTER:                  -7.583
REMARK INTRA:                  -0.774
REMARK UNBOUND:                -0.732
REMARK  Name = /home/vital/Documents/PhD_2021/Malaria_codes/data/pdb_ligands_mmv/ligand_274.pdb
REMARK  5 active torsions:
REMARK  status: ('A' for Active; 'I' for Inactive)
REMARK    1  A    between atoms: C1_1  and  C2_2
REMARK    2  A    between atoms: C6_7  and  C7_8
REMARK    3  A    between atoms: C9_10  and  N2_11
REMARK    4  A    between atoms: N2_11  and  C10_12
REMARK    5  A    between atoms: C14_16  and  C16_18
REMARK                            x       y       z     vdW  Elec       q    Type
REMARK                         _______ _______ _______ _____ _____    ______ ____
ROOT
ATOM      1  C1  UNL     1       3.608   9.545 -17.735  0.00  0.00    +0.044 C 
ATOM      2  C2  UNL     1       2.739   8.672 -18.590  0.00  0.00    -0.050 A 
ATOM      3  C3  UNL     1       2.781   8.768 -19.977  0.00  0.00    +0.005 A 
ATOM      4  C4  UNL     1       1.953   7.957 -20.760  0.00  0.00    +0.028 A 
ATOM      5  C5  UNL     1       1.062   7.053 -20.198  0.00  0.00    +0.073 A 
ATOM      6  N1  UNL     1       0.313   6.306 -21.025  0.00  0.00    -0.252 NA
ATOM      7  C6  UNL     1      -0.557   5.422 -20.491  0.00  0.00    +0.041 A 
ATOM      8  C7  UNL     1      -1.380   4.609 -21.444  0.00  0.00    +0.065 C 
ATOM      9  C8  UNL     1      -0.713   5.261 -19.123  0.00  0.00    +0.047 A 
ATOM     10  C9  UNL     1       0.053   6.036 -18.250  0.00  0.00    +0.042 A 
ATOM     11  C17 UNL     1       0.983   6.960 -18.794  0.00  0.00    +0.022 A 
ATOM     12  C18 UNL     1       1.834   7.776 -18.007  0.00  0.00    +0.015 A 
ENDROOT
BRANCH  10  13
ATOM     13  N2  UNL     1      -0.096   5.920 -16.842  0.00  0.00    -0.314 N 
ATOM     14  H10 UNL     1      -1.072   6.018 -16.575  0.00  0.00    +0.152 HD
BRANCH  13  15
ATOM     15  C10 UNL     1       0.681   5.211 -15.908  0.00  0.00    +0.032 A 
ATOM     16  C11 UNL     1       0.777   5.606 -14.568  0.00  0.00    +0.023 A 
ATOM     17  C12 UNL     1       1.547   4.883 -13.656  0.00  0.00    +0.002 A 
ATOM     18  C13 UNL     1       2.235   3.744 -14.073  0.00  0.00    +0.012 A 
ATOM     19  C14 UNL     1       2.156   3.321 -15.406  0.00  0.00    +0.057 A 
ATOM     20  C15 UNL     1       1.366   4.056 -16.309  0.00  0.00    +0.035 A 
BRANCH  19  21
ATOM     21  C16 UNL     1       2.871   2.073 -15.861  0.00  0.00    +0.417 C 
ATOM     22  F1  UNL     1       3.665   2.281 -16.948  0.00  0.00    -0.166 F 
ATOM     23  F2  UNL     1       2.007   1.082 -16.213  0.00  0.00    -0.166 F 
ATOM     24  F3  UNL     1       3.683   1.541 -14.905  0.00  0.00    -0.166 F 
ENDBRANCH  19  21
ENDBRANCH  13  15
ENDBRANCH  10  13
TORSDOF 3
ENDMDL
MODEL 3
REMARK VINA RESULT:    -6.428      4.466      6.653
REMARK INTER + INTRA:          -8.287
REMARK INTER:                  -7.550
REMARK INTRA:                  -0.737
REMARK UNBOUND:                -0.732
REMARK  Name = /home/vital/Documents/PhD_2021/Malaria_codes/data/pdb_ligands_mmv/ligand_274.pdb
REMARK  5 active torsions:
REMARK  status: ('A' for Active; 'I' for Inactive)
REMARK    1  A    between atoms: C1_1  and  C2_2
REMARK    2  A    between atoms: C6_7  and  C7_8
REMARK    3  A    between atoms: C9_10  and  N2_11
REMARK    4  A    between atoms: N2_11  and  C10_12
REMARK    5  A    between atoms: C14_16  and  C16_18
REMARK                            x       y       z     vdW  Elec       q    Type
REMARK                         _______ _______ _______ _____ _____    ______ ____
ROOT
ATOM      1  C1  UNL     1       4.344  -4.612 -20.987  0.00  0.00    +0.044 C 
ATOM      2  C2  UNL     1       5.478  -3.902 -21.664  0.00  0.00    -0.050 A 
ATOM      3  C3  UNL     1       6.123  -2.836 -21.043  0.00  0.00    +0.005 A 
ATOM      4  C4  UNL     1       7.167  -2.174 -21.694  0.00  0.00    +0.028 A 
ATOM      5  C5  UNL     1       7.588  -2.533 -22.967  0.00  0.00    +0.073 A 
ATOM      6  N1  UNL     1       8.607  -1.851 -23.513  0.00  0.00    -0.252 NA
ATOM      7  C6  UNL     1       9.025  -2.190 -24.751  0.00  0.00    +0.041 A 
ATOM      8  C7  UNL     1      10.162  -1.403 -25.331  0.00  0.00    +0.065 C 
ATOM      9  C8  UNL     1       8.439  -3.210 -25.484  0.00  0.00    +0.047 A 
ATOM     10  C9  UNL     1       7.373  -3.924 -24.933  0.00  0.00    +0.042 A 
ATOM     11  C17 UNL     1       6.929  -3.591 -23.627  0.00  0.00    +0.022 A 
ATOM     12  C18 UNL     1       5.878  -4.265 -22.956  0.00  0.00    +0.015 A 
ENDROOT
BRANCH  10  13
ATOM     13  N2  UNL     1       6.728  -4.959 -25.663  0.00  0.00    -0.314 N 
ATOM     14  H10 UNL     1       6.705  -5.819 -25.122  0.00  0.00    +0.152 HD
BRANCH  13  15
ATOM     15  C10 UNL     1       5.728  -4.880 -26.649  0.00  0.00    +0.032 A 
ATOM     16  C11 UNL     1       4.411  -5.292 -26.407  0.00  0.00    +0.023 A 
ATOM     17  C12 UNL     1       3.433  -5.196 -27.397  0.00  0.00    +0.002 A 
ATOM     18  C13 UNL     1       3.757  -4.680 -28.651  0.00  0.00    +0.012 A 
ATOM     19  C14 UNL     1       5.064  -4.255 -28.922  0.00  0.00    +0.057 A 
ATOM     20  C15 UNL     1       6.036  -4.350 -27.908  0.00  0.00    +0.035 A 
BRANCH  19  21
ATOM     21  C16 UNL     1       5.418  -3.667 -30.264  0.00  0.00    +0.417 C 
ATOM     22  F1  UNL     1       4.511  -3.968 -31.234  0.00  0.00    -0.166 F 
ATOM     23  F2  UNL     1       6.619  -4.114 -30.724  0.00  0.00    -0.166 F 
ATOM     24  F3  UNL     1       5.505  -2.307 -30.248  0.00  0.00    -0.166 F 
ENDBRANCH  19  21
ENDBRANCH  13  15
ENDBRANCH  10  13
TORSDOF 3
ENDMDL
MODEL 4
REMARK VINA RESULT:    -6.181     11.818     14.240
REMARK INTER + INTRA:          -7.998
REMARK INTER:                  -7.244
REMARK INTRA:                  -0.754
REMARK UNBOUND:                -0.732
REMARK  Name = /home/vital/Documents/PhD_2021/Malaria_codes/data/pdb_ligands_mmv/ligand_274.pdb
REMARK  5 active torsions:
REMARK  status: ('A' for Active; 'I' for Inactive)
REMARK    1  A    between atoms: C1_1  and  C2_2
REMARK    2  A    between atoms: C6_7  and  C7_8
REMARK    3  A    between atoms: C9_10  and  N2_11
REMARK    4  A    between atoms: N2_11  and  C10_12
REMARK    5  A    between atoms: C14_16  and  C16_18
REMARK                            x       y       z     vdW  Elec       q    Type
REMARK                         _______ _______ _______ _____ _____    ______ ____
ROOT
ATOM      1  C1  UNL     1       1.222   5.658 -21.995  0.00  0.00    +0.044 C 
ATOM      2  C2  UNL     1       1.712   6.722 -21.060  0.00  0.00    -0.050 A 
ATOM      3  C3  UNL     1       2.495   7.773 -21.526  0.00  0.00    +0.005 A 
ATOM      4  C4  UNL     1       2.958   8.748 -20.638  0.00  0.00    +0.028 A 
ATOM      5  C5  UNL     1       2.676   8.702 -19.280  0.00  0.00    +0.073 A 
ATOM      6  N1  UNL     1       3.151   9.686 -18.500  0.00  0.00    -0.252 NA
ATOM      7  C6  UNL     1       2.883   9.654 -17.178  0.00  0.00    +0.041 A 
ATOM      8  C7  UNL     1       3.435  10.766 -16.338  0.00  0.00    +0.065 C 
ATOM      9  C8  UNL     1       2.144   8.639 -16.590  0.00  0.00    +0.047 A 
ATOM     10  C9  UNL     1       1.649   7.603 -17.386  0.00  0.00    +0.042 A 
ATOM     11  C17 UNL     1       1.909   7.629 -18.781  0.00  0.00    +0.022 A 
ATOM     12  C18 UNL     1       1.432   6.651 -19.690  0.00  0.00    +0.015 A 
ENDROOT
BRANCH  10  13
ATOM     13  N2  UNL     1       0.909   6.532 -16.818  0.00  0.00    -0.314 N 
ATOM     14  H10 UNL     1      -0.036   6.510 -17.191  0.00  0.00    +0.152 HD
BRANCH  13  15
ATOM     15  C10 UNL     1       1.352   5.293 -16.321  0.00  0.00    +0.032 A 
ATOM     16  C11 UNL     1       1.212   4.105 -17.051  0.00  0.00    +0.023 A 
ATOM     17  C12 UNL     1       1.668   2.888 -16.541  0.00  0.00    +0.002 A 
ATOM     18  C13 UNL     1       2.277   2.841 -15.288  0.00  0.00    +0.012 A 
ATOM     19  C14 UNL     1       2.435   4.012 -14.536  0.00  0.00    +0.057 A 
ATOM     20  C15 UNL     1       1.980   5.232 -15.070  0.00  0.00    +0.035 A 
BRANCH  19  21
ATOM     21  C16 UNL     1       3.121   3.977 -13.193  0.00  0.00    +0.417 C 
ATOM     22  F1  UNL     1       3.174   5.197 -12.591  0.00  0.00    -0.166 F 
ATOM     23  F2  UNL     1       4.410   3.548 -13.282  0.00  0.00    -0.166 F 
ATOM     24  F3  UNL     1       2.510   3.149 -12.300  0.00  0.00    -0.166 F 
ENDBRANCH  19  21
ENDBRANCH  13  15
ENDBRANCH  10  13
TORSDOF 3
ENDMDL
MODEL 5
REMARK VINA RESULT:    -6.163      9.736     12.347
REMARK INTER + INTRA:          -7.976
REMARK INTER:                  -7.231
REMARK INTRA:                  -0.745
REMARK UNBOUND:                -0.732
REMARK  Name = /home/vital/Documents/PhD_2021/Malaria_codes/data/pdb_ligands_mmv/ligand_274.pdb
REMARK  5 active torsions:
REMARK  status: ('A' for Active; 'I' for Inactive)
REMARK    1  A    between atoms: C1_1  and  C2_2
REMARK    2  A    between atoms: C6_7  and  C7_8
REMARK    3  A    between atoms: C9_10  and  N2_11
REMARK    4  A    between atoms: N2_11  and  C10_12
REMARK    5  A    between atoms: C14_16  and  C16_18
REMARK                            x       y       z     vdW  Elec       q    Type
REMARK                         _______ _______ _______ _____ _____    ______ ____
ROOT
ATOM      1  C1  UNL     1      -0.158  -2.255 -36.341  0.00  0.00    +0.044 C 
ATOM      2  C2  UNL     1      -0.267  -3.595 -35.677  0.00  0.00    -0.050 A 
ATOM      3  C3  UNL     1      -1.490  -4.253 -35.600  0.00  0.00    +0.005 A 
ATOM      4  C4  UNL     1      -1.578  -5.495 -34.963  0.00  0.00    +0.028 A 
ATOM      5  C5  UNL     1      -0.476  -6.103 -34.378  0.00  0.00    +0.073 A 
ATOM      6  N1  UNL     1      -0.648  -7.301 -33.797  0.00  0.00    -0.252 NA
ATOM      7  C6  UNL     1       0.416  -7.903 -33.225  0.00  0.00    +0.041 A 
ATOM      8  C7  UNL     1       0.185  -9.238 -32.582  0.00  0.00    +0.065 C 
ATOM      9  C8  UNL     1       1.678  -7.330 -33.206  0.00  0.00    +0.047 A 
ATOM     10  C9  UNL     1       1.872  -6.081 -33.800  0.00  0.00    +0.042 A 
ATOM     11  C17 UNL     1       0.767  -5.439 -34.418  0.00  0.00    +0.022 A 
ATOM     12  C18 UNL     1       0.851  -4.186 -35.077  0.00  0.00    +0.015 A 
ENDROOT
BRANCH  10  13
ATOM     13  N2  UNL     1       3.144  -5.448 -33.779  0.00  0.00    -0.314 N 
ATOM     14  H10 UNL     1       3.562  -5.451 -34.705  0.00  0.00    +0.152 HD
BRANCH  13  15
ATOM     15  C10 UNL     1       3.633  -4.432 -32.937  0.00  0.00    +0.032 A 
ATOM     16  C11 UNL     1       3.974  -3.164 -33.423  0.00  0.00    +0.023 A 
ATOM     17  C12 UNL     1       4.449  -2.169 -32.567  0.00  0.00    +0.002 A 
ATOM     18  C13 UNL     1       4.587  -2.427 -31.205  0.00  0.00    +0.012 A 
ATOM     19  C14 UNL     1       4.250  -3.685 -30.688  0.00  0.00    +0.057 A 
ATOM     20  C15 UNL     1       3.763  -4.673 -31.563  0.00  0.00    +0.035 A 
BRANCH  19  21
ATOM     21  C16 UNL     1       4.366  -3.965 -29.211  0.00  0.00    +0.417 C 
ATOM     22  F1  UNL     1       3.805  -2.993 -28.439  0.00  0.00    -0.166 F 
ATOM     23  F2  UNL     1       5.661  -4.064 -28.804  0.00  0.00    -0.166 F 
ATOM     24  F3  UNL     1       3.765  -5.129 -28.836  0.00  0.00    -0.166 F 
ENDBRANCH  19  21
ENDBRANCH  13  15
ENDBRANCH  10  13
TORSDOF 3
ENDMDL
MODEL 6
REMARK VINA RESULT:    -6.119     10.058     12.483
REMARK INTER + INTRA:          -7.925
REMARK INTER:                  -7.329
REMARK INTRA:                  -0.595
REMARK UNBOUND:                -0.732
REMARK  Name = /home/vital/Documents/PhD_2021/Malaria_codes/data/pdb_ligands_mmv/ligand_274.pdb
REMARK  5 active torsions:
REMARK  status: ('A' for Active; 'I' for Inactive)
REMARK    1  A    between atoms: C1_1  and  C2_2
REMARK    2  A    between atoms: C6_7  and  C7_8
REMARK    3  A    between atoms: C9_10  and  N2_11
REMARK    4  A    between atoms: N2_11  and  C10_12
REMARK    5  A    between atoms: C14_16  and  C16_18
REMARK                            x       y       z     vdW  Elec       q    Type
REMARK                         _______ _______ _______ _____ _____    ______ ____
ROOT
ATOM      1  C1  UNL     1       0.930  -6.107 -28.614  0.00  0.00    +0.044 C 
ATOM      2  C2  UNL     1       0.089  -6.765 -29.667  0.00  0.00    -0.050 A 
ATOM      3  C3  UNL     1      -1.172  -7.268 -29.358  0.00  0.00    +0.005 A 
ATOM      4  C4  UNL     1      -1.937  -7.893 -30.347  0.00  0.00    +0.028 A 
ATOM      5  C5  UNL     1      -1.476  -8.049 -31.647  0.00  0.00    +0.073 A 
ATOM      6  N1  UNL     1      -2.282  -8.651 -32.536  0.00  0.00    -0.252 NA
ATOM      7  C6  UNL     1      -1.846  -8.808 -33.804  0.00  0.00    +0.041 A 
ATOM      8  C7  UNL     1      -2.770  -9.489 -34.768  0.00  0.00    +0.065 C 
ATOM      9  C8  UNL     1      -0.596  -8.381 -34.222  0.00  0.00    +0.047 A 
ATOM     10  C9  UNL     1       0.258  -7.760 -33.307  0.00  0.00    +0.042 A 
ATOM     11  C17 UNL     1      -0.190  -7.573 -31.974  0.00  0.00    +0.022 A 
ATOM     12  C18 UNL     1       0.576  -6.929 -30.969  0.00  0.00    +0.015 A 
ENDROOT
BRANCH  10  13
ATOM     13  N2  UNL     1       1.557  -7.331 -33.691  0.00  0.00    -0.314 N 
ATOM     14  H10 UNL     1       1.939  -7.939 -34.409  0.00  0.00    +0.152 HD
BRANCH  13  15
ATOM     15  C10 UNL     1       2.123  -6.043 -33.676  0.00  0.00    +0.032 A 
ATOM     16  C11 UNL     1       1.510  -4.954 -34.310  0.00  0.00    +0.023 A 
ATOM     17  C12 UNL     1       2.086  -3.683 -34.275  0.00  0.00    +0.002 A 
ATOM     18  C13 UNL     1       3.286  -3.479 -33.598  0.00  0.00    +0.012 A 
ATOM     19  C14 UNL     1       3.921  -4.547 -32.950  0.00  0.00    +0.057 A 
ATOM     20  C15 UNL     1       3.322  -5.820 -32.987  0.00  0.00    +0.035 A 
BRANCH  19  21
ATOM     21  C16 UNL     1       5.205  -4.331 -32.189  0.00  0.00    +0.417 C 
ATOM     22  F1  UNL     1       5.747  -3.099 -32.398  0.00  0.00    -0.166 F 
ATOM     23  F2  UNL     1       6.169  -5.227 -32.536  0.00  0.00    -0.166 F 
ATOM     24  F3  UNL     1       5.054  -4.446 -30.839  0.00  0.00    -0.166 F 
ENDBRANCH  19  21
ENDBRANCH  13  15
ENDBRANCH  10  13
TORSDOF 3
ENDMDL
MODEL 7
REMARK VINA RESULT:    -5.986      7.956     10.334
REMARK INTER + INTRA:          -7.768
REMARK INTER:                  -7.146
REMARK INTRA:                  -0.622
REMARK UNBOUND:                -0.732
REMARK  Name = /home/vital/Documents/PhD_2021/Malaria_codes/data/pdb_ligands_mmv/ligand_274.pdb
REMARK  5 active torsions:
REMARK  status: ('A' for Active; 'I' for Inactive)
REMARK    1  A    between atoms: C1_1  and  C2_2
REMARK    2  A    between atoms: C6_7  and  C7_8
REMARK    3  A    between atoms: C9_10  and  N2_11
REMARK    4  A    between atoms: N2_11  and  C10_12
REMARK    5  A    between atoms: C14_16  and  C16_18
REMARK                            x       y       z     vdW  Elec       q    Type
REMARK                         _______ _______ _______ _____ _____    ______ ____
ROOT
ATOM      1  C1  UNL     1      -2.985   1.050 -20.064  0.00  0.00    +0.044 C 
ATOM      2  C2  UNL     1      -2.993  -0.352 -20.597  0.00  0.00    -0.050 A 
ATOM      3  C3  UNL     1      -4.193  -1.022 -20.815  0.00  0.00    +0.005 A 
ATOM      4  C4  UNL     1      -4.183  -2.335 -21.297  0.00  0.00    +0.028 A 
ATOM      5  C5  UNL     1      -3.002  -3.016 -21.557  0.00  0.00    +0.073 A 
ATOM      6  N1  UNL     1      -3.085  -4.270 -22.029  0.00  0.00    -0.252 NA
ATOM      7  C6  UNL     1      -1.944  -4.943 -22.286  0.00  0.00    +0.041 A 
ATOM      8  C7  UNL     1      -2.075  -6.343 -22.807  0.00  0.00    +0.065 C 
ATOM      9  C8  UNL     1      -0.689  -4.394 -22.075  0.00  0.00    +0.047 A 
ATOM     10  C9  UNL     1      -0.585  -3.093 -21.577  0.00  0.00    +0.042 A 
ATOM     11  C17 UNL     1      -1.775  -2.365 -21.315  0.00  0.00    +0.022 A 
ATOM     12  C18 UNL     1      -1.792  -1.030 -20.838  0.00  0.00    +0.015 A 
ENDROOT
BRANCH  10  13
ATOM     13  N2  UNL     1       0.682  -2.504 -21.322  0.00  0.00    -0.314 N 
ATOM     14  H10 UNL     1       0.574  -1.562 -20.958  0.00  0.00    +0.152 HD
BRANCH  13  15
ATOM     15  C10 UNL     1       1.906  -3.109 -20.982  0.00  0.00    +0.032 A 
ATOM     16  C11 UNL     1       2.243  -3.411 -19.657  0.00  0.00    +0.023 A 
ATOM     17  C12 UNL     1       3.460  -4.018 -19.343  0.00  0.00    +0.002 A 
ATOM     18  C13 UNL     1       4.361  -4.339 -20.356  0.00  0.00    +0.012 A 
ATOM     19  C14 UNL     1       4.052  -4.054 -21.692  0.00  0.00    +0.057 A 
ATOM     20  C15 UNL     1       2.816  -3.450 -21.992  0.00  0.00    +0.035 A 
BRANCH  19  21
ATOM     21  C16 UNL     1       5.006  -4.424 -22.799  0.00  0.00    +0.417 C 
ATOM     22  F1  UNL     1       5.634  -5.614 -22.584  0.00  0.00    -0.166 F 
ATOM     23  F2  UNL     1       5.995  -3.503 -22.959  0.00  0.00    -0.166 F 
ATOM     24  F3  UNL     1       4.400  -4.540 -24.014  0.00  0.00    -0.166 F 
ENDBRANCH  19  21
ENDBRANCH  13  15
ENDBRANCH  10  13
TORSDOF 3
ENDMDL
MODEL 8
REMARK VINA RESULT:    -5.812     12.023     13.115
REMARK INTER + INTRA:          -7.564
REMARK INTER:                  -6.860
REMARK INTRA:                  -0.704
REMARK UNBOUND:                -0.732
REMARK  Name = /home/vital/Documents/PhD_2021/Malaria_codes/data/pdb_ligands_mmv/ligand_274.pdb
REMARK  5 active torsions:
REMARK  status: ('A' for Active; 'I' for Inactive)
REMARK    1  A    between atoms: C1_1  and  C2_2
REMARK    2  A    between atoms: C6_7  and  C7_8
REMARK    3  A    between atoms: C9_10  and  N2_11
REMARK    4  A    between atoms: N2_11  and  C10_12
REMARK    5  A    between atoms: C14_16  and  C16_18
REMARK                            x       y       z     vdW  Elec       q    Type
REMARK                         _______ _______ _______ _____ _____    ______ ____
ROOT
ATOM      1  C1  UNL     1      -1.713   5.693 -20.635  0.00  0.00    +0.044 C 
ATOM      2  C2  UNL     1      -1.228   5.480 -19.232  0.00  0.00    -0.050 A 
ATOM      3  C3  UNL     1      -2.093   5.025 -18.242  0.00  0.00    +0.005 A 
ATOM      4  C4  UNL     1      -1.629   4.848 -16.935  0.00  0.00    +0.028 A 
ATOM      5  C5  UNL     1      -0.319   5.128 -16.573  0.00  0.00    +0.073 A 
ATOM      6  N1  UNL     1       0.045   4.918 -15.298  0.00  0.00    -0.252 NA
ATOM      7  C6  UNL     1       1.316   5.186 -14.933  0.00  0.00    +0.041 A 
ATOM      8  C7  UNL     1       1.685   4.944 -13.500  0.00  0.00    +0.065 C 
ATOM      9  C8  UNL     1       2.260   5.677 -15.821  0.00  0.00    +0.047 A 
ATOM     10  C9  UNL     1       1.896   5.908 -17.150  0.00  0.00    +0.042 A 
ATOM     11  C17 UNL     1       0.567   5.618 -17.554  0.00  0.00    +0.022 A 
ATOM     12  C18 UNL     1       0.093   5.784 -18.880  0.00  0.00    +0.015 A 
ENDROOT
BRANCH  10  13
ATOM     13  N2  UNL     1       2.827   6.436 -18.084  0.00  0.00    -0.314 N 
ATOM     14  H10 UNL     1       2.998   5.772 -18.834  0.00  0.00    +0.152 HD
BRANCH  13  15
ATOM     15  C10 UNL     1       3.095   7.772 -18.434  0.00  0.00    +0.032 A 
ATOM     16  C11 UNL     1       2.944   8.824 -17.522  0.00  0.00    +0.023 A 
ATOM     17  C12 UNL     1       3.224  10.141 -17.889  0.00  0.00    +0.002 A 
ATOM     18  C13 UNL     1       3.666  10.427 -19.180  0.00  0.00    +0.012 A 
ATOM     19  C14 UNL     1       3.831   9.396 -20.114  0.00  0.00    +0.057 A 
ATOM     20  C15 UNL     1       3.554   8.073 -19.724  0.00  0.00    +0.035 A 
BRANCH  19  21
ATOM     21  C16 UNL     1       4.338   9.690 -21.503  0.00  0.00    +0.417 C 
ATOM     22  F1  UNL     1       3.724  10.763 -22.077  0.00  0.00    -0.166 F 
ATOM     23  F2  UNL     1       4.142   8.648 -22.356  0.00  0.00    -0.166 F 
ATOM     24  F3  UNL     1       5.672   9.962 -21.541  0.00  0.00    -0.166 F 
ENDBRANCH  19  21
ENDBRANCH  13  15
ENDBRANCH  10  13
TORSDOF 3
ENDMDL
