MODEL 1
REMARK VINA RESULT:    -6.047      0.000      0.000
REMARK INTER + INTRA:          -8.546
REMARK INTER:                  -7.638
REMARK INTRA:                  -0.909
REMARK UNBOUND:                -0.909
REMARK  Name = /home/vital/Documents/PhD_2021/Malaria_codes/data/pdb_ligands_mmv/ligand_127.pdb
REMARK  6 active torsions:
REMARK  status: ('A' for Active; 'I' for Inactive)
REMARK    1  A    between atoms: C1_1  and  C2_2
REMARK    2  A    between atoms: C2_2  and  N1_3
REMARK    3  A    between atoms: C2_2  and  C10_11
REMARK    4  A    between atoms: N1_3  and  C3_4
REMARK    5  A    between atoms: C3_4  and  C4_5
REMARK    6  A    between atoms: C15_17  and  O1_18
REMARK                            x       y       z     vdW  Elec       q    Type
REMARK                         _______ _______ _______ _____ _____    ______ ____
ROOT
ATOM      1  C1  UNL     1       2.603  -4.763 -30.996  0.00  0.00    +0.029 C 
ATOM      2  C2  UNL     1       2.858  -5.569 -32.276  0.00  0.00    +0.085 C 
ENDROOT
BRANCH   2   3
ATOM      3  C10 UNL     1       1.865  -6.679 -32.606  0.00  0.00    +0.012 A 
ATOM      4  C11 UNL     1       0.952  -7.055 -31.597  0.00  0.00    +0.028 A 
ATOM      5  C12 UNL     1       0.014  -8.066 -31.813  0.00  0.00    +0.042 A 
ATOM      6 CL1  UNL     1      -1.086  -8.495 -30.561  0.00  0.00    -0.084 Cl
ATOM      7  C13 UNL     1      -0.035  -8.730 -33.033  0.00  0.00    +0.023 A 
ATOM      8  C14 UNL     1       0.863  -8.384 -34.041  0.00  0.00    +0.047 A 
ATOM      9  C15 UNL     1       1.806  -7.371 -33.823  0.00  0.00    +0.122 A 
BRANCH   9  10
ATOM     10  O1  UNL     1       2.691  -7.079 -34.820  0.00  0.00    -0.506 OA
ATOM     11  H16 UNL     1       3.396  -6.510 -34.472  0.00  0.00    +0.292 HD
ENDBRANCH   9  10
ENDBRANCH   2   3
BRANCH   2  12
ATOM     12  N1  UNL     1       3.170  -4.720 -33.437  0.00  0.00    -0.305 NA
ATOM     13  H5  UNL     1       2.715  -5.105 -34.263  0.00  0.00    +0.123 HD
BRANCH  12  14
ATOM     14  C3  UNL     1       2.759  -3.324 -33.297  0.00  0.00    +0.117 C 
BRANCH  14  15
ATOM     15  C4  UNL     1       1.692  -2.988 -34.317  0.00  0.00    -0.034 A 
ATOM     16  C5  UNL     1       1.404  -3.869 -35.369  0.00  0.00    +0.005 A 
ATOM     17  C6  UNL     1       0.427  -3.548 -36.312  0.00  0.00    +0.000 A 
ATOM     18  C7  UNL     1      -0.265  -2.342 -36.220  0.00  0.00    +0.000 A 
ATOM     19  C8  UNL     1       0.021  -1.453 -35.185  0.00  0.00    +0.000 A 
ATOM     20  C9  UNL     1       0.997  -1.772 -34.241  0.00  0.00    +0.005 A 
ENDBRANCH  14  15
ENDBRANCH  12  14
ENDBRANCH   2  12
TORSDOF 5
ENDMDL
MODEL 2
REMARK VINA RESULT:    -6.028      0.201      1.154
REMARK INTER + INTRA:          -8.523
REMARK INTER:                  -7.650
REMARK INTRA:                  -0.873
REMARK UNBOUND:                -0.909
REMARK  Name = /home/vital/Documents/PhD_2021/Malaria_codes/data/pdb_ligands_mmv/ligand_127.pdb
REMARK  6 active torsions:
REMARK  status: ('A' for Active; 'I' for Inactive)
REMARK    1  A    between atoms: C1_1  and  C2_2
REMARK    2  A    between atoms: C2_2  and  N1_3
REMARK    3  A    between atoms: C2_2  and  C10_11
REMARK    4  A    between atoms: N1_3  and  C3_4
REMARK    5  A    between atoms: C3_4  and  C4_5
REMARK    6  A    between atoms: C15_17  and  O1_18
REMARK                            x       y       z     vdW  Elec       q    Type
REMARK                         _______ _______ _______ _____ _____    ______ ____
ROOT
ATOM      1  C1  UNL     1       2.747  -4.792 -31.141  0.00  0.00    +0.029 C 
ATOM      2  C2  UNL     1       2.964  -5.630 -32.407  0.00  0.00    +0.085 C 
ENDROOT
BRANCH   2   3
ATOM      3  C10 UNL     1       1.977  -6.764 -32.666  0.00  0.00    +0.012 A 
ATOM      4  C11 UNL     1       1.146  -7.160 -31.595  0.00  0.00    +0.028 A 
ATOM      5  C12 UNL     1       0.220  -8.193 -31.744  0.00  0.00    +0.042 A 
ATOM      6 CL1  UNL     1      -0.779  -8.645 -30.419  0.00  0.00    -0.084 Cl
ATOM      7  C13 UNL     1       0.101  -8.861 -32.958  0.00  0.00    +0.023 A 
ATOM      8  C14 UNL     1       0.918  -8.495 -34.026  0.00  0.00    +0.047 A 
ATOM      9  C15 UNL     1       1.849  -7.460 -33.876  0.00  0.00    +0.122 A 
BRANCH   9  10
ATOM     10  O1  UNL     1       2.655  -7.149 -34.932  0.00  0.00    -0.506 OA
ATOM     11  H16 UNL     1       3.369  -6.563 -34.635  0.00  0.00    +0.292 HD
ENDBRANCH   9  10
ENDBRANCH   2   3
BRANCH   2  12
ATOM     12  N1  UNL     1       3.216  -4.810 -33.603  0.00  0.00    -0.305 NA
ATOM     13  H5  UNL     1       2.678  -5.184 -34.382  0.00  0.00    +0.123 HD
BRANCH  12  14
ATOM     14  C3  UNL     1       2.879  -3.396 -33.451  0.00  0.00    +0.117 C 
BRANCH  14  15
ATOM     15  C4  UNL     1       1.719  -3.034 -34.353  0.00  0.00    -0.034 A 
ATOM     16  C5  UNL     1       0.976  -1.866 -34.132  0.00  0.00    +0.005 A 
ATOM     17  C6  UNL     1      -0.100  -1.544 -34.960  0.00  0.00    +0.000 A 
ATOM     18  C7  UNL     1      -0.450  -2.389 -36.012  0.00  0.00    +0.000 A 
ATOM     19  C8  UNL     1       0.274  -3.559 -36.235  0.00  0.00    +0.000 A 
ATOM     20  C9  UNL     1       1.350  -3.882 -35.408  0.00  0.00    +0.005 A 
ENDBRANCH  14  15
ENDBRANCH  12  14
ENDBRANCH   2  12
TORSDOF 5
ENDMDL
MODEL 3
REMARK VINA RESULT:    -6.008     19.834     20.874
REMARK INTER + INTRA:          -8.497
REMARK INTER:                  -7.941
REMARK INTRA:                  -0.557
REMARK UNBOUND:                -0.909
REMARK  Name = /home/vital/Documents/PhD_2021/Malaria_codes/data/pdb_ligands_mmv/ligand_127.pdb
REMARK  6 active torsions:
REMARK  status: ('A' for Active; 'I' for Inactive)
REMARK    1  A    between atoms: C1_1  and  C2_2
REMARK    2  A    between atoms: C2_2  and  N1_3
REMARK    3  A    between atoms: C2_2  and  C10_11
REMARK    4  A    between atoms: N1_3  and  C3_4
REMARK    5  A    between atoms: C3_4  and  C4_5
REMARK    6  A    between atoms: C15_17  and  O1_18
REMARK                            x       y       z     vdW  Elec       q    Type
REMARK                         _______ _______ _______ _____ _____    ______ ____
ROOT
ATOM      1  C1  UNL     1      -0.436   4.639 -16.406  0.00  0.00    +0.029 C 
ATOM      2  C2  UNL     1       0.613   5.234 -15.460  0.00  0.00    +0.085 C 
ENDROOT
BRANCH   2   3
ATOM      3  C10 UNL     1       1.685   4.288 -14.929  0.00  0.00    +0.012 A 
ATOM      4  C11 UNL     1       2.034   3.182 -15.734  0.00  0.00    +0.028 A 
ATOM      5  C12 UNL     1       3.000   2.264 -15.321  0.00  0.00    +0.042 A 
ATOM      6 CL1  UNL     1       3.402   0.931 -16.332  0.00  0.00    -0.084 Cl
ATOM      7  C13 UNL     1       3.639   2.419 -14.096  0.00  0.00    +0.023 A 
ATOM      8  C14 UNL     1       3.304   3.497 -13.278  0.00  0.00    +0.047 A 
ATOM      9  C15 UNL     1       2.333   4.417 -13.692  0.00  0.00    +0.122 A 
BRANCH   9  10
ATOM     10  O1  UNL     1       2.006   5.442 -12.853  0.00  0.00    -0.506 OA
ATOM     11  H16 UNL     1       1.041   5.545 -12.824  0.00  0.00    +0.292 HD
ENDBRANCH   9  10
ENDBRANCH   2   3
BRANCH   2  12
ATOM     12  N1  UNL     1       1.168   6.508 -15.947  0.00  0.00    -0.305 NA
ATOM     13  H5  UNL     1       2.185   6.471 -15.891  0.00  0.00    +0.123 HD
BRANCH  12  14
ATOM     14  C3  UNL     1       0.797   6.848 -17.319  0.00  0.00    +0.117 C 
BRANCH  14  15
ATOM     15  C4  UNL     1       1.701   7.939 -17.850  0.00  0.00    -0.034 A 
ATOM     16  C5  UNL     1       2.198   8.936 -16.998  0.00  0.00    +0.005 A 
ATOM     17  C6  UNL     1       3.021   9.946 -17.497  0.00  0.00    +0.000 A 
ATOM     18  C7  UNL     1       3.350   9.976 -18.851  0.00  0.00    +0.000 A 
ATOM     19  C8  UNL     1       2.853   8.997 -19.709  0.00  0.00    +0.000 A 
ATOM     20  C9  UNL     1       2.030   7.986 -19.213  0.00  0.00    +0.005 A 
ENDBRANCH  14  15
ENDBRANCH  12  14
ENDBRANCH   2  12
TORSDOF 5
ENDMDL
MODEL 4
REMARK VINA RESULT:    -5.872     18.714     20.617
REMARK INTER + INTRA:          -8.325
REMARK INTER:                  -7.564
REMARK INTRA:                  -0.761
REMARK UNBOUND:                -0.909
REMARK  Name = /home/vital/Documents/PhD_2021/Malaria_codes/data/pdb_ligands_mmv/ligand_127.pdb
REMARK  6 active torsions:
REMARK  status: ('A' for Active; 'I' for Inactive)
REMARK    1  A    between atoms: C1_1  and  C2_2
REMARK    2  A    between atoms: C2_2  and  N1_3
REMARK    3  A    between atoms: C2_2  and  C10_11
REMARK    4  A    between atoms: N1_3  and  C3_4
REMARK    5  A    between atoms: C3_4  and  C4_5
REMARK    6  A    between atoms: C15_17  and  O1_18
REMARK                            x       y       z     vdW  Elec       q    Type
REMARK                         _______ _______ _______ _____ _____    ______ ____
ROOT
ATOM      1  C1  UNL     1       0.976   3.690 -18.228  0.00  0.00    +0.029 C 
ATOM      2  C2  UNL     1       0.426   4.388 -16.978  0.00  0.00    +0.085 C 
ENDROOT
BRANCH   2   3
ATOM      3  C10 UNL     1       1.266   4.300 -15.708  0.00  0.00    +0.012 A 
ATOM      4  C11 UNL     1       2.216   3.259 -15.627  0.00  0.00    +0.028 A 
ATOM      5  C12 UNL     1       3.022   3.102 -14.499  0.00  0.00    +0.042 A 
ATOM      6 CL1  UNL     1       4.171   1.824 -14.438  0.00  0.00    -0.084 Cl
ATOM      7  C13 UNL     1       2.900   3.973 -13.422  0.00  0.00    +0.023 A 
ATOM      8  C14 UNL     1       1.962   5.002 -13.474  0.00  0.00    +0.047 A 
ATOM      9  C15 UNL     1       1.152   5.158 -14.605  0.00  0.00    +0.122 A 
BRANCH   9  10
ATOM     10  O1  UNL     1       0.222   6.157 -14.609  0.00  0.00    -0.506 OA
ATOM     11  H16 UNL     1       0.423   6.792 -13.903  0.00  0.00    +0.292 HD
ENDBRANCH   9  10
ENDBRANCH   2   3
BRANCH   2  12
ATOM     12  N1  UNL     1      -0.060   5.751 -17.247  0.00  0.00    -0.305 NA
ATOM     13  H5  UNL     1       0.333   6.387 -16.555  0.00  0.00    +0.123 HD
BRANCH  12  14
ATOM     14  C3  UNL     1       0.267   6.261 -18.577  0.00  0.00    +0.117 C 
BRANCH  14  15
ATOM     15  C4  UNL     1       1.237   7.418 -18.469  0.00  0.00    -0.034 A 
ATOM     16  C5  UNL     1       1.505   8.015 -17.229  0.00  0.00    +0.005 A 
ATOM     17  C6  UNL     1       2.392   9.089 -17.138  0.00  0.00    +0.000 A 
ATOM     18  C7  UNL     1       3.013   9.582 -18.284  0.00  0.00    +0.000 A 
ATOM     19  C8  UNL     1       2.746   9.003 -19.524  0.00  0.00    +0.000 A 
ATOM     20  C9  UNL     1       1.861   7.930 -19.617  0.00  0.00    +0.005 A 
ENDBRANCH  14  15
ENDBRANCH  12  14
ENDBRANCH   2  12
TORSDOF 5
ENDMDL
MODEL 5
REMARK VINA RESULT:    -5.864     19.747     21.348
REMARK INTER + INTRA:          -8.315
REMARK INTER:                  -7.509
REMARK INTRA:                  -0.806
REMARK UNBOUND:                -0.909
REMARK  Name = /home/vital/Documents/PhD_2021/Malaria_codes/data/pdb_ligands_mmv/ligand_127.pdb
REMARK  6 active torsions:
REMARK  status: ('A' for Active; 'I' for Inactive)
REMARK    1  A    between atoms: C1_1  and  C2_2
REMARK    2  A    between atoms: C2_2  and  N1_3
REMARK    3  A    between atoms: C2_2  and  C10_11
REMARK    4  A    between atoms: N1_3  and  C3_4
REMARK    5  A    between atoms: C3_4  and  C4_5
REMARK    6  A    between atoms: C15_17  and  O1_18
REMARK                            x       y       z     vdW  Elec       q    Type
REMARK                         _______ _______ _______ _____ _____    ______ ____
ROOT
ATOM      1  C1  UNL     1       0.721   4.202 -16.917  0.00  0.00    +0.029 C 
ATOM      2  C2  UNL     1       0.866   5.244 -15.802  0.00  0.00    +0.085 C 
ENDROOT
BRANCH   2   3
ATOM      3  C10 UNL     1       2.099   5.138 -14.910  0.00  0.00    +0.012 A 
ATOM      4  C11 UNL     1       3.246   5.866 -15.296  0.00  0.00    +0.028 A 
ATOM      5  C12 UNL     1       4.419   5.820 -14.541  0.00  0.00    +0.042 A 
ATOM      6 CL1  UNL     1       5.795   6.723 -15.042  0.00  0.00    -0.084 Cl
ATOM      7  C13 UNL     1       4.482   5.048 -13.387  0.00  0.00    +0.023 A 
ATOM      8  C14 UNL     1       3.366   4.313 -12.991  0.00  0.00    +0.047 A 
ATOM      9  C15 UNL     1       2.191   4.356 -13.750  0.00  0.00    +0.122 A 
BRANCH   9  10
ATOM     10  O1  UNL     1       1.128   3.599 -13.350  0.00  0.00    -0.506 OA
ATOM     11  H16 UNL     1       0.337   4.158 -13.284  0.00  0.00    +0.292 HD
ENDBRANCH   9  10
ENDBRANCH   2   3
BRANCH   2  12
ATOM     12  N1  UNL     1       0.612   6.618 -16.262  0.00  0.00    -0.305 NA
ATOM     13  H5  UNL     1       1.354   7.227 -15.919  0.00  0.00    +0.123 HD
BRANCH  12  14
ATOM     14  C3  UNL     1       0.533   6.768 -17.714  0.00  0.00    +0.117 C 
BRANCH  14  15
ATOM     15  C4  UNL     1       1.505   7.828 -18.185  0.00  0.00    -0.034 A 
ATOM     16  C5  UNL     1       2.045   8.756 -17.283  0.00  0.00    +0.005 A 
ATOM     17  C6  UNL     1       2.932   9.738 -17.726  0.00  0.00    +0.000 A 
ATOM     18  C7  UNL     1       3.282   9.809 -19.073  0.00  0.00    +0.000 A 
ATOM     19  C8  UNL     1       2.743   8.898 -19.980  0.00  0.00    +0.000 A 
ATOM     20  C9  UNL     1       1.857   7.915 -19.540  0.00  0.00    +0.005 A 
ENDBRANCH  14  15
ENDBRANCH  12  14
ENDBRANCH   2  12
TORSDOF 5
ENDMDL
MODEL 6
REMARK VINA RESULT:    -5.520     13.637     15.434
REMARK INTER + INTRA:          -7.881
REMARK INTER:                  -7.152
REMARK INTRA:                  -0.729
REMARK UNBOUND:                -0.909
REMARK  Name = /home/vital/Documents/PhD_2021/Malaria_codes/data/pdb_ligands_mmv/ligand_127.pdb
REMARK  6 active torsions:
REMARK  status: ('A' for Active; 'I' for Inactive)
REMARK    1  A    between atoms: C1_1  and  C2_2
REMARK    2  A    between atoms: C2_2  and  N1_3
REMARK    3  A    between atoms: C2_2  and  C10_11
REMARK    4  A    between atoms: N1_3  and  C3_4
REMARK    5  A    between atoms: C3_4  and  C4_5
REMARK    6  A    between atoms: C15_17  and  O1_18
REMARK                            x       y       z     vdW  Elec       q    Type
REMARK                         _______ _______ _______ _____ _____    ______ ____
ROOT
ATOM      1  C1  UNL     1      -6.301  -0.917 -25.499  0.00  0.00    +0.029 C 
ATOM      2  C2  UNL     1      -6.360  -0.193 -24.149  0.00  0.00    +0.085 C 
ENDROOT
BRANCH   2   3
ATOM      3  C10 UNL     1      -6.905   1.232 -24.150  0.00  0.00    +0.012 A 
ATOM      4  C11 UNL     1      -5.966   2.287 -24.158  0.00  0.00    +0.028 A 
ATOM      5  C12 UNL     1      -6.378   3.620 -24.152  0.00  0.00    +0.042 A 
ATOM      6 CL1  UNL     1      -5.205   4.879 -24.166  0.00  0.00    -0.084 Cl
ATOM      7  C13 UNL     1      -7.731   3.937 -24.134  0.00  0.00    +0.023 A 
ATOM      8  C14 UNL     1      -8.677   2.914 -24.116  0.00  0.00    +0.047 A 
ATOM      9  C15 UNL     1      -8.264   1.576 -24.118  0.00  0.00    +0.122 A 
BRANCH   9  10
ATOM     10  O1  UNL     1      -9.215   0.599 -24.067  0.00  0.00    -0.506 OA
ATOM     11  H16 UNL     1      -9.349   0.323 -23.146  0.00  0.00    +0.292 HD
ENDBRANCH   9  10
ENDBRANCH   2   3
BRANCH   2  12
ATOM     12  N1  UNL     1      -6.935  -1.022 -23.077  0.00  0.00    -0.305 NA
ATOM     13  H5  UNL     1      -7.883  -1.290 -23.335  0.00  0.00    +0.123 HD
BRANCH  12  14
ATOM     14  C3  UNL     1      -6.180  -2.237 -22.778  0.00  0.00    +0.117 C 
BRANCH  14  15
ATOM     15  C4  UNL     1      -5.197  -1.981 -21.657  0.00  0.00    -0.034 A 
ATOM     16  C5  UNL     1      -5.275  -0.810 -20.889  0.00  0.00    +0.005 A 
ATOM     17  C6  UNL     1      -4.359  -0.573 -19.864  0.00  0.00    +0.000 A 
ATOM     18  C7  UNL     1      -3.350  -1.499 -19.600  0.00  0.00    +0.000 A 
ATOM     19  C8  UNL     1      -3.256  -2.661 -20.364  0.00  0.00    +0.000 A 
ATOM     20  C9  UNL     1      -4.171  -2.900 -21.389  0.00  0.00    +0.005 A 
ENDBRANCH  14  15
ENDBRANCH  12  14
ENDBRANCH   2  12
TORSDOF 5
ENDMDL
MODEL 7
REMARK VINA RESULT:    -5.319     19.646     21.435
REMARK INTER + INTRA:          -7.626
REMARK INTER:                  -6.229
REMARK INTRA:                  -1.397
REMARK UNBOUND:                -0.909
REMARK  Name = /home/vital/Documents/PhD_2021/Malaria_codes/data/pdb_ligands_mmv/ligand_127.pdb
REMARK  6 active torsions:
REMARK  status: ('A' for Active; 'I' for Inactive)
REMARK    1  A    between atoms: C1_1  and  C2_2
REMARK    2  A    between atoms: C2_2  and  N1_3
REMARK    3  A    between atoms: C2_2  and  C10_11
REMARK    4  A    between atoms: N1_3  and  C3_4
REMARK    5  A    between atoms: C3_4  and  C4_5
REMARK    6  A    between atoms: C15_17  and  O1_18
REMARK                            x       y       z     vdW  Elec       q    Type
REMARK                         _______ _______ _______ _____ _____    ______ ____
ROOT
ATOM      1  C1  UNL     1       4.546   1.586 -16.215  0.00  0.00    +0.029 C 
ATOM      2  C2  UNL     1       3.733   1.941 -14.964  0.00  0.00    +0.085 C 
ENDROOT
BRANCH   2   3
ATOM      3  C10 UNL     1       4.136   3.205 -14.210  0.00  0.00    +0.012 A 
ATOM      4  C11 UNL     1       5.115   4.032 -14.803  0.00  0.00    +0.028 A 
ATOM      5  C12 UNL     1       5.546   5.203 -14.178  0.00  0.00    +0.042 A 
ATOM      6 CL1  UNL     1       6.737   6.188 -14.933  0.00  0.00    -0.084 Cl
ATOM      7  C13 UNL     1       5.019   5.577 -12.947  0.00  0.00    +0.023 A 
ATOM      8  C14 UNL     1       4.060   4.771 -12.337  0.00  0.00    +0.047 A 
ATOM      9  C15 UNL     1       3.629   3.595 -12.962  0.00  0.00    +0.122 A 
BRANCH   9  10
ATOM     10  O1  UNL     1       2.712   2.813 -12.322  0.00  0.00    -0.506 OA
ATOM     11  H16 UNL     1       2.864   2.851 -11.364  0.00  0.00    +0.292 HD
ENDBRANCH   9  10
ENDBRANCH   2   3
BRANCH   2  12
ATOM     12  N1  UNL     1       2.280   1.844 -15.176  0.00  0.00    -0.305 NA
ATOM     13  H5  UNL     1       1.799   2.303 -14.404  0.00  0.00    +0.123 HD
BRANCH  12  14
ATOM     14  C3  UNL     1       1.808   2.437 -16.426  0.00  0.00    +0.117 C 
BRANCH  14  15
ATOM     15  C4  UNL     1       1.716   3.942 -16.290  0.00  0.00    -0.034 A 
ATOM     16  C5  UNL     1       2.447   4.784 -17.140  0.00  0.00    +0.005 A 
ATOM     17  C6  UNL     1       2.367   6.170 -17.001  0.00  0.00    +0.000 A 
ATOM     18  C7  UNL     1       1.563   6.729 -16.009  0.00  0.00    +0.000 A 
ATOM     19  C8  UNL     1       0.841   5.902 -15.152  0.00  0.00    +0.000 A 
ATOM     20  C9  UNL     1       0.919   4.516 -15.288  0.00  0.00    +0.005 A 
ENDBRANCH  14  15
ENDBRANCH  12  14
ENDBRANCH   2  12
TORSDOF 5
ENDMDL
MODEL 8
REMARK VINA RESULT:    -5.088      3.383      6.111
REMARK INTER + INTRA:          -7.335
REMARK INTER:                  -6.774
REMARK INTRA:                  -0.562
REMARK UNBOUND:                -0.909
REMARK  Name = /home/vital/Documents/PhD_2021/Malaria_codes/data/pdb_ligands_mmv/ligand_127.pdb
REMARK  6 active torsions:
REMARK  status: ('A' for Active; 'I' for Inactive)
REMARK    1  A    between atoms: C1_1  and  C2_2
REMARK    2  A    between atoms: C2_2  and  N1_3
REMARK    3  A    between atoms: C2_2  and  C10_11
REMARK    4  A    between atoms: N1_3  and  C3_4
REMARK    5  A    between atoms: C3_4  and  C4_5
REMARK    6  A    between atoms: C15_17  and  O1_18
REMARK                            x       y       z     vdW  Elec       q    Type
REMARK                         _______ _______ _______ _____ _____    ______ ____
ROOT
ATOM      1  C1  UNL     1       1.498  -3.833 -30.552  0.00  0.00    +0.029 C 
ATOM      2  C2  UNL     1       1.743  -5.277 -30.097  0.00  0.00    +0.085 C 
ENDROOT
BRANCH   2   3
ATOM      3  C10 UNL     1       1.705  -6.359 -31.171  0.00  0.00    +0.012 A 
ATOM      4  C11 UNL     1       0.697  -7.343 -31.069  0.00  0.00    +0.028 A 
ATOM      5  C12 UNL     1       0.594  -8.372 -32.006  0.00  0.00    +0.042 A 
ATOM      6 CL1  UNL     1      -0.650  -9.550 -31.851  0.00  0.00    -0.084 Cl
ATOM      7  C13 UNL     1       1.493  -8.452 -33.063  0.00  0.00    +0.023 A 
ATOM      8  C14 UNL     1       2.504  -7.499 -33.179  0.00  0.00    +0.047 A 
ATOM      9  C15 UNL     1       2.608  -6.468 -32.238  0.00  0.00    +0.122 A 
BRANCH   9  10
ATOM     10  O1  UNL     1       3.628  -5.571 -32.364  0.00  0.00    -0.506 OA
ATOM     11  H16 UNL     1       4.476  -6.018 -32.210  0.00  0.00    +0.292 HD
ENDBRANCH   9  10
ENDBRANCH   2   3
BRANCH   2  12
ATOM     12  N1  UNL     1       2.900  -5.408 -29.197  0.00  0.00    -0.305 NA
ATOM     13  H5  UNL     1       3.471  -6.195 -29.501  0.00  0.00    +0.123 HD
BRANCH  12  14
ATOM     14  C3  UNL     1       3.753  -4.223 -29.128  0.00  0.00    +0.117 C 
BRANCH  14  15
ATOM     15  C4  UNL     1       4.942  -4.486 -28.230  0.00  0.00    -0.034 A 
ATOM     16  C5  UNL     1       4.898  -5.498 -27.261  0.00  0.00    +0.005 A 
ATOM     17  C6  UNL     1       5.994  -5.728 -26.428  0.00  0.00    +0.000 A 
ATOM     18  C7  UNL     1       7.142  -4.946 -26.550  0.00  0.00    +0.000 A 
ATOM     19  C8  UNL     1       7.193  -3.930 -27.503  0.00  0.00    +0.000 A 
ATOM     20  C9  UNL     1       6.099  -3.698 -28.336  0.00  0.00    +0.005 A 
ENDBRANCH  14  15
ENDBRANCH  12  14
ENDBRANCH   2  12
TORSDOF 5
ENDMDL
MODEL 9
REMARK VINA RESULT:    -5.027      2.004      4.781
REMARK INTER + INTRA:          -7.258
REMARK INTER:                  -5.869
REMARK INTRA:                  -1.389
REMARK UNBOUND:                -0.909
REMARK  Name = /home/vital/Documents/PhD_2021/Malaria_codes/data/pdb_ligands_mmv/ligand_127.pdb
REMARK  6 active torsions:
REMARK  status: ('A' for Active; 'I' for Inactive)
REMARK    1  A    between atoms: C1_1  and  C2_2
REMARK    2  A    between atoms: C2_2  and  N1_3
REMARK    3  A    between atoms: C2_2  and  C10_11
REMARK    4  A    between atoms: N1_3  and  C3_4
REMARK    5  A    between atoms: C3_4  and  C4_5
REMARK    6  A    between atoms: C15_17  and  O1_18
REMARK                            x       y       z     vdW  Elec       q    Type
REMARK                         _______ _______ _______ _____ _____    ______ ____
ROOT
ATOM      1  C1  UNL     1       0.668  -2.243 -34.410  0.00  0.00    +0.029 C 
ATOM      2  C2  UNL     1       1.871  -3.185 -34.288  0.00  0.00    +0.085 C 
ENDROOT
BRANCH   2   3
ATOM      3  C10 UNL     1       2.277  -3.613 -32.881  0.00  0.00    +0.012 A 
ATOM      4  C11 UNL     1       1.382  -3.323 -31.829  0.00  0.00    +0.028 A 
ATOM      5  C12 UNL     1       1.678  -3.674 -30.511  0.00  0.00    +0.042 A 
ATOM      6 CL1  UNL     1       0.561  -3.307 -29.256  0.00  0.00    -0.084 Cl
ATOM      7  C13 UNL     1       2.872  -4.317 -30.207  0.00  0.00    +0.023 A 
ATOM      8  C14 UNL     1       3.777  -4.605 -31.227  0.00  0.00    +0.047 A 
ATOM      9  C15 UNL     1       3.481  -4.251 -32.549  0.00  0.00    +0.122 A 
BRANCH   9  10
ATOM     10  O1  UNL     1       4.403  -4.519 -33.518  0.00  0.00    -0.506 OA
ATOM     11  H16 UNL     1       4.126  -4.110 -34.354  0.00  0.00    +0.292 HD
ENDBRANCH   9  10
ENDBRANCH   2   3
BRANCH   2  12
ATOM     12  N1  UNL     1       1.817  -4.312 -35.233  0.00  0.00    -0.305 NA
ATOM     13  H5  UNL     1       2.623  -4.915 -35.080  0.00  0.00    +0.123 HD
BRANCH  12  14
ATOM     14  C3  UNL     1       0.609  -5.130 -35.135  0.00  0.00    +0.117 C 
BRANCH  14  15
ATOM     15  C4  UNL     1       0.795  -6.216 -34.098  0.00  0.00    -0.034 A 
ATOM     16  C5  UNL     1      -0.121  -6.368 -33.047  0.00  0.00    +0.005 A 
ATOM     17  C6  UNL     1       0.063  -7.365 -32.087  0.00  0.00    +0.000 A 
ATOM     18  C7  UNL     1       1.166  -8.213 -32.163  0.00  0.00    +0.000 A 
ATOM     19  C8  UNL     1       2.089  -8.065 -33.197  0.00  0.00    +0.000 A 
ATOM     20  C9  UNL     1       1.907  -7.070 -34.157  0.00  0.00    +0.005 A 
ENDBRANCH  14  15
ENDBRANCH  12  14
ENDBRANCH   2  12
TORSDOF 5
ENDMDL
