MODEL 1
REMARK VINA RESULT:    -6.085      0.000      0.000
REMARK INTER + INTRA:          -8.519
REMARK INTER:                  -7.686
REMARK INTRA:                  -0.833
REMARK UNBOUND:                -0.833
REMARK  Name = /home/vital/Documents/PhD_2021/Malaria_codes/data/pdb_ligands_mmv/ligand_198.pdb
REMARK  6 active torsions:
REMARK  status: ('A' for Active; 'I' for Inactive)
REMARK    1  A    between atoms: C1_1  and  C2_2
REMARK    2  A    between atoms: C2_2  and  C3_3
REMARK    3  A    between atoms: C3_3  and  O1_4
REMARK    4  A    between atoms: C3_3  and  C4_5
REMARK    5  A    between atoms: C9_11  and  N1_12
REMARK    6  A    between atoms: C10_13  and  C11_15
REMARK                            x       y       z     vdW  Elec       q    Type
REMARK                         _______ _______ _______ _____ _____    ______ ____
ROOT
ATOM      1  C4  UNL     1       4.356  -3.726 -31.439  0.00  0.00    +0.002 A 
ATOM      2  C5  UNL     1       3.428  -4.754 -31.176  0.00  0.00    +0.009 A 
ATOM      3  C6  UNL     1       2.380  -5.021 -32.057  0.00  0.00    +0.016 A 
ATOM      4  C7  UNL     1       2.253  -4.265 -33.215  0.00  0.00    +0.020 A 
ATOM      5 BR1  UNL     1       0.840  -4.634 -34.417  0.00  0.00    -0.050 Br
ATOM      6  C8  UNL     1       3.151  -3.234 -33.495  0.00  0.00    +0.039 A 
ATOM      7  C9  UNL     1       4.196  -2.945 -32.609  0.00  0.00    +0.040 A 
ENDROOT
BRANCH   7   8
ATOM      8  N1  UNL     1       5.097  -1.878 -32.824  0.00  0.00    -0.281 N 
ATOM      9  C10 UNL     1       4.947  -0.544 -32.507  0.00  0.00    +0.248 C 
ATOM     10  O2  UNL     1       3.974  -0.016 -31.983  0.00  0.00    -0.270 OA
ATOM     11  H11 UNL     1       6.016  -2.188 -33.138  0.00  0.00    +0.155 HD
BRANCH   9  12
ATOM     12  C11 UNL     1       6.120   0.318 -32.835  0.00  0.00    +0.038 A 
ATOM     13  C12 UNL     1       6.042   1.346 -33.787  0.00  0.00    +0.013 A 
ATOM     14  C13 UNL     1       7.163   2.135 -34.056  0.00  0.00    +0.002 A 
ATOM     15  C14 UNL     1       8.358   1.905 -33.375  0.00  0.00    +0.020 A 
ATOM     16  C15 UNL     1       8.427   0.893 -32.418  0.00  0.00    +0.042 A 
ATOM     17 CL1  UNL     1       9.903   0.622 -31.573  0.00  0.00    -0.084 Cl
ATOM     18  C16 UNL     1       7.316   0.102 -32.140  0.00  0.00    +0.033 A 
ENDBRANCH   9  12
ENDBRANCH   7   8
BRANCH   1  19
ATOM     19  C3  UNL     1       5.519  -3.567 -30.469  0.00  0.00    +0.146 C 
BRANCH  19  21
ATOM     20  C1  UNL     1       6.514  -4.335 -28.233  0.00  0.00    +0.007 C 
ATOM     21  C2  UNL     1       5.278  -4.251 -29.114  0.00  0.00    +0.033 C 
ENDBRANCH  19  21
BRANCH  19  22
ATOM     22  O1  UNL     1       6.713  -4.134 -31.028  0.00  0.00    -0.387 OA
ATOM     23  H7  UNL     1       7.386  -4.106 -30.323  0.00  0.00    +0.210 HD
ENDBRANCH  19  22
ENDBRANCH   1  19
TORSDOF 5
ENDMDL
MODEL 2
REMARK VINA RESULT:    -5.733      4.252      5.918
REMARK INTER + INTRA:          -8.074
REMARK INTER:                  -7.123
REMARK INTRA:                  -0.950
REMARK UNBOUND:                -0.833
REMARK  Name = /home/vital/Documents/PhD_2021/Malaria_codes/data/pdb_ligands_mmv/ligand_198.pdb
REMARK  6 active torsions:
REMARK  status: ('A' for Active; 'I' for Inactive)
REMARK    1  A    between atoms: C1_1  and  C2_2
REMARK    2  A    between atoms: C2_2  and  C3_3
REMARK    3  A    between atoms: C3_3  and  O1_4
REMARK    4  A    between atoms: C3_3  and  C4_5
REMARK    5  A    between atoms: C9_11  and  N1_12
REMARK    6  A    between atoms: C10_13  and  C11_15
REMARK                            x       y       z     vdW  Elec       q    Type
REMARK                         _______ _______ _______ _____ _____    ______ ____
ROOT
ATOM      1  C4  UNL     1       1.973  -4.819 -33.481  0.00  0.00    +0.002 A 
ATOM      2  C5  UNL     1       1.318  -4.569 -34.704  0.00  0.00    +0.009 A 
ATOM      3  C6  UNL     1       0.745  -3.327 -34.973  0.00  0.00    +0.016 A 
ATOM      4  C7  UNL     1       0.827  -2.317 -34.022  0.00  0.00    +0.020 A 
ATOM      5 BR1  UNL     1       0.061  -0.627 -34.391  0.00  0.00    -0.050 Br
ATOM      6  C8  UNL     1       1.459  -2.541 -32.799  0.00  0.00    +0.039 A 
ATOM      7  C9  UNL     1       2.023  -3.789 -32.510  0.00  0.00    +0.040 A 
ENDROOT
BRANCH   7   8
ATOM      8  N1  UNL     1       2.626  -4.078 -31.266  0.00  0.00    -0.281 N 
ATOM      9  C10 UNL     1       3.941  -3.912 -30.885  0.00  0.00    +0.248 C 
ATOM     10  O2  UNL     1       4.861  -3.490 -31.575  0.00  0.00    -0.270 OA
ATOM     11  H11 UNL     1       1.951  -4.316 -30.540  0.00  0.00    +0.155 HD
BRANCH   9  12
ATOM     12  C11 UNL     1       4.239  -4.279 -29.470  0.00  0.00    +0.038 A 
ATOM     13  C12 UNL     1       3.244  -4.751 -28.600  0.00  0.00    +0.013 A 
ATOM     14  C13 UNL     1       3.569  -5.091 -27.285  0.00  0.00    +0.002 A 
ATOM     15  C14 UNL     1       4.884  -4.967 -26.837  0.00  0.00    +0.020 A 
ATOM     16  C15 UNL     1       5.874  -4.513 -27.708  0.00  0.00    +0.042 A 
ATOM     17 CL1  UNL     1       7.497  -4.373 -27.151  0.00  0.00    -0.084 Cl
ATOM     18  C16 UNL     1       5.562  -4.173 -29.022  0.00  0.00    +0.033 A 
ENDBRANCH   9  12
ENDBRANCH   7   8
BRANCH   1  19
ATOM     19  C3  UNL     1       2.648  -6.174 -33.312  0.00  0.00    +0.146 C 
BRANCH  19  21
ATOM     20  C1  UNL     1       1.284  -8.283 -33.834  0.00  0.00    +0.007 C 
ATOM     21  C2  UNL     1       2.214  -7.204 -34.366  0.00  0.00    +0.033 C 
ENDBRANCH  19  21
BRANCH  19  22
ATOM     22  O1  UNL     1       4.073  -6.035 -33.411  0.00  0.00    -0.387 OA
ATOM     23  H7  UNL     1       4.349  -5.493 -32.650  0.00  0.00    +0.210 HD
ENDBRANCH  19  22
ENDBRANCH   1  19
TORSDOF 5
ENDMDL
MODEL 3
REMARK VINA RESULT:    -5.707      5.168      9.014
REMARK INTER + INTRA:          -8.041
REMARK INTER:                  -7.110
REMARK INTRA:                  -0.932
REMARK UNBOUND:                -0.833
REMARK  Name = /home/vital/Documents/PhD_2021/Malaria_codes/data/pdb_ligands_mmv/ligand_198.pdb
REMARK  6 active torsions:
REMARK  status: ('A' for Active; 'I' for Inactive)
REMARK    1  A    between atoms: C1_1  and  C2_2
REMARK    2  A    between atoms: C2_2  and  C3_3
REMARK    3  A    between atoms: C3_3  and  O1_4
REMARK    4  A    between atoms: C3_3  and  C4_5
REMARK    5  A    between atoms: C9_11  and  N1_12
REMARK    6  A    between atoms: C10_13  and  C11_15
REMARK                            x       y       z     vdW  Elec       q    Type
REMARK                         _______ _______ _______ _____ _____    ______ ____
ROOT
ATOM      1  C4  UNL     1       2.166  -3.739 -33.247  0.00  0.00    +0.002 A 
ATOM      2  C5  UNL     1       2.954  -2.571 -33.320  0.00  0.00    +0.009 A 
ATOM      3  C6  UNL     1       3.960  -2.322 -32.388  0.00  0.00    +0.016 A 
ATOM      4  C7  UNL     1       4.194  -3.242 -31.374  0.00  0.00    +0.020 A 
ATOM      5 BR1  UNL     1       5.568  -2.911 -30.117  0.00  0.00    -0.050 Br
ATOM      6  C8  UNL     1       3.424  -4.400 -31.271  0.00  0.00    +0.039 A 
ATOM      7  C9  UNL     1       2.398  -4.652 -32.190  0.00  0.00    +0.040 A 
ENDROOT
BRANCH   7   8
ATOM      8  N1  UNL     1       1.558  -5.784 -32.094  0.00  0.00    -0.281 N 
ATOM      9  C10 UNL     1       1.695  -7.016 -32.699  0.00  0.00    +0.248 C 
ATOM     10  O2  UNL     1       2.583  -7.364 -33.467  0.00  0.00    -0.270 OA
ATOM     11  H11 UNL     1       0.838  -5.687 -31.379  0.00  0.00    +0.155 HD
BRANCH   9  12
ATOM     12  C11 UNL     1       0.643  -8.013 -32.347  0.00  0.00    +0.038 A 
ATOM     13  C12 UNL     1       0.565  -9.264 -32.979  0.00  0.00    +0.013 A 
ATOM     14  C13 UNL     1      -0.432 -10.171 -32.612  0.00  0.00    +0.002 A 
ATOM     15  C14 UNL     1      -1.346  -9.836 -31.612  0.00  0.00    +0.020 A 
ATOM     16  C15 UNL     1      -1.255  -8.599 -30.974  0.00  0.00    +0.042 A 
ATOM     17 CL1  UNL     1      -2.380  -8.198 -29.735  0.00  0.00    -0.084 Cl
ATOM     18  C16 UNL     1      -0.265  -7.688 -31.331  0.00  0.00    +0.033 A 
ENDBRANCH   9  12
ENDBRANCH   7   8
BRANCH   1  19
ATOM     19  C3  UNL     1       1.153  -3.971 -34.359  0.00  0.00    +0.146 C 
BRANCH  19  21
ATOM     20  C1  UNL     1      -0.111  -2.926 -36.331  0.00  0.00    +0.007 C 
ATOM     21  C2  UNL     1       0.801  -2.694 -35.138  0.00  0.00    +0.033 C 
ENDBRANCH  19  21
BRANCH  19  22
ATOM     22  O1  UNL     1       1.663  -4.922 -35.305  0.00  0.00    -0.387 OA
ATOM     23  H7  UNL     1       1.668  -4.473 -36.170  0.00  0.00    +0.210 HD
ENDBRANCH  19  22
ENDBRANCH   1  19
TORSDOF 5
ENDMDL
MODEL 4
REMARK VINA RESULT:    -5.625      6.894      8.524
REMARK INTER + INTRA:          -7.938
REMARK INTER:                  -7.070
REMARK INTRA:                  -0.868
REMARK UNBOUND:                -0.833
REMARK  Name = /home/vital/Documents/PhD_2021/Malaria_codes/data/pdb_ligands_mmv/ligand_198.pdb
REMARK  6 active torsions:
REMARK  status: ('A' for Active; 'I' for Inactive)
REMARK    1  A    between atoms: C1_1  and  C2_2
REMARK    2  A    between atoms: C2_2  and  C3_3
REMARK    3  A    between atoms: C3_3  and  O1_4
REMARK    4  A    between atoms: C3_3  and  C4_5
REMARK    5  A    between atoms: C9_11  and  N1_12
REMARK    6  A    between atoms: C10_13  and  C11_15
REMARK                            x       y       z     vdW  Elec       q    Type
REMARK                         _______ _______ _______ _____ _____    ______ ____
ROOT
ATOM      1  C4  UNL     1       7.023  -3.904 -24.336  0.00  0.00    +0.002 A 
ATOM      2  C5  UNL     1       6.140  -4.719 -23.599  0.00  0.00    +0.009 A 
ATOM      3  C6  UNL     1       5.725  -4.356 -22.319  0.00  0.00    +0.016 A 
ATOM      4  C7  UNL     1       6.185  -3.170 -21.763  0.00  0.00    +0.020 A 
ATOM      5 BR1  UNL     1       5.612  -2.670 -20.030  0.00  0.00    -0.050 Br
ATOM      6  C8  UNL     1       7.068  -2.350 -22.465  0.00  0.00    +0.039 A 
ATOM      7  C9  UNL     1       7.506  -2.712 -23.744  0.00  0.00    +0.040 A 
ENDROOT
BRANCH   7   8
ATOM      8  N1  UNL     1       8.440  -1.940 -24.471  0.00  0.00    -0.281 N 
ATOM      9  C10 UNL     1       8.296  -0.668 -24.985  0.00  0.00    +0.248 C 
ATOM     10  O2  UNL     1       7.301   0.043 -24.923  0.00  0.00    -0.270 OA
ATOM     11  H11 UNL     1       9.372  -2.353 -24.488  0.00  0.00    +0.155 HD
BRANCH   9  12
ATOM     12  C11 UNL     1       9.505  -0.123 -25.668  0.00  0.00    +0.038 A 
ATOM     13  C12 UNL     1       9.610  -0.078 -27.067  0.00  0.00    +0.013 A 
ATOM     14  C13 UNL     1      10.757   0.449 -27.665  0.00  0.00    +0.002 A 
ATOM     15  C14 UNL     1      11.796   0.936 -26.872  0.00  0.00    +0.020 A 
ATOM     16  C15 UNL     1      11.682   0.905 -25.482  0.00  0.00    +0.042 A 
ATOM     17 CL1  UNL     1      12.964   1.517 -24.511  0.00  0.00    -0.084 Cl
ATOM     18  C16 UNL     1      10.542   0.384 -24.876  0.00  0.00    +0.033 A 
ENDBRANCH   9  12
ENDBRANCH   7   8
BRANCH   1  19
ATOM     19  C3  UNL     1       7.350  -4.334 -25.760  0.00  0.00    +0.146 C 
BRANCH  19  21
ATOM     20  C1  UNL     1       5.503  -5.500 -27.105  0.00  0.00    +0.007 C 
ATOM     21  C2  UNL     1       6.685  -5.659 -26.163  0.00  0.00    +0.033 C 
ENDBRANCH  19  21
BRANCH  19  22
ATOM     22  O1  UNL     1       6.911  -3.335 -26.693  0.00  0.00    -0.387 OA
ATOM     23  H7  UNL     1       5.937  -3.365 -26.690  0.00  0.00    +0.210 HD
ENDBRANCH  19  22
ENDBRANCH   1  19
TORSDOF 5
ENDMDL
MODEL 5
REMARK VINA RESULT:    -5.590     17.439     18.826
REMARK INTER + INTRA:          -7.894
REMARK INTER:                  -7.035
REMARK INTRA:                  -0.859
REMARK UNBOUND:                -0.833
REMARK  Name = /home/vital/Documents/PhD_2021/Malaria_codes/data/pdb_ligands_mmv/ligand_198.pdb
REMARK  6 active torsions:
REMARK  status: ('A' for Active; 'I' for Inactive)
REMARK    1  A    between atoms: C1_1  and  C2_2
REMARK    2  A    between atoms: C2_2  and  C3_3
REMARK    3  A    between atoms: C3_3  and  O1_4
REMARK    4  A    between atoms: C3_3  and  C4_5
REMARK    5  A    between atoms: C9_11  and  N1_12
REMARK    6  A    between atoms: C10_13  and  C11_15
REMARK                            x       y       z     vdW  Elec       q    Type
REMARK                         _______ _______ _______ _____ _____    ______ ____
ROOT
ATOM      1  C4  UNL     1       1.099   6.637 -17.607  0.00  0.00    +0.002 A 
ATOM      2  C5  UNL     1       0.236   7.044 -18.645  0.00  0.00    +0.009 A 
ATOM      3  C6  UNL     1      -1.030   6.479 -18.792  0.00  0.00    +0.016 A 
ATOM      4  C7  UNL     1      -1.450   5.504 -17.897  0.00  0.00    +0.020 A 
ATOM      5 BR1  UNL     1      -3.172   4.745 -18.088  0.00  0.00    -0.050 Br
ATOM      6  C8  UNL     1      -0.613   5.074 -16.867  0.00  0.00    +0.039 A 
ATOM      7  C9  UNL     1       0.668   5.621 -16.721  0.00  0.00    +0.040 A 
ENDROOT
BRANCH   7   8
ATOM      8  N1  UNL     1       1.570   5.180 -15.726  0.00  0.00    -0.281 N 
ATOM      9  C10 UNL     1       2.063   3.910 -15.509  0.00  0.00    +0.248 C 
ATOM     10  O2  UNL     1       1.792   2.897 -16.140  0.00  0.00    -0.270 OA
ATOM     11  H11 UNL     1       1.990   5.946 -15.200  0.00  0.00    +0.155 HD
BRANCH   9  12
ATOM     12  C11 UNL     1       3.041   3.797 -14.389  0.00  0.00    +0.038 A 
ATOM     13  C12 UNL     1       3.080   2.673 -13.549  0.00  0.00    +0.013 A 
ATOM     14  C13 UNL     1       4.019   2.605 -12.517  0.00  0.00    +0.002 A 
ATOM     15  C14 UNL     1       4.923   3.650 -12.325  0.00  0.00    +0.020 A 
ATOM     16  C15 UNL     1       4.893   4.757 -13.172  0.00  0.00    +0.042 A 
ATOM     17 CL1  UNL     1       6.018   6.039 -12.935  0.00  0.00    -0.084 Cl
ATOM     18  C16 UNL     1       3.962   4.835 -14.205  0.00  0.00    +0.033 A 
ENDBRANCH   9  12
ENDBRANCH   7   8
BRANCH   1  19
ATOM     19  C3  UNL     1       2.425   7.373 -17.470  0.00  0.00    +0.146 C 
BRANCH  19  21
ATOM     20  C1  UNL     1       2.793   9.910 -17.559  0.00  0.00    +0.007 C 
ATOM     21  C2  UNL     1       2.513   8.636 -18.340  0.00  0.00    +0.033 C 
ENDBRANCH  19  21
BRANCH  19  22
ATOM     22  O1  UNL     1       2.629   7.778 -16.107  0.00  0.00    -0.387 OA
ATOM     23  H7  UNL     1       1.743   7.896 -15.720  0.00  0.00    +0.210 HD
ENDBRANCH  19  22
ENDBRANCH   1  19
TORSDOF 5
ENDMDL
MODEL 6
REMARK VINA RESULT:    -5.569      2.842      5.977
REMARK INTER + INTRA:          -7.867
REMARK INTER:                  -7.069
REMARK INTRA:                  -0.799
REMARK UNBOUND:                -0.833
REMARK  Name = /home/vital/Documents/PhD_2021/Malaria_codes/data/pdb_ligands_mmv/ligand_198.pdb
REMARK  6 active torsions:
REMARK  status: ('A' for Active; 'I' for Inactive)
REMARK    1  A    between atoms: C1_1  and  C2_2
REMARK    2  A    between atoms: C2_2  and  C3_3
REMARK    3  A    between atoms: C3_3  and  O1_4
REMARK    4  A    between atoms: C3_3  and  C4_5
REMARK    5  A    between atoms: C9_11  and  N1_12
REMARK    6  A    between atoms: C10_13  and  C11_15
REMARK                            x       y       z     vdW  Elec       q    Type
REMARK                         _______ _______ _______ _____ _____    ______ ____
ROOT
ATOM      1  C4  UNL     1       3.938  -2.840 -31.826  0.00  0.00    +0.002 A 
ATOM      2  C5  UNL     1       3.421  -2.751 -33.135  0.00  0.00    +0.009 A 
ATOM      3  C6  UNL     1       2.803  -3.844 -33.740  0.00  0.00    +0.016 A 
ATOM      4  C7  UNL     1       2.688  -5.038 -33.040  0.00  0.00    +0.020 A 
ATOM      5 BR1  UNL     1       1.838  -6.517 -33.856  0.00  0.00    -0.050 Br
ATOM      6  C8  UNL     1       3.200  -5.157 -31.748  0.00  0.00    +0.039 A 
ATOM      7  C9  UNL     1       3.839  -4.072 -31.136  0.00  0.00    +0.040 A 
ENDROOT
BRANCH   7   8
ATOM      8  N1  UNL     1       4.419  -4.162 -29.851  0.00  0.00    -0.281 N 
ATOM      9  C10 UNL     1       5.754  -4.195 -29.506  0.00  0.00    +0.248 C 
ATOM     10  O2  UNL     1       6.713  -4.169 -30.267  0.00  0.00    -0.270 OA
ATOM     11  H11 UNL     1       3.739  -4.059 -29.098  0.00  0.00    +0.155 HD
BRANCH   9  12
ATOM     12  C11 UNL     1       6.026  -4.249 -28.040  0.00  0.00    +0.038 A 
ATOM     13  C12 UNL     1       7.332  -4.231 -27.526  0.00  0.00    +0.013 A 
ATOM     14  C13 UNL     1       7.540  -4.275 -26.146  0.00  0.00    +0.002 A 
ATOM     15  C14 UNL     1       6.451  -4.330 -25.277  0.00  0.00    +0.020 A 
ATOM     16  C15 UNL     1       5.154  -4.332 -25.790  0.00  0.00    +0.042 A 
ATOM     17 CL1  UNL     1       3.813  -4.390 -24.711  0.00  0.00    -0.084 Cl
ATOM     18  C16 UNL     1       4.934  -4.286 -27.164  0.00  0.00    +0.033 A 
ENDBRANCH   9  12
ENDBRANCH   7   8
BRANCH   1  19
ATOM     19  C3  UNL     1       4.514  -1.571 -31.213  0.00  0.00    +0.146 C 
BRANCH  19  21
ATOM     20  C1  UNL     1       6.037   0.018 -32.530  0.00  0.00    +0.007 C 
ATOM     21  C2  UNL     1       4.613  -0.405 -32.208  0.00  0.00    +0.033 C 
ENDBRANCH  19  21
BRANCH  19  22
ATOM     22  O1  UNL     1       3.693  -1.131 -30.120  0.00  0.00    -0.387 OA
ATOM     23  H7  UNL     1       3.464  -1.928 -29.610  0.00  0.00    +0.210 HD
ENDBRANCH  19  22
ENDBRANCH   1  19
TORSDOF 5
ENDMDL
MODEL 7
REMARK VINA RESULT:    -5.439     13.731     14.398
REMARK INTER + INTRA:          -7.703
REMARK INTER:                  -6.810
REMARK INTRA:                  -0.893
REMARK UNBOUND:                -0.833
REMARK  Name = /home/vital/Documents/PhD_2021/Malaria_codes/data/pdb_ligands_mmv/ligand_198.pdb
REMARK  6 active torsions:
REMARK  status: ('A' for Active; 'I' for Inactive)
REMARK    1  A    between atoms: C1_1  and  C2_2
REMARK    2  A    between atoms: C2_2  and  C3_3
REMARK    3  A    between atoms: C3_3  and  O1_4
REMARK    4  A    between atoms: C3_3  and  C4_5
REMARK    5  A    between atoms: C9_11  and  N1_12
REMARK    6  A    between atoms: C10_13  and  C11_15
REMARK                            x       y       z     vdW  Elec       q    Type
REMARK                         _______ _______ _______ _____ _____    ______ ____
ROOT
ATOM      1  C4  UNL     1      -4.209  -1.251 -21.462  0.00  0.00    +0.002 A 
ATOM      2  C5  UNL     1      -5.265  -2.059 -21.932  0.00  0.00    +0.009 A 
ATOM      3  C6  UNL     1      -6.201  -1.565 -22.838  0.00  0.00    +0.016 A 
ATOM      4  C7  UNL     1      -6.089  -0.256 -23.290  0.00  0.00    +0.020 A 
ATOM      5 BR1  UNL     1      -7.353   0.412 -24.530  0.00  0.00    -0.050 Br
ATOM      6  C8  UNL     1      -5.062   0.569 -22.834  0.00  0.00    +0.039 A 
ATOM      7  C9  UNL     1      -4.126   0.090 -21.910  0.00  0.00    +0.040 A 
ENDROOT
BRANCH   7   8
ATOM      8  N1  UNL     1      -3.100   0.904 -21.380  0.00  0.00    -0.281 N 
ATOM      9  C10 UNL     1      -3.115   1.679 -20.238  0.00  0.00    +0.248 C 
ATOM     10  O2  UNL     1      -4.049   1.824 -19.459  0.00  0.00    -0.270 OA
ATOM     11  H11 UNL     1      -2.206   0.781 -21.855  0.00  0.00    +0.155 HD
BRANCH   9  12
ATOM     12  C11 UNL     1      -1.837   2.388 -19.940  0.00  0.00    +0.038 A 
ATOM     13  C12 UNL     1      -0.638   1.693 -19.715  0.00  0.00    +0.013 A 
ATOM     14  C13 UNL     1       0.538   2.398 -19.447  0.00  0.00    +0.002 A 
ATOM     15  C14 UNL     1       0.522   3.792 -19.409  0.00  0.00    +0.020 A 
ATOM     16  C15 UNL     1      -0.667   4.480 -19.649  0.00  0.00    +0.042 A 
ATOM     17 CL1  UNL     1      -0.676   6.201 -19.610  0.00  0.00    -0.084 Cl
ATOM     18  C16 UNL     1      -1.845   3.788 -19.919  0.00  0.00    +0.033 A 
ENDBRANCH   9  12
ENDBRANCH   7   8
BRANCH   1  19
ATOM     19  C3  UNL     1      -3.182  -1.902 -20.546  0.00  0.00    +0.146 C 
BRANCH  19  21
ATOM     20  C1  UNL     1      -2.469  -4.245 -21.308  0.00  0.00    +0.007 C 
ATOM     21  C2  UNL     1      -3.371  -3.420 -20.404  0.00  0.00    +0.033 C 
ENDBRANCH  19  21
BRANCH  19  22
ATOM     22  O1  UNL     1      -1.856  -1.681 -21.050  0.00  0.00    -0.387 OA
ATOM     23  H7  UNL     1      -1.347  -2.487 -20.846  0.00  0.00    +0.210 HD
ENDBRANCH  19  22
ENDBRANCH   1  19
TORSDOF 5
ENDMDL
MODEL 8
REMARK VINA RESULT:    -5.435      4.480      6.245
REMARK INTER + INTRA:          -7.699
REMARK INTER:                  -6.893
REMARK INTRA:                  -0.806
REMARK UNBOUND:                -0.833
REMARK  Name = /home/vital/Documents/PhD_2021/Malaria_codes/data/pdb_ligands_mmv/ligand_198.pdb
REMARK  6 active torsions:
REMARK  status: ('A' for Active; 'I' for Inactive)
REMARK    1  A    between atoms: C1_1  and  C2_2
REMARK    2  A    between atoms: C2_2  and  C3_3
REMARK    3  A    between atoms: C3_3  and  O1_4
REMARK    4  A    between atoms: C3_3  and  C4_5
REMARK    5  A    between atoms: C9_11  and  N1_12
REMARK    6  A    between atoms: C10_13  and  C11_15
REMARK                            x       y       z     vdW  Elec       q    Type
REMARK                         _______ _______ _______ _____ _____    ______ ____
ROOT
ATOM      1  C4  UNL     1       2.290  -5.609 -33.290  0.00  0.00    +0.002 A 
ATOM      2  C5  UNL     1       2.695  -6.909 -32.924  0.00  0.00    +0.009 A 
ATOM      3  C6  UNL     1       1.812  -7.985 -32.994  0.00  0.00    +0.016 A 
ATOM      4  C7  UNL     1       0.513  -7.774 -33.438  0.00  0.00    +0.020 A 
ATOM      5 BR1  UNL     1      -0.684  -9.235 -33.545  0.00  0.00    -0.050 Br
ATOM      6  C8  UNL     1       0.082  -6.497 -33.796  0.00  0.00    +0.039 A 
ATOM      7  C9  UNL     1       0.955  -5.405 -33.713  0.00  0.00    +0.040 A 
ENDROOT
BRANCH   7   8
ATOM      8  N1  UNL     1       0.548  -4.086 -34.015  0.00  0.00    -0.281 N 
ATOM      9  C10 UNL     1       0.305  -3.518 -35.248  0.00  0.00    +0.248 C 
ATOM     10  O2  UNL     1       0.416  -4.056 -36.342  0.00  0.00    -0.270 OA
ATOM     11  H11 UNL     1       0.285  -3.550 -33.188  0.00  0.00    +0.155 HD
BRANCH   9  12
ATOM     12  C11 UNL     1      -0.157  -2.100 -35.209  0.00  0.00    +0.038 A 
ATOM     13  C12 UNL     1      -0.700  -1.465 -36.338  0.00  0.00    +0.013 A 
ATOM     14  C13 UNL     1      -1.128  -0.138 -36.254  0.00  0.00    +0.002 A 
ATOM     15  C14 UNL     1      -1.023   0.555 -35.048  0.00  0.00    +0.020 A 
ATOM     16  C15 UNL     1      -0.498  -0.084 -33.925  0.00  0.00    +0.042 A 
ATOM     17 CL1  UNL     1      -0.380   0.775 -32.437  0.00  0.00    -0.084 Cl
ATOM     18  C16 UNL     1      -0.070  -1.407 -33.996  0.00  0.00    +0.033 A 
ENDBRANCH   9  12
ENDBRANCH   7   8
BRANCH   1  19
ATOM     19  C3  UNL     1       3.348  -4.514 -33.269  0.00  0.00    +0.146 C 
BRANCH  19  21
ATOM     20  C1  UNL     1       3.451  -2.143 -32.296  0.00  0.00    +0.007 C 
ATOM     21  C2  UNL     1       3.280  -3.627 -32.016  0.00  0.00    +0.033 C 
ENDBRANCH  19  21
BRANCH  19  22
ATOM     22  O1  UNL     1       4.662  -5.092 -33.312  0.00  0.00    -0.387 OA
ATOM     23  H7  UNL     1       4.788  -5.418 -34.222  0.00  0.00    +0.210 HD
ENDBRANCH  19  22
ENDBRANCH   1  19
TORSDOF 5
ENDMDL
MODEL 9
REMARK VINA RESULT:    -5.307      4.230      6.975
REMARK INTER + INTRA:          -7.536
REMARK INTER:                  -6.572
REMARK INTRA:                  -0.964
REMARK UNBOUND:                -0.833
REMARK  Name = /home/vital/Documents/PhD_2021/Malaria_codes/data/pdb_ligands_mmv/ligand_198.pdb
REMARK  6 active torsions:
REMARK  status: ('A' for Active; 'I' for Inactive)
REMARK    1  A    between atoms: C1_1  and  C2_2
REMARK    2  A    between atoms: C2_2  and  C3_3
REMARK    3  A    between atoms: C3_3  and  O1_4
REMARK    4  A    between atoms: C3_3  and  C4_5
REMARK    5  A    between atoms: C9_11  and  N1_12
REMARK    6  A    between atoms: C10_13  and  C11_15
REMARK                            x       y       z     vdW  Elec       q    Type
REMARK                         _______ _______ _______ _____ _____    ______ ____
ROOT
ATOM      1  C4  UNL     1       5.044  -3.039 -29.780  0.00  0.00    +0.002 A 
ATOM      2  C5  UNL     1       5.807  -1.901 -29.449  0.00  0.00    +0.009 A 
ATOM      3  C6  UNL     1       5.633  -0.696 -30.128  0.00  0.00    +0.016 A 
ATOM      4  C7  UNL     1       4.688  -0.614 -31.142  0.00  0.00    +0.020 A 
ATOM      5 BR1  UNL     1       4.442   1.025 -32.055  0.00  0.00    -0.050 Br
ATOM      6  C8  UNL     1       3.927  -1.727 -31.498  0.00  0.00    +0.039 A 
ATOM      7  C9  UNL     1       4.105  -2.948 -30.836  0.00  0.00    +0.040 A 
ENDROOT
BRANCH   7   8
ATOM      8  N1  UNL     1       3.396  -4.115 -31.197  0.00  0.00    -0.281 N 
ATOM      9  C10 UNL     1       3.629  -4.978 -32.248  0.00  0.00    +0.248 C 
ATOM     10  O2  UNL     1       4.506  -4.883 -33.097  0.00  0.00    -0.270 OA
ATOM     11  H11 UNL     1       2.710  -4.398 -30.498  0.00  0.00    +0.155 HD
BRANCH   9  12
ATOM     12  C11 UNL     1       2.709  -6.150 -32.318  0.00  0.00    +0.038 A 
ATOM     13  C12 UNL     1       2.775  -7.083 -33.364  0.00  0.00    +0.013 A 
ATOM     14  C13 UNL     1       1.899  -8.171 -33.386  0.00  0.00    +0.002 A 
ATOM     15  C14 UNL     1       0.963  -8.334 -32.365  0.00  0.00    +0.020 A 
ATOM     16  C15 UNL     1       0.911  -7.414 -31.318  0.00  0.00    +0.042 A 
ATOM     17 CL1  UNL     1      -0.240  -7.627 -30.056  0.00  0.00    -0.084 Cl
ATOM     18  C16 UNL     1       1.781  -6.327 -31.285  0.00  0.00    +0.033 A 
ENDBRANCH   9  12
ENDBRANCH   7   8
BRANCH   1  19
ATOM     19  C3  UNL     1       5.237  -4.285 -28.926  0.00  0.00    +0.146 C 
BRANCH  19  21
ATOM     20  C1  UNL     1       6.358  -5.281 -26.845  0.00  0.00    +0.007 C 
ATOM     21  C2  UNL     1       6.224  -4.079 -27.766  0.00  0.00    +0.033 C 
ENDBRANCH  19  21
BRANCH  19  22
ATOM     22  O1  UNL     1       3.986  -4.694 -28.354  0.00  0.00    -0.387 OA
ATOM     23  H7  UNL     1       4.198  -5.361 -27.676  0.00  0.00    +0.210 HD
ENDBRANCH  19  22
ENDBRANCH   1  19
TORSDOF 5
ENDMDL
