MODEL 1
REMARK VINA RESULT:    -6.609      0.000      0.000
REMARK INTER + INTRA:          -8.394
REMARK INTER:                  -7.961
REMARK INTRA:                  -0.432
REMARK UNBOUND:                -0.432
REMARK  Name = /home/vital/Documents/PhD_2021/Malaria_codes/data/pdb_ligands_mmv/ligand_13.pdb
REMARK  6 active torsions:
REMARK  status: ('A' for Active; 'I' for Inactive)
REMARK    1  A    between atoms: C1_1  and  C2_2
REMARK    2  A    between atoms: C2_2  and  C3_3
REMARK    3  A    between atoms: C6_6  and  N1_7
REMARK    4  A    between atoms: N1_7  and  C7_8
REMARK    5  A    between atoms: C9_10  and  C10_11
REMARK    6  A    between atoms: C14_15  and  O1_16
REMARK                            x       y       z     vdW  Elec       q    Type
REMARK                         _______ _______ _______ _____ _____    ______ ____
ROOT
ATOM      1  C7  UNL     1       6.044  -3.065 -28.643  0.00  0.00    +0.124 A 
ATOM      2  C8  UNL     1       5.867  -4.337 -28.105  0.00  0.00    +0.047 A 
ATOM      3  C9  UNL     1       6.549  -4.712 -26.942  0.00  0.00    -0.038 A 
ATOM      4  C10 UNL     1       6.341  -6.093 -26.386  0.00  0.00    +0.044 C 
ATOM      5  C11 UNL     1       7.417  -3.777 -26.335  0.00  0.00    +0.004 A 
ATOM      6  C12 UNL     1       8.158  -4.040 -25.160  0.00  0.00    +0.014 A 
ATOM      7  C13 UNL     1       8.999  -3.073 -24.612  0.00  0.00    +0.046 A 
ATOM      8  C14 UNL     1       9.104  -1.841 -25.233  0.00  0.00    +0.119 A 
ATOM      9  C15 UNL     1       8.383  -1.566 -26.390  0.00  0.00    +0.073 A 
ATOM     10  C16 UNL     1       7.540  -2.513 -26.953  0.00  0.00    +0.077 A 
ATOM     11  N2  UNL     1       6.877  -2.176 -28.070  0.00  0.00    -0.232 NA
ENDROOT
BRANCH   1  12
ATOM     12  N1  UNL     1       5.327  -2.751 -29.823  0.00  0.00    -0.299 N 
ATOM     13  H8  UNL     1       5.729  -1.925 -30.249  0.00  0.00    +0.154 HD
BRANCH  12  17
ATOM     14  C3  UNL     1       3.670  -5.500 -32.603  0.00  0.00    -0.048 A 
ATOM     15  C4  UNL     1       4.999  -5.088 -32.734  0.00  0.00    +0.005 A 
ATOM     16  C5  UNL     1       5.551  -4.171 -31.833  0.00  0.00    +0.023 A 
ATOM     17  C6  UNL     1       4.791  -3.627 -30.794  0.00  0.00    +0.032 A 
ATOM     18  C17 UNL     1       3.471  -4.079 -30.646  0.00  0.00    +0.023 A 
ATOM     19  C18 UNL     1       2.911  -4.996 -31.543  0.00  0.00    +0.005 A 
BRANCH  14  21
ATOM     20  C1  UNL     1       2.405  -7.654 -32.835  0.00  0.00    +0.009 C 
ATOM     21  C2  UNL     1       3.079  -6.500 -33.563  0.00  0.00    +0.032 C 
ENDBRANCH  14  21
ENDBRANCH  12  17
ENDBRANCH   1  12
BRANCH   8  22
ATOM     22  O1  UNL     1       9.933  -0.914 -24.673  0.00  0.00    -0.507 OA
ATOM     23  H15 UNL     1      10.286  -1.274 -23.842  0.00  0.00    +0.292 HD
ENDBRANCH   8  22
TORSDOF 4
ENDMDL
MODEL 2
REMARK VINA RESULT:    -6.324      4.031      8.715
REMARK INTER + INTRA:          -8.050
REMARK INTER:                  -7.598
REMARK INTRA:                  -0.452
REMARK UNBOUND:                -0.432
REMARK  Name = /home/vital/Documents/PhD_2021/Malaria_codes/data/pdb_ligands_mmv/ligand_13.pdb
REMARK  6 active torsions:
REMARK  status: ('A' for Active; 'I' for Inactive)
REMARK    1  A    between atoms: C1_1  and  C2_2
REMARK    2  A    between atoms: C2_2  and  C3_3
REMARK    3  A    between atoms: C6_6  and  N1_7
REMARK    4  A    between atoms: N1_7  and  C7_8
REMARK    5  A    between atoms: C9_10  and  C10_11
REMARK    6  A    between atoms: C14_15  and  O1_16
REMARK                            x       y       z     vdW  Elec       q    Type
REMARK                         _______ _______ _______ _____ _____    ______ ____
ROOT
ATOM      1  C7  UNL     1       2.099  -5.029 -30.664  0.00  0.00    +0.124 A 
ATOM      2  C8  UNL     1       2.162  -4.357 -31.882  0.00  0.00    +0.047 A 
ATOM      3  C9  UNL     1       1.836  -5.020 -33.070  0.00  0.00    -0.038 A 
ATOM      4  C10 UNL     1       1.917  -4.270 -34.371  0.00  0.00    +0.044 C 
ATOM      5  C11 UNL     1       1.448  -6.376 -33.005  0.00  0.00    +0.004 A 
ATOM      6  C12 UNL     1       1.096  -7.149 -34.136  0.00  0.00    +0.014 A 
ATOM      7  C13 UNL     1       0.722  -8.485 -34.001  0.00  0.00    +0.046 A 
ATOM      8  C14 UNL     1       0.699  -9.056 -32.741  0.00  0.00    +0.119 A 
ATOM      9  C15 UNL     1       1.043  -8.311 -31.619  0.00  0.00    +0.073 A 
ATOM     10  C16 UNL     1       1.418  -6.979 -31.728  0.00  0.00    +0.077 A 
ATOM     11  N2  UNL     1       1.737  -6.324 -30.601  0.00  0.00    -0.232 NA
ENDROOT
BRANCH   1  12
ATOM     12  N1  UNL     1       2.446  -4.301 -29.500  0.00  0.00    -0.299 N 
ATOM     13  H8  UNL     1       1.603  -4.066 -28.988  0.00  0.00    +0.154 HD
BRANCH  12  17
ATOM     14  C3  UNL     1       5.836  -4.956 -27.028  0.00  0.00    -0.048 A 
ATOM     15  C4  UNL     1       4.577  -5.406 -26.622  0.00  0.00    +0.005 A 
ATOM     16  C5  UNL     1       3.449  -5.183 -27.421  0.00  0.00    +0.023 A 
ATOM     17  C6  UNL     1       3.544  -4.490 -28.632  0.00  0.00    +0.032 A 
ATOM     18  C17 UNL     1       4.819  -4.080 -29.050  0.00  0.00    +0.023 A 
ATOM     19  C18 UNL     1       5.951  -4.299 -28.257  0.00  0.00    +0.005 A 
BRANCH  14  21
ATOM     20  C1  UNL     1       7.963  -3.995 -26.111  0.00  0.00    +0.009 C 
ATOM     21  C2  UNL     1       7.052  -5.211 -26.177  0.00  0.00    +0.032 C 
ENDBRANCH  14  21
ENDBRANCH  12  17
ENDBRANCH   1  12
BRANCH   8  22
ATOM     22  O1  UNL     1       0.327 -10.364 -32.641  0.00  0.00    -0.507 OA
ATOM     23  H15 UNL     1       0.354 -10.624 -31.706  0.00  0.00    +0.292 HD
ENDBRANCH   8  22
TORSDOF 4
ENDMDL
MODEL 3
REMARK VINA RESULT:    -6.112      2.796      7.681
REMARK INTER + INTRA:          -7.795
REMARK INTER:                  -7.385
REMARK INTRA:                  -0.409
REMARK UNBOUND:                -0.432
REMARK  Name = /home/vital/Documents/PhD_2021/Malaria_codes/data/pdb_ligands_mmv/ligand_13.pdb
REMARK  6 active torsions:
REMARK  status: ('A' for Active; 'I' for Inactive)
REMARK    1  A    between atoms: C1_1  and  C2_2
REMARK    2  A    between atoms: C2_2  and  C3_3
REMARK    3  A    between atoms: C6_6  and  N1_7
REMARK    4  A    between atoms: N1_7  and  C7_8
REMARK    5  A    between atoms: C9_10  and  C10_11
REMARK    6  A    between atoms: C14_15  and  O1_16
REMARK                            x       y       z     vdW  Elec       q    Type
REMARK                         _______ _______ _______ _____ _____    ______ ____
ROOT
ATOM      1  C7  UNL     1       6.326  -4.189 -27.537  0.00  0.00    +0.124 A 
ATOM      2  C8  UNL     1       5.000  -4.222 -27.115  0.00  0.00    +0.047 A 
ATOM      3  C9  UNL     1       3.962  -4.222 -28.053  0.00  0.00    -0.038 A 
ATOM      4  C10 UNL     1       2.539  -4.255 -27.568  0.00  0.00    +0.044 C 
ATOM      5  C11 UNL     1       4.289  -4.185 -29.426  0.00  0.00    +0.004 A 
ATOM      6  C12 UNL     1       3.328  -4.183 -30.464  0.00  0.00    +0.014 A 
ATOM      7  C13 UNL     1       3.719  -4.144 -31.801  0.00  0.00    +0.046 A 
ATOM      8  C14 UNL     1       5.067  -4.108 -32.109  0.00  0.00    +0.119 A 
ATOM      9  C15 UNL     1       6.026  -4.109 -31.101  0.00  0.00    +0.073 A 
ATOM     10  C16 UNL     1       5.660  -4.147 -29.763  0.00  0.00    +0.077 A 
ATOM     11  N2  UNL     1       6.640  -4.146 -28.846  0.00  0.00    -0.232 NA
ENDROOT
BRANCH   1  12
ATOM     12  N1  UNL     1       7.329  -4.187 -26.537  0.00  0.00    -0.299 N 
ATOM     13  H8  UNL     1       7.928  -4.994 -26.662  0.00  0.00    +0.154 HD
BRANCH  12  17
ATOM     14  C3  UNL     1       9.539  -0.864 -25.084  0.00  0.00    -0.048 A 
ATOM     15  C4  UNL     1       9.684  -2.118 -24.484  0.00  0.00    +0.005 A 
ATOM     16  C5  UNL     1       8.950  -3.217 -24.944  0.00  0.00    +0.023 A 
ATOM     17  C6  UNL     1       8.039  -3.092 -25.998  0.00  0.00    +0.032 A 
ATOM     18  C17 UNL     1       7.933  -1.839 -26.621  0.00  0.00    +0.023 A 
ATOM     19  C18 UNL     1       8.663  -0.735 -26.167  0.00  0.00    +0.005 A 
BRANCH  14  21
ATOM     20  C1  UNL     1      11.465   0.668 -25.563  0.00  0.00    +0.009 C 
ATOM     21  C2  UNL     1      10.341   0.315 -24.601  0.00  0.00    +0.032 C 
ENDBRANCH  14  21
ENDBRANCH  12  17
ENDBRANCH   1  12
BRANCH   8  22
ATOM     22  O1  UNL     1       5.419  -4.073 -33.426  0.00  0.00    -0.507 OA
ATOM     23  H15 UNL     1       6.388  -4.048 -33.489  0.00  0.00    +0.292 HD
ENDBRANCH   8  22
TORSDOF 4
ENDMDL
MODEL 4
REMARK VINA RESULT:    -6.077      5.117      7.756
REMARK INTER + INTRA:          -7.753
REMARK INTER:                  -7.624
REMARK INTRA:                  -0.129
REMARK UNBOUND:                -0.432
REMARK  Name = /home/vital/Documents/PhD_2021/Malaria_codes/data/pdb_ligands_mmv/ligand_13.pdb
REMARK  6 active torsions:
REMARK  status: ('A' for Active; 'I' for Inactive)
REMARK    1  A    between atoms: C1_1  and  C2_2
REMARK    2  A    between atoms: C2_2  and  C3_3
REMARK    3  A    between atoms: C6_6  and  N1_7
REMARK    4  A    between atoms: N1_7  and  C7_8
REMARK    5  A    between atoms: C9_10  and  C10_11
REMARK    6  A    between atoms: C14_15  and  O1_16
REMARK                            x       y       z     vdW  Elec       q    Type
REMARK                         _______ _______ _______ _____ _____    ______ ____
ROOT
ATOM      1  C7  UNL     1       9.384  -1.310 -24.581  0.00  0.00    +0.124 A 
ATOM      2  C8  UNL     1       8.787  -1.222 -23.327  0.00  0.00    +0.047 A 
ATOM      3  C9  UNL     1       7.839  -2.172 -22.930  0.00  0.00    -0.038 A 
ATOM      4  C10 UNL     1       7.207  -2.050 -21.571  0.00  0.00    +0.044 C 
ATOM      5  C11 UNL     1       7.504  -3.210 -23.826  0.00  0.00    +0.004 A 
ATOM      6  C12 UNL     1       6.563  -4.226 -23.537  0.00  0.00    +0.014 A 
ATOM      7  C13 UNL     1       6.277  -5.223 -24.469  0.00  0.00    +0.046 A 
ATOM      8  C14 UNL     1       6.927  -5.212 -25.690  0.00  0.00    +0.119 A 
ATOM      9  C15 UNL     1       7.855  -4.220 -25.991  0.00  0.00    +0.073 A 
ATOM     10  C16 UNL     1       8.155  -3.218 -25.079  0.00  0.00    +0.077 A 
ATOM     11  N2  UNL     1       9.060  -2.295 -25.440  0.00  0.00    -0.232 NA
ENDROOT
BRANCH   1  12
ATOM     12  N1  UNL     1      10.332  -0.315 -24.922  0.00  0.00    -0.299 N 
ATOM     13  H8  UNL     1      11.195  -0.487 -24.420  0.00  0.00    +0.154 HD
BRANCH  12  17
ATOM     14  C3  UNL     1      11.053   1.652 -28.616  0.00  0.00    -0.048 A 
ATOM     15  C4  UNL     1       9.976   0.770 -28.492  0.00  0.00    +0.005 A 
ATOM     16  C5  UNL     1       9.738   0.104 -27.284  0.00  0.00    +0.023 A 
ATOM     17  C6  UNL     1      10.575   0.284 -26.179  0.00  0.00    +0.032 A 
ATOM     18  C17 UNL     1      11.627   1.205 -26.301  0.00  0.00    +0.023 A 
ATOM     19  C18 UNL     1      11.872   1.874 -27.505  0.00  0.00    +0.005 A 
BRANCH  14  21
ATOM     20  C1  UNL     1      12.760   2.779 -30.067  0.00  0.00    +0.009 C 
ATOM     21  C2  UNL     1      11.300   2.382 -29.911  0.00  0.00    +0.032 C 
ENDBRANCH  14  21
ENDBRANCH  12  17
ENDBRANCH   1  12
BRANCH   8  22
ATOM     22  O1  UNL     1       6.628  -6.201 -26.579  0.00  0.00    -0.507 OA
ATOM     23  H15 UNL     1       6.334  -5.794 -27.411  0.00  0.00    +0.292 HD
ENDBRANCH   8  22
TORSDOF 4
ENDMDL
MODEL 5
REMARK VINA RESULT:    -6.045      3.509      7.632
REMARK INTER + INTRA:          -7.714
REMARK INTER:                  -7.285
REMARK INTRA:                  -0.430
REMARK UNBOUND:                -0.432
REMARK  Name = /home/vital/Documents/PhD_2021/Malaria_codes/data/pdb_ligands_mmv/ligand_13.pdb
REMARK  6 active torsions:
REMARK  status: ('A' for Active; 'I' for Inactive)
REMARK    1  A    between atoms: C1_1  and  C2_2
REMARK    2  A    between atoms: C2_2  and  C3_3
REMARK    3  A    between atoms: C6_6  and  N1_7
REMARK    4  A    between atoms: N1_7  and  C7_8
REMARK    5  A    between atoms: C9_10  and  C10_11
REMARK    6  A    between atoms: C14_15  and  O1_16
REMARK                            x       y       z     vdW  Elec       q    Type
REMARK                         _______ _______ _______ _____ _____    ______ ____
ROOT
ATOM      1  C7  UNL     1       5.936  -4.240 -27.439  0.00  0.00    +0.124 A 
ATOM      2  C8  UNL     1       4.583  -4.432 -27.174  0.00  0.00    +0.047 A 
ATOM      3  C9  UNL     1       3.671  -4.563 -28.227  0.00  0.00    -0.038 A 
ATOM      4  C10 UNL     1       2.215  -4.766 -27.911  0.00  0.00    +0.044 C 
ATOM      5  C11 UNL     1       4.152  -4.494 -29.553  0.00  0.00    +0.004 A 
ATOM      6  C12 UNL     1       3.328  -4.614 -30.696  0.00  0.00    +0.014 A 
ATOM      7  C13 UNL     1       3.867  -4.535 -31.979  0.00  0.00    +0.046 A 
ATOM      8  C14 UNL     1       5.228  -4.337 -32.127  0.00  0.00    +0.119 A 
ATOM      9  C15 UNL     1       6.053  -4.216 -31.014  0.00  0.00    +0.073 A 
ATOM     10  C16 UNL     1       5.538  -4.291 -29.728  0.00  0.00    +0.077 A 
ATOM     11  N2  UNL     1       6.395  -4.165 -28.703  0.00  0.00    -0.232 NA
ENDROOT
BRANCH   1  12
ATOM     12  N1  UNL     1       6.806  -4.110 -26.328  0.00  0.00    -0.299 N 
ATOM     13  H8  UNL     1       7.578  -3.503 -26.577  0.00  0.00    +0.154 HD
BRANCH  12  17
ATOM     14  C3  UNL     1       5.687  -3.901 -22.237  0.00  0.00    -0.048 A 
ATOM     15  C4  UNL     1       5.807  -2.730 -22.991  0.00  0.00    +0.005 A 
ATOM     16  C5  UNL     1       6.190  -2.785 -24.336  0.00  0.00    +0.023 A 
ATOM     17  C6  UNL     1       6.482  -4.003 -24.958  0.00  0.00    +0.032 A 
ATOM     18  C17 UNL     1       6.317  -5.175 -24.205  0.00  0.00    +0.023 A 
ATOM     19  C18 UNL     1       5.935  -5.128 -22.859  0.00  0.00    +0.005 A 
BRANCH  14  21
ATOM     20  C1  UNL     1       4.250  -4.932 -20.459  0.00  0.00    +0.009 C 
ATOM     21  C2  UNL     1       5.259  -3.844 -20.794  0.00  0.00    +0.032 C 
ENDBRANCH  14  21
ENDBRANCH  12  17
ENDBRANCH   1  12
BRANCH   8  22
ATOM     22  O1  UNL     1       5.727  -4.265 -33.394  0.00  0.00    -0.507 OA
ATOM     23  H15 UNL     1       6.184  -3.415 -33.502  0.00  0.00    +0.292 HD
ENDBRANCH   8  22
TORSDOF 4
ENDMDL
MODEL 6
REMARK VINA RESULT:    -5.968     14.646     16.113
REMARK INTER + INTRA:          -7.621
REMARK INTER:                  -7.256
REMARK INTRA:                  -0.366
REMARK UNBOUND:                -0.432
REMARK  Name = /home/vital/Documents/PhD_2021/Malaria_codes/data/pdb_ligands_mmv/ligand_13.pdb
REMARK  6 active torsions:
REMARK  status: ('A' for Active; 'I' for Inactive)
REMARK    1  A    between atoms: C1_1  and  C2_2
REMARK    2  A    between atoms: C2_2  and  C3_3
REMARK    3  A    between atoms: C6_6  and  N1_7
REMARK    4  A    between atoms: N1_7  and  C7_8
REMARK    5  A    between atoms: C9_10  and  C10_11
REMARK    6  A    between atoms: C14_15  and  O1_16
REMARK                            x       y       z     vdW  Elec       q    Type
REMARK                         _______ _______ _______ _____ _____    ______ ____
ROOT
ATOM      1  C7  UNL     1      -0.042   5.753 -16.502  0.00  0.00    +0.124 A 
ATOM      2  C8  UNL     1       0.953   6.656 -16.863  0.00  0.00    +0.047 A 
ATOM      3  C9  UNL     1       2.191   6.640 -16.209  0.00  0.00    -0.038 A 
ATOM      4  C10 UNL     1       3.246   7.630 -16.618  0.00  0.00    +0.044 C 
ATOM      5  C11 UNL     1       2.402   5.695 -15.182  0.00  0.00    +0.004 A 
ATOM      6  C12 UNL     1       3.608   5.582 -14.453  0.00  0.00    +0.014 A 
ATOM      7  C13 UNL     1       3.751   4.626 -13.448  0.00  0.00    +0.046 A 
ATOM      8  C14 UNL     1       2.693   3.779 -13.168  0.00  0.00    +0.119 A 
ATOM      9  C15 UNL     1       1.499   3.877 -13.875  0.00  0.00    +0.073 A 
ATOM     10  C16 UNL     1       1.335   4.821 -14.878  0.00  0.00    +0.077 A 
ATOM     11  N2  UNL     1       0.155   4.856 -15.517  0.00  0.00    -0.232 NA
ENDROOT
BRANCH   1  12
ATOM     12  N1  UNL     1      -1.273   5.826 -17.199  0.00  0.00    -0.299 N 
ATOM     13  H8  UNL     1      -1.794   6.632 -16.876  0.00  0.00    +0.154 HD
BRANCH  12  17
ATOM     14  C3  UNL     1      -2.182   5.139 -21.290  0.00  0.00    -0.048 A 
ATOM     15  C4  UNL     1      -2.421   4.140 -20.343  0.00  0.00    +0.005 A 
ATOM     16  C5  UNL     1      -2.111   4.349 -18.994  0.00  0.00    +0.023 A 
ATOM     17  C6  UNL     1      -1.538   5.547 -18.558  0.00  0.00    +0.032 A 
ATOM     18  C17 UNL     1      -1.342   6.560 -19.511  0.00  0.00    +0.023 A 
ATOM     19  C18 UNL     1      -1.649   6.358 -20.861  0.00  0.00    +0.005 A 
BRANCH  14  21
ATOM     20  C1  UNL     1      -2.447   6.210 -23.542  0.00  0.00    +0.009 C 
ATOM     21  C2  UNL     1      -2.530   4.921 -22.739  0.00  0.00    +0.032 C 
ENDBRANCH  14  21
ENDBRANCH  12  17
ENDBRANCH   1  12
BRANCH   8  22
ATOM     22  O1  UNL     1       2.863   2.853 -12.181  0.00  0.00    -0.507 OA
ATOM     23  H15 UNL     1       3.247   3.292 -11.405  0.00  0.00    +0.292 HD
ENDBRANCH   8  22
TORSDOF 4
ENDMDL
MODEL 7
REMARK VINA RESULT:    -5.944      6.142      9.322
REMARK INTER + INTRA:          -7.593
REMARK INTER:                  -7.110
REMARK INTRA:                  -0.483
REMARK UNBOUND:                -0.432
REMARK  Name = /home/vital/Documents/PhD_2021/Malaria_codes/data/pdb_ligands_mmv/ligand_13.pdb
REMARK  6 active torsions:
REMARK  status: ('A' for Active; 'I' for Inactive)
REMARK    1  A    between atoms: C1_1  and  C2_2
REMARK    2  A    between atoms: C2_2  and  C3_3
REMARK    3  A    between atoms: C6_6  and  N1_7
REMARK    4  A    between atoms: N1_7  and  C7_8
REMARK    5  A    between atoms: C9_10  and  C10_11
REMARK    6  A    between atoms: C14_15  and  O1_16
REMARK                            x       y       z     vdW  Elec       q    Type
REMARK                         _______ _______ _______ _____ _____    ______ ____
ROOT
ATOM      1  C7  UNL     1       2.373  -6.841 -32.737  0.00  0.00    +0.124 A 
ATOM      2  C8  UNL     1       1.925  -6.792 -31.420  0.00  0.00    +0.047 A 
ATOM      3  C9  UNL     1       0.738  -7.437 -31.054  0.00  0.00    -0.038 A 
ATOM      4  C10 UNL     1       0.278  -7.364 -29.625  0.00  0.00    +0.044 C 
ATOM      5  C11 UNL     1       0.010  -8.130 -32.046  0.00  0.00    +0.004 A 
ATOM      6  C12 UNL     1      -1.199  -8.818 -31.797  0.00  0.00    +0.014 A 
ATOM      7  C13 UNL     1      -1.870  -9.482 -32.823  0.00  0.00    +0.046 A 
ATOM      8  C14 UNL     1      -1.337  -9.462 -34.100  0.00  0.00    +0.119 A 
ATOM      9  C15 UNL     1      -0.149  -8.789 -34.363  0.00  0.00    +0.073 A 
ATOM     10  C16 UNL     1       0.535  -8.122 -33.357  0.00  0.00    +0.077 A 
ATOM     11  N2  UNL     1       1.675  -7.495 -33.686  0.00  0.00    -0.232 NA
ENDROOT
BRANCH   1  12
ATOM     12  N1  UNL     1       3.579  -6.164 -33.041  0.00  0.00    -0.299 N 
ATOM     13  H8  UNL     1       3.902  -6.452 -33.957  0.00  0.00    +0.154 HD
BRANCH  12  17
ATOM     14  C3  UNL     1       4.677  -2.116 -32.376  0.00  0.00    -0.048 A 
ATOM     15  C4  UNL     1       5.433  -3.148 -31.814  0.00  0.00    +0.005 A 
ATOM     16  C5  UNL     1       5.072  -4.486 -32.013  0.00  0.00    +0.023 A 
ATOM     17  C6  UNL     1       3.941  -4.828 -32.759  0.00  0.00    +0.032 A 
ATOM     18  C17 UNL     1       3.213  -3.787 -33.355  0.00  0.00    +0.023 A 
ATOM     19  C18 UNL     1       3.567  -2.447 -33.160  0.00  0.00    +0.005 A 
BRANCH  14  21
ATOM     20  C1  UNL     1       6.575  -0.479 -32.320  0.00  0.00    +0.009 C 
ATOM     21  C2  UNL     1       5.074  -0.677 -32.176  0.00  0.00    +0.032 C 
ENDBRANCH  14  21
ENDBRANCH  12  17
ENDBRANCH   1  12
BRANCH   8  22
ATOM     22  O1  UNL     1      -2.014 -10.122 -35.083  0.00  0.00    -0.507 OA
ATOM     23  H15 UNL     1      -2.025 -11.070 -34.871  0.00  0.00    +0.292 HD
ENDBRANCH   8  22
TORSDOF 4
ENDMDL
MODEL 8
REMARK VINA RESULT:    -5.812      2.069      2.634
REMARK INTER + INTRA:          -7.433
REMARK INTER:                  -6.990
REMARK INTRA:                  -0.444
REMARK UNBOUND:                -0.432
REMARK  Name = /home/vital/Documents/PhD_2021/Malaria_codes/data/pdb_ligands_mmv/ligand_13.pdb
REMARK  6 active torsions:
REMARK  status: ('A' for Active; 'I' for Inactive)
REMARK    1  A    between atoms: C1_1  and  C2_2
REMARK    2  A    between atoms: C2_2  and  C3_3
REMARK    3  A    between atoms: C6_6  and  N1_7
REMARK    4  A    between atoms: N1_7  and  C7_8
REMARK    5  A    between atoms: C9_10  and  C10_11
REMARK    6  A    between atoms: C14_15  and  O1_16
REMARK                            x       y       z     vdW  Elec       q    Type
REMARK                         _______ _______ _______ _____ _____    ______ ____
ROOT
ATOM      1  C7  UNL     1       5.819  -3.734 -29.136  0.00  0.00    +0.124 A 
ATOM      2  C8  UNL     1       4.709  -4.400 -28.626  0.00  0.00    +0.047 A 
ATOM      3  C9  UNL     1       4.661  -4.756 -27.273  0.00  0.00    -0.038 A 
ATOM      4  C10 UNL     1       3.450  -5.479 -26.750  0.00  0.00    +0.044 C 
ATOM      5  C11 UNL     1       5.757  -4.427 -26.446  0.00  0.00    +0.004 A 
ATOM      6  C12 UNL     1       5.822  -4.732 -25.067  0.00  0.00    +0.014 A 
ATOM      7  C13 UNL     1       6.937  -4.379 -24.308  0.00  0.00    +0.046 A 
ATOM      8  C14 UNL     1       7.989  -3.721 -24.919  0.00  0.00    +0.119 A 
ATOM      9  C15 UNL     1       7.942  -3.414 -26.275  0.00  0.00    +0.073 A 
ATOM     10  C16 UNL     1       6.843  -3.755 -27.050  0.00  0.00    +0.077 A 
ATOM     11  N2  UNL     1       6.869  -3.426 -28.351  0.00  0.00    -0.232 NA
ENDROOT
BRANCH   1  12
ATOM     12  N1  UNL     1       5.807  -3.407 -30.514  0.00  0.00    -0.299 N 
ATOM     13  H8  UNL     1       6.596  -3.849 -30.970  0.00  0.00    +0.154 HD
BRANCH  12  17
ATOM     14  C3  UNL     1       2.605  -3.049 -33.280  0.00  0.00    -0.048 A 
ATOM     15  C4  UNL     1       2.748  -2.115 -32.250  0.00  0.00    +0.005 A 
ATOM     16  C5  UNL     1       3.790  -2.232 -31.323  0.00  0.00    +0.023 A 
ATOM     17  C6  UNL     1       4.702  -3.289 -31.386  0.00  0.00    +0.032 A 
ATOM     18  C17 UNL     1       4.576  -4.196 -32.450  0.00  0.00    +0.023 A 
ATOM     19  C18 UNL     1       3.536  -4.087 -33.380  0.00  0.00    +0.005 A 
BRANCH  14  21
ATOM     20  C1  UNL     1       0.707  -1.627 -34.096  0.00  0.00    +0.009 C 
ATOM     21  C2  UNL     1       1.493  -2.915 -34.288  0.00  0.00    +0.032 C 
ENDBRANCH  14  21
ENDBRANCH  12  17
ENDBRANCH   1  12
BRANCH   8  22
ATOM     22  O1  UNL     1       9.064  -3.388 -24.150  0.00  0.00    -0.507 OA
ATOM     23  H15 UNL     1       9.114  -4.004 -23.401  0.00  0.00    +0.292 HD
ENDBRANCH   8  22
TORSDOF 4
ENDMDL
MODEL 9
REMARK VINA RESULT:    -5.612     16.130     17.781
REMARK INTER + INTRA:          -7.193
REMARK INTER:                  -6.731
REMARK INTRA:                  -0.462
REMARK UNBOUND:                -0.432
REMARK  Name = /home/vital/Documents/PhD_2021/Malaria_codes/data/pdb_ligands_mmv/ligand_13.pdb
REMARK  6 active torsions:
REMARK  status: ('A' for Active; 'I' for Inactive)
REMARK    1  A    between atoms: C1_1  and  C2_2
REMARK    2  A    between atoms: C2_2  and  C3_3
REMARK    3  A    between atoms: C6_6  and  N1_7
REMARK    4  A    between atoms: N1_7  and  C7_8
REMARK    5  A    between atoms: C9_10  and  C10_11
REMARK    6  A    between atoms: C14_15  and  O1_16
REMARK                            x       y       z     vdW  Elec       q    Type
REMARK                         _______ _______ _______ _____ _____    ______ ____
ROOT
ATOM      1  C7  UNL     1     -10.700  -9.851 -30.340  0.00  0.00    +0.124 A 
ATOM      2  C8  UNL     1     -11.087 -10.659 -31.406  0.00  0.00    +0.047 A 
ATOM      3  C9  UNL     1     -10.653 -11.987 -31.478  0.00  0.00    -0.038 A 
ATOM      4  C10 UNL     1     -11.083 -12.835 -32.643  0.00  0.00    +0.044 C 
ATOM      5  C11 UNL     1      -9.819 -12.484 -30.452  0.00  0.00    +0.004 A 
ATOM      6  C12 UNL     1      -9.320 -13.806 -30.415  0.00  0.00    +0.014 A 
ATOM      7  C13 UNL     1      -8.499 -14.233 -29.372  0.00  0.00    +0.046 A 
ATOM      8  C14 UNL     1      -8.173 -13.344 -28.364  0.00  0.00    +0.119 A 
ATOM      9  C15 UNL     1      -8.654 -12.039 -28.385  0.00  0.00    +0.073 A 
ATOM     10  C16 UNL     1      -9.473 -11.593 -29.412  0.00  0.00    +0.077 A 
ATOM     11  N2  UNL     1      -9.899 -10.321 -29.365  0.00  0.00    -0.232 NA
ENDROOT
BRANCH   1  12
ATOM     12  N1  UNL     1     -11.170  -8.515 -30.330  0.00  0.00    -0.299 N 
ATOM     13  H8  UNL     1     -11.510  -8.287 -29.404  0.00  0.00    +0.154 HD
BRANCH  12  17
ATOM     14  C3  UNL     1      -9.527  -5.214 -32.436  0.00  0.00    -0.048 A 
ATOM     15  C4  UNL     1      -8.962  -5.623 -31.226  0.00  0.00    +0.005 A 
ATOM     16  C5  UNL     1      -9.504  -6.700 -30.515  0.00  0.00    +0.023 A 
ATOM     17  C6  UNL     1     -10.632  -7.382 -30.980  0.00  0.00    +0.032 A 
ATOM     18  C17 UNL     1     -11.166  -6.991 -32.218  0.00  0.00    +0.023 A 
ATOM     19  C18 UNL     1     -10.630  -5.915 -32.934  0.00  0.00    +0.005 A 
BRANCH  14  21
ATOM     20  C1  UNL     1      -9.948  -3.433 -34.151  0.00  0.00    +0.009 C 
ATOM     21  C2  UNL     1      -8.934  -4.065 -33.210  0.00  0.00    +0.032 C 
ENDBRANCH  14  21
ENDBRANCH  12  17
ENDBRANCH   1  12
BRANCH   8  22
ATOM     22  O1  UNL     1      -7.370 -13.791 -27.356  0.00  0.00    -0.507 OA
ATOM     23  H15 UNL     1      -6.487 -13.972 -27.719  0.00  0.00    +0.292 HD
ENDBRANCH   8  22
TORSDOF 4
ENDMDL
