MODEL 1
REMARK VINA RESULT:    -5.172      0.000      0.000
REMARK INTER + INTRA:          -6.961
REMARK INTER:                  -6.532
REMARK INTRA:                  -0.429
REMARK UNBOUND:                -0.429
REMARK  Name = /home/vital/Documents/PhD_2021/Malaria_codes/data/pdb_ligands_mmv/ligand_212.pdb
REMARK  8 active torsions:
REMARK  status: ('A' for Active; 'I' for Inactive)
REMARK    1  A    between atoms: C1_1  and  C2_2
REMARK    2  A    between atoms: C2_2  and  C3_3
REMARK    3  A    between atoms: C3_3  and  C4_4
REMARK    4  A    between atoms: C4_4  and  C5_5
REMARK    5  A    between atoms: C6_6  and  C7_7
REMARK    6  A    between atoms: C9_10  and  O1_11
REMARK    7  A    between atoms: O1_11  and  C10_12
REMARK    8  A    between atoms: C15_17  and  O2_18
REMARK                            x       y       z     vdW  Elec       q    Type
REMARK                         _______ _______ _______ _____ _____    ______ ____
ROOT
ATOM      1  C5  UNL     1       1.489  -7.203 -33.613  0.00  0.00    +0.016 A 
ATOM      2  C6  UNL     1       0.447  -6.493 -34.201  0.00  0.00    +0.046 A 
ATOM      3  C7  UNL     1       0.649  -5.148 -34.837  0.00  0.00    +0.066 C 
ATOM      4  N1  UNL     1      -0.821  -6.969 -34.257  0.00  0.00    -0.248 NA
ATOM      5  C8  UNL     1      -1.139  -8.160 -33.701  0.00  0.00    +0.116 A 
ATOM      6  C9  UNL     1      -2.465  -8.637 -33.743  0.00  0.00    +0.146 A 
ATOM      7  C11 UNL     1      -2.813  -9.860 -33.154  0.00  0.00    +0.048 A 
ATOM      8  C12 UNL     1      -1.850 -10.620 -32.503  0.00  0.00    +0.004 A 
ATOM      9  C13 UNL     1      -0.536 -10.166 -32.454  0.00  0.00    +0.014 A 
ATOM     10  C14 UNL     1      -0.159  -8.946 -33.062  0.00  0.00    +0.046 A 
ATOM     11  C15 UNL     1       1.161  -8.443 -33.054  0.00  0.00    +0.131 A 
ENDROOT
BRANCH   6  12
ATOM     12  O1  UNL     1      -3.369  -7.826 -34.396  0.00  0.00    -0.493 OA
ATOM     13  C10 UNL     1      -4.261  -8.428 -35.321  0.00  0.00    +0.277 C 
ENDBRANCH   6  12
BRANCH  11  14
ATOM     14  O2  UNL     1       2.191  -9.162 -32.494  0.00  0.00    -0.506 OA
ATOM     15  H19 UNL     1       2.978  -8.594 -32.473  0.00  0.00    +0.292 HD
ENDBRANCH  11  14
BRANCH   1  16
ATOM     16  C4  UNL     1       2.900  -6.669 -33.547  0.00  0.00    +0.040 C 
BRANCH  16  17
ATOM     17  C3  UNL     1       3.134  -5.832 -32.286  0.00  0.00    +0.005 C 
BRANCH  17  19
ATOM     18  C1  UNL     1       3.853  -3.660 -33.345  0.00  0.00    +0.004 C 
ATOM     19  C2  UNL     1       4.280  -4.839 -32.486  0.00  0.00    -0.003 C 
ENDBRANCH  17  19
ENDBRANCH  16  17
ENDBRANCH   1  16
TORSDOF 5
ENDMDL
MODEL 2
REMARK VINA RESULT:    -4.972      2.873      3.930
REMARK INTER + INTRA:          -6.708
REMARK INTER:                  -6.373
REMARK INTRA:                  -0.335
REMARK UNBOUND:                -0.429
REMARK  Name = /home/vital/Documents/PhD_2021/Malaria_codes/data/pdb_ligands_mmv/ligand_212.pdb
REMARK  8 active torsions:
REMARK  status: ('A' for Active; 'I' for Inactive)
REMARK    1  A    between atoms: C1_1  and  C2_2
REMARK    2  A    between atoms: C2_2  and  C3_3
REMARK    3  A    between atoms: C3_3  and  C4_4
REMARK    4  A    between atoms: C4_4  and  C5_5
REMARK    5  A    between atoms: C6_6  and  C7_7
REMARK    6  A    between atoms: C9_10  and  O1_11
REMARK    7  A    between atoms: O1_11  and  C10_12
REMARK    8  A    between atoms: C15_17  and  O2_18
REMARK                            x       y       z     vdW  Elec       q    Type
REMARK                         _______ _______ _______ _____ _____    ______ ____
ROOT
ATOM      1  C5  UNL     1       3.346  -5.189 -31.751  0.00  0.00    +0.016 A 
ATOM      2  C6  UNL     1       2.622  -5.125 -30.564  0.00  0.00    +0.046 A 
ATOM      3  C7  UNL     1       2.907  -4.104 -29.502  0.00  0.00    +0.066 C 
ATOM      4  N1  UNL     1       1.598  -5.969 -30.288  0.00  0.00    -0.248 NA
ATOM      5  C8  UNL     1       1.255  -6.949 -31.154  0.00  0.00    +0.116 A 
ATOM      6  C9  UNL     1       0.204  -7.838 -30.848  0.00  0.00    +0.146 A 
ATOM      7  C11 UNL     1      -0.150  -8.871 -31.727  0.00  0.00    +0.048 A 
ATOM      8  C12 UNL     1       0.545  -9.042 -32.916  0.00  0.00    +0.004 A 
ATOM      9  C13 UNL     1       1.584  -8.174 -33.236  0.00  0.00    +0.014 A 
ATOM     10  C14 UNL     1       1.942  -7.111 -32.374  0.00  0.00    +0.046 A 
ATOM     11  C15 UNL     1       2.978  -6.192 -32.653  0.00  0.00    +0.131 A 
ENDROOT
BRANCH   6  12
ATOM     12  O1  UNL     1      -0.434  -7.614 -29.646  0.00  0.00    -0.493 OA
ATOM     13  C10 UNL     1      -1.842  -7.787 -29.595  0.00  0.00    +0.277 C 
ENDBRANCH   6  12
BRANCH  11  14
ATOM     14  O2  UNL     1       3.672  -6.244 -33.839  0.00  0.00    -0.506 OA
ATOM     15  H19 UNL     1       3.636  -7.157 -34.169  0.00  0.00    +0.292 HD
ENDBRANCH  11  14
BRANCH   1  16
ATOM     16  C4  UNL     1       4.490  -4.251 -32.055  0.00  0.00    +0.040 C 
BRANCH  16  17
ATOM     17  C3  UNL     1       4.150  -3.290 -33.198  0.00  0.00    +0.005 C 
BRANCH  17  19
ATOM     18  C1  UNL     1       1.834  -2.336 -33.484  0.00  0.00    +0.004 C 
ATOM     19  C2  UNL     1       3.157  -2.219 -32.744  0.00  0.00    -0.003 C 
ENDBRANCH  17  19
ENDBRANCH  16  17
ENDBRANCH   1  16
TORSDOF 5
ENDMDL
MODEL 3
REMARK VINA RESULT:    -4.907      2.465      6.244
REMARK INTER + INTRA:          -6.626
REMARK INTER:                  -6.191
REMARK INTRA:                  -0.435
REMARK UNBOUND:                -0.429
REMARK  Name = /home/vital/Documents/PhD_2021/Malaria_codes/data/pdb_ligands_mmv/ligand_212.pdb
REMARK  8 active torsions:
REMARK  status: ('A' for Active; 'I' for Inactive)
REMARK    1  A    between atoms: C1_1  and  C2_2
REMARK    2  A    between atoms: C2_2  and  C3_3
REMARK    3  A    between atoms: C3_3  and  C4_4
REMARK    4  A    between atoms: C4_4  and  C5_5
REMARK    5  A    between atoms: C6_6  and  C7_7
REMARK    6  A    between atoms: C9_10  and  O1_11
REMARK    7  A    between atoms: O1_11  and  C10_12
REMARK    8  A    between atoms: C15_17  and  O2_18
REMARK                            x       y       z     vdW  Elec       q    Type
REMARK                         _______ _______ _______ _____ _____    ______ ____
ROOT
ATOM      1  C5  UNL     1      -0.104  -8.303 -31.319  0.00  0.00    +0.016 A 
ATOM      2  C6  UNL     1      -0.132  -7.313 -30.341  0.00  0.00    +0.046 A 
ATOM      3  C7  UNL     1      -1.194  -7.260 -29.281  0.00  0.00    +0.066 C 
ATOM      4  N1  UNL     1       0.803  -6.334 -30.266  0.00  0.00    -0.248 NA
ATOM      5  C8  UNL     1       1.800  -6.258 -31.176  0.00  0.00    +0.116 A 
ATOM      6  C9  UNL     1       2.755  -5.223 -31.105  0.00  0.00    +0.146 A 
ATOM      7  C11 UNL     1       3.782  -5.119 -32.052  0.00  0.00    +0.048 A 
ATOM      8  C12 UNL     1       3.867  -6.035 -33.092  0.00  0.00    +0.004 A 
ATOM      9  C13 UNL     1       2.935  -7.064 -33.178  0.00  0.00    +0.014 A 
ATOM     10  C14 UNL     1       1.904  -7.200 -32.219  0.00  0.00    +0.046 A 
ATOM     11  C15 UNL     1       0.939  -8.232 -32.248  0.00  0.00    +0.131 A 
ENDROOT
BRANCH   6  12
ATOM     12  O1  UNL     1       2.603  -4.345 -30.052  0.00  0.00    -0.493 OA
ATOM     13  C10 UNL     1       3.692  -4.179 -29.157  0.00  0.00    +0.277 C 
ENDBRANCH   6  12
BRANCH  11  14
ATOM     14  O2  UNL     1       0.988  -9.222 -33.201  0.00  0.00    -0.506 OA
ATOM     15  H19 UNL     1       1.824  -9.703 -33.093  0.00  0.00    +0.292 HD
ENDBRANCH  11  14
BRANCH   1  16
ATOM     16  C4  UNL     1      -1.149  -9.389 -31.404  0.00  0.00    +0.040 C 
BRANCH  16  17
ATOM     17  C3  UNL     1      -2.373  -8.940 -32.207  0.00  0.00    +0.005 C 
BRANCH  17  19
ATOM     18  C1  UNL     1      -2.265  -9.332 -34.695  0.00  0.00    +0.004 C 
ATOM     19  C2  UNL     1      -2.673  -9.911 -33.350  0.00  0.00    -0.003 C 
ENDBRANCH  17  19
ENDBRANCH  16  17
ENDBRANCH   1  16
TORSDOF 5
ENDMDL
MODEL 4
REMARK VINA RESULT:    -4.906      3.086      4.720
REMARK INTER + INTRA:          -6.625
REMARK INTER:                  -6.318
REMARK INTRA:                  -0.308
REMARK UNBOUND:                -0.429
REMARK  Name = /home/vital/Documents/PhD_2021/Malaria_codes/data/pdb_ligands_mmv/ligand_212.pdb
REMARK  8 active torsions:
REMARK  status: ('A' for Active; 'I' for Inactive)
REMARK    1  A    between atoms: C1_1  and  C2_2
REMARK    2  A    between atoms: C2_2  and  C3_3
REMARK    3  A    between atoms: C3_3  and  C4_4
REMARK    4  A    between atoms: C4_4  and  C5_5
REMARK    5  A    between atoms: C6_6  and  C7_7
REMARK    6  A    between atoms: C9_10  and  O1_11
REMARK    7  A    between atoms: O1_11  and  C10_12
REMARK    8  A    between atoms: C15_17  and  O2_18
REMARK                            x       y       z     vdW  Elec       q    Type
REMARK                         _______ _______ _______ _____ _____    ______ ____
ROOT
ATOM      1  C5  UNL     1       3.917  -4.415 -31.490  0.00  0.00    +0.016 A 
ATOM      2  C6  UNL     1       3.144  -4.729 -30.377  0.00  0.00    +0.046 A 
ATOM      3  C7  UNL     1       3.262  -3.983 -29.079  0.00  0.00    +0.066 C 
ATOM      4  N1  UNL     1       2.220  -5.721 -30.386  0.00  0.00    -0.248 NA
ATOM      5  C8  UNL     1       2.033  -6.482 -31.487  0.00  0.00    +0.116 A 
ATOM      6  C9  UNL     1       1.086  -7.527 -31.482  0.00  0.00    +0.146 A 
ATOM      7  C11 UNL     1       0.895  -8.337 -32.609  0.00  0.00    +0.048 A 
ATOM      8  C12 UNL     1       1.652  -8.129 -33.754  0.00  0.00    +0.004 A 
ATOM      9  C13 UNL     1       2.590  -7.102 -33.779  0.00  0.00    +0.014 A 
ATOM     10  C14 UNL     1       2.782  -6.258 -32.660  0.00  0.00    +0.046 A 
ATOM     11  C15 UNL     1       3.709  -5.193 -32.634  0.00  0.00    +0.131 A 
ENDROOT
BRANCH   6  12
ATOM     12  O1  UNL     1       0.378  -7.681 -30.308  0.00  0.00    -0.493 OA
ATOM     13  C10 UNL     1      -1.023  -7.897 -30.396  0.00  0.00    +0.277 C 
ENDBRANCH   6  12
BRANCH  11  14
ATOM     14  O2  UNL     1       4.452  -4.871 -33.745  0.00  0.00    -0.506 OA
ATOM     15  H19 UNL     1       3.838  -4.673 -34.471  0.00  0.00    +0.292 HD
ENDBRANCH  11  14
BRANCH   1  16
ATOM     16  C4  UNL     1       4.951  -3.313 -31.476  0.00  0.00    +0.040 C 
BRANCH  16  17
ATOM     17  C3  UNL     1       4.386  -1.996 -32.015  0.00  0.00    +0.005 C 
BRANCH  17  19
ATOM     18  C1  UNL     1       6.076  -0.157 -32.354  0.00  0.00    +0.004 C 
ATOM     19  C2  UNL     1       5.091  -0.793 -31.387  0.00  0.00    -0.003 C 
ENDBRANCH  17  19
ENDBRANCH  16  17
ENDBRANCH   1  16
TORSDOF 5
ENDMDL
MODEL 5
REMARK VINA RESULT:    -4.839     10.756     13.805
REMARK INTER + INTRA:          -6.540
REMARK INTER:                  -6.070
REMARK INTRA:                  -0.470
REMARK UNBOUND:                -0.429
REMARK  Name = /home/vital/Documents/PhD_2021/Malaria_codes/data/pdb_ligands_mmv/ligand_212.pdb
REMARK  8 active torsions:
REMARK  status: ('A' for Active; 'I' for Inactive)
REMARK    1  A    between atoms: C1_1  and  C2_2
REMARK    2  A    between atoms: C2_2  and  C3_3
REMARK    3  A    between atoms: C3_3  and  C4_4
REMARK    4  A    between atoms: C4_4  and  C5_5
REMARK    5  A    between atoms: C6_6  and  C7_7
REMARK    6  A    between atoms: C9_10  and  O1_11
REMARK    7  A    between atoms: O1_11  and  C10_12
REMARK    8  A    between atoms: C15_17  and  O2_18
REMARK                            x       y       z     vdW  Elec       q    Type
REMARK                         _______ _______ _______ _____ _____    ______ ____
ROOT
ATOM      1  C5  UNL     1       6.829  -4.425 -24.237  0.00  0.00    +0.016 A 
ATOM      2  C6  UNL     1       7.781  -3.418 -24.120  0.00  0.00    +0.046 A 
ATOM      3  C7  UNL     1       8.846  -3.194 -25.154  0.00  0.00    +0.066 C 
ATOM      4  N1  UNL     1       7.810  -2.558 -23.072  0.00  0.00    -0.248 NA
ATOM      5  C8  UNL     1       6.918  -2.668 -22.062  0.00  0.00    +0.116 A 
ATOM      6  C9  UNL     1       6.969  -1.784 -20.965  0.00  0.00    +0.146 A 
ATOM      7  C11 UNL     1       6.064  -1.898 -19.900  0.00  0.00    +0.048 A 
ATOM      8  C12 UNL     1       5.105  -2.901 -19.906  0.00  0.00    +0.004 A 
ATOM      9  C13 UNL     1       5.038  -3.782 -20.981  0.00  0.00    +0.014 A 
ATOM     10  C14 UNL     1       5.927  -3.669 -22.075  0.00  0.00    +0.046 A 
ATOM     11  C15 UNL     1       5.897  -4.526 -23.199  0.00  0.00    +0.131 A 
ENDROOT
BRANCH   6  12
ATOM     12  O1  UNL     1       7.953  -0.820 -21.023  0.00  0.00    -0.493 OA
ATOM     13  C10 UNL     1       8.725  -0.581 -19.855  0.00  0.00    +0.277 C 
ENDBRANCH   6  12
BRANCH  11  14
ATOM     14  O2  UNL     1       4.937  -5.503 -23.320  0.00  0.00    -0.506 OA
ATOM     15  H19 UNL     1       4.190  -5.264 -22.747  0.00  0.00    +0.292 HD
ENDBRANCH  11  14
BRANCH   1  16
ATOM     16  C4  UNL     1       6.803  -5.386 -25.401  0.00  0.00    +0.040 C 
BRANCH  16  17
ATOM     17  C3  UNL     1       5.767  -4.979 -26.452  0.00  0.00    +0.005 C 
BRANCH  17  19
ATOM     18  C1  UNL     1       6.068  -2.891 -27.834  0.00  0.00    +0.004 C 
ATOM     19  C2  UNL     1       6.437  -4.358 -27.679  0.00  0.00    -0.003 C 
ENDBRANCH  17  19
ENDBRANCH  16  17
ENDBRANCH   1  16
TORSDOF 5
ENDMDL
MODEL 6
REMARK VINA RESULT:    -4.834      4.588      7.199
REMARK INTER + INTRA:          -6.534
REMARK INTER:                  -6.089
REMARK INTRA:                  -0.445
REMARK UNBOUND:                -0.429
REMARK  Name = /home/vital/Documents/PhD_2021/Malaria_codes/data/pdb_ligands_mmv/ligand_212.pdb
REMARK  8 active torsions:
REMARK  status: ('A' for Active; 'I' for Inactive)
REMARK    1  A    between atoms: C1_1  and  C2_2
REMARK    2  A    between atoms: C2_2  and  C3_3
REMARK    3  A    between atoms: C3_3  and  C4_4
REMARK    4  A    between atoms: C4_4  and  C5_5
REMARK    5  A    between atoms: C6_6  and  C7_7
REMARK    6  A    between atoms: C9_10  and  O1_11
REMARK    7  A    between atoms: O1_11  and  C10_12
REMARK    8  A    between atoms: C15_17  and  O2_18
REMARK                            x       y       z     vdW  Elec       q    Type
REMARK                         _______ _______ _______ _____ _____    ______ ____
ROOT
ATOM      1  C5  UNL     1       4.847  -4.052 -28.489  0.00  0.00    +0.016 A 
ATOM      2  C6  UNL     1       3.727  -4.841 -28.246  0.00  0.00    +0.046 A 
ATOM      3  C7  UNL     1       3.347  -5.296 -26.867  0.00  0.00    +0.066 C 
ATOM      4  N1  UNL     1       2.889  -5.243 -29.234  0.00  0.00    -0.248 NA
ATOM      5  C8  UNL     1       3.133  -4.919 -30.523  0.00  0.00    +0.116 A 
ATOM      6  C9  UNL     1       2.270  -5.362 -31.547  0.00  0.00    +0.146 A 
ATOM      7  C11 UNL     1       2.521  -5.050 -32.890  0.00  0.00    +0.048 A 
ATOM      8  C12 UNL     1       3.640  -4.305 -33.236  0.00  0.00    +0.004 A 
ATOM      9  C13 UNL     1       4.502  -3.858 -32.240  0.00  0.00    +0.014 A 
ATOM     10  C14 UNL     1       4.254  -4.142 -30.876  0.00  0.00    +0.046 A 
ATOM     11  C15 UNL     1       5.087  -3.703 -29.822  0.00  0.00    +0.131 A 
ENDROOT
BRANCH   6  12
ATOM     12  O1  UNL     1       1.185  -6.104 -31.131  0.00  0.00    -0.493 OA
ATOM     13  C10 UNL     1       1.015  -7.403 -31.678  0.00  0.00    +0.277 C 
ENDBRANCH   6  12
BRANCH  11  14
ATOM     14  O2  UNL     1       6.178  -2.903 -30.066  0.00  0.00    -0.506 OA
ATOM     15  H19 UNL     1       6.098  -2.108 -29.513  0.00  0.00    +0.292 HD
ENDBRANCH  11  14
BRANCH   1  16
ATOM     16  C4  UNL     1       5.782  -3.609 -27.389  0.00  0.00    +0.040 C 
BRANCH  16  17
ATOM     17  C3  UNL     1       6.995  -4.535 -27.265  0.00  0.00    +0.005 C 
BRANCH  17  19
ATOM     18  C1  UNL     1       6.491  -4.800 -24.809  0.00  0.00    +0.004 C 
ATOM     19  C2  UNL     1       6.825  -5.519 -26.106  0.00  0.00    -0.003 C 
ENDBRANCH  17  19
ENDBRANCH  16  17
ENDBRANCH   1  16
TORSDOF 5
ENDMDL
MODEL 7
REMARK VINA RESULT:    -4.761     11.714     12.211
REMARK INTER + INTRA:          -6.443
REMARK INTER:                  -6.013
REMARK INTRA:                  -0.429
REMARK UNBOUND:                -0.429
REMARK  Name = /home/vital/Documents/PhD_2021/Malaria_codes/data/pdb_ligands_mmv/ligand_212.pdb
REMARK  8 active torsions:
REMARK  status: ('A' for Active; 'I' for Inactive)
REMARK    1  A    between atoms: C1_1  and  C2_2
REMARK    2  A    between atoms: C2_2  and  C3_3
REMARK    3  A    between atoms: C3_3  and  C4_4
REMARK    4  A    between atoms: C4_4  and  C5_5
REMARK    5  A    between atoms: C6_6  and  C7_7
REMARK    6  A    between atoms: C9_10  and  O1_11
REMARK    7  A    between atoms: O1_11  and  C10_12
REMARK    8  A    between atoms: C15_17  and  O2_18
REMARK                            x       y       z     vdW  Elec       q    Type
REMARK                         _______ _______ _______ _____ _____    ______ ____
ROOT
ATOM      1  C5  UNL     1      -2.487  -4.972 -23.323  0.00  0.00    +0.016 A 
ATOM      2  C6  UNL     1      -3.541  -4.586 -24.146  0.00  0.00    +0.046 A 
ATOM      3  C7  UNL     1      -3.795  -5.225 -25.480  0.00  0.00    +0.066 C 
ATOM      4  N1  UNL     1      -4.422  -3.616 -23.797  0.00  0.00    -0.248 NA
ATOM      5  C8  UNL     1      -4.289  -2.947 -22.630  0.00  0.00    +0.116 A 
ATOM      6  C9  UNL     1      -5.196  -1.924 -22.286  0.00  0.00    +0.146 A 
ATOM      7  C11 UNL     1      -5.060  -1.208 -21.088  0.00  0.00    +0.048 A 
ATOM      8  C12 UNL     1      -4.012  -1.491 -20.223  0.00  0.00    +0.004 A 
ATOM      9  C13 UNL     1      -3.109  -2.499 -20.545  0.00  0.00    +0.014 A 
ATOM     10  C14 UNL     1      -3.242  -3.248 -21.737  0.00  0.00    +0.046 A 
ATOM     11  C15 UNL     1      -2.363  -4.290 -22.108  0.00  0.00    +0.131 A 
ENDROOT
BRANCH   6  12
ATOM     12  O1  UNL     1      -6.205  -1.691 -23.197  0.00  0.00    -0.493 OA
ATOM     13  C10 UNL     1      -6.324  -0.387 -23.744  0.00  0.00    +0.277 C 
ENDBRANCH   6  12
BRANCH  11  14
ATOM     14  O2  UNL     1      -1.339  -4.684 -21.279  0.00  0.00    -0.506 OA
ATOM     15  H19 UNL     1      -1.152  -3.956 -20.664  0.00  0.00    +0.292 HD
ENDBRANCH  11  14
BRANCH   1  16
ATOM     16  C4  UNL     1      -1.503  -6.048 -23.716  0.00  0.00    +0.040 C 
BRANCH  16  17
ATOM     17  C3  UNL     1      -0.232  -5.460 -24.333  0.00  0.00    +0.005 C 
BRANCH  17  19
ATOM     18  C1  UNL     1      -0.458  -6.270 -26.710  0.00  0.00    +0.004 C 
ATOM     19  C2  UNL     1       0.334  -6.379 -25.417  0.00  0.00    -0.003 C 
ENDBRANCH  17  19
ENDBRANCH  16  17
ENDBRANCH   1  16
TORSDOF 5
ENDMDL
MODEL 8
REMARK VINA RESULT:    -4.746     11.191     13.699
REMARK INTER + INTRA:          -6.424
REMARK INTER:                  -6.078
REMARK INTRA:                  -0.346
REMARK UNBOUND:                -0.429
REMARK  Name = /home/vital/Documents/PhD_2021/Malaria_codes/data/pdb_ligands_mmv/ligand_212.pdb
REMARK  8 active torsions:
REMARK  status: ('A' for Active; 'I' for Inactive)
REMARK    1  A    between atoms: C1_1  and  C2_2
REMARK    2  A    between atoms: C2_2  and  C3_3
REMARK    3  A    between atoms: C3_3  and  C4_4
REMARK    4  A    between atoms: C4_4  and  C5_5
REMARK    5  A    between atoms: C6_6  and  C7_7
REMARK    6  A    between atoms: C9_10  and  O1_11
REMARK    7  A    between atoms: O1_11  and  C10_12
REMARK    8  A    between atoms: C15_17  and  O2_18
REMARK                            x       y       z     vdW  Elec       q    Type
REMARK                         _______ _______ _______ _____ _____    ______ ____
ROOT
ATOM      1  C5  UNL     1       5.918  -3.225 -21.668  0.00  0.00    +0.016 A 
ATOM      2  C6  UNL     1       6.831  -2.232 -22.007  0.00  0.00    +0.046 A 
ATOM      3  C7  UNL     1       7.152  -1.087 -21.091  0.00  0.00    +0.066 C 
ATOM      4  N1  UNL     1       7.508  -2.233 -23.182  0.00  0.00    -0.248 NA
ATOM      5  C8  UNL     1       7.293  -3.198 -24.104  0.00  0.00    +0.116 A 
ATOM      6  C9  UNL     1       7.984  -3.179 -25.333  0.00  0.00    +0.146 A 
ATOM      7  C11 UNL     1       7.757  -4.162 -26.306  0.00  0.00    +0.048 A 
ATOM      8  C12 UNL     1       6.830  -5.170 -26.077  0.00  0.00    +0.004 A 
ATOM      9  C13 UNL     1       6.140  -5.206 -24.869  0.00  0.00    +0.014 A 
ATOM     10  C14 UNL     1       6.371  -4.237 -23.865  0.00  0.00    +0.046 A 
ATOM     11  C15 UNL     1       5.710  -4.232 -22.616  0.00  0.00    +0.131 A 
ENDROOT
BRANCH   6  12
ATOM     12  O1  UNL     1       8.880  -2.144 -25.495  0.00  0.00    -0.493 OA
ATOM     13  C10 UNL     1       8.512  -1.067 -26.343  0.00  0.00    +0.277 C 
ENDBRANCH   6  12
BRANCH  11  14
ATOM     14  O2  UNL     1       4.828  -5.231 -22.276  0.00  0.00    -0.506 OA
ATOM     15  H19 UNL     1       5.257  -5.800 -21.616  0.00  0.00    +0.292 HD
ENDBRANCH  11  14
BRANCH   1  16
ATOM     16  C4  UNL     1       5.161  -3.219 -20.361  0.00  0.00    +0.040 C 
BRANCH  16  17
ATOM     17  C3  UNL     1       3.781  -2.571 -20.505  0.00  0.00    +0.005 C 
BRANCH  17  19
ATOM     18  C1  UNL     1       1.853  -4.187 -20.343  0.00  0.00    +0.004 C 
ATOM     19  C2  UNL     1       2.759  -3.233 -19.580  0.00  0.00    -0.003 C 
ENDBRANCH  17  19
ENDBRANCH  16  17
ENDBRANCH   1  16
TORSDOF 5
ENDMDL
MODEL 9
REMARK VINA RESULT:    -4.663      2.405      3.706
REMARK INTER + INTRA:          -6.318
REMARK INTER:                  -5.866
REMARK INTRA:                  -0.452
REMARK UNBOUND:                -0.429
REMARK  Name = /home/vital/Documents/PhD_2021/Malaria_codes/data/pdb_ligands_mmv/ligand_212.pdb
REMARK  8 active torsions:
REMARK  status: ('A' for Active; 'I' for Inactive)
REMARK    1  A    between atoms: C1_1  and  C2_2
REMARK    2  A    between atoms: C2_2  and  C3_3
REMARK    3  A    between atoms: C3_3  and  C4_4
REMARK    4  A    between atoms: C4_4  and  C5_5
REMARK    5  A    between atoms: C6_6  and  C7_7
REMARK    6  A    between atoms: C9_10  and  O1_11
REMARK    7  A    between atoms: O1_11  and  C10_12
REMARK    8  A    between atoms: C15_17  and  O2_18
REMARK                            x       y       z     vdW  Elec       q    Type
REMARK                         _______ _______ _______ _____ _____    ______ ____
ROOT
ATOM      1  C5  UNL     1       3.028  -3.638 -33.335  0.00  0.00    +0.016 A 
ATOM      2  C6  UNL     1       1.691  -3.253 -33.344  0.00  0.00    +0.046 A 
ATOM      3  C7  UNL     1       1.265  -1.823 -33.182  0.00  0.00    +0.066 C 
ATOM      4  N1  UNL     1       0.678  -4.138 -33.513  0.00  0.00    -0.248 NA
ATOM      5  C8  UNL     1       0.928  -5.460 -33.648  0.00  0.00    +0.116 A 
ATOM      6  C9  UNL     1      -0.132  -6.376 -33.800  0.00  0.00    +0.146 A 
ATOM      7  C11 UNL     1       0.110  -7.751 -33.920  0.00  0.00    +0.048 A 
ATOM      8  C12 UNL     1       1.411  -8.236 -33.878  0.00  0.00    +0.004 A 
ATOM      9  C13 UNL     1       2.470  -7.347 -33.730  0.00  0.00    +0.014 A 
ATOM     10  C14 UNL     1       2.248  -5.953 -33.630  0.00  0.00    +0.046 A 
ATOM     11  C15 UNL     1       3.286  -5.004 -33.492  0.00  0.00    +0.131 A 
ENDROOT
BRANCH   6  12
ATOM     12  O1  UNL     1      -1.396  -5.825 -33.823  0.00  0.00    -0.493 OA
ATOM     13  C10 UNL     1      -2.345  -6.365 -34.731  0.00  0.00    +0.277 C 
ENDBRANCH   6  12
BRANCH  11  14
ATOM     14  O2  UNL     1       4.606  -5.388 -33.511  0.00  0.00    -0.506 OA
ATOM     15  H19 UNL     1       5.054  -4.961 -32.763  0.00  0.00    +0.292 HD
ENDBRANCH  11  14
BRANCH   1  16
ATOM     16  C4  UNL     1       4.156  -2.651 -33.141  0.00  0.00    +0.040 C 
BRANCH  16  17
ATOM     17  C3  UNL     1       4.430  -2.385 -31.659  0.00  0.00    +0.005 C 
BRANCH  17  19
ATOM     18  C1  UNL     1       5.766  -4.071 -30.344  0.00  0.00    +0.004 C 
ATOM     19  C2  UNL     1       5.828  -2.860 -31.261  0.00  0.00    -0.003 C 
ENDBRANCH  17  19
ENDBRANCH  16  17
ENDBRANCH   1  16
TORSDOF 5
ENDMDL
