MODEL 1
REMARK VINA RESULT:    -4.359      0.000      0.000
REMARK INTER + INTRA:          -5.613
REMARK INTER:                  -5.123
REMARK INTRA:                  -0.490
REMARK UNBOUND:                -0.490
REMARK  Name = /home/vital/Documents/PhD_2021/Malaria_codes/data/pdb_ligands_mmv/ligand_203.pdb
REMARK  4 active torsions:
REMARK  status: ('A' for Active; 'I' for Inactive)
REMARK    1  A    between atoms: C1_1  and  C2_2
REMARK    2  A    between atoms: N1_5  and  C5_6
REMARK    3  A    between atoms: N3_15  and  C12_16
REMARK    4  A    between atoms: C12_16  and  C13_17
REMARK                            x       y       z     vdW  Elec       q    Type
REMARK                         _______ _______ _______ _____ _____    ______ ____
ROOT
ATOM      1  C1  UNL     1      13.693  41.431  29.244  0.00  0.00    +0.066 C 
ATOM      2  C2  UNL     1      13.998  42.872  29.513  0.00  0.00    +0.045 A 
ATOM      3  C3  UNL     1      14.432  43.695  28.498  0.00  0.00    +0.067 A 
ATOM      4  C4  UNL     1      14.689  45.007  28.831  0.00  0.00    +0.128 A 
ATOM      5  N1  UNL     1      15.160  45.939  27.898  0.00  0.00    -0.299 N 
ATOM      6  N2  UNL     1      14.562  45.457  30.091  0.00  0.00    -0.199 NA
ATOM      7  C11 UNL     1      14.124  44.598  31.018  0.00  0.00    +0.217 A 
ATOM      8  N3  UNL     1      13.980  45.117  32.295  0.00  0.00    -0.309 N 
ATOM      9  N4  UNL     1      13.838  43.314  30.774  0.00  0.00    -0.220 NA
ATOM     10  H5  UNL     1      15.328  46.814  28.389  0.00  0.00    +0.154 HD
ATOM     11  H10 UNL     1      14.524  45.971  32.329  0.00  0.00    +0.149 HD
ENDROOT
BRANCH   5  12
ATOM     12  C5  UNL     1      14.849  46.136  26.539  0.00  0.00    +0.035 A 
ATOM     13  C6  UNL     1      14.023  47.223  26.202  0.00  0.00    +0.023 A 
ATOM     14  C7  UNL     1      13.690  47.497  24.872  0.00  0.00    +0.005 A 
ATOM     15  C8  UNL     1      14.183  46.686  23.855  0.00  0.00    +0.038 A 
ATOM     16  C9  UNL     1      15.000  45.610  24.182  0.00  0.00    +0.125 A 
ATOM     17  F1  UNL     1      15.470  44.823  23.206  0.00  0.00    -0.205 F 
ATOM     18  C10 UNL     1      15.335  45.332  25.506  0.00  0.00    +0.061 A 
ENDBRANCH   5  12
BRANCH   8  19
ATOM     19  C12 UNL     1      14.264  44.171  33.354  0.00  0.00    +0.139 C 
BRANCH  19  20
ATOM     20  C13 UNL     1      15.272  44.780  34.302  0.00  0.00    -0.030 A 
ATOM     21  C14 UNL     1      15.332  44.355  35.638  0.00  0.00    +0.005 A 
ATOM     22  C15 UNL     1      16.253  44.919  36.521  0.00  0.00    +0.000 A 
ATOM     23  C16 UNL     1      17.121  45.917  36.079  0.00  0.00    +0.000 A 
ATOM     24  C17 UNL     1      17.065  46.353  34.757  0.00  0.00    +0.000 A 
ATOM     25  C18 UNL     1      16.144  45.790  33.871  0.00  0.00    +0.005 A 
ENDBRANCH  19  20
ENDBRANCH   8  19
TORSDOF 3
ENDMDL
MODEL 2
REMARK VINA RESULT:    -4.358      8.833     12.532
REMARK INTER + INTRA:          -5.612
REMARK INTER:                  -5.031
REMARK INTRA:                  -0.581
REMARK UNBOUND:                -0.490
REMARK  Name = /home/vital/Documents/PhD_2021/Malaria_codes/data/pdb_ligands_mmv/ligand_203.pdb
REMARK  4 active torsions:
REMARK  status: ('A' for Active; 'I' for Inactive)
REMARK    1  A    between atoms: C1_1  and  C2_2
REMARK    2  A    between atoms: N1_5  and  C5_6
REMARK    3  A    between atoms: N3_15  and  C12_16
REMARK    4  A    between atoms: C12_16  and  C13_17
REMARK                            x       y       z     vdW  Elec       q    Type
REMARK                         _______ _______ _______ _____ _____    ______ ____
ROOT
ATOM      1  C1  UNL     1      21.280  43.456  20.298  0.00  0.00    +0.066 C 
ATOM      2  C2  UNL     1      20.890  44.850  19.917  0.00  0.00    +0.045 A 
ATOM      3  C3  UNL     1      21.569  45.517  18.921  0.00  0.00    +0.067 A 
ATOM      4  C4  UNL     1      21.146  46.796  18.632  0.00  0.00    +0.128 A 
ATOM      5  N1  UNL     1      21.768  47.590  17.660  0.00  0.00    -0.299 N 
ATOM      6  N2  UNL     1      20.146  47.383  19.310  0.00  0.00    -0.199 NA
ATOM      7  C11 UNL     1      19.529  46.665  20.256  0.00  0.00    +0.217 A 
ATOM      8  N3  UNL     1      18.484  47.303  20.906  0.00  0.00    -0.309 N 
ATOM      9  N4  UNL     1      19.868  45.413  20.587  0.00  0.00    -0.220 NA
ATOM     10  H5  UNL     1      21.319  48.502  17.669  0.00  0.00    +0.154 HD
ATOM     11  H10 UNL     1      18.595  48.296  20.738  0.00  0.00    +0.149 HD
ENDROOT
BRANCH   5  12
ATOM     12  C5  UNL     1      22.307  47.269  16.400  0.00  0.00    +0.035 A 
ATOM     13  C6  UNL     1      23.680  47.490  16.194  0.00  0.00    +0.023 A 
ATOM     14  C7  UNL     1      24.293  47.174  14.977  0.00  0.00    +0.005 A 
ATOM     15  C8  UNL     1      23.538  46.628  13.945  0.00  0.00    +0.038 A 
ATOM     16  C9  UNL     1      22.180  46.407  14.143  0.00  0.00    +0.125 A 
ATOM     17  F1  UNL     1      21.448  45.887  13.148  0.00  0.00    -0.205 F 
ATOM     18  C10 UNL     1      21.564  46.720  15.352  0.00  0.00    +0.061 A 
ENDBRANCH   5  12
BRANCH   8  19
ATOM     19  C12 UNL     1      18.341  46.933  22.299  0.00  0.00    +0.139 C 
BRANCH  19  20
ATOM     20  C13 UNL     1      16.898  46.567  22.566  0.00  0.00    -0.030 A 
ATOM     21  C14 UNL     1      16.579  45.332  23.151  0.00  0.00    +0.005 A 
ATOM     22  C15 UNL     1      15.249  44.984  23.391  0.00  0.00    +0.000 A 
ATOM     23  C16 UNL     1      14.225  45.865  23.045  0.00  0.00    +0.000 A 
ATOM     24  C17 UNL     1      14.529  47.090  22.456  0.00  0.00    +0.000 A 
ATOM     25  C18 UNL     1      15.860  47.440  22.214  0.00  0.00    +0.005 A 
ENDBRANCH  19  20
ENDBRANCH   8  19
TORSDOF 3
ENDMDL
MODEL 3
REMARK VINA RESULT:    -4.190     17.833     20.296
REMARK INTER + INTRA:          -5.414
REMARK INTER:                  -4.818
REMARK INTRA:                  -0.597
REMARK UNBOUND:                -0.490
REMARK  Name = /home/vital/Documents/PhD_2021/Malaria_codes/data/pdb_ligands_mmv/ligand_203.pdb
REMARK  4 active torsions:
REMARK  status: ('A' for Active; 'I' for Inactive)
REMARK    1  A    between atoms: C1_1  and  C2_2
REMARK    2  A    between atoms: N1_5  and  C5_6
REMARK    3  A    between atoms: N3_15  and  C12_16
REMARK    4  A    between atoms: C12_16  and  C13_17
REMARK                            x       y       z     vdW  Elec       q    Type
REMARK                         _______ _______ _______ _____ _____    ______ ____
ROOT
ATOM      1  C1  UNL     1      17.697  29.363  19.795  0.00  0.00    +0.066 C 
ATOM      2  C2  UNL     1      16.303  28.816  19.807  0.00  0.00    +0.045 A 
ATOM      3  C3  UNL     1      15.706  28.402  18.637  0.00  0.00    +0.067 A 
ATOM      4  C4  UNL     1      14.422  27.911  18.735  0.00  0.00    +0.128 A 
ATOM      5  N1  UNL     1      13.696  27.482  17.618  0.00  0.00    -0.299 N 
ATOM      6  N2  UNL     1      13.766  27.872  19.907  0.00  0.00    -0.199 NA
ATOM      7  C11 UNL     1      14.419  28.282  21.001  0.00  0.00    +0.217 A 
ATOM      8  N3  UNL     1      13.710  28.193  22.189  0.00  0.00    -0.309 N 
ATOM      9  N4  UNL     1      15.670  28.757  20.992  0.00  0.00    -0.220 NA
ATOM     10  H5  UNL     1      12.765  27.220  17.933  0.00  0.00    +0.154 HD
ATOM     11  H10 UNL     1      12.730  28.116  21.943  0.00  0.00    +0.149 HD
ENDROOT
BRANCH   5  12
ATOM     12  C5  UNL     1      14.090  26.778  16.463  0.00  0.00    +0.035 A 
ATOM     13  C6  UNL     1      14.032  27.449  15.230  0.00  0.00    +0.023 A 
ATOM     14  C7  UNL     1      14.430  26.825  14.043  0.00  0.00    +0.005 A 
ATOM     15  C8  UNL     1      14.894  25.514  14.075  0.00  0.00    +0.038 A 
ATOM     16  C9  UNL     1      14.952  24.845  15.291  0.00  0.00    +0.125 A 
ATOM     17  F1  UNL     1      15.392  23.580  15.324  0.00  0.00    -0.205 F 
ATOM     18  C10 UNL     1      14.558  25.462  16.477  0.00  0.00    +0.061 A 
ENDBRANCH   5  12
BRANCH   8  19
ATOM     19  C12 UNL     1      14.019  29.241  23.140  0.00  0.00    +0.139 C 
BRANCH  19  20
ATOM     20  C13 UNL     1      14.377  28.612  24.468  0.00  0.00    -0.030 A 
ATOM     21  C14 UNL     1      13.712  29.006  25.638  0.00  0.00    +0.005 A 
ATOM     22  C15 UNL     1      14.044  28.437  26.868  0.00  0.00    +0.000 A 
ATOM     23  C16 UNL     1      15.048  27.471  26.941  0.00  0.00    +0.000 A 
ATOM     24  C17 UNL     1      15.721  27.078  25.786  0.00  0.00    +0.000 A 
ATOM     25  C18 UNL     1      15.390  27.647  24.554  0.00  0.00    +0.005 A 
ENDBRANCH  19  20
ENDBRANCH   8  19
TORSDOF 3
ENDMDL
MODEL 4
REMARK VINA RESULT:    -4.160     15.298     18.785
REMARK INTER + INTRA:          -5.379
REMARK INTER:                  -4.755
REMARK INTRA:                  -0.624
REMARK UNBOUND:                -0.490
REMARK  Name = /home/vital/Documents/PhD_2021/Malaria_codes/data/pdb_ligands_mmv/ligand_203.pdb
REMARK  4 active torsions:
REMARK  status: ('A' for Active; 'I' for Inactive)
REMARK    1  A    between atoms: C1_1  and  C2_2
REMARK    2  A    between atoms: N1_5  and  C5_6
REMARK    3  A    between atoms: N3_15  and  C12_16
REMARK    4  A    between atoms: C12_16  and  C13_17
REMARK                            x       y       z     vdW  Elec       q    Type
REMARK                         _______ _______ _______ _____ _____    ______ ____
ROOT
ATOM      1  C1  UNL     1      18.438  33.531  17.657  0.00  0.00    +0.066 C 
ATOM      2  C2  UNL     1      17.079  33.736  17.062  0.00  0.00    +0.045 A 
ATOM      3  C3  UNL     1      16.688  33.018  15.954  0.00  0.00    +0.067 A 
ATOM      4  C4  UNL     1      15.421  33.267  15.470  0.00  0.00    +0.128 A 
ATOM      5  N1  UNL     1      14.912  32.624  14.335  0.00  0.00    -0.299 N 
ATOM      6  N2  UNL     1      14.619  34.191  16.024  0.00  0.00    -0.199 NA
ATOM      7  C11 UNL     1      15.069  34.839  17.106  0.00  0.00    +0.217 A 
ATOM      8  N3  UNL     1      14.193  35.760  17.659  0.00  0.00    -0.309 N 
ATOM      9  N4  UNL     1      16.277  34.645  17.646  0.00  0.00    -0.220 NA
ATOM     10  H5  UNL     1      13.992  33.011  14.144  0.00  0.00    +0.154 HD
ATOM     11  H10 UNL     1      13.501  35.972  16.950  0.00  0.00    +0.149 HD
ENDROOT
BRANCH   5  12
ATOM     12  C5  UNL     1      15.043  31.298  13.878  0.00  0.00    +0.035 A 
ATOM     13  C6  UNL     1      15.846  31.067  12.747  0.00  0.00    +0.023 A 
ATOM     14  C7  UNL     1      16.043  29.776  12.247  0.00  0.00    +0.005 A 
ATOM     15  C8  UNL     1      15.439  28.693  12.877  0.00  0.00    +0.038 A 
ATOM     16  C9  UNL     1      14.645  28.915  13.995  0.00  0.00    +0.125 A 
ATOM     17  F1  UNL     1      14.056  27.874  14.599  0.00  0.00    -0.205 F 
ATOM     18  C10 UNL     1      14.444  30.199  14.497  0.00  0.00    +0.061 A 
ENDBRANCH   5  12
BRANCH   8  19
ATOM     19  C12 UNL     1      14.842  36.915  18.243  0.00  0.00    +0.139 C 
BRANCH  19  20
ATOM     20  C13 UNL     1      14.762  38.070  17.269  0.00  0.00    -0.030 A 
ATOM     21  C14 UNL     1      15.644  39.154  17.385  0.00  0.00    +0.005 A 
ATOM     22  C15 UNL     1      15.569  40.228  16.497  0.00  0.00    +0.000 A 
ATOM     23  C16 UNL     1      14.609  40.229  15.485  0.00  0.00    +0.000 A 
ATOM     24  C17 UNL     1      13.722  39.161  15.365  0.00  0.00    +0.000 A 
ATOM     25  C18 UNL     1      13.795  38.087  16.254  0.00  0.00    +0.005 A 
ENDBRANCH  19  20
ENDBRANCH   8  19
TORSDOF 3
ENDMDL
MODEL 5
REMARK VINA RESULT:    -4.077     20.352     21.930
REMARK INTER + INTRA:          -5.281
REMARK INTER:                  -4.698
REMARK INTRA:                  -0.584
REMARK UNBOUND:                -0.490
REMARK  Name = /home/vital/Documents/PhD_2021/Malaria_codes/data/pdb_ligands_mmv/ligand_203.pdb
REMARK  4 active torsions:
REMARK  status: ('A' for Active; 'I' for Inactive)
REMARK    1  A    between atoms: C1_1  and  C2_2
REMARK    2  A    between atoms: N1_5  and  C5_6
REMARK    3  A    between atoms: N3_15  and  C12_16
REMARK    4  A    between atoms: C12_16  and  C13_17
REMARK                            x       y       z     vdW  Elec       q    Type
REMARK                         _______ _______ _______ _____ _____    ______ ____
ROOT
ATOM      1  C1  UNL     1      20.129  26.976  18.188  0.00  0.00    +0.066 C 
ATOM      2  C2  UNL     1      18.874  26.456  18.818  0.00  0.00    +0.045 A 
ATOM      3  C3  UNL     1      17.661  26.606  18.182  0.00  0.00    +0.067 A 
ATOM      4  C4  UNL     1      16.555  26.099  18.830  0.00  0.00    +0.128 A 
ATOM      5  N1  UNL     1      15.262  26.209  18.304  0.00  0.00    -0.299 N 
ATOM      6  N2  UNL     1      16.645  25.522  20.040  0.00  0.00    -0.199 NA
ATOM      7  C11 UNL     1      17.860  25.404  20.586  0.00  0.00    +0.217 A 
ATOM      8  N3  UNL     1      17.904  24.774  21.820  0.00  0.00    -0.309 N 
ATOM      9  N4  UNL     1      18.984  25.855  20.016  0.00  0.00    -0.220 NA
ATOM     10  H5  UNL     1      14.615  25.816  18.982  0.00  0.00    +0.154 HD
ATOM     11  H10 UNL     1      16.964  24.798  22.196  0.00  0.00    +0.149 HD
ENDROOT
BRANCH   5  12
ATOM     12  C5  UNL     1      14.781  26.112  16.984  0.00  0.00    +0.035 A 
ATOM     13  C6  UNL     1      14.227  27.263  16.397  0.00  0.00    +0.023 A 
ATOM     14  C7  UNL     1      13.751  27.251  15.082  0.00  0.00    +0.005 A 
ATOM     15  C8  UNL     1      13.825  26.082  14.332  0.00  0.00    +0.038 A 
ATOM     16  C9  UNL     1      14.370  24.941  14.907  0.00  0.00    +0.125 A 
ATOM     17  F1  UNL     1      14.436  23.811  14.189  0.00  0.00    -0.205 F 
ATOM     18  C10 UNL     1      14.847  24.947  16.216  0.00  0.00    +0.061 A 
ENDBRANCH   5  12
BRANCH   8  19
ATOM     19  C12 UNL     1      18.929  25.283  22.707  0.00  0.00    +0.139 C 
BRANCH  19  20
ATOM     20  C13 UNL     1      18.318  25.552  24.064  0.00  0.00    -0.030 A 
ATOM     21  C14 UNL     1      18.904  25.020  25.221  0.00  0.00    +0.005 A 
ATOM     22  C15 UNL     1      18.339  25.256  26.476  0.00  0.00    +0.000 A 
ATOM     23  C16 UNL     1      17.180  26.023  26.585  0.00  0.00    +0.000 A 
ATOM     24  C17 UNL     1      16.584  26.550  25.441  0.00  0.00    +0.000 A 
ATOM     25  C18 UNL     1      17.147  26.315  24.185  0.00  0.00    +0.005 A 
ENDBRANCH  19  20
ENDBRANCH   8  19
TORSDOF 3
ENDMDL
MODEL 6
REMARK VINA RESULT:    -4.050      6.252      9.035
REMARK INTER + INTRA:          -5.250
REMARK INTER:                  -4.699
REMARK INTRA:                  -0.551
REMARK UNBOUND:                -0.490
REMARK  Name = /home/vital/Documents/PhD_2021/Malaria_codes/data/pdb_ligands_mmv/ligand_203.pdb
REMARK  4 active torsions:
REMARK  status: ('A' for Active; 'I' for Inactive)
REMARK    1  A    between atoms: C1_1  and  C2_2
REMARK    2  A    between atoms: N1_5  and  C5_6
REMARK    3  A    between atoms: N3_15  and  C12_16
REMARK    4  A    between atoms: C12_16  and  C13_17
REMARK                            x       y       z     vdW  Elec       q    Type
REMARK                         _______ _______ _______ _____ _____    ______ ____
ROOT
ATOM      1  C1  UNL     1      19.432  42.647  22.424  0.00  0.00    +0.066 C 
ATOM      2  C2  UNL     1      19.361  44.138  22.545  0.00  0.00    +0.045 A 
ATOM      3  C3  UNL     1      20.110  44.941  21.713  0.00  0.00    +0.067 A 
ATOM      4  C4  UNL     1      19.987  46.303  21.890  0.00  0.00    +0.128 A 
ATOM      5  N1  UNL     1      20.712  47.226  21.128  0.00  0.00    -0.299 N 
ATOM      6  N2  UNL     1      19.206  46.825  22.850  0.00  0.00    -0.199 NA
ATOM      7  C11 UNL     1      18.501  45.979  23.610  0.00  0.00    +0.217 A 
ATOM      8  N3  UNL     1      17.688  46.567  24.565  0.00  0.00    -0.309 N 
ATOM      9  N4  UNL     1      18.553  44.646  23.492  0.00  0.00    -0.220 NA
ATOM     10  H5  UNL     1      20.497  48.157  21.478  0.00  0.00    +0.154 HD
ATOM     11  H10 UNL     1      18.022  47.515  24.693  0.00  0.00    +0.149 HD
ENDROOT
BRANCH   5  12
ATOM     12  C5  UNL     1      21.071  47.234  19.766  0.00  0.00    +0.035 A 
ATOM     13  C6  UNL     1      20.073  47.532  18.822  0.00  0.00    +0.023 A 
ATOM     14  C7  UNL     1      20.358  47.583  17.454  0.00  0.00    +0.005 A 
ATOM     15  C8  UNL     1      21.653  47.337  17.009  0.00  0.00    +0.038 A 
ATOM     16  C9  UNL     1      22.644  47.041  17.937  0.00  0.00    +0.125 A 
ATOM     17  F1  UNL     1      23.890  46.797  17.511  0.00  0.00    -0.205 F 
ATOM     18  C10 UNL     1      22.366  46.990  19.302  0.00  0.00    +0.061 A 
ENDBRANCH   5  12
BRANCH   8  19
ATOM     19  C12 UNL     1      17.556  45.796  25.785  0.00  0.00    +0.139 C 
BRANCH  19  20
ATOM     20  C13 UNL     1      16.242  46.143  26.447  0.00  0.00    -0.030 A 
ATOM     21  C14 UNL     1      16.062  45.919  27.820  0.00  0.00    +0.005 A 
ATOM     22  C15 UNL     1      14.848  46.227  28.436  0.00  0.00    +0.000 A 
ATOM     23  C16 UNL     1      13.801  46.758  27.685  0.00  0.00    +0.000 A 
ATOM     24  C17 UNL     1      13.965  46.977  26.319  0.00  0.00    +0.000 A 
ATOM     25  C18 UNL     1      15.178  46.669  25.700  0.00  0.00    +0.005 A 
ENDBRANCH  19  20
ENDBRANCH   8  19
TORSDOF 3
ENDMDL
MODEL 7
REMARK VINA RESULT:    -3.954     20.266     23.554
REMARK INTER + INTRA:          -5.136
REMARK INTER:                  -4.512
REMARK INTRA:                  -0.624
REMARK UNBOUND:                -0.490
REMARK  Name = /home/vital/Documents/PhD_2021/Malaria_codes/data/pdb_ligands_mmv/ligand_203.pdb
REMARK  4 active torsions:
REMARK  status: ('A' for Active; 'I' for Inactive)
REMARK    1  A    between atoms: C1_1  and  C2_2
REMARK    2  A    between atoms: N1_5  and  C5_6
REMARK    3  A    between atoms: N3_15  and  C12_16
REMARK    4  A    between atoms: C12_16  and  C13_17
REMARK                            x       y       z     vdW  Elec       q    Type
REMARK                         _______ _______ _______ _____ _____    ______ ____
ROOT
ATOM      1  C1  UNL     1      14.452  28.470  20.171  0.00  0.00    +0.066 C 
ATOM      2  C2  UNL     1      15.045  27.744  19.003  0.00  0.00    +0.045 A 
ATOM      3  C3  UNL     1      16.192  26.997  19.155  0.00  0.00    +0.067 A 
ATOM      4  C4  UNL     1      16.672  26.361  18.031  0.00  0.00    +0.128 A 
ATOM      5  N1  UNL     1      17.842  25.592  18.045  0.00  0.00    -0.299 N 
ATOM      6  N2  UNL     1      16.076  26.491  16.834  0.00  0.00    -0.199 NA
ATOM      7  C11 UNL     1      14.959  27.225  16.771  0.00  0.00    +0.217 A 
ATOM      8  N3  UNL     1      14.364  27.305  15.521  0.00  0.00    -0.309 N 
ATOM      9  N4  UNL     1      14.420  27.862  17.818  0.00  0.00    -0.220 NA
ATOM     10  H5  UNL     1      18.020  25.277  17.095  0.00  0.00    +0.154 HD
ATOM     11  H10 UNL     1      15.066  27.034  14.843  0.00  0.00    +0.149 HD
ENDROOT
BRANCH   5  12
ATOM     12  C5  UNL     1      18.367  24.712  19.011  0.00  0.00    +0.035 A 
ATOM     13  C6  UNL     1      17.662  23.525  19.275  0.00  0.00    +0.023 A 
ATOM     14  C7  UNL     1      18.133  22.590  20.202  0.00  0.00    +0.005 A 
ATOM     15  C8  UNL     1      19.323  22.831  20.880  0.00  0.00    +0.038 A 
ATOM     16  C9  UNL     1      20.025  24.002  20.624  0.00  0.00    +0.125 A 
ATOM     17  F1  UNL     1      21.168  24.240  21.281  0.00  0.00    -0.205 F 
ATOM     18  C10 UNL     1      19.561  24.937  19.701  0.00  0.00    +0.061 A 
ENDBRANCH   5  12
BRANCH   8  19
ATOM     19  C12 UNL     1      13.716  28.572  15.254  0.00  0.00    +0.139 C 
BRANCH  19  20
ATOM     20  C13 UNL     1      14.500  29.313  14.195  0.00  0.00    -0.030 A 
ATOM     21  C14 UNL     1      14.495  30.715  14.163  0.00  0.00    +0.005 A 
ATOM     22  C15 UNL     1      15.208  31.406  13.182  0.00  0.00    +0.000 A 
ATOM     23  C16 UNL     1      15.931  30.700  12.220  0.00  0.00    +0.000 A 
ATOM     24  C17 UNL     1      15.937  29.307  12.237  0.00  0.00    +0.000 A 
ATOM     25  C18 UNL     1      15.223  28.615  13.217  0.00  0.00    +0.005 A 
ENDBRANCH  19  20
ENDBRANCH   8  19
TORSDOF 3
ENDMDL
MODEL 8
REMARK VINA RESULT:    -3.786     29.488     31.637
REMARK INTER + INTRA:          -4.940
REMARK INTER:                  -4.348
REMARK INTRA:                  -0.592
REMARK UNBOUND:                -0.490
REMARK  Name = /home/vital/Documents/PhD_2021/Malaria_codes/data/pdb_ligands_mmv/ligand_203.pdb
REMARK  4 active torsions:
REMARK  status: ('A' for Active; 'I' for Inactive)
REMARK    1  A    between atoms: C1_1  and  C2_2
REMARK    2  A    between atoms: N1_5  and  C5_6
REMARK    3  A    between atoms: N3_15  and  C12_16
REMARK    4  A    between atoms: C12_16  and  C13_17
REMARK                            x       y       z     vdW  Elec       q    Type
REMARK                         _______ _______ _______ _____ _____    ______ ____
ROOT
ATOM      1  C1  UNL     1      36.806  28.030  18.314  0.00  0.00    +0.066 C 
ATOM      2  C2  UNL     1      36.791  28.540  16.906  0.00  0.00    +0.045 A 
ATOM      3  C3  UNL     1      37.230  27.745  15.872  0.00  0.00    +0.067 A 
ATOM      4  C4  UNL     1      37.182  28.290  14.607  0.00  0.00    +0.128 A 
ATOM      5  N1  UNL     1      37.623  27.596  13.474  0.00  0.00    -0.299 N 
ATOM      6  N2  UNL     1      36.766  29.550  14.393  0.00  0.00    -0.199 NA
ATOM      7  C11 UNL     1      36.344  30.255  15.449  0.00  0.00    +0.217 A 
ATOM      8  N3  UNL     1      35.896  31.537  15.174  0.00  0.00    -0.309 N 
ATOM      9  N4  UNL     1      36.344  29.793  16.706  0.00  0.00    -0.220 NA
ATOM     10  H5  UNL     1      37.542  28.220  12.675  0.00  0.00    +0.154 HD
ATOM     11  H10 UNL     1      36.261  31.787  14.262  0.00  0.00    +0.149 HD
ENDROOT
BRANCH   5  12
ATOM     12  C5  UNL     1      37.513  26.240  13.109  0.00  0.00    +0.035 A 
ATOM     13  C6  UNL     1      38.690  25.474  13.055  0.00  0.00    +0.023 A 
ATOM     14  C7  UNL     1      38.659  24.116  12.724  0.00  0.00    +0.005 A 
ATOM     15  C8  UNL     1      37.442  23.502  12.445  0.00  0.00    +0.038 A 
ATOM     16  C9  UNL     1      36.275  24.254  12.497  0.00  0.00    +0.125 A 
ATOM     17  F1  UNL     1      35.103  23.666  12.221  0.00  0.00    -0.205 F 
ATOM     18  C10 UNL     1      36.300  25.607  12.825  0.00  0.00    +0.061 A 
ENDBRANCH   5  12
BRANCH   8  19
ATOM     19  C12 UNL     1      36.168  32.497  16.223  0.00  0.00    +0.139 C 
BRANCH  19  20
ATOM     20  C13 UNL     1      36.778  33.738  15.611  0.00  0.00    -0.030 A 
ATOM     21  C14 UNL     1      37.085  34.845  16.415  0.00  0.00    +0.005 A 
ATOM     22  C15 UNL     1      37.639  35.997  15.855  0.00  0.00    +0.000 A 
ATOM     23  C16 UNL     1      37.888  36.054  14.484  0.00  0.00    +0.000 A 
ATOM     24  C17 UNL     1      37.579  34.964  13.674  0.00  0.00    +0.000 A 
ATOM     25  C18 UNL     1      37.024  33.810  14.233  0.00  0.00    +0.005 A 
ENDBRANCH  19  20
ENDBRANCH   8  19
TORSDOF 3
ENDMDL
MODEL 9
REMARK VINA RESULT:    -3.499     16.410     19.881
REMARK INTER + INTRA:          -4.602
REMARK INTER:                  -4.083
REMARK INTRA:                  -0.519
REMARK UNBOUND:                -0.490
REMARK  Name = /home/vital/Documents/PhD_2021/Malaria_codes/data/pdb_ligands_mmv/ligand_203.pdb
REMARK  4 active torsions:
REMARK  status: ('A' for Active; 'I' for Inactive)
REMARK    1  A    between atoms: C1_1  and  C2_2
REMARK    2  A    between atoms: N1_5  and  C5_6
REMARK    3  A    between atoms: N3_15  and  C12_16
REMARK    4  A    between atoms: C12_16  and  C13_17
REMARK                            x       y       z     vdW  Elec       q    Type
REMARK                         _______ _______ _______ _____ _____    ______ ____
ROOT
ATOM      1  C1  UNL     1      19.369  32.235  16.395  0.00  0.00    +0.066 C 
ATOM      2  C2  UNL     1      17.945  32.456  15.987  0.00  0.00    +0.045 A 
ATOM      3  C3  UNL     1      17.261  31.486  15.290  0.00  0.00    +0.067 A 
ATOM      4  C4  UNL     1      15.954  31.769  14.954  0.00  0.00    +0.128 A 
ATOM      5  N1  UNL     1      15.158  30.878  14.224  0.00  0.00    -0.299 N 
ATOM      6  N2  UNL     1      15.384  32.947  15.255  0.00  0.00    -0.199 NA
ATOM      7  C11 UNL     1      16.112  33.834  15.944  0.00  0.00    +0.217 A 
ATOM      8  N3  UNL     1      15.470  35.022  16.258  0.00  0.00    -0.309 N 
ATOM      9  N4  UNL     1      17.380  33.630  16.322  0.00  0.00    -0.220 NA
ATOM     10  H5  UNL     1      14.263  31.329  14.052  0.00  0.00    +0.154 HD
ATOM     11  H10 UNL     1      14.672  35.098  15.637  0.00  0.00    +0.149 HD
ENDROOT
BRANCH   5  12
ATOM     12  C5  UNL     1      15.054  29.474  14.261  0.00  0.00    +0.035 A 
ATOM     13  C6  UNL     1      15.686  28.738  13.245  0.00  0.00    +0.023 A 
ATOM     14  C7  UNL     1      15.648  27.340  13.228  0.00  0.00    +0.005 A 
ATOM     15  C8  UNL     1      14.974  26.656  14.234  0.00  0.00    +0.038 A 
ATOM     16  C9  UNL     1      14.346  27.379  15.241  0.00  0.00    +0.125 A 
ATOM     17  F1  UNL     1      13.690  26.723  16.209  0.00  0.00    -0.205 F 
ATOM     18  C10 UNL     1      14.381  28.771  15.264  0.00  0.00    +0.061 A 
ENDBRANCH   5  12
BRANCH   8  19
ATOM     19  C12 UNL     1      16.341  36.178  16.274  0.00  0.00    +0.139 C 
BRANCH  19  20
ATOM     20  C13 UNL     1      15.496  37.432  16.263  0.00  0.00    -0.030 A 
ATOM     21  C14 UNL     1      15.694  38.409  15.276  0.00  0.00    +0.005 A 
ATOM     22  C15 UNL     1      14.925  39.573  15.265  0.00  0.00    +0.000 A 
ATOM     23  C16 UNL     1      13.953  39.775  16.245  0.00  0.00    +0.000 A 
ATOM     24  C17 UNL     1      13.753  38.816  17.235  0.00  0.00    +0.000 A 
ATOM     25  C18 UNL     1      14.522  37.650  17.248  0.00  0.00    +0.005 A 
ENDBRANCH  19  20
ENDBRANCH   8  19
TORSDOF 3
ENDMDL
