MODEL 1
REMARK VINA RESULT:    -3.678      0.000      0.000
REMARK INTER + INTRA:          -6.476
REMARK INTER:                  -5.506
REMARK INTRA:                  -0.970
REMARK UNBOUND:                -0.970
REMARK  Name = /home/vital/Documents/PhD_2021/Malaria_codes/data/pdb_ligands_mmv/ligand_189.pdb
REMARK  14 active torsions:
REMARK  status: ('A' for Active; 'I' for Inactive)
REMARK    1  A    between atoms: C2_3  and  O1_9
REMARK    2  A    between atoms: O1_9  and  C7_10
REMARK    3  A    between atoms: C7_10  and  C8_11
REMARK    4  A    between atoms: C8_11  and  O2_12
REMARK    5  A    between atoms: C8_11  and  C9_13
REMARK    6  A    between atoms: C9_13  and  N1_14
REMARK    7  A    between atoms: N1_14  and  C10_15
REMARK    8  A    between atoms: C10_15  and  C11_16
REMARK    9  A    between atoms: C10_15  and  C12_17
REMARK   10  A    between atoms: C10_15  and  C13_18
REMARK   11  A    between atoms: C13_18  and  C14_19
REMARK   12  A    between atoms: C14_19  and  C15_20
REMARK   13  A    between atoms: C14_19  and  C16_21
REMARK   14  A    between atoms: C14_19  and  C17_22
REMARK                            x       y       z     vdW  Elec       q    Type
REMARK                         _______ _______ _______ _____ _____    ______ ____
ROOT
ATOM      1  C8  UNL     1      15.004  24.601  15.053  0.00  0.00    +0.166 C 
ENDROOT
BRANCH   1   2
ATOM      2  O2  UNL     1      15.187  23.298  15.629  0.00  0.00    -0.387 OA
ATOM      3  H7  UNL     1      14.960  23.384  16.573  0.00  0.00    +0.210 HD
ENDBRANCH   1   2
BRANCH   1   4
ATOM      4  C7  UNL     1      13.884  25.298  15.843  0.00  0.00    +0.261 C 
BRANCH   4   5
ATOM      5  O1  UNL     1      14.023  24.950  17.234  0.00  0.00    -0.488 OA
BRANCH   5   8
ATOM      6  C1  UNL     1      15.665  25.923  18.716  0.00  0.00    +0.084 A 
ATOM      7 CL1  UNL     1      16.594  24.470  18.763  0.00  0.00    -0.080 Cl
ATOM      8  C2  UNL     1      14.499  26.019  17.947  0.00  0.00    +0.139 A 
ATOM      9  C3  UNL     1      13.742  27.193  17.958  0.00  0.00    +0.048 A 
ATOM     10  C4  UNL     1      14.172  28.285  18.716  0.00  0.00    +0.023 A 
ATOM     11  C5  UNL     1      15.346  28.192  19.465  0.00  0.00    +0.043 A 
ATOM     12 CL2  UNL     1      15.858  29.539  20.407  0.00  0.00    -0.083 Cl
ATOM     13  C6  UNL     1      16.096  27.016  19.469  0.00  0.00    +0.043 A 
ENDBRANCH   5   8
ENDBRANCH   4   5
ENDBRANCH   1   4
BRANCH   1  14
ATOM     14  C9  UNL     1      16.321  25.407  15.108  0.00  0.00    +0.116 C 
BRANCH  14  15
ATOM     15  N1  UNL     1      16.350  26.708  14.416  0.00  0.00    -0.308 NA
ATOM     16  H10 UNL     1      15.383  27.028  14.354  0.00  0.00    +0.123 HD
BRANCH  15  17
ATOM     17  C10 UNL     1      17.165  27.819  14.951  0.00  0.00    +0.014 C 
ATOM     18  C11 UNL     1      18.197  28.313  13.931  0.00  0.00    +0.027 C 
ATOM     19  C12 UNL     1      17.899  27.412  16.249  0.00  0.00    +0.027 C 
BRANCH  17  20
ATOM     20  C13 UNL     1      16.185  28.986  15.350  0.00  0.00    +0.027 C 
BRANCH  20  21
ATOM     21  C14 UNL     1      15.038  29.493  14.414  0.00  0.00    -0.036 C 
ATOM     22  C15 UNL     1      13.692  28.789  14.641  0.00  0.00    +0.010 C 
ATOM     23  C16 UNL     1      14.838  30.999  14.715  0.00  0.00    +0.010 C 
ATOM     24  C17 UNL     1      15.418  29.383  12.924  0.00  0.00    +0.010 C 
ENDBRANCH  20  21
ENDBRANCH  17  20
ENDBRANCH  15  17
ENDBRANCH  14  15
ENDBRANCH   1  14
TORSDOF 9
ENDMDL
MODEL 2
REMARK VINA RESULT:    -3.385      2.376      4.399
REMARK INTER + INTRA:          -6.037
REMARK INTER:                  -5.060
REMARK INTRA:                  -0.977
REMARK UNBOUND:                -0.970
REMARK  Name = /home/vital/Documents/PhD_2021/Malaria_codes/data/pdb_ligands_mmv/ligand_189.pdb
REMARK  14 active torsions:
REMARK  status: ('A' for Active; 'I' for Inactive)
REMARK    1  A    between atoms: C2_3  and  O1_9
REMARK    2  A    between atoms: O1_9  and  C7_10
REMARK    3  A    between atoms: C7_10  and  C8_11
REMARK    4  A    between atoms: C8_11  and  O2_12
REMARK    5  A    between atoms: C8_11  and  C9_13
REMARK    6  A    between atoms: C9_13  and  N1_14
REMARK    7  A    between atoms: N1_14  and  C10_15
REMARK    8  A    between atoms: C10_15  and  C11_16
REMARK    9  A    between atoms: C10_15  and  C12_17
REMARK   10  A    between atoms: C10_15  and  C13_18
REMARK   11  A    between atoms: C13_18  and  C14_19
REMARK   12  A    between atoms: C14_19  and  C15_20
REMARK   13  A    between atoms: C14_19  and  C16_21
REMARK   14  A    between atoms: C14_19  and  C17_22
REMARK                            x       y       z     vdW  Elec       q    Type
REMARK                         _______ _______ _______ _____ _____    ______ ____
ROOT
ATOM      1  C8  UNL     1      14.986  24.533  15.251  0.00  0.00    +0.166 C 
ENDROOT
BRANCH   1   2
ATOM      2  O2  UNL     1      14.755  23.310  14.534  0.00  0.00    -0.387 OA
ATOM      3  H7  UNL     1      15.009  22.588  15.139  0.00  0.00    +0.210 HD
ENDBRANCH   1   2
BRANCH   1   4
ATOM      4  C7  UNL     1      13.876  25.517  14.848  0.00  0.00    +0.261 C 
BRANCH   4   5
ATOM      5  O1  UNL     1      13.690  26.460  15.921  0.00  0.00    -0.488 OA
BRANCH   5   8
ATOM      6  C1  UNL     1      14.712  28.537  16.614  0.00  0.00    +0.084 A 
ATOM      7 CL1  UNL     1      14.559  28.141  18.286  0.00  0.00    -0.080 Cl
ATOM      8  C2  UNL     1      14.286  27.656  15.614  0.00  0.00    +0.139 A 
ATOM      9  C3  UNL     1      14.382  28.017  14.268  0.00  0.00    +0.048 A 
ATOM     10  C4  UNL     1      14.937  29.251  13.921  0.00  0.00    +0.023 A 
ATOM     11  C5  UNL     1      15.379  30.119  14.921  0.00  0.00    +0.043 A 
ATOM     12 CL2  UNL     1      16.048  31.643  14.483  0.00  0.00    -0.083 Cl
ATOM     13  C6  UNL     1      15.270  29.768  16.267  0.00  0.00    +0.043 A 
ENDBRANCH   5   8
ENDBRANCH   4   5
ENDBRANCH   1   4
BRANCH   1  14
ATOM     14  C9  UNL     1      14.987  24.275  16.775  0.00  0.00    +0.116 C 
BRANCH  14  15
ATOM     15  N1  UNL     1      15.981  25.000  17.585  0.00  0.00    -0.308 NA
ATOM     16  H10 UNL     1      15.496  25.324  18.423  0.00  0.00    +0.123 HD
BRANCH  15  17
ATOM     17  C10 UNL     1      17.229  24.331  18.011  0.00  0.00    +0.014 C 
ATOM     18  C11 UNL     1      17.085  22.805  18.019  0.00  0.00    +0.027 C 
ATOM     19  C12 UNL     1      17.675  24.800  19.414  0.00  0.00    +0.027 C 
BRANCH  17  20
ATOM     20  C13 UNL     1      18.373  24.770  17.020  0.00  0.00    +0.027 C 
BRANCH  20  21
ATOM     21  C14 UNL     1      18.575  26.251  16.555  0.00  0.00    -0.036 C 
ATOM     22  C15 UNL     1      18.110  27.295  17.581  0.00  0.00    +0.010 C 
ATOM     23  C16 UNL     1      20.095  26.453  16.334  0.00  0.00    +0.010 C 
ATOM     24  C17 UNL     1      17.886  26.531  15.205  0.00  0.00    +0.010 C 
ENDBRANCH  20  21
ENDBRANCH  17  20
ENDBRANCH  15  17
ENDBRANCH  14  15
ENDBRANCH   1  14
TORSDOF 9
ENDMDL
MODEL 3
REMARK VINA RESULT:    -3.337      2.649      4.391
REMARK INTER + INTRA:          -5.966
REMARK INTER:                  -4.850
REMARK INTRA:                  -1.116
REMARK UNBOUND:                -0.970
REMARK  Name = /home/vital/Documents/PhD_2021/Malaria_codes/data/pdb_ligands_mmv/ligand_189.pdb
REMARK  14 active torsions:
REMARK  status: ('A' for Active; 'I' for Inactive)
REMARK    1  A    between atoms: C2_3  and  O1_9
REMARK    2  A    between atoms: O1_9  and  C7_10
REMARK    3  A    between atoms: C7_10  and  C8_11
REMARK    4  A    between atoms: C8_11  and  O2_12
REMARK    5  A    between atoms: C8_11  and  C9_13
REMARK    6  A    between atoms: C9_13  and  N1_14
REMARK    7  A    between atoms: N1_14  and  C10_15
REMARK    8  A    between atoms: C10_15  and  C11_16
REMARK    9  A    between atoms: C10_15  and  C12_17
REMARK   10  A    between atoms: C10_15  and  C13_18
REMARK   11  A    between atoms: C13_18  and  C14_19
REMARK   12  A    between atoms: C14_19  and  C15_20
REMARK   13  A    between atoms: C14_19  and  C16_21
REMARK   14  A    between atoms: C14_19  and  C17_22
REMARK                            x       y       z     vdW  Elec       q    Type
REMARK                         _______ _______ _______ _____ _____    ______ ____
ROOT
ATOM      1  C8  UNL     1      15.624  24.343  15.086  0.00  0.00    +0.166 C 
ENDROOT
BRANCH   1   2
ATOM      2  O2  UNL     1      14.783  23.213  14.802  0.00  0.00    -0.387 OA
ATOM      3  H7  UNL     1      13.926  23.579  14.514  0.00  0.00    +0.210 HD
ENDBRANCH   1   2
BRANCH   1   4
ATOM      4  C7  UNL     1      15.068  25.538  14.294  0.00  0.00    +0.261 C 
BRANCH   4   5
ATOM      5  O1  UNL     1      16.167  26.392  13.926  0.00  0.00    -0.488 OA
BRANCH   5   8
ATOM      6  C1  UNL     1      16.663  28.736  13.604  0.00  0.00    +0.084 A 
ATOM      7 CL1  UNL     1      18.291  28.405  13.139  0.00  0.00    -0.080 Cl
ATOM      8  C2  UNL     1      15.772  27.705  13.926  0.00  0.00    +0.139 A 
ATOM      9  C3  UNL     1      14.472  28.001  14.340  0.00  0.00    +0.048 A 
ATOM     10  C4  UNL     1      14.052  29.332  14.401  0.00  0.00    +0.023 A 
ATOM     11  C5  UNL     1      14.938  30.356  14.061  0.00  0.00    +0.043 A 
ATOM     12 CL2  UNL     1      14.414  31.993  14.154  0.00  0.00    -0.083 Cl
ATOM     13  C6  UNL     1      16.243  30.065  13.661  0.00  0.00    +0.043 A 
ENDBRANCH   5   8
ENDBRANCH   4   5
ENDBRANCH   1   4
BRANCH   1  14
ATOM     14  C9  UNL     1      15.649  24.631  16.604  0.00  0.00    +0.116 C 
BRANCH  14  15
ATOM     15  N1  UNL     1      15.670  26.043  17.026  0.00  0.00    -0.308 NA
ATOM     16  H10 UNL     1      14.894  26.165  17.678  0.00  0.00    +0.123 HD
BRANCH  15  17
ATOM     17  C10 UNL     1      16.882  26.619  17.646  0.00  0.00    +0.014 C 
ATOM     18  C11 UNL     1      18.157  26.205  16.901  0.00  0.00    +0.027 C 
ATOM     19  C12 UNL     1      17.013  26.205  19.130  0.00  0.00    +0.027 C 
BRANCH  17  20
ATOM     20  C13 UNL     1      16.727  28.187  17.641  0.00  0.00    +0.027 C 
BRANCH  20  21
ATOM     21  C14 UNL     1      15.550  28.928  18.360  0.00  0.00    -0.036 C 
ATOM     22  C15 UNL     1      15.771  29.136  19.865  0.00  0.00    +0.010 C 
ATOM     23  C16 UNL     1      15.429  30.327  17.705  0.00  0.00    +0.010 C 
ATOM     24  C17 UNL     1      14.202  28.215  18.143  0.00  0.00    +0.010 C 
ENDBRANCH  20  21
ENDBRANCH  17  20
ENDBRANCH  15  17
ENDBRANCH  14  15
ENDBRANCH   1  14
TORSDOF 9
ENDMDL
MODEL 4
REMARK VINA RESULT:    -3.309      2.624      4.785
REMARK INTER + INTRA:          -5.924
REMARK INTER:                  -4.827
REMARK INTRA:                  -1.097
REMARK UNBOUND:                -0.970
REMARK  Name = /home/vital/Documents/PhD_2021/Malaria_codes/data/pdb_ligands_mmv/ligand_189.pdb
REMARK  14 active torsions:
REMARK  status: ('A' for Active; 'I' for Inactive)
REMARK    1  A    between atoms: C2_3  and  O1_9
REMARK    2  A    between atoms: O1_9  and  C7_10
REMARK    3  A    between atoms: C7_10  and  C8_11
REMARK    4  A    between atoms: C8_11  and  O2_12
REMARK    5  A    between atoms: C8_11  and  C9_13
REMARK    6  A    between atoms: C9_13  and  N1_14
REMARK    7  A    between atoms: N1_14  and  C10_15
REMARK    8  A    between atoms: C10_15  and  C11_16
REMARK    9  A    between atoms: C10_15  and  C12_17
REMARK   10  A    between atoms: C10_15  and  C13_18
REMARK   11  A    between atoms: C13_18  and  C14_19
REMARK   12  A    between atoms: C14_19  and  C15_20
REMARK   13  A    between atoms: C14_19  and  C16_21
REMARK   14  A    between atoms: C14_19  and  C17_22
REMARK                            x       y       z     vdW  Elec       q    Type
REMARK                         _______ _______ _______ _____ _____    ______ ____
ROOT
ATOM      1  C8  UNL     1      15.583  24.719  15.440  0.00  0.00    +0.166 C 
ENDROOT
BRANCH   1   2
ATOM      2  O2  UNL     1      15.493  23.333  15.071  0.00  0.00    -0.387 OA
ATOM      3  H7  UNL     1      14.627  23.224  14.635  0.00  0.00    +0.210 HD
ENDBRANCH   1   2
BRANCH   1   4
ATOM      4  C7  UNL     1      15.082  25.545  14.244  0.00  0.00    +0.261 C 
BRANCH   4   5
ATOM      5  O1  UNL     1      16.179  26.329  13.739  0.00  0.00    -0.488 OA
BRANCH   5   8
ATOM      6  C1  UNL     1      16.889  28.639  13.723  0.00  0.00    +0.084 A 
ATOM      7 CL1  UNL     1      18.536  28.209  13.442  0.00  0.00    -0.080 Cl
ATOM      8  C2  UNL     1      15.888  27.665  13.820  0.00  0.00    +0.139 A 
ATOM      9  C3  UNL     1      14.568  28.036  14.090  0.00  0.00    +0.048 A 
ATOM     10  C4  UNL     1      14.245  29.388  14.230  0.00  0.00    +0.023 A 
ATOM     11  C5  UNL     1      15.244  30.356  14.113  0.00  0.00    +0.043 A 
ATOM     12 CL2  UNL     1      14.836  32.018  14.302  0.00  0.00    -0.083 Cl
ATOM     13  C6  UNL     1      16.566  29.989  13.859  0.00  0.00    +0.043 A 
ENDBRANCH   5   8
ENDBRANCH   4   5
ENDBRANCH   1   4
BRANCH   1  14
ATOM     14  C9  UNL     1      14.747  24.996  16.710  0.00  0.00    +0.116 C 
BRANCH  14  15
ATOM     15  N1  UNL     1      15.411  25.708  17.816  0.00  0.00    -0.308 NA
ATOM     16  H10 UNL     1      16.415  25.652  17.640  0.00  0.00    +0.123 HD
BRANCH  15  17
ATOM     17  C10 UNL     1      15.075  27.118  18.103  0.00  0.00    +0.014 C 
ATOM     18  C11 UNL     1      15.061  27.408  19.609  0.00  0.00    +0.027 C 
ATOM     19  C12 UNL     1      13.705  27.510  17.504  0.00  0.00    +0.027 C 
BRANCH  17  20
ATOM     20  C13 UNL     1      16.143  28.024  17.380  0.00  0.00    +0.027 C 
BRANCH  20  21
ATOM     21  C14 UNL     1      17.677  27.933  17.677  0.00  0.00    -0.036 C 
ATOM     22  C15 UNL     1      18.011  27.634  19.146  0.00  0.00    +0.010 C 
ATOM     23  C16 UNL     1      18.236  26.769  16.822  0.00  0.00    +0.010 C 
ATOM     24  C17 UNL     1      18.426  29.207  17.241  0.00  0.00    +0.010 C 
ENDBRANCH  20  21
ENDBRANCH  17  20
ENDBRANCH  15  17
ENDBRANCH  14  15
ENDBRANCH   1  14
TORSDOF 9
ENDMDL
MODEL 5
REMARK VINA RESULT:    -3.093      2.379      4.077
REMARK INTER + INTRA:          -5.599
REMARK INTER:                  -4.562
REMARK INTRA:                  -1.037
REMARK UNBOUND:                -0.970
REMARK  Name = /home/vital/Documents/PhD_2021/Malaria_codes/data/pdb_ligands_mmv/ligand_189.pdb
REMARK  14 active torsions:
REMARK  status: ('A' for Active; 'I' for Inactive)
REMARK    1  A    between atoms: C2_3  and  O1_9
REMARK    2  A    between atoms: O1_9  and  C7_10
REMARK    3  A    between atoms: C7_10  and  C8_11
REMARK    4  A    between atoms: C8_11  and  O2_12
REMARK    5  A    between atoms: C8_11  and  C9_13
REMARK    6  A    between atoms: C9_13  and  N1_14
REMARK    7  A    between atoms: N1_14  and  C10_15
REMARK    8  A    between atoms: C10_15  and  C11_16
REMARK    9  A    between atoms: C10_15  and  C12_17
REMARK   10  A    between atoms: C10_15  and  C13_18
REMARK   11  A    between atoms: C13_18  and  C14_19
REMARK   12  A    between atoms: C14_19  and  C15_20
REMARK   13  A    between atoms: C14_19  and  C16_21
REMARK   14  A    between atoms: C14_19  and  C17_22
REMARK                            x       y       z     vdW  Elec       q    Type
REMARK                         _______ _______ _______ _____ _____    ______ ____
ROOT
ATOM      1  C8  UNL     1      15.015  24.611  15.114  0.00  0.00    +0.166 C 
ENDROOT
BRANCH   1   2
ATOM      2  O2  UNL     1      14.671  23.667  14.086  0.00  0.00    -0.387 OA
ATOM      3  H7  UNL     1      15.067  22.818  14.355  0.00  0.00    +0.210 HD
ENDBRANCH   1   2
BRANCH   1   4
ATOM      4  C7  UNL     1      13.724  25.344  15.514  0.00  0.00    +0.261 C 
BRANCH   4   5
ATOM      5  O1  UNL     1      13.691  26.614  14.836  0.00  0.00    -0.488 OA
BRANCH   5   8
ATOM      6  C1  UNL     1      15.040  28.595  15.145  0.00  0.00    +0.084 A 
ATOM      7 CL1  UNL     1      15.454  28.665  13.471  0.00  0.00    -0.080 Cl
ATOM      8  C2  UNL     1      14.193  27.599  15.645  0.00  0.00    +0.139 A 
ATOM      9  C3  UNL     1      13.906  27.539  17.011  0.00  0.00    +0.048 A 
ATOM     10  C4  UNL     1      14.443  28.498  17.873  0.00  0.00    +0.023 A 
ATOM     11  C5  UNL     1      15.272  29.501  17.366  0.00  0.00    +0.043 A 
ATOM     12 CL2  UNL     1      15.940  30.669  18.440  0.00  0.00    -0.083 Cl
ATOM     13  C6  UNL     1      15.574  29.555  16.005  0.00  0.00    +0.043 A 
ENDBRANCH   5   8
ENDBRANCH   4   5
ENDBRANCH   1   4
BRANCH   1  14
ATOM     14  C9  UNL     1      15.653  23.888  16.321  0.00  0.00    +0.116 C 
BRANCH  14  15
ATOM     15  N1  UNL     1      15.704  24.618  17.600  0.00  0.00    -0.308 NA
ATOM     16  H10 UNL     1      15.350  23.981  18.315  0.00  0.00    +0.123 HD
BRANCH  15  17
ATOM     17  C10 UNL     1      16.980  25.185  18.085  0.00  0.00    +0.014 C 
ATOM     18  C11 UNL     1      18.075  24.119  18.195  0.00  0.00    +0.027 C 
ATOM     19  C12 UNL     1      16.810  25.873  19.459  0.00  0.00    +0.027 C 
BRANCH  17  20
ATOM     20  C13 UNL     1      17.415  26.319  17.080  0.00  0.00    +0.027 C 
BRANCH  20  21
ATOM     21  C14 UNL     1      18.723  27.160  17.261  0.00  0.00    -0.036 C 
ATOM     22  C15 UNL     1      19.985  26.311  17.476  0.00  0.00    +0.010 C 
ATOM     23  C16 UNL     1      18.921  27.976  15.960  0.00  0.00    +0.010 C 
ATOM     24  C17 UNL     1      18.600  28.178  18.412  0.00  0.00    +0.010 C 
ENDBRANCH  20  21
ENDBRANCH  17  20
ENDBRANCH  15  17
ENDBRANCH  14  15
ENDBRANCH   1  14
TORSDOF 9
ENDMDL
MODEL 6
REMARK VINA RESULT:    -3.010      2.615      3.980
REMARK INTER + INTRA:          -5.476
REMARK INTER:                  -4.365
REMARK INTRA:                  -1.110
REMARK UNBOUND:                -0.970
REMARK  Name = /home/vital/Documents/PhD_2021/Malaria_codes/data/pdb_ligands_mmv/ligand_189.pdb
REMARK  14 active torsions:
REMARK  status: ('A' for Active; 'I' for Inactive)
REMARK    1  A    between atoms: C2_3  and  O1_9
REMARK    2  A    between atoms: O1_9  and  C7_10
REMARK    3  A    between atoms: C7_10  and  C8_11
REMARK    4  A    between atoms: C8_11  and  O2_12
REMARK    5  A    between atoms: C8_11  and  C9_13
REMARK    6  A    between atoms: C9_13  and  N1_14
REMARK    7  A    between atoms: N1_14  and  C10_15
REMARK    8  A    between atoms: C10_15  and  C11_16
REMARK    9  A    between atoms: C10_15  and  C12_17
REMARK   10  A    between atoms: C10_15  and  C13_18
REMARK   11  A    between atoms: C13_18  and  C14_19
REMARK   12  A    between atoms: C14_19  and  C15_20
REMARK   13  A    between atoms: C14_19  and  C16_21
REMARK   14  A    between atoms: C14_19  and  C17_22
REMARK                            x       y       z     vdW  Elec       q    Type
REMARK                         _______ _______ _______ _____ _____    ______ ____
ROOT
ATOM      1  C8  UNL     1      16.664  24.805  18.083  0.00  0.00    +0.166 C 
ENDROOT
BRANCH   1   2
ATOM      2  O2  UNL     1      16.629  23.662  18.954  0.00  0.00    -0.387 OA
ATOM      3  H7  UNL     1      17.058  23.941  19.784  0.00  0.00    +0.210 HD
ENDBRANCH   1   2
BRANCH   1   4
ATOM      4  C7  UNL     1      15.381  25.613  18.336  0.00  0.00    +0.261 C 
BRANCH   4   5
ATOM      5  O1  UNL     1      14.462  25.359  17.256  0.00  0.00    -0.488 OA
BRANCH   5   8
ATOM      6  C1  UNL     1      14.600  26.166  14.982  0.00  0.00    +0.084 A 
ATOM      7 CL1  UNL     1      14.670  24.567  14.339  0.00  0.00    -0.080 Cl
ATOM      8  C2  UNL     1      14.483  26.395  16.359  0.00  0.00    +0.139 A 
ATOM      9  C3  UNL     1      14.471  27.699  16.858  0.00  0.00    +0.048 A 
ATOM     10  C4  UNL     1      14.543  28.778  15.974  0.00  0.00    +0.023 A 
ATOM     11  C5  UNL     1      14.640  28.546  14.601  0.00  0.00    +0.043 A 
ATOM     12 CL2  UNL     1      14.743  29.883  13.522  0.00  0.00    -0.083 Cl
ATOM     13  C6  UNL     1      14.668  27.244  14.099  0.00  0.00    +0.043 A 
ENDBRANCH   5   8
ENDBRANCH   4   5
ENDBRANCH   1   4
BRANCH   1  14
ATOM     14  C9  UNL     1      17.929  25.651  18.353  0.00  0.00    +0.116 C 
BRANCH  14  15
ATOM     15  N1  UNL     1      17.778  27.117  18.343  0.00  0.00    -0.308 NA
ATOM     16  H10 UNL     1      17.880  27.428  19.310  0.00  0.00    +0.123 HD
BRANCH  15  17
ATOM     17  C10 UNL     1      18.660  27.952  17.500  0.00  0.00    +0.014 C 
ATOM     18  C11 UNL     1      20.130  27.533  17.620  0.00  0.00    +0.027 C 
ATOM     19  C12 UNL     1      18.535  29.451  17.858  0.00  0.00    +0.027 C 
BRANCH  17  20
ATOM     20  C13 UNL     1      18.170  27.816  16.009  0.00  0.00    +0.027 C 
BRANCH  20  21
ATOM     21  C14 UNL     1      18.672  28.753  14.860  0.00  0.00    -0.036 C 
ATOM     22  C15 UNL     1      20.198  28.915  14.810  0.00  0.00    +0.010 C 
ATOM     23  C16 UNL     1      18.223  28.111  13.523  0.00  0.00    +0.010 C 
ATOM     24  C17 UNL     1      18.020  30.147  14.925  0.00  0.00    +0.010 C 
ENDBRANCH  20  21
ENDBRANCH  17  20
ENDBRANCH  15  17
ENDBRANCH  14  15
ENDBRANCH   1  14
TORSDOF 9
ENDMDL
MODEL 7
REMARK VINA RESULT:    -3.003      2.722      4.844
REMARK INTER + INTRA:          -5.465
REMARK INTER:                  -4.098
REMARK INTRA:                  -1.367
REMARK UNBOUND:                -0.970
REMARK  Name = /home/vital/Documents/PhD_2021/Malaria_codes/data/pdb_ligands_mmv/ligand_189.pdb
REMARK  14 active torsions:
REMARK  status: ('A' for Active; 'I' for Inactive)
REMARK    1  A    between atoms: C2_3  and  O1_9
REMARK    2  A    between atoms: O1_9  and  C7_10
REMARK    3  A    between atoms: C7_10  and  C8_11
REMARK    4  A    between atoms: C8_11  and  O2_12
REMARK    5  A    between atoms: C8_11  and  C9_13
REMARK    6  A    between atoms: C9_13  and  N1_14
REMARK    7  A    between atoms: N1_14  and  C10_15
REMARK    8  A    between atoms: C10_15  and  C11_16
REMARK    9  A    between atoms: C10_15  and  C12_17
REMARK   10  A    between atoms: C10_15  and  C13_18
REMARK   11  A    between atoms: C13_18  and  C14_19
REMARK   12  A    between atoms: C14_19  and  C15_20
REMARK   13  A    between atoms: C14_19  and  C16_21
REMARK   14  A    between atoms: C14_19  and  C17_22
REMARK                            x       y       z     vdW  Elec       q    Type
REMARK                         _______ _______ _______ _____ _____    ______ ____
ROOT
ATOM      1  C8  UNL     1      17.609  25.399  17.441  0.00  0.00    +0.166 C 
ENDROOT
BRANCH   1   2
ATOM      2  O2  UNL     1      16.751  24.449  16.788  0.00  0.00    -0.387 OA
ATOM      3  H7  UNL     1      16.540  23.771  17.456  0.00  0.00    +0.210 HD
ENDBRANCH   1   2
BRANCH   1   4
ATOM      4  C7  UNL     1      17.922  26.508  16.423  0.00  0.00    +0.261 C 
BRANCH   4   5
ATOM      5  O1  UNL     1      17.058  26.338  15.283  0.00  0.00    -0.488 OA
BRANCH   5   8
ATOM      6  C1  UNL     1      15.035  27.507  14.665  0.00  0.00    +0.084 A 
ATOM      7 CL1  UNL     1      14.118  26.046  14.611  0.00  0.00    -0.080 Cl
ATOM      8  C2  UNL     1      16.391  27.505  15.012  0.00  0.00    +0.139 A 
ATOM      9  C3  UNL     1      17.122  28.695  15.007  0.00  0.00    +0.048 A 
ATOM     10  C4  UNL     1      16.484  29.896  14.686  0.00  0.00    +0.023 A 
ATOM     11  C5  UNL     1      15.127  29.896  14.359  0.00  0.00    +0.043 A 
ATOM     12 CL2  UNL     1      14.355  31.380  13.951  0.00  0.00    -0.083 Cl
ATOM     13  C6  UNL     1      14.397  28.707  14.348  0.00  0.00    +0.043 A 
ENDBRANCH   5   8
ENDBRANCH   4   5
ENDBRANCH   1   4
BRANCH   1  14
ATOM     14  C9  UNL     1      16.923  25.968  18.704  0.00  0.00    +0.116 C 
BRANCH  14  15
ATOM     15  N1  UNL     1      16.618  27.409  18.719  0.00  0.00    -0.308 NA
ATOM     16  H10 UNL     1      16.981  27.795  17.846  0.00  0.00    +0.123 HD
BRANCH  15  17
ATOM     17  C10 UNL     1      15.224  27.875  18.879  0.00  0.00    +0.014 C 
ATOM     18  C11 UNL     1      14.829  28.001  20.355  0.00  0.00    +0.027 C 
ATOM     19  C12 UNL     1      14.225  26.932  18.172  0.00  0.00    +0.027 C 
BRANCH  17  20
ATOM     20  C13 UNL     1      15.097  29.269  18.155  0.00  0.00    +0.027 C 
BRANCH  20  21
ATOM     21  C14 UNL     1      15.576  30.611  18.802  0.00  0.00    -0.036 C 
ATOM     22  C15 UNL     1      16.992  30.546  19.394  0.00  0.00    +0.010 C 
ATOM     23  C16 UNL     1      15.585  31.678  17.679  0.00  0.00    +0.010 C 
ATOM     24  C17 UNL     1      14.601  31.111  19.885  0.00  0.00    +0.010 C 
ENDBRANCH  20  21
ENDBRANCH  17  20
ENDBRANCH  15  17
ENDBRANCH  14  15
ENDBRANCH   1  14
TORSDOF 9
ENDMDL
MODEL 8
REMARK VINA RESULT:    -2.962      2.617      4.378
REMARK INTER + INTRA:          -5.404
REMARK INTER:                  -4.380
REMARK INTRA:                  -1.024
REMARK UNBOUND:                -0.970
REMARK  Name = /home/vital/Documents/PhD_2021/Malaria_codes/data/pdb_ligands_mmv/ligand_189.pdb
REMARK  14 active torsions:
REMARK  status: ('A' for Active; 'I' for Inactive)
REMARK    1  A    between atoms: C2_3  and  O1_9
REMARK    2  A    between atoms: O1_9  and  C7_10
REMARK    3  A    between atoms: C7_10  and  C8_11
REMARK    4  A    between atoms: C8_11  and  O2_12
REMARK    5  A    between atoms: C8_11  and  C9_13
REMARK    6  A    between atoms: C9_13  and  N1_14
REMARK    7  A    between atoms: N1_14  and  C10_15
REMARK    8  A    between atoms: C10_15  and  C11_16
REMARK    9  A    between atoms: C10_15  and  C12_17
REMARK   10  A    between atoms: C10_15  and  C13_18
REMARK   11  A    between atoms: C13_18  and  C14_19
REMARK   12  A    between atoms: C14_19  and  C15_20
REMARK   13  A    between atoms: C14_19  and  C16_21
REMARK   14  A    between atoms: C14_19  and  C17_22
REMARK                            x       y       z     vdW  Elec       q    Type
REMARK                         _______ _______ _______ _____ _____    ______ ____
ROOT
ATOM      1  C8  UNL     1      16.080  24.358  17.486  0.00  0.00    +0.166 C 
ENDROOT
BRANCH   1   2
ATOM      2  O2  UNL     1      15.680  23.177  18.199  0.00  0.00    -0.387 OA
ATOM      3  H7  UNL     1      16.468  22.874  18.686  0.00  0.00    +0.210 HD
ENDBRANCH   1   2
BRANCH   1   4
ATOM      4  C7  UNL     1      14.836  24.900  16.762  0.00  0.00    +0.261 C 
BRANCH   4   5
ATOM      5  O1  UNL     1      15.172  25.119  15.379  0.00  0.00    -0.488 OA
BRANCH   5   8
ATOM      6  C1  UNL     1      16.230  27.247  14.940  0.00  0.00    +0.084 A 
ATOM      7 CL1  UNL     1      17.812  26.579  15.103  0.00  0.00    -0.080 Cl
ATOM      8  C2  UNL     1      15.085  26.452  15.072  0.00  0.00    +0.139 A 
ATOM      9  C3  UNL     1      13.815  27.024  14.977  0.00  0.00    +0.048 A 
ATOM     10  C4  UNL     1      13.690  28.391  14.716  0.00  0.00    +0.023 A 
ATOM     11  C5  UNL     1      14.834  29.176  14.566  0.00  0.00    +0.043 A 
ATOM     12 CL2  UNL     1      14.669  30.862  14.259  0.00  0.00    -0.083 Cl
ATOM     13  C6  UNL     1      16.105  28.611  14.675  0.00  0.00    +0.043 A 
ENDBRANCH   5   8
ENDBRANCH   4   5
ENDBRANCH   1   4
BRANCH   1  14
ATOM     14  C9  UNL     1      16.669  25.404  18.459  0.00  0.00    +0.116 C 
BRANCH  14  15
ATOM     15  N1  UNL     1      15.719  26.208  19.248  0.00  0.00    -0.308 NA
ATOM     16  H10 UNL     1      15.818  25.909  20.219  0.00  0.00    +0.123 HD
BRANCH  15  17
ATOM     17  C10 UNL     1      15.784  27.684  19.215  0.00  0.00    +0.014 C 
ATOM     18  C11 UNL     1      15.751  28.289  20.624  0.00  0.00    +0.027 C 
ATOM     19  C12 UNL     1      14.627  28.286  18.385  0.00  0.00    +0.027 C 
BRANCH  17  20
ATOM     20  C13 UNL     1      17.113  28.092  18.473  0.00  0.00    +0.027 C 
BRANCH  20  21
ATOM     21  C14 UNL     1      17.541  29.581  18.252  0.00  0.00    -0.036 C 
ATOM     22  C15 UNL     1      16.370  30.529  17.954  0.00  0.00    +0.010 C 
ATOM     23  C16 UNL     1      18.212  30.059  19.564  0.00  0.00    +0.010 C 
ATOM     24  C17 UNL     1      18.595  29.719  17.136  0.00  0.00    +0.010 C 
ENDBRANCH  20  21
ENDBRANCH  17  20
ENDBRANCH  15  17
ENDBRANCH  14  15
ENDBRANCH   1  14
TORSDOF 9
ENDMDL
