MODEL 1
REMARK VINA RESULT:    -4.663      0.000      0.000
REMARK INTER + INTRA:          -5.986
REMARK INTER:                  -5.481
REMARK INTRA:                  -0.505
REMARK UNBOUND:                -0.505
REMARK  Name = /home/vital/Documents/PhD_2021/Malaria_codes/data/pdb_ligands_mmv/ligand_180.pdb
REMARK  6 active torsions:
REMARK  status: ('A' for Active; 'I' for Inactive)
REMARK    1  A    between atoms: C1_1  and  C2_2
REMARK    2  A    between atoms: C2_2  and  C3_3
REMARK    3  A    between atoms: C6_6  and  N1_7
REMARK    4  A    between atoms: N1_7  and  C7_8
REMARK    5  A    between atoms: C9_10  and  C10_11
REMARK    6  A    between atoms: C12_15  and  C13_16
REMARK                            x       y       z     vdW  Elec       q    Type
REMARK                         _______ _______ _______ _____ _____    ______ ____
ROOT
ATOM      1  C7  UNL     1      14.337  25.987  15.870  0.00  0.00    +0.130 A 
ATOM      2  C8  UNL     1      14.820  24.781  15.512  0.00  0.00    +0.067 A 
ATOM      3  C9  UNL     1      15.500  23.972  16.567  0.00  0.00    +0.045 A 
ATOM      4  C10 UNL     1      15.996  22.602  16.172  0.00  0.00    +0.066 C 
ATOM      5  N2  UNL     1      15.693  24.352  17.793  0.00  0.00    -0.216 NA
ATOM      6  C11 UNL     1      15.241  25.596  18.123  0.00  0.00    +0.255 A 
ATOM      7  N3  UNL     1      15.336  26.220  19.276  0.00  0.00    -0.194 NA
ATOM      8  C12 UNL     1      14.749  27.426  19.040  0.00  0.00    +0.151 A 
ATOM      9  C13 UNL     1      14.643  28.467  20.081  0.00  0.00    +0.090 C 
ATOM     10  N4  UNL     1      14.283  27.605  17.805  0.00  0.00    -0.147 NA
ATOM     11  N5  UNL     1      14.575  26.421  17.201  0.00  0.00    -0.182 N 
ENDROOT
BRANCH   1  12
ATOM     12  N1  UNL     1      13.700  26.824  14.952  0.00  0.00    -0.299 N 
ATOM     13  H8  UNL     1      12.730  27.022  15.183  0.00  0.00    +0.154 HD
BRANCH  12  17
ATOM     14  C3  UNL     1      15.525  30.099  12.950  0.00  0.00    -0.048 A 
ATOM     15  C4  UNL     1      15.855  28.776  12.641  0.00  0.00    +0.005 A 
ATOM     16  C5  UNL     1      15.238  27.718  13.315  0.00  0.00    +0.023 A 
ATOM     17  C6  UNL     1      14.264  27.949  14.300  0.00  0.00    +0.032 A 
ATOM     18  C14 UNL     1      13.950  29.276  14.610  0.00  0.00    +0.023 A 
ATOM     19  C15 UNL     1      14.565  30.338  13.937  0.00  0.00    +0.005 A 
BRANCH  14  21
ATOM     20  C1  UNL     1      17.319  31.848  13.024  0.00  0.00    +0.009 C 
ATOM     21  C2  UNL     1      16.179  31.244  12.220  0.00  0.00    +0.032 C 
ENDBRANCH  14  21
ENDBRANCH  12  17
ENDBRANCH   1  12
TORSDOF 3
ENDMDL
MODEL 2
REMARK VINA RESULT:    -4.342      1.268      1.414
REMARK INTER + INTRA:          -5.609
REMARK INTER:                  -5.106
REMARK INTRA:                  -0.503
REMARK UNBOUND:                -0.505
REMARK  Name = /home/vital/Documents/PhD_2021/Malaria_codes/data/pdb_ligands_mmv/ligand_180.pdb
REMARK  6 active torsions:
REMARK  status: ('A' for Active; 'I' for Inactive)
REMARK    1  A    between atoms: C1_1  and  C2_2
REMARK    2  A    between atoms: C2_2  and  C3_3
REMARK    3  A    between atoms: C6_6  and  N1_7
REMARK    4  A    between atoms: N1_7  and  C7_8
REMARK    5  A    between atoms: C9_10  and  C10_11
REMARK    6  A    between atoms: C12_15  and  C13_16
REMARK                            x       y       z     vdW  Elec       q    Type
REMARK                         _______ _______ _______ _____ _____    ______ ____
ROOT
ATOM      1  C7  UNL     1      15.100  25.504  16.926  0.00  0.00    +0.130 A 
ATOM      2  C8  UNL     1      15.850  24.427  16.619  0.00  0.00    +0.067 A 
ATOM      3  C9  UNL     1      16.796  23.929  17.661  0.00  0.00    +0.045 A 
ATOM      4  C10 UNL     1      17.598  22.693  17.328  0.00  0.00    +0.066 C 
ATOM      5  N2  UNL     1      16.979  24.470  18.826  0.00  0.00    -0.216 NA
ATOM      6  C11 UNL     1      16.248  25.588  19.099  0.00  0.00    +0.255 A 
ATOM      7  N3  UNL     1      16.267  26.333  20.183  0.00  0.00    -0.194 NA
ATOM      8  C12 UNL     1      15.371  27.322  19.911  0.00  0.00    +0.151 A 
ATOM      9  C13 UNL     1      15.080  28.406  20.870  0.00  0.00    +0.090 C 
ATOM     10  N4  UNL     1      14.779  27.249  18.719  0.00  0.00    -0.147 NA
ATOM     11  N5  UNL     1      15.321  26.119  18.186  0.00  0.00    -0.182 N 
ENDROOT
BRANCH   1  12
ATOM     12  N1  UNL     1      14.199  26.054  16.014  0.00  0.00    -0.299 N 
ATOM     13  H8  UNL     1      13.235  26.055  16.338  0.00  0.00    +0.154 HD
BRANCH  12  17
ATOM     14  C3  UNL     1      15.002  29.393  13.510  0.00  0.00    -0.048 A 
ATOM     15  C4  UNL     1      15.722  28.201  13.393  0.00  0.00    +0.005 A 
ATOM     16  C5  UNL     1      15.435  27.117  14.230  0.00  0.00    +0.023 A 
ATOM     17  C6  UNL     1      14.413  27.187  15.190  0.00  0.00    +0.032 A 
ATOM     18  C14 UNL     1      13.707  28.388  15.306  0.00  0.00    +0.023 A 
ATOM     19  C15 UNL     1      13.991  29.475  14.471  0.00  0.00    +0.005 A 
BRANCH  14  21
ATOM     20  C1  UNL     1      14.676  31.848  13.122  0.00  0.00    +0.009 C 
ATOM     21  C2  UNL     1      15.299  30.561  12.605  0.00  0.00    +0.032 C 
ENDBRANCH  14  21
ENDBRANCH  12  17
ENDBRANCH   1  12
TORSDOF 3
ENDMDL
MODEL 3
REMARK VINA RESULT:    -4.143      2.359      5.897
REMARK INTER + INTRA:          -5.375
REMARK INTER:                  -4.826
REMARK INTRA:                  -0.549
REMARK UNBOUND:                -0.505
REMARK  Name = /home/vital/Documents/PhD_2021/Malaria_codes/data/pdb_ligands_mmv/ligand_180.pdb
REMARK  6 active torsions:
REMARK  status: ('A' for Active; 'I' for Inactive)
REMARK    1  A    between atoms: C1_1  and  C2_2
REMARK    2  A    between atoms: C2_2  and  C3_3
REMARK    3  A    between atoms: C6_6  and  N1_7
REMARK    4  A    between atoms: N1_7  and  C7_8
REMARK    5  A    between atoms: C9_10  and  C10_11
REMARK    6  A    between atoms: C12_15  and  C13_16
REMARK                            x       y       z     vdW  Elec       q    Type
REMARK                         _______ _______ _______ _____ _____    ______ ____
ROOT
ATOM      1  C7  UNL     1      14.463  29.459  15.111  0.00  0.00    +0.130 A 
ATOM      2  C8  UNL     1      14.568  29.970  13.868  0.00  0.00    +0.067 A 
ATOM      3  C9  UNL     1      15.406  31.195  13.698  0.00  0.00    +0.045 A 
ATOM      4  C10 UNL     1      15.558  31.735  12.296  0.00  0.00    +0.066 C 
ATOM      5  N2  UNL     1      16.012  31.827  14.656  0.00  0.00    -0.216 NA
ATOM      6  C11 UNL     1      15.853  31.322  15.913  0.00  0.00    +0.255 A 
ATOM      7  N3  UNL     1      16.333  31.786  17.046  0.00  0.00    -0.194 NA
ATOM      8  C12 UNL     1      15.848  30.922  17.981  0.00  0.00    +0.151 A 
ATOM      9  C13 UNL     1      16.137  31.074  19.420  0.00  0.00    +0.090 C 
ATOM     10  N4  UNL     1      15.089  29.933  17.509  0.00  0.00    -0.147 NA
ATOM     11  N5  UNL     1      15.097  30.165  16.167  0.00  0.00    -0.182 N 
ENDROOT
BRANCH   1  12
ATOM     12  N1  UNL     1      13.692  28.327  15.375  0.00  0.00    -0.299 N 
ATOM     13  H8  UNL     1      12.748  28.376  15.000  0.00  0.00    +0.154 HD
BRANCH  12  17
ATOM     14  C3  UNL     1      15.091  24.314  15.460  0.00  0.00    -0.048 A 
ATOM     15  C4  UNL     1      15.001  25.083  16.624  0.00  0.00    +0.005 A 
ATOM     16  C5  UNL     1      14.536  26.400  16.566  0.00  0.00    +0.023 A 
ATOM     17  C6  UNL     1      14.131  26.979  15.353  0.00  0.00    +0.032 A 
ATOM     18  C14 UNL     1      14.236  26.206  14.193  0.00  0.00    +0.023 A 
ATOM     19  C15 UNL     1      14.701  24.886  14.246  0.00  0.00    +0.005 A 
BRANCH  14  21
ATOM     20  C1  UNL     1      16.414  22.628  16.761  0.00  0.00    +0.009 C 
ATOM     21  C2  UNL     1      15.581  22.890  15.516  0.00  0.00    +0.032 C 
ENDBRANCH  14  21
ENDBRANCH  12  17
ENDBRANCH   1  12
TORSDOF 3
ENDMDL
MODEL 4
REMARK VINA RESULT:    -3.734      1.511      3.508
REMARK INTER + INTRA:          -4.895
REMARK INTER:                  -4.430
REMARK INTRA:                  -0.464
REMARK UNBOUND:                -0.505
REMARK  Name = /home/vital/Documents/PhD_2021/Malaria_codes/data/pdb_ligands_mmv/ligand_180.pdb
REMARK  6 active torsions:
REMARK  status: ('A' for Active; 'I' for Inactive)
REMARK    1  A    between atoms: C1_1  and  C2_2
REMARK    2  A    between atoms: C2_2  and  C3_3
REMARK    3  A    between atoms: C6_6  and  N1_7
REMARK    4  A    between atoms: N1_7  and  C7_8
REMARK    5  A    between atoms: C9_10  and  C10_11
REMARK    6  A    between atoms: C12_15  and  C13_16
REMARK                            x       y       z     vdW  Elec       q    Type
REMARK                         _______ _______ _______ _____ _____    ______ ____
ROOT
ATOM      1  C7  UNL     1      15.385  26.913  17.399  0.00  0.00    +0.130 A 
ATOM      2  C8  UNL     1      15.187  27.850  18.346  0.00  0.00    +0.067 A 
ATOM      3  C9  UNL     1      15.833  27.631  19.675  0.00  0.00    +0.045 A 
ATOM      4  C10 UNL     1      15.647  28.709  20.716  0.00  0.00    +0.066 C 
ATOM      5  N2  UNL     1      16.541  26.593  20.001  0.00  0.00    -0.216 NA
ATOM      6  C11 UNL     1      16.688  25.632  19.045  0.00  0.00    +0.255 A 
ATOM      7  N3  UNL     1      17.326  24.486  19.131  0.00  0.00    -0.194 NA
ATOM      8  C12 UNL     1      17.133  23.916  17.908  0.00  0.00    +0.151 A 
ATOM      9  C13 UNL     1      17.680  22.590  17.563  0.00  0.00    +0.090 C 
ATOM     10  N4  UNL     1      16.412  24.635  17.048  0.00  0.00    -0.147 NA
ATOM     11  N5  UNL     1      16.131  25.761  17.761  0.00  0.00    -0.182 N 
ENDROOT
BRANCH   1  12
ATOM     12  N1  UNL     1      14.812  27.019  16.131  0.00  0.00    -0.299 N 
ATOM     13  H8  UNL     1      13.821  26.794  16.109  0.00  0.00    +0.154 HD
BRANCH  12  17
ATOM     14  C3  UNL     1      15.471  30.057  13.233  0.00  0.00    -0.048 A 
ATOM     15  C4  UNL     1      14.442  30.153  14.173  0.00  0.00    +0.005 A 
ATOM     16  C5  UNL     1      14.249  29.139  15.116  0.00  0.00    +0.023 A 
ATOM     17  C6  UNL     1      15.086  28.013  15.159  0.00  0.00    +0.032 A 
ATOM     18  C14 UNL     1      16.106  27.921  14.206  0.00  0.00    +0.023 A 
ATOM     19  C15 UNL     1      16.303  28.934  13.260  0.00  0.00    +0.005 A 
BRANCH  14  21
ATOM     20  C1  UNL     1      14.782  32.344  12.469  0.00  0.00    +0.009 C 
ATOM     21  C2  UNL     1      15.692  31.151  12.220  0.00  0.00    +0.032 C 
ENDBRANCH  14  21
ENDBRANCH  12  17
ENDBRANCH   1  12
TORSDOF 3
ENDMDL
MODEL 5
REMARK VINA RESULT:    -3.589      3.596      5.348
REMARK INTER + INTRA:          -4.723
REMARK INTER:                  -4.205
REMARK INTRA:                  -0.518
REMARK UNBOUND:                -0.505
REMARK  Name = /home/vital/Documents/PhD_2021/Malaria_codes/data/pdb_ligands_mmv/ligand_180.pdb
REMARK  6 active torsions:
REMARK  status: ('A' for Active; 'I' for Inactive)
REMARK    1  A    between atoms: C1_1  and  C2_2
REMARK    2  A    between atoms: C2_2  and  C3_3
REMARK    3  A    between atoms: C6_6  and  N1_7
REMARK    4  A    between atoms: N1_7  and  C7_8
REMARK    5  A    between atoms: C9_10  and  C10_11
REMARK    6  A    between atoms: C12_15  and  C13_16
REMARK                            x       y       z     vdW  Elec       q    Type
REMARK                         _______ _______ _______ _____ _____    ______ ____
ROOT
ATOM      1  C7  UNL     1      18.007  23.623  18.779  0.00  0.00    +0.130 A 
ATOM      2  C8  UNL     1      18.961  23.391  17.857  0.00  0.00    +0.067 A 
ATOM      3  C9  UNL     1      20.382  23.573  18.277  0.00  0.00    +0.045 A 
ATOM      4  C10 UNL     1      21.448  23.266  17.253  0.00  0.00    +0.066 C 
ATOM      5  N2  UNL     1      20.771  23.971  19.450  0.00  0.00    -0.216 NA
ATOM      6  C11 UNL     1      19.789  24.249  20.355  0.00  0.00    +0.255 A 
ATOM      7  N3  UNL     1      19.914  24.689  21.587  0.00  0.00    -0.194 NA
ATOM      8  C12 UNL     1      18.628  24.816  22.018  0.00  0.00    +0.151 A 
ATOM      9  C13 UNL     1      18.295  25.300  23.371  0.00  0.00    +0.090 C 
ATOM     10  N4  UNL     1      17.691  24.479  21.132  0.00  0.00    -0.147 NA
ATOM     11  N5  UNL     1      18.425  24.089  20.053  0.00  0.00    -0.182 N 
ENDROOT
BRANCH   1  12
ATOM     12  N1  UNL     1      16.650  23.495  18.480  0.00  0.00    -0.299 N 
ATOM     13  H8  UNL     1      16.073  23.255  19.282  0.00  0.00    +0.154 HD
BRANCH  12  17
ATOM     14  C3  UNL     1      14.471  25.841  15.685  0.00  0.00    -0.048 A 
ATOM     15  C4  UNL     1      14.994  24.592  15.341  0.00  0.00    +0.005 A 
ATOM     16  C5  UNL     1      15.706  23.840  16.281  0.00  0.00    +0.023 A 
ATOM     17  C6  UNL     1      15.899  24.306  17.592  0.00  0.00    +0.032 A 
ATOM     18  C14 UNL     1      15.383  25.562  17.922  0.00  0.00    +0.023 A 
ATOM     19  C15 UNL     1      14.669  26.318  16.984  0.00  0.00    +0.005 A 
BRANCH  14  21
ATOM     20  C1  UNL     1      13.762  28.141  14.981  0.00  0.00    +0.009 C 
ATOM     21  C2  UNL     1      13.694  26.652  14.680  0.00  0.00    +0.032 C 
ENDBRANCH  14  21
ENDBRANCH  12  17
ENDBRANCH   1  12
TORSDOF 3
ENDMDL
MODEL 6
REMARK VINA RESULT:    -3.518      2.225      2.869
REMARK INTER + INTRA:          -4.640
REMARK INTER:                  -4.098
REMARK INTRA:                  -0.543
REMARK UNBOUND:                -0.505
REMARK  Name = /home/vital/Documents/PhD_2021/Malaria_codes/data/pdb_ligands_mmv/ligand_180.pdb
REMARK  6 active torsions:
REMARK  status: ('A' for Active; 'I' for Inactive)
REMARK    1  A    between atoms: C1_1  and  C2_2
REMARK    2  A    between atoms: C2_2  and  C3_3
REMARK    3  A    between atoms: C6_6  and  N1_7
REMARK    4  A    between atoms: N1_7  and  C7_8
REMARK    5  A    between atoms: C9_10  and  C10_11
REMARK    6  A    between atoms: C12_15  and  C13_16
REMARK                            x       y       z     vdW  Elec       q    Type
REMARK                         _______ _______ _______ _____ _____    ______ ____
ROOT
ATOM      1  C7  UNL     1      16.100  26.156  18.133  0.00  0.00    +0.130 A 
ATOM      2  C8  UNL     1      16.896  25.304  17.457  0.00  0.00    +0.067 A 
ATOM      3  C9  UNL     1      18.116  24.802  18.157  0.00  0.00    +0.045 A 
ATOM      4  C10 UNL     1      18.978  23.811  17.411  0.00  0.00    +0.066 C 
ATOM      5  N2  UNL     1      18.490  25.148  19.351  0.00  0.00    -0.216 NA
ATOM      6  C11 UNL     1      17.698  26.048  19.999  0.00  0.00    +0.255 A 
ATOM      7  N3  UNL     1      17.868  26.575  21.192  0.00  0.00    -0.194 NA
ATOM      8  C12 UNL     1      16.808  27.421  21.326  0.00  0.00    +0.151 A 
ATOM      9  C13 UNL     1      16.604  28.243  22.535  0.00  0.00    +0.090 C 
ATOM     10  N4  UNL     1      15.971  27.461  20.289  0.00  0.00    -0.147 NA
ATOM     11  N5  UNL     1      16.522  26.562  19.427  0.00  0.00    -0.182 N 
ENDROOT
BRANCH   1  12
ATOM     12  N1  UNL     1      14.946  26.692  17.561  0.00  0.00    -0.299 N 
ATOM     13  H8  UNL     1      14.152  26.729  18.195  0.00  0.00    +0.154 HD
BRANCH  12  17
ATOM     14  C3  UNL     1      14.637  29.880  14.766  0.00  0.00    -0.048 A 
ATOM     15  C4  UNL     1      13.692  28.851  14.810  0.00  0.00    +0.005 A 
ATOM     16  C5  UNL     1      13.818  27.815  15.741  0.00  0.00    +0.023 A 
ATOM     17  C6  UNL     1      14.876  27.787  16.663  0.00  0.00    +0.032 A 
ATOM     18  C14 UNL     1      15.822  28.815  16.604  0.00  0.00    +0.023 A 
ATOM     19  C15 UNL     1      15.700  29.854  15.673  0.00  0.00    +0.005 A 
BRANCH  14  21
ATOM     20  C1  UNL     1      15.453  30.838  12.598  0.00  0.00    +0.009 C 
ATOM     21  C2  UNL     1      14.502  31.005  13.773  0.00  0.00    +0.032 C 
ENDBRANCH  14  21
ENDBRANCH  12  17
ENDBRANCH   1  12
TORSDOF 3
ENDMDL
MODEL 7
REMARK VINA RESULT:    -3.465      1.465      2.173
REMARK INTER + INTRA:          -4.577
REMARK INTER:                  -4.037
REMARK INTRA:                  -0.541
REMARK UNBOUND:                -0.505
REMARK  Name = /home/vital/Documents/PhD_2021/Malaria_codes/data/pdb_ligands_mmv/ligand_180.pdb
REMARK  6 active torsions:
REMARK  status: ('A' for Active; 'I' for Inactive)
REMARK    1  A    between atoms: C1_1  and  C2_2
REMARK    2  A    between atoms: C2_2  and  C3_3
REMARK    3  A    between atoms: C6_6  and  N1_7
REMARK    4  A    between atoms: N1_7  and  C7_8
REMARK    5  A    between atoms: C9_10  and  C10_11
REMARK    6  A    between atoms: C12_15  and  C13_16
REMARK                            x       y       z     vdW  Elec       q    Type
REMARK                         _______ _______ _______ _____ _____    ______ ____
ROOT
ATOM      1  C7  UNL     1      14.335  27.902  15.304  0.00  0.00    +0.130 A 
ATOM      2  C8  UNL     1      14.402  26.828  14.493  0.00  0.00    +0.067 A 
ATOM      3  C9  UNL     1      14.665  25.502  15.129  0.00  0.00    +0.045 A 
ATOM      4  C10 UNL     1      14.690  24.296  14.221  0.00  0.00    +0.066 C 
ATOM      5  N2  UNL     1      14.870  25.307  16.395  0.00  0.00    -0.216 NA
ATOM      6  C11 UNL     1      14.849  26.413  17.193  0.00  0.00    +0.255 A 
ATOM      7  N3  UNL     1      15.052  26.490  18.489  0.00  0.00    -0.194 NA
ATOM      8  C12 UNL     1      14.941  27.821  18.756  0.00  0.00    +0.151 A 
ATOM      9  C13 UNL     1      15.110  28.368  20.116  0.00  0.00    +0.090 C 
ATOM     10  N4  UNL     1      14.675  28.596  17.705  0.00  0.00    -0.147 NA
ATOM     11  N5  UNL     1      14.592  27.698  16.685  0.00  0.00    -0.182 N 
ENDROOT
BRANCH   1  12
ATOM     12  N1  UNL     1      14.109  29.185  14.804  0.00  0.00    -0.299 N 
ATOM     13  H8  UNL     1      13.429  29.719  15.337  0.00  0.00    +0.154 HD
BRANCH  12  17
ATOM     14  C3  UNL     1      16.925  31.850  13.061  0.00  0.00    -0.048 A 
ATOM     15  C4  UNL     1      15.595  31.807  12.633  0.00  0.00    +0.005 A 
ATOM     16  C5  UNL     1      14.690  30.921  13.226  0.00  0.00    +0.023 A 
ATOM     17  C6  UNL     1      15.081  30.069  14.270  0.00  0.00    +0.032 A 
ATOM     18  C14 UNL     1      16.416  30.111  14.683  0.00  0.00    +0.023 A 
ATOM     19  C15 UNL     1      17.325  30.996  14.093  0.00  0.00    +0.005 A 
BRANCH  14  21
ATOM     20  C1  UNL     1      17.596  34.252  12.804  0.00  0.00    +0.009 C 
ATOM     21  C2  UNL     1      17.904  32.809  12.435  0.00  0.00    +0.032 C 
ENDBRANCH  14  21
ENDBRANCH  12  17
ENDBRANCH   1  12
TORSDOF 3
ENDMDL
MODEL 8
REMARK VINA RESULT:    -3.414      2.443      2.934
REMARK INTER + INTRA:          -4.518
REMARK INTER:                  -3.974
REMARK INTRA:                  -0.544
REMARK UNBOUND:                -0.505
REMARK  Name = /home/vital/Documents/PhD_2021/Malaria_codes/data/pdb_ligands_mmv/ligand_180.pdb
REMARK  6 active torsions:
REMARK  status: ('A' for Active; 'I' for Inactive)
REMARK    1  A    between atoms: C1_1  and  C2_2
REMARK    2  A    between atoms: C2_2  and  C3_3
REMARK    3  A    between atoms: C6_6  and  N1_7
REMARK    4  A    between atoms: N1_7  and  C7_8
REMARK    5  A    between atoms: C9_10  and  C10_11
REMARK    6  A    between atoms: C12_15  and  C13_16
REMARK                            x       y       z     vdW  Elec       q    Type
REMARK                         _______ _______ _______ _____ _____    ______ ____
ROOT
ATOM      1  C7  UNL     1      15.948  26.386  17.300  0.00  0.00    +0.130 A 
ATOM      2  C8  UNL     1      15.462  25.266  16.730  0.00  0.00    +0.067 A 
ATOM      3  C9  UNL     1      16.373  24.086  16.646  0.00  0.00    +0.045 A 
ATOM      4  C10 UNL     1      15.807  22.820  16.050  0.00  0.00    +0.066 C 
ATOM      5  N2  UNL     1      17.608  24.064  17.047  0.00  0.00    -0.216 NA
ATOM      6  C11 UNL     1      18.097  25.222  17.576  0.00  0.00    +0.255 A 
ATOM      7  N3  UNL     1      19.308  25.468  18.024  0.00  0.00    -0.194 NA
ATOM      8  C12 UNL     1      19.252  26.775  18.406  0.00  0.00    +0.151 A 
ATOM      9  C13 UNL     1      20.419  27.480  18.970  0.00  0.00    +0.090 C 
ATOM     10  N4  UNL     1      18.075  27.374  18.230  0.00  0.00    -0.147 NA
ATOM     11  N5  UNL     1      17.307  26.377  17.710  0.00  0.00    -0.182 N 
ENDROOT
BRANCH   1  12
ATOM     12  N1  UNL     1      15.179  27.546  17.411  0.00  0.00    -0.299 N 
ATOM     13  H8  UNL     1      15.236  27.990  18.324  0.00  0.00    +0.154 HD
BRANCH  12  17
ATOM     14  C3  UNL     1      14.711  30.649  14.545  0.00  0.00    -0.048 A 
ATOM     15  C4  UNL     1      15.604  30.768  15.613  0.00  0.00    +0.005 A 
ATOM     16  C5  UNL     1      15.739  29.730  16.540  0.00  0.00    +0.023 A 
ATOM     17  C6  UNL     1      15.002  28.541  16.418  0.00  0.00    +0.032 A 
ATOM     18  C14 UNL     1      14.102  28.437  15.353  0.00  0.00    +0.023 A 
ATOM     19  C15 UNL     1      13.964  29.474  14.422  0.00  0.00    +0.005 A 
BRANCH  14  21
ATOM     20  C1  UNL     1      15.919  32.236  13.026  0.00  0.00    +0.009 C 
ATOM     21  C2  UNL     1      14.568  31.758  13.535  0.00  0.00    +0.032 C 
ENDBRANCH  14  21
ENDBRANCH  12  17
ENDBRANCH   1  12
TORSDOF 3
ENDMDL
MODEL 9
REMARK VINA RESULT:    -2.413      1.065      3.128
REMARK INTER + INTRA:          -3.341
REMARK INTER:                  -2.811
REMARK INTRA:                  -0.531
REMARK UNBOUND:                -0.505
REMARK  Name = /home/vital/Documents/PhD_2021/Malaria_codes/data/pdb_ligands_mmv/ligand_180.pdb
REMARK  6 active torsions:
REMARK  status: ('A' for Active; 'I' for Inactive)
REMARK    1  A    between atoms: C1_1  and  C2_2
REMARK    2  A    between atoms: C2_2  and  C3_3
REMARK    3  A    between atoms: C6_6  and  N1_7
REMARK    4  A    between atoms: N1_7  and  C7_8
REMARK    5  A    between atoms: C9_10  and  C10_11
REMARK    6  A    between atoms: C12_15  and  C13_16
REMARK                            x       y       z     vdW  Elec       q    Type
REMARK                         _______ _______ _______ _____ _____    ______ ____
ROOT
ATOM      1  C7  UNL     1      14.501  27.380  16.501  0.00  0.00    +0.130 A 
ATOM      2  C8  UNL     1      14.285  28.202  17.547  0.00  0.00    +0.067 A 
ATOM      3  C9  UNL     1      14.657  27.699  18.903  0.00  0.00    +0.045 A 
ATOM      4  C10 UNL     1      14.457  28.642  20.065  0.00  0.00    +0.066 C 
ATOM      5  N2  UNL     1      15.139  26.521  19.159  0.00  0.00    -0.216 NA
ATOM      6  C11 UNL     1      15.304  25.687  18.093  0.00  0.00    +0.255 A 
ATOM      7  N3  UNL     1      15.742  24.447  18.087  0.00  0.00    -0.194 NA
ATOM      8  C12 UNL     1      15.678  24.088  16.774  0.00  0.00    +0.151 A 
ATOM      9  C13 UNL     1      16.074  22.747  16.304  0.00  0.00    +0.090 C 
ATOM     10  N4  UNL     1      15.227  25.028  15.944  0.00  0.00    -0.147 NA
ATOM     11  N5  UNL     1      14.997  26.079  16.779  0.00  0.00    -0.182 N 
ENDROOT
BRANCH   1  12
ATOM     12  N1  UNL     1      14.173  27.752  15.196  0.00  0.00    -0.299 N 
ATOM     13  H8  UNL     1      13.181  27.683  14.987  0.00  0.00    +0.154 HD
BRANCH  12  17
ATOM     14  C3  UNL     1      16.008  30.899  13.007  0.00  0.00    -0.048 A 
ATOM     15  C4  UNL     1      16.663  29.686  13.233  0.00  0.00    +0.005 A 
ATOM     16  C5  UNL     1      16.035  28.667  13.955  0.00  0.00    +0.023 A 
ATOM     17  C6  UNL     1      14.732  28.823  14.456  0.00  0.00    +0.032 A 
ATOM     18  C14 UNL     1      14.090  30.045  14.235  0.00  0.00    +0.023 A 
ATOM     19  C15 UNL     1      14.715  31.068  13.512  0.00  0.00    +0.005 A 
BRANCH  14  21
ATOM     20  C1  UNL     1      15.874  33.290  12.265  0.00  0.00    +0.009 C 
ATOM     21  C2  UNL     1      16.674  31.998  12.220  0.00  0.00    +0.032 C 
ENDBRANCH  14  21
ENDBRANCH  12  17
ENDBRANCH   1  12
TORSDOF 3
ENDMDL
