MODEL 1
REMARK VINA RESULT:    -3.361      0.000      0.000
REMARK INTER + INTRA:          -5.979
REMARK INTER:                  -4.737
REMARK INTRA:                  -1.242
REMARK UNBOUND:                -1.242
REMARK  Name = /home/vital/Documents/PhD_2021/Malaria_codes/data/pdb_ligands_mmv/ligand_234.pdb
REMARK  9 active torsions:
REMARK  status: ('A' for Active; 'I' for Inactive)
REMARK    1  A    between atoms: C1_1  and  N1_2
REMARK    2  A    between atoms: N1_2  and  C2_3
REMARK    3  A    between atoms: N1_2  and  C3_4
REMARK    4  A    between atoms: C3_4  and  C4_5
REMARK    5  A    between atoms: C4_5  and  C5_6
REMARK    6  A    between atoms: C5_6  and  N2_7
REMARK    7  A    between atoms: N2_7  and  C6_8
REMARK    8  A    between atoms: C6_8  and  C7_9
REMARK    9  A    between atoms: C8_11  and  C11_14
REMARK                            x       y       z     vdW  Elec       q    Type
REMARK                         _______ _______ _______ _____ _____    ______ ____
ROOT
ATOM      1  C7  UNL     1      14.233  26.260  15.433  0.00  0.00    +0.119 A 
ATOM      2  O1  UNL     1      14.375  27.614  15.346  0.00  0.00    -0.458 OA
ATOM      3  C8  UNL     1      14.883  27.901  14.111  0.00  0.00    +0.135 A 
ATOM      4  C9  UNL     1      15.055  26.726  13.405  0.00  0.00    +0.050 A 
ATOM      5  C10 UNL     1      14.638  25.672  14.253  0.00  0.00    +0.046 A 
ENDROOT
BRANCH   3   6
ATOM      6  C11 UNL     1      15.115  29.315  13.822  0.00  0.00    +0.019 A 
ATOM      7  C12 UNL     1      15.347  29.759  12.508  0.00  0.00    +0.014 A 
ATOM      8  C13 UNL     1      15.568  31.111  12.232  0.00  0.00    +0.040 A 
ATOM      9  C14 UNL     1      15.559  32.033  13.271  0.00  0.00    +0.142 A 
ATOM     10  F1  UNL     1      15.773  33.327  12.988  0.00  0.00    -0.204 F 
ATOM     11  C15 UNL     1      15.331  31.618  14.579  0.00  0.00    +0.077 A 
ATOM     12 CL1  UNL     1      15.319  32.756  15.872  0.00  0.00    -0.081 Cl
ATOM     13  C16 UNL     1      15.109  30.265  14.856  0.00  0.00    +0.034 A 
ENDBRANCH   3   6
BRANCH   1  14
ATOM     14  C6  UNL     1      13.691  25.721  16.710  0.00  0.00    +0.155 C 
BRANCH  14  15
ATOM     15  N2  UNL     1      14.724  25.730  17.748  0.00  0.00    -0.309 NA
ATOM     16  H13 UNL     1      15.229  26.613  17.712  0.00  0.00    +0.122 HD
BRANCH  15  17
ATOM     17  C5  UNL     1      15.653  24.608  17.631  0.00  0.00    +0.082 C 
BRANCH  17  18
ATOM     18  C4  UNL     1      17.106  24.984  17.951  0.00  0.00    +0.030 C 
BRANCH  18  19
ATOM     19  C3  UNL     1      17.884  25.281  16.661  0.00  0.00    +0.085 C 
BRANCH  19  21
ATOM     20  C1  UNL     1      18.464  26.888  14.966  0.00  0.00    +0.104 C 
ATOM     21  N1  UNL     1      17.594  26.618  16.114  0.00  0.00    -0.308 NA
ATOM     22  C2  UNL     1      17.764  27.673  17.115  0.00  0.00    +0.104 C 
ENDBRANCH  19  21
ENDBRANCH  18  19
ENDBRANCH  17  18
ENDBRANCH  15  17
ENDBRANCH  14  15
ENDBRANCH   1  14
TORSDOF 7
ENDMDL
MODEL 2
REMARK VINA RESULT:    -3.328      1.810      2.473
REMARK INTER + INTRA:          -5.932
REMARK INTER:                  -5.161
REMARK INTRA:                  -0.771
REMARK UNBOUND:                -1.242
REMARK  Name = /home/vital/Documents/PhD_2021/Malaria_codes/data/pdb_ligands_mmv/ligand_234.pdb
REMARK  9 active torsions:
REMARK  status: ('A' for Active; 'I' for Inactive)
REMARK    1  A    between atoms: C1_1  and  N1_2
REMARK    2  A    between atoms: N1_2  and  C2_3
REMARK    3  A    between atoms: N1_2  and  C3_4
REMARK    4  A    between atoms: C3_4  and  C4_5
REMARK    5  A    between atoms: C4_5  and  C5_6
REMARK    6  A    between atoms: C5_6  and  N2_7
REMARK    7  A    between atoms: N2_7  and  C6_8
REMARK    8  A    between atoms: C6_8  and  C7_9
REMARK    9  A    between atoms: C8_11  and  C11_14
REMARK                            x       y       z     vdW  Elec       q    Type
REMARK                         _______ _______ _______ _____ _____    ______ ____
ROOT
ATOM      1  C7  UNL     1      14.444  26.650  14.523  0.00  0.00    +0.119 A 
ATOM      2  O1  UNL     1      14.370  27.906  15.049  0.00  0.00    -0.458 OA
ATOM      3  C8  UNL     1      15.074  28.744  14.231  0.00  0.00    +0.135 A 
ATOM      4  C9  UNL     1      15.591  28.019  13.174  0.00  0.00    +0.050 A 
ATOM      5  C10 UNL     1      15.188  26.674  13.361  0.00  0.00    +0.046 A 
ENDROOT
BRANCH   3   6
ATOM      6  C11 UNL     1      15.119  30.149  14.630  0.00  0.00    +0.019 A 
ATOM      7  C12 UNL     1      14.822  31.174  13.714  0.00  0.00    +0.014 A 
ATOM      8  C13 UNL     1      14.864  32.517  14.097  0.00  0.00    +0.040 A 
ATOM      9  C14 UNL     1      15.205  32.848  15.403  0.00  0.00    +0.142 A 
ATOM     10  F1  UNL     1      15.240  34.142  15.753  0.00  0.00    -0.204 F 
ATOM     11  C15 UNL     1      15.503  31.851  16.327  0.00  0.00    +0.077 A 
ATOM     12 CL1  UNL     1      15.926  32.254  17.947  0.00  0.00    -0.081 Cl
ATOM     13  C16 UNL     1      15.460  30.507  15.945  0.00  0.00    +0.034 A 
ENDBRANCH   3   6
BRANCH   1  14
ATOM     14  C6  UNL     1      13.741  25.568  15.264  0.00  0.00    +0.155 C 
BRANCH  14  15
ATOM     15  N2  UNL     1      14.704  24.596  15.784  0.00  0.00    -0.309 NA
ATOM     16  H13 UNL     1      14.457  23.666  15.450  0.00  0.00    +0.122 HD
BRANCH  15  17
ATOM     17  C5  UNL     1      14.786  24.605  17.243  0.00  0.00    +0.082 C 
BRANCH  17  18
ATOM     18  C4  UNL     1      16.070  25.252  17.778  0.00  0.00    +0.030 C 
BRANCH  18  19
ATOM     19  C3  UNL     1      15.833  26.733  18.105  0.00  0.00    +0.085 C 
BRANCH  19  21
ATOM     20  C1  UNL     1      13.691  27.583  18.801  0.00  0.00    +0.104 C 
ATOM     21  N1  UNL     1      14.923  26.927  19.249  0.00  0.00    -0.308 NA
ATOM     22  C2  UNL     1      15.538  27.718  20.316  0.00  0.00    +0.104 C 
ENDBRANCH  19  21
ENDBRANCH  18  19
ENDBRANCH  17  18
ENDBRANCH  15  17
ENDBRANCH  14  15
ENDBRANCH   1  14
TORSDOF 7
ENDMDL
MODEL 3
REMARK VINA RESULT:    -3.039      1.571      2.024
REMARK INTER + INTRA:          -5.525
REMARK INTER:                  -4.473
REMARK INTRA:                  -1.051
REMARK UNBOUND:                -1.242
REMARK  Name = /home/vital/Documents/PhD_2021/Malaria_codes/data/pdb_ligands_mmv/ligand_234.pdb
REMARK  9 active torsions:
REMARK  status: ('A' for Active; 'I' for Inactive)
REMARK    1  A    between atoms: C1_1  and  N1_2
REMARK    2  A    between atoms: N1_2  and  C2_3
REMARK    3  A    between atoms: N1_2  and  C3_4
REMARK    4  A    between atoms: C3_4  and  C4_5
REMARK    5  A    between atoms: C4_5  and  C5_6
REMARK    6  A    between atoms: C5_6  and  N2_7
REMARK    7  A    between atoms: N2_7  and  C6_8
REMARK    8  A    between atoms: C6_8  and  C7_9
REMARK    9  A    between atoms: C8_11  and  C11_14
REMARK                            x       y       z     vdW  Elec       q    Type
REMARK                         _______ _______ _______ _____ _____    ______ ____
ROOT
ATOM      1  C7  UNL     1      14.922  25.516  15.421  0.00  0.00    +0.119 A 
ATOM      2  O1  UNL     1      15.385  26.772  15.684  0.00  0.00    -0.458 OA
ATOM      3  C8  UNL     1      14.639  27.653  14.953  0.00  0.00    +0.135 A 
ATOM      4  C9  UNL     1      13.690  26.956  14.230  0.00  0.00    +0.050 A 
ATOM      5  C10 UNL     1      13.871  25.583  14.529  0.00  0.00    +0.046 A 
ENDROOT
BRANCH   3   6
ATOM      6  C11 UNL     1      14.987  29.066  15.094  0.00  0.00    +0.019 A 
ATOM      7  C12 UNL     1      15.618  29.546  16.256  0.00  0.00    +0.014 A 
ATOM      8  C13 UNL     1      15.952  30.897  16.389  0.00  0.00    +0.040 A 
ATOM      9  C14 UNL     1      15.657  31.780  15.358  0.00  0.00    +0.142 A 
ATOM     10  F1  UNL     1      15.984  33.073  15.502  0.00  0.00    -0.204 F 
ATOM     11  C15 UNL     1      15.034  31.328  14.199  0.00  0.00    +0.077 A 
ATOM     12 CL1  UNL     1      14.666  32.419  12.918  0.00  0.00    -0.081 Cl
ATOM     13  C16 UNL     1      14.700  29.977  14.065  0.00  0.00    +0.034 A 
ENDBRANCH   3   6
BRANCH   1  14
ATOM     14  C6  UNL     1      15.600  24.389  16.117  0.00  0.00    +0.155 C 
BRANCH  14  15
ATOM     15  N2  UNL     1      15.660  24.641  17.558  0.00  0.00    -0.309 NA
ATOM     16  H13 UNL     1      15.699  25.646  17.722  0.00  0.00    +0.122 HD
BRANCH  15  17
ATOM     17  C5  UNL     1      16.790  23.977  18.203  0.00  0.00    +0.082 C 
BRANCH  17  18
ATOM     18  C4  UNL     1      17.962  23.704  17.252  0.00  0.00    +0.030 C 
BRANCH  18  19
ATOM     19  C3  UNL     1      19.059  24.764  17.428  0.00  0.00    +0.085 C 
BRANCH  19  21
ATOM     20  C1  UNL     1      18.785  26.842  16.246  0.00  0.00    +0.104 C 
ATOM     21  N1  UNL     1      18.523  26.134  17.503  0.00  0.00    -0.308 NA
ATOM     22  C2  UNL     1      19.095  26.891  18.618  0.00  0.00    +0.104 C 
ENDBRANCH  19  21
ENDBRANCH  18  19
ENDBRANCH  17  18
ENDBRANCH  15  17
ENDBRANCH  14  15
ENDBRANCH   1  14
TORSDOF 7
ENDMDL
MODEL 4
REMARK VINA RESULT:    -3.025      1.726      2.299
REMARK INTER + INTRA:          -5.506
REMARK INTER:                  -4.387
REMARK INTRA:                  -1.119
REMARK UNBOUND:                -1.242
REMARK  Name = /home/vital/Documents/PhD_2021/Malaria_codes/data/pdb_ligands_mmv/ligand_234.pdb
REMARK  9 active torsions:
REMARK  status: ('A' for Active; 'I' for Inactive)
REMARK    1  A    between atoms: C1_1  and  N1_2
REMARK    2  A    between atoms: N1_2  and  C2_3
REMARK    3  A    between atoms: N1_2  and  C3_4
REMARK    4  A    between atoms: C3_4  and  C4_5
REMARK    5  A    between atoms: C4_5  and  C5_6
REMARK    6  A    between atoms: C5_6  and  N2_7
REMARK    7  A    between atoms: N2_7  and  C6_8
REMARK    8  A    between atoms: C6_8  and  C7_9
REMARK    9  A    between atoms: C8_11  and  C11_14
REMARK                            x       y       z     vdW  Elec       q    Type
REMARK                         _______ _______ _______ _____ _____    ______ ____
ROOT
ATOM      1  C7  UNL     1      14.976  25.059  16.280  0.00  0.00    +0.119 A 
ATOM      2  O1  UNL     1      15.451  25.993  15.407  0.00  0.00    -0.458 OA
ATOM      3  C8  UNL     1      14.686  27.117  15.542  0.00  0.00    +0.135 A 
ATOM      4  C9  UNL     1      13.726  26.901  16.512  0.00  0.00    +0.050 A 
ATOM      5  C10 UNL     1      13.911  25.579  16.986  0.00  0.00    +0.046 A 
ENDROOT
BRANCH   3   6
ATOM      6  C11 UNL     1      15.035  28.244  14.679  0.00  0.00    +0.019 A 
ATOM      7  C12 UNL     1      15.673  28.041  13.443  0.00  0.00    +0.014 A 
ATOM      8  C13 UNL     1      16.006  29.120  12.618  0.00  0.00    +0.040 A 
ATOM      9  C14 UNL     1      15.702  30.413  13.024  0.00  0.00    +0.142 A 
ATOM     10  F1  UNL     1      16.028  31.436  12.220  0.00  0.00    -0.204 F 
ATOM     11  C15 UNL     1      15.071  30.638  14.243  0.00  0.00    +0.077 A 
ATOM     12 CL1  UNL     1      14.691  32.239  14.753  0.00  0.00    -0.081 Cl
ATOM     13  C16 UNL     1      14.737  29.560  15.069  0.00  0.00    +0.034 A 
ENDBRANCH   3   6
BRANCH   1  14
ATOM     14  C6  UNL     1      15.670  23.742  16.299  0.00  0.00    +0.155 C 
BRANCH  14  15
ATOM     15  N2  UNL     1      15.801  23.255  17.673  0.00  0.00    -0.309 NA
ATOM     16  H13 UNL     1      15.433  23.954  18.315  0.00  0.00    +0.122 HD
BRANCH  15  17
ATOM     17  C5  UNL     1      17.179  22.918  18.025  0.00  0.00    +0.082 C 
BRANCH  17  18
ATOM     18  C4  UNL     1      18.223  23.760  17.281  0.00  0.00    +0.030 C 
BRANCH  18  19
ATOM     19  C3  UNL     1      18.681  24.942  18.148  0.00  0.00    +0.085 C 
BRANCH  19  21
ATOM     20  C1  UNL     1      17.355  26.946  18.291  0.00  0.00    +0.104 C 
ATOM     21  N1  UNL     1      17.565  25.605  18.846  0.00  0.00    -0.308 NA
ATOM     22  C2  UNL     1      17.796  25.703  20.288  0.00  0.00    +0.104 C 
ENDBRANCH  19  21
ENDBRANCH  18  19
ENDBRANCH  17  18
ENDBRANCH  15  17
ENDBRANCH  14  15
ENDBRANCH   1  14
TORSDOF 7
ENDMDL
MODEL 5
REMARK VINA RESULT:    -2.994      3.723      5.855
REMARK INTER + INTRA:          -5.461
REMARK INTER:                  -4.121
REMARK INTRA:                  -1.340
REMARK UNBOUND:                -1.242
REMARK  Name = /home/vital/Documents/PhD_2021/Malaria_codes/data/pdb_ligands_mmv/ligand_234.pdb
REMARK  9 active torsions:
REMARK  status: ('A' for Active; 'I' for Inactive)
REMARK    1  A    between atoms: C1_1  and  N1_2
REMARK    2  A    between atoms: N1_2  and  C2_3
REMARK    3  A    between atoms: N1_2  and  C3_4
REMARK    4  A    between atoms: C3_4  and  C4_5
REMARK    5  A    between atoms: C4_5  and  C5_6
REMARK    6  A    between atoms: C5_6  and  N2_7
REMARK    7  A    between atoms: N2_7  and  C6_8
REMARK    8  A    between atoms: C6_8  and  C7_9
REMARK    9  A    between atoms: C8_11  and  C11_14
REMARK                            x       y       z     vdW  Elec       q    Type
REMARK                         _______ _______ _______ _____ _____    ______ ____
ROOT
ATOM      1  C7  UNL     1      15.565  31.342  15.259  0.00  0.00    +0.119 A 
ATOM      2  O1  UNL     1      15.603  30.031  15.634  0.00  0.00    -0.458 OA
ATOM      3  C8  UNL     1      15.076  29.290  14.614  0.00  0.00    +0.135 A 
ATOM      4  C9  UNL     1      14.711  30.132  13.581  0.00  0.00    +0.050 A 
ATOM      5  C10 UNL     1      15.024  31.450  13.994  0.00  0.00    +0.046 A 
ENDROOT
BRANCH   3   6
ATOM      6  C11 UNL     1      15.023  27.845  14.826  0.00  0.00    +0.019 A 
ATOM      7  C12 UNL     1      15.152  26.947  13.752  0.00  0.00    +0.014 A 
ATOM      8  C13 UNL     1      15.102  25.566  13.956  0.00  0.00    +0.040 A 
ATOM      9  C14 UNL     1      14.921  25.069  15.241  0.00  0.00    +0.142 A 
ATOM     10  F1  UNL     1      14.876  23.740  15.419  0.00  0.00    -0.204 F 
ATOM     11  C15 UNL     1      14.792  25.937  16.320  0.00  0.00    +0.077 A 
ATOM     12 CL1  UNL     1      14.568  25.328  17.916  0.00  0.00    -0.081 Cl
ATOM     13  C16 UNL     1      14.842  27.320  16.117  0.00  0.00    +0.034 A 
ENDBRANCH   3   6
BRANCH   1  14
ATOM     14  C6  UNL     1      16.093  32.336  16.232  0.00  0.00    +0.155 C 
BRANCH  14  15
ATOM     15  N2  UNL     1      17.527  32.128  16.446  0.00  0.00    -0.309 NA
ATOM     16  H13 UNL     1      17.798  32.546  17.334  0.00  0.00    +0.122 HD
BRANCH  15  17
ATOM     17  C5  UNL     1      18.345  32.666  15.361  0.00  0.00    +0.082 C 
BRANCH  17  18
ATOM     18  C4  UNL     1      19.748  32.049  15.292  0.00  0.00    +0.030 C 
BRANCH  18  19
ATOM     19  C3  UNL     1      19.838  31.041  14.137  0.00  0.00    +0.085 C 
BRANCH  19  21
ATOM     20  C1  UNL     1      18.790  28.964  14.752  0.00  0.00    +0.104 C 
ATOM     21  N1  UNL     1      18.626  30.214  14.004  0.00  0.00    -0.308 NA
ATOM     22  C2  UNL     1      18.316  29.910  12.606  0.00  0.00    +0.104 C 
ENDBRANCH  19  21
ENDBRANCH  18  19
ENDBRANCH  17  18
ENDBRANCH  15  17
ENDBRANCH  14  15
ENDBRANCH   1  14
TORSDOF 7
ENDMDL
MODEL 6
REMARK VINA RESULT:    -2.907      2.047      2.737
REMARK INTER + INTRA:          -5.340
REMARK INTER:                  -4.157
REMARK INTRA:                  -1.183
REMARK UNBOUND:                -1.242
REMARK  Name = /home/vital/Documents/PhD_2021/Malaria_codes/data/pdb_ligands_mmv/ligand_234.pdb
REMARK  9 active torsions:
REMARK  status: ('A' for Active; 'I' for Inactive)
REMARK    1  A    between atoms: C1_1  and  N1_2
REMARK    2  A    between atoms: N1_2  and  C2_3
REMARK    3  A    between atoms: N1_2  and  C3_4
REMARK    4  A    between atoms: C3_4  and  C4_5
REMARK    5  A    between atoms: C4_5  and  C5_6
REMARK    6  A    between atoms: C5_6  and  N2_7
REMARK    7  A    between atoms: N2_7  and  C6_8
REMARK    8  A    between atoms: C6_8  and  C7_9
REMARK    9  A    between atoms: C8_11  and  C11_14
REMARK                            x       y       z     vdW  Elec       q    Type
REMARK                         _______ _______ _______ _____ _____    ______ ____
ROOT
ATOM      1  C7  UNL     1      15.606  24.907  16.052  0.00  0.00    +0.119 A 
ATOM      2  O1  UNL     1      15.761  26.235  15.783  0.00  0.00    -0.458 OA
ATOM      3  C8  UNL     1      14.983  26.535  14.701  0.00  0.00    +0.135 A 
ATOM      4  C9  UNL     1      14.320  25.396  14.286  0.00  0.00    +0.050 A 
ATOM      5  C10 UNL     1      14.721  24.349  15.153  0.00  0.00    +0.046 A 
ENDROOT
BRANCH   3   6
ATOM      6  C11 UNL     1      15.015  27.925  14.247  0.00  0.00    +0.019 A 
ATOM      7  C12 UNL     1      13.948  28.800  14.511  0.00  0.00    +0.014 A 
ATOM      8  C13 UNL     1      13.981  30.129  14.078  0.00  0.00    +0.040 A 
ATOM      9  C14 UNL     1      15.085  30.593  13.375  0.00  0.00    +0.142 A 
ATOM     10  F1  UNL     1      15.100  31.871  12.967  0.00  0.00    -0.204 F 
ATOM     11  C15 UNL     1      16.154  29.746  13.103  0.00  0.00    +0.077 A 
ATOM     12 CL1  UNL     1      17.527  30.316  12.232  0.00  0.00    -0.081 Cl
ATOM     13  C16 UNL     1      16.122  28.417  13.536  0.00  0.00    +0.034 A 
ENDBRANCH   3   6
BRANCH   1  14
ATOM     14  C6  UNL     1      16.374  24.360  17.203  0.00  0.00    +0.155 C 
BRANCH  14  15
ATOM     15  N2  UNL     1      16.378  25.314  18.314  0.00  0.00    -0.309 NA
ATOM     16  H13 UNL     1      15.839  26.137  18.052  0.00  0.00    +0.122 HD
BRANCH  15  17
ATOM     17  C5  UNL     1      17.726  25.699  18.726  0.00  0.00    +0.082 C 
BRANCH  17  18
ATOM     18  C4  UNL     1      17.962  27.214  18.701  0.00  0.00    +0.030 C 
BRANCH  18  19
ATOM     19  C3  UNL     1      16.779  27.956  19.339  0.00  0.00    +0.085 C 
BRANCH  19  21
ATOM     20  C1  UNL     1      16.379  29.331  17.405  0.00  0.00    +0.104 C 
ATOM     21  N1  UNL     1      15.775  28.388  18.350  0.00  0.00    -0.308 NA
ATOM     22  C2  UNL     1      14.609  29.008  18.982  0.00  0.00    +0.104 C 
ENDBRANCH  19  21
ENDBRANCH  18  19
ENDBRANCH  17  18
ENDBRANCH  15  17
ENDBRANCH  14  15
ENDBRANCH   1  14
TORSDOF 7
ENDMDL
MODEL 7
REMARK VINA RESULT:    -2.887      2.257      3.524
REMARK INTER + INTRA:          -5.311
REMARK INTER:                  -4.323
REMARK INTRA:                  -0.988
REMARK UNBOUND:                -1.242
REMARK  Name = /home/vital/Documents/PhD_2021/Malaria_codes/data/pdb_ligands_mmv/ligand_234.pdb
REMARK  9 active torsions:
REMARK  status: ('A' for Active; 'I' for Inactive)
REMARK    1  A    between atoms: C1_1  and  N1_2
REMARK    2  A    between atoms: N1_2  and  C2_3
REMARK    3  A    between atoms: N1_2  and  C3_4
REMARK    4  A    between atoms: C3_4  and  C4_5
REMARK    5  A    between atoms: C4_5  and  C5_6
REMARK    6  A    between atoms: C5_6  and  N2_7
REMARK    7  A    between atoms: N2_7  and  C6_8
REMARK    8  A    between atoms: C6_8  and  C7_9
REMARK    9  A    between atoms: C8_11  and  C11_14
REMARK                            x       y       z     vdW  Elec       q    Type
REMARK                         _______ _______ _______ _____ _____    ______ ____
ROOT
ATOM      1  C7  UNL     1      15.590  28.545  13.217  0.00  0.00    +0.119 A 
ATOM      2  O1  UNL     1      15.555  29.144  14.442  0.00  0.00    -0.458 OA
ATOM      3  C8  UNL     1      15.564  30.496  14.246  0.00  0.00    +0.135 A 
ATOM      4  C9  UNL     1      15.594  30.759  12.890  0.00  0.00    +0.050 A 
ATOM      5  C10 UNL     1      15.611  29.506  12.228  0.00  0.00    +0.046 A 
ENDROOT
BRANCH   3   6
ATOM      6  C11 UNL     1      15.536  31.324  15.450  0.00  0.00    +0.019 A 
ATOM      7  C12 UNL     1      15.634  30.748  16.729  0.00  0.00    +0.014 A 
ATOM      8  C13 UNL     1      15.609  31.541  17.880  0.00  0.00    +0.040 A 
ATOM      9  C14 UNL     1      15.484  32.920  17.761  0.00  0.00    +0.142 A 
ATOM     10  F1  UNL     1      15.461  33.665  18.876  0.00  0.00    -0.204 F 
ATOM     11  C15 UNL     1      15.385  33.511  16.506  0.00  0.00    +0.077 A 
ATOM     12 CL1  UNL     1      15.230  35.220  16.351  0.00  0.00    -0.081 Cl
ATOM     13  C16 UNL     1      15.412  32.719  15.354  0.00  0.00    +0.034 A 
ENDBRANCH   3   6
BRANCH   1  14
ATOM     14  C6  UNL     1      15.589  27.057  13.196  0.00  0.00    +0.155 C 
BRANCH  14  15
ATOM     15  N2  UNL     1      14.661  26.533  14.200  0.00  0.00    -0.309 NA
ATOM     16  H13 UNL     1      14.908  26.907  15.114  0.00  0.00    +0.122 HD
BRANCH  15  17
ATOM     17  C5  UNL     1      14.634  25.072  14.239  0.00  0.00    +0.082 C 
BRANCH  17  18
ATOM     18  C4  UNL     1      15.330  24.482  15.472  0.00  0.00    +0.030 C 
BRANCH  18  19
ATOM     19  C3  UNL     1      15.360  25.505  16.617  0.00  0.00    +0.085 C 
BRANCH  19  21
ATOM     20  C1  UNL     1      17.746  25.629  16.326  0.00  0.00    +0.104 C 
ATOM     21  N1  UNL     1      16.523  26.407  16.548  0.00  0.00    -0.308 NA
ATOM     22  C2  UNL     1      16.670  27.212  17.762  0.00  0.00    +0.104 C 
ENDBRANCH  19  21
ENDBRANCH  18  19
ENDBRANCH  17  18
ENDBRANCH  15  17
ENDBRANCH  14  15
ENDBRANCH   1  14
TORSDOF 7
ENDMDL
MODEL 8
REMARK VINA RESULT:    -2.833      3.832      6.260
REMARK INTER + INTRA:          -5.234
REMARK INTER:                  -4.282
REMARK INTRA:                  -0.953
REMARK UNBOUND:                -1.242
REMARK  Name = /home/vital/Documents/PhD_2021/Malaria_codes/data/pdb_ligands_mmv/ligand_234.pdb
REMARK  9 active torsions:
REMARK  status: ('A' for Active; 'I' for Inactive)
REMARK    1  A    between atoms: C1_1  and  N1_2
REMARK    2  A    between atoms: N1_2  and  C2_3
REMARK    3  A    between atoms: N1_2  and  C3_4
REMARK    4  A    between atoms: C3_4  and  C4_5
REMARK    5  A    between atoms: C4_5  and  C5_6
REMARK    6  A    between atoms: C5_6  and  N2_7
REMARK    7  A    between atoms: N2_7  and  C6_8
REMARK    8  A    between atoms: C6_8  and  C7_9
REMARK    9  A    between atoms: C8_11  and  C11_14
REMARK                            x       y       z     vdW  Elec       q    Type
REMARK                         _______ _______ _______ _____ _____    ______ ____
ROOT
ATOM      1  C7  UNL     1      15.418  31.111  13.397  0.00  0.00    +0.119 A 
ATOM      2  O1  UNL     1      15.006  30.226  14.349  0.00  0.00    -0.458 OA
ATOM      3  C8  UNL     1      15.197  28.966  13.858  0.00  0.00    +0.135 A 
ATOM      4  C9  UNL     1      15.744  29.048  12.592  0.00  0.00    +0.050 A 
ATOM      5  C10 UNL     1      15.886  30.426  12.294  0.00  0.00    +0.046 A 
ENDROOT
BRANCH   3   6
ATOM      6  C11 UNL     1      14.807  27.864  14.736  0.00  0.00    +0.019 A 
ATOM      7  C12 UNL     1      14.298  26.663  14.212  0.00  0.00    +0.014 A 
ATOM      8  C13 UNL     1      13.926  25.610  15.053  0.00  0.00    +0.040 A 
ATOM      9  C14 UNL     1      14.061  25.750  16.429  0.00  0.00    +0.142 A 
ATOM     10  F1  UNL     1      13.700  24.730  17.220  0.00  0.00    -0.204 F 
ATOM     11  C15 UNL     1      14.563  26.929  16.970  0.00  0.00    +0.077 A 
ATOM     12 CL1  UNL     1      14.733  27.110  18.675  0.00  0.00    -0.081 Cl
ATOM     13  C16 UNL     1      14.936  27.983  16.130  0.00  0.00    +0.034 A 
ENDBRANCH   3   6
BRANCH   1  14
ATOM     14  C6  UNL     1      15.296  32.558  13.724  0.00  0.00    +0.155 C 
BRANCH  14  15
ATOM     15  N2  UNL     1      15.412  32.765  15.169  0.00  0.00    -0.309 NA
ATOM     16  H13 UNL     1      14.489  32.952  15.557  0.00  0.00    +0.122 HD
BRANCH  15  17
ATOM     17  C5  UNL     1      16.335  33.844  15.515  0.00  0.00    +0.082 C 
BRANCH  17  18
ATOM     18  C4  UNL     1      16.306  34.220  17.001  0.00  0.00    +0.030 C 
BRANCH  18  19
ATOM     19  C3  UNL     1      16.754  33.033  17.867  0.00  0.00    +0.085 C 
BRANCH  19  21
ATOM     20  C1  UNL     1      14.830  32.543  19.229  0.00  0.00    +0.104 C 
ATOM     21  N1  UNL     1      15.668  32.070  18.123  0.00  0.00    -0.308 NA
ATOM     22  C2  UNL     1      16.178  30.733  18.433  0.00  0.00    +0.104 C 
ENDBRANCH  19  21
ENDBRANCH  18  19
ENDBRANCH  17  18
ENDBRANCH  15  17
ENDBRANCH  14  15
ENDBRANCH   1  14
TORSDOF 7
ENDMDL
MODEL 9
REMARK VINA RESULT:    -2.791      1.692      2.400
REMARK INTER + INTRA:          -5.176
REMARK INTER:                  -4.191
REMARK INTRA:                  -0.985
REMARK UNBOUND:                -1.242
REMARK  Name = /home/vital/Documents/PhD_2021/Malaria_codes/data/pdb_ligands_mmv/ligand_234.pdb
REMARK  9 active torsions:
REMARK  status: ('A' for Active; 'I' for Inactive)
REMARK    1  A    between atoms: C1_1  and  N1_2
REMARK    2  A    between atoms: N1_2  and  C2_3
REMARK    3  A    between atoms: N1_2  and  C3_4
REMARK    4  A    between atoms: C3_4  and  C4_5
REMARK    5  A    between atoms: C4_5  and  C5_6
REMARK    6  A    between atoms: C5_6  and  N2_7
REMARK    7  A    between atoms: N2_7  and  C6_8
REMARK    8  A    between atoms: C6_8  and  C7_9
REMARK    9  A    between atoms: C8_11  and  C11_14
REMARK                            x       y       z     vdW  Elec       q    Type
REMARK                         _______ _______ _______ _____ _____    ______ ____
ROOT
ATOM      1  C7  UNL     1      14.472  27.525  17.370  0.00  0.00    +0.119 A 
ATOM      2  O1  UNL     1      15.033  28.609  16.761  0.00  0.00    -0.458 OA
ATOM      3  C8  UNL     1      14.669  28.583  15.445  0.00  0.00    +0.135 A 
ATOM      4  C9  UNL     1      13.864  27.483  15.217  0.00  0.00    +0.050 A 
ATOM      5  C10 UNL     1      13.737  26.803  16.453  0.00  0.00    +0.046 A 
ENDROOT
BRANCH   3   6
ATOM      6  C11 UNL     1      15.180  29.670  14.611  0.00  0.00    +0.019 A 
ATOM      7  C12 UNL     1      15.211  29.557  13.210  0.00  0.00    +0.014 A 
ATOM      8  C13 UNL     1      15.698  30.598  12.414  0.00  0.00    +0.040 A 
ATOM      9  C14 UNL     1      16.159  31.762  13.015  0.00  0.00    +0.142 A 
ATOM     10  F1  UNL     1      16.624  32.750  12.235  0.00  0.00    -0.204 F 
ATOM     11  C15 UNL     1      16.138  31.896  14.399  0.00  0.00    +0.077 A 
ATOM     12 CL1  UNL     1      16.709  33.338  15.150  0.00  0.00    -0.081 Cl
ATOM     13  C16 UNL     1      15.650  30.857  15.196  0.00  0.00    +0.034 A 
ENDBRANCH   3   6
BRANCH   1  14
ATOM     14  C6  UNL     1      14.744  27.355  18.823  0.00  0.00    +0.155 C 
BRANCH  14  15
ATOM     15  N2  UNL     1      15.658  26.233  19.044  0.00  0.00    -0.309 NA
ATOM     16  H13 UNL     1      15.582  25.921  20.010  0.00  0.00    +0.122 HD
BRANCH  15  17
ATOM     17  C5  UNL     1      17.046  26.561  18.724  0.00  0.00    +0.082 C 
BRANCH  17  18
ATOM     18  C4  UNL     1      17.758  25.474  17.909  0.00  0.00    +0.030 C 
BRANCH  18  19
ATOM     19  C3  UNL     1      16.806  24.869  16.866  0.00  0.00    +0.085 C 
BRANCH  19  21
ATOM     20  C1  UNL     1      17.099  22.856  18.153  0.00  0.00    +0.104 C 
ATOM     21  N1  UNL     1      16.162  23.628  17.332  0.00  0.00    -0.308 NA
ATOM     22  C2  UNL     1      15.691  22.800  16.219  0.00  0.00    +0.104 C 
ENDBRANCH  19  21
ENDBRANCH  18  19
ENDBRANCH  17  18
ENDBRANCH  15  17
ENDBRANCH  14  15
ENDBRANCH   1  14
TORSDOF 7
ENDMDL
