MODEL 1
REMARK VINA RESULT:    -4.681      0.000      0.000
REMARK INTER + INTRA:          -9.735
REMARK INTER:                  -6.459
REMARK INTRA:                  -3.276
REMARK UNBOUND:                -3.276
REMARK  Name = /home/vital/Documents/PhD_2021/Malaria_codes/data/pdb_ligands_mmv/ligand_315.pdb
REMARK  8 active torsions:
REMARK  status: ('A' for Active; 'I' for Inactive)
REMARK    1  A    between atoms: C1_1  and  C2_2
REMARK    2  A    between atoms: C5_5  and  C22_24
REMARK    3  A    between atoms: C7_7  and  N1_8
REMARK    4  A    between atoms: N1_8  and  C8_9
REMARK    5  A    between atoms: C8_9  and  C9_10
REMARK    6  A    between atoms: C11_12  and  C12_13
REMARK    7  A    between atoms: C12_13  and  C13_14
REMARK    8  A    between atoms: C21_22  and  O1_23
REMARK                            x       y       z     vdW  Elec       q    Type
REMARK                         _______ _______ _______ _____ _____    ______ ____
ROOT
ATOM      1  N1  UNL     1      13.707  26.162  16.691  0.00  0.00    -0.339 N 
ATOM      2  H7  UNL     1      12.762  26.512  16.854  0.00  0.00    +0.146 HD
ENDROOT
BRANCH   1   9
ATOM      3  C1  UNL     1      14.354  24.491  14.427  0.00  0.00    +0.045 C 
ATOM      4  C2  UNL     1      14.602  25.978  14.440  0.00  0.00    -0.030 A 
ATOM      5  C3  UNL     1      15.183  26.568  13.305  0.00  0.00    +0.006 A 
ATOM      6  C4  UNL     1      15.459  27.933  13.274  0.00  0.00    +0.013 A 
ATOM      7  C5  UNL     1      15.172  28.737  14.379  0.00  0.00    +0.039 A 
ATOM      8  C6  UNL     1      14.586  28.140  15.511  0.00  0.00    +0.036 A 
ATOM      9  C7  UNL     1      14.254  26.776  15.552  0.00  0.00    +0.031 A 
BRANCH   7  10
ATOM     10  C22 UNL     1      15.459  30.170  14.390  0.00  0.00    +0.228 A 
ATOM     11  O2  UNL     1      15.798  30.740  13.186  0.00  0.00    -0.435 OA
ATOM     12  C23 UNL     1      15.997  32.054  13.489  0.00  0.00    +0.156 A 
ATOM     13  C24 UNL     1      16.360  33.074  12.618  0.00  0.00    +0.048 A 
ATOM     14  C25 UNL     1      16.502  34.342  13.194  0.00  0.00    +0.004 A 
ATOM     15  C26 UNL     1      16.287  34.550  14.564  0.00  0.00    +0.002 A 
ATOM     16  C27 UNL     1      15.920  33.492  15.410  0.00  0.00    +0.031 A 
ATOM     17  C28 UNL     1      15.773  32.217  14.846  0.00  0.00    +0.110 A 
ATOM     18  N2  UNL     1      15.428  31.015  15.409  0.00  0.00    -0.209 NA
ENDBRANCH   7  10
ENDBRANCH   1   9
BRANCH   1  19
ATOM     19  C8  UNL     1      14.462  26.143  17.948  0.00  0.00    +0.140 C 
BRANCH  19  20
ATOM     20  C9  UNL     1      15.793  25.461  17.728  0.00  0.00    +0.011 A 
ATOM     21  C10 UNL     1      16.940  26.241  17.502  0.00  0.00    +0.012 A 
ATOM     22  C11 UNL     1      18.186  25.647  17.235  0.00  0.00    -0.043 A 
ATOM     23  C19 UNL     1      18.274  24.249  17.179  0.00  0.00    +0.007 A 
ATOM     24  C20 UNL     1      17.142  23.463  17.393  0.00  0.00    +0.046 A 
ATOM     25  C21 UNL     1      15.919  24.067  17.665  0.00  0.00    +0.122 A 
BRANCH  25  26
ATOM     26  O1  UNL     1      14.855  23.235  17.881  0.00  0.00    -0.506 OA
ATOM     27  H20 UNL     1      15.192  22.313  17.840  0.00  0.00    +0.292 HD
ENDBRANCH  25  26
BRANCH  22  28
ATOM     28  C12 UNL     1      19.408  26.504  16.995  0.00  0.00    +0.070 C 
BRANCH  28  29
ATOM     29  C13 UNL     1      19.239  27.514  15.885  0.00  0.00    -0.043 A 
ATOM     30  C14 UNL     1      19.165  27.100  14.546  0.00  0.00    +0.004 A 
ATOM     31  C15 UNL     1      19.010  28.037  13.523  0.00  0.00    +0.000 A 
ATOM     32  C16 UNL     1      18.928  29.395  13.825  0.00  0.00    +0.000 A 
ATOM     33  C17 UNL     1      19.005  29.818  15.151  0.00  0.00    +0.000 A 
ATOM     34  C18 UNL     1      19.160  28.883  16.176  0.00  0.00    +0.004 A 
ENDBRANCH  28  29
ENDBRANCH  22  28
ENDBRANCH  19  20
ENDBRANCH   1  19
TORSDOF 7
ENDMDL
MODEL 2
REMARK VINA RESULT:    -4.229      1.958      3.985
REMARK INTER + INTRA:          -9.111
REMARK INTER:                  -6.100
REMARK INTRA:                  -3.012
REMARK UNBOUND:                -3.276
REMARK  Name = /home/vital/Documents/PhD_2021/Malaria_codes/data/pdb_ligands_mmv/ligand_315.pdb
REMARK  8 active torsions:
REMARK  status: ('A' for Active; 'I' for Inactive)
REMARK    1  A    between atoms: C1_1  and  C2_2
REMARK    2  A    between atoms: C5_5  and  C22_24
REMARK    3  A    between atoms: C7_7  and  N1_8
REMARK    4  A    between atoms: N1_8  and  C8_9
REMARK    5  A    between atoms: C8_9  and  C9_10
REMARK    6  A    between atoms: C11_12  and  C12_13
REMARK    7  A    between atoms: C12_13  and  C13_14
REMARK    8  A    between atoms: C21_22  and  O1_23
REMARK                            x       y       z     vdW  Elec       q    Type
REMARK                         _______ _______ _______ _____ _____    ______ ____
ROOT
ATOM      1  N1  UNL     1      17.472  26.792  18.951  0.00  0.00    -0.339 N 
ATOM      2  H7  UNL     1      18.215  26.094  18.998  0.00  0.00    +0.146 HD
ENDROOT
BRANCH   1   9
ATOM      3  C1  UNL     1      19.395  26.019  16.942  0.00  0.00    +0.045 C 
ATOM      4  C2  UNL     1      18.682  27.346  16.919  0.00  0.00    -0.030 A 
ATOM      5  C3  UNL     1      18.979  28.246  15.881  0.00  0.00    +0.006 A 
ATOM      6  C4  UNL     1      18.368  29.497  15.826  0.00  0.00    +0.013 A 
ATOM      7  C5  UNL     1      17.459  29.883  16.813  0.00  0.00    +0.039 A 
ATOM      8  C6  UNL     1      17.163  28.976  17.847  0.00  0.00    +0.036 A 
ATOM      9  C7  UNL     1      17.727  27.690  17.901  0.00  0.00    +0.031 A 
BRANCH   7  10
ATOM     10  C22 UNL     1      16.808  31.192  16.797  0.00  0.00    +0.228 A 
ATOM     11  O2  UNL     1      15.841  31.411  17.749  0.00  0.00    -0.435 OA
ATOM     12  C23 UNL     1      15.424  32.686  17.506  0.00  0.00    +0.156 A 
ATOM     13  C24 UNL     1      14.450  33.399  18.194  0.00  0.00    +0.048 A 
ATOM     14  C25 UNL     1      14.212  34.700  17.734  0.00  0.00    +0.004 A 
ATOM     15  C26 UNL     1      14.920  35.231  16.647  0.00  0.00    +0.002 A 
ATOM     16  C27 UNL     1      15.898  34.477  15.979  0.00  0.00    +0.031 A 
ATOM     17  C28 UNL     1      16.148  33.173  16.431  0.00  0.00    +0.110 A 
ATOM     18  N2  UNL     1      17.027  32.218  15.990  0.00  0.00    -0.209 NA
ENDBRANCH   7  10
ENDBRANCH   1   9
BRANCH   1  19
ATOM     19  C8  UNL     1      16.161  26.144  19.058  0.00  0.00    +0.140 C 
BRANCH  19  20
ATOM     20  C9  UNL     1      15.781  25.547  17.722  0.00  0.00    +0.011 A 
ATOM     21  C10 UNL     1      14.980  26.290  16.837  0.00  0.00    +0.012 A 
ATOM     22  C11 UNL     1      14.554  25.751  15.611  0.00  0.00    -0.043 A 
ATOM     23  C19 UNL     1      14.926  24.441  15.279  0.00  0.00    +0.007 A 
ATOM     24  C20 UNL     1      15.714  23.690  16.151  0.00  0.00    +0.046 A 
ATOM     25  C21 UNL     1      16.134  24.242  17.357  0.00  0.00    +0.122 A 
BRANCH  25  26
ATOM     26  O1  UNL     1      16.917  23.455  18.155  0.00  0.00    -0.506 OA
ATOM     27  H20 UNL     1      17.221  24.012  18.906  0.00  0.00    +0.292 HD
ENDBRANCH  25  26
BRANCH  22  28
ATOM     28  C12 UNL     1      13.693  26.567  14.672  0.00  0.00    +0.070 C 
BRANCH  28  29
ATOM     29  C13 UNL     1      14.336  27.855  14.217  0.00  0.00    -0.043 A 
ATOM     30  C14 UNL     1      13.863  29.093  14.680  0.00  0.00    +0.004 A 
ATOM     31  C15 UNL     1      14.459  30.281  14.255  0.00  0.00    +0.000 A 
ATOM     32  C16 UNL     1      15.531  30.247  13.364  0.00  0.00    +0.000 A 
ATOM     33  C17 UNL     1      16.004  29.024  12.894  0.00  0.00    +0.000 A 
ATOM     34  C18 UNL     1      15.411  27.834  13.317  0.00  0.00    +0.004 A 
ENDBRANCH  28  29
ENDBRANCH  22  28
ENDBRANCH  19  20
ENDBRANCH   1  19
TORSDOF 7
ENDMDL
MODEL 3
REMARK VINA RESULT:    -4.212      1.934      7.567
REMARK INTER + INTRA:          -9.088
REMARK INTER:                  -5.822
REMARK INTRA:                  -3.266
REMARK UNBOUND:                -3.276
REMARK  Name = /home/vital/Documents/PhD_2021/Malaria_codes/data/pdb_ligands_mmv/ligand_315.pdb
REMARK  8 active torsions:
REMARK  status: ('A' for Active; 'I' for Inactive)
REMARK    1  A    between atoms: C1_1  and  C2_2
REMARK    2  A    between atoms: C5_5  and  C22_24
REMARK    3  A    between atoms: C7_7  and  N1_8
REMARK    4  A    between atoms: N1_8  and  C8_9
REMARK    5  A    between atoms: C8_9  and  C9_10
REMARK    6  A    between atoms: C11_12  and  C12_13
REMARK    7  A    between atoms: C12_13  and  C13_14
REMARK    8  A    between atoms: C21_22  and  O1_23
REMARK                            x       y       z     vdW  Elec       q    Type
REMARK                         _______ _______ _______ _____ _____    ______ ____
ROOT
ATOM      1  N1  UNL     1      19.029  30.904  15.605  0.00  0.00    -0.339 N 
ATOM      2  H7  UNL     1      19.844  31.117  16.183  0.00  0.00    +0.146 HD
ENDROOT
BRANCH   1   9
ATOM      3  C1  UNL     1      19.255  29.999  12.872  0.00  0.00    +0.045 C 
ATOM      4  C2  UNL     1      19.051  29.055  14.029  0.00  0.00    -0.030 A 
ATOM      5  C3  UNL     1      18.955  27.680  13.759  0.00  0.00    +0.006 A 
ATOM      6  C4  UNL     1      18.739  26.765  14.788  0.00  0.00    +0.013 A 
ATOM      7  C5  UNL     1      18.602  27.204  16.107  0.00  0.00    +0.039 A 
ATOM      8  C6  UNL     1      18.703  28.583  16.370  0.00  0.00    +0.036 A 
ATOM      9  C7  UNL     1      18.968  29.522  15.359  0.00  0.00    +0.031 A 
BRANCH   7  10
ATOM     10  C22 UNL     1      18.362  26.277  17.211  0.00  0.00    +0.228 A 
ATOM     11  O2  UNL     1      18.403  24.937  16.911  0.00  0.00    -0.435 OA
ATOM     12  C23 UNL     1      18.158  24.325  18.104  0.00  0.00    +0.156 A 
ATOM     13  C24 UNL     1      18.091  22.959  18.352  0.00  0.00    +0.048 A 
ATOM     14  C25 UNL     1      17.821  22.597  19.678  0.00  0.00    +0.004 A 
ATOM     15  C26 UNL     1      17.634  23.563  20.676  0.00  0.00    +0.002 A 
ATOM     16  C27 UNL     1      17.711  24.934  20.383  0.00  0.00    +0.031 A 
ATOM     17  C28 UNL     1      17.982  25.312  19.060  0.00  0.00    +0.110 A 
ATOM     18  N2  UNL     1      18.117  26.548  18.484  0.00  0.00    -0.209 NA
ENDBRANCH   7  10
ENDBRANCH   1   9
BRANCH   1  19
ATOM     19  C8  UNL     1      17.850  31.612  16.113  0.00  0.00    +0.140 C 
BRANCH  19  20
ATOM     20  C9  UNL     1      16.701  31.441  15.145  0.00  0.00    +0.011 A 
ATOM     21  C10 UNL     1      15.752  30.430  15.371  0.00  0.00    +0.012 A 
ATOM     22  C11 UNL     1      14.702  30.198  14.466  0.00  0.00    -0.043 A 
ATOM     23  C19 UNL     1      14.617  30.984  13.309  0.00  0.00    +0.007 A 
ATOM     24  C20 UNL     1      15.557  31.986  13.067  0.00  0.00    +0.046 A 
ATOM     25  C21 UNL     1      16.585  32.208  13.978  0.00  0.00    +0.122 A 
BRANCH  25  26
ATOM     26  O1  UNL     1      17.461  33.217  13.686  0.00  0.00    -0.506 OA
ATOM     27  H20 UNL     1      17.874  33.498  14.532  0.00  0.00    +0.292 HD
ENDBRANCH  25  26
BRANCH  22  28
ATOM     28  C12 UNL     1      13.691  29.105  14.728  0.00  0.00    +0.070 C 
BRANCH  28  29
ATOM     29  C13 UNL     1      14.291  27.721  14.806  0.00  0.00    -0.043 A 
ATOM     30  C14 UNL     1      14.330  27.027  16.025  0.00  0.00    +0.004 A 
ATOM     31  C15 UNL     1      14.887  25.749  16.094  0.00  0.00    +0.000 A 
ATOM     32  C16 UNL     1      15.411  25.151  14.948  0.00  0.00    +0.000 A 
ATOM     33  C17 UNL     1      15.382  25.834  13.734  0.00  0.00    +0.000 A 
ATOM     34  C18 UNL     1      14.825  27.112  13.662  0.00  0.00    +0.004 A 
ENDBRANCH  28  29
ENDBRANCH  22  28
ENDBRANCH  19  20
ENDBRANCH   1  19
TORSDOF 7
ENDMDL
MODEL 4
REMARK VINA RESULT:    -4.192      2.339      7.559
REMARK INTER + INTRA:          -9.060
REMARK INTER:                  -6.163
REMARK INTRA:                  -2.897
REMARK UNBOUND:                -3.276
REMARK  Name = /home/vital/Documents/PhD_2021/Malaria_codes/data/pdb_ligands_mmv/ligand_315.pdb
REMARK  8 active torsions:
REMARK  status: ('A' for Active; 'I' for Inactive)
REMARK    1  A    between atoms: C1_1  and  C2_2
REMARK    2  A    between atoms: C5_5  and  C22_24
REMARK    3  A    between atoms: C7_7  and  N1_8
REMARK    4  A    between atoms: N1_8  and  C8_9
REMARK    5  A    between atoms: C8_9  and  C9_10
REMARK    6  A    between atoms: C11_12  and  C12_13
REMARK    7  A    between atoms: C12_13  and  C13_14
REMARK    8  A    between atoms: C21_22  and  O1_23
REMARK                            x       y       z     vdW  Elec       q    Type
REMARK                         _______ _______ _______ _____ _____    ______ ____
ROOT
ATOM      1  N1  UNL     1      17.655  31.806  17.329  0.00  0.00    -0.339 N 
ATOM      2  H7  UNL     1      17.333  32.758  17.510  0.00  0.00    +0.146 HD
ENDROOT
BRANCH   1   9
ATOM      3  C1  UNL     1      15.263  32.826  18.584  0.00  0.00    +0.045 C 
ATOM      4  C2  UNL     1      15.614  31.361  18.570  0.00  0.00    -0.030 A 
ATOM      5  C3  UNL     1      14.744  30.460  19.207  0.00  0.00    +0.006 A 
ATOM      6  C4  UNL     1      15.033  29.097  19.247  0.00  0.00    +0.013 A 
ATOM      7  C5  UNL     1      16.204  28.607  18.665  0.00  0.00    +0.039 A 
ATOM      8  C6  UNL     1      17.069  29.514  18.026  0.00  0.00    +0.036 A 
ATOM      9  C7  UNL     1      16.779  30.885  17.928  0.00  0.00    +0.031 A 
BRANCH   7  10
ATOM     10  C22 UNL     1      16.549  27.186  18.698  0.00  0.00    +0.228 A 
ATOM     11  O2  UNL     1      16.827  26.591  17.491  0.00  0.00    -0.435 OA
ATOM     12  C23 UNL     1      17.116  25.300  17.820  0.00  0.00    +0.156 A 
ATOM     13  C24 UNL     1      17.468  24.270  16.956  0.00  0.00    +0.048 A 
ATOM     14  C25 UNL     1      17.713  23.030  17.560  0.00  0.00    +0.004 A 
ATOM     15  C26 UNL     1      17.604  22.859  18.948  0.00  0.00    +0.002 A 
ATOM     16  C27 UNL     1      17.246  23.928  19.785  0.00  0.00    +0.031 A 
ATOM     17  C28 UNL     1      17.000  25.175  19.194  0.00  0.00    +0.110 A 
ATOM     18  N2  UNL     1      16.643  26.379  19.743  0.00  0.00    -0.209 NA
ENDBRANCH   7  10
ENDBRANCH   1   9
BRANCH   1  19
ATOM     19  C8  UNL     1      18.023  31.656  15.918  0.00  0.00    +0.140 C 
BRANCH  19  20
ATOM     20  C9  UNL     1      16.778  31.426  15.092  0.00  0.00    +0.011 A 
ATOM     21  C10 UNL     1      16.545  30.158  14.532  0.00  0.00    +0.012 A 
ATOM     22  C11 UNL     1      15.432  29.918  13.708  0.00  0.00    -0.043 A 
ATOM     23  C19 UNL     1      14.550  30.972  13.432  0.00  0.00    +0.007 A 
ATOM     24  C20 UNL     1      14.773  32.237  13.975  0.00  0.00    +0.046 A 
ATOM     25  C21 UNL     1      15.876  32.456  14.795  0.00  0.00    +0.122 A 
BRANCH  25  26
ATOM     26  O1  UNL     1      16.024  33.716  15.305  0.00  0.00    -0.506 OA
ATOM     27  H20 UNL     1      15.483  34.321  14.751  0.00  0.00    +0.292 HD
ENDBRANCH  25  26
BRANCH  22  28
ATOM     28  C12 UNL     1      15.198  28.546  13.115  0.00  0.00    +0.070 C 
BRANCH  28  29
ATOM     29  C13 UNL     1      14.729  27.518  14.117  0.00  0.00    -0.043 A 
ATOM     30  C14 UNL     1      14.881  26.147  13.860  0.00  0.00    +0.004 A 
ATOM     31  C15 UNL     1      14.445  25.200  14.788  0.00  0.00    +0.000 A 
ATOM     32  C16 UNL     1      13.851  25.612  15.981  0.00  0.00    +0.000 A 
ATOM     33  C17 UNL     1      13.690  26.970  16.244  0.00  0.00    +0.000 A 
ATOM     34  C18 UNL     1      14.126  27.919  15.318  0.00  0.00    +0.004 A 
ENDBRANCH  28  29
ENDBRANCH  22  28
ENDBRANCH  19  20
ENDBRANCH   1  19
TORSDOF 7
ENDMDL
MODEL 5
REMARK VINA RESULT:    -4.116      2.323      4.181
REMARK INTER + INTRA:          -8.956
REMARK INTER:                  -6.036
REMARK INTRA:                  -2.920
REMARK UNBOUND:                -3.276
REMARK  Name = /home/vital/Documents/PhD_2021/Malaria_codes/data/pdb_ligands_mmv/ligand_315.pdb
REMARK  8 active torsions:
REMARK  status: ('A' for Active; 'I' for Inactive)
REMARK    1  A    between atoms: C1_1  and  C2_2
REMARK    2  A    between atoms: C5_5  and  C22_24
REMARK    3  A    between atoms: C7_7  and  N1_8
REMARK    4  A    between atoms: N1_8  and  C8_9
REMARK    5  A    between atoms: C8_9  and  C9_10
REMARK    6  A    between atoms: C11_12  and  C12_13
REMARK    7  A    between atoms: C12_13  and  C13_14
REMARK    8  A    between atoms: C21_22  and  O1_23
REMARK                            x       y       z     vdW  Elec       q    Type
REMARK                         _______ _______ _______ _____ _____    ______ ____
ROOT
ATOM      1  N1  UNL     1      16.687  26.521  18.428  0.00  0.00    -0.339 N 
ATOM      2  H7  UNL     1      17.406  26.448  19.149  0.00  0.00    +0.146 HD
ENDROOT
BRANCH   1   9
ATOM      3  C1  UNL     1      14.270  27.535  19.638  0.00  0.00    +0.045 C 
ATOM      4  C2  UNL     1      15.169  28.385  18.778  0.00  0.00    -0.030 A 
ATOM      5  C3  UNL     1      14.804  29.723  18.549  0.00  0.00    +0.006 A 
ATOM      6  C4  UNL     1      15.585  30.546  17.741  0.00  0.00    +0.013 A 
ATOM      7  C5  UNL     1      16.739  30.049  17.132  0.00  0.00    +0.039 A 
ATOM      8  C6  UNL     1      17.101  28.709  17.369  0.00  0.00    +0.036 A 
ATOM      9  C7  UNL     1      16.359  27.871  18.218  0.00  0.00    +0.031 A 
BRANCH   7  10
ATOM     10  C22 UNL     1      17.577  30.877  16.266  0.00  0.00    +0.228 A 
ATOM     11  O2  UNL     1      17.653  32.213  16.578  0.00  0.00    -0.435 OA
ATOM     12  C23 UNL     1      18.489  32.724  15.630  0.00  0.00    +0.156 A 
ATOM     13  C24 UNL     1      18.901  34.045  15.494  0.00  0.00    +0.048 A 
ATOM     14  C25 UNL     1      19.767  34.302  14.424  0.00  0.00    +0.004 A 
ATOM     15  C26 UNL     1      20.181  33.281  13.557  0.00  0.00    +0.002 A 
ATOM     16  C27 UNL     1      19.741  31.959  13.730  0.00  0.00    +0.031 A 
ATOM     17  C28 UNL     1      18.875  31.686  14.798  0.00  0.00    +0.110 A 
ATOM     18  N2  UNL     1      18.293  30.516  15.213  0.00  0.00    -0.209 NA
ENDBRANCH   7  10
ENDBRANCH   1   9
BRANCH   1  19
ATOM     19  C8  UNL     1      17.025  25.663  17.288  0.00  0.00    +0.140 C 
BRANCH  19  20
ATOM     20  C9  UNL     1      15.958  25.791  16.225  0.00  0.00    +0.011 A 
ATOM     21  C10 UNL     1      16.219  26.553  15.073  0.00  0.00    +0.012 A 
ATOM     22  C11 UNL     1      15.235  26.747  14.088  0.00  0.00    -0.043 A 
ATOM     23  C19 UNL     1      13.967  26.178  14.273  0.00  0.00    +0.007 A 
ATOM     24  C20 UNL     1      13.692  25.426  15.415  0.00  0.00    +0.046 A 
ATOM     25  C21 UNL     1      14.680  25.237  16.376  0.00  0.00    +0.122 A 
BRANCH  25  26
ATOM     26  O1  UNL     1      14.346  24.475  17.461  0.00  0.00    -0.506 OA
ATOM     27  H20 UNL     1      14.339  25.069  18.244  0.00  0.00    +0.292 HD
ENDBRANCH  25  26
BRANCH  22  28
ATOM     28  C12 UNL     1      15.535  27.570  12.856  0.00  0.00    +0.070 C 
BRANCH  28  29
ATOM     29  C13 UNL     1      15.380  29.058  13.061  0.00  0.00    -0.043 A 
ATOM     30  C14 UNL     1      16.096  29.969  12.269  0.00  0.00    +0.004 A 
ATOM     31  C15 UNL     1      15.951  31.343  12.463  0.00  0.00    +0.000 A 
ATOM     32  C16 UNL     1      15.090  31.823  13.450  0.00  0.00    +0.000 A 
ATOM     33  C17 UNL     1      14.379  30.928  14.246  0.00  0.00    +0.000 A 
ATOM     34  C18 UNL     1      14.522  29.553  14.054  0.00  0.00    +0.004 A 
ENDBRANCH  28  29
ENDBRANCH  22  28
ENDBRANCH  19  20
ENDBRANCH   1  19
TORSDOF 7
ENDMDL
MODEL 6
REMARK VINA RESULT:    -3.957      2.214      4.613
REMARK INTER + INTRA:          -8.737
REMARK INTER:                  -5.977
REMARK INTRA:                  -2.759
REMARK UNBOUND:                -3.276
REMARK  Name = /home/vital/Documents/PhD_2021/Malaria_codes/data/pdb_ligands_mmv/ligand_315.pdb
REMARK  8 active torsions:
REMARK  status: ('A' for Active; 'I' for Inactive)
REMARK    1  A    between atoms: C1_1  and  C2_2
REMARK    2  A    between atoms: C5_5  and  C22_24
REMARK    3  A    between atoms: C7_7  and  N1_8
REMARK    4  A    between atoms: N1_8  and  C8_9
REMARK    5  A    between atoms: C8_9  and  C9_10
REMARK    6  A    between atoms: C11_12  and  C12_13
REMARK    7  A    between atoms: C12_13  and  C13_14
REMARK    8  A    between atoms: C21_22  and  O1_23
REMARK                            x       y       z     vdW  Elec       q    Type
REMARK                         _______ _______ _______ _____ _____    ______ ____
ROOT
ATOM      1  N1  UNL     1      20.588  26.608  17.630  0.00  0.00    -0.339 N 
ATOM      2  H7  UNL     1      21.191  25.786  17.694  0.00  0.00    +0.146 HD
ENDROOT
BRANCH   1   9
ATOM      3  C1  UNL     1      22.600  25.759  15.742  0.00  0.00    +0.045 C 
ATOM      4  C2  UNL     1      21.414  26.599  15.345  0.00  0.00    -0.030 A 
ATOM      5  C3  UNL     1      21.294  26.993  14.002  0.00  0.00    +0.006 A 
ATOM      6  C4  UNL     1      20.231  27.793  13.586  0.00  0.00    +0.013 A 
ATOM      7  C5  UNL     1      19.273  28.227  14.504  0.00  0.00    +0.039 A 
ATOM      8  C6  UNL     1      19.397  27.826  15.847  0.00  0.00    +0.036 A 
ATOM      9  C7  UNL     1      20.431  26.981  16.285  0.00  0.00    +0.031 A 
BRANCH   7  10
ATOM     10  C22 UNL     1      18.151  29.077  14.109  0.00  0.00    +0.228 A 
ATOM     11  O2  UNL     1      17.532  29.786  15.111  0.00  0.00    -0.435 OA
ATOM     12  C23 UNL     1      16.552  30.480  14.465  0.00  0.00    +0.156 A 
ATOM     13  C24 UNL     1      15.632  31.357  15.026  0.00  0.00    +0.048 A 
ATOM     14  C25 UNL     1      14.726  31.939  14.131  0.00  0.00    +0.004 A 
ATOM     15  C26 UNL     1      14.761  31.644  12.761  0.00  0.00    +0.002 A 
ATOM     16  C27 UNL     1      15.708  30.752  12.234  0.00  0.00    +0.031 A 
ATOM     17  C28 UNL     1      16.623  30.163  13.118  0.00  0.00    +0.110 A 
ATOM     18  N2  UNL     1      17.644  29.274  12.902  0.00  0.00    -0.209 NA
ENDBRANCH   7  10
ENDBRANCH   1   9
BRANCH   1  19
ATOM     19  C8  UNL     1      19.410  26.437  18.486  0.00  0.00    +0.140 C 
BRANCH  19  20
ATOM     20  C9  UNL     1      18.570  25.292  17.969  0.00  0.00    +0.011 A 
ATOM     21  C10 UNL     1      17.199  25.492  17.733  0.00  0.00    +0.012 A 
ATOM     22  C11 UNL     1      16.370  24.439  17.309  0.00  0.00    -0.043 A 
ATOM     23  C19 UNL     1      16.926  23.164  17.136  0.00  0.00    +0.007 A 
ATOM     24  C20 UNL     1      18.283  22.949  17.374  0.00  0.00    +0.046 A 
ATOM     25  C21 UNL     1      19.091  24.004  17.785  0.00  0.00    +0.122 A 
BRANCH  25  26
ATOM     26  O1  UNL     1      20.415  23.726  17.984  0.00  0.00    -0.506 OA
ATOM     27  H20 UNL     1      20.642  24.020  18.894  0.00  0.00    +0.292 HD
ENDBRANCH  25  26
BRANCH  22  28
ATOM     28  C12 UNL     1      14.897  24.675  17.061  0.00  0.00    +0.070 C 
BRANCH  28  29
ATOM     29  C13 UNL     1      14.612  25.808  16.103  0.00  0.00    -0.043 A 
ATOM     30  C14 UNL     1      13.979  26.978  16.548  0.00  0.00    +0.004 A 
ATOM     31  C15 UNL     1      13.716  28.022  15.660  0.00  0.00    +0.000 A 
ATOM     32  C16 UNL     1      14.081  27.908  14.319  0.00  0.00    +0.000 A 
ATOM     33  C17 UNL     1      14.706  26.749  13.865  0.00  0.00    +0.000 A 
ATOM     34  C18 UNL     1      14.970  25.703  14.752  0.00  0.00    +0.004 A 
ENDBRANCH  28  29
ENDBRANCH  22  28
ENDBRANCH  19  20
ENDBRANCH   1  19
TORSDOF 7
ENDMDL
MODEL 7
REMARK VINA RESULT:    -3.927      2.936      5.724
REMARK INTER + INTRA:          -8.696
REMARK INTER:                  -6.001
REMARK INTRA:                  -2.694
REMARK UNBOUND:                -3.276
REMARK  Name = /home/vital/Documents/PhD_2021/Malaria_codes/data/pdb_ligands_mmv/ligand_315.pdb
REMARK  8 active torsions:
REMARK  status: ('A' for Active; 'I' for Inactive)
REMARK    1  A    between atoms: C1_1  and  C2_2
REMARK    2  A    between atoms: C5_5  and  C22_24
REMARK    3  A    between atoms: C7_7  and  N1_8
REMARK    4  A    between atoms: N1_8  and  C8_9
REMARK    5  A    between atoms: C8_9  and  C9_10
REMARK    6  A    between atoms: C11_12  and  C12_13
REMARK    7  A    between atoms: C12_13  and  C13_14
REMARK    8  A    between atoms: C21_22  and  O1_23
REMARK                            x       y       z     vdW  Elec       q    Type
REMARK                         _______ _______ _______ _____ _____    ______ ____
ROOT
ATOM      1  N1  UNL     1      14.469  27.372  14.197  0.00  0.00    -0.339 N 
ATOM      2  H7  UNL     1      13.742  26.914  13.646  0.00  0.00    +0.146 HD
ENDROOT
BRANCH   1   9
ATOM      3  C1  UNL     1      14.663  24.499  14.412  0.00  0.00    +0.045 C 
ATOM      4  C2  UNL     1      14.587  25.402  15.616  0.00  0.00    -0.030 A 
ATOM      5  C3  UNL     1      14.600  24.816  16.892  0.00  0.00    +0.006 A 
ATOM      6  C4  UNL     1      14.506  25.603  18.039  0.00  0.00    +0.013 A 
ATOM      7  C5  UNL     1      14.384  26.990  17.935  0.00  0.00    +0.039 A 
ATOM      8  C6  UNL     1      14.375  27.571  16.654  0.00  0.00    +0.036 A 
ATOM      9  C7  UNL     1      14.517  26.807  15.483  0.00  0.00    +0.031 A 
BRANCH   7  10
ATOM     10  C22 UNL     1      14.269  27.847  19.114  0.00  0.00    +0.228 A 
ATOM     11  O2  UNL     1      14.581  29.175  18.943  0.00  0.00    -0.435 OA
ATOM     12  C23 UNL     1      14.381  29.721  20.176  0.00  0.00    +0.156 A 
ATOM     13  C24 UNL     1      14.555  31.048  20.548  0.00  0.00    +0.048 A 
ATOM     14  C25 UNL     1      14.279  31.344  21.889  0.00  0.00    +0.004 A 
ATOM     15  C26 UNL     1      13.856  30.350  22.783  0.00  0.00    +0.002 A 
ATOM     16  C27 UNL     1      13.692  29.020  22.366  0.00  0.00    +0.031 A 
ATOM     17  C28 UNL     1      13.963  28.710  21.026  0.00  0.00    +0.110 A 
ATOM     18  N2  UNL     1      13.891  27.525  20.341  0.00  0.00    -0.209 NA
ENDBRANCH   7  10
ENDBRANCH   1   9
BRANCH   1  19
ATOM     19  C8  UNL     1      15.697  27.501  13.407  0.00  0.00    +0.140 C 
BRANCH  19  20
ATOM     20  C9  UNL     1      16.832  27.942  14.303  0.00  0.00    +0.011 A 
ATOM     21  C10 UNL     1      17.639  26.972  14.923  0.00  0.00    +0.012 A 
ATOM     22  C11 UNL     1      18.666  27.337  15.810  0.00  0.00    -0.043 A 
ATOM     23  C19 UNL     1      18.873  28.694  16.089  0.00  0.00    +0.007 A 
ATOM     24  C20 UNL     1      18.075  29.667  15.487  0.00  0.00    +0.046 A 
ATOM     25  C21 UNL     1      17.068  29.289  14.605  0.00  0.00    +0.122 A 
BRANCH  25  26
ATOM     26  O1  UNL     1      16.334  30.296  14.039  0.00  0.00    -0.506 OA
ATOM     27  H20 UNL     1      15.992  29.960  13.181  0.00  0.00    +0.292 HD
ENDBRANCH  25  26
BRANCH  22  28
ATOM     28  C12 UNL     1      19.524  26.278  16.467  0.00  0.00    +0.070 C 
BRANCH  28  29
ATOM     29  C13 UNL     1      18.797  25.461  17.508  0.00  0.00    -0.043 A 
ATOM     30  C14 UNL     1      18.399  26.040  18.723  0.00  0.00    +0.004 A 
ATOM     31  C15 UNL     1      17.729  25.281  19.683  0.00  0.00    +0.000 A 
ATOM     32  C16 UNL     1      17.449  23.937  19.441  0.00  0.00    +0.000 A 
ATOM     33  C17 UNL     1      17.843  23.350  18.241  0.00  0.00    +0.000 A 
ATOM     34  C18 UNL     1      18.513  24.107  17.278  0.00  0.00    +0.004 A 
ENDBRANCH  28  29
ENDBRANCH  22  28
ENDBRANCH  19  20
ENDBRANCH   1  19
TORSDOF 7
ENDMDL
MODEL 8
REMARK VINA RESULT:    -3.856      2.549      4.226
REMARK INTER + INTRA:          -8.597
REMARK INTER:                  -5.698
REMARK INTRA:                  -2.900
REMARK UNBOUND:                -3.276
REMARK  Name = /home/vital/Documents/PhD_2021/Malaria_codes/data/pdb_ligands_mmv/ligand_315.pdb
REMARK  8 active torsions:
REMARK  status: ('A' for Active; 'I' for Inactive)
REMARK    1  A    between atoms: C1_1  and  C2_2
REMARK    2  A    between atoms: C5_5  and  C22_24
REMARK    3  A    between atoms: C7_7  and  N1_8
REMARK    4  A    between atoms: N1_8  and  C8_9
REMARK    5  A    between atoms: C8_9  and  C9_10
REMARK    6  A    between atoms: C11_12  and  C12_13
REMARK    7  A    between atoms: C12_13  and  C13_14
REMARK    8  A    between atoms: C21_22  and  O1_23
REMARK                            x       y       z     vdW  Elec       q    Type
REMARK                         _______ _______ _______ _____ _____    ______ ____
ROOT
ATOM      1  N1  UNL     1      14.939  27.020  19.051  0.00  0.00    -0.339 N 
ATOM      2  H7  UNL     1      15.530  26.219  19.282  0.00  0.00    +0.146 HD
ENDROOT
BRANCH   1   9
ATOM      3  C1  UNL     1      17.664  26.474  18.268  0.00  0.00    +0.045 C 
ATOM      4  C2  UNL     1      17.083  27.864  18.281  0.00  0.00    -0.030 A 
ATOM      5  C3  UNL     1      17.909  28.937  17.906  0.00  0.00    +0.006 A 
ATOM      6  C4  UNL     1      17.431  30.246  17.925  0.00  0.00    +0.013 A 
ATOM      7  C5  UNL     1      16.122  30.513  18.330  0.00  0.00    +0.039 A 
ATOM      8  C6  UNL     1      15.298  29.434  18.700  0.00  0.00    +0.036 A 
ATOM      9  C7  UNL     1      15.739  28.101  18.645  0.00  0.00    +0.031 A 
BRANCH   7  10
ATOM     10  C22 UNL     1      15.588  31.873  18.377  0.00  0.00    +0.228 A 
ATOM     11  O2  UNL     1      16.164  32.790  17.531  0.00  0.00    -0.435 OA
ATOM     12  C23 UNL     1      15.478  33.942  17.778  0.00  0.00    +0.156 A 
ATOM     13  C24 UNL     1      15.669  35.182  17.179  0.00  0.00    +0.048 A 
ATOM     14  C25 UNL     1      14.822  36.205  17.622  0.00  0.00    +0.004 A 
ATOM     15  C26 UNL     1      13.851  35.976  18.606  0.00  0.00    +0.002 A 
ATOM     16  C27 UNL     1      13.690  34.707  19.186  0.00  0.00    +0.031 A 
ATOM     17  C28 UNL     1      14.530  33.672  18.751  0.00  0.00    +0.110 A 
ATOM     18  N2  UNL     1      14.606  32.354  19.122  0.00  0.00    -0.209 NA
ENDBRANCH   7  10
ENDBRANCH   1   9
BRANCH   1  19
ATOM     19  C8  UNL     1      13.809  26.591  18.221  0.00  0.00    +0.140 C 
BRANCH  19  20
ATOM     20  C9  UNL     1      14.308  26.206  16.846  0.00  0.00    +0.011 A 
ATOM     21  C10 UNL     1      14.295  27.160  15.814  0.00  0.00    +0.012 A 
ATOM     22  C11 UNL     1      14.694  26.828  14.508  0.00  0.00    -0.043 A 
ATOM     23  C19 UNL     1      15.097  25.514  14.234  0.00  0.00    +0.007 A 
ATOM     24  C20 UNL     1      15.107  24.555  15.247  0.00  0.00    +0.046 A 
ATOM     25  C21 UNL     1      14.717  24.903  16.536  0.00  0.00    +0.122 A 
BRANCH  25  26
ATOM     26  O1  UNL     1      14.768  23.917  17.483  0.00  0.00    -0.506 OA
ATOM     27  H20 UNL     1      15.687  23.895  17.832  0.00  0.00    +0.292 HD
ENDBRANCH  25  26
BRANCH  22  28
ATOM     28  C12 UNL     1      14.672  27.870  13.412  0.00  0.00    +0.070 C 
BRANCH  28  29
ATOM     29  C13 UNL     1      15.380  29.154  13.773  0.00  0.00    -0.043 A 
ATOM     30  C14 UNL     1      16.776  29.186  13.910  0.00  0.00    +0.004 A 
ATOM     31  C15 UNL     1      17.427  30.375  14.246  0.00  0.00    +0.000 A 
ATOM     32  C16 UNL     1      16.691  31.542  14.448  0.00  0.00    +0.000 A 
ATOM     33  C17 UNL     1      15.304  31.519  14.320  0.00  0.00    +0.000 A 
ATOM     34  C18 UNL     1      14.651  30.332  13.984  0.00  0.00    +0.004 A 
ENDBRANCH  28  29
ENDBRANCH  22  28
ENDBRANCH  19  20
ENDBRANCH   1  19
TORSDOF 7
ENDMDL
