MODEL 1
REMARK VINA RESULT:    -5.284      0.000      0.000
REMARK INTER + INTRA:          -5.853
REMARK INTER:                  -5.593
REMARK INTRA:                  -0.261
REMARK UNBOUND:                -0.261
REMARK  Name = /home/vital/Documents/PhD_2021/Malaria_codes/data/pdb_ligands_mmv/ligand_251.pdb
REMARK  1 active torsions:
REMARK  status: ('A' for Active; 'I' for Inactive)
REMARK    1  A    between atoms: C4_5  and  C7_8
REMARK                            x       y       z     vdW  Elec       q    Type
REMARK                         _______ _______ _______ _____ _____    ______ ____
ROOT
ATOM      1  C7  UNL     1      15.057  45.682  31.121  0.00  0.00    +0.094 A 
ATOM      2  C8  UNL     1      15.951  45.241  30.150  0.00  0.00    +0.044 A 
ATOM      3  C9  UNL     1      15.702  45.650  28.859  0.00  0.00    +0.052 A 
ATOM      4  C10 UNL     1      16.426  45.380  27.605  0.00  0.00    +0.196 C 
ATOM      5  O1  UNL     1      17.428  44.708  27.490  0.00  0.00    -0.287 OA
ATOM      6  C11 UNL     1      15.691  46.085  26.530  0.00  0.00    +0.032 A 
ATOM      7  C12 UNL     1      15.957  46.150  25.178  0.00  0.00    +0.012 A 
ATOM      8  C13 UNL     1      15.078  46.901  24.396  0.00  0.00    +0.001 A 
ATOM      9  C14 UNL     1      13.974  47.557  24.978  0.00  0.00    +0.001 A 
ATOM     10  C15 UNL     1      13.725  47.477  26.355  0.00  0.00    +0.011 A 
ATOM     11  C16 UNL     1      14.596  46.732  27.129  0.00  0.00    +0.014 A 
ATOM     12  C17 UNL     1      14.625  46.454  28.540  0.00  0.00    +0.105 A 
ATOM     13  N1  UNL     1      13.767  46.877  29.464  0.00  0.00    -0.148 NA
ATOM     14  N2  UNL     1      13.998  46.479  30.767  0.00  0.00    -0.149 NA
ENDROOT
BRANCH   1  19
ATOM     15 BR1  UNL     1      15.563  44.330  37.164  0.00  0.00    -0.050 Br
ATOM     16  C1  UNL     1      15.403  44.737  35.326  0.00  0.00    +0.018 A 
ATOM     17  C2  UNL     1      16.373  45.509  34.699  0.00  0.00    +0.016 A 
ATOM     18  C3  UNL     1      16.248  45.806  33.337  0.00  0.00    +0.011 A 
ATOM     19  C4  UNL     1      15.158  45.347  32.566  0.00  0.00    +0.002 A 
ATOM     20  C5  UNL     1      14.197  44.568  33.240  0.00  0.00    +0.011 A 
ATOM     21  C6  UNL     1      14.315  44.266  34.603  0.00  0.00    +0.016 A 
ENDBRANCH   1  19
TORSDOF 1
ENDMDL
MODEL 2
REMARK VINA RESULT:    -4.670     10.781     14.765
REMARK INTER + INTRA:          -5.204
REMARK INTER:                  -4.935
REMARK INTRA:                  -0.268
REMARK UNBOUND:                -0.261
REMARK  Name = /home/vital/Documents/PhD_2021/Malaria_codes/data/pdb_ligands_mmv/ligand_251.pdb
REMARK  1 active torsions:
REMARK  status: ('A' for Active; 'I' for Inactive)
REMARK    1  A    between atoms: C4_5  and  C7_8
REMARK                            x       y       z     vdW  Elec       q    Type
REMARK                         _______ _______ _______ _____ _____    ______ ____
ROOT
ATOM      1  C7  UNL     1      21.370  46.963  17.391  0.00  0.00    +0.094 A 
ATOM      2  C8  UNL     1      21.706  46.515  18.665  0.00  0.00    +0.044 A 
ATOM      3  C9  UNL     1      20.730  46.628  19.629  0.00  0.00    +0.052 A 
ATOM      4  C10 UNL     1      20.738  46.260  21.056  0.00  0.00    +0.196 C 
ATOM      5  O1  UNL     1      21.663  45.764  21.660  0.00  0.00    -0.287 OA
ATOM      6  C11 UNL     1      19.403  46.616  21.592  0.00  0.00    +0.032 A 
ATOM      7  C12 UNL     1      18.902  46.473  22.870  0.00  0.00    +0.012 A 
ATOM      8  C13 UNL     1      17.591  46.901  23.085  0.00  0.00    +0.001 A 
ATOM      9  C14 UNL     1      16.829  47.452  22.034  0.00  0.00    +0.001 A 
ATOM     10  C15 UNL     1      17.361  47.585  20.745  0.00  0.00    +0.011 A 
ATOM     11  C16 UNL     1      18.660  47.161  20.531  0.00  0.00    +0.014 A 
ATOM     12  C17 UNL     1      19.485  47.157  19.353  0.00  0.00    +0.105 A 
ATOM     13  N1  UNL     1      19.159  47.589  18.138  0.00  0.00    -0.148 NA
ATOM     14  N2  UNL     1      20.123  47.485  17.153  0.00  0.00    -0.149 NA
ENDROOT
BRANCH   1  19
ATOM     15 BR1  UNL     1      25.129  46.765  12.447  0.00  0.00    -0.050 Br
ATOM     16  C1  UNL     1      23.991  46.828  13.954  0.00  0.00    +0.018 A 
ATOM     17  C2  UNL     1      22.675  46.400  13.848  0.00  0.00    +0.016 A 
ATOM     18  C3  UNL     1      21.837  46.449  14.970  0.00  0.00    +0.011 A 
ATOM     19  C4  UNL     1      22.286  46.925  16.221  0.00  0.00    +0.002 A 
ATOM     20  C5  UNL     1      23.629  47.350  16.286  0.00  0.00    +0.011 A 
ATOM     21  C6  UNL     1      24.473  47.303  15.168  0.00  0.00    +0.016 A 
ENDBRANCH   1  19
TORSDOF 1
ENDMDL
MODEL 3
REMARK VINA RESULT:    -4.493      9.322     12.330
REMARK INTER + INTRA:          -5.016
REMARK INTER:                  -4.749
REMARK INTRA:                  -0.267
REMARK UNBOUND:                -0.261
REMARK  Name = /home/vital/Documents/PhD_2021/Malaria_codes/data/pdb_ligands_mmv/ligand_251.pdb
REMARK  1 active torsions:
REMARK  status: ('A' for Active; 'I' for Inactive)
REMARK    1  A    between atoms: C4_5  and  C7_8
REMARK                            x       y       z     vdW  Elec       q    Type
REMARK                         _______ _______ _______ _____ _____    ______ ____
ROOT
ATOM      1  C7  UNL     1      19.622  46.688  20.080  0.00  0.00    +0.094 A 
ATOM      2  C8  UNL     1      20.996  46.606  20.282  0.00  0.00    +0.044 A 
ATOM      3  C9  UNL     1      21.785  46.686  19.156  0.00  0.00    +0.052 A 
ATOM      4  C10 UNL     1      23.249  46.637  18.999  0.00  0.00    +0.196 C 
ATOM      5  O1  UNL     1      24.059  46.511  19.892  0.00  0.00    -0.287 OA
ATOM      6  C11 UNL     1      23.525  46.772  17.550  0.00  0.00    +0.032 A 
ATOM      7  C12 UNL     1      24.732  46.786  16.881  0.00  0.00    +0.012 A 
ATOM      8  C13 UNL     1      24.684  46.929  15.494  0.00  0.00    +0.001 A 
ATOM      9  C14 UNL     1      23.449  47.050  14.823  0.00  0.00    +0.001 A 
ATOM     10  C15 UNL     1      22.237  47.033  15.524  0.00  0.00    +0.011 A 
ATOM     11  C16 UNL     1      22.284  46.892  16.899  0.00  0.00    +0.014 A 
ATOM     12  C17 UNL     1      21.246  46.837  17.894  0.00  0.00    +0.105 A 
ATOM     13  N1  UNL     1      19.934  46.915  17.694  0.00  0.00    -0.148 NA
ATOM     14  N2  UNL     1      19.122  46.838  18.810  0.00  0.00    -0.149 NA
ENDROOT
BRANCH   1  19
ATOM     15 BR1  UNL     1      15.353  46.494  24.591  0.00  0.00    -0.050 Br
ATOM     16  C1  UNL     1      16.654  46.547  23.222  0.00  0.00    +0.018 A 
ATOM     17  C2  UNL     1      16.617  47.555  22.268  0.00  0.00    +0.016 A 
ATOM     18  C3  UNL     1      17.585  47.589  21.256  0.00  0.00    +0.011 A 
ATOM     19  C4  UNL     1      18.611  46.622  21.167  0.00  0.00    +0.002 A 
ATOM     20  C5  UNL     1      18.612  45.617  22.155  0.00  0.00    +0.011 A 
ATOM     21  C6  UNL     1      17.648  45.577  23.170  0.00  0.00    +0.016 A 
ENDBRANCH   1  19
TORSDOF 1
ENDMDL
MODEL 4
REMARK VINA RESULT:    -4.132     19.814     21.065
REMARK INTER + INTRA:          -4.634
REMARK INTER:                  -4.354
REMARK INTRA:                  -0.281
REMARK UNBOUND:                -0.261
REMARK  Name = /home/vital/Documents/PhD_2021/Malaria_codes/data/pdb_ligands_mmv/ligand_251.pdb
REMARK  1 active torsions:
REMARK  status: ('A' for Active; 'I' for Inactive)
REMARK    1  A    between atoms: C4_5  and  C7_8
REMARK                            x       y       z     vdW  Elec       q    Type
REMARK                         _______ _______ _______ _____ _____    ______ ____
ROOT
ATOM      1  C7  UNL     1      14.644  28.830  19.647  0.00  0.00    +0.094 A 
ATOM      2  C8  UNL     1      14.278  27.552  19.235  0.00  0.00    +0.044 A 
ATOM      3  C9  UNL     1      14.430  27.276  17.895  0.00  0.00    +0.052 A 
ATOM      4  C10 UNL     1      14.149  26.051  17.126  0.00  0.00    +0.196 C 
ATOM      5  O1  UNL     1      13.709  25.014  17.571  0.00  0.00    -0.287 OA
ATOM      6  C11 UNL     1      14.510  26.343  15.719  0.00  0.00    +0.032 A 
ATOM      7  C12 UNL     1      14.436  25.531  14.605  0.00  0.00    +0.012 A 
ATOM      8  C13 UNL     1      14.852  26.083  13.393  0.00  0.00    +0.001 A 
ATOM      9  C14 UNL     1      15.321  27.411  13.327  0.00  0.00    +0.001 A 
ATOM     10  C15 UNL     1      15.388  28.215  14.473  0.00  0.00    +0.011 A 
ATOM     11  C16 UNL     1      14.976  27.668  15.674  0.00  0.00    +0.014 A 
ATOM     12  C17 UNL     1      14.918  28.212  17.005  0.00  0.00    +0.105 A 
ATOM     13  N1  UNL     1      15.268  29.434  17.393  0.00  0.00    -0.148 NA
ATOM     14  N2  UNL     1      15.124  29.735  18.734  0.00  0.00    -0.149 NA
ENDROOT
BRANCH   1  19
ATOM     15 BR1  UNL     1      14.298  30.946  25.479  0.00  0.00    -0.050 Br
ATOM     16  C1  UNL     1      14.400  30.296  23.708  0.00  0.00    +0.018 A 
ATOM     17  C2  UNL     1      14.904  31.107  22.699  0.00  0.00    +0.016 A 
ATOM     18  C3  UNL     1      14.977  30.619  21.389  0.00  0.00    +0.011 A 
ATOM     19  C4  UNL     1      14.552  29.316  21.049  0.00  0.00    +0.002 A 
ATOM     20  C5  UNL     1      14.048  28.526  22.102  0.00  0.00    +0.011 A 
ATOM     21  C6  UNL     1      13.972  29.008  23.416  0.00  0.00    +0.016 A 
ENDBRANCH   1  19
TORSDOF 1
ENDMDL
MODEL 5
REMARK VINA RESULT:    -4.118      1.920      2.295
REMARK INTER + INTRA:          -4.619
REMARK INTER:                  -4.353
REMARK INTRA:                  -0.266
REMARK UNBOUND:                -0.261
REMARK  Name = /home/vital/Documents/PhD_2021/Malaria_codes/data/pdb_ligands_mmv/ligand_251.pdb
REMARK  1 active torsions:
REMARK  status: ('A' for Active; 'I' for Inactive)
REMARK    1  A    between atoms: C4_5  and  C7_8
REMARK                            x       y       z     vdW  Elec       q    Type
REMARK                         _______ _______ _______ _____ _____    ______ ____
ROOT
ATOM      1  C7  UNL     1      14.489  45.047  29.988  0.00  0.00    +0.094 A 
ATOM      2  C8  UNL     1      14.410  43.983  29.094  0.00  0.00    +0.044 A 
ATOM      3  C9  UNL     1      14.251  44.312  27.766  0.00  0.00    +0.052 A 
ATOM      4  C10 UNL     1      14.134  43.461  26.569  0.00  0.00    +0.196 C 
ATOM      5  O1  UNL     1      14.159  42.250  26.549  0.00  0.00    -0.287 OA
ATOM      6  C11 UNL     1      13.981  44.375  25.413  0.00  0.00    +0.032 A 
ATOM      7  C12 UNL     1      13.835  44.081  24.073  0.00  0.00    +0.012 A 
ATOM      8  C13 UNL     1      13.711  45.162  23.199  0.00  0.00    +0.001 A 
ATOM      9  C14 UNL     1      13.735  46.487  23.681  0.00  0.00    +0.001 A 
ATOM     10  C15 UNL     1      13.885  46.759  25.047  0.00  0.00    +0.011 A 
ATOM     11  C16 UNL     1      14.008  45.688  25.913  0.00  0.00    +0.014 A 
ATOM     12  C17 UNL     1      14.173  45.624  27.341  0.00  0.00    +0.105 A 
ATOM     13  N1  UNL     1      14.246  46.644  28.191  0.00  0.00    -0.148 NA
ATOM     14  N2  UNL     1      14.406  46.337  29.529  0.00  0.00    -0.149 NA
ENDROOT
BRANCH   1  19
ATOM     15 BR1  UNL     1      15.123  44.350  36.130  0.00  0.00    -0.050 Br
ATOM     16  C1  UNL     1      14.936  44.566  34.262  0.00  0.00    +0.018 A 
ATOM     17  C2  UNL     1      13.909  43.918  33.588  0.00  0.00    +0.016 A 
ATOM     18  C3  UNL     1      13.776  44.083  32.203  0.00  0.00    +0.011 A 
ATOM     19  C4  UNL     1      14.659  44.894  31.457  0.00  0.00    +0.002 A 
ATOM     20  C5  UNL     1      15.687  45.533  32.179  0.00  0.00    +0.011 A 
ATOM     21  C6  UNL     1      15.826  45.373  33.564  0.00  0.00    +0.016 A 
ENDBRANCH   1  19
TORSDOF 1
ENDMDL
MODEL 6
REMARK VINA RESULT:    -4.052     19.966     22.292
REMARK INTER + INTRA:          -4.549
REMARK INTER:                  -4.273
REMARK INTRA:                  -0.277
REMARK UNBOUND:                -0.261
REMARK  Name = /home/vital/Documents/PhD_2021/Malaria_codes/data/pdb_ligands_mmv/ligand_251.pdb
REMARK  1 active torsions:
REMARK  status: ('A' for Active; 'I' for Inactive)
REMARK    1  A    between atoms: C4_5  and  C7_8
REMARK                            x       y       z     vdW  Elec       q    Type
REMARK                         _______ _______ _______ _____ _____    ______ ____
ROOT
ATOM      1  C7  UNL     1      15.607  31.307  15.066  0.00  0.00    +0.094 A 
ATOM      2  C8  UNL     1      15.435  30.489  16.179  0.00  0.00    +0.044 A 
ATOM      3  C9  UNL     1      15.276  29.145  15.929  0.00  0.00    +0.052 A 
ATOM      4  C10 UNL     1      15.075  28.011  16.849  0.00  0.00    +0.196 C 
ATOM      5  O1  UNL     1      15.013  28.074  18.057  0.00  0.00    -0.287 OA
ATOM      6  C11 UNL     1      14.966  26.797  16.007  0.00  0.00    +0.032 A 
ATOM      7  C12 UNL     1      14.774  25.482  16.379  0.00  0.00    +0.012 A 
ATOM      8  C13 UNL     1      14.712  24.538  15.354  0.00  0.00    +0.001 A 
ATOM      9  C14 UNL     1      14.840  24.928  14.004  0.00  0.00    +0.001 A 
ATOM     10  C15 UNL     1      15.035  26.269  13.652  0.00  0.00    +0.011 A 
ATOM     11  C16 UNL     1      15.097  27.205  14.668  0.00  0.00    +0.014 A 
ATOM     12  C17 UNL     1      15.284  28.631  14.647  0.00  0.00    +0.105 A 
ATOM     13  N1  UNL     1      15.446  29.408  13.580  0.00  0.00    -0.148 NA
ATOM     14  N2  UNL     1      15.609  30.762  13.806  0.00  0.00    -0.149 NA
ENDROOT
BRANCH   1  19
ATOM     15 BR1  UNL     1      16.340  37.467  15.422  0.00  0.00    -0.050 Br
ATOM     16  C1  UNL     1      16.120  35.594  15.307  0.00  0.00    +0.018 A 
ATOM     17  C2  UNL     1      15.450  34.911  16.313  0.00  0.00    +0.016 A 
ATOM     18  C3  UNL     1      15.291  33.522  16.221  0.00  0.00    +0.011 A 
ATOM     19  C4  UNL     1      15.794  32.781  15.131  0.00  0.00    +0.002 A 
ATOM     20  C5  UNL     1      16.468  33.512  14.132  0.00  0.00    +0.011 A 
ATOM     21  C6  UNL     1      16.631  34.901  14.217  0.00  0.00    +0.016 A 
ENDBRANCH   1  19
TORSDOF 1
ENDMDL
MODEL 7
REMARK VINA RESULT:    -4.020     19.495     20.797
REMARK INTER + INTRA:          -4.515
REMARK INTER:                  -4.237
REMARK INTRA:                  -0.279
REMARK UNBOUND:                -0.261
REMARK  Name = /home/vital/Documents/PhD_2021/Malaria_codes/data/pdb_ligands_mmv/ligand_251.pdb
REMARK  1 active torsions:
REMARK  status: ('A' for Active; 'I' for Inactive)
REMARK    1  A    between atoms: C4_5  and  C7_8
REMARK                            x       y       z     vdW  Elec       q    Type
REMARK                         _______ _______ _______ _____ _____    ______ ____
ROOT
ATOM      1  C7  UNL     1      14.691  28.939  20.018  0.00  0.00    +0.094 A 
ATOM      2  C8  UNL     1      14.701  29.432  18.716  0.00  0.00    +0.044 A 
ATOM      3  C9  UNL     1      14.709  28.494  17.708  0.00  0.00    +0.052 A 
ATOM      4  C10 UNL     1      14.720  28.653  16.244  0.00  0.00    +0.196 C 
ATOM      5  O1  UNL     1      14.723  29.703  15.640  0.00  0.00    -0.287 OA
ATOM      6  C11 UNL     1      14.725  27.288  15.670  0.00  0.00    +0.032 A 
ATOM      7  C12 UNL     1      14.735  26.889  14.349  0.00  0.00    +0.012 A 
ATOM      8  C13 UNL     1      14.737  25.515  14.104  0.00  0.00    +0.001 A 
ATOM      9  C14 UNL     1      14.730  24.591  15.169  0.00  0.00    +0.001 A 
ATOM     10  C15 UNL     1      14.720  25.021  16.503  0.00  0.00    +0.011 A 
ATOM     11  C16 UNL     1      14.717  26.383  16.745  0.00  0.00    +0.014 A 
ATOM     12  C17 UNL     1      14.708  27.138  17.970  0.00  0.00    +0.105 A 
ATOM     13  N1  UNL     1      14.699  26.662  19.211  0.00  0.00    -0.148 NA
ATOM     14  N2  UNL     1      14.691  27.585  20.240  0.00  0.00    -0.149 NA
ENDROOT
BRANCH   1  19
ATOM     15 BR1  UNL     1      14.611  32.575  25.056  0.00  0.00    -0.050 Br
ATOM     16  C1  UNL     1      14.639  31.464  23.528  0.00  0.00    +0.018 A 
ATOM     17  C2  UNL     1      14.112  31.922  22.328  0.00  0.00    +0.016 A 
ATOM     18  C3  UNL     1      14.136  31.094  21.199  0.00  0.00    +0.011 A 
ATOM     19  C4  UNL     1      14.682  29.792  21.236  0.00  0.00    +0.002 A 
ATOM     20  C5  UNL     1      15.206  29.366  22.473  0.00  0.00    +0.011 A 
ATOM     21  C6  UNL     1      15.186  30.190  23.606  0.00  0.00    +0.016 A 
ENDBRANCH   1  19
TORSDOF 1
ENDMDL
MODEL 8
REMARK VINA RESULT:    -4.003     19.961     22.282
REMARK INTER + INTRA:          -4.497
REMARK INTER:                  -4.223
REMARK INTRA:                  -0.275
REMARK UNBOUND:                -0.261
REMARK  Name = /home/vital/Documents/PhD_2021/Malaria_codes/data/pdb_ligands_mmv/ligand_251.pdb
REMARK  1 active torsions:
REMARK  status: ('A' for Active; 'I' for Inactive)
REMARK    1  A    between atoms: C4_5  and  C7_8
REMARK                            x       y       z     vdW  Elec       q    Type
REMARK                         _______ _______ _______ _____ _____    ______ ____
ROOT
ATOM      1  C7  UNL     1      15.640  31.311  15.094  0.00  0.00    +0.094 A 
ATOM      2  C8  UNL     1      15.534  30.488  16.211  0.00  0.00    +0.044 A 
ATOM      3  C9  UNL     1      15.354  29.145  15.965  0.00  0.00    +0.052 A 
ATOM      4  C10 UNL     1      15.206  28.008  16.890  0.00  0.00    +0.196 C 
ATOM      5  O1  UNL     1      15.218  28.065  18.100  0.00  0.00    -0.287 OA
ATOM      6  C11 UNL     1      15.041  26.798  16.050  0.00  0.00    +0.032 A 
ATOM      7  C12 UNL     1      14.867  25.482  16.427  0.00  0.00    +0.012 A 
ATOM      8  C13 UNL     1      14.738  24.544  15.403  0.00  0.00    +0.001 A 
ATOM      9  C14 UNL     1      14.785  24.940  14.050  0.00  0.00    +0.001 A 
ATOM     10  C15 UNL     1      14.963  26.282  13.692  0.00  0.00    +0.011 A 
ATOM     11  C16 UNL     1      15.091  27.213  14.708  0.00  0.00    +0.014 A 
ATOM     12  C17 UNL     1      15.282  28.639  14.683  0.00  0.00    +0.105 A 
ATOM     13  N1  UNL     1      15.381  29.420  13.612  0.00  0.00    -0.148 NA
ATOM     14  N2  UNL     1      15.563  30.772  13.834  0.00  0.00    -0.149 NA
ENDROOT
BRANCH   1  19
ATOM     15 BR1  UNL     1      16.505  37.462  15.261  0.00  0.00    -0.050 Br
ATOM     16  C1  UNL     1      16.239  35.592  15.217  0.00  0.00    +0.018 A 
ATOM     17  C2  UNL     1      16.668  34.856  14.120  0.00  0.00    +0.016 A 
ATOM     18  C3  UNL     1      16.468  33.470  14.095  0.00  0.00    +0.011 A 
ATOM     19  C4  UNL     1      15.837  32.784  15.155  0.00  0.00    +0.002 A 
ATOM     20  C5  UNL     1      15.417  33.567  16.248  0.00  0.00    +0.011 A 
ATOM     21  C6  UNL     1      15.614  34.954  16.281  0.00  0.00    +0.016 A 
ENDBRANCH   1  19
TORSDOF 1
ENDMDL
MODEL 9
REMARK VINA RESULT:    -3.741     18.540     20.345
REMARK INTER + INTRA:          -4.220
REMARK INTER:                  -3.944
REMARK INTRA:                  -0.277
REMARK UNBOUND:                -0.261
REMARK  Name = /home/vital/Documents/PhD_2021/Malaria_codes/data/pdb_ligands_mmv/ligand_251.pdb
REMARK  1 active torsions:
REMARK  status: ('A' for Active; 'I' for Inactive)
REMARK    1  A    between atoms: C4_5  and  C7_8
REMARK                            x       y       z     vdW  Elec       q    Type
REMARK                         _______ _______ _______ _____ _____    ______ ____
ROOT
ATOM      1  C7  UNL     1      14.207  28.485  19.920  0.00  0.00    +0.094 A 
ATOM      2  C8  UNL     1      14.231  29.851  20.182  0.00  0.00    +0.044 A 
ATOM      3  C9  UNL     1      14.146  30.221  21.506  0.00  0.00    +0.052 A 
ATOM      4  C10 UNL     1      14.143  31.552  22.137  0.00  0.00    +0.196 C 
ATOM      5  O1  UNL     1      14.219  32.615  21.561  0.00  0.00    -0.287 OA
ATOM      6  C11 UNL     1      14.029  31.328  23.597  0.00  0.00    +0.032 A 
ATOM      7  C12 UNL     1      13.984  32.246  24.627  0.00  0.00    +0.012 A 
ATOM      8  C13 UNL     1      13.874  31.737  25.922  0.00  0.00    +0.001 A 
ATOM      9  C14 UNL     1      13.812  30.346  26.148  0.00  0.00    +0.001 A 
ATOM     10  C15 UNL     1      13.860  29.435  25.086  0.00  0.00    +0.011 A 
ATOM     11  C16 UNL     1      13.970  29.939  23.803  0.00  0.00    +0.014 A 
ATOM     12  C17 UNL     1      14.043  29.290  22.521  0.00  0.00    +0.105 A 
ATOM     13  N1  UNL     1      14.018  27.983  22.276  0.00  0.00    -0.148 NA
ATOM     14  N2  UNL     1      14.102  27.589  20.954  0.00  0.00    -0.149 NA
ENDROOT
BRANCH   1  19
ATOM     15 BR1  UNL     1      14.582  26.090  14.199  0.00  0.00    -0.050 Br
ATOM     16  C1  UNL     1      14.464  26.812  15.940  0.00  0.00    +0.018 A 
ATOM     17  C2  UNL     1      14.955  28.085  16.199  0.00  0.00    +0.016 A 
ATOM     18  C3  UNL     1      14.865  28.614  17.492  0.00  0.00    +0.011 A 
ATOM     19  C4  UNL     1      14.286  27.892  18.559  0.00  0.00    +0.002 A 
ATOM     20  C5  UNL     1      13.801  26.605  18.255  0.00  0.00    +0.011 A 
ATOM     21  C6  UNL     1      13.887  26.069  16.963  0.00  0.00    +0.016 A 
ENDBRANCH   1  19
TORSDOF 1
ENDMDL
