MODEL 1
REMARK VINA RESULT:    -4.664      0.000      0.000
REMARK INTER + INTRA:          -5.962
REMARK INTER:                  -5.346
REMARK INTRA:                  -0.617
REMARK UNBOUND:                -0.617
REMARK  Name = /home/vital/Documents/PhD_2021/Malaria_codes/data/pdb_ligands_mmv/ligand_34.pdb
REMARK  3 active torsions:
REMARK  status: ('A' for Active; 'I' for Inactive)
REMARK    1  A    between atoms: C4_4  and  C5_5
REMARK    2  A    between atoms: C5_5  and  O1_6
REMARK    3  A    between atoms: C6_9  and  C7_10
REMARK                            x       y       z     vdW  Elec       q    Type
REMARK                         _______ _______ _______ _____ _____    ______ ____
ROOT
ATOM      1  C1  UNL     1      15.071  27.707  16.269  0.00  0.00    +0.042 A 
ATOM      2  C2  UNL     1      15.246  27.279  14.970  0.00  0.00    -0.015 A 
ATOM      3  C3  UNL     1      15.265  25.834  14.641  0.00  0.00    +0.067 C 
ATOM      4  C4  UNL     1      15.596  25.023  15.912  0.00  0.00    +0.168 C 
ATOM      5  N1  UNL     1      14.820  25.414  17.133  0.00  0.00    -0.292 NA
ATOM      6  C6  UNL     1      14.878  26.855  17.488  0.00  0.00    +0.133 C 
ATOM      7  C13 UNL     1      15.373  28.422  14.139  0.00  0.00    +0.003 A 
ATOM      8  C14 UNL     1      15.260  29.538  14.969  0.00  0.00    +0.047 A 
ATOM      9  C15 UNL     1      15.336  30.850  14.485  0.00  0.00    +0.026 A 
ATOM     10  C16 UNL     1      15.533  31.023  13.111  0.00  0.00    +0.002 A 
ATOM     11  C17 UNL     1      15.648  29.928  12.259  0.00  0.00    +0.001 A 
ATOM     12  C18 UNL     1      15.570  28.622  12.758  0.00  0.00    +0.010 A 
ATOM     13  N2  UNL     1      15.067  29.078  16.253  0.00  0.00    -0.356 N 
ATOM     14  H5  UNL     1      13.842  25.189  16.936  0.00  0.00    +0.124 HD
ATOM     15  H14 UNL     1      14.939  29.674  17.061  0.00  0.00    +0.166 HD
ENDROOT
BRANCH   6  16
ATOM     16  C7  UNL     1      15.861  27.172  18.616  0.00  0.00    -0.006 A 
ATOM     17  C8  UNL     1      17.242  26.929  18.476  0.00  0.00    +0.008 A 
ATOM     18  C9  UNL     1      18.148  27.231  19.497  0.00  0.00    +0.020 A 
ATOM     19  C10 UNL     1      17.692  27.787  20.685  0.00  0.00    +0.042 A 
ATOM     20 CL1  UNL     1      18.805  28.159  21.941  0.00  0.00    -0.083 Cl
ATOM     21  C11 UNL     1      16.338  28.044  20.860  0.00  0.00    +0.040 A 
ATOM     22  C12 UNL     1      15.432  27.741  19.836  0.00  0.00    +0.047 A 
ATOM     23 CL2  UNL     1      13.770  28.119  20.149  0.00  0.00    -0.083 Cl
ENDBRANCH   6  16
BRANCH   4  24
ATOM     24  C5  UNL     1      15.308  23.557  15.598  0.00  0.00    +0.322 C 
ATOM     25  O2  UNL     1      15.617  22.590  16.278  0.00  0.00    -0.249 OA
BRANCH  24  26
ATOM     26  O1  UNL     1      14.605  23.389  14.459  0.00  0.00    -0.480 OA
ATOM     27  H4  UNL     1      13.897  24.064  14.519  0.00  0.00    +0.295 HD
ENDBRANCH  24  26
ENDBRANCH   4  24
TORSDOF 3
ENDMDL
MODEL 2
REMARK VINA RESULT:    -4.554      0.776      1.015
REMARK INTER + INTRA:          -5.836
REMARK INTER:                  -5.253
REMARK INTRA:                  -0.583
REMARK UNBOUND:                -0.617
REMARK  Name = /home/vital/Documents/PhD_2021/Malaria_codes/data/pdb_ligands_mmv/ligand_34.pdb
REMARK  3 active torsions:
REMARK  status: ('A' for Active; 'I' for Inactive)
REMARK    1  A    between atoms: C4_4  and  C5_5
REMARK    2  A    between atoms: C5_5  and  O1_6
REMARK    3  A    between atoms: C6_9  and  C7_10
REMARK                            x       y       z     vdW  Elec       q    Type
REMARK                         _______ _______ _______ _____ _____    ______ ____
ROOT
ATOM      1  C1  UNL     1      14.973  27.404  16.800  0.00  0.00    +0.042 A 
ATOM      2  C2  UNL     1      15.206  26.844  15.561  0.00  0.00    -0.015 A 
ATOM      3  C3  UNL     1      15.316  25.375  15.399  0.00  0.00    +0.067 C 
ATOM      4  C4  UNL     1      15.659  24.733  16.759  0.00  0.00    +0.168 C 
ATOM      5  N1  UNL     1      14.831  25.211  17.914  0.00  0.00    -0.292 NA
ATOM      6  C6  UNL     1      14.798  26.684  18.104  0.00  0.00    +0.133 C 
ATOM      7  C13 UNL     1      15.288  27.893  14.608  0.00  0.00    +0.003 A 
ATOM      8  C14 UNL     1      15.090  29.086  15.305  0.00  0.00    +0.047 A 
ATOM      9  C15 UNL     1      15.103  30.338  14.677  0.00  0.00    +0.026 A 
ATOM     10  C16 UNL     1      15.326  30.368  13.296  0.00  0.00    +0.002 A 
ATOM     11  C17 UNL     1      15.525  29.192  12.576  0.00  0.00    +0.001 A 
ATOM     12  C18 UNL     1      15.509  27.949  13.218  0.00  0.00    +0.010 A 
ATOM     13  N2  UNL     1      14.891  28.762  16.629  0.00  0.00    -0.356 N 
ATOM     14  H5  UNL     1      13.873  24.908  17.724  0.00  0.00    +0.124 HD
ATOM     15  H14 UNL     1      14.708  29.436  17.361  0.00  0.00    +0.166 HD
ENDROOT
BRANCH   6  16
ATOM     16  C7  UNL     1      15.732  27.183  19.208  0.00  0.00    -0.006 A 
ATOM     17  C8  UNL     1      17.071  26.751  19.287  0.00  0.00    +0.008 A 
ATOM     18  C9  UNL     1      17.934  27.215  20.284  0.00  0.00    +0.020 A 
ATOM     19  C10 UNL     1      17.477  28.128  21.225  0.00  0.00    +0.042 A 
ATOM     20 CL1  UNL     1      18.537  28.700  22.451  0.00  0.00    -0.083 Cl
ATOM     21  C11 UNL     1      16.164  28.580  21.178  0.00  0.00    +0.040 A 
ATOM     22  C12 UNL     1      15.301  28.115  20.179  0.00  0.00    +0.047 A 
ATOM     23 CL2  UNL     1      13.691  28.756  20.199  0.00  0.00    -0.083 Cl
ENDBRANCH   6  16
BRANCH   4  24
ATOM     24  C5  UNL     1      15.465  23.227  16.608  0.00  0.00    +0.322 C 
ATOM     25  O2  UNL     1      15.473  22.590  15.565  0.00  0.00    -0.249 OA
BRANCH  24  26
ATOM     26  O1  UNL     1      15.314  22.593  17.789  0.00  0.00    -0.480 OA
ATOM     27  H4  UNL     1      14.774  21.806  17.565  0.00  0.00    +0.295 HD
ENDBRANCH  24  26
ENDBRANCH   4  24
TORSDOF 3
ENDMDL
MODEL 3
REMARK VINA RESULT:    -3.975      1.581      2.092
REMARK INTER + INTRA:          -5.173
REMARK INTER:                  -4.550
REMARK INTRA:                  -0.623
REMARK UNBOUND:                -0.617
REMARK  Name = /home/vital/Documents/PhD_2021/Malaria_codes/data/pdb_ligands_mmv/ligand_34.pdb
REMARK  3 active torsions:
REMARK  status: ('A' for Active; 'I' for Inactive)
REMARK    1  A    between atoms: C4_4  and  C5_5
REMARK    2  A    between atoms: C5_5  and  O1_6
REMARK    3  A    between atoms: C6_9  and  C7_10
REMARK                            x       y       z     vdW  Elec       q    Type
REMARK                         _______ _______ _______ _____ _____    ______ ____
ROOT
ATOM      1  C1  UNL     1      15.724  28.567  16.724  0.00  0.00    +0.042 A 
ATOM      2  C2  UNL     1      15.160  28.433  15.473  0.00  0.00    -0.015 A 
ATOM      3  C3  UNL     1      14.791  27.099  14.944  0.00  0.00    +0.067 C 
ATOM      4  C4  UNL     1      15.582  26.011  15.699  0.00  0.00    +0.168 C 
ATOM      5  N1  UNL     1      15.589  26.152  17.191  0.00  0.00    -0.292 NA
ATOM      6  C6  UNL     1      16.036  27.474  17.701  0.00  0.00    +0.133 C 
ATOM      7  C13 UNL     1      15.029  29.727  14.904  0.00  0.00    +0.003 A 
ATOM      8  C14 UNL     1      15.518  30.633  15.847  0.00  0.00    +0.047 A 
ATOM      9  C15 UNL     1      15.542  32.015  15.624  0.00  0.00    +0.026 A 
ATOM     10  C16 UNL     1      15.052  32.483  14.400  0.00  0.00    +0.002 A 
ATOM     11  C17 UNL     1      14.558  31.602  13.441  0.00  0.00    +0.001 A 
ATOM     12  C18 UNL     1      14.539  30.223  13.679  0.00  0.00    +0.010 A 
ATOM     13  N2  UNL     1      15.923  29.906  16.945  0.00  0.00    -0.356 N 
ATOM     14  H5  UNL     1      14.622  26.021  17.495  0.00  0.00    +0.124 HD
ATOM     15  H14 UNL     1      16.307  30.311  17.789  0.00  0.00    +0.166 HD
ENDROOT
BRANCH   6  16
ATOM     16  C7  UNL     1      17.486  27.486  18.189  0.00  0.00    -0.006 A 
ATOM     17  C8  UNL     1      18.564  27.555  17.284  0.00  0.00    +0.008 A 
ATOM     18  C9  UNL     1      19.891  27.582  17.723  0.00  0.00    +0.020 A 
ATOM     19  C10 UNL     1      20.171  27.544  19.083  0.00  0.00    +0.042 A 
ATOM     20 CL1  UNL     1      21.802  27.579  19.625  0.00  0.00    -0.083 Cl
ATOM     21  C11 UNL     1      19.135  27.479  20.006  0.00  0.00    +0.040 A 
ATOM     22  C12 UNL     1      17.807  27.452  19.564  0.00  0.00    +0.047 A 
ATOM     23 CL2  UNL     1      16.591  27.390  20.798  0.00  0.00    -0.083 Cl
ENDBRANCH   6  16
BRANCH   4  24
ATOM     24  C5  UNL     1      14.956  24.667  15.337  0.00  0.00    +0.322 C 
ATOM     25  O2  UNL     1      14.640  24.285  14.220  0.00  0.00    -0.249 OA
BRANCH  24  26
ATOM     26  O1  UNL     1      14.802  23.853  16.402  0.00  0.00    -0.480 OA
ATOM     27  H4  UNL     1      14.466  23.018  16.012  0.00  0.00    +0.295 HD
ENDBRANCH  24  26
ENDBRANCH   4  24
TORSDOF 3
ENDMDL
MODEL 4
REMARK VINA RESULT:    -3.928      3.190      4.196
REMARK INTER + INTRA:          -5.119
REMARK INTER:                  -4.485
REMARK INTRA:                  -0.634
REMARK UNBOUND:                -0.617
REMARK  Name = /home/vital/Documents/PhD_2021/Malaria_codes/data/pdb_ligands_mmv/ligand_34.pdb
REMARK  3 active torsions:
REMARK  status: ('A' for Active; 'I' for Inactive)
REMARK    1  A    between atoms: C4_4  and  C5_5
REMARK    2  A    between atoms: C5_5  and  O1_6
REMARK    3  A    between atoms: C6_9  and  C7_10
REMARK                            x       y       z     vdW  Elec       q    Type
REMARK                         _______ _______ _______ _____ _____    ______ ____
ROOT
ATOM      1  C1  UNL     1      15.389  26.756  18.478  0.00  0.00    +0.042 A 
ATOM      2  C2  UNL     1      15.741  25.537  17.936  0.00  0.00    -0.015 A 
ATOM      3  C3  UNL     1      16.594  24.587  18.689  0.00  0.00    +0.067 C 
ATOM      4  C4  UNL     1      17.378  25.352  19.776  0.00  0.00    +0.168 C 
ATOM      5  N1  UNL     1      16.559  26.301  20.598  0.00  0.00    -0.292 NA
ATOM      6  C6  UNL     1      15.771  27.295  19.824  0.00  0.00    +0.133 C 
ATOM      7  C13 UNL     1      15.146  25.434  16.651  0.00  0.00    +0.003 A 
ATOM      8  C14 UNL     1      14.426  26.612  16.446  0.00  0.00    +0.047 A 
ATOM      9  C15 UNL     1      13.702  26.859  15.273  0.00  0.00    +0.026 A 
ATOM     10  C16 UNL     1      13.716  25.872  14.283  0.00  0.00    +0.002 A 
ATOM     11  C17 UNL     1      14.426  24.686  14.461  0.00  0.00    +0.001 A 
ATOM     12  C18 UNL     1      15.144  24.454  15.640  0.00  0.00    +0.010 A 
ATOM     13  N2  UNL     1      14.580  27.391  17.571  0.00  0.00    -0.356 N 
ATOM     14  H5  UNL     1      15.894  25.727  21.121  0.00  0.00    +0.124 HD
ATOM     15  H14 UNL     1      14.152  28.299  17.702  0.00  0.00    +0.166 HD
ENDROOT
BRANCH   6  16
ATOM     16  C7  UNL     1      16.417  28.681  19.766  0.00  0.00    -0.006 A 
ATOM     17  C8  UNL     1      17.556  28.927  18.974  0.00  0.00    +0.008 A 
ATOM     18  C9  UNL     1      18.141  30.195  18.904  0.00  0.00    +0.020 A 
ATOM     19  C10 UNL     1      17.596  31.249  19.625  0.00  0.00    +0.042 A 
ATOM     20 CL1  UNL     1      18.314  32.808  19.539  0.00  0.00    -0.083 Cl
ATOM     21  C11 UNL     1      16.471  31.046  20.414  0.00  0.00    +0.040 A 
ATOM     22  C12 UNL     1      15.887  29.776  20.483  0.00  0.00    +0.047 A 
ATOM     23 CL2  UNL     1      14.477  29.637  21.482  0.00  0.00    -0.083 Cl
ENDBRANCH   6  16
BRANCH   4  24
ATOM     24  C5  UNL     1      17.996  24.309  20.703  0.00  0.00    +0.322 C 
ATOM     25  O2  UNL     1      19.130  23.859  20.643  0.00  0.00    -0.249 OA
BRANCH  24  26
ATOM     26  O1  UNL     1      17.162  23.918  21.689  0.00  0.00    -0.480 OA
ATOM     27  H4  UNL     1      16.372  23.590  21.211  0.00  0.00    +0.295 HD
ENDBRANCH  24  26
ENDBRANCH   4  24
TORSDOF 3
ENDMDL
MODEL 5
REMARK VINA RESULT:    -3.741      2.913      5.836
REMARK INTER + INTRA:          -4.905
REMARK INTER:                  -4.308
REMARK INTRA:                  -0.597
REMARK UNBOUND:                -0.617
REMARK  Name = /home/vital/Documents/PhD_2021/Malaria_codes/data/pdb_ligands_mmv/ligand_34.pdb
REMARK  3 active torsions:
REMARK  status: ('A' for Active; 'I' for Inactive)
REMARK    1  A    between atoms: C4_4  and  C5_5
REMARK    2  A    between atoms: C5_5  and  O1_6
REMARK    3  A    between atoms: C6_9  and  C7_10
REMARK                            x       y       z     vdW  Elec       q    Type
REMARK                         _______ _______ _______ _____ _____    ______ ____
ROOT
ATOM      1  C1  UNL     1      15.924  28.405  17.440  0.00  0.00    +0.042 A 
ATOM      2  C2  UNL     1      15.128  27.485  18.091  0.00  0.00    -0.015 A 
ATOM      3  C3  UNL     1      14.852  26.159  17.491  0.00  0.00    +0.067 C 
ATOM      4  C4  UNL     1      15.100  26.222  15.969  0.00  0.00    +0.168 C 
ATOM      5  N1  UNL     1      16.385  26.878  15.563  0.00  0.00    -0.292 NA
ATOM      6  C6  UNL     1      16.605  28.239  16.115  0.00  0.00    +0.133 C 
ATOM      7  C13 UNL     1      14.708  28.054  19.322  0.00  0.00    +0.003 A 
ATOM      8  C14 UNL     1      15.279  29.325  19.394  0.00  0.00    +0.047 A 
ATOM      9  C15 UNL     1      15.080  30.182  20.484  0.00  0.00    +0.026 A 
ATOM     10  C16 UNL     1      14.272  29.722  21.529  0.00  0.00    +0.002 A 
ATOM     11  C17 UNL     1      13.690  28.457  21.485  0.00  0.00    +0.001 A 
ATOM     12  C18 UNL     1      13.900  27.613  20.388  0.00  0.00    +0.010 A 
ATOM     13  N2  UNL     1      16.019  29.510  18.247  0.00  0.00    -0.356 N 
ATOM     14  H5  UNL     1      17.136  26.281  15.918  0.00  0.00    +0.124 HD
ATOM     15  H14 UNL     1      16.555  30.343  18.040  0.00  0.00    +0.166 HD
ENDROOT
BRANCH   6  16
ATOM     16  C7  UNL     1      16.295  29.362  15.124  0.00  0.00    -0.006 A 
ATOM     17  C8  UNL     1      14.979  29.832  14.936  0.00  0.00    +0.008 A 
ATOM     18  C9  UNL     1      14.691  30.869  14.044  0.00  0.00    +0.020 A 
ATOM     19  C10 UNL     1      15.715  31.463  13.318  0.00  0.00    +0.042 A 
ATOM     20 CL1  UNL     1      15.362  32.739  12.222  0.00  0.00    -0.083 Cl
ATOM     21  C11 UNL     1      17.025  31.030  13.479  0.00  0.00    +0.040 A 
ATOM     22  C12 UNL     1      17.313  29.991  14.373  0.00  0.00    +0.047 A 
ATOM     23 CL2  UNL     1      18.980  29.541  14.511  0.00  0.00    -0.083 Cl
ENDBRANCH   6  16
BRANCH   4  24
ATOM     24  C5  UNL     1      15.098  24.786  15.452  0.00  0.00    +0.322 C 
ATOM     25  O2  UNL     1      15.406  23.784  16.080  0.00  0.00    -0.249 OA
BRANCH  24  26
ATOM     26  O1  UNL     1      14.665  24.683  14.179  0.00  0.00    -0.480 OA
ATOM     27  H4  UNL     1      14.800  23.738  13.961  0.00  0.00    +0.295 HD
ENDBRANCH  24  26
ENDBRANCH   4  24
TORSDOF 3
ENDMDL
MODEL 6
REMARK VINA RESULT:    -3.638      3.748      6.753
REMARK INTER + INTRA:          -4.786
REMARK INTER:                  -4.206
REMARK INTRA:                  -0.580
REMARK UNBOUND:                -0.617
REMARK  Name = /home/vital/Documents/PhD_2021/Malaria_codes/data/pdb_ligands_mmv/ligand_34.pdb
REMARK  3 active torsions:
REMARK  status: ('A' for Active; 'I' for Inactive)
REMARK    1  A    between atoms: C4_4  and  C5_5
REMARK    2  A    between atoms: C5_5  and  O1_6
REMARK    3  A    between atoms: C6_9  and  C7_10
REMARK                            x       y       z     vdW  Elec       q    Type
REMARK                         _______ _______ _______ _____ _____    ______ ____
ROOT
ATOM      1  C1  UNL     1      16.170  25.747  17.977  0.00  0.00    +0.042 A 
ATOM      2  C2  UNL     1      16.922  25.718  19.133  0.00  0.00    -0.015 A 
ATOM      3  C3  UNL     1      16.629  26.640  20.255  0.00  0.00    +0.067 C 
ATOM      4  C4  UNL     1      15.828  27.850  19.729  0.00  0.00    +0.168 C 
ATOM      5  N1  UNL     1      14.675  27.507  18.836  0.00  0.00    -0.292 NA
ATOM      6  C6  UNL     1      15.007  26.644  17.674  0.00  0.00    +0.133 C 
ATOM      7  C13 UNL     1      17.908  24.706  18.995  0.00  0.00    +0.003 A 
ATOM      8  C14 UNL     1      17.719  24.128  17.739  0.00  0.00    +0.047 A 
ATOM      9  C15 UNL     1      18.519  23.083  17.261  0.00  0.00    +0.026 A 
ATOM     10  C16 UNL     1      19.541  22.617  18.093  0.00  0.00    +0.002 A 
ATOM     11  C17 UNL     1      19.752  23.174  19.353  0.00  0.00    +0.001 A 
ATOM     12  C18 UNL     1      18.943  24.218  19.817  0.00  0.00    +0.010 A 
ATOM     13  N2  UNL     1      16.653  24.769  17.147  0.00  0.00    -0.356 N 
ATOM     14  H5  UNL     1      14.007  26.993  19.415  0.00  0.00    +0.124 HD
ATOM     15  H14 UNL     1      16.286  24.543  16.231  0.00  0.00    +0.166 HD
ENDROOT
BRANCH   6  16
ATOM     16  C7  UNL     1      15.155  27.412  16.359  0.00  0.00    -0.006 A 
ATOM     17  C8  UNL     1      15.882  28.618  16.292  0.00  0.00    +0.008 A 
ATOM     18  C9  UNL     1      16.034  29.317  15.091  0.00  0.00    +0.020 A 
ATOM     19  C10 UNL     1      15.464  28.823  13.925  0.00  0.00    +0.042 A 
ATOM     20 CL1  UNL     1      15.651  29.681  12.448  0.00  0.00    -0.083 Cl
ATOM     21  C11 UNL     1      14.743  27.636  13.951  0.00  0.00    +0.040 A 
ATOM     22  C12 UNL     1      14.591  26.937  15.154  0.00  0.00    +0.047 A 
ATOM     23 CL2  UNL     1      13.690  25.459  15.072  0.00  0.00    -0.083 Cl
ENDBRANCH   6  16
BRANCH   4  24
ATOM     24  C5  UNL     1      15.298  28.602  20.947  0.00  0.00    +0.322 C 
ATOM     25  O2  UNL     1      15.319  29.811  21.125  0.00  0.00    -0.249 OA
BRANCH  24  26
ATOM     26  O1  UNL     1      14.726  27.791  21.860  0.00  0.00    -0.480 OA
ATOM     27  H4  UNL     1      14.504  28.393  22.602  0.00  0.00    +0.295 HD
ENDBRANCH  24  26
ENDBRANCH   4  24
TORSDOF 3
ENDMDL
MODEL 7
REMARK VINA RESULT:    -3.569      3.908      5.680
REMARK INTER + INTRA:          -4.708
REMARK INTER:                  -4.091
REMARK INTRA:                  -0.617
REMARK UNBOUND:                -0.617
REMARK  Name = /home/vital/Documents/PhD_2021/Malaria_codes/data/pdb_ligands_mmv/ligand_34.pdb
REMARK  3 active torsions:
REMARK  status: ('A' for Active; 'I' for Inactive)
REMARK    1  A    between atoms: C4_4  and  C5_5
REMARK    2  A    between atoms: C5_5  and  O1_6
REMARK    3  A    between atoms: C6_9  and  C7_10
REMARK                            x       y       z     vdW  Elec       q    Type
REMARK                         _______ _______ _______ _____ _____    ______ ____
ROOT
ATOM      1  C1  UNL     1      16.023  29.895  17.997  0.00  0.00    +0.042 A 
ATOM      2  C2  UNL     1      15.331  30.918  18.610  0.00  0.00    -0.015 A 
ATOM      3  C3  UNL     1      14.624  30.696  19.894  0.00  0.00    +0.067 C 
ATOM      4  C4  UNL     1      14.357  29.187  20.078  0.00  0.00    +0.168 C 
ATOM      5  N1  UNL     1      15.532  28.298  19.807  0.00  0.00    -0.292 NA
ATOM      6  C6  UNL     1      16.178  28.485  18.482  0.00  0.00    +0.133 C 
ATOM      7  C13 UNL     1      15.462  32.085  17.812  0.00  0.00    +0.003 A 
ATOM      8  C14 UNL     1      16.255  31.736  16.717  0.00  0.00    +0.047 A 
ATOM      9  C15 UNL     1      16.597  32.649  15.712  0.00  0.00    +0.026 A 
ATOM     10  C16 UNL     1      16.114  33.956  15.832  0.00  0.00    +0.002 A 
ATOM     11  C17 UNL     1      15.322  34.332  16.914  0.00  0.00    +0.001 A 
ATOM     12  C18 UNL     1      14.989  33.408  17.911  0.00  0.00    +0.010 A 
ATOM     13  N2  UNL     1      16.590  30.407  16.858  0.00  0.00    -0.356 N 
ATOM     14  H5  UNL     1      16.230  28.521  20.520  0.00  0.00    +0.124 HD
ATOM     15  H14 UNL     1      17.174  29.893  16.211  0.00  0.00    +0.166 HD
ENDROOT
BRANCH   6  16
ATOM     16  C7  UNL     1      15.773  27.435  17.446  0.00  0.00    -0.006 A 
ATOM     17  C8  UNL     1      14.481  27.418  16.885  0.00  0.00    +0.008 A 
ATOM     18  C9  UNL     1      14.109  26.470  15.926  0.00  0.00    +0.020 A 
ATOM     19  C10 UNL     1      15.026  25.517  15.504  0.00  0.00    +0.042 A 
ATOM     20 CL1  UNL     1      14.571  24.352  14.325  0.00  0.00    -0.083 Cl
ATOM     21  C11 UNL     1      16.311  25.504  16.032  0.00  0.00    +0.040 A 
ATOM     22  C12 UNL     1      16.682  26.453  16.991  0.00  0.00    +0.047 A 
ATOM     23 CL2  UNL     1      18.313  26.359  17.570  0.00  0.00    -0.083 Cl
ENDBRANCH   6  16
BRANCH   4  24
ATOM     24  C5  UNL     1      13.910  28.982  21.523  0.00  0.00    +0.322 C 
ATOM     25  O2  UNL     1      13.704  29.853  22.354  0.00  0.00    -0.249 OA
BRANCH  24  26
ATOM     26  O1  UNL     1      13.703  27.686  21.832  0.00  0.00    -0.480 OA
ATOM     27  H4  UNL     1      12.730  27.620  21.930  0.00  0.00    +0.295 HD
ENDBRANCH  24  26
ENDBRANCH   4  24
TORSDOF 3
ENDMDL
MODEL 8
REMARK VINA RESULT:    -3.384      3.337      5.158
REMARK INTER + INTRA:          -4.495
REMARK INTER:                  -3.864
REMARK INTRA:                  -0.631
REMARK UNBOUND:                -0.617
REMARK  Name = /home/vital/Documents/PhD_2021/Malaria_codes/data/pdb_ligands_mmv/ligand_34.pdb
REMARK  3 active torsions:
REMARK  status: ('A' for Active; 'I' for Inactive)
REMARK    1  A    between atoms: C4_4  and  C5_5
REMARK    2  A    between atoms: C5_5  and  O1_6
REMARK    3  A    between atoms: C6_9  and  C7_10
REMARK                            x       y       z     vdW  Elec       q    Type
REMARK                         _______ _______ _______ _____ _____    ______ ____
ROOT
ATOM      1  C1  UNL     1      16.083  28.101  17.766  0.00  0.00    +0.042 A 
ATOM      2  C2  UNL     1      15.655  28.436  16.498  0.00  0.00    -0.015 A 
ATOM      3  C3  UNL     1      15.667  29.844  16.038  0.00  0.00    +0.067 C 
ATOM      4  C4  UNL     1      15.685  30.784  17.262  0.00  0.00    +0.168 C 
ATOM      5  N1  UNL     1      16.683  30.425  18.321  0.00  0.00    -0.292 NA
ATOM      6  C6  UNL     1      16.602  29.029  18.823  0.00  0.00    +0.133 C 
ATOM      7  C13 UNL     1      15.266  27.244  15.832  0.00  0.00    +0.003 A 
ATOM      8  C14 UNL     1      15.480  26.194  16.727  0.00  0.00    +0.047 A 
ATOM      9  C15 UNL     1      15.205  24.860  16.404  0.00  0.00    +0.026 A 
ATOM     10  C16 UNL     1      14.696  24.593  15.129  0.00  0.00    +0.002 A 
ATOM     11  C17 UNL     1      14.474  25.621  14.215  0.00  0.00    +0.001 A 
ATOM     12  C18 UNL     1      14.754  26.950  14.553  0.00  0.00    +0.010 A 
ATOM     13  N2  UNL     1      15.985  26.739  17.887  0.00  0.00    -0.356 N 
ATOM     14  H5  UNL     1      17.606  30.542  17.897  0.00  0.00    +0.124 HD
ATOM     15  H14 UNL     1      16.247  26.202  18.704  0.00  0.00    +0.166 HD
ENDROOT
BRANCH   6  16
ATOM     16  C7  UNL     1      15.874  28.898  20.162  0.00  0.00    -0.006 A 
ATOM     17  C8  UNL     1      14.467  28.950  20.240  0.00  0.00    +0.008 A 
ATOM     18  C9  UNL     1      13.795  28.815  21.459  0.00  0.00    +0.020 A 
ATOM     19  C10 UNL     1      14.516  28.621  22.630  0.00  0.00    +0.042 A 
ATOM     20 CL1  UNL     1      13.690  28.454  24.128  0.00  0.00    -0.083 Cl
ATOM     21  C11 UNL     1      15.903  28.561  22.592  0.00  0.00    +0.040 A 
ATOM     22  C12 UNL     1      16.575  28.696  21.371  0.00  0.00    +0.047 A 
ATOM     23 CL2  UNL     1      18.304  28.586  21.433  0.00  0.00    -0.083 Cl
ENDBRANCH   6  16
BRANCH   4  24
ATOM     24  C5  UNL     1      16.000  32.186  16.748  0.00  0.00    +0.322 C 
ATOM     25  O2  UNL     1      15.801  33.240  17.333  0.00  0.00    -0.249 OA
BRANCH  24  26
ATOM     26  O1  UNL     1      16.591  32.184  15.536  0.00  0.00    -0.480 OA
ATOM     27  H4  UNL     1      17.186  31.406  15.567  0.00  0.00    +0.295 HD
ENDBRANCH  24  26
ENDBRANCH   4  24
TORSDOF 3
ENDMDL
