MODEL 1
REMARK VINA RESULT:    -4.197      0.000      0.000
REMARK INTER + INTRA:          -6.042
REMARK INTER:                  -5.424
REMARK INTRA:                  -0.618
REMARK UNBOUND:                -0.618
REMARK  Name = /home/vital/Documents/PhD_2021/Malaria_codes/data/pdb_ligands_mmv/ligand_104.pdb
REMARK  5 active torsions:
REMARK  status: ('A' for Active; 'I' for Inactive)
REMARK    1  A    between atoms: C4_5  and  S1_8
REMARK    2  A    between atoms: S1_8  and  N1_11
REMARK    3  A    between atoms: C9_14  and  C12_17
REMARK    4  A    between atoms: N2_19  and  C13_20
REMARK    5  A    between atoms: C13_20  and  C14_21
REMARK                            x       y       z     vdW  Elec       q    Type
REMARK                         _______ _______ _______ _____ _____    ______ ____
ROOT
ATOM      1  N1  UNL     1      16.109  24.527  16.449  0.00  0.00    -0.177 NA
ATOM      2  C7  UNL     1      16.249  23.065  16.647  0.00  0.00    +0.110 C 
ATOM      3  C8  UNL     1      16.990  22.742  17.935  0.00  0.00    +0.030 C 
ATOM      4  C9  UNL     1      18.285  23.551  18.116  0.00  0.00    +0.077 C 
ATOM      5  C10 UNL     1      18.204  25.017  17.656  0.00  0.00    +0.030 C 
ATOM      6  C11 UNL     1      17.439  25.177  16.353  0.00  0.00    +0.110 C 
ENDROOT
BRANCH   4   7
ATOM      7  C12 UNL     1      18.724  23.473  19.572  0.00  0.00    +0.217 C 
ATOM      8  O3  UNL     1      19.837  23.062  19.885  0.00  0.00    -0.276 OA
ATOM      9  N2  UNL     1      17.778  23.864  20.488  0.00  0.00    -0.308 N 
ATOM     10  H14 UNL     1      16.836  24.087  20.178  0.00  0.00    +0.149 HD
BRANCH   9  11
ATOM     11  C13 UNL     1      18.030  23.769  21.907  0.00  0.00    +0.178 C 
BRANCH  11  12
ATOM     12  C14 UNL     1      17.779  25.086  22.541  0.00  0.00    +0.122 A 
ATOM     13  O4  UNL     1      17.059  25.079  23.701  0.00  0.00    -0.466 OA
ATOM     14  C15 UNL     1      16.947  26.368  24.110  0.00  0.00    +0.195 A 
ATOM     15  C16 UNL     1      17.582  27.210  23.229  0.00  0.00    +0.041 A 
ATOM     16  C17 UNL     1      18.117  26.384  22.211  0.00  0.00    +0.046 A 
ENDBRANCH  11  12
ENDBRANCH   9  11
ENDBRANCH   4   7
BRANCH   1  17
ATOM     17  S1  UNL     1      14.953  25.365  17.387  0.00  0.00    +0.061 S 
ATOM     18  O1  UNL     1      13.709  24.622  17.329  0.00  0.00    -0.153 OA
ATOM     19  O2  UNL     1      15.558  25.701  18.656  0.00  0.00    -0.153 OA
BRANCH  17  24
ATOM     20 CL1  UNL     1      14.206  30.701  14.174  0.00  0.00    -0.084 Cl
ATOM     21  C1  UNL     1      14.413  29.241  15.058  0.00  0.00    +0.041 A 
ATOM     22  C2  UNL     1      13.984  28.032  14.507  0.00  0.00    +0.022 A 
ATOM     23  C3  UNL     1      14.152  26.845  15.223  0.00  0.00    +0.030 A 
ATOM     24  C4  UNL     1      14.745  26.884  16.490  0.00  0.00    +0.106 A 
ATOM     25  C5  UNL     1      15.184  28.092  17.040  0.00  0.00    +0.030 A 
ATOM     26  C6  UNL     1      15.012  29.274  16.319  0.00  0.00    +0.022 A 
ENDBRANCH  17  24
ENDBRANCH   1  17
TORSDOF 5
ENDMDL
MODEL 2
REMARK VINA RESULT:    -4.092      7.385     10.659
REMARK INTER + INTRA:          -5.905
REMARK INTER:                  -5.655
REMARK INTRA:                  -0.250
REMARK UNBOUND:                -0.618
REMARK  Name = /home/vital/Documents/PhD_2021/Malaria_codes/data/pdb_ligands_mmv/ligand_104.pdb
REMARK  5 active torsions:
REMARK  status: ('A' for Active; 'I' for Inactive)
REMARK    1  A    between atoms: C4_5  and  S1_8
REMARK    2  A    between atoms: S1_8  and  N1_11
REMARK    3  A    between atoms: C9_14  and  C12_17
REMARK    4  A    between atoms: N2_19  and  C13_20
REMARK    5  A    between atoms: C13_20  and  C14_21
REMARK                            x       y       z     vdW  Elec       q    Type
REMARK                         _______ _______ _______ _____ _____    ______ ____
ROOT
ATOM      1  N1  UNL     1      16.045  31.395  15.022  0.00  0.00    -0.177 NA
ATOM      2  C7  UNL     1      15.635  32.414  16.017  0.00  0.00    +0.110 C 
ATOM      3  C8  UNL     1      15.716  33.820  15.446  0.00  0.00    +0.030 C 
ATOM      4  C9  UNL     1      17.042  34.112  14.724  0.00  0.00    +0.077 C 
ATOM      5  C10 UNL     1      17.600  32.943  13.895  0.00  0.00    +0.030 C 
ATOM      6  C11 UNL     1      17.451  31.606  14.600  0.00  0.00    +0.110 C 
ENDROOT
BRANCH   4   7
ATOM      7  C12 UNL     1      16.875  35.350  13.853  0.00  0.00    +0.217 C 
ATOM      8  O3  UNL     1      16.946  35.289  12.629  0.00  0.00    -0.276 OA
ATOM      9  N2  UNL     1      16.674  36.523  14.540  0.00  0.00    -0.308 N 
ATOM     10  H14 UNL     1      16.738  36.532  15.554  0.00  0.00    +0.149 HD
BRANCH   9  11
ATOM     11  C13 UNL     1      16.578  37.786  13.846  0.00  0.00    +0.178 C 
BRANCH  11  12
ATOM     12  C14 UNL     1      15.627  38.670  14.563  0.00  0.00    +0.122 A 
ATOM     13  O4  UNL     1      14.905  38.102  15.572  0.00  0.00    -0.466 OA
ATOM     14  C15 UNL     1      14.110  39.072  16.091  0.00  0.00    +0.195 A 
ATOM     15  C16 UNL     1      14.304  40.259  15.427  0.00  0.00    +0.041 A 
ATOM     16  C17 UNL     1      15.282  40.002  14.436  0.00  0.00    +0.046 A 
ENDBRANCH  11  12
ENDBRANCH   9  11
ENDBRANCH   4   7
BRANCH   1  17
ATOM     17  S1  UNL     1      14.955  31.005  13.766  0.00  0.00    +0.061 S 
ATOM     18  O1  UNL     1      13.690  31.652  14.055  0.00  0.00    -0.153 OA
ATOM     19  O2  UNL     1      15.626  31.221  12.503  0.00  0.00    -0.153 OA
BRANCH  17  24
ATOM     20 CL1  UNL     1      14.255  24.802  14.385  0.00  0.00    -0.084 Cl
ATOM     21  C1  UNL     1      14.443  26.503  14.218  0.00  0.00    +0.041 A 
ATOM     22  C2  UNL     1      15.344  27.010  13.280  0.00  0.00    +0.022 A 
ATOM     23  C3  UNL     1      15.497  28.391  13.143  0.00  0.00    +0.030 A 
ATOM     24  C4  UNL     1      14.749  29.251  13.954  0.00  0.00    +0.106 A 
ATOM     25  C5  UNL     1      13.839  28.746  14.888  0.00  0.00    +0.030 A 
ATOM     26  C6  UNL     1      13.691  27.364  15.020  0.00  0.00    +0.022 A 
ENDBRANCH  17  24
ENDBRANCH   1  17
TORSDOF 5
ENDMDL
MODEL 3
REMARK VINA RESULT:    -4.038      2.138      2.605
REMARK INTER + INTRA:          -5.836
REMARK INTER:                  -5.394
REMARK INTRA:                  -0.442
REMARK UNBOUND:                -0.618
REMARK  Name = /home/vital/Documents/PhD_2021/Malaria_codes/data/pdb_ligands_mmv/ligand_104.pdb
REMARK  5 active torsions:
REMARK  status: ('A' for Active; 'I' for Inactive)
REMARK    1  A    between atoms: C4_5  and  S1_8
REMARK    2  A    between atoms: S1_8  and  N1_11
REMARK    3  A    between atoms: C9_14  and  C12_17
REMARK    4  A    between atoms: N2_19  and  C13_20
REMARK    5  A    between atoms: C13_20  and  C14_21
REMARK                            x       y       z     vdW  Elec       q    Type
REMARK                         _______ _______ _______ _____ _____    ______ ____
ROOT
ATOM      1  N1  UNL     1      16.317  24.929  16.171  0.00  0.00    -0.177 NA
ATOM      2  C7  UNL     1      16.506  23.629  16.857  0.00  0.00    +0.110 C 
ATOM      3  C8  UNL     1      16.672  23.805  18.357  0.00  0.00    +0.030 C 
ATOM      4  C9  UNL     1      17.688  24.895  18.737  0.00  0.00    +0.077 C 
ATOM      5  C10 UNL     1      17.662  26.147  17.842  0.00  0.00    +0.030 C 
ATOM      6  C11 UNL     1      17.496  25.807  16.371  0.00  0.00    +0.110 C 
ENDROOT
BRANCH   4   7
ATOM      7  C12 UNL     1      17.488  25.280  20.197  0.00  0.00    +0.217 C 
ATOM      8  O3  UNL     1      17.387  24.430  21.076  0.00  0.00    -0.276 OA
ATOM      9  N2  UNL     1      17.401  26.629  20.438  0.00  0.00    -0.308 N 
ATOM     10  H14 UNL     1      17.377  27.281  19.658  0.00  0.00    +0.149 HD
BRANCH   9  11
ATOM     11  C13 UNL     1      17.133  27.134  21.764  0.00  0.00    +0.178 C 
BRANCH  11  12
ATOM     12  C14 UNL     1      15.976  28.060  21.715  0.00  0.00    +0.122 A 
ATOM     13  O4  UNL     1      14.791  27.535  21.287  0.00  0.00    -0.466 OA
ATOM     14  C15 UNL     1      13.875  28.536  21.319  0.00  0.00    +0.195 A 
ATOM     15  C16 UNL     1      14.452  29.703  21.759  0.00  0.00    +0.041 A 
ATOM     16  C17 UNL     1      15.812  29.399  22.012  0.00  0.00    +0.046 A 
ENDBRANCH  11  12
ENDBRANCH   9  11
ENDBRANCH   4   7
BRANCH   1  17
ATOM     17  S1  UNL     1      14.799  25.701  16.302  0.00  0.00    +0.061 S 
ATOM     18  O1  UNL     1      13.794  24.803  15.768  0.00  0.00    -0.153 OA
ATOM     19  O2  UNL     1      14.679  26.237  17.640  0.00  0.00    -0.153 OA
BRANCH  17  24
ATOM     20 CL1  UNL     1      15.354  30.616  12.443  0.00  0.00    -0.084 Cl
ATOM     21  C1  UNL     1      15.203  29.266  13.497  0.00  0.00    +0.041 A 
ATOM     22  C2  UNL     1      14.711  29.450  14.790  0.00  0.00    +0.022 A 
ATOM     23  C3  UNL     1      14.587  28.355  15.647  0.00  0.00    +0.030 A 
ATOM     24  C4  UNL     1      14.965  27.084  15.200  0.00  0.00    +0.106 A 
ATOM     25  C5  UNL     1      15.449  26.895  13.902  0.00  0.00    +0.030 A 
ATOM     26  C6  UNL     1      15.571  27.995  13.050  0.00  0.00    +0.022 A 
ENDBRANCH  17  24
ENDBRANCH   1  17
TORSDOF 5
ENDMDL
MODEL 4
REMARK VINA RESULT:    -4.004      3.164      4.549
REMARK INTER + INTRA:          -5.793
REMARK INTER:                  -5.240
REMARK INTRA:                  -0.553
REMARK UNBOUND:                -0.618
REMARK  Name = /home/vital/Documents/PhD_2021/Malaria_codes/data/pdb_ligands_mmv/ligand_104.pdb
REMARK  5 active torsions:
REMARK  status: ('A' for Active; 'I' for Inactive)
REMARK    1  A    between atoms: C4_5  and  S1_8
REMARK    2  A    between atoms: S1_8  and  N1_11
REMARK    3  A    between atoms: C9_14  and  C12_17
REMARK    4  A    between atoms: N2_19  and  C13_20
REMARK    5  A    between atoms: C13_20  and  C14_21
REMARK                            x       y       z     vdW  Elec       q    Type
REMARK                         _______ _______ _______ _____ _____    ______ ____
ROOT
ATOM      1  N1  UNL     1      14.347  27.275  15.264  0.00  0.00    -0.177 NA
ATOM      2  C7  UNL     1      14.144  27.196  16.729  0.00  0.00    +0.110 C 
ATOM      3  C8  UNL     1      14.792  25.954  17.319  0.00  0.00    +0.030 C 
ATOM      4  C9  UNL     1      14.464  24.667  16.546  0.00  0.00    +0.077 C 
ATOM      5  C10 UNL     1      14.417  24.822  15.016  0.00  0.00    +0.030 C 
ATOM      6  C11 UNL     1      13.735  26.108  14.582  0.00  0.00    +0.110 C 
ENDROOT
BRANCH   4   7
ATOM      7  C12 UNL     1      15.455  23.580  16.940  0.00  0.00    +0.217 C 
ATOM      8  O3  UNL     1      15.638  22.591  16.236  0.00  0.00    -0.276 OA
ATOM      9  N2  UNL     1      16.091  23.778  18.141  0.00  0.00    -0.308 N 
ATOM     10  H14 UNL     1      15.817  24.556  18.736  0.00  0.00    +0.149 HD
BRANCH   9  11
ATOM     11  C13 UNL     1      16.999  22.790  18.677  0.00  0.00    +0.178 C 
BRANCH  11  12
ATOM     12  C14 UNL     1      18.396  23.225  18.440  0.00  0.00    +0.122 A 
ATOM     13  O4  UNL     1      19.050  22.639  17.395  0.00  0.00    -0.466 OA
ATOM     14  C15 UNL     1      20.297  23.174  17.352  0.00  0.00    +0.195 A 
ATOM     15  C16 UNL     1      20.459  24.097  18.357  0.00  0.00    +0.041 A 
ATOM     16  C17 UNL     1      19.234  24.129  19.065  0.00  0.00    +0.046 A 
ENDBRANCH  11  12
ENDBRANCH   9  11
ENDBRANCH   4   7
BRANCH   1  17
ATOM     17  S1  UNL     1      15.885  27.738  14.682  0.00  0.00    +0.061 S 
ATOM     18  O1  UNL     1      16.880  27.259  15.622  0.00  0.00    -0.153 OA
ATOM     19  O2  UNL     1      15.961  27.390  13.281  0.00  0.00    -0.153 OA
BRANCH  17  24
ATOM     20 CL1  UNL     1      15.634  33.999  14.980  0.00  0.00    -0.084 Cl
ATOM     21  C1  UNL     1      15.707  32.283  14.901  0.00  0.00    +0.041 A 
ATOM     22  C2  UNL     1      14.715  31.580  14.216  0.00  0.00    +0.022 A 
ATOM     23  C3  UNL     1      14.773  30.187  14.150  0.00  0.00    +0.030 A 
ATOM     24  C4  UNL     1      15.825  29.511  14.778  0.00  0.00    +0.106 A 
ATOM     25  C5  UNL     1      16.825  30.213  15.456  0.00  0.00    +0.030 A 
ATOM     26  C6  UNL     1      16.761  31.606  15.519  0.00  0.00    +0.022 A 
ENDBRANCH  17  24
ENDBRANCH   1  17
TORSDOF 5
ENDMDL
MODEL 5
REMARK VINA RESULT:    -3.972      4.059      7.940
REMARK INTER + INTRA:          -5.751
REMARK INTER:                  -5.280
REMARK INTRA:                  -0.471
REMARK UNBOUND:                -0.618
REMARK  Name = /home/vital/Documents/PhD_2021/Malaria_codes/data/pdb_ligands_mmv/ligand_104.pdb
REMARK  5 active torsions:
REMARK  status: ('A' for Active; 'I' for Inactive)
REMARK    1  A    between atoms: C4_5  and  S1_8
REMARK    2  A    between atoms: S1_8  and  N1_11
REMARK    3  A    between atoms: C9_14  and  C12_17
REMARK    4  A    between atoms: N2_19  and  C13_20
REMARK    5  A    between atoms: C13_20  and  C14_21
REMARK                            x       y       z     vdW  Elec       q    Type
REMARK                         _______ _______ _______ _____ _____    ______ ____
ROOT
ATOM      1  N1  UNL     1      15.623  25.265  15.577  0.00  0.00    -0.177 NA
ATOM      2  C7  UNL     1      16.803  26.098  15.247  0.00  0.00    +0.110 C 
ATOM      3  C8  UNL     1      16.406  27.530  14.929  0.00  0.00    +0.030 C 
ATOM      4  C9  UNL     1      15.236  27.635  13.936  0.00  0.00    +0.077 C 
ATOM      5  C10 UNL     1      14.129  26.584  14.125  0.00  0.00    +0.030 C 
ATOM      6  C11 UNL     1      14.683  25.204  14.431  0.00  0.00    +0.110 C 
ENDROOT
BRANCH   4   7
ATOM      7  C12 UNL     1      14.653  29.041  13.997  0.00  0.00    +0.217 C 
ATOM      8  O3  UNL     1      13.692  29.306  14.714  0.00  0.00    -0.276 OA
ATOM      9  N2  UNL     1      15.259  29.960  13.176  0.00  0.00    -0.308 N 
ATOM     10  H14 UNL     1      15.975  29.658  12.521  0.00  0.00    +0.149 HD
BRANCH   9  11
ATOM     11  C13 UNL     1      14.760  31.312  13.073  0.00  0.00    +0.178 C 
BRANCH  11  12
ATOM     12  C14 UNL     1      15.677  32.231  13.790  0.00  0.00    +0.122 A 
ATOM     13  O4  UNL     1      16.083  33.343  13.111  0.00  0.00    -0.466 OA
ATOM     14  C15 UNL     1      16.904  34.039  13.937  0.00  0.00    +0.195 A 
ATOM     15  C16 UNL     1      17.038  33.391  15.141  0.00  0.00    +0.041 A 
ATOM     16  C17 UNL     1      16.249  32.219  15.048  0.00  0.00    +0.046 A 
ENDBRANCH  11  12
ENDBRANCH   9  11
ENDBRANCH   4   7
BRANCH   1  17
ATOM     17  S1  UNL     1      14.896  25.459  17.110  0.00  0.00    +0.061 S 
ATOM     18  O1  UNL     1      14.744  26.881  17.355  0.00  0.00    -0.153 OA
ATOM     19  O2  UNL     1      13.759  24.568  17.187  0.00  0.00    -0.153 OA
BRANCH  17  24
ATOM     20 CL1  UNL     1      19.253  23.169  20.998  0.00  0.00    -0.084 Cl
ATOM     21  C1  UNL     1      18.059  23.800  19.935  0.00  0.00    +0.041 A 
ATOM     22  C2  UNL     1      17.544  22.996  18.917  0.00  0.00    +0.022 A 
ATOM     23  C3  UNL     1      16.573  23.507  18.053  0.00  0.00    +0.030 A 
ATOM     24  C4  UNL     1      16.132  24.825  18.216  0.00  0.00    +0.106 A 
ATOM     25  C5  UNL     1      16.639  25.630  19.241  0.00  0.00    +0.030 A 
ATOM     26  C6  UNL     1      17.609  25.112  20.101  0.00  0.00    +0.022 A 
ENDBRANCH  17  24
ENDBRANCH   1  17
TORSDOF 5
ENDMDL
MODEL 6
REMARK VINA RESULT:    -3.935      3.190      5.276
REMARK INTER + INTRA:          -5.703
REMARK INTER:                  -5.150
REMARK INTRA:                  -0.552
REMARK UNBOUND:                -0.618
REMARK  Name = /home/vital/Documents/PhD_2021/Malaria_codes/data/pdb_ligands_mmv/ligand_104.pdb
REMARK  5 active torsions:
REMARK  status: ('A' for Active; 'I' for Inactive)
REMARK    1  A    between atoms: C4_5  and  S1_8
REMARK    2  A    between atoms: S1_8  and  N1_11
REMARK    3  A    between atoms: C9_14  and  C12_17
REMARK    4  A    between atoms: N2_19  and  C13_20
REMARK    5  A    between atoms: C13_20  and  C14_21
REMARK                            x       y       z     vdW  Elec       q    Type
REMARK                         _______ _______ _______ _____ _____    ______ ____
ROOT
ATOM      1  N1  UNL     1      15.269  28.812  14.669  0.00  0.00    -0.177 NA
ATOM      2  C7  UNL     1      13.886  28.538  15.124  0.00  0.00    +0.110 C 
ATOM      3  C8  UNL     1      13.767  27.161  15.757  0.00  0.00    +0.030 C 
ATOM      4  C9  UNL     1      14.410  26.044  14.919  0.00  0.00    +0.077 C 
ATOM      5  C10 UNL     1      15.729  26.430  14.227  0.00  0.00    +0.030 C 
ATOM      6  C11 UNL     1      15.691  27.830  13.640  0.00  0.00    +0.110 C 
ENDROOT
BRANCH   4   7
ATOM      7  C12 UNL     1      14.607  24.813  15.793  0.00  0.00    +0.217 C 
ATOM      8  O3  UNL     1      13.887  24.591  16.762  0.00  0.00    -0.276 OA
ATOM      9  N2  UNL     1      15.657  24.004  15.433  0.00  0.00    -0.308 N 
ATOM     10  H14 UNL     1      16.289  24.296  14.693  0.00  0.00    +0.149 HD
BRANCH   9  11
ATOM     11  C13 UNL     1      16.009  22.844  16.219  0.00  0.00    +0.178 C 
BRANCH  11  12
ATOM     12  C14 UNL     1      17.003  23.230  17.250  0.00  0.00    +0.122 A 
ATOM     13  O4  UNL     1      16.766  22.795  18.521  0.00  0.00    -0.466 OA
ATOM     14  C15 UNL     1      17.783  23.250  19.296  0.00  0.00    +0.195 A 
ATOM     15  C16 UNL     1      18.673  23.978  18.543  0.00  0.00    +0.041 A 
ATOM     16  C17 UNL     1      18.169  23.971  17.220  0.00  0.00    +0.046 A 
ENDBRANCH  11  12
ENDBRANCH   9  11
ENDBRANCH   4   7
BRANCH   1  17
ATOM     17  S1  UNL     1      16.449  29.193  15.844  0.00  0.00    +0.061 S 
ATOM     18  O1  UNL     1      16.176  28.396  17.024  0.00  0.00    -0.153 OA
ATOM     19  O2  UNL     1      17.747  29.156  15.208  0.00  0.00    -0.153 OA
BRANCH  17  24
ATOM     20 CL1  UNL     1      15.222  35.213  17.111  0.00  0.00    -0.084 Cl
ATOM     21  C1  UNL     1      15.559  33.562  16.768  0.00  0.00    +0.041 A 
ATOM     22  C2  UNL     1      15.691  33.144  15.443  0.00  0.00    +0.022 A 
ATOM     23  C3  UNL     1      15.965  31.804  15.163  0.00  0.00    +0.030 A 
ATOM     24  C4  UNL     1      16.098  30.893  16.217  0.00  0.00    +0.106 A 
ATOM     25  C5  UNL     1      15.976  31.311  17.546  0.00  0.00    +0.030 A 
ATOM     26  C6  UNL     1      15.701  32.653  17.818  0.00  0.00    +0.022 A 
ENDBRANCH  17  24
ENDBRANCH   1  17
TORSDOF 5
ENDMDL
MODEL 7
REMARK VINA RESULT:    -3.790      2.453      3.638
REMARK INTER + INTRA:          -5.516
REMARK INTER:                  -5.067
REMARK INTRA:                  -0.449
REMARK UNBOUND:                -0.618
REMARK  Name = /home/vital/Documents/PhD_2021/Malaria_codes/data/pdb_ligands_mmv/ligand_104.pdb
REMARK  5 active torsions:
REMARK  status: ('A' for Active; 'I' for Inactive)
REMARK    1  A    between atoms: C4_5  and  S1_8
REMARK    2  A    between atoms: S1_8  and  N1_11
REMARK    3  A    between atoms: C9_14  and  C12_17
REMARK    4  A    between atoms: N2_19  and  C13_20
REMARK    5  A    between atoms: C13_20  and  C14_21
REMARK                            x       y       z     vdW  Elec       q    Type
REMARK                         _______ _______ _______ _____ _____    ______ ____
ROOT
ATOM      1  N1  UNL     1      14.348  27.025  15.392  0.00  0.00    -0.177 NA
ATOM      2  C7  UNL     1      14.303  27.192  16.863  0.00  0.00    +0.110 C 
ATOM      3  C8  UNL     1      15.148  26.146  17.572  0.00  0.00    +0.030 C 
ATOM      4  C9  UNL     1      14.897  24.714  17.071  0.00  0.00    +0.077 C 
ATOM      5  C10 UNL     1      14.680  24.586  15.553  0.00  0.00    +0.030 C 
ATOM      6  C11 UNL     1      13.812  25.700  14.994  0.00  0.00    +0.110 C 
ENDROOT
BRANCH   4   7
ATOM      7  C12 UNL     1      16.043  23.818  17.523  0.00  0.00    +0.217 C 
ATOM      8  O3  UNL     1      16.105  22.638  17.190  0.00  0.00    -0.276 OA
ATOM      9  N2  UNL     1      16.966  24.420  18.342  0.00  0.00    -0.308 N 
ATOM     10  H14 UNL     1      16.804  25.366  18.677  0.00  0.00    +0.149 HD
BRANCH   9  11
ATOM     11  C13 UNL     1      18.063  23.670  18.909  0.00  0.00    +0.178 C 
BRANCH  11  12
ATOM     12  C14 UNL     1      17.912  23.614  20.383  0.00  0.00    +0.122 A 
ATOM     13  O4  UNL     1      18.098  24.783  21.062  0.00  0.00    -0.466 OA
ATOM     14  C15 UNL     1      17.913  24.514  22.380  0.00  0.00    +0.195 A 
ATOM     15  C16 UNL     1      17.613  23.186  22.562  0.00  0.00    +0.041 A 
ATOM     16  C17 UNL     1      17.615  22.600  21.274  0.00  0.00    +0.046 A 
ENDBRANCH  11  12
ENDBRANCH   9  11
ENDBRANCH   4   7
BRANCH   1  17
ATOM     17  S1  UNL     1      15.755  27.523  14.562  0.00  0.00    +0.061 S 
ATOM     18  O1  UNL     1      16.903  26.985  15.267  0.00  0.00    -0.153 OA
ATOM     19  O2  UNL     1      15.563  27.266  13.152  0.00  0.00    -0.153 OA
BRANCH  17  24
ATOM     20 CL1  UNL     1      15.656  33.754  15.279  0.00  0.00    -0.084 Cl
ATOM     21  C1  UNL     1      15.687  32.047  15.085  0.00  0.00    +0.041 A 
ATOM     22  C2  UNL     1      14.807  31.436  14.189  0.00  0.00    +0.022 A 
ATOM     23  C3  UNL     1      14.832  30.049  14.030  0.00  0.00    +0.030 A 
ATOM     24  C4  UNL     1      15.736  29.286  14.778  0.00  0.00    +0.106 A 
ATOM     25  C5  UNL     1      16.625  29.896  15.669  0.00  0.00    +0.030 A 
ATOM     26  C6  UNL     1      16.594  31.283  15.823  0.00  0.00    +0.022 A 
ENDBRANCH  17  24
ENDBRANCH   1  17
TORSDOF 5
ENDMDL
MODEL 8
REMARK VINA RESULT:    -3.767      2.548      3.866
REMARK INTER + INTRA:          -5.486
REMARK INTER:                  -5.073
REMARK INTRA:                  -0.412
REMARK UNBOUND:                -0.618
REMARK  Name = /home/vital/Documents/PhD_2021/Malaria_codes/data/pdb_ligands_mmv/ligand_104.pdb
REMARK  5 active torsions:
REMARK  status: ('A' for Active; 'I' for Inactive)
REMARK    1  A    between atoms: C4_5  and  S1_8
REMARK    2  A    between atoms: S1_8  and  N1_11
REMARK    3  A    between atoms: C9_14  and  C12_17
REMARK    4  A    between atoms: N2_19  and  C13_20
REMARK    5  A    between atoms: C13_20  and  C14_21
REMARK                            x       y       z     vdW  Elec       q    Type
REMARK                         _______ _______ _______ _____ _____    ______ ____
ROOT
ATOM      1  N1  UNL     1      15.307  27.458  14.400  0.00  0.00    -0.177 NA
ATOM      2  C7  UNL     1      14.191  26.501  14.219  0.00  0.00    +0.110 C 
ATOM      3  C8  UNL     1      14.248  25.374  15.238  0.00  0.00    +0.030 C 
ATOM      4  C9  UNL     1      15.641  24.734  15.366  0.00  0.00    +0.077 C 
ATOM      5  C10 UNL     1      16.818  25.722  15.286  0.00  0.00    +0.030 C 
ATOM      6  C11 UNL     1      16.616  26.784  14.219  0.00  0.00    +0.110 C 
ENDROOT
BRANCH   4   7
ATOM      7  C12 UNL     1      15.706  23.931  16.658  0.00  0.00    +0.217 C 
ATOM      8  O3  UNL     1      14.689  23.536  17.220  0.00  0.00    -0.276 OA
ATOM      9  N2  UNL     1      16.971  23.717  17.148  0.00  0.00    -0.308 N 
ATOM     10  H14 UNL     1      17.768  24.163  16.703  0.00  0.00    +0.149 HD
BRANCH   9  11
ATOM     11  C13 UNL     1      17.178  23.037  18.406  0.00  0.00    +0.178 C 
BRANCH  11  12
ATOM     12  C14 UNL     1      17.815  23.968  19.369  0.00  0.00    +0.122 A 
ATOM     13  O4  UNL     1      17.694  23.656  20.692  0.00  0.00    -0.466 OA
ATOM     14  C15 UNL     1      18.342  24.622  21.392  0.00  0.00    +0.195 A 
ATOM     15  C16 UNL     1      18.878  25.557  20.538  0.00  0.00    +0.041 A 
ATOM     16  C17 UNL     1      18.536  25.139  19.230  0.00  0.00    +0.046 A 
ENDBRANCH  11  12
ENDBRANCH   9  11
ENDBRANCH   4   7
BRANCH   1  17
ATOM     17  S1  UNL     1      15.226  28.560  15.702  0.00  0.00    +0.061 S 
ATOM     18  O1  UNL     1      13.853  28.604  16.166  0.00  0.00    -0.153 OA
ATOM     19  O2  UNL     1      16.308  28.262  16.614  0.00  0.00    -0.153 OA
BRANCH  17  24
ATOM     20 CL1  UNL     1      16.540  34.035  12.934  0.00  0.00    -0.084 Cl
ATOM     21  C1  UNL     1      16.184  32.534  13.695  0.00  0.00    +0.041 A 
ATOM     22  C2  UNL     1      14.980  31.886  13.417  0.00  0.00    +0.022 A 
ATOM     23  C3  UNL     1      14.690  30.668  14.032  0.00  0.00    +0.030 A 
ATOM     24  C4  UNL     1      15.610  30.113  14.928  0.00  0.00    +0.106 A 
ATOM     25  C5  UNL     1      16.822  30.754  15.202  0.00  0.00    +0.030 A 
ATOM     26  C6  UNL     1      17.105  31.973  14.582  0.00  0.00    +0.022 A 
ENDBRANCH  17  24
ENDBRANCH   1  17
TORSDOF 5
ENDMDL
