MODEL 1
REMARK VINA RESULT:    -4.591      0.000      0.000
REMARK INTER + INTRA:          -9.914
REMARK INTER:                  -5.933
REMARK INTRA:                  -3.981
REMARK UNBOUND:                -3.981
REMARK  Name = /home/vital/Documents/PhD_2021/Malaria_codes/data/pdb_ligands_mmv/ligand_11.pdb
REMARK  6 active torsions:
REMARK  status: ('A' for Active; 'I' for Inactive)
REMARK    1  A    between atoms: C1_1  and  C2_2
REMARK    2  A    between atoms: C5_5  and  N1_8
REMARK    3  A    between atoms: C12_15  and  C35_39
REMARK    4  A    between atoms: C14_18  and  C29_33
REMARK    5  A    between atoms: C15_19  and  C23_27
REMARK    6  A    between atoms: C16_20  and  C17_21
REMARK                            x       y       z     vdW  Elec       q    Type
REMARK                         _______ _______ _______ _____ _____    ______ ____
ROOT
ATOM      1  N1  UNL     1      14.943  28.783  19.922  0.00  0.00    -0.210 N 
ATOM      2  C8  UNL     1      15.271  30.019  19.404  0.00  0.00    +0.232 C 
ATOM      3  O1  UNL     1      15.579  31.042  19.999  0.00  0.00    -0.274 OA
ATOM      4  C9  UNL     1      15.214  29.977  17.901  0.00  0.00    +0.111 C 
ATOM      5  C10 UNL     1      14.748  28.543  17.581  0.00  0.00    +0.111 C 
ATOM      6  C11 UNL     1      14.528  27.920  18.930  0.00  0.00    +0.232 C 
ATOM      7  O2  UNL     1      14.004  26.821  19.045  0.00  0.00    -0.274 OA
ATOM      8  C12 UNL     1      15.890  27.896  16.754  0.00  0.00    +0.093 C 
ATOM      9  C13 UNL     1      16.319  29.179  16.067  0.00  0.00    +0.164 C 
ATOM     10  O3  UNL     1      16.461  29.380  14.870  0.00  0.00    -0.295 OA
ATOM     11  C14 UNL     1      16.596  30.135  17.214  0.00  0.00    +0.093 C 
ATOM     12  C15 UNL     1      17.610  29.143  17.793  0.00  0.00    -0.017 C 
ATOM     13  C16 UNL     1      17.207  27.873  17.538  0.00  0.00    -0.017 C 
ENDROOT
BRANCH   1  18
ATOM     14  C1  UNL     1      15.074  27.491  25.568  0.00  0.00    +0.044 C 
ATOM     15  C2  UNL     1      15.042  27.849  24.112  0.00  0.00    -0.050 A 
ATOM     16  C3  UNL     1      16.191  27.750  23.330  0.00  0.00    +0.005 A 
ATOM     17  C4  UNL     1      16.152  28.053  21.961  0.00  0.00    +0.024 A 
ATOM     18  C5  UNL     1      14.966  28.450  21.320  0.00  0.00    +0.044 A 
ATOM     19  C6  UNL     1      13.818  28.531  22.126  0.00  0.00    +0.024 A 
ATOM     20  C7  UNL     1      13.852  28.230  23.496  0.00  0.00    +0.005 A 
ENDBRANCH   1  18
BRANCH  13  21
ATOM     21  C17 UNL     1      17.969  26.664  17.846  0.00  0.00    -0.020 A 
ATOM     22  C18 UNL     1      18.854  26.121  16.908  0.00  0.00    +0.008 A 
ATOM     23  C19 UNL     1      19.573  24.962  17.207  0.00  0.00    +0.001 A 
ATOM     24  C20 UNL     1      19.409  24.337  18.442  0.00  0.00    +0.000 A 
ATOM     25  C21 UNL     1      18.522  24.868  19.379  0.00  0.00    +0.001 A 
ATOM     26  C22 UNL     1      17.802  26.026  19.080  0.00  0.00    +0.008 A 
ENDBRANCH  13  21
BRANCH  12  27
ATOM     27  C23 UNL     1      18.873  29.521  18.423  0.00  0.00    -0.020 A 
ATOM     28  C24 UNL     1      18.886  29.957  19.752  0.00  0.00    +0.008 A 
ATOM     29  C25 UNL     1      20.087  30.324  20.360  0.00  0.00    +0.001 A 
ATOM     30  C26 UNL     1      21.281  30.263  19.643  0.00  0.00    +0.000 A 
ATOM     31  C27 UNL     1      21.274  29.837  18.316  0.00  0.00    +0.001 A 
ATOM     32  C28 UNL     1      20.074  29.468  17.705  0.00  0.00    +0.008 A 
ENDBRANCH  12  27
BRANCH  11  33
ATOM     33  C29 UNL     1      16.992  31.566  16.913  0.00  0.00    -0.029 A 
ATOM     34  C30 UNL     1      18.249  31.925  16.400  0.00  0.00    +0.005 A 
ATOM     35  C31 UNL     1      18.567  33.255  16.099  0.00  0.00    +0.000 A 
ATOM     36  C32 UNL     1      17.627  34.261  16.285  0.00  0.00    +0.000 A 
ATOM     37  C33 UNL     1      16.366  33.933  16.765  0.00  0.00    +0.000 A 
ATOM     38  C34 UNL     1      16.053  32.604  17.065  0.00  0.00    +0.005 A 
ENDBRANCH  11  33
BRANCH   8  39
ATOM     39  C35 UNL     1      15.469  26.700  15.927  0.00  0.00    -0.029 A 
ATOM     40  C36 UNL     1      15.231  26.853  14.547  0.00  0.00    +0.005 A 
ATOM     41  C37 UNL     1      14.869  25.774  13.734  0.00  0.00    +0.000 A 
ATOM     42  C38 UNL     1      14.748  24.503  14.280  0.00  0.00    +0.000 A 
ATOM     43  C39 UNL     1      14.999  24.315  15.633  0.00  0.00    +0.000 A 
ATOM     44  C40 UNL     1      15.363  25.398  16.444  0.00  0.00    +0.005 A 
ENDBRANCH   8  39
TORSDOF 5
ENDMDL
MODEL 2
REMARK VINA RESULT:    -4.365      1.976      6.086
REMARK INTER + INTRA:          -9.621
REMARK INTER:                  -5.802
REMARK INTRA:                  -3.819
REMARK UNBOUND:                -3.981
REMARK  Name = /home/vital/Documents/PhD_2021/Malaria_codes/data/pdb_ligands_mmv/ligand_11.pdb
REMARK  6 active torsions:
REMARK  status: ('A' for Active; 'I' for Inactive)
REMARK    1  A    between atoms: C1_1  and  C2_2
REMARK    2  A    between atoms: C5_5  and  N1_8
REMARK    3  A    between atoms: C12_15  and  C35_39
REMARK    4  A    between atoms: C14_18  and  C29_33
REMARK    5  A    between atoms: C15_19  and  C23_27
REMARK    6  A    between atoms: C16_20  and  C17_21
REMARK                            x       y       z     vdW  Elec       q    Type
REMARK                         _______ _______ _______ _____ _____    ______ ____
ROOT
ATOM      1  N1  UNL     1      19.255  28.001  18.191  0.00  0.00    -0.210 N 
ATOM      2  C8  UNL     1      18.658  28.180  19.422  0.00  0.00    +0.232 C 
ATOM      3  O1  UNL     1      19.027  28.873  20.360  0.00  0.00    -0.274 OA
ATOM      4  C9  UNL     1      17.392  27.371  19.499  0.00  0.00    +0.111 C 
ATOM      5  C10 UNL     1      17.335  26.628  18.150  0.00  0.00    +0.111 C 
ATOM      6  C11 UNL     1      18.601  27.038  17.453  0.00  0.00    +0.232 C 
ATOM      7  O2  UNL     1      18.953  26.506  16.410  0.00  0.00    -0.274 OA
ATOM      8  C12 UNL     1      16.035  27.108  17.452  0.00  0.00    +0.093 C 
ATOM      9  C13 UNL     1      15.240  27.293  18.731  0.00  0.00    +0.164 C 
ATOM     10  O3  UNL     1      14.140  26.840  19.005  0.00  0.00    -0.295 OA
ATOM     11  C14 UNL     1      16.100  28.229  19.564  0.00  0.00    +0.093 C 
ATOM     12  C15 UNL     1      16.073  29.260  18.431  0.00  0.00    -0.017 C 
ATOM     13  C16 UNL     1      16.042  28.625  17.233  0.00  0.00    -0.017 C 
ENDROOT
BRANCH   1  18
ATOM     14  C1  UNL     1      24.036  30.784  16.469  0.00  0.00    +0.044 C 
ATOM     15  C2  UNL     1      22.802  30.072  16.937  0.00  0.00    -0.050 A 
ATOM     16  C3  UNL     1      21.538  30.610  16.701  0.00  0.00    +0.005 A 
ATOM     17  C4  UNL     1      20.383  29.927  17.110  0.00  0.00    +0.024 A 
ATOM     18  C5  UNL     1      20.445  28.680  17.754  0.00  0.00    +0.044 A 
ATOM     19  C6  UNL     1      21.728  28.152  17.970  0.00  0.00    +0.024 A 
ATOM     20  C7  UNL     1      22.887  28.831  17.564  0.00  0.00    +0.005 A 
ENDBRANCH   1  18
BRANCH  13  21
ATOM     21  C17 UNL     1      15.906  29.276  15.931  0.00  0.00    -0.020 A 
ATOM     22  C18 UNL     1      14.668  29.775  15.509  0.00  0.00    +0.008 A 
ATOM     23  C19 UNL     1      14.546  30.390  14.262  0.00  0.00    +0.001 A 
ATOM     24  C20 UNL     1      15.656  30.505  13.427  0.00  0.00    +0.000 A 
ATOM     25  C21 UNL     1      16.891  30.003  13.838  0.00  0.00    +0.001 A 
ATOM     26  C22 UNL     1      17.014  29.387  15.084  0.00  0.00    +0.008 A 
ENDBRANCH  13  21
BRANCH  12  27
ATOM     27  C23 UNL     1      15.979  30.705  18.627  0.00  0.00    -0.020 A 
ATOM     28  C24 UNL     1      17.117  31.504  18.475  0.00  0.00    +0.008 A 
ATOM     29  C25 UNL     1      17.038  32.884  18.663  0.00  0.00    +0.001 A 
ATOM     30  C26 UNL     1      15.823  33.473  19.011  0.00  0.00    +0.000 A 
ATOM     31  C27 UNL     1      14.687  32.682  19.172  0.00  0.00    +0.001 A 
ATOM     32  C28 UNL     1      14.763  31.301  18.983  0.00  0.00    +0.008 A 
ENDBRANCH  12  27
BRANCH  11  33
ATOM     33  C29 UNL     1      15.657  28.600  20.964  0.00  0.00    -0.029 A 
ATOM     34  C30 UNL     1      16.513  29.183  21.914  0.00  0.00    +0.005 A 
ATOM     35  C31 UNL     1      16.059  29.546  23.187  0.00  0.00    +0.000 A 
ATOM     36  C32 UNL     1      14.729  29.354  23.539  0.00  0.00    +0.000 A 
ATOM     37  C33 UNL     1      13.852  28.805  22.612  0.00  0.00    +0.000 A 
ATOM     38  C34 UNL     1      14.310  28.443  21.343  0.00  0.00    +0.005 A 
ENDBRANCH  11  33
BRANCH   8  39
ATOM     39  C35 UNL     1      15.521  26.179  16.371  0.00  0.00    -0.029 A 
ATOM     40  C36 UNL     1      15.998  24.855  16.302  0.00  0.00    +0.005 A 
ATOM     41  C37 UNL     1      15.534  23.951  15.341  0.00  0.00    +0.000 A 
ATOM     42  C38 UNL     1      14.565  24.344  14.429  0.00  0.00    +0.000 A 
ATOM     43  C39 UNL     1      14.057  25.636  14.486  0.00  0.00    +0.000 A 
ATOM     44  C40 UNL     1      14.523  26.538  15.451  0.00  0.00    +0.005 A 
ENDBRANCH   8  39
TORSDOF 5
ENDMDL
MODEL 3
REMARK VINA RESULT:    -4.276      2.421      6.371
REMARK INTER + INTRA:          -9.506
REMARK INTER:                  -5.437
REMARK INTRA:                  -4.069
REMARK UNBOUND:                -3.981
REMARK  Name = /home/vital/Documents/PhD_2021/Malaria_codes/data/pdb_ligands_mmv/ligand_11.pdb
REMARK  6 active torsions:
REMARK  status: ('A' for Active; 'I' for Inactive)
REMARK    1  A    between atoms: C1_1  and  C2_2
REMARK    2  A    between atoms: C5_5  and  N1_8
REMARK    3  A    between atoms: C12_15  and  C35_39
REMARK    4  A    between atoms: C14_18  and  C29_33
REMARK    5  A    between atoms: C15_19  and  C23_27
REMARK    6  A    between atoms: C16_20  and  C17_21
REMARK                            x       y       z     vdW  Elec       q    Type
REMARK                         _______ _______ _______ _____ _____    ______ ____
ROOT
ATOM      1  N1  UNL     1      19.615  28.420  16.823  0.00  0.00    -0.210 N 
ATOM      2  C8  UNL     1      19.238  28.877  18.069  0.00  0.00    +0.232 C 
ATOM      3  O1  UNL     1      19.821  29.656  18.810  0.00  0.00    -0.274 OA
ATOM      4  C9  UNL     1      17.915  28.273  18.458  0.00  0.00    +0.111 C 
ATOM      5  C10 UNL     1      17.569  27.335  17.284  0.00  0.00    +0.111 C 
ATOM      6  C11 UNL     1      18.751  27.449  16.364  0.00  0.00    +0.232 C 
ATOM      7  O2  UNL     1      18.877  26.711  15.397  0.00  0.00    -0.274 OA
ATOM      8  C12 UNL     1      16.240  27.868  16.689  0.00  0.00    +0.093 C 
ATOM      9  C13 UNL     1      15.677  28.366  18.007  0.00  0.00    +0.164 C 
ATOM     10  O3  UNL     1      14.588  28.119  18.502  0.00  0.00    -0.295 OA
ATOM     11  C14 UNL     1      16.754  29.298  18.536  0.00  0.00    +0.093 C 
ATOM     12  C15 UNL     1      16.668  30.125  17.249  0.00  0.00    -0.017 C 
ATOM     13  C16 UNL     1      16.383  29.314  16.200  0.00  0.00    -0.017 C 
ENDROOT
BRANCH   1  18
ATOM     14  C1  UNL     1      24.355  30.205  14.011  0.00  0.00    +0.044 C 
ATOM     15  C2  UNL     1      23.136  29.755  14.758  0.00  0.00    -0.050 A 
ATOM     16  C3  UNL     1      21.919  30.414  14.598  0.00  0.00    +0.005 A 
ATOM     17  C4  UNL     1      20.771  29.972  15.272  0.00  0.00    +0.024 A 
ATOM     18  C5  UNL     1      20.791  28.850  16.117  0.00  0.00    +0.044 A 
ATOM     19  C6  UNL     1      22.025  28.193  16.254  0.00  0.00    +0.024 A 
ATOM     20  C7  UNL     1      23.176  28.633  15.582  0.00  0.00    +0.005 A 
ENDBRANCH   1  18
BRANCH  13  21
ATOM     21  C17 UNL     1      16.121  29.758  14.832  0.00  0.00    -0.020 A 
ATOM     22  C18 UNL     1      17.091  29.605  13.835  0.00  0.00    +0.008 A 
ATOM     23  C19 UNL     1      16.835  30.038  12.533  0.00  0.00    +0.001 A 
ATOM     24  C20 UNL     1      15.613  30.630  12.220  0.00  0.00    +0.000 A 
ATOM     25  C21 UNL     1      14.645  30.793  13.210  0.00  0.00    +0.001 A 
ATOM     26  C22 UNL     1      14.900  30.362  14.514  0.00  0.00    +0.008 A 
ENDBRANCH  13  21
BRANCH  12  27
ATOM     27  C23 UNL     1      16.767  31.582  17.192  0.00  0.00    -0.020 A 
ATOM     28  C24 UNL     1      18.023  32.191  17.096  0.00  0.00    +0.008 A 
ATOM     29  C25 UNL     1      18.129  33.581  17.043  0.00  0.00    +0.001 A 
ATOM     30  C26 UNL     1      16.981  34.371  17.094  0.00  0.00    +0.000 A 
ATOM     31  C27 UNL     1      15.727  33.771  17.198  0.00  0.00    +0.001 A 
ATOM     32  C28 UNL     1      15.619  32.380  17.249  0.00  0.00    +0.008 A 
ENDBRANCH  12  27
BRANCH  11  33
ATOM     33  C29 UNL     1      16.576  29.949  19.893  0.00  0.00    -0.029 A 
ATOM     34  C30 UNL     1      15.611  30.936  20.153  0.00  0.00    +0.005 A 
ATOM     35  C31 UNL     1      15.451  31.489  21.429  0.00  0.00    +0.000 A 
ATOM     36  C32 UNL     1      16.239  31.053  22.487  0.00  0.00    +0.000 A 
ATOM     37  C33 UNL     1      17.183  30.058  22.267  0.00  0.00    +0.000 A 
ATOM     38  C34 UNL     1      17.340  29.510  20.991  0.00  0.00    +0.005 A 
ENDBRANCH  11  33
BRANCH   8  39
ATOM     39  C35 UNL     1      15.465  26.855  15.872  0.00  0.00    -0.029 A 
ATOM     40  C36 UNL     1      15.757  25.483  15.999  0.00  0.00    +0.005 A 
ATOM     41  C37 UNL     1      15.052  24.507  15.288  0.00  0.00    +0.000 A 
ATOM     42  C38 UNL     1      14.019  24.878  14.437  0.00  0.00    +0.000 A 
ATOM     43  C39 UNL     1      13.691  26.222  14.308  0.00  0.00    +0.000 A 
ATOM     44  C40 UNL     1      14.399  27.196  15.023  0.00  0.00    +0.005 A 
ENDBRANCH   8  39
TORSDOF 5
ENDMDL
MODEL 4
REMARK VINA RESULT:    -4.263     14.110     18.065
REMARK INTER + INTRA:          -9.489
REMARK INTER:                  -5.696
REMARK INTRA:                  -3.793
REMARK UNBOUND:                -3.981
REMARK  Name = /home/vital/Documents/PhD_2021/Malaria_codes/data/pdb_ligands_mmv/ligand_11.pdb
REMARK  6 active torsions:
REMARK  status: ('A' for Active; 'I' for Inactive)
REMARK    1  A    between atoms: C1_1  and  C2_2
REMARK    2  A    between atoms: C5_5  and  N1_8
REMARK    3  A    between atoms: C12_15  and  C35_39
REMARK    4  A    between atoms: C14_18  and  C29_33
REMARK    5  A    between atoms: C15_19  and  C23_27
REMARK    6  A    between atoms: C16_20  and  C17_21
REMARK                            x       y       z     vdW  Elec       q    Type
REMARK                         _______ _______ _______ _____ _____    ______ ____
ROOT
ATOM      1  N1  UNL     1      20.387  46.858  20.774  0.00  0.00    -0.210 N 
ATOM      2  C8  UNL     1      21.615  47.174  21.319  0.00  0.00    +0.232 C 
ATOM      3  O1  UNL     1      21.913  47.339  22.493  0.00  0.00    -0.274 OA
ATOM      4  C9  UNL     1      22.642  47.301  20.227  0.00  0.00    +0.111 C 
ATOM      5  C10 UNL     1      21.844  47.068  18.928  0.00  0.00    +0.111 C 
ATOM      6  C11 UNL     1      20.429  46.887  19.396  0.00  0.00    +0.232 C 
ATOM      7  O2  UNL     1      19.499  46.834  18.604  0.00  0.00    -0.274 OA
ATOM      8  C12 UNL     1      22.465  45.812  18.264  0.00  0.00    +0.093 C 
ATOM      9  C13 UNL     1      23.879  46.072  18.750  0.00  0.00    +0.164 C 
ATOM     10  O3  UNL     1      24.906  46.115  18.089  0.00  0.00    -0.295 OA
ATOM     11  C14 UNL     1      23.731  46.197  20.257  0.00  0.00    +0.093 C 
ATOM     12  C15 UNL     1      23.096  44.804  20.308  0.00  0.00    -0.017 C 
ATOM     13  C16 UNL     1      22.372  44.587  19.182  0.00  0.00    -0.017 C 
ENDROOT
BRANCH   1  18
ATOM     14  C1  UNL     1      15.630  45.792  23.905  0.00  0.00    +0.044 C 
ATOM     15  C2  UNL     1      16.870  46.079  23.113  0.00  0.00    -0.050 A 
ATOM     16  C3  UNL     1      17.871  45.118  22.983  0.00  0.00    +0.005 A 
ATOM     17  C4  UNL     1      19.016  45.376  22.215  0.00  0.00    +0.024 A 
ATOM     18  C5  UNL     1      19.198  46.594  21.538  0.00  0.00    +0.044 A 
ATOM     19  C6  UNL     1      18.172  47.543  21.674  0.00  0.00    +0.024 A 
ATOM     20  C7  UNL     1      17.025  47.290  22.441  0.00  0.00    +0.005 A 
ENDBRANCH   1  18
BRANCH  13  21
ATOM     21  C17 UNL     1      21.709  43.333  18.828  0.00  0.00    -0.020 A 
ATOM     22  C18 UNL     1      20.323  43.197  18.960  0.00  0.00    +0.008 A 
ATOM     23  C19 UNL     1      19.699  41.994  18.626  0.00  0.00    +0.001 A 
ATOM     24  C20 UNL     1      20.456  40.919  18.165  0.00  0.00    +0.000 A 
ATOM     25  C21 UNL     1      21.839  41.044  18.039  0.00  0.00    +0.001 A 
ATOM     26  C22 UNL     1      22.464  42.246  18.374  0.00  0.00    +0.008 A 
ENDBRANCH  13  21
BRANCH  12  27
ATOM     27  C23 UNL     1      23.333  43.823  21.365  0.00  0.00    -0.020 A 
ATOM     28  C24 UNL     1      22.466  43.755  22.460  0.00  0.00    +0.008 A 
ATOM     29  C25 UNL     1      22.686  42.824  23.476  0.00  0.00    +0.001 A 
ATOM     30  C26 UNL     1      23.778  41.960  23.406  0.00  0.00    +0.000 A 
ATOM     31  C27 UNL     1      24.651  42.028  22.322  0.00  0.00    +0.001 A 
ATOM     32  C28 UNL     1      24.431  42.957  21.304  0.00  0.00    +0.008 A 
ENDBRANCH  12  27
BRANCH  11  33
ATOM     33  C29 UNL     1      24.945  46.530  21.099  0.00  0.00    -0.029 A 
ATOM     34  C30 UNL     1      24.887  47.333  22.251  0.00  0.00    +0.005 A 
ATOM     35  C31 UNL     1      26.024  47.589  23.026  0.00  0.00    +0.000 A 
ATOM     36  C32 UNL     1      27.249  47.032  22.681  0.00  0.00    +0.000 A 
ATOM     37  C33 UNL     1      27.333  46.212  21.564  0.00  0.00    +0.000 A 
ATOM     38  C34 UNL     1      26.195  45.959  20.792  0.00  0.00    +0.005 A 
ENDBRANCH  11  33
BRANCH   8  39
ATOM     39  C35 UNL     1      22.188  45.681  16.781  0.00  0.00    -0.029 A 
ATOM     40  C36 UNL     1      21.883  46.829  16.023  0.00  0.00    +0.005 A 
ATOM     41  C37 UNL     1      21.648  46.765  14.646  0.00  0.00    +0.000 A 
ATOM     42  C38 UNL     1      21.726  45.548  13.984  0.00  0.00    +0.000 A 
ATOM     43  C39 UNL     1      22.048  44.401  14.699  0.00  0.00    +0.000 A 
ATOM     44  C40 UNL     1      22.285  44.469  16.077  0.00  0.00    +0.005 A 
ENDBRANCH   8  39
TORSDOF 5
ENDMDL
MODEL 5
REMARK VINA RESULT:    -4.215     13.869     18.158
REMARK INTER + INTRA:          -9.428
REMARK INTER:                  -5.349
REMARK INTRA:                  -4.080
REMARK UNBOUND:                -3.981
REMARK  Name = /home/vital/Documents/PhD_2021/Malaria_codes/data/pdb_ligands_mmv/ligand_11.pdb
REMARK  6 active torsions:
REMARK  status: ('A' for Active; 'I' for Inactive)
REMARK    1  A    between atoms: C1_1  and  C2_2
REMARK    2  A    between atoms: C5_5  and  N1_8
REMARK    3  A    between atoms: C12_15  and  C35_39
REMARK    4  A    between atoms: C14_18  and  C29_33
REMARK    5  A    between atoms: C15_19  and  C23_27
REMARK    6  A    between atoms: C16_20  and  C17_21
REMARK                            x       y       z     vdW  Elec       q    Type
REMARK                         _______ _______ _______ _____ _____    ______ ____
ROOT
ATOM      1  N1  UNL     1      18.020  41.880  25.369  0.00  0.00    -0.210 N 
ATOM      2  C8  UNL     1      19.262  42.467  25.495  0.00  0.00    +0.232 C 
ATOM      3  O1  UNL     1      20.303  42.190  24.916  0.00  0.00    -0.274 OA
ATOM      4  C9  UNL     1      19.201  43.585  26.499  0.00  0.00    +0.111 C 
ATOM      5  C10 UNL     1      17.746  43.557  27.009  0.00  0.00    +0.111 C 
ATOM      6  C11 UNL     1      17.130  42.390  26.290  0.00  0.00    +0.232 C 
ATOM      7  O2  UNL     1      16.013  41.984  26.578  0.00  0.00    -0.274 OA
ATOM      8  C12 UNL     1      17.136  44.933  26.637  0.00  0.00    +0.093 C 
ATOM      9  C13 UNL     1      18.427  45.715  26.796  0.00  0.00    +0.164 C 
ATOM     10  O3  UNL     1      18.620  46.722  27.460  0.00  0.00    -0.295 OA
ATOM     11  C14 UNL     1      19.406  44.995  25.884  0.00  0.00    +0.093 C 
ATOM     12  C15 UNL     1      18.460  45.215  24.698  0.00  0.00    -0.017 C 
ATOM     13  C16 UNL     1      17.173  45.174  25.123  0.00  0.00    -0.017 C 
ENDROOT
BRANCH   1  18
ATOM     14  C1  UNL     1      16.792  37.652  21.603  0.00  0.00    +0.044 C 
ATOM     15  C2  UNL     1      17.132  38.745  22.571  0.00  0.00    -0.050 A 
ATOM     16  C3  UNL     1      16.912  40.081  22.243  0.00  0.00    +0.005 A 
ATOM     17  C4  UNL     1      17.199  41.101  23.162  0.00  0.00    +0.024 A 
ATOM     18  C5  UNL     1      17.704  40.825  24.444  0.00  0.00    +0.044 A 
ATOM     19  C6  UNL     1      17.908  39.471  24.757  0.00  0.00    +0.024 A 
ATOM     20  C7  UNL     1      17.622  38.448  23.841  0.00  0.00    +0.005 A 
ENDBRANCH   1  18
BRANCH  13  21
ATOM     21  C17 UNL     1      15.999  45.446  24.297  0.00  0.00    -0.020 A 
ATOM     22  C18 UNL     1      15.653  46.759  23.957  0.00  0.00    +0.008 A 
ATOM     23  C19 UNL     1      14.526  47.009  23.173  0.00  0.00    +0.001 A 
ATOM     24  C20 UNL     1      13.735  45.952  22.728  0.00  0.00    +0.000 A 
ATOM     25  C21 UNL     1      14.068  44.642  23.069  0.00  0.00    +0.001 A 
ATOM     26  C22 UNL     1      15.194  44.390  23.855  0.00  0.00    +0.008 A 
ENDBRANCH  13  21
BRANCH  12  27
ATOM     27  C23 UNL     1      18.895  45.534  23.340  0.00  0.00    -0.020 A 
ATOM     28  C24 UNL     1      19.283  44.506  22.474  0.00  0.00    +0.008 A 
ATOM     29  C25 UNL     1      19.702  44.801  21.176  0.00  0.00    +0.001 A 
ATOM     30  C26 UNL     1      19.743  46.124  20.739  0.00  0.00    +0.000 A 
ATOM     31  C27 UNL     1      19.366  47.153  21.600  0.00  0.00    +0.001 A 
ATOM     32  C28 UNL     1      18.945  46.861  22.898  0.00  0.00    +0.008 A 
ENDBRANCH  12  27
BRANCH  11  33
ATOM     33  C29 UNL     1      20.847  45.456  25.826  0.00  0.00    -0.029 A 
ATOM     34  C30 UNL     1      21.249  46.655  25.214  0.00  0.00    +0.005 A 
ATOM     35  C31 UNL     1      22.587  47.067  25.212  0.00  0.00    +0.000 A 
ATOM     36  C32 UNL     1      23.559  46.298  25.841  0.00  0.00    +0.000 A 
ATOM     37  C33 UNL     1      23.188  45.122  26.479  0.00  0.00    +0.000 A 
ATOM     38  C34 UNL     1      21.851  44.714  26.477  0.00  0.00    +0.005 A 
ENDBRANCH  11  33
BRANCH   8  39
ATOM     39  C35 UNL     1      15.915  45.320  27.445  0.00  0.00    -0.029 A 
ATOM     40  C36 UNL     1      15.615  44.626  28.634  0.00  0.00    +0.005 A 
ATOM     41  C37 UNL     1      14.516  44.963  29.430  0.00  0.00    +0.000 A 
ATOM     42  C38 UNL     1      13.691  46.018  29.064  0.00  0.00    +0.000 A 
ATOM     43  C39 UNL     1      13.973  46.737  27.909  0.00  0.00    +0.000 A 
ATOM     44  C40 UNL     1      15.076  46.397  27.116  0.00  0.00    +0.005 A 
ENDBRANCH   8  39
TORSDOF 5
ENDMDL
MODEL 6
REMARK VINA RESULT:    -4.207     14.897     18.479
REMARK INTER + INTRA:          -9.418
REMARK INTER:                  -5.649
REMARK INTRA:                  -3.768
REMARK UNBOUND:                -3.981
REMARK  Name = /home/vital/Documents/PhD_2021/Malaria_codes/data/pdb_ligands_mmv/ligand_11.pdb
REMARK  6 active torsions:
REMARK  status: ('A' for Active; 'I' for Inactive)
REMARK    1  A    between atoms: C1_1  and  C2_2
REMARK    2  A    between atoms: C5_5  and  N1_8
REMARK    3  A    between atoms: C12_15  and  C35_39
REMARK    4  A    between atoms: C14_18  and  C29_33
REMARK    5  A    between atoms: C15_19  and  C23_27
REMARK    6  A    between atoms: C16_20  and  C17_21
REMARK                            x       y       z     vdW  Elec       q    Type
REMARK                         _______ _______ _______ _____ _____    ______ ____
ROOT
ATOM      1  N1  UNL     1      18.867  46.565  22.708  0.00  0.00    -0.210 N 
ATOM      2  C8  UNL     1      19.747  46.843  23.734  0.00  0.00    +0.232 C 
ATOM      3  O1  UNL     1      19.599  46.677  24.937  0.00  0.00    -0.274 OA
ATOM      4  C9  UNL     1      21.022  47.413  23.175  0.00  0.00    +0.111 C 
ATOM      5  C10 UNL     1      20.767  47.494  21.657  0.00  0.00    +0.111 C 
ATOM      6  C11 UNL     1      19.352  47.016  21.498  0.00  0.00    +0.232 C 
ATOM      7  O2  UNL     1      18.770  47.097  20.426  0.00  0.00    -0.274 OA
ATOM      8  C12 UNL     1      21.831  46.579  20.996  0.00  0.00    +0.093 C 
ATOM      9  C13 UNL     1      22.913  46.842  22.026  0.00  0.00    +0.164 C 
ATOM     10  O3  UNL     1      24.064  47.203  21.833  0.00  0.00    -0.295 OA
ATOM     11  C14 UNL     1      22.255  46.487  23.348  0.00  0.00    +0.093 C 
ATOM     12  C15 UNL     1      21.958  45.079  22.820  0.00  0.00    -0.017 C 
ATOM     13  C16 UNL     1      21.711  45.132  21.487  0.00  0.00    -0.017 C 
ENDROOT
BRANCH   1  18
ATOM     14  C1  UNL     1      13.703  44.047  23.454  0.00  0.00    +0.044 C 
ATOM     15  C2  UNL     1      15.041  44.703  23.284  0.00  0.00    -0.050 A 
ATOM     16  C3  UNL     1      16.199  43.937  23.164  0.00  0.00    +0.005 A 
ATOM     17  C4  UNL     1      17.446  44.550  22.972  0.00  0.00    +0.024 A 
ATOM     18  C5  UNL     1      17.581  45.945  22.879  0.00  0.00    +0.044 A 
ATOM     19  C6  UNL     1      16.400  46.697  22.992  0.00  0.00    +0.024 A 
ATOM     20  C7  UNL     1      15.151  46.088  23.184  0.00  0.00    +0.005 A 
ENDBRANCH   1  18
BRANCH  13  21
ATOM     21  C17 UNL     1      21.492  43.976  20.620  0.00  0.00    -0.020 A 
ATOM     22  C18 UNL     1      20.197  43.524  20.346  0.00  0.00    +0.008 A 
ATOM     23  C19 UNL     1      19.997  42.415  19.522  0.00  0.00    +0.001 A 
ATOM     24  C20 UNL     1      21.090  41.748  18.971  0.00  0.00    +0.000 A 
ATOM     25  C21 UNL     1      22.384  42.187  19.246  0.00  0.00    +0.001 A 
ATOM     26  C22 UNL     1      22.585  43.295  20.071  0.00  0.00    +0.008 A 
ENDBRANCH  13  21
BRANCH  12  27
ATOM     27  C23 UNL     1      22.043  43.859  23.619  0.00  0.00    -0.020 A 
ATOM     28  C24 UNL     1      20.968  43.481  24.430  0.00  0.00    +0.008 A 
ATOM     29  C25 UNL     1      21.041  42.320  25.199  0.00  0.00    +0.001 A 
ATOM     30  C26 UNL     1      22.191  41.532  25.168  0.00  0.00    +0.000 A 
ATOM     31  C27 UNL     1      23.269  41.907  24.368  0.00  0.00    +0.001 A 
ATOM     32  C28 UNL     1      23.197  43.068  23.596  0.00  0.00    +0.008 A 
ENDBRANCH  12  27
BRANCH  11  33
ATOM     33  C29 UNL     1      23.020  46.688  24.640  0.00  0.00    -0.029 A 
ATOM     34  C30 UNL     1      22.533  47.452  25.713  0.00  0.00    +0.005 A 
ATOM     35  C31 UNL     1      23.252  47.586  26.907  0.00  0.00    +0.000 A 
ATOM     36  C32 UNL     1      24.472  46.940  27.067  0.00  0.00    +0.000 A 
ATOM     37  C33 UNL     1      24.967  46.155  26.034  0.00  0.00    +0.000 A 
ATOM     38  C34 UNL     1      24.245  46.025  24.844  0.00  0.00    +0.005 A 
ENDBRANCH  11  33
BRANCH   8  39
ATOM     39  C35 UNL     1      22.093  46.873  19.533  0.00  0.00    -0.029 A 
ATOM     40  C36 UNL     1      23.357  46.590  18.979  0.00  0.00    +0.005 A 
ATOM     41  C37 UNL     1      23.639  46.817  17.628  0.00  0.00    +0.000 A 
ATOM     42  C38 UNL     1      22.656  47.321  16.788  0.00  0.00    +0.000 A 
ATOM     43  C39 UNL     1      21.392  47.588  17.299  0.00  0.00    +0.000 A 
ATOM     44  C40 UNL     1      21.112  47.358  18.652  0.00  0.00    +0.005 A 
ENDBRANCH   8  39
TORSDOF 5
ENDMDL
MODEL 7
REMARK VINA RESULT:    -4.149      2.297      5.275
REMARK INTER + INTRA:          -9.342
REMARK INTER:                  -5.387
REMARK INTRA:                  -3.956
REMARK UNBOUND:                -3.981
REMARK  Name = /home/vital/Documents/PhD_2021/Malaria_codes/data/pdb_ligands_mmv/ligand_11.pdb
REMARK  6 active torsions:
REMARK  status: ('A' for Active; 'I' for Inactive)
REMARK    1  A    between atoms: C1_1  and  C2_2
REMARK    2  A    between atoms: C5_5  and  N1_8
REMARK    3  A    between atoms: C12_15  and  C35_39
REMARK    4  A    between atoms: C14_18  and  C29_33
REMARK    5  A    between atoms: C15_19  and  C23_27
REMARK    6  A    between atoms: C16_20  and  C17_21
REMARK                            x       y       z     vdW  Elec       q    Type
REMARK                         _______ _______ _______ _____ _____    ______ ____
ROOT
ATOM      1  N1  UNL     1      17.709  29.254  19.009  0.00  0.00    -0.210 N 
ATOM      2  C8  UNL     1      18.992  28.747  19.039  0.00  0.00    +0.232 C 
ATOM      3  O1  UNL     1      19.635  28.344  19.998  0.00  0.00    -0.274 OA
ATOM      4  C9  UNL     1      19.570  28.733  17.650  0.00  0.00    +0.111 C 
ATOM      5  C10 UNL     1      18.466  29.358  16.774  0.00  0.00    +0.111 C 
ATOM      6  C11 UNL     1      17.386  29.723  17.753  0.00  0.00    +0.232 C 
ATOM      7  O2  UNL     1      16.417  30.386  17.412  0.00  0.00    -0.274 OA
ATOM      8  C12 UNL     1      18.061  28.266  15.751  0.00  0.00    +0.093 C 
ATOM      9  C13 UNL     1      19.442  27.645  15.644  0.00  0.00    +0.164 C 
ATOM     10  O3  UNL     1      20.088  27.418  14.633  0.00  0.00    -0.295 OA
ATOM     11  C14 UNL     1      19.804  27.309  17.081  0.00  0.00    +0.093 C 
ATOM     12  C15 UNL     1      18.535  26.458  17.200  0.00  0.00    -0.017 C 
ATOM     13  C16 UNL     1      17.545  27.003  16.451  0.00  0.00    -0.017 C 
ENDROOT
BRANCH   1  18
ATOM     14  C1  UNL     1      14.232  29.567  23.632  0.00  0.00    +0.044 C 
ATOM     15  C2  UNL     1      15.149  29.478  22.450  0.00  0.00    -0.050 A 
ATOM     16  C3  UNL     1      15.080  28.395  21.575  0.00  0.00    +0.005 A 
ATOM     17  C4  UNL     1      15.915  28.329  20.450  0.00  0.00    +0.024 A 
ATOM     18  C5  UNL     1      16.839  29.344  20.150  0.00  0.00    +0.044 A 
ATOM     19  C6  UNL     1      16.884  30.431  21.038  0.00  0.00    +0.024 A 
ATOM     20  C7  UNL     1      16.050  30.501  22.165  0.00  0.00    +0.005 A 
ENDBRANCH   1  18
BRANCH  13  21
ATOM     21  C17 UNL     1      16.224  26.415  16.235  0.00  0.00    -0.020 A 
ATOM     22  C18 UNL     1      15.159  26.719  17.090  0.00  0.00    +0.008 A 
ATOM     23  C19 UNL     1      13.903  26.147  16.880  0.00  0.00    +0.001 A 
ATOM     24  C20 UNL     1      13.704  25.266  15.819  0.00  0.00    +0.000 A 
ATOM     25  C21 UNL     1      14.763  24.953  14.967  0.00  0.00    +0.001 A 
ATOM     26  C22 UNL     1      16.020  25.522  15.177  0.00  0.00    +0.008 A 
ENDBRANCH  13  21
BRANCH  12  27
ATOM     27  C23 UNL     1      18.452  25.191  17.923  0.00  0.00    -0.020 A 
ATOM     28  C24 UNL     1      18.235  25.190  19.305  0.00  0.00    +0.008 A 
ATOM     29  C25 UNL     1      18.157  23.986  20.004  0.00  0.00    +0.001 A 
ATOM     30  C26 UNL     1      18.302  22.775  19.329  0.00  0.00    +0.000 A 
ATOM     31  C27 UNL     1      18.527  22.769  17.953  0.00  0.00    +0.001 A 
ATOM     32  C28 UNL     1      18.603  23.972  17.251  0.00  0.00    +0.008 A 
ENDBRANCH  12  27
BRANCH  11  33
ATOM     33  C29 UNL     1      21.166  26.722  17.388  0.00  0.00    -0.029 A 
ATOM     34  C30 UNL     1      21.530  25.405  17.058  0.00  0.00    +0.005 A 
ATOM     35  C31 UNL     1      22.812  24.908  17.324  0.00  0.00    +0.000 A 
ATOM     36  C32 UNL     1      23.772  25.723  17.911  0.00  0.00    +0.000 A 
ATOM     37  C33 UNL     1      23.451  27.037  18.223  0.00  0.00    +0.000 A 
ATOM     38  C34 UNL     1      22.170  27.528  17.956  0.00  0.00    +0.005 A 
ENDBRANCH  11  33
BRANCH   8  39
ATOM     39  C35 UNL     1      17.371  28.790  14.509  0.00  0.00    -0.029 A 
ATOM     40  C36 UNL     1      15.979  29.005  14.521  0.00  0.00    +0.005 A 
ATOM     41  C37 UNL     1      15.300  29.515  13.410  0.00  0.00    +0.000 A 
ATOM     42  C38 UNL     1      16.000  29.840  12.256  0.00  0.00    +0.000 A 
ATOM     43  C39 UNL     1      17.377  29.662  12.221  0.00  0.00    +0.000 A 
ATOM     44  C40 UNL     1      18.054  29.152  13.336  0.00  0.00    +0.005 A 
ENDBRANCH   8  39
TORSDOF 5
ENDMDL
MODEL 8
REMARK VINA RESULT:    -3.906     15.259     18.076
REMARK INTER + INTRA:          -9.028
REMARK INTER:                  -5.392
REMARK INTRA:                  -3.636
REMARK UNBOUND:                -3.981
REMARK  Name = /home/vital/Documents/PhD_2021/Malaria_codes/data/pdb_ligands_mmv/ligand_11.pdb
REMARK  6 active torsions:
REMARK  status: ('A' for Active; 'I' for Inactive)
REMARK    1  A    between atoms: C1_1  and  C2_2
REMARK    2  A    between atoms: C5_5  and  N1_8
REMARK    3  A    between atoms: C12_15  and  C35_39
REMARK    4  A    between atoms: C14_18  and  C29_33
REMARK    5  A    between atoms: C15_19  and  C23_27
REMARK    6  A    between atoms: C16_20  and  C17_21
REMARK                            x       y       z     vdW  Elec       q    Type
REMARK                         _______ _______ _______ _____ _____    ______ ____
ROOT
ATOM      1  N1  UNL     1      15.361  43.981  30.715  0.00  0.00    -0.210 N 
ATOM      2  C8  UNL     1      14.932  44.865  29.745  0.00  0.00    +0.232 C 
ATOM      3  O1  UNL     1      15.144  46.066  29.654  0.00  0.00    -0.274 OA
ATOM      4  C9  UNL     1      14.110  44.137  28.717  0.00  0.00    +0.111 C 
ATOM      5  C10 UNL     1      14.056  42.685  29.234  0.00  0.00    +0.111 C 
ATOM      6  C11 UNL     1      14.803  42.733  30.536  0.00  0.00    +0.232 C 
ATOM      7  O2  UNL     1      14.820  41.774  31.295  0.00  0.00    -0.274 OA
ATOM      8  C12 UNL     1      14.731  41.816  28.140  0.00  0.00    +0.093 C 
ATOM      9  C13 UNL     1      14.275  42.670  26.971  0.00  0.00    +0.164 C 
ATOM     10  O3  UNL     1      13.690  42.312  25.961  0.00  0.00    -0.295 OA
ATOM     11  C14 UNL     1      14.777  44.062  27.317  0.00  0.00    +0.093 C 
ATOM     12  C15 UNL     1      16.206  43.519  27.422  0.00  0.00    -0.017 C 
ATOM     13  C16 UNL     1      16.181  42.248  27.894  0.00  0.00    -0.017 C 
ENDROOT
BRANCH   1  18
ATOM     14  C1  UNL     1      18.878  45.414  35.091  0.00  0.00    +0.044 C 
ATOM     15  C2  UNL     1      17.969  45.066  33.950  0.00  0.00    -0.050 A 
ATOM     16  C3  UNL     1      18.459  44.401  32.827  0.00  0.00    +0.005 A 
ATOM     17  C4  UNL     1      17.602  44.046  31.775  0.00  0.00    +0.024 A 
ATOM     18  C5  UNL     1      16.226  44.327  31.810  0.00  0.00    +0.044 A 
ATOM     19  C6  UNL     1      15.752  44.987  32.956  0.00  0.00    +0.024 A 
ATOM     20  C7  UNL     1      16.606  45.344  34.011  0.00  0.00    +0.005 A 
ENDBRANCH   1  18
BRANCH  13  21
ATOM     21  C17 UNL     1      17.342  41.371  28.029  0.00  0.00    -0.020 A 
ATOM     22  C18 UNL     1      17.887  41.096  29.288  0.00  0.00    +0.008 A 
ATOM     23  C19 UNL     1      19.001  40.263  29.407  0.00  0.00    +0.001 A 
ATOM     24  C20 UNL     1      19.580  39.703  28.269  0.00  0.00    +0.000 A 
ATOM     25  C21 UNL     1      19.048  39.980  27.010  0.00  0.00    +0.001 A 
ATOM     26  C22 UNL     1      17.935  40.814  26.890  0.00  0.00    +0.008 A 
ENDBRANCH  13  21
BRANCH  12  27
ATOM     27  C23 UNL     1      17.399  44.232  26.970  0.00  0.00    -0.020 A 
ATOM     28  C24 UNL     1      18.160  44.967  27.886  0.00  0.00    +0.008 A 
ATOM     29  C25 UNL     1      19.298  45.653  27.463  0.00  0.00    +0.001 A 
ATOM     30  C26 UNL     1      19.679  45.616  26.123  0.00  0.00    +0.000 A 
ATOM     31  C27 UNL     1      18.920  44.894  25.204  0.00  0.00    +0.001 A 
ATOM     32  C28 UNL     1      17.782  44.204  25.624  0.00  0.00    +0.008 A 
ENDBRANCH  12  27
BRANCH  11  33
ATOM     33  C29 UNL     1      14.450  45.221  26.399  0.00  0.00    -0.029 A 
ATOM     34  C30 UNL     1      14.257  46.536  26.857  0.00  0.00    +0.005 A 
ATOM     35  C31 UNL     1      13.992  47.590  25.974  0.00  0.00    +0.000 A 
ATOM     36  C32 UNL     1      13.933  47.361  24.605  0.00  0.00    +0.000 A 
ATOM     37  C33 UNL     1      14.148  46.077  24.120  0.00  0.00    +0.000 A 
ATOM     38  C34 UNL     1      14.411  45.028  25.005  0.00  0.00    +0.005 A 
ENDBRANCH  11  33
BRANCH   8  39
ATOM     39  C35 UNL     1      14.366  40.347  28.190  0.00  0.00    -0.029 A 
ATOM     40  C36 UNL     1      14.432  39.570  27.016  0.00  0.00    +0.005 A 
ATOM     41  C37 UNL     1      14.133  38.204  27.016  0.00  0.00    +0.000 A 
ATOM     42  C38 UNL     1      13.772  37.572  28.197  0.00  0.00    +0.000 A 
ATOM     43  C39 UNL     1      13.720  38.305  29.376  0.00  0.00    +0.000 A 
ATOM     44  C40 UNL     1      14.022  39.673  29.373  0.00  0.00    +0.005 A 
ENDBRANCH   8  39
TORSDOF 5
ENDMDL
