MODEL 1
REMARK VINA RESULT:    -4.072      0.000      0.000
REMARK INTER + INTRA:          -8.455
REMARK INTER:                  -5.500
REMARK INTRA:                  -2.955
REMARK UNBOUND:                -2.955
REMARK  Name = /home/vital/Documents/PhD_2021/Malaria_codes/data/pdb_ligands_mmv/ligand_134.pdb
REMARK  7 active torsions:
REMARK  status: ('A' for Active; 'I' for Inactive)
REMARK    1  A    between atoms: C1_1  and  C2_2
REMARK    2  A    between atoms: C7_8  and  N1_9
REMARK    3  A    between atoms: N2_12  and  C10_13
REMARK    4  A    between atoms: C10_13  and  C11_14
REMARK    5  A    between atoms: C11_14  and  C12_15
REMARK    6  A    between atoms: C12_15  and  N3_16
REMARK    7  A    between atoms: C13_17  and  C14_19
REMARK                            x       y       z     vdW  Elec       q    Type
REMARK                         _______ _______ _______ _____ _____    ______ ____
ROOT
ATOM      1  N3  UNL     1      16.173  34.532  14.854  0.00  0.00    -0.315 N 
ATOM      2  C13 UNL     1      16.955  33.800  13.997  0.00  0.00    +0.216 C 
ATOM      3  O1  UNL     1      18.177  33.728  14.122  0.00  0.00    -0.276 OA
ATOM      4  H17 UNL     1      15.193  34.669  14.665  0.00  0.00    +0.149 HD
ENDROOT
BRANCH   2   5
ATOM      5  C14 UNL     1      16.244  33.069  12.858  0.00  0.00    +0.078 C 
ATOM      6  C15 UNL     1      14.790  32.723  13.172  0.00  0.00    +0.032 C 
ATOM      7  C16 UNL     1      14.612  31.427  13.951  0.00  0.00    +0.108 C 
ATOM      8  N4  UNL     1      15.377  30.322  13.349  0.00  0.00    -0.301 N 
ATOM      9  C17 UNL     1      16.803  30.583  13.112  0.00  0.00    +0.108 C 
ATOM     10  C18 UNL     1      17.015  31.867  12.321  0.00  0.00    +0.032 C 
ATOM     11  C19 UNL     1      15.072  29.102  13.879  0.00  0.00    +0.197 A 
ATOM     12  N5  UNL     1      14.372  28.835  14.958  0.00  0.00    -0.214 NA
ATOM     13  C20 UNL     1      14.343  27.465  15.056  0.00  0.00    +0.091 A 
ATOM     14  C21 UNL     1      13.749  26.646  16.027  0.00  0.00    +0.030 A 
ATOM     15  C22 UNL     1      13.863  25.255  15.894  0.00  0.00    +0.002 A 
ATOM     16  C23 UNL     1      14.550  24.694  14.814  0.00  0.00    +0.002 A 
ATOM     17  C24 UNL     1      15.148  25.496  13.835  0.00  0.00    +0.028 A 
ATOM     18  C25 UNL     1      15.023  26.878  13.997  0.00  0.00    +0.067 A 
ATOM     19  N6  UNL     1      15.462  27.943  13.255  0.00  0.00    -0.326 N 
ATOM     20  H31 UNL     1      15.955  27.900  12.379  0.00  0.00    +0.169 HD
ENDBRANCH   2   5
BRANCH   1  21
ATOM     21  C12 UNL     1      16.744  35.340  15.918  0.00  0.00    +0.105 C 
BRANCH  21  22
ATOM     22  C11 UNL     1      15.807  35.418  17.122  0.00  0.00    +0.034 C 
BRANCH  22  23
ATOM     23  C10 UNL     1      16.206  34.457  18.249  0.00  0.00    +0.086 C 
BRANCH  23  27
ATOM     24  N1  UNL     1      16.679  30.209  18.273  0.00  0.00    -0.327 N 
ATOM     25  C8  UNL     1      15.653  30.781  17.374  0.00  0.00    +0.120 C 
ATOM     26  C9  UNL     1      15.353  32.241  17.785  0.00  0.00    +0.103 C 
ATOM     27  N2  UNL     1      16.561  33.104  17.799  0.00  0.00    -0.299 NA
ATOM     28  C26 UNL     1      17.587  32.480  18.673  0.00  0.00    +0.103 C 
ATOM     29  C27 UNL     1      17.916  31.023  18.267  0.00  0.00    +0.120 C 
BRANCH  24  37
ATOM     30  C1  UNL     1      15.638  28.397  20.240  0.00  0.00    +0.045 C 
ATOM     31  C2  UNL     1      16.336  27.913  18.996  0.00  0.00    -0.029 A 
ATOM     32  C3  UNL     1      16.455  26.530  18.773  0.00  0.00    +0.006 A 
ATOM     33  C4  UNL     1      17.092  26.051  17.631  0.00  0.00    +0.020 A 
ATOM     34  C5  UNL     1      17.607  26.951  16.704  0.00  0.00    +0.043 A 
ATOM     35 CL1  UNL     1      18.383  26.360  15.285  0.00  0.00    -0.083 Cl
ATOM     36  C6  UNL     1      17.488  28.326  16.906  0.00  0.00    +0.043 A 
ATOM     37  C7  UNL     1      16.854  28.830  18.052  0.00  0.00    +0.034 A 
ENDBRANCH  24  37
ENDBRANCH  23  27
ENDBRANCH  22  23
ENDBRANCH  21  22
ENDBRANCH   1  21
TORSDOF 6
ENDMDL
MODEL 2
REMARK VINA RESULT:    -3.985      2.930      6.752
REMARK INTER + INTRA:          -8.337
REMARK INTER:                  -5.698
REMARK INTRA:                  -2.639
REMARK UNBOUND:                -2.955
REMARK  Name = /home/vital/Documents/PhD_2021/Malaria_codes/data/pdb_ligands_mmv/ligand_134.pdb
REMARK  7 active torsions:
REMARK  status: ('A' for Active; 'I' for Inactive)
REMARK    1  A    between atoms: C1_1  and  C2_2
REMARK    2  A    between atoms: C7_8  and  N1_9
REMARK    3  A    between atoms: N2_12  and  C10_13
REMARK    4  A    between atoms: C10_13  and  C11_14
REMARK    5  A    between atoms: C11_14  and  C12_15
REMARK    6  A    between atoms: C12_15  and  N3_16
REMARK    7  A    between atoms: C13_17  and  C14_19
REMARK                            x       y       z     vdW  Elec       q    Type
REMARK                         _______ _______ _______ _____ _____    ______ ____
ROOT
ATOM      1  N3  UNL     1      16.517  24.619  17.857  0.00  0.00    -0.315 N 
ATOM      2  C13 UNL     1      16.005  23.919  16.794  0.00  0.00    +0.216 C 
ATOM      3  O1  UNL     1      16.599  22.971  16.283  0.00  0.00    -0.276 OA
ATOM      4  H17 UNL     1      16.068  25.460  18.183  0.00  0.00    +0.149 HD
ENDROOT
BRANCH   2   5
ATOM      5  C14 UNL     1      14.649  24.372  16.252  0.00  0.00    +0.078 C 
ATOM      6  C15 UNL     1      14.616  24.508  14.731  0.00  0.00    +0.032 C 
ATOM      7  C16 UNL     1      15.131  25.844  14.214  0.00  0.00    +0.108 C 
ATOM      8  N4  UNL     1      14.521  26.975  14.932  0.00  0.00    -0.301 N 
ATOM      9  C17 UNL     1      14.610  26.928  16.398  0.00  0.00    +0.108 C 
ATOM     10  C18 UNL     1      14.087  25.608  16.948  0.00  0.00    +0.032 C 
ATOM     11  C19 UNL     1      14.783  28.185  14.356  0.00  0.00    +0.197 A 
ATOM     12  N5  UNL     1      15.650  28.466  13.410  0.00  0.00    -0.214 NA
ATOM     13  C20 UNL     1      15.522  29.813  13.173  0.00  0.00    +0.091 A 
ATOM     14  C21 UNL     1      16.217  30.638  12.278  0.00  0.00    +0.030 A 
ATOM     15  C22 UNL     1      15.890  32.000  12.226  0.00  0.00    +0.002 A 
ATOM     16  C23 UNL     1      14.889  32.527  13.047  0.00  0.00    +0.002 A 
ATOM     17  C24 UNL     1      14.183  31.718  13.946  0.00  0.00    +0.028 A 
ATOM     18  C25 UNL     1      14.535  30.367  13.979  0.00  0.00    +0.067 A 
ATOM     19  N6  UNL     1      14.070  29.304  14.709  0.00  0.00    -0.326 N 
ATOM     20  H31 UNL     1      13.311  29.318  15.369  0.00  0.00    +0.169 HD
ENDBRANCH   2   5
BRANCH   1  21
ATOM     21  C12 UNL     1      17.836  24.339  18.399  0.00  0.00    +0.105 C 
BRANCH  21  22
ATOM     22  C11 UNL     1      18.917  25.134  17.669  0.00  0.00    +0.034 C 
BRANCH  22  23
ATOM     23  C10 UNL     1      19.376  26.370  18.452  0.00  0.00    +0.086 C 
BRANCH  23  27
ATOM     24  N1  UNL     1      17.840  30.083  16.993  0.00  0.00    -0.327 N 
ATOM     25  C8  UNL     1      18.985  30.134  17.929  0.00  0.00    +0.120 C 
ATOM     26  C9  UNL     1      19.136  28.771  18.644  0.00  0.00    +0.103 C 
ATOM     27  N2  UNL     1      19.292  27.632  17.703  0.00  0.00    -0.299 NA
ATOM     28  C26 UNL     1      18.153  27.637  16.750  0.00  0.00    +0.103 C 
ATOM     29  C27 UNL     1      17.996  28.988  16.009  0.00  0.00    +0.120 C 
BRANCH  24  37
ATOM     30  C1  UNL     1      15.601  31.518  18.070  0.00  0.00    +0.045 C 
ATOM     31  C2  UNL     1      16.466  32.089  16.978  0.00  0.00    -0.029 A 
ATOM     32  C3  UNL     1      16.189  33.378  16.490  0.00  0.00    +0.006 A 
ATOM     33  C4  UNL     1      16.973  33.935  15.482  0.00  0.00    +0.020 A 
ATOM     34  C5  UNL     1      18.039  33.210  14.962  0.00  0.00    +0.043 A 
ATOM     35 CL1  UNL     1      19.016  33.902  13.725  0.00  0.00    -0.083 Cl
ATOM     36  C6  UNL     1      18.333  31.933  15.442  0.00  0.00    +0.043 A 
ATOM     37  C7  UNL     1      17.553  31.352  16.454  0.00  0.00    +0.034 A 
ENDBRANCH  24  37
ENDBRANCH  23  27
ENDBRANCH  22  23
ENDBRANCH  21  22
ENDBRANCH   1  21
TORSDOF 6
ENDMDL
MODEL 3
REMARK VINA RESULT:    -3.779      3.458      6.475
REMARK INTER + INTRA:          -8.060
REMARK INTER:                  -4.929
REMARK INTRA:                  -3.130
REMARK UNBOUND:                -2.955
REMARK  Name = /home/vital/Documents/PhD_2021/Malaria_codes/data/pdb_ligands_mmv/ligand_134.pdb
REMARK  7 active torsions:
REMARK  status: ('A' for Active; 'I' for Inactive)
REMARK    1  A    between atoms: C1_1  and  C2_2
REMARK    2  A    between atoms: C7_8  and  N1_9
REMARK    3  A    between atoms: N2_12  and  C10_13
REMARK    4  A    between atoms: C10_13  and  C11_14
REMARK    5  A    between atoms: C11_14  and  C12_15
REMARK    6  A    between atoms: C12_15  and  N3_16
REMARK    7  A    between atoms: C13_17  and  C14_19
REMARK                            x       y       z     vdW  Elec       q    Type
REMARK                         _______ _______ _______ _____ _____    ______ ____
ROOT
ATOM      1  N3  UNL     1      19.794  28.205  22.367  0.00  0.00    -0.315 N 
ATOM      2  C13 UNL     1      20.216  27.075  21.714  0.00  0.00    +0.216 C 
ATOM      3  O1  UNL     1      21.276  27.032  21.091  0.00  0.00    -0.276 OA
ATOM      4  H17 UNL     1      18.872  28.251  22.772  0.00  0.00    +0.149 HD
ENDROOT
BRANCH   2   5
ATOM      5  C14 UNL     1      19.305  25.849  21.785  0.00  0.00    +0.078 C 
ATOM      6  C15 UNL     1      19.601  24.808  20.707  0.00  0.00    +0.032 C 
ATOM      7  C16 UNL     1      18.922  25.084  19.372  0.00  0.00    +0.108 C 
ATOM      8  N4  UNL     1      17.491  25.383  19.543  0.00  0.00    -0.301 N 
ATOM      9  C17 UNL     1      17.167  26.443  20.507  0.00  0.00    +0.108 C 
ATOM     10  C18 UNL     1      17.819  26.188  21.859  0.00  0.00    +0.032 C 
ATOM     11  C19 UNL     1      16.801  25.415  18.364  0.00  0.00    +0.197 A 
ATOM     12  N5  UNL     1      17.280  25.427  17.142  0.00  0.00    -0.214 NA
ATOM     13  C20 UNL     1      16.186  25.450  16.312  0.00  0.00    +0.091 A 
ATOM     14  C21 UNL     1      16.120  25.486  14.911  0.00  0.00    +0.030 A 
ATOM     15  C22 UNL     1      14.860  25.500  14.297  0.00  0.00    +0.002 A 
ATOM     16  C23 UNL     1      13.691  25.474  15.063  0.00  0.00    +0.002 A 
ATOM     17  C24 UNL     1      13.738  25.435  16.462  0.00  0.00    +0.028 A 
ATOM     18  C25 UNL     1      15.006  25.428  17.046  0.00  0.00    +0.067 A 
ATOM     19  N6  UNL     1      15.429  25.390  18.348  0.00  0.00    -0.326 N 
ATOM     20  H31 UNL     1      14.845  25.317  19.165  0.00  0.00    +0.169 HD
ENDBRANCH   2   5
BRANCH   1  21
ATOM     21  C12 UNL     1      20.530  29.456  22.295  0.00  0.00    +0.105 C 
BRANCH  21  22
ATOM     22  C11 UNL     1      19.977  30.365  21.200  0.00  0.00    +0.034 C 
BRANCH  22  23
ATOM     23  C10 UNL     1      20.840  30.362  19.932  0.00  0.00    +0.086 C 
BRANCH  23  27
ATOM     24  N1  UNL     1      17.592  29.495  17.292  0.00  0.00    -0.327 N 
ATOM     25  C8  UNL     1      18.069  30.894  17.358  0.00  0.00    +0.120 C 
ATOM     26  C9  UNL     1      18.942  31.089  18.619  0.00  0.00    +0.103 C 
ATOM     27  N2  UNL     1      20.092  30.152  18.685  0.00  0.00    -0.299 NA
ATOM     28  C26 UNL     1      19.584  28.760  18.570  0.00  0.00    +0.103 C 
ATOM     29  C27 UNL     1      18.722  28.538  17.303  0.00  0.00    +0.120 C 
BRANCH  24  37
ATOM     30  C1  UNL     1      14.868  28.994  18.043  0.00  0.00    +0.045 C 
ATOM     31  C2  UNL     1      15.297  29.084  16.602  0.00  0.00    -0.029 A 
ATOM     32  C3  UNL     1      14.330  28.950  15.591  0.00  0.00    +0.006 A 
ATOM     33  C4  UNL     1      14.694  29.031  14.249  0.00  0.00    +0.020 A 
ATOM     34  C5  UNL     1      16.025  29.253  13.911  0.00  0.00    +0.043 A 
ATOM     35 CL1  UNL     1      16.475  29.367  12.254  0.00  0.00    -0.083 Cl
ATOM     36  C6  UNL     1      16.995  29.398  14.903  0.00  0.00    +0.043 A 
ATOM     37  C7  UNL     1      16.650  29.314  16.261  0.00  0.00    +0.034 A 
ENDBRANCH  24  37
ENDBRANCH  23  27
ENDBRANCH  22  23
ENDBRANCH  21  22
ENDBRANCH   1  21
TORSDOF 6
ENDMDL
MODEL 4
REMARK VINA RESULT:    -3.679      3.560      6.173
REMARK INTER + INTRA:          -7.925
REMARK INTER:                  -5.262
REMARK INTRA:                  -2.662
REMARK UNBOUND:                -2.955
REMARK  Name = /home/vital/Documents/PhD_2021/Malaria_codes/data/pdb_ligands_mmv/ligand_134.pdb
REMARK  7 active torsions:
REMARK  status: ('A' for Active; 'I' for Inactive)
REMARK    1  A    between atoms: C1_1  and  C2_2
REMARK    2  A    between atoms: C7_8  and  N1_9
REMARK    3  A    between atoms: N2_12  and  C10_13
REMARK    4  A    between atoms: C10_13  and  C11_14
REMARK    5  A    between atoms: C11_14  and  C12_15
REMARK    6  A    between atoms: C12_15  and  N3_16
REMARK    7  A    between atoms: C13_17  and  C14_19
REMARK                            x       y       z     vdW  Elec       q    Type
REMARK                         _______ _______ _______ _____ _____    ______ ____
ROOT
ATOM      1  N3  UNL     1      14.869  28.237  14.332  0.00  0.00    -0.315 N 
ATOM      2  C13 UNL     1      14.973  26.881  14.151  0.00  0.00    +0.216 C 
ATOM      3  O1  UNL     1      15.656  26.388  13.254  0.00  0.00    -0.276 OA
ATOM      4  H17 UNL     1      14.216  28.618  14.998  0.00  0.00    +0.149 HD
ENDROOT
BRANCH   2   5
ATOM      5  C14 UNL     1      14.192  25.988  15.116  0.00  0.00    +0.078 C 
ATOM      6  C15 UNL     1      13.956  26.629  16.482  0.00  0.00    +0.032 C 
ATOM      7  C16 UNL     1      15.114  26.463  17.457  0.00  0.00    +0.108 C 
ATOM      8  N4  UNL     1      15.573  25.065  17.520  0.00  0.00    -0.301 N 
ATOM      9  C17 UNL     1      15.898  24.437  16.232  0.00  0.00    +0.108 C 
ATOM     10  C18 UNL     1      14.752  24.574  15.238  0.00  0.00    +0.032 C 
ATOM     11  C19 UNL     1      16.453  24.831  18.538  0.00  0.00    +0.197 A 
ATOM     12  N5  UNL     1      17.074  25.706  19.294  0.00  0.00    -0.214 NA
ATOM     13  C20 UNL     1      17.833  24.970  20.171  0.00  0.00    +0.091 A 
ATOM     14  C21 UNL     1      18.704  25.398  21.184  0.00  0.00    +0.030 A 
ATOM     15  C22 UNL     1      19.367  24.432  21.953  0.00  0.00    +0.002 A 
ATOM     16  C23 UNL     1      19.162  23.068  21.720  0.00  0.00    +0.002 A 
ATOM     17  C24 UNL     1      18.296  22.623  20.715  0.00  0.00    +0.028 A 
ATOM     18  C25 UNL     1      17.654  23.609  19.961  0.00  0.00    +0.067 A 
ATOM     19  N6  UNL     1      16.758  23.550  18.926  0.00  0.00    -0.326 N 
ATOM     20  H31 UNL     1      16.353  22.717  18.532  0.00  0.00    +0.169 HD
ENDBRANCH   2   5
BRANCH   1  21
ATOM     21  C12 UNL     1      15.492  29.185  13.424  0.00  0.00    +0.105 C 
BRANCH  21  22
ATOM     22  C11 UNL     1      15.551  30.584  14.035  0.00  0.00    +0.034 C 
BRANCH  22  23
ATOM     23  C10 UNL     1      16.782  30.790  14.927  0.00  0.00    +0.086 C 
BRANCH  23  27
ATOM     24  N1  UNL     1      19.509  28.164  16.912  0.00  0.00    -0.327 N 
ATOM     25  C8  UNL     1      18.096  28.149  17.353  0.00  0.00    +0.120 C 
ATOM     26  C9  UNL     1      17.370  29.408  16.824  0.00  0.00    +0.103 C 
ATOM     27  N2  UNL     1      17.446  29.548  15.347  0.00  0.00    -0.299 NA
ATOM     28  C26 UNL     1      18.872  29.514  14.934  0.00  0.00    +0.103 C 
ATOM     29  C27 UNL     1      19.613  28.252  15.438  0.00  0.00    +0.120 C 
BRANCH  24  37
ATOM     30  C1  UNL     1      21.616  28.916  18.709  0.00  0.00    +0.045 C 
ATOM     31  C2  UNL     1      21.287  27.474  18.421  0.00  0.00    -0.029 A 
ATOM     32  C3  UNL     1      22.011  26.463  19.074  0.00  0.00    +0.006 A 
ATOM     33  C4  UNL     1      21.728  25.121  18.831  0.00  0.00    +0.020 A 
ATOM     34  C5  UNL     1      20.716  24.784  17.940  0.00  0.00    +0.043 A 
ATOM     35 CL1  UNL     1      20.356  23.126  17.648  0.00  0.00    -0.083 Cl
ATOM     36  C6  UNL     1      19.981  25.776  17.290  0.00  0.00    +0.043 A 
ATOM     37  C7  UNL     1      20.254  27.134  17.517  0.00  0.00    +0.034 A 
ENDBRANCH  24  37
ENDBRANCH  23  27
ENDBRANCH  22  23
ENDBRANCH  21  22
ENDBRANCH   1  21
TORSDOF 6
ENDMDL
MODEL 5
REMARK VINA RESULT:    -3.668      3.852      6.624
REMARK INTER + INTRA:          -7.909
REMARK INTER:                  -4.959
REMARK INTRA:                  -2.950
REMARK UNBOUND:                -2.955
REMARK  Name = /home/vital/Documents/PhD_2021/Malaria_codes/data/pdb_ligands_mmv/ligand_134.pdb
REMARK  7 active torsions:
REMARK  status: ('A' for Active; 'I' for Inactive)
REMARK    1  A    between atoms: C1_1  and  C2_2
REMARK    2  A    between atoms: C7_8  and  N1_9
REMARK    3  A    between atoms: N2_12  and  C10_13
REMARK    4  A    between atoms: C10_13  and  C11_14
REMARK    5  A    between atoms: C11_14  and  C12_15
REMARK    6  A    between atoms: C12_15  and  N3_16
REMARK    7  A    between atoms: C13_17  and  C14_19
REMARK                            x       y       z     vdW  Elec       q    Type
REMARK                         _______ _______ _______ _____ _____    ______ ____
ROOT
ATOM      1  N3  UNL     1      22.894  26.780  17.906  0.00  0.00    -0.315 N 
ATOM      2  C13 UNL     1      22.605  26.358  16.634  0.00  0.00    +0.216 C 
ATOM      3  O1  UNL     1      22.283  25.197  16.383  0.00  0.00    -0.276 OA
ATOM      4  H17 UNL     1      23.265  27.702  18.070  0.00  0.00    +0.149 HD
ENDROOT
BRANCH   2   5
ATOM      5  C14 UNL     1      22.706  27.396  15.516  0.00  0.00    +0.078 C 
ATOM      6  C15 UNL     1      22.342  28.810  15.965  0.00  0.00    +0.032 C 
ATOM      7  C16 UNL     1      20.849  29.107  15.941  0.00  0.00    +0.108 C 
ATOM      8  N4  UNL     1      20.237  28.706  14.663  0.00  0.00    -0.301 N 
ATOM      9  C17 UNL     1      20.488  27.323  14.237  0.00  0.00    +0.108 C 
ATOM     10  C18 UNL     1      21.976  26.998  14.237  0.00  0.00    +0.032 C 
ATOM     11  C19 UNL     1      18.956  29.155  14.513  0.00  0.00    +0.197 A 
ATOM     12  N5  UNL     1      18.170  29.689  15.419  0.00  0.00    -0.214 NA
ATOM     13  C20 UNL     1      16.995  29.980  14.770  0.00  0.00    +0.091 A 
ATOM     14  C21 UNL     1      15.810  30.545  15.264  0.00  0.00    +0.030 A 
ATOM     15  C22 UNL     1      14.741  30.745  14.381  0.00  0.00    +0.002 A 
ATOM     16  C23 UNL     1      14.851  30.393  13.032  0.00  0.00    +0.002 A 
ATOM     17  C24 UNL     1      16.026  29.829  12.521  0.00  0.00    +0.028 A 
ATOM     18  C25 UNL     1      17.073  29.636  13.426  0.00  0.00    +0.067 A 
ATOM     19  N6  UNL     1      18.338  29.129  13.288  0.00  0.00    -0.326 N 
ATOM     20  H31 UNL     1      18.769  28.821  12.432  0.00  0.00    +0.169 HD
ENDBRANCH   2   5
BRANCH   1  21
ATOM     21  C12 UNL     1      22.920  25.864  19.034  0.00  0.00    +0.105 C 
BRANCH  21  22
ATOM     22  C11 UNL     1      21.649  25.978  19.873  0.00  0.00    +0.034 C 
BRANCH  22  23
ATOM     23  C10 UNL     1      20.664  24.831  19.619  0.00  0.00    +0.086 C 
BRANCH  23  27
ATOM     24  N1  UNL     1      17.068  26.036  17.648  0.00  0.00    -0.327 N 
ATOM     25  C8  UNL     1      18.275  26.865  17.441  0.00  0.00    +0.120 C 
ATOM     26  C9  UNL     1      19.334  26.524  18.515  0.00  0.00    +0.103 C 
ATOM     27  N2  UNL     1      19.698  25.084  18.541  0.00  0.00    -0.299 NA
ATOM     28  C26 UNL     1      18.460  24.279  18.705  0.00  0.00    +0.103 C 
ATOM     29  C27 UNL     1      17.394  24.592  17.627  0.00  0.00    +0.120 C 
BRANCH  24  37
ATOM     30  C1  UNL     1      14.789  27.286  18.866  0.00  0.00    +0.045 C 
ATOM     31  C2  UNL     1      14.883  27.071  17.378  0.00  0.00    -0.029 A 
ATOM     32  C3  UNL     1      13.839  27.523  16.554  0.00  0.00    +0.006 A 
ATOM     33  C4  UNL     1      13.898  27.341  15.174  0.00  0.00    +0.020 A 
ATOM     34  C5  UNL     1      15.004  26.713  14.611  0.00  0.00    +0.043 A 
ATOM     35 CL1  UNL     1      15.084  26.500  12.905  0.00  0.00    -0.083 Cl
ATOM     36  C6  UNL     1      16.054  26.267  15.415  0.00  0.00    +0.043 A 
ATOM     37  C7  UNL     1      16.011  26.436  16.807  0.00  0.00    +0.034 A 
ENDBRANCH  24  37
ENDBRANCH  23  27
ENDBRANCH  22  23
ENDBRANCH  21  22
ENDBRANCH   1  21
TORSDOF 6
ENDMDL
MODEL 6
REMARK VINA RESULT:    -3.171      4.053      6.819
REMARK INTER + INTRA:          -7.238
REMARK INTER:                  -4.599
REMARK INTRA:                  -2.639
REMARK UNBOUND:                -2.955
REMARK  Name = /home/vital/Documents/PhD_2021/Malaria_codes/data/pdb_ligands_mmv/ligand_134.pdb
REMARK  7 active torsions:
REMARK  status: ('A' for Active; 'I' for Inactive)
REMARK    1  A    between atoms: C1_1  and  C2_2
REMARK    2  A    between atoms: C7_8  and  N1_9
REMARK    3  A    between atoms: N2_12  and  C10_13
REMARK    4  A    between atoms: C10_13  and  C11_14
REMARK    5  A    between atoms: C11_14  and  C12_15
REMARK    6  A    between atoms: C12_15  and  N3_16
REMARK    7  A    between atoms: C13_17  and  C14_19
REMARK                            x       y       z     vdW  Elec       q    Type
REMARK                         _______ _______ _______ _____ _____    ______ ____
ROOT
ATOM      1  N3  UNL     1      14.349  26.757  14.526  0.00  0.00    -0.315 N 
ATOM      2  C13 UNL     1      14.274  27.998  15.106  0.00  0.00    +0.216 C 
ATOM      3  O1  UNL     1      13.707  28.188  16.181  0.00  0.00    -0.276 OA
ATOM      4  H17 UNL     1      14.716  26.647  13.594  0.00  0.00    +0.149 HD
ENDROOT
BRANCH   2   5
ATOM      5  C14 UNL     1      14.926  29.158  14.354  0.00  0.00    +0.078 C 
ATOM      6  C15 UNL     1      15.702  28.720  13.114  0.00  0.00    +0.032 C 
ATOM      7  C16 UNL     1      17.127  28.265  13.399  0.00  0.00    +0.108 C 
ATOM      8  N4  UNL     1      17.845  29.230  14.248  0.00  0.00    -0.301 N 
ATOM      9  C17 UNL     1      17.172  29.612  15.497  0.00  0.00    +0.108 C 
ATOM     10  C18 UNL     1      15.747  30.086  15.244  0.00  0.00    +0.032 C 
ATOM     11  C19 UNL     1      19.183  28.975  14.344  0.00  0.00    +0.197 A 
ATOM     12  N5  UNL     1      19.835  27.900  13.964  0.00  0.00    -0.214 NA
ATOM     13  C20 UNL     1      21.155  28.139  14.265  0.00  0.00    +0.091 A 
ATOM     14  C21 UNL     1      22.279  27.319  14.088  0.00  0.00    +0.030 A 
ATOM     15  C22 UNL     1      23.534  27.806  14.480  0.00  0.00    +0.002 A 
ATOM     16  C23 UNL     1      23.665  29.083  15.032  0.00  0.00    +0.002 A 
ATOM     17  C24 UNL     1      22.554  29.915  15.215  0.00  0.00    +0.028 A 
ATOM     18  C25 UNL     1      21.316  29.402  14.821  0.00  0.00    +0.067 A 
ATOM     19  N6  UNL     1      20.047  29.917  14.844  0.00  0.00    -0.326 N 
ATOM     20  H31 UNL     1      19.782  30.842  15.138  0.00  0.00    +0.169 HD
ENDBRANCH   2   5
BRANCH   1  21
ATOM     21  C12 UNL     1      13.690  25.597  15.102  0.00  0.00    +0.105 C 
BRANCH  21  22
ATOM     22  C11 UNL     1      14.700  24.636  15.725  0.00  0.00    +0.034 C 
BRANCH  22  23
ATOM     23  C10 UNL     1      14.964  24.929  17.207  0.00  0.00    +0.086 C 
BRANCH  23  27
ATOM     24  N1  UNL     1      19.184  25.441  17.650  0.00  0.00    -0.327 N 
ATOM     25  C8  UNL     1      18.529  26.106  16.502  0.00  0.00    +0.120 C 
ATOM     26  C9  UNL     1      17.125  25.497  16.278  0.00  0.00    +0.103 C 
ATOM     27  N2  UNL     1      16.256  25.573  17.480  0.00  0.00    -0.299 NA
ATOM     28  C26 UNL     1      16.962  24.938  18.623  0.00  0.00    +0.103 C 
ATOM     29  C27 UNL     1      18.362  25.547  18.877  0.00  0.00    +0.120 C 
BRANCH  24  37
ATOM     30  C1  UNL     1      21.209  23.465  17.173  0.00  0.00    +0.045 C 
ATOM     31  C2  UNL     1      21.550  24.887  17.534  0.00  0.00    -0.029 A 
ATOM     32  C3  UNL     1      22.899  25.270  17.609  0.00  0.00    +0.006 A 
ATOM     33  C4  UNL     1      23.246  26.578  17.938  0.00  0.00    +0.020 A 
ATOM     34  C5  UNL     1      22.245  27.512  18.185  0.00  0.00    +0.043 A 
ATOM     35 CL1  UNL     1      22.672  29.133  18.578  0.00  0.00    -0.083 Cl
ATOM     36  C6  UNL     1      20.900  27.150  18.104  0.00  0.00    +0.043 A 
ATOM     37  C7  UNL     1      20.530  25.836  17.780  0.00  0.00    +0.034 A 
ENDBRANCH  24  37
ENDBRANCH  23  27
ENDBRANCH  22  23
ENDBRANCH  21  22
ENDBRANCH   1  21
TORSDOF 6
ENDMDL
MODEL 7
REMARK VINA RESULT:    -3.054      4.319      7.384
REMARK INTER + INTRA:          -7.080
REMARK INTER:                  -3.950
REMARK INTRA:                  -3.129
REMARK UNBOUND:                -2.955
REMARK  Name = /home/vital/Documents/PhD_2021/Malaria_codes/data/pdb_ligands_mmv/ligand_134.pdb
REMARK  7 active torsions:
REMARK  status: ('A' for Active; 'I' for Inactive)
REMARK    1  A    between atoms: C1_1  and  C2_2
REMARK    2  A    between atoms: C7_8  and  N1_9
REMARK    3  A    between atoms: N2_12  and  C10_13
REMARK    4  A    between atoms: C10_13  and  C11_14
REMARK    5  A    between atoms: C11_14  and  C12_15
REMARK    6  A    between atoms: C12_15  and  N3_16
REMARK    7  A    between atoms: C13_17  and  C14_19
REMARK                            x       y       z     vdW  Elec       q    Type
REMARK                         _______ _______ _______ _____ _____    ______ ____
ROOT
ATOM      1  N3  UNL     1      23.033  24.640  16.577  0.00  0.00    -0.315 N 
ATOM      2  C13 UNL     1      22.788  25.269  17.771  0.00  0.00    +0.216 C 
ATOM      3  O1  UNL     1      23.402  26.275  18.124  0.00  0.00    -0.276 OA
ATOM      4  H17 UNL     1      22.600  23.756  16.363  0.00  0.00    +0.149 HD
ENDROOT
BRANCH   2   5
ATOM      5  C14 UNL     1      21.708  24.662  18.668  0.00  0.00    +0.078 C 
ATOM      6  C15 UNL     1      20.786  23.689  17.937  0.00  0.00    +0.032 C 
ATOM      7  C16 UNL     1      19.630  24.357  17.205  0.00  0.00    +0.108 C 
ATOM      8  N4  UNL     1      18.925  25.320  18.068  0.00  0.00    -0.301 N 
ATOM      9  C17 UNL     1      19.767  26.331  18.722  0.00  0.00    +0.108 C 
ATOM     10  C18 UNL     1      20.926  25.693  19.476  0.00  0.00    +0.032 C 
ATOM     11  C19 UNL     1      17.755  25.773  17.530  0.00  0.00    +0.197 A 
ATOM     12  N5  UNL     1      17.314  25.627  16.302  0.00  0.00    -0.214 NA
ATOM     13  C20 UNL     1      16.091  26.251  16.267  0.00  0.00    +0.091 A 
ATOM     14  C21 UNL     1      15.193  26.411  15.201  0.00  0.00    +0.030 A 
ATOM     15  C22 UNL     1      13.992  27.095  15.431  0.00  0.00    +0.002 A 
ATOM     16  C23 UNL     1      13.690  27.605  16.697  0.00  0.00    +0.002 A 
ATOM     17  C24 UNL     1      14.573  27.453  17.773  0.00  0.00    +0.028 A 
ATOM     18  C25 UNL     1      15.764  26.772  17.513  0.00  0.00    +0.067 A 
ATOM     19  N6  UNL     1      16.835  26.439  18.300  0.00  0.00    -0.326 N 
ATOM     20  H31 UNL     1      16.928  26.613  19.287  0.00  0.00    +0.169 HD
ENDBRANCH   2   5
BRANCH   1  21
ATOM     21  C12 UNL     1      24.095  25.071  15.684  0.00  0.00    +0.105 C 
BRANCH  21  22
ATOM     22  C11 UNL     1      23.540  25.850  14.494  0.00  0.00    +0.034 C 
BRANCH  22  23
ATOM     23  C10 UNL     1      23.429  27.355  14.768  0.00  0.00    +0.086 C 
BRANCH  23  27
ATOM     24  N1  UNL     1      19.470  28.738  15.593  0.00  0.00    -0.327 N 
ATOM     25  C8  UNL     1      20.496  29.751  15.260  0.00  0.00    +0.120 C 
ATOM     26  C9  UNL     1      21.906  29.129  15.390  0.00  0.00    +0.103 C 
ATOM     27  N2  UNL     1      22.089  27.917  14.551  0.00  0.00    -0.299 NA
ATOM     28  C26 UNL     1      21.018  26.940  14.877  0.00  0.00    +0.103 C 
ATOM     29  C27 UNL     1      19.597  27.538  14.735  0.00  0.00    +0.120 C 
BRANCH  24  37
ATOM     30  C1  UNL     1      18.570  29.699  18.143  0.00  0.00    +0.045 C 
ATOM     31  C2  UNL     1      17.720  29.803  16.904  0.00  0.00    -0.029 A 
ATOM     32  C3  UNL     1      16.459  30.417  16.988  0.00  0.00    +0.006 A 
ATOM     33  C4  UNL     1      15.651  30.531  15.859  0.00  0.00    +0.020 A 
ATOM     34  C5  UNL     1      16.102  30.038  14.640  0.00  0.00    +0.043 A 
ATOM     35 CL1  UNL     1      15.110  30.190  13.241  0.00  0.00    -0.083 Cl
ATOM     36  C6  UNL     1      17.356  29.434  14.537  0.00  0.00    +0.043 A 
ATOM     37  C7  UNL     1      18.183  29.305  15.663  0.00  0.00    +0.034 A 
ENDBRANCH  24  37
ENDBRANCH  23  27
ENDBRANCH  22  23
ENDBRANCH  21  22
ENDBRANCH   1  21
TORSDOF 6
ENDMDL
MODEL 8
REMARK VINA RESULT:    -3.032      4.167      7.711
REMARK INTER + INTRA:          -7.050
REMARK INTER:                  -4.858
REMARK INTRA:                  -2.192
REMARK UNBOUND:                -2.955
REMARK  Name = /home/vital/Documents/PhD_2021/Malaria_codes/data/pdb_ligands_mmv/ligand_134.pdb
REMARK  7 active torsions:
REMARK  status: ('A' for Active; 'I' for Inactive)
REMARK    1  A    between atoms: C1_1  and  C2_2
REMARK    2  A    between atoms: C7_8  and  N1_9
REMARK    3  A    between atoms: N2_12  and  C10_13
REMARK    4  A    between atoms: C10_13  and  C11_14
REMARK    5  A    between atoms: C11_14  and  C12_15
REMARK    6  A    between atoms: C12_15  and  N3_16
REMARK    7  A    between atoms: C13_17  and  C14_19
REMARK                            x       y       z     vdW  Elec       q    Type
REMARK                         _______ _______ _______ _____ _____    ______ ____
ROOT
ATOM      1  N3  UNL     1      21.043  24.581  19.694  0.00  0.00    -0.315 N 
ATOM      2  C13 UNL     1      20.703  23.568  20.553  0.00  0.00    +0.216 C 
ATOM      3  O1  UNL     1      21.506  22.705  20.904  0.00  0.00    -0.276 OA
ATOM      4  H17 UNL     1      20.341  25.206  19.332  0.00  0.00    +0.149 HD
ENDROOT
BRANCH   2   5
ATOM      5  C14 UNL     1      19.262  23.544  21.065  0.00  0.00    +0.078 C 
ATOM      6  C15 UNL     1      18.346  22.623  20.262  0.00  0.00    +0.032 C 
ATOM      7  C16 UNL     1      17.762  23.262  19.010  0.00  0.00    +0.108 C 
ATOM      8  N4  UNL     1      17.183  24.585  19.296  0.00  0.00    -0.301 N 
ATOM      9  C17 UNL     1      18.063  25.535  19.990  0.00  0.00    +0.108 C 
ATOM     10  C18 UNL     1      18.653  24.930  21.256  0.00  0.00    +0.032 C 
ATOM     11  C19 UNL     1      16.455  25.093  18.258  0.00  0.00    +0.197 A 
ATOM     12  N5  UNL     1      16.395  24.661  17.019  0.00  0.00    -0.214 NA
ATOM     13  C20 UNL     1      15.520  25.501  16.373  0.00  0.00    +0.091 A 
ATOM     14  C21 UNL     1      15.102  25.506  15.034  0.00  0.00    +0.030 A 
ATOM     15  C22 UNL     1      14.185  26.482  14.620  0.00  0.00    +0.002 A 
ATOM     16  C23 UNL     1      13.690  27.428  15.523  0.00  0.00    +0.002 A 
ATOM     17  C24 UNL     1      14.094  27.436  16.864  0.00  0.00    +0.028 A 
ATOM     18  C25 UNL     1      15.013  26.456  17.246  0.00  0.00    +0.067 A 
ATOM     19  N6  UNL     1      15.614  26.162  18.441  0.00  0.00    -0.326 N 
ATOM     20  H31 UNL     1      15.448  26.619  19.322  0.00  0.00    +0.169 HD
ENDBRANCH   2   5
BRANCH   1  21
ATOM     21  C12 UNL     1      22.355  24.655  19.072  0.00  0.00    +0.105 C 
BRANCH  21  22
ATOM     22  C11 UNL     1      22.253  25.074  17.607  0.00  0.00    +0.034 C 
BRANCH  22  23
ATOM     23  C10 UNL     1      22.197  26.596  17.426  0.00  0.00    +0.086 C 
BRANCH  23  27
ATOM     24  N1  UNL     1      18.591  28.617  16.337  0.00  0.00    -0.327 N 
ATOM     25  C8  UNL     1      19.863  29.139  15.790  0.00  0.00    +0.120 C 
ATOM     26  C9  UNL     1      21.053  28.557  16.589  0.00  0.00    +0.103 C 
ATOM     27  N2  UNL     1      21.073  27.072  16.608  0.00  0.00    -0.299 NA
ATOM     28  C26 UNL     1      19.767  26.580  17.119  0.00  0.00    +0.103 C 
ATOM     29  C27 UNL     1      18.563  27.137  16.320  0.00  0.00    +0.120 C 
BRANCH  24  37
ATOM     30  C1  UNL     1      17.064  30.393  17.995  0.00  0.00    +0.045 C 
ATOM     31  C2  UNL     1      16.715  30.150  16.549  0.00  0.00    -0.029 A 
ATOM     32  C3  UNL     1      15.628  30.836  15.983  0.00  0.00    +0.006 A 
ATOM     33  C4  UNL     1      15.283  30.635  14.649  0.00  0.00    +0.020 A 
ATOM     34  C5  UNL     1      16.026  29.752  13.873  0.00  0.00    +0.043 A 
ATOM     35 CL1  UNL     1      15.609  29.512  12.220  0.00  0.00    -0.083 Cl
ATOM     36  C6  UNL     1      17.115  29.071  14.418  0.00  0.00    +0.043 A 
ATOM     37  C7  UNL     1      17.476  29.255  15.761  0.00  0.00    +0.034 A 
ENDBRANCH  24  37
ENDBRANCH  23  27
ENDBRANCH  22  23
ENDBRANCH  21  22
ENDBRANCH   1  21
TORSDOF 6
ENDMDL
MODEL 9
REMARK VINA RESULT:    -2.998      4.466      7.898
REMARK INTER + INTRA:          -7.004
REMARK INTER:                  -3.980
REMARK INTRA:                  -3.024
REMARK UNBOUND:                -2.955
REMARK  Name = /home/vital/Documents/PhD_2021/Malaria_codes/data/pdb_ligands_mmv/ligand_134.pdb
REMARK  7 active torsions:
REMARK  status: ('A' for Active; 'I' for Inactive)
REMARK    1  A    between atoms: C1_1  and  C2_2
REMARK    2  A    between atoms: C7_8  and  N1_9
REMARK    3  A    between atoms: N2_12  and  C10_13
REMARK    4  A    between atoms: C10_13  and  C11_14
REMARK    5  A    between atoms: C11_14  and  C12_15
REMARK    6  A    between atoms: C12_15  and  N3_16
REMARK    7  A    between atoms: C13_17  and  C14_19
REMARK                            x       y       z     vdW  Elec       q    Type
REMARK                         _______ _______ _______ _____ _____    ______ ____
ROOT
ATOM      1  N3  UNL     1      20.199  25.443  23.709  0.00  0.00    -0.315 N 
ATOM      2  C13 UNL     1      19.139  24.677  23.297  0.00  0.00    +0.216 C 
ATOM      3  O1  UNL     1      18.021  24.776  23.801  0.00  0.00    -0.276 OA
ATOM      4  H17 UNL     1      21.128  25.264  23.362  0.00  0.00    +0.149 HD
ENDROOT
BRANCH   2   5
ATOM      5  C14 UNL     1      19.400  23.674  22.173  0.00  0.00    +0.078 C 
ATOM      6  C15 UNL     1      20.497  24.116  21.206  0.00  0.00    +0.032 C 
ATOM      7  C16 UNL     1      20.014  25.045  20.100  0.00  0.00    +0.108 C 
ATOM      8  N4  UNL     1      18.806  24.522  19.440  0.00  0.00    -0.301 N 
ATOM      9  C17 UNL     1      17.692  24.168  20.330  0.00  0.00    +0.108 C 
ATOM     10  C18 UNL     1      18.139  23.227  21.440  0.00  0.00    +0.032 C 
ATOM     11  C19 UNL     1      18.472  25.204  18.305  0.00  0.00    +0.197 A 
ATOM     12  N5  UNL     1      18.950  26.348  17.873  0.00  0.00    -0.214 NA
ATOM     13  C20 UNL     1      18.302  26.600  16.688  0.00  0.00    +0.091 A 
ATOM     14  C21 UNL     1      18.417  27.692  15.815  0.00  0.00    +0.030 A 
ATOM     15  C22 UNL     1      17.635  27.708  14.652  0.00  0.00    +0.002 A 
ATOM     16  C23 UNL     1      16.761  26.656  14.363  0.00  0.00    +0.002 A 
ATOM     17  C24 UNL     1      16.635  25.557  15.222  0.00  0.00    +0.028 A 
ATOM     18  C25 UNL     1      17.422  25.572  16.376  0.00  0.00    +0.067 A 
ATOM     19  N6  UNL     1      17.563  24.690  17.415  0.00  0.00    -0.326 N 
ATOM     20  H31 UNL     1      17.113  23.794  17.505  0.00  0.00    +0.169 HD
ENDBRANCH   2   5
BRANCH   1  21
ATOM     21  C12 UNL     1      20.095  26.365  24.828  0.00  0.00    +0.105 C 
BRANCH  21  22
ATOM     22  C11 UNL     1      20.097  27.817  24.355  0.00  0.00    +0.034 C 
BRANCH  22  23
ATOM     23  C10 UNL     1      18.694  28.436  24.330  0.00  0.00    +0.086 C 
BRANCH  23  27
ATOM     24  N1  UNL     1      16.645  28.782  20.595  0.00  0.00    -0.327 N 
ATOM     25  C8  UNL     1      17.875  27.960  20.630  0.00  0.00    +0.120 C 
ATOM     26  C9  UNL     1      18.675  28.272  21.916  0.00  0.00    +0.103 C 
ATOM     27  N2  UNL     1      17.887  28.070  23.158  0.00  0.00    -0.299 NA
ATOM     28  C26 UNL     1      16.639  28.872  23.071  0.00  0.00    +0.103 C 
ATOM     29  C27 UNL     1      15.813  28.561  21.799  0.00  0.00    +0.120 C 
BRANCH  24  37
ATOM     30  C1  UNL     1      16.897  30.946  18.728  0.00  0.00    +0.045 C 
ATOM     31  C2  UNL     1      16.098  29.709  18.414  0.00  0.00    -0.029 A 
ATOM     32  C3  UNL     1      15.481  29.593  17.157  0.00  0.00    +0.006 A 
ATOM     33  C4  UNL     1      14.737  28.460  16.836  0.00  0.00    +0.020 A 
ATOM     34  C5  UNL     1      14.613  27.434  17.767  0.00  0.00    +0.043 A 
ATOM     35 CL1  UNL     1      13.705  26.027  17.367  0.00  0.00    -0.083 Cl
ATOM     36  C6  UNL     1      15.228  27.529  19.016  0.00  0.00    +0.043 A 
ATOM     37  C7  UNL     1      15.977  28.665  19.361  0.00  0.00    +0.034 A 
ENDBRANCH  24  37
ENDBRANCH  23  27
ENDBRANCH  22  23
ENDBRANCH  21  22
ENDBRANCH   1  21
TORSDOF 6
ENDMDL
