MODEL 1
REMARK VINA RESULT:    -4.292      0.000      0.000
REMARK INTER + INTRA:          -6.145
REMARK INTER:                  -5.295
REMARK INTRA:                  -0.850
REMARK UNBOUND:                -0.850
REMARK  Name = /home/vital/Documents/PhD_2021/Malaria_codes/data/pdb_ligands_mmv/ligand_54.pdb
REMARK  7 active torsions:
REMARK  status: ('A' for Active; 'I' for Inactive)
REMARK    1  A    between atoms: C1_1  and  C2_2
REMARK    2  A    between atoms: C2_2  and  C3_3
REMARK    3  A    between atoms: C2_2  and  C4_4
REMARK    4  A    between atoms: C4_4  and  N1_5
REMARK    5  A    between atoms: C5_6  and  C19_25
REMARK    6  A    between atoms: C6_7  and  C7_8
REMARK    7  A    between atoms: C10_13  and  C11_14
REMARK                            x       y       z     vdW  Elec       q    Type
REMARK                         _______ _______ _______ _____ _____    ______ ____
ROOT
ATOM      1  N1  UNL     1      17.081  29.505  15.294  0.00  0.00    -0.289 N 
ATOM      2  C5  UNL     1      16.116  28.786  16.164  0.00  0.00    +0.129 C 
ATOM      3  C6  UNL     1      16.825  28.412  17.484  0.00  0.00    +0.131 C 
ATOM      4  C12 UNL     1      18.069  27.591  17.193  0.00  0.00    -0.021 A 
ATOM      5  C13 UNL     1      18.474  26.474  17.938  0.00  0.00    +0.005 A 
ATOM      6  C14 UNL     1      19.669  25.817  17.631  0.00  0.00    +0.000 A 
ATOM      7  C15 UNL     1      20.471  26.263  16.583  0.00  0.00    +0.001 A 
ATOM      8  C16 UNL     1      20.072  27.359  15.820  0.00  0.00    +0.013 A 
ATOM      9  C17 UNL     1      18.870  28.012  16.112  0.00  0.00    +0.041 A 
ATOM     10  C18 UNL     1      18.426  29.137  15.235  0.00  0.00    +0.247 C 
ATOM     11  O3  UNL     1      19.252  29.691  14.514  0.00  0.00    -0.270 OA
ENDROOT
BRANCH   3  12
ATOM     12  C7  UNL     1      15.895  27.886  18.575  0.00  0.00    +0.228 C 
ATOM     13  O1  UNL     1      15.272  26.839  18.465  0.00  0.00    -0.275 OA
ATOM     14  N2  UNL     1      15.845  28.744  19.668  0.00  0.00    -0.267 N 
ATOM     15  C8  UNL     1      15.084  28.533  20.803  0.00  0.00    +0.168 A 
ATOM     16  C9  UNL     1      15.068  29.423  21.906  0.00  0.00    +0.091 A 
ATOM     17  C10 UNL     1      14.199  28.851  22.802  0.00  0.00    +0.136 A 
ATOM     18  C11 UNL     1      13.707  29.214  24.141  0.00  0.00    +0.089 C 
ATOM     19  O2  UNL     1      13.724  27.693  22.277  0.00  0.00    -0.358 OA
ATOM     20  N3  UNL     1      14.275  27.496  21.027  0.00  0.00    -0.063 NA
ATOM     21  H12 UNL     1      16.415  29.578  19.668  0.00  0.00    +0.156 HD
ENDBRANCH   3  12
BRANCH   2  22
ATOM     22  C19 UNL     1      15.486  27.639  15.388  0.00  0.00    +0.011 A 
ATOM     23  C20 UNL     1      16.062  26.620  14.647  0.00  0.00    +0.013 A 
ATOM     24  C21 UNL     1      15.100  25.745  14.063  0.00  0.00    +0.008 A 
ATOM     25  C22 UNL     1      13.813  26.119  14.364  0.00  0.00    +0.045 A 
ATOM     26  S1  UNL     1      13.764  27.521  15.333  0.00  0.00    -0.100 S 
ENDBRANCH   2  22
BRANCH   1  27
ATOM     27  C4  UNL     1      16.605  30.615  14.464  0.00  0.00    +0.111 C 
BRANCH  27  29
ATOM     28  C1  UNL     1      16.097  29.490  12.227  0.00  0.00    +0.009 C 
ATOM     29  C2  UNL     1      15.526  30.240  13.430  0.00  0.00    +0.000 C 
ATOM     30  C3  UNL     1      14.811  31.508  12.955  0.00  0.00    +0.009 C 
ENDBRANCH  27  29
ENDBRANCH   1  27
TORSDOF 4
ENDMDL
MODEL 2
REMARK VINA RESULT:    -4.175      2.893      5.578
REMARK INTER + INTRA:          -6.002
REMARK INTER:                  -5.027
REMARK INTRA:                  -0.975
REMARK UNBOUND:                -0.850
REMARK  Name = /home/vital/Documents/PhD_2021/Malaria_codes/data/pdb_ligands_mmv/ligand_54.pdb
REMARK  7 active torsions:
REMARK  status: ('A' for Active; 'I' for Inactive)
REMARK    1  A    between atoms: C1_1  and  C2_2
REMARK    2  A    between atoms: C2_2  and  C3_3
REMARK    3  A    between atoms: C2_2  and  C4_4
REMARK    4  A    between atoms: C4_4  and  N1_5
REMARK    5  A    between atoms: C5_6  and  C19_25
REMARK    6  A    between atoms: C6_7  and  C7_8
REMARK    7  A    between atoms: C10_13  and  C11_14
REMARK                            x       y       z     vdW  Elec       q    Type
REMARK                         _______ _______ _______ _____ _____    ______ ____
ROOT
ATOM      1  N1  UNL     1      15.455  27.018  15.014  0.00  0.00    -0.289 N 
ATOM      2  C5  UNL     1      16.287  27.595  16.100  0.00  0.00    +0.129 C 
ATOM      3  C6  UNL     1      17.569  26.746  16.243  0.00  0.00    +0.131 C 
ATOM      4  C12 UNL     1      17.207  25.294  16.500  0.00  0.00    -0.021 A 
ATOM      5  C13 UNL     1      17.868  24.460  17.413  0.00  0.00    +0.005 A 
ATOM      6  C14 UNL     1      17.501  23.117  17.536  0.00  0.00    +0.000 A 
ATOM      7  C15 UNL     1      16.474  22.591  16.755  0.00  0.00    +0.001 A 
ATOM      8  C16 UNL     1      15.793  23.412  15.858  0.00  0.00    +0.013 A 
ATOM      9  C17 UNL     1      16.145  24.761  15.740  0.00  0.00    +0.041 A 
ATOM     10  C18 UNL     1      15.353  25.638  14.827  0.00  0.00    +0.247 C 
ATOM     11  O3  UNL     1      14.660  25.120  13.956  0.00  0.00    -0.270 OA
ENDROOT
BRANCH   3  12
ATOM     12  C7  UNL     1      18.635  27.358  17.151  0.00  0.00    +0.228 C 
ATOM     13  O1  UNL     1      18.428  27.626  18.326  0.00  0.00    -0.275 OA
ATOM     14  N2  UNL     1      19.828  27.575  16.471  0.00  0.00    -0.267 N 
ATOM     15  C8  UNL     1      20.968  28.122  17.031  0.00  0.00    +0.168 A 
ATOM     16  C9  UNL     1      22.172  28.316  16.311  0.00  0.00    +0.091 A 
ATOM     17  C10 UNL     1      23.036  28.874  17.222  0.00  0.00    +0.136 A 
ATOM     18  C11 UNL     1      24.435  29.330  17.175  0.00  0.00    +0.089 C 
ATOM     19  O2  UNL     1      22.397  29.006  18.412  0.00  0.00    -0.358 OA
ATOM     20  N3  UNL     1      21.104  28.538  18.292  0.00  0.00    -0.063 NA
ATOM     21  H12 UNL     1      19.901  27.300  15.502  0.00  0.00    +0.156 HD
ENDBRANCH   3  12
BRANCH   2  22
ATOM     22  C19 UNL     1      15.444  27.764  17.355  0.00  0.00    +0.011 A 
ATOM     23  C20 UNL     1      14.700  26.846  18.078  0.00  0.00    +0.013 A 
ATOM     24  C21 UNL     1      14.041  27.425  19.201  0.00  0.00    +0.008 A 
ATOM     25  C22 UNL     1      14.289  28.772  19.306  0.00  0.00    +0.045 A 
ATOM     26  S1  UNL     1      15.300  29.337  18.054  0.00  0.00    -0.100 S 
ENDBRANCH   2  22
BRANCH   1  27
ATOM     27  C4  UNL     1      14.708  27.917  14.131  0.00  0.00    +0.111 C 
BRANCH  27  29
ATOM     28  C1  UNL     1      14.392  30.439  14.385  0.00  0.00    +0.009 C 
ATOM     29  C2  UNL     1      15.329  29.315  13.945  0.00  0.00    +0.000 C 
ATOM     30  C3  UNL     1      15.717  29.512  12.477  0.00  0.00    +0.009 C 
ENDBRANCH  27  29
ENDBRANCH   1  27
TORSDOF 4
ENDMDL
MODEL 3
REMARK VINA RESULT:    -4.140      2.067      3.519
REMARK INTER + INTRA:          -5.958
REMARK INTER:                  -4.986
REMARK INTRA:                  -0.972
REMARK UNBOUND:                -0.850
REMARK  Name = /home/vital/Documents/PhD_2021/Malaria_codes/data/pdb_ligands_mmv/ligand_54.pdb
REMARK  7 active torsions:
REMARK  status: ('A' for Active; 'I' for Inactive)
REMARK    1  A    between atoms: C1_1  and  C2_2
REMARK    2  A    between atoms: C2_2  and  C3_3
REMARK    3  A    between atoms: C2_2  and  C4_4
REMARK    4  A    between atoms: C4_4  and  N1_5
REMARK    5  A    between atoms: C5_6  and  C19_25
REMARK    6  A    between atoms: C6_7  and  C7_8
REMARK    7  A    between atoms: C10_13  and  C11_14
REMARK                            x       y       z     vdW  Elec       q    Type
REMARK                         _______ _______ _______ _____ _____    ______ ____
ROOT
ATOM      1  N1  UNL     1      17.895  28.474  15.132  0.00  0.00    -0.289 N 
ATOM      2  C5  UNL     1      17.022  29.229  16.066  0.00  0.00    +0.129 C 
ATOM      3  C6  UNL     1      16.332  28.227  17.017  0.00  0.00    +0.131 C 
ATOM      4  C12 UNL     1      15.564  27.191  16.214  0.00  0.00    -0.021 A 
ATOM      5  C13 UNL     1      14.294  26.706  16.555  0.00  0.00    +0.005 A 
ATOM      6  C14 UNL     1      13.690  25.706  15.786  0.00  0.00    +0.000 A 
ATOM      7  C15 UNL     1      14.343  25.181  14.673  0.00  0.00    +0.001 A 
ATOM      8  C16 UNL     1      15.597  25.668  14.309  0.00  0.00    +0.013 A 
ATOM      9  C17 UNL     1      16.201  26.679  15.065  0.00  0.00    +0.041 A 
ATOM     10  C18 UNL     1      17.511  27.237  14.613  0.00  0.00    +0.247 C 
ATOM     11  O3  UNL     1      18.192  26.590  13.822  0.00  0.00    -0.270 OA
ENDROOT
BRANCH   3  12
ATOM     12  C7  UNL     1      15.595  28.871  18.189  0.00  0.00    +0.228 C 
ATOM     13  O1  UNL     1      14.804  29.792  18.048  0.00  0.00    -0.275 OA
ATOM     14  N2  UNL     1      15.951  28.291  19.403  0.00  0.00    -0.267 N 
ATOM     15  C8  UNL     1      15.452  28.671  20.635  0.00  0.00    +0.168 A 
ATOM     16  C9  UNL     1      15.827  28.049  21.851  0.00  0.00    +0.091 A 
ATOM     17  C10 UNL     1      15.114  28.715  22.818  0.00  0.00    +0.136 A 
ATOM     18  C11 UNL     1      15.006  28.608  24.282  0.00  0.00    +0.089 C 
ATOM     19  O2  UNL     1      14.358  29.674  22.225  0.00  0.00    -0.358 OA
ATOM     20  N3  UNL     1      14.571  29.647  20.861  0.00  0.00    -0.063 NA
ATOM     21  H12 UNL     1      16.603  27.520  19.409  0.00  0.00    +0.156 HD
ENDBRANCH   3  12
BRANCH   2  22
ATOM     22  C19 UNL     1      16.105  30.152  15.277  0.00  0.00    +0.011 A 
ATOM     23  C20 UNL     1      15.166  29.876  14.297  0.00  0.00    +0.013 A 
ATOM     24  C21 UNL     1      14.521  31.045  13.799  0.00  0.00    +0.008 A 
ATOM     25  C22 UNL     1      14.988  32.188  14.402  0.00  0.00    +0.045 A 
ATOM     26  S1  UNL     1      16.202  31.854  15.553  0.00  0.00    -0.100 S 
ENDBRANCH   2  22
BRANCH   1  27
ATOM     27  C4  UNL     1      19.179  29.052  14.729  0.00  0.00    +0.111 C 
BRANCH  27  29
ATOM     28  C1  UNL     1      20.169  29.269  12.384  0.00  0.00    +0.009 C 
ATOM     29  C2  UNL     1      19.161  29.819  13.393  0.00  0.00    +0.000 C 
ATOM     30  C3  UNL     1      19.445  31.301  13.650  0.00  0.00    +0.009 C 
ENDBRANCH  27  29
ENDBRANCH   1  27
TORSDOF 4
ENDMDL
MODEL 4
REMARK VINA RESULT:    -3.961      2.877      5.620
REMARK INTER + INTRA:          -5.737
REMARK INTER:                  -4.895
REMARK INTRA:                  -0.843
REMARK UNBOUND:                -0.850
REMARK  Name = /home/vital/Documents/PhD_2021/Malaria_codes/data/pdb_ligands_mmv/ligand_54.pdb
REMARK  7 active torsions:
REMARK  status: ('A' for Active; 'I' for Inactive)
REMARK    1  A    between atoms: C1_1  and  C2_2
REMARK    2  A    between atoms: C2_2  and  C3_3
REMARK    3  A    between atoms: C2_2  and  C4_4
REMARK    4  A    between atoms: C4_4  and  N1_5
REMARK    5  A    between atoms: C5_6  and  C19_25
REMARK    6  A    between atoms: C6_7  and  C7_8
REMARK    7  A    between atoms: C10_13  and  C11_14
REMARK                            x       y       z     vdW  Elec       q    Type
REMARK                         _______ _______ _______ _____ _____    ______ ____
ROOT
ATOM      1  N1  UNL     1      16.794  24.359  17.958  0.00  0.00    -0.289 N 
ATOM      2  C5  UNL     1      16.798  25.784  18.377  0.00  0.00    +0.129 C 
ATOM      3  C6  UNL     1      15.367  26.345  18.230  0.00  0.00    +0.131 C 
ATOM      4  C12 UNL     1      14.879  26.162  16.804  0.00  0.00    -0.021 A 
ATOM      5  C13 UNL     1      14.150  27.119  16.086  0.00  0.00    +0.005 A 
ATOM      6  C14 UNL     1      13.690  26.835  14.796  0.00  0.00    +0.000 A 
ATOM      7  C15 UNL     1      13.951  25.598  14.210  0.00  0.00    +0.001 A 
ATOM      8  C16 UNL     1      14.692  24.644  14.904  0.00  0.00    +0.013 A 
ATOM      9  C17 UNL     1      15.168  24.926  16.189  0.00  0.00    +0.041 A 
ATOM     10  C18 UNL     1      16.023  23.917  16.882  0.00  0.00    +0.247 C 
ATOM     11  O3  UNL     1      16.007  22.753  16.490  0.00  0.00    -0.270 OA
ENDROOT
BRANCH   3  12
ATOM     12  C7  UNL     1      15.162  27.725  18.853  0.00  0.00    +0.228 C 
ATOM     13  O1  UNL     1      15.295  28.763  18.221  0.00  0.00    -0.275 OA
ATOM     14  N2  UNL     1      14.829  27.637  20.201  0.00  0.00    -0.267 N 
ATOM     15  C8  UNL     1      14.591  28.720  21.027  0.00  0.00    +0.168 A 
ATOM     16  C9  UNL     1      14.240  28.594  22.394  0.00  0.00    +0.091 A 
ATOM     17  C10 UNL     1      14.095  29.886  22.837  0.00  0.00    +0.136 A 
ATOM     18  C11 UNL     1      13.746  30.504  24.127  0.00  0.00    +0.089 C 
ATOM     19  O2  UNL     1      14.340  30.735  21.807  0.00  0.00    -0.358 OA
ATOM     20  N3  UNL     1      14.652  30.007  20.676  0.00  0.00    -0.063 NA
ATOM     21  H12 UNL     1      14.726  26.727  20.626  0.00  0.00    +0.156 HD
ENDBRANCH   3  12
BRANCH   2  22
ATOM     22  C19 UNL     1      17.897  26.531  17.636  0.00  0.00    +0.011 A 
ATOM     23  C20 UNL     1      18.273  26.503  16.303  0.00  0.00    +0.013 A 
ATOM     24  C21 UNL     1      19.375  27.359  16.018  0.00  0.00    +0.008 A 
ATOM     25  C22 UNL     1      19.822  28.015  17.140  0.00  0.00    +0.045 A 
ATOM     26  S1  UNL     1      18.926  27.593  18.528  0.00  0.00    -0.100 S 
ENDBRANCH   2  22
BRANCH   1  27
ATOM     27  C4  UNL     1      17.635  23.400  18.679  0.00  0.00    +0.111 C 
BRANCH  27  29
ATOM     28  C1  UNL     1      19.594  24.130  20.147  0.00  0.00    +0.009 C 
ATOM     29  C2  UNL     1      18.092  23.854  20.078  0.00  0.00    +0.000 C 
ATOM     30  C3  UNL     1      17.716  22.788  21.111  0.00  0.00    +0.009 C 
ENDBRANCH  27  29
ENDBRANCH   1  27
TORSDOF 4
ENDMDL
MODEL 5
REMARK VINA RESULT:    -3.922      3.180      5.966
REMARK INTER + INTRA:          -5.690
REMARK INTER:                  -5.070
REMARK INTRA:                  -0.619
REMARK UNBOUND:                -0.850
REMARK  Name = /home/vital/Documents/PhD_2021/Malaria_codes/data/pdb_ligands_mmv/ligand_54.pdb
REMARK  7 active torsions:
REMARK  status: ('A' for Active; 'I' for Inactive)
REMARK    1  A    between atoms: C1_1  and  C2_2
REMARK    2  A    between atoms: C2_2  and  C3_3
REMARK    3  A    between atoms: C2_2  and  C4_4
REMARK    4  A    between atoms: C4_4  and  N1_5
REMARK    5  A    between atoms: C5_6  and  C19_25
REMARK    6  A    between atoms: C6_7  and  C7_8
REMARK    7  A    between atoms: C10_13  and  C11_14
REMARK                            x       y       z     vdW  Elec       q    Type
REMARK                         _______ _______ _______ _____ _____    ______ ____
ROOT
ATOM      1  N1  UNL     1      16.720  24.330  18.021  0.00  0.00    -0.289 N 
ATOM      2  C5  UNL     1      16.669  25.751  18.450  0.00  0.00    +0.129 C 
ATOM      3  C6  UNL     1      15.232  26.277  18.245  0.00  0.00    +0.131 C 
ATOM      4  C12 UNL     1      14.811  26.093  16.798  0.00  0.00    -0.021 A 
ATOM      5  C13 UNL     1      14.089  27.038  16.056  0.00  0.00    +0.005 A 
ATOM      6  C14 UNL     1      13.693  26.753  14.746  0.00  0.00    +0.000 A 
ATOM      7  C15 UNL     1      14.010  25.528  14.163  0.00  0.00    +0.001 A 
ATOM      8  C16 UNL     1      14.744  24.587  14.881  0.00  0.00    +0.013 A 
ATOM      9  C17 UNL     1      15.158  24.871  16.187  0.00  0.00    +0.041 A 
ATOM     10  C18 UNL     1      16.007  23.877  16.909  0.00  0.00    +0.247 C 
ATOM     11  O3  UNL     1      16.038  22.717  16.508  0.00  0.00    -0.270 OA
ENDROOT
BRANCH   3  12
ATOM     12  C7  UNL     1      14.966  27.646  18.869  0.00  0.00    +0.228 C 
ATOM     13  O1  UNL     1      14.373  27.786  19.929  0.00  0.00    -0.275 OA
ATOM     14  N2  UNL     1      15.461  28.678  18.079  0.00  0.00    -0.267 N 
ATOM     15  C8  UNL     1      15.362  30.023  18.384  0.00  0.00    +0.168 A 
ATOM     16  C9  UNL     1      15.891  31.048  17.561  0.00  0.00    +0.091 A 
ATOM     17  C10 UNL     1      15.582  32.215  18.216  0.00  0.00    +0.136 A 
ATOM     18  C11 UNL     1      15.816  33.644  17.950  0.00  0.00    +0.089 C 
ATOM     19  O2  UNL     1      14.912  31.914  19.358  0.00  0.00    -0.358 OA
ATOM     20  N3  UNL     1      14.774  30.545  19.461  0.00  0.00    -0.063 NA
ATOM     21  H12 UNL     1      15.954  28.454  17.226  0.00  0.00    +0.156 HD
ENDBRANCH   3  12
BRANCH   2  22
ATOM     22  C19 UNL     1      17.779  26.532  17.763  0.00  0.00    +0.011 A 
ATOM     23  C20 UNL     1      18.139  26.612  16.427  0.00  0.00    +0.013 A 
ATOM     24  C21 UNL     1      19.262  27.461  16.204  0.00  0.00    +0.008 A 
ATOM     25  C22 UNL     1      19.739  28.003  17.372  0.00  0.00    +0.045 A 
ATOM     26  S1  UNL     1      18.847  27.484  18.730  0.00  0.00    -0.100 S 
ENDBRANCH   2  22
BRANCH   1  27
ATOM     27  C4  UNL     1      17.553  23.386  18.770  0.00  0.00    +0.111 C 
BRANCH  27  29
ATOM     28  C1  UNL     1      19.512  22.648  17.306  0.00  0.00    +0.009 C 
ATOM     29  C2  UNL     1      19.066  23.493  18.500  0.00  0.00    +0.000 C 
ATOM     30  C3  UNL     1      19.841  23.069  19.750  0.00  0.00    +0.009 C 
ENDBRANCH  27  29
ENDBRANCH   1  27
TORSDOF 4
ENDMDL
MODEL 6
REMARK VINA RESULT:    -3.886      2.950      5.790
REMARK INTER + INTRA:          -5.645
REMARK INTER:                  -4.698
REMARK INTRA:                  -0.947
REMARK UNBOUND:                -0.850
REMARK  Name = /home/vital/Documents/PhD_2021/Malaria_codes/data/pdb_ligands_mmv/ligand_54.pdb
REMARK  7 active torsions:
REMARK  status: ('A' for Active; 'I' for Inactive)
REMARK    1  A    between atoms: C1_1  and  C2_2
REMARK    2  A    between atoms: C2_2  and  C3_3
REMARK    3  A    between atoms: C2_2  and  C4_4
REMARK    4  A    between atoms: C4_4  and  N1_5
REMARK    5  A    between atoms: C5_6  and  C19_25
REMARK    6  A    between atoms: C6_7  and  C7_8
REMARK    7  A    between atoms: C10_13  and  C11_14
REMARK                            x       y       z     vdW  Elec       q    Type
REMARK                         _______ _______ _______ _____ _____    ______ ____
ROOT
ATOM      1  N1  UNL     1      16.531  29.164  16.240  0.00  0.00    -0.289 N 
ATOM      2  C5  UNL     1      16.943  28.227  17.316  0.00  0.00    +0.129 C 
ATOM      3  C6  UNL     1      17.313  26.872  16.674  0.00  0.00    +0.131 C 
ATOM      4  C12 UNL     1      16.144  26.344  15.861  0.00  0.00    -0.021 A 
ATOM      5  C13 UNL     1      15.739  25.002  15.833  0.00  0.00    +0.005 A 
ATOM      6  C14 UNL     1      14.687  24.599  15.005  0.00  0.00    +0.000 A 
ATOM      7  C15 UNL     1      14.028  25.526  14.199  0.00  0.00    +0.001 A 
ATOM      8  C16 UNL     1      14.406  26.866  14.232  0.00  0.00    +0.013 A 
ATOM      9  C17 UNL     1      15.448  27.280  15.069  0.00  0.00    +0.041 A 
ATOM     10  C18 UNL     1      15.785  28.733  15.142  0.00  0.00    +0.247 C 
ATOM     11  O3  UNL     1      15.405  29.478  14.243  0.00  0.00    -0.270 OA
ENDROOT
BRANCH   3  12
ATOM     12  C7  UNL     1      17.989  25.886  17.625  0.00  0.00    +0.228 C 
ATOM     13  O1  UNL     1      17.472  25.513  18.668  0.00  0.00    -0.275 OA
ATOM     14  N2  UNL     1      19.240  25.497  17.159  0.00  0.00    -0.267 N 
ATOM     15  C8  UNL     1      20.086  24.618  17.810  0.00  0.00    +0.168 A 
ATOM     16  C9  UNL     1      21.351  24.233  17.300  0.00  0.00    +0.091 A 
ATOM     17  C10 UNL     1      21.855  23.365  18.237  0.00  0.00    +0.136 A 
ATOM     18  C11 UNL     1      23.100  22.590  18.365  0.00  0.00    +0.089 C 
ATOM     19  O2  UNL     1      20.955  23.234  19.245  0.00  0.00    -0.358 OA
ATOM     20  N3  UNL     1      19.851  24.019  18.979  0.00  0.00    -0.063 NA
ATOM     21  H12 UNL     1      19.569  25.850  16.272  0.00  0.00    +0.156 HD
ENDBRANCH   3  12
BRANCH   2  22
ATOM     22  C19 UNL     1      15.877  28.193  18.400  0.00  0.00    +0.011 A 
ATOM     23  C20 UNL     1      14.530  27.874  18.338  0.00  0.00    +0.013 A 
ATOM     24  C21 UNL     1      13.875  27.979  19.599  0.00  0.00    +0.008 A 
ATOM     25  C22 UNL     1      14.733  28.383  20.594  0.00  0.00    +0.045 A 
ATOM     26  S1  UNL     1      16.313  28.644  20.009  0.00  0.00    -0.100 S 
ENDBRANCH   2  22
BRANCH   1  27
ATOM     27  C4  UNL     1      16.898  30.579  16.345  0.00  0.00    +0.111 C 
BRANCH  27  29
ATOM     28  C1  UNL     1      15.680  32.770  15.858  0.00  0.00    +0.009 C 
ATOM     29  C2  UNL     1      15.749  31.525  16.742  0.00  0.00    +0.000 C 
ATOM     30  C3  UNL     1      15.910  31.940  18.206  0.00  0.00    +0.009 C 
ENDBRANCH  27  29
ENDBRANCH   1  27
TORSDOF 4
ENDMDL
MODEL 7
REMARK VINA RESULT:    -3.592      1.927      2.724
REMARK INTER + INTRA:          -5.282
REMARK INTER:                  -4.309
REMARK INTRA:                  -0.973
REMARK UNBOUND:                -0.850
REMARK  Name = /home/vital/Documents/PhD_2021/Malaria_codes/data/pdb_ligands_mmv/ligand_54.pdb
REMARK  7 active torsions:
REMARK  status: ('A' for Active; 'I' for Inactive)
REMARK    1  A    between atoms: C1_1  and  C2_2
REMARK    2  A    between atoms: C2_2  and  C3_3
REMARK    3  A    between atoms: C2_2  and  C4_4
REMARK    4  A    between atoms: C4_4  and  N1_5
REMARK    5  A    between atoms: C5_6  and  C19_25
REMARK    6  A    between atoms: C6_7  and  C7_8
REMARK    7  A    between atoms: C10_13  and  C11_14
REMARK                            x       y       z     vdW  Elec       q    Type
REMARK                         _______ _______ _______ _____ _____    ______ ____
ROOT
ATOM      1  N1  UNL     1      17.058  27.008  15.646  0.00  0.00    -0.289 N 
ATOM      2  C5  UNL     1      16.620  26.528  16.981  0.00  0.00    +0.129 C 
ATOM      3  C6  UNL     1      17.173  27.489  18.056  0.00  0.00    +0.131 C 
ATOM      4  C12 UNL     1      18.684  27.587  17.942  0.00  0.00    -0.021 A 
ATOM      5  C13 UNL     1      19.562  27.616  19.034  0.00  0.00    +0.005 A 
ATOM      6  C14 UNL     1      20.937  27.769  18.830  0.00  0.00    +0.000 A 
ATOM      7  C15 UNL     1      21.450  27.895  17.541  0.00  0.00    +0.001 A 
ATOM      8  C16 UNL     1      20.592  27.848  16.444  0.00  0.00    +0.013 A 
ATOM      9  C17 UNL     1      19.216  27.679  16.639  0.00  0.00    +0.041 A 
ATOM     10  C18 UNL     1      18.326  27.557  15.447  0.00  0.00    +0.247 C 
ATOM     11  O3  UNL     1      18.734  27.946  14.356  0.00  0.00    -0.270 OA
ENDROOT
BRANCH   3  12
ATOM     12  C7  UNL     1      16.604  27.266  19.457  0.00  0.00    +0.228 C 
ATOM     13  O1  UNL     1      16.646  26.183  20.023  0.00  0.00    -0.275 OA
ATOM     14  N2  UNL     1      16.036  28.426  19.973  0.00  0.00    -0.267 N 
ATOM     15  C8  UNL     1      15.439  28.526  21.216  0.00  0.00    +0.168 A 
ATOM     16  C9  UNL     1      14.883  29.729  21.717  0.00  0.00    +0.091 A 
ATOM     17  C10 UNL     1      14.402  29.399  22.960  0.00  0.00    +0.136 A 
ATOM     18  C11 UNL     1      13.711  30.136  24.031  0.00  0.00    +0.089 C 
ATOM     19  O2  UNL     1      14.653  28.086  23.196  0.00  0.00    -0.358 OA
ATOM     20  N3  UNL     1      15.299  27.541  22.104  0.00  0.00    -0.063 NA
ATOM     21  H12 UNL     1      16.071  29.277  19.430  0.00  0.00    +0.156 HD
ENDBRANCH   3  12
BRANCH   2  22
ATOM     22  C19 UNL     1      16.981  25.059  17.139  0.00  0.00    +0.011 A 
ATOM     23  C20 UNL     1      18.212  24.435  17.266  0.00  0.00    +0.013 A 
ATOM     24  C21 UNL     1      18.108  23.019  17.382  0.00  0.00    +0.008 A 
ATOM     25  C22 UNL     1      16.803  22.591  17.333  0.00  0.00    +0.045 A 
ATOM     26  S1  UNL     1      15.712  23.887  17.138  0.00  0.00    -0.100 S 
ENDBRANCH   2  22
BRANCH   1  27
ATOM     27  C4  UNL     1      16.144  26.885  14.507  0.00  0.00    +0.111 C 
BRANCH  27  29
ATOM     28  C1  UNL     1      13.753  26.037  14.210  0.00  0.00    +0.009 C 
ATOM     29  C2  UNL     1      14.655  27.099  14.839  0.00  0.00    +0.000 C 
ATOM     30  C3  UNL     1      14.221  28.489  14.367  0.00  0.00    +0.009 C 
ENDBRANCH  27  29
ENDBRANCH   1  27
TORSDOF 4
ENDMDL
MODEL 8
REMARK VINA RESULT:    -3.558      2.624      4.845
REMARK INTER + INTRA:          -5.240
REMARK INTER:                  -4.302
REMARK INTRA:                  -0.938
REMARK UNBOUND:                -0.850
REMARK  Name = /home/vital/Documents/PhD_2021/Malaria_codes/data/pdb_ligands_mmv/ligand_54.pdb
REMARK  7 active torsions:
REMARK  status: ('A' for Active; 'I' for Inactive)
REMARK    1  A    between atoms: C1_1  and  C2_2
REMARK    2  A    between atoms: C2_2  and  C3_3
REMARK    3  A    between atoms: C2_2  and  C4_4
REMARK    4  A    between atoms: C4_4  and  N1_5
REMARK    5  A    between atoms: C5_6  and  C19_25
REMARK    6  A    between atoms: C6_7  and  C7_8
REMARK    7  A    between atoms: C10_13  and  C11_14
REMARK                            x       y       z     vdW  Elec       q    Type
REMARK                         _______ _______ _______ _____ _____    ______ ____
ROOT
ATOM      1  N1  UNL     1      15.020  27.483  16.190  0.00  0.00    -0.289 N 
ATOM      2  C5  UNL     1      16.044  27.952  17.158  0.00  0.00    +0.129 C 
ATOM      3  C6  UNL     1      15.735  29.418  17.532  0.00  0.00    +0.131 C 
ATOM      4  C12 UNL     1      15.687  30.276  16.279  0.00  0.00    -0.021 A 
ATOM      5  C13 UNL     1      16.227  31.565  16.179  0.00  0.00    +0.005 A 
ATOM      6  C14 UNL     1      16.079  32.303  15.001  0.00  0.00    +0.000 A 
ATOM      7  C15 UNL     1      15.394  31.767  13.914  0.00  0.00    +0.001 A 
ATOM      8  C16 UNL     1      14.869  30.478  13.990  0.00  0.00    +0.013 A 
ATOM      9  C17 UNL     1      15.026  29.728  15.161  0.00  0.00    +0.041 A 
ATOM     10  C18 UNL     1      14.520  28.323  15.193  0.00  0.00    +0.247 C 
ATOM     11  O3  UNL     1      13.690  27.970  14.360  0.00  0.00    -0.270 OA
ENDROOT
BRANCH   3  12
ATOM     12  C7  UNL     1      16.555  29.958  18.702  0.00  0.00    +0.228 C 
ATOM     13  O1  UNL     1      17.774  29.874  18.751  0.00  0.00    -0.275 OA
ATOM     14  N2  UNL     1      15.745  30.527  19.679  0.00  0.00    -0.267 N 
ATOM     15  C8  UNL     1      16.205  31.092  20.854  0.00  0.00    +0.168 A 
ATOM     16  C9  UNL     1      15.351  31.676  21.823  0.00  0.00    +0.091 A 
ATOM     17  C10 UNL     1      16.195  32.109  22.815  0.00  0.00    +0.136 A 
ATOM     18  C11 UNL     1      16.010  32.796  24.104  0.00  0.00    +0.089 C 
ATOM     19  O2  UNL     1      17.473  31.809  22.469  0.00  0.00    -0.358 OA
ATOM     20  N3  UNL     1      17.478  31.171  21.244  0.00  0.00    -0.063 NA
ATOM     21  H12 UNL     1      14.746  30.564  19.533  0.00  0.00    +0.156 HD
ENDBRANCH   3  12
BRANCH   2  22
ATOM     22  C19 UNL     1      17.434  27.673  16.607  0.00  0.00    +0.011 A 
ATOM     23  C20 UNL     1      18.048  28.093  15.438  0.00  0.00    +0.013 A 
ATOM     24  C21 UNL     1      19.373  27.590  15.294  0.00  0.00    +0.008 A 
ATOM     25  C22 UNL     1      19.739  26.791  16.350  0.00  0.00    +0.045 A 
ATOM     26  S1  UNL     1      18.491  26.640  17.501  0.00  0.00    -0.100 S 
ENDBRANCH   2  22
BRANCH   1  27
ATOM     27  C4  UNL     1      14.540  26.102  16.270  0.00  0.00    +0.111 C 
BRANCH  27  29
ATOM     28  C1  UNL     1      14.692  24.583  14.222  0.00  0.00    +0.009 C 
ATOM     29  C2  UNL     1      15.383  25.071  15.495  0.00  0.00    +0.000 C 
ATOM     30  C3  UNL     1      15.694  23.878  16.402  0.00  0.00    +0.009 C 
ENDBRANCH  27  29
ENDBRANCH   1  27
TORSDOF 4
ENDMDL
