MODEL 1
REMARK VINA RESULT:    -3.943      0.000      0.000
REMARK INTER + INTRA:          -7.324
REMARK INTER:                  -5.442
REMARK INTRA:                  -1.883
REMARK UNBOUND:                -1.883
REMARK  Name = /home/vital/Documents/PhD_2021/Malaria_codes/data/pdb_ligands_mmv/ligand_118.pdb
REMARK  7 active torsions:
REMARK  status: ('A' for Active; 'I' for Inactive)
REMARK    1  A    between atoms: O1_1  and  C1_2
REMARK    2  A    between atoms: C1_2  and  C2_3
REMARK    3  A    between atoms: C1_2  and  C17_22
REMARK    4  A    between atoms: C2_3  and  N1_4
REMARK    5  A    between atoms: N3_7  and  C4_8
REMARK    6  A    between atoms: C4_8  and  C5_9
REMARK    7  A    between atoms: C5_9  and  N4_10
REMARK                            x       y       z     vdW  Elec       q    Type
REMARK                         _______ _______ _______ _____ _____    ______ ____
ROOT
ATOM      1  N1  UNL     1      15.842  25.915  14.951  0.00  0.00    -0.307 N 
ATOM      2  C3  UNL     1      15.841  24.885  15.896  0.00  0.00    +0.205 A 
ATOM      3  N2  UNL     1      14.860  24.125  16.236  0.00  0.00    -0.268 NA
ATOM      4  N3  UNL     1      17.119  24.830  16.445  0.00  0.00    -0.309 N 
ATOM      5  C11 UNL     1      17.891  25.863  15.920  0.00  0.00    +0.068 A 
ATOM      6  C12 UNL     1      19.181  26.266  16.193  0.00  0.00    +0.028 A 
ATOM      7  C13 UNL     1      19.677  27.377  15.505  0.00  0.00    +0.002 A 
ATOM      8  C14 UNL     1      18.885  28.055  14.561  0.00  0.00    +0.002 A 
ATOM      9  C15 UNL     1      17.579  27.637  14.288  0.00  0.00    +0.028 A 
ATOM     10  C16 UNL     1      17.093  26.544  14.975  0.00  0.00    +0.068 A 
ATOM     11  H5  UNL     1      14.036  24.344  15.678  0.00  0.00    +0.190 HD
ENDROOT
BRANCH   1  12
ATOM     12  C2  UNL     1      14.694  26.448  14.236  0.00  0.00    +0.161 C 
BRANCH  12  13
ATOM     13  C1  UNL     1      13.927  27.482  15.097  0.00  0.00    +0.164 C 
BRANCH  13  14
ATOM     14  C17 UNL     1      14.498  28.888  15.093  0.00  0.00    -0.016 A 
ATOM     15  C18 UNL     1      14.467  29.624  13.893  0.00  0.00    +0.006 A 
ATOM     16  C19 UNL     1      14.961  30.930  13.832  0.00  0.00    +0.001 A 
ATOM     17  C20 UNL     1      15.492  31.527  14.972  0.00  0.00    +0.015 A 
ATOM     18  C21 UNL     1      15.514  30.818  16.170  0.00  0.00    +0.018 A 
ATOM     19 BR1  UNL     1      16.221  31.632  17.727  0.00  0.00    -0.050 Br
ATOM     20  C22 UNL     1      15.015  29.514  16.241  0.00  0.00    +0.021 A 
ENDBRANCH  13  14
BRANCH  13  21
ATOM     21  O1  UNL     1      13.887  27.064  16.465  0.00  0.00    -0.385 OA
ATOM     22  H1  UNL     1      14.809  26.866  16.712  0.00  0.00    +0.210 HD
ENDBRANCH  13  21
ENDBRANCH  12  13
ENDBRANCH   1  12
BRANCH   4  23
ATOM     23  C4  UNL     1      17.517  23.996  17.562  0.00  0.00    +0.140 C 
BRANCH  23  24
ATOM     24  C5  UNL     1      16.631  24.270  18.796  0.00  0.00    +0.106 C 
BRANCH  24  25
ATOM     25  N4  UNL     1      16.980  25.436  19.627  0.00  0.00    -0.301 NA
ATOM     26  C6  UNL     1      16.180  26.636  19.362  0.00  0.00    +0.084 C 
ATOM     27  C7  UNL     1      16.986  27.793  18.773  0.00  0.00    +0.015 C 
ATOM     28  C8  UNL     1      18.167  28.173  19.665  0.00  0.00    +0.002 C 
ATOM     29  C9  UNL     1      18.728  26.977  20.434  0.00  0.00    +0.015 C 
ATOM     30  C10 UNL     1      18.426  25.662  19.719  0.00  0.00    +0.084 C 
ENDBRANCH  24  25
ENDBRANCH  23  24
ENDBRANCH   4  23
TORSDOF 7
ENDMDL
MODEL 2
REMARK VINA RESULT:    -3.943      2.060      3.500
REMARK INTER + INTRA:          -7.323
REMARK INTER:                  -5.591
REMARK INTRA:                  -1.732
REMARK UNBOUND:                -1.883
REMARK  Name = /home/vital/Documents/PhD_2021/Malaria_codes/data/pdb_ligands_mmv/ligand_118.pdb
REMARK  7 active torsions:
REMARK  status: ('A' for Active; 'I' for Inactive)
REMARK    1  A    between atoms: O1_1  and  C1_2
REMARK    2  A    between atoms: C1_2  and  C2_3
REMARK    3  A    between atoms: C1_2  and  C17_22
REMARK    4  A    between atoms: C2_3  and  N1_4
REMARK    5  A    between atoms: N3_7  and  C4_8
REMARK    6  A    between atoms: C4_8  and  C5_9
REMARK    7  A    between atoms: C5_9  and  N4_10
REMARK                            x       y       z     vdW  Elec       q    Type
REMARK                         _______ _______ _______ _____ _____    ______ ____
ROOT
ATOM      1  N1  UNL     1      14.818  26.891  17.756  0.00  0.00    -0.307 N 
ATOM      2  C3  UNL     1      15.724  26.218  18.581  0.00  0.00    +0.205 A 
ATOM      3  N2  UNL     1      16.223  26.617  19.698  0.00  0.00    -0.268 NA
ATOM      4  N3  UNL     1      16.023  25.007  17.962  0.00  0.00    -0.309 N 
ATOM      5  C11 UNL     1      15.387  24.953  16.726  0.00  0.00    +0.068 A 
ATOM      6  C12 UNL     1      15.422  24.008  15.723  0.00  0.00    +0.028 A 
ATOM      7  C13 UNL     1      14.679  24.255  14.565  0.00  0.00    +0.002 A 
ATOM      8  C14 UNL     1      13.915  25.429  14.434  0.00  0.00    +0.002 A 
ATOM      9  C15 UNL     1      13.882  26.381  15.457  0.00  0.00    +0.028 A 
ATOM     10  C16 UNL     1      14.623  26.134  16.595  0.00  0.00    +0.068 A 
ATOM     11  H5  UNL     1      15.835  27.523  19.953  0.00  0.00    +0.190 HD
ENDROOT
BRANCH   1  12
ATOM     12  C2  UNL     1      14.344  28.257  17.909  0.00  0.00    +0.161 C 
BRANCH  12  13
ATOM     13  C1  UNL     1      15.399  29.277  17.417  0.00  0.00    +0.164 C 
BRANCH  13  14
ATOM     14  C17 UNL     1      15.633  29.305  15.918  0.00  0.00    -0.016 A 
ATOM     15  C18 UNL     1      14.548  29.603  15.072  0.00  0.00    +0.006 A 
ATOM     16  C19 UNL     1      14.705  29.662  13.685  0.00  0.00    +0.001 A 
ATOM     17  C20 UNL     1      15.954  29.426  13.116  0.00  0.00    +0.015 A 
ATOM     18  C21 UNL     1      17.041  29.147  13.940  0.00  0.00    +0.018 A 
ATOM     19 BR1  UNL     1      18.744  28.841  13.172  0.00  0.00    -0.050 Br
ATOM     20  C22 UNL     1      16.893  29.094  15.330  0.00  0.00    +0.021 A 
ENDBRANCH  13  14
BRANCH  13  21
ATOM     21  O1  UNL     1      16.670  29.014  18.022  0.00  0.00    -0.385 OA
ATOM     22  H1  UNL     1      17.336  29.386  17.416  0.00  0.00    +0.210 HD
ENDBRANCH  13  21
ENDBRANCH  12  13
ENDBRANCH   1  12
BRANCH   4  23
ATOM     23  C4  UNL     1      17.027  24.062  18.410  0.00  0.00    +0.140 C 
BRANCH  23  24
ATOM     24  C5  UNL     1      18.414  24.421  17.838  0.00  0.00    +0.106 C 
BRANCH  24  25
ATOM     25  N4  UNL     1      18.701  25.851  17.624  0.00  0.00    -0.301 NA
ATOM     26  C6  UNL     1      18.909  26.229  16.223  0.00  0.00    +0.084 C 
ATOM     27  C7  UNL     1      20.331  26.696  15.917  0.00  0.00    +0.015 C 
ATOM     28  C8  UNL     1      20.750  27.862  16.810  0.00  0.00    +0.002 C 
ATOM     29  C9  UNL     1      20.090  27.809  18.188  0.00  0.00    +0.015 C 
ATOM     30  C10 UNL     1      19.694  26.383  18.563  0.00  0.00    +0.084 C 
ENDBRANCH  24  25
ENDBRANCH  23  24
ENDBRANCH   4  23
TORSDOF 7
ENDMDL
MODEL 3
REMARK VINA RESULT:    -3.823      2.135      4.236
REMARK INTER + INTRA:          -7.159
REMARK INTER:                  -5.435
REMARK INTRA:                  -1.724
REMARK UNBOUND:                -1.883
REMARK  Name = /home/vital/Documents/PhD_2021/Malaria_codes/data/pdb_ligands_mmv/ligand_118.pdb
REMARK  7 active torsions:
REMARK  status: ('A' for Active; 'I' for Inactive)
REMARK    1  A    between atoms: O1_1  and  C1_2
REMARK    2  A    between atoms: C1_2  and  C2_3
REMARK    3  A    between atoms: C1_2  and  C17_22
REMARK    4  A    between atoms: C2_3  and  N1_4
REMARK    5  A    between atoms: N3_7  and  C4_8
REMARK    6  A    between atoms: C4_8  and  C5_9
REMARK    7  A    between atoms: C5_9  and  N4_10
REMARK                            x       y       z     vdW  Elec       q    Type
REMARK                         _______ _______ _______ _____ _____    ______ ____
ROOT
ATOM      1  N1  UNL     1      15.879  24.867  17.621  0.00  0.00    -0.307 N 
ATOM      2  C3  UNL     1      17.101  24.367  18.082  0.00  0.00    +0.205 A 
ATOM      3  N2  UNL     1      17.737  23.328  17.669  0.00  0.00    -0.268 NA
ATOM      4  N3  UNL     1      17.521  25.201  19.116  0.00  0.00    -0.309 N 
ATOM      5  C11 UNL     1      16.542  26.158  19.362  0.00  0.00    +0.068 A 
ATOM      6  C12 UNL     1      16.457  27.151  20.315  0.00  0.00    +0.028 A 
ATOM      7  C13 UNL     1      15.313  27.954  20.322  0.00  0.00    +0.002 A 
ATOM      8  C14 UNL     1      14.286  27.756  19.383  0.00  0.00    +0.002 A 
ATOM      9  C15 UNL     1      14.381  26.749  18.418  0.00  0.00    +0.028 A 
ATOM     10  C16 UNL     1      15.510  25.956  18.419  0.00  0.00    +0.068 A 
ATOM     11  H5  UNL     1      17.239  22.898  16.892  0.00  0.00    +0.190 HD
ENDROOT
BRANCH   1  12
ATOM     12  C2  UNL     1      14.985  24.242  16.659  0.00  0.00    +0.161 C 
BRANCH  12  13
ATOM     13  C1  UNL     1      15.467  24.479  15.208  0.00  0.00    +0.164 C 
BRANCH  13  14
ATOM     14  C17 UNL     1      15.414  25.918  14.728  0.00  0.00    -0.016 A 
ATOM     15  C18 UNL     1      14.183  26.600  14.776  0.00  0.00    +0.006 A 
ATOM     16  C19 UNL     1      14.076  27.930  14.366  0.00  0.00    +0.001 A 
ATOM     17  C20 UNL     1      15.200  28.609  13.903  0.00  0.00    +0.015 A 
ATOM     18  C21 UNL     1      16.428  27.955  13.867  0.00  0.00    +0.018 A 
ATOM     19 BR1  UNL     1      17.963  28.878  13.252  0.00  0.00    -0.050 Br
ATOM     20  C22 UNL     1      16.545  26.625  14.282  0.00  0.00    +0.021 A 
ENDBRANCH  13  14
BRANCH  13  21
ATOM     21  O1  UNL     1      14.679  23.716  14.287  0.00  0.00    -0.385 OA
ATOM     22  H1  UNL     1      13.797  23.635  14.693  0.00  0.00    +0.210 HD
ENDBRANCH  13  21
ENDBRANCH  12  13
ENDBRANCH   1  12
BRANCH   4  23
ATOM     23  C4  UNL     1      18.671  24.967  19.966  0.00  0.00    +0.140 C 
BRANCH  23  24
ATOM     24  C5  UNL     1      19.948  25.571  19.344  0.00  0.00    +0.106 C 
BRANCH  24  25
ATOM     25  N4  UNL     1      19.975  25.716  17.878  0.00  0.00    -0.301 NA
ATOM     26  C6  UNL     1      20.949  24.857  17.197  0.00  0.00    +0.084 C 
ATOM     27  C7  UNL     1      22.078  25.629  16.516  0.00  0.00    +0.015 C 
ATOM     28  C8  UNL     1      21.543  26.656  15.519  0.00  0.00    +0.002 C 
ATOM     29  C9  UNL     1      20.181  27.216  15.931  0.00  0.00    +0.015 C 
ATOM     30  C10 UNL     1      19.970  27.116  17.440  0.00  0.00    +0.084 C 
ENDBRANCH  24  25
ENDBRANCH  23  24
ENDBRANCH   4  23
TORSDOF 7
ENDMDL
MODEL 4
REMARK VINA RESULT:    -3.797      1.240      1.634
REMARK INTER + INTRA:          -7.123
REMARK INTER:                  -5.244
REMARK INTRA:                  -1.879
REMARK UNBOUND:                -1.883
REMARK  Name = /home/vital/Documents/PhD_2021/Malaria_codes/data/pdb_ligands_mmv/ligand_118.pdb
REMARK  7 active torsions:
REMARK  status: ('A' for Active; 'I' for Inactive)
REMARK    1  A    between atoms: O1_1  and  C1_2
REMARK    2  A    between atoms: C1_2  and  C2_3
REMARK    3  A    between atoms: C1_2  and  C17_22
REMARK    4  A    between atoms: C2_3  and  N1_4
REMARK    5  A    between atoms: N3_7  and  C4_8
REMARK    6  A    between atoms: C4_8  and  C5_9
REMARK    7  A    between atoms: C5_9  and  N4_10
REMARK                            x       y       z     vdW  Elec       q    Type
REMARK                         _______ _______ _______ _____ _____    ______ ____
ROOT
ATOM      1  N1  UNL     1      16.373  24.634  16.284  0.00  0.00    -0.307 N 
ATOM      2  C3  UNL     1      16.633  23.917  17.456  0.00  0.00    +0.205 A 
ATOM      3  N2  UNL     1      15.849  23.108  18.078  0.00  0.00    -0.268 NA
ATOM      4  N3  UNL     1      17.923  24.249  17.863  0.00  0.00    -0.309 N 
ATOM      5  C11 UNL     1      18.436  25.225  17.015  0.00  0.00    +0.068 A 
ATOM      6  C12 UNL     1      19.628  25.918  17.039  0.00  0.00    +0.028 A 
ATOM      7  C13 UNL     1      19.848  26.874  16.043  0.00  0.00    +0.002 A 
ATOM      8  C14 UNL     1      18.886  27.113  15.046  0.00  0.00    +0.002 A 
ATOM      9  C15 UNL     1      17.681  26.403  15.027  0.00  0.00    +0.028 A 
ATOM     10  C16 UNL     1      17.467  25.466  16.017  0.00  0.00    +0.068 A 
ATOM     11  H5  UNL     1      14.970  23.012  17.573  0.00  0.00    +0.190 HD
ENDROOT
BRANCH   1  12
ATOM     12  C2  UNL     1      15.104  24.732  15.582  0.00  0.00    +0.161 C 
BRANCH  12  13
ATOM     13  C1  UNL     1      14.159  25.748  16.269  0.00  0.00    +0.164 C 
BRANCH  13  14
ATOM     14  C17 UNL     1      14.397  27.205  15.914  0.00  0.00    -0.016 A 
ATOM     15  C18 UNL     1      14.112  27.635  14.604  0.00  0.00    +0.006 A 
ATOM     16  C19 UNL     1      14.293  28.966  14.223  0.00  0.00    +0.001 A 
ATOM     17  C20 UNL     1      14.759  29.897  15.147  0.00  0.00    +0.015 A 
ATOM     18  C21 UNL     1      15.029  29.492  16.452  0.00  0.00    +0.018 A 
ATOM     19 BR1  UNL     1      15.648  30.758  17.717  0.00  0.00    -0.050 Br
ATOM     20  C22 UNL     1      14.843  28.163  16.843  0.00  0.00    +0.021 A 
ENDBRANCH  13  14
BRANCH  13  21
ATOM     21  O1  UNL     1      14.271  25.654  17.693  0.00  0.00    -0.385 OA
ATOM     22  H1  UNL     1      13.979  26.516  18.042  0.00  0.00    +0.210 HD
ENDBRANCH  13  21
ENDBRANCH  12  13
ENDBRANCH   1  12
BRANCH   4  23
ATOM     23  C4  UNL     1      18.541  23.836  19.108  0.00  0.00    +0.140 C 
BRANCH  23  24
ATOM     24  C5  UNL     1      17.711  24.312  20.319  0.00  0.00    +0.106 C 
BRANCH  24  25
ATOM     25  N4  UNL     1      17.950  25.684  20.799  0.00  0.00    -0.301 NA
ATOM     26  C6  UNL     1      16.962  26.669  20.349  0.00  0.00    +0.084 C 
ATOM     27  C7  UNL     1      17.535  27.729  19.409  0.00  0.00    +0.015 C 
ATOM     28  C8  UNL     1      18.716  28.467  20.040  0.00  0.00    +0.002 C 
ATOM     29  C9  UNL     1      19.510  27.583  21.003  0.00  0.00    +0.015 C 
ATOM     30  C10 UNL     1      19.349  26.103  20.664  0.00  0.00    +0.084 C 
ENDBRANCH  24  25
ENDBRANCH  23  24
ENDBRANCH   4  23
TORSDOF 7
ENDMDL
MODEL 5
REMARK VINA RESULT:    -3.704      1.275      1.783
REMARK INTER + INTRA:          -6.994
REMARK INTER:                  -5.155
REMARK INTRA:                  -1.839
REMARK UNBOUND:                -1.883
REMARK  Name = /home/vital/Documents/PhD_2021/Malaria_codes/data/pdb_ligands_mmv/ligand_118.pdb
REMARK  7 active torsions:
REMARK  status: ('A' for Active; 'I' for Inactive)
REMARK    1  A    between atoms: O1_1  and  C1_2
REMARK    2  A    between atoms: C1_2  and  C2_3
REMARK    3  A    between atoms: C1_2  and  C17_22
REMARK    4  A    between atoms: C2_3  and  N1_4
REMARK    5  A    between atoms: N3_7  and  C4_8
REMARK    6  A    between atoms: C4_8  and  C5_9
REMARK    7  A    between atoms: C5_9  and  N4_10
REMARK                            x       y       z     vdW  Elec       q    Type
REMARK                         _______ _______ _______ _____ _____    ______ ____
ROOT
ATOM      1  N1  UNL     1      15.840  25.981  15.296  0.00  0.00    -0.307 N 
ATOM      2  C3  UNL     1      15.744  25.445  16.584  0.00  0.00    +0.205 A 
ATOM      3  N2  UNL     1      14.697  24.987  17.174  0.00  0.00    -0.268 NA
ATOM      4  N3  UNL     1      17.015  25.508  17.150  0.00  0.00    -0.309 N 
ATOM      5  C11 UNL     1      17.879  26.153  16.271  0.00  0.00    +0.068 A 
ATOM      6  C12 UNL     1      19.204  26.514  16.395  0.00  0.00    +0.028 A 
ATOM      7  C13 UNL     1      19.801  27.186  15.325  0.00  0.00    +0.002 A 
ATOM      8  C14 UNL     1      19.073  27.477  14.158  0.00  0.00    +0.002 A 
ATOM      9  C15 UNL     1      17.731  27.105  14.039  0.00  0.00    +0.028 A 
ATOM     10  C16 UNL     1      17.145  26.447  15.100  0.00  0.00    +0.068 A 
ATOM     11  H5  UNL     1      13.895  25.028  16.548  0.00  0.00    +0.190 HD
ENDROOT
BRANCH   1  12
ATOM     12  C2  UNL     1      14.744  26.269  14.386  0.00  0.00    +0.161 C 
BRANCH  12  13
ATOM     13  C1  UNL     1      13.938  27.507  14.849  0.00  0.00    +0.164 C 
BRANCH  13  14
ATOM     14  C17 UNL     1      14.593  28.850  14.583  0.00  0.00    -0.016 A 
ATOM     15  C18 UNL     1      14.809  29.242  13.247  0.00  0.00    +0.006 A 
ATOM     16  C19 UNL     1      15.390  30.474  12.939  0.00  0.00    +0.001 A 
ATOM     17  C20 UNL     1      15.764  31.342  13.961  0.00  0.00    +0.015 A 
ATOM     18  C21 UNL     1      15.542  30.978  15.286  0.00  0.00    +0.018 A 
ATOM     19 BR1  UNL     1      16.035  32.161  16.679  0.00  0.00    -0.050 Br
ATOM     20  C22 UNL     1      14.954  29.749  15.603  0.00  0.00    +0.021 A 
ENDBRANCH  13  14
BRANCH  13  21
ATOM     21  O1  UNL     1      13.694  27.448  16.258  0.00  0.00    -0.385 OA
ATOM     22  H1  UNL     1      13.286  26.578  16.423  0.00  0.00    +0.210 HD
ENDBRANCH  13  21
ENDBRANCH  12  13
ENDBRANCH   1  12
BRANCH   4  23
ATOM     23  C4  UNL     1      17.337  25.183  18.526  0.00  0.00    +0.140 C 
BRANCH  23  24
ATOM     24  C5  UNL     1      17.190  26.424  19.432  0.00  0.00    +0.106 C 
BRANCH  24  25
ATOM     25  N4  UNL     1      16.212  27.445  19.018  0.00  0.00    -0.301 NA
ATOM     26  C6  UNL     1      16.787  28.762  18.731  0.00  0.00    +0.084 C 
ATOM     27  C7  UNL     1      16.345  29.852  19.707  0.00  0.00    +0.015 C 
ATOM     28  C8  UNL     1      14.824  29.979  19.763  0.00  0.00    +0.002 C 
ATOM     29  C9  UNL     1      14.115  28.649  19.508  0.00  0.00    +0.015 C 
ATOM     30  C10 UNL     1      15.011  27.464  19.861  0.00  0.00    +0.084 C 
ENDBRANCH  24  25
ENDBRANCH  23  24
ENDBRANCH   4  23
TORSDOF 7
ENDMDL
MODEL 6
REMARK VINA RESULT:    -3.674      1.189      1.504
REMARK INTER + INTRA:          -6.953
REMARK INTER:                  -5.104
REMARK INTRA:                  -1.849
REMARK UNBOUND:                -1.883
REMARK  Name = /home/vital/Documents/PhD_2021/Malaria_codes/data/pdb_ligands_mmv/ligand_118.pdb
REMARK  7 active torsions:
REMARK  status: ('A' for Active; 'I' for Inactive)
REMARK    1  A    between atoms: O1_1  and  C1_2
REMARK    2  A    between atoms: C1_2  and  C2_3
REMARK    3  A    between atoms: C1_2  and  C17_22
REMARK    4  A    between atoms: C2_3  and  N1_4
REMARK    5  A    between atoms: N3_7  and  C4_8
REMARK    6  A    between atoms: C4_8  and  C5_9
REMARK    7  A    between atoms: C5_9  and  N4_10
REMARK                            x       y       z     vdW  Elec       q    Type
REMARK                         _______ _______ _______ _____ _____    ______ ____
ROOT
ATOM      1  N1  UNL     1      15.804  26.146  15.124  0.00  0.00    -0.307 N 
ATOM      2  C3  UNL     1      15.829  25.271  16.214  0.00  0.00    +0.205 A 
ATOM      3  N2  UNL     1      14.859  24.571  16.688  0.00  0.00    -0.268 NA
ATOM      4  N3  UNL     1      17.121  25.297  16.733  0.00  0.00    -0.309 N 
ATOM      5  C11 UNL     1      17.876  26.238  16.040  0.00  0.00    +0.068 A 
ATOM      6  C12 UNL     1      19.171  26.677  16.217  0.00  0.00    +0.028 A 
ATOM      7  C13 UNL     1      19.648  27.671  15.357  0.00  0.00    +0.002 A 
ATOM      8  C14 UNL     1      18.831  28.200  14.342  0.00  0.00    +0.002 A 
ATOM      9  C15 UNL     1      17.520  27.748  14.168  0.00  0.00    +0.028 A 
ATOM     10  C16 UNL     1      17.053  26.770  15.023  0.00  0.00    +0.068 A 
ATOM     11  H5  UNL     1      14.021  24.704  16.124  0.00  0.00    +0.190 HD
ENDROOT
BRANCH   1  12
ATOM     12  C2  UNL     1      14.637  26.567  14.366  0.00  0.00    +0.161 C 
BRANCH  12  13
ATOM     13  C1  UNL     1      13.830  27.644  15.130  0.00  0.00    +0.164 C 
BRANCH  13  14
ATOM     14  C17 UNL     1      14.420  29.042  15.108  0.00  0.00    -0.016 A 
ATOM     15  C18 UNL     1      15.003  29.546  16.287  0.00  0.00    +0.006 A 
ATOM     16  C19 UNL     1      15.579  30.818  16.323  0.00  0.00    +0.001 A 
ATOM     17  C20 UNL     1      15.588  31.611  15.179  0.00  0.00    +0.015 A 
ATOM     18  C21 UNL     1      15.031  31.121  14.001  0.00  0.00    +0.018 A 
ATOM     19 BR1  UNL     1      15.054  32.190  12.439  0.00  0.00    -0.050 Br
ATOM     20  C22 UNL     1      14.459  29.846  13.954  0.00  0.00    +0.021 A 
ENDBRANCH  13  14
BRANCH  13  21
ATOM     21  O1  UNL     1      13.692  27.284  16.509  0.00  0.00    -0.385 OA
ATOM     22  H1  UNL     1      14.587  27.052  16.816  0.00  0.00    +0.210 HD
ENDBRANCH  13  21
ENDBRANCH  12  13
ENDBRANCH   1  12
BRANCH   4  23
ATOM     23  C4  UNL     1      17.548  24.640  17.953  0.00  0.00    +0.140 C 
BRANCH  23  24
ATOM     24  C5  UNL     1      16.814  25.225  19.178  0.00  0.00    +0.106 C 
BRANCH  24  25
ATOM     25  N4  UNL     1      17.442  26.377  19.849  0.00  0.00    -0.301 NA
ATOM     26  C6  UNL     1      16.778  27.661  19.607  0.00  0.00    +0.084 C 
ATOM     27  C7  UNL     1      17.627  28.652  18.812  0.00  0.00    +0.015 C 
ATOM     28  C8  UNL     1      18.974  28.912  19.485  0.00  0.00    +0.002 C 
ATOM     29  C9  UNL     1      19.485  27.696  20.258  0.00  0.00    +0.015 C 
ATOM     30  C10 UNL     1      18.902  26.398  19.707  0.00  0.00    +0.084 C 
ENDBRANCH  24  25
ENDBRANCH  23  24
ENDBRANCH   4  23
TORSDOF 7
ENDMDL
MODEL 7
REMARK VINA RESULT:    -3.573      2.066      3.924
REMARK INTER + INTRA:          -6.814
REMARK INTER:                  -4.791
REMARK INTRA:                  -2.023
REMARK UNBOUND:                -1.883
REMARK  Name = /home/vital/Documents/PhD_2021/Malaria_codes/data/pdb_ligands_mmv/ligand_118.pdb
REMARK  7 active torsions:
REMARK  status: ('A' for Active; 'I' for Inactive)
REMARK    1  A    between atoms: O1_1  and  C1_2
REMARK    2  A    between atoms: C1_2  and  C2_3
REMARK    3  A    between atoms: C1_2  and  C17_22
REMARK    4  A    between atoms: C2_3  and  N1_4
REMARK    5  A    between atoms: N3_7  and  C4_8
REMARK    6  A    between atoms: C4_8  and  C5_9
REMARK    7  A    between atoms: C5_9  and  N4_10
REMARK                            x       y       z     vdW  Elec       q    Type
REMARK                         _______ _______ _______ _____ _____    ______ ____
ROOT
ATOM      1  N1  UNL     1      15.729  25.056  17.718  0.00  0.00    -0.307 N 
ATOM      2  C3  UNL     1      15.641  26.176  18.551  0.00  0.00    +0.205 A 
ATOM      3  N2  UNL     1      14.669  27.013  18.650  0.00  0.00    -0.268 NA
ATOM      4  N3  UNL     1      16.832  26.250  19.268  0.00  0.00    -0.309 N 
ATOM      5  C11 UNL     1      17.693  25.247  18.834  0.00  0.00    +0.068 A 
ATOM      6  C12 UNL     1      18.994  24.949  19.181  0.00  0.00    +0.028 A 
ATOM      7  C13 UNL     1      19.611  23.872  18.538  0.00  0.00    +0.002 A 
ATOM      8  C14 UNL     1      18.922  23.115  17.574  0.00  0.00    +0.002 A 
ATOM      9  C15 UNL     1      17.603  23.422  17.230  0.00  0.00    +0.028 A 
ATOM     10  C16 UNL     1      17.001  24.490  17.863  0.00  0.00    +0.068 A 
ATOM     11  H5  UNL     1      13.902  26.735  18.040  0.00  0.00    +0.190 HD
ENDROOT
BRANCH   1  12
ATOM     12  C2  UNL     1      14.794  24.666  16.676  0.00  0.00    +0.161 C 
BRANCH  12  13
ATOM     13  C1  UNL     1      15.327  25.046  15.273  0.00  0.00    +0.164 C 
BRANCH  13  14
ATOM     14  C17 UNL     1      15.118  26.492  14.863  0.00  0.00    -0.016 A 
ATOM     15  C18 UNL     1      13.931  27.139  15.257  0.00  0.00    +0.006 A 
ATOM     16  C19 UNL     1      13.690  28.474  14.927  0.00  0.00    +0.001 A 
ATOM     17  C20 UNL     1      14.634  29.192  14.198  0.00  0.00    +0.015 A 
ATOM     18  C21 UNL     1      15.821  28.573  13.816  0.00  0.00    +0.018 A 
ATOM     19 BR1  UNL     1      17.115  29.549  12.837  0.00  0.00    -0.050 Br
ATOM     20  C22 UNL     1      16.073  27.238  14.149  0.00  0.00    +0.021 A 
ENDBRANCH  13  14
BRANCH  13  21
ATOM     21  O1  UNL     1      14.701  24.245  14.265  0.00  0.00    -0.385 OA
ATOM     22  H1  UNL     1      13.893  23.884  14.673  0.00  0.00    +0.210 HD
ENDBRANCH  13  21
ENDBRANCH  12  13
ENDBRANCH   1  12
BRANCH   4  23
ATOM     23  C4  UNL     1      17.217  27.338  20.145  0.00  0.00    +0.140 C 
BRANCH  23  24
ATOM     24  C5  UNL     1      17.852  28.493  19.342  0.00  0.00    +0.106 C 
BRANCH  24  25
ATOM     25  N4  UNL     1      17.067  29.043  18.223  0.00  0.00    -0.301 NA
ATOM     26  C6  UNL     1      17.780  29.096  16.944  0.00  0.00    +0.084 C 
ATOM     27  C7  UNL     1      18.038  30.515  16.442  0.00  0.00    +0.015 C 
ATOM     28  C8  UNL     1      16.742  31.317  16.318  0.00  0.00    +0.002 C 
ATOM     29  C9  UNL     1      15.694  30.895  17.347  0.00  0.00    +0.015 C 
ATOM     30  C10 UNL     1      16.341  30.268  18.579  0.00  0.00    +0.084 C 
ENDBRANCH  24  25
ENDBRANCH  23  24
ENDBRANCH   4  23
TORSDOF 7
ENDMDL
MODEL 8
REMARK VINA RESULT:    -3.484      2.413      5.534
REMARK INTER + INTRA:          -6.690
REMARK INTER:                  -4.838
REMARK INTRA:                  -1.853
REMARK UNBOUND:                -1.883
REMARK  Name = /home/vital/Documents/PhD_2021/Malaria_codes/data/pdb_ligands_mmv/ligand_118.pdb
REMARK  7 active torsions:
REMARK  status: ('A' for Active; 'I' for Inactive)
REMARK    1  A    between atoms: O1_1  and  C1_2
REMARK    2  A    between atoms: C1_2  and  C2_3
REMARK    3  A    between atoms: C1_2  and  C17_22
REMARK    4  A    between atoms: C2_3  and  N1_4
REMARK    5  A    between atoms: N3_7  and  C4_8
REMARK    6  A    between atoms: C4_8  and  C5_9
REMARK    7  A    between atoms: C5_9  and  N4_10
REMARK                            x       y       z     vdW  Elec       q    Type
REMARK                         _______ _______ _______ _____ _____    ______ ____
ROOT
ATOM      1  N1  UNL     1      14.047  26.918  16.581  0.00  0.00    -0.307 N 
ATOM      2  C3  UNL     1      14.090  27.183  15.209  0.00  0.00    +0.205 A 
ATOM      3  N2  UNL     1      13.713  26.419  14.244  0.00  0.00    -0.268 NA
ATOM      4  N3  UNL     1      14.647  28.449  15.052  0.00  0.00    -0.309 N 
ATOM      5  C11 UNL     1      15.031  28.940  16.296  0.00  0.00    +0.068 A 
ATOM      6  C12 UNL     1      15.679  30.102  16.657  0.00  0.00    +0.028 A 
ATOM      7  C13 UNL     1      15.952  30.305  18.013  0.00  0.00    +0.002 A 
ATOM      8  C14 UNL     1      15.570  29.354  18.976  0.00  0.00    +0.002 A 
ATOM      9  C15 UNL     1      14.910  28.180  18.602  0.00  0.00    +0.028 A 
ATOM     10  C16 UNL     1      14.649  27.983  17.262  0.00  0.00    +0.068 A 
ATOM     11  H5  UNL     1      13.319  25.555  14.613  0.00  0.00    +0.190 HD
ENDROOT
BRANCH   1  12
ATOM     12  C2  UNL     1      13.692  25.661  17.219  0.00  0.00    +0.161 C 
BRANCH  12  13
ATOM     13  C1  UNL     1      14.803  24.600  17.027  0.00  0.00    +0.164 C 
BRANCH  13  14
ATOM     14  C17 UNL     1      16.203  25.043  17.413  0.00  0.00    -0.016 A 
ATOM     15  C18 UNL     1      17.096  25.421  16.392  0.00  0.00    +0.006 A 
ATOM     16  C19 UNL     1      18.391  25.854  16.687  0.00  0.00    +0.001 A 
ATOM     17  C20 UNL     1      18.818  25.923  18.010  0.00  0.00    +0.015 A 
ATOM     18  C21 UNL     1      17.941  25.569  19.032  0.00  0.00    +0.018 A 
ATOM     19 BR1  UNL     1      18.512  25.675  20.834  0.00  0.00    -0.050 Br
ATOM     20  C22 UNL     1      16.641  25.141  18.746  0.00  0.00    +0.021 A 
ENDBRANCH  13  14
BRANCH  13  21
ATOM     21  O1  UNL     1      14.872  24.188  15.657  0.00  0.00    -0.385 OA
ATOM     22  H1  UNL     1      15.582  24.719  15.253  0.00  0.00    +0.210 HD
ENDBRANCH  13  21
ENDBRANCH  12  13
ENDBRANCH   1  12
BRANCH   4  23
ATOM     23  C4  UNL     1      15.002  29.058  13.785  0.00  0.00    +0.140 C 
BRANCH  23  24
ATOM     24  C5  UNL     1      16.242  28.372  13.174  0.00  0.00    +0.106 C 
BRANCH  24  25
ATOM     25  N4  UNL     1      17.519  29.103  13.252  0.00  0.00    -0.301 NA
ATOM     26  C6  UNL     1      18.533  28.472  14.102  0.00  0.00    +0.084 C 
ATOM     27  C7  UNL     1      18.885  29.285  15.346  0.00  0.00    +0.015 C 
ATOM     28  C8  UNL     1      19.350  30.696  14.989  0.00  0.00    +0.002 C 
ATOM     29  C9  UNL     1      18.686  31.225  13.717  0.00  0.00    +0.015 C 
ATOM     30  C10 UNL     1      17.344  30.544  13.463  0.00  0.00    +0.084 C 
ENDBRANCH  24  25
ENDBRANCH  23  24
ENDBRANCH   4  23
TORSDOF 7
ENDMDL
MODEL 9
REMARK VINA RESULT:    -3.376      2.439      4.599
REMARK INTER + INTRA:          -6.541
REMARK INTER:                  -4.537
REMARK INTRA:                  -2.004
REMARK UNBOUND:                -1.883
REMARK  Name = /home/vital/Documents/PhD_2021/Malaria_codes/data/pdb_ligands_mmv/ligand_118.pdb
REMARK  7 active torsions:
REMARK  status: ('A' for Active; 'I' for Inactive)
REMARK    1  A    between atoms: O1_1  and  C1_2
REMARK    2  A    between atoms: C1_2  and  C2_3
REMARK    3  A    between atoms: C1_2  and  C17_22
REMARK    4  A    between atoms: C2_3  and  N1_4
REMARK    5  A    between atoms: N3_7  and  C4_8
REMARK    6  A    between atoms: C4_8  and  C5_9
REMARK    7  A    between atoms: C5_9  and  N4_10
REMARK                            x       y       z     vdW  Elec       q    Type
REMARK                         _______ _______ _______ _____ _____    ______ ____
ROOT
ATOM      1  N1  UNL     1      17.774  24.556  18.686  0.00  0.00    -0.307 N 
ATOM      2  C3  UNL     1      17.696  25.808  19.303  0.00  0.00    +0.205 A 
ATOM      3  N2  UNL     1      16.652  26.392  19.777  0.00  0.00    -0.268 NA
ATOM      4  N3  UNL     1      18.980  26.348  19.301  0.00  0.00    -0.309 N 
ATOM      5  C11 UNL     1      19.838  25.492  18.618  0.00  0.00    +0.068 A 
ATOM      6  C12 UNL     1      21.172  25.609  18.292  0.00  0.00    +0.028 A 
ATOM      7  C13 UNL     1      21.760  24.570  17.564  0.00  0.00    +0.002 A 
ATOM      8  C14 UNL     1      21.013  23.442  17.183  0.00  0.00    +0.002 A 
ATOM      9  C15 UNL     1      19.661  23.329  17.521  0.00  0.00    +0.028 A 
ATOM     10  C16 UNL     1      19.085  24.360  18.235  0.00  0.00    +0.068 A 
ATOM     11  H5  UNL     1      15.837  25.788  19.680  0.00  0.00    +0.190 HD
ENDROOT
BRANCH   1  12
ATOM     12  C2  UNL     1      16.665  23.691  18.318  0.00  0.00    +0.161 C 
BRANCH  12  13
ATOM     13  C1  UNL     1      16.382  23.756  16.798  0.00  0.00    +0.164 C 
BRANCH  13  14
ATOM     14  C17 UNL     1      15.571  24.952  16.334  0.00  0.00    -0.016 A 
ATOM     15  C18 UNL     1      14.467  25.358  17.107  0.00  0.00    +0.006 A 
ATOM     16  C19 UNL     1      13.694  26.463  16.742  0.00  0.00    +0.001 A 
ATOM     17  C20 UNL     1      14.013  27.187  15.597  0.00  0.00    +0.015 A 
ATOM     18  C21 UNL     1      15.113  26.809  14.831  0.00  0.00    +0.018 A 
ATOM     19 BR1  UNL     1      15.559  27.800  13.280  0.00  0.00    -0.050 Br
ATOM     20  C22 UNL     1      15.896  25.709  15.194  0.00  0.00    +0.021 A 
ENDBRANCH  13  14
BRANCH  13  21
ATOM     21  O1  UNL     1      15.667  22.591  16.371  0.00  0.00    -0.385 OA
ATOM     22  H1  UNL     1      16.203  22.193  15.662  0.00  0.00    +0.210 HD
ENDBRANCH  13  21
ENDBRANCH  12  13
ENDBRANCH   1  12
BRANCH   4  23
ATOM     23  C4  UNL     1      19.325  27.692  19.720  0.00  0.00    +0.140 C 
BRANCH  23  24
ATOM     24  C5  UNL     1      19.130  28.695  18.564  0.00  0.00    +0.106 C 
BRANCH  24  25
ATOM     25  N4  UNL     1      17.807  28.723  17.916  0.00  0.00    -0.301 NA
ATOM     26  C6  UNL     1      17.843  28.672  16.451  0.00  0.00    +0.084 C 
ATOM     27  C7  UNL     1      17.337  29.947  15.779  0.00  0.00    +0.015 C 
ATOM     28  C8  UNL     1      15.918  30.299  16.226  0.00  0.00    +0.002 C 
ATOM     29  C9  UNL     1      15.630  29.854  17.660  0.00  0.00    +0.015 C 
ATOM     30  C10 UNL     1      16.914  29.742  18.478  0.00  0.00    +0.084 C 
ENDBRANCH  24  25
ENDBRANCH  23  24
ENDBRANCH   4  23
TORSDOF 7
ENDMDL
