MODEL 1
REMARK VINA RESULT:    -4.139      0.000      0.000
REMARK INTER + INTRA:          -5.881
REMARK INTER:                  -5.107
REMARK INTRA:                  -0.774
REMARK UNBOUND:                -0.774
REMARK  Name = /home/vital/Documents/PhD_2021/Malaria_codes/data/pdb_ligands_mmv/ligand_380.pdb
REMARK  5 active torsions:
REMARK  status: ('A' for Active; 'I' for Inactive)
REMARK    1  A    between atoms: C1_1  and  C2_2
REMARK    2  A    between atoms: C2_2  and  O1_3
REMARK    3  A    between atoms: O1_3  and  C3_4
REMARK    4  A    between atoms: C6_7  and  N1_8
REMARK    5  A    between atoms: N1_8  and  C7_9
REMARK                            x       y       z     vdW  Elec       q    Type
REMARK                         _______ _______ _______ _____ _____    ______ ____
ROOT
ATOM      1  N1  UNL     1      13.894  27.797  16.151  0.00  0.00    -0.314 N 
ATOM      2  H8  UNL     1      13.667  27.944  17.133  0.00  0.00    +0.152 HD
ENDROOT
BRANCH   1   3
ATOM      3  C7  UNL     1      14.360  26.475  15.923  0.00  0.00    +0.042 A 
ATOM      4  C8  UNL     1      13.993  25.832  14.740  0.00  0.00    +0.043 A 
ATOM      5  C9  UNL     1      14.392  24.525  14.553  0.00  0.00    +0.113 A 
ATOM      6  N2  UNL     1      15.113  23.823  15.450  0.00  0.00    -0.255 NA
ATOM      7  C10 UNL     1      15.464  24.430  16.596  0.00  0.00    +0.074 A 
ATOM      8  C11 UNL     1      16.204  23.706  17.519  0.00  0.00    +0.048 A 
ATOM      9  C12 UNL     1      16.610  24.271  18.726  0.00  0.00    +0.043 A 
ATOM     10 CL1  UNL     1      17.527  23.338  19.844  0.00  0.00    -0.083 Cl
ATOM     11  C13 UNL     1      16.282  25.585  19.033  0.00  0.00    +0.021 A 
ATOM     12  C14 UNL     1      15.539  26.329  18.119  0.00  0.00    +0.013 A 
ATOM     13  C15 UNL     1      15.112  25.765  16.893  0.00  0.00    +0.022 A 
ENDBRANCH   1   3
BRANCH   1  17
ATOM     14  C3  UNL     1      15.534  31.433  14.703  0.00  0.00    +0.121 A 
ATOM     15  C4  UNL     1      14.581  30.749  13.947  0.00  0.00    +0.047 A 
ATOM     16  C5  UNL     1      14.037  29.543  14.400  0.00  0.00    +0.027 A 
ATOM     17  C6  UNL     1      14.450  28.985  15.613  0.00  0.00    +0.032 A 
ATOM     18  C16 UNL     1      15.390  29.691  16.378  0.00  0.00    +0.027 A 
ATOM     19  C17 UNL     1      15.934  30.900  15.926  0.00  0.00    +0.047 A 
BRANCH  14  20
ATOM     20  O1  UNL     1      15.981  32.597  14.145  0.00  0.00    -0.492 OA
BRANCH  20  22
ATOM     21  C1  UNL     1      17.892  31.895  12.908  0.00  0.00    +0.048 C 
ATOM     22  C2  UNL     1      17.392  32.770  14.044  0.00  0.00    +0.225 C 
ENDBRANCH  20  22
ENDBRANCH  14  20
ENDBRANCH   1  17
TORSDOF 4
ENDMDL
MODEL 2
REMARK VINA RESULT:    -4.023      2.035      2.394
REMARK INTER + INTRA:          -5.738
REMARK INTER:                  -4.991
REMARK INTRA:                  -0.748
REMARK UNBOUND:                -0.774
REMARK  Name = /home/vital/Documents/PhD_2021/Malaria_codes/data/pdb_ligands_mmv/ligand_380.pdb
REMARK  5 active torsions:
REMARK  status: ('A' for Active; 'I' for Inactive)
REMARK    1  A    between atoms: C1_1  and  C2_2
REMARK    2  A    between atoms: C2_2  and  O1_3
REMARK    3  A    between atoms: O1_3  and  C3_4
REMARK    4  A    between atoms: C6_7  and  N1_8
REMARK    5  A    between atoms: N1_8  and  C7_9
REMARK                            x       y       z     vdW  Elec       q    Type
REMARK                         _______ _______ _______ _____ _____    ______ ____
ROOT
ATOM      1  N1  UNL     1      15.982  28.094  13.690  0.00  0.00    -0.314 N 
ATOM      2  H8  UNL     1      15.904  28.007  12.679  0.00  0.00    +0.152 HD
ENDROOT
BRANCH   1   3
ATOM      3  C7  UNL     1      15.506  26.927  14.346  0.00  0.00    +0.042 A 
ATOM      4  C8  UNL     1      14.165  26.575  14.191  0.00  0.00    +0.043 A 
ATOM      5  C9  UNL     1      13.690  25.480  14.883  0.00  0.00    +0.113 A 
ATOM      6  N2  UNL     1      14.445  24.728  15.709  0.00  0.00    -0.255 NA
ATOM      7  C10 UNL     1      15.736  25.064  15.871  0.00  0.00    +0.074 A 
ATOM      8  C11 UNL     1      16.510  24.290  16.723  0.00  0.00    +0.048 A 
ATOM      9  C12 UNL     1      17.858  24.575  16.935  0.00  0.00    +0.043 A 
ATOM     10 CL1  UNL     1      18.784  23.590  18.000  0.00  0.00    -0.083 Cl
ATOM     11  C13 UNL     1      18.461  25.645  16.290  0.00  0.00    +0.021 A 
ATOM     12  C14 UNL     1      17.699  26.434  15.430  0.00  0.00    +0.013 A 
ATOM     13  C15 UNL     1      16.328  26.164  15.212  0.00  0.00    +0.022 A 
ENDBRANCH   1   3
BRANCH   1  17
ATOM     14  C3  UNL     1      15.152  32.046  14.998  0.00  0.00    +0.121 A 
ATOM     15  C4  UNL     1      14.589  31.572  13.812  0.00  0.00    +0.047 A 
ATOM     16  C5  UNL     1      14.859  30.278  13.357  0.00  0.00    +0.027 A 
ATOM     17  C6  UNL     1      15.716  29.435  14.070  0.00  0.00    +0.032 A 
ATOM     18  C16 UNL     1      16.258  29.909  15.273  0.00  0.00    +0.027 A 
ATOM     19  C17 UNL     1      15.986  31.205  15.732  0.00  0.00    +0.047 A 
BRANCH  14  20
ATOM     20  O1  UNL     1      14.805  33.326  15.326  0.00  0.00    -0.492 OA
BRANCH  20  22
ATOM     21  C1  UNL     1      14.554  34.385  17.445  0.00  0.00    +0.048 C 
ATOM     22  C2  UNL     1      15.541  33.950  16.376  0.00  0.00    +0.225 C 
ENDBRANCH  20  22
ENDBRANCH  14  20
ENDBRANCH   1  17
TORSDOF 4
ENDMDL
MODEL 3
REMARK VINA RESULT:    -3.899      2.063      2.503
REMARK INTER + INTRA:          -5.584
REMARK INTER:                  -4.956
REMARK INTRA:                  -0.628
REMARK UNBOUND:                -0.774
REMARK  Name = /home/vital/Documents/PhD_2021/Malaria_codes/data/pdb_ligands_mmv/ligand_380.pdb
REMARK  5 active torsions:
REMARK  status: ('A' for Active; 'I' for Inactive)
REMARK    1  A    between atoms: C1_1  and  C2_2
REMARK    2  A    between atoms: C2_2  and  O1_3
REMARK    3  A    between atoms: O1_3  and  C3_4
REMARK    4  A    between atoms: C6_7  and  N1_8
REMARK    5  A    between atoms: N1_8  and  C7_9
REMARK                            x       y       z     vdW  Elec       q    Type
REMARK                         _______ _______ _______ _____ _____    ______ ____
ROOT
ATOM      1  N1  UNL     1      15.568  27.464  13.033  0.00  0.00    -0.314 N 
ATOM      2  H8  UNL     1      15.261  27.146  12.116  0.00  0.00    +0.152 HD
ENDROOT
BRANCH   1   3
ATOM      3  C7  UNL     1      15.284  26.498  14.034  0.00  0.00    +0.042 A 
ATOM      4  C8  UNL     1      13.977  26.026  14.156  0.00  0.00    +0.043 A 
ATOM      5  C9  UNL     1      13.691  25.139  15.173  0.00  0.00    +0.113 A 
ATOM      6  N2  UNL     1      14.601  24.701  16.066  0.00  0.00    -0.255 NA
ATOM      7  C10 UNL     1      15.861  25.155  15.963  0.00  0.00    +0.074 A 
ATOM      8  C11 UNL     1      16.795  24.705  16.884  0.00  0.00    +0.048 A 
ATOM      9  C12 UNL     1      18.122  25.128  16.835  0.00  0.00    +0.043 A 
ATOM     10 CL1  UNL     1      19.250  24.546  17.997  0.00  0.00    -0.083 Cl
ATOM     11  C13 UNL     1      18.542  26.014  15.853  0.00  0.00    +0.021 A 
ATOM     12  C14 UNL     1      17.619  26.477  14.918  0.00  0.00    +0.013 A 
ATOM     13  C15 UNL     1      16.266  26.065  14.961  0.00  0.00    +0.022 A 
ENDBRANCH   1   3
BRANCH   1  17
ATOM     14  C3  UNL     1      15.145  31.676  13.332  0.00  0.00    +0.121 A 
ATOM     15  C4  UNL     1      14.489  30.844  14.241  0.00  0.00    +0.047 A 
ATOM     16  C5  UNL     1      14.605  29.453  14.152  0.00  0.00    +0.027 A 
ATOM     17  C6  UNL     1      15.366  28.864  13.139  0.00  0.00    +0.032 A 
ATOM     18  C16 UNL     1      16.041  29.707  12.245  0.00  0.00    +0.027 A 
ATOM     19  C17 UNL     1      15.927  31.101  12.334  0.00  0.00    +0.047 A 
BRANCH  14  20
ATOM     20  O1  UNL     1      14.946  33.013  13.533  0.00  0.00    -0.492 OA
BRANCH  20  22
ATOM     21  C1  UNL     1      16.079  34.512  14.997  0.00  0.00    +0.048 C 
ATOM     22  C2  UNL     1      16.107  33.834  13.639  0.00  0.00    +0.225 C 
ENDBRANCH  20  22
ENDBRANCH  14  20
ENDBRANCH   1  17
TORSDOF 4
ENDMDL
MODEL 4
REMARK VINA RESULT:    -3.734      3.564      6.773
REMARK INTER + INTRA:          -5.382
REMARK INTER:                  -4.605
REMARK INTRA:                  -0.777
REMARK UNBOUND:                -0.774
REMARK  Name = /home/vital/Documents/PhD_2021/Malaria_codes/data/pdb_ligands_mmv/ligand_380.pdb
REMARK  5 active torsions:
REMARK  status: ('A' for Active; 'I' for Inactive)
REMARK    1  A    between atoms: C1_1  and  C2_2
REMARK    2  A    between atoms: C2_2  and  O1_3
REMARK    3  A    between atoms: O1_3  and  C3_4
REMARK    4  A    between atoms: C6_7  and  N1_8
REMARK    5  A    between atoms: N1_8  and  C7_9
REMARK                            x       y       z     vdW  Elec       q    Type
REMARK                         _______ _______ _______ _____ _____    ______ ____
ROOT
ATOM      1  N1  UNL     1      14.125  28.653  14.855  0.00  0.00    -0.314 N 
ATOM      2  H8  UNL     1      13.289  28.675  14.274  0.00  0.00    +0.152 HD
ENDROOT
BRANCH   1   3
ATOM      3  C7  UNL     1      15.156  29.462  14.307  0.00  0.00    +0.042 A 
ATOM      4  C8  UNL     1      15.558  29.230  12.992  0.00  0.00    +0.043 A 
ATOM      5  C9  UNL     1      16.605  29.972  12.485  0.00  0.00    +0.113 A 
ATOM      6  N2  UNL     1      17.271  30.910  13.189  0.00  0.00    -0.255 NA
ATOM      7  C10 UNL     1      16.897  31.135  14.459  0.00  0.00    +0.074 A 
ATOM      8  C11 UNL     1      17.585  32.098  15.182  0.00  0.00    +0.048 A 
ATOM      9  C12 UNL     1      17.248  32.390  16.503  0.00  0.00    +0.043 A 
ATOM     10 CL1  UNL     1      18.127  33.592  17.365  0.00  0.00    -0.083 Cl
ATOM     11  C13 UNL     1      16.205  31.720  17.127  0.00  0.00    +0.021 A 
ATOM     12  C14 UNL     1      15.502  30.750  16.417  0.00  0.00    +0.013 A 
ATOM     13  C15 UNL     1      15.838  30.435  15.080  0.00  0.00    +0.022 A 
ENDBRANCH   1   3
BRANCH   1  17
ATOM     14  C3  UNL     1      14.722  24.837  16.613  0.00  0.00    +0.121 A 
ATOM     15  C4  UNL     1      14.699  24.967  15.224  0.00  0.00    +0.047 A 
ATOM     16  C5  UNL     1      14.491  26.214  14.624  0.00  0.00    +0.027 A 
ATOM     17  C6  UNL     1      14.282  27.355  15.404  0.00  0.00    +0.032 A 
ATOM     18  C16 UNL     1      14.332  27.219  16.799  0.00  0.00    +0.027 A 
ATOM     19  C17 UNL     1      14.542  25.971  17.401  0.00  0.00    +0.047 A 
BRANCH  14  20
ATOM     20  O1  UNL     1      14.935  23.565  17.066  0.00  0.00    -0.492 OA
BRANCH  20  22
ATOM     21  C1  UNL     1      17.216  22.886  17.171  0.00  0.00    +0.048 C 
ATOM     22  C2  UNL     1      15.919  22.789  16.386  0.00  0.00    +0.225 C 
ENDBRANCH  20  22
ENDBRANCH  14  20
ENDBRANCH   1  17
TORSDOF 4
ENDMDL
MODEL 5
REMARK VINA RESULT:    -3.691      1.481      2.006
REMARK INTER + INTRA:          -5.328
REMARK INTER:                  -4.639
REMARK INTRA:                  -0.689
REMARK UNBOUND:                -0.774
REMARK  Name = /home/vital/Documents/PhD_2021/Malaria_codes/data/pdb_ligands_mmv/ligand_380.pdb
REMARK  5 active torsions:
REMARK  status: ('A' for Active; 'I' for Inactive)
REMARK    1  A    between atoms: C1_1  and  C2_2
REMARK    2  A    between atoms: C2_2  and  O1_3
REMARK    3  A    between atoms: O1_3  and  C3_4
REMARK    4  A    between atoms: C6_7  and  N1_8
REMARK    5  A    between atoms: N1_8  and  C7_9
REMARK                            x       y       z     vdW  Elec       q    Type
REMARK                         _______ _______ _______ _____ _____    ______ ____
ROOT
ATOM      1  N1  UNL     1      14.362  26.828  17.030  0.00  0.00    -0.314 N 
ATOM      2  H8  UNL     1      14.145  27.089  17.989  0.00  0.00    +0.152 HD
ENDROOT
BRANCH   1   3
ATOM      3  C7  UNL     1      15.048  25.585  16.977  0.00  0.00    +0.042 A 
ATOM      4  C8  UNL     1      14.818  24.741  15.890  0.00  0.00    +0.043 A 
ATOM      5  C9  UNL     1      15.434  23.507  15.876  0.00  0.00    +0.113 A 
ATOM      6  N2  UNL     1      16.245  23.061  16.856  0.00  0.00    -0.255 NA
ATOM      7  C10 UNL     1      16.467  23.862  17.911  0.00  0.00    +0.074 A 
ATOM      8  C11 UNL     1      17.300  23.401  18.919  0.00  0.00    +0.048 A 
ATOM      9  C12 UNL     1      17.581  24.179  20.040  0.00  0.00    +0.043 A 
ATOM     10 CL1  UNL     1      18.620  23.569  21.268  0.00  0.00    -0.083 Cl
ATOM     11  C13 UNL     1      17.032  25.447  20.171  0.00  0.00    +0.021 A 
ATOM     12  C14 UNL     1      16.193  25.929  19.169  0.00  0.00    +0.013 A 
ATOM     13  C15 UNL     1      15.890  25.146  18.030  0.00  0.00    +0.022 A 
ENDBRANCH   1   3
BRANCH   1  17
ATOM     14  C3  UNL     1      15.315  30.210  14.649  0.00  0.00    +0.121 A 
ATOM     15  C4  UNL     1      16.040  29.952  15.813  0.00  0.00    +0.047 A 
ATOM     16  C5  UNL     1      15.734  28.850  16.619  0.00  0.00    +0.027 A 
ATOM     17  C6  UNL     1      14.682  27.992  16.285  0.00  0.00    +0.032 A 
ATOM     18  C16 UNL     1      13.975  28.245  15.101  0.00  0.00    +0.027 A 
ATOM     19  C17 UNL     1      14.281  29.347  14.292  0.00  0.00    +0.047 A 
BRANCH  14  20
ATOM     20  O1  UNL     1      15.718  31.317  13.956  0.00  0.00    -0.492 OA
BRANCH  20  22
ATOM     21  C1  UNL     1      14.722  32.614  12.224  0.00  0.00    +0.048 C 
ATOM     22  C2  UNL     1      14.739  32.325  13.715  0.00  0.00    +0.225 C 
ENDBRANCH  20  22
ENDBRANCH  14  20
ENDBRANCH   1  17
TORSDOF 4
ENDMDL
MODEL 6
REMARK VINA RESULT:    -3.446      3.626      6.920
REMARK INTER + INTRA:          -5.026
REMARK INTER:                  -4.440
REMARK INTRA:                  -0.586
REMARK UNBOUND:                -0.774
REMARK  Name = /home/vital/Documents/PhD_2021/Malaria_codes/data/pdb_ligands_mmv/ligand_380.pdb
REMARK  5 active torsions:
REMARK  status: ('A' for Active; 'I' for Inactive)
REMARK    1  A    between atoms: C1_1  and  C2_2
REMARK    2  A    between atoms: C2_2  and  O1_3
REMARK    3  A    between atoms: O1_3  and  C3_4
REMARK    4  A    between atoms: C6_7  and  N1_8
REMARK    5  A    between atoms: N1_8  and  C7_9
REMARK                            x       y       z     vdW  Elec       q    Type
REMARK                         _______ _______ _______ _____ _____    ______ ____
ROOT
ATOM      1  N1  UNL     1      14.421  28.186  14.043  0.00  0.00    -0.314 N 
ATOM      2  H8  UNL     1      14.252  27.923  13.074  0.00  0.00    +0.152 HD
ENDROOT
BRANCH   1   3
ATOM      3  C7  UNL     1      15.190  29.378  14.126  0.00  0.00    +0.042 A 
ATOM      4  C8  UNL     1      14.531  30.583  14.371  0.00  0.00    +0.043 A 
ATOM      5  C9  UNL     1      15.272  31.746  14.384  0.00  0.00    +0.113 A 
ATOM      6  N2  UNL     1      16.602  31.791  14.168  0.00  0.00    -0.255 NA
ATOM      7  C10 UNL     1      17.245  30.638  13.922  0.00  0.00    +0.074 A 
ATOM      8  C11 UNL     1      18.613  30.687  13.698  0.00  0.00    +0.048 A 
ATOM      9  C12 UNL     1      19.347  29.530  13.443  0.00  0.00    +0.043 A 
ATOM     10 CL1  UNL     1      21.043  29.635  13.169  0.00  0.00    -0.083 Cl
ATOM     11  C13 UNL     1      18.721  28.292  13.413  0.00  0.00    +0.021 A 
ATOM     12  C14 UNL     1      17.347  28.222  13.637  0.00  0.00    +0.013 A 
ATOM     13  C15 UNL     1      16.587  29.389  13.886  0.00  0.00    +0.022 A 
ENDBRANCH   1   3
BRANCH   1  17
ATOM     14  C3  UNL     1      14.831  24.606  16.284  0.00  0.00    +0.121 A 
ATOM     15  C4  UNL     1      14.741  25.833  16.943  0.00  0.00    +0.047 A 
ATOM     16  C5  UNL     1      14.618  27.026  16.223  0.00  0.00    +0.027 A 
ATOM     17  C6  UNL     1      14.602  27.017  14.825  0.00  0.00    +0.032 A 
ATOM     18  C16 UNL     1      14.667  25.778  14.173  0.00  0.00    +0.027 A 
ATOM     19  C17 UNL     1      14.788  24.582  14.892  0.00  0.00    +0.047 A 
BRANCH  14  20
ATOM     20  O1  UNL     1      14.946  23.521  17.107  0.00  0.00    -0.492 OA
BRANCH  20  22
ATOM     21  C1  UNL     1      17.121  22.892  17.848  0.00  0.00    +0.048 C 
ATOM     22  C2  UNL     1      16.016  22.616  16.843  0.00  0.00    +0.225 C 
ENDBRANCH  20  22
ENDBRANCH  14  20
ENDBRANCH   1  17
TORSDOF 4
ENDMDL
MODEL 7
REMARK VINA RESULT:    -3.422      4.552      6.704
REMARK INTER + INTRA:          -4.996
REMARK INTER:                  -4.265
REMARK INTRA:                  -0.731
REMARK UNBOUND:                -0.774
REMARK  Name = /home/vital/Documents/PhD_2021/Malaria_codes/data/pdb_ligands_mmv/ligand_380.pdb
REMARK  5 active torsions:
REMARK  status: ('A' for Active; 'I' for Inactive)
REMARK    1  A    between atoms: C1_1  and  C2_2
REMARK    2  A    between atoms: C2_2  and  O1_3
REMARK    3  A    between atoms: O1_3  and  C3_4
REMARK    4  A    between atoms: C6_7  and  N1_8
REMARK    5  A    between atoms: N1_8  and  C7_9
REMARK                            x       y       z     vdW  Elec       q    Type
REMARK                         _______ _______ _______ _____ _____    ______ ____
ROOT
ATOM      1  N1  UNL     1      16.808  25.290  17.468  0.00  0.00    -0.314 N 
ATOM      2  H8  UNL     1      16.337  24.801  18.227  0.00  0.00    +0.152 HD
ENDROOT
BRANCH   1   3
ATOM      3  C7  UNL     1      15.950  25.449  16.347  0.00  0.00    +0.042 A 
ATOM      4  C8  UNL     1      15.524  24.309  15.665  0.00  0.00    +0.043 A 
ATOM      5  C9  UNL     1      14.746  24.472  14.538  0.00  0.00    +0.113 A 
ATOM      6  N2  UNL     1      14.375  25.672  14.048  0.00  0.00    -0.255 NA
ATOM      7  C10 UNL     1      14.787  26.776  14.692  0.00  0.00    +0.074 A 
ATOM      8  C11 UNL     1      14.406  28.009  14.185  0.00  0.00    +0.048 A 
ATOM      9  C12 UNL     1      14.790  29.197  14.804  0.00  0.00    +0.043 A 
ATOM     10 CL1  UNL     1      14.296  30.707  14.142  0.00  0.00    -0.083 Cl
ATOM     11  C13 UNL     1      15.567  29.171  15.954  0.00  0.00    +0.021 A 
ATOM     12  C14 UNL     1      15.959  27.942  16.479  0.00  0.00    +0.013 A 
ATOM     13  C15 UNL     1      15.586  26.728  15.856  0.00  0.00    +0.022 A 
ENDBRANCH   1   3
BRANCH   1  17
ATOM     14  C3  UNL     1      20.908  24.224  17.202  0.00  0.00    +0.121 A 
ATOM     15  C4  UNL     1      19.944  23.237  17.419  0.00  0.00    +0.047 A 
ATOM     16  C5  UNL     1      18.589  23.569  17.522  0.00  0.00    +0.027 A 
ATOM     17  C6  UNL     1      18.171  24.899  17.430  0.00  0.00    +0.032 A 
ATOM     18  C16 UNL     1      19.143  25.881  17.188  0.00  0.00    +0.027 A 
ATOM     19  C17 UNL     1      20.500  25.550  17.082  0.00  0.00    +0.047 A 
BRANCH  14  20
ATOM     20  O1  UNL     1      22.191  23.763  17.121  0.00  0.00    -0.492 OA
BRANCH  20  22
ATOM     21  C1  UNL     1      23.719  23.927  15.301  0.00  0.00    +0.048 C 
ATOM     22  C2  UNL     1      23.156  24.627  16.525  0.00  0.00    +0.225 C 
ENDBRANCH  20  22
ENDBRANCH  14  20
ENDBRANCH   1  17
TORSDOF 4
ENDMDL
MODEL 8
REMARK VINA RESULT:    -3.391      4.298      6.664
REMARK INTER + INTRA:          -4.958
REMARK INTER:                  -4.250
REMARK INTRA:                  -0.708
REMARK UNBOUND:                -0.774
REMARK  Name = /home/vital/Documents/PhD_2021/Malaria_codes/data/pdb_ligands_mmv/ligand_380.pdb
REMARK  5 active torsions:
REMARK  status: ('A' for Active; 'I' for Inactive)
REMARK    1  A    between atoms: C1_1  and  C2_2
REMARK    2  A    between atoms: C2_2  and  O1_3
REMARK    3  A    between atoms: O1_3  and  C3_4
REMARK    4  A    between atoms: C6_7  and  N1_8
REMARK    5  A    between atoms: N1_8  and  C7_9
REMARK                            x       y       z     vdW  Elec       q    Type
REMARK                         _______ _______ _______ _____ _____    ______ ____
ROOT
ATOM      1  N1  UNL     1      16.028  26.925  18.450  0.00  0.00    -0.314 N 
ATOM      2  H8  UNL     1      17.003  27.086  18.205  0.00  0.00    +0.152 HD
ENDROOT
BRANCH   1   3
ATOM      3  C7  UNL     1      15.210  26.860  17.290  0.00  0.00    +0.042 A 
ATOM      4  C8  UNL     1      14.538  25.670  17.013  0.00  0.00    +0.043 A 
ATOM      5  C9  UNL     1      13.799  25.588  15.851  0.00  0.00    +0.113 A 
ATOM      6  N2  UNL     1      13.690  26.592  14.958  0.00  0.00    -0.255 NA
ATOM      7  C10 UNL     1      14.340  27.740  15.211  0.00  0.00    +0.074 A 
ATOM      8  C11 UNL     1      14.229  28.771  14.290  0.00  0.00    +0.048 A 
ATOM      9  C12 UNL     1      14.869  29.993  14.489  0.00  0.00    +0.043 A 
ATOM     10 CL1  UNL     1      14.706  31.246  13.322  0.00  0.00    -0.083 Cl
ATOM     11  C13 UNL     1      15.637  30.207  15.625  0.00  0.00    +0.021 A 
ATOM     12  C14 UNL     1      15.761  29.184  16.563  0.00  0.00    +0.013 A 
ATOM     13  C15 UNL     1      15.125  27.935  16.370  0.00  0.00    +0.022 A 
ENDBRANCH   1   3
BRANCH   1  17
ATOM     14  C3  UNL     1      15.219  28.868  22.135  0.00  0.00    +0.121 A 
ATOM     15  C4  UNL     1      14.176  28.588  21.252  0.00  0.00    +0.047 A 
ATOM     16  C5  UNL     1      14.422  27.960  20.027  0.00  0.00    +0.027 A 
ATOM     17  C6  UNL     1      15.723  27.615  19.651  0.00  0.00    +0.032 A 
ATOM     18  C16 UNL     1      16.763  27.878  20.554  0.00  0.00    +0.027 A 
ATOM     19  C17 UNL     1      16.517  28.505  21.783  0.00  0.00    +0.047 A 
BRANCH  14  20
ATOM     20  O1  UNL     1      14.840  29.483  23.295  0.00  0.00    -0.492 OA
BRANCH  20  22
ATOM     21  C1  UNL     1      14.703  27.721  24.892  0.00  0.00    +0.048 C 
ATOM     22  C2  UNL     1      15.420  29.003  24.506  0.00  0.00    +0.225 C 
ENDBRANCH  20  22
ENDBRANCH  14  20
ENDBRANCH   1  17
TORSDOF 4
ENDMDL
