MODEL 1
REMARK VINA RESULT:    -4.251      0.000      0.000
REMARK INTER + INTRA:          -6.632
REMARK INTER:                  -5.493
REMARK INTRA:                  -1.139
REMARK UNBOUND:                -1.139
REMARK  Name = /home/vital/Documents/PhD_2021/Malaria_codes/data/pdb_ligands_mmv/ligand_84.pdb
REMARK  6 active torsions:
REMARK  status: ('A' for Active; 'I' for Inactive)
REMARK    1  A    between atoms: C1_1  and  C2_2
REMARK    2  A    between atoms: C5_5  and  C6_6
REMARK    3  A    between atoms: C6_6  and  N1_7
REMARK    4  A    between atoms: C16_19  and  C19_22
REMARK    5  A    between atoms: N4_24  and  C20_25
REMARK    6  A    between atoms: C20_25  and  C21_26
REMARK                            x       y       z     vdW  Elec       q    Type
REMARK                         _______ _______ _______ _____ _____    ______ ____
ROOT
ATOM      1  N1  UNL     1      15.783  26.495  17.945  0.00  0.00    -0.307 N 
ATOM      2  C7  UNL     1      17.105  26.280  18.271  0.00  0.00    +0.200 A 
ATOM      3  N2  UNL     1      17.414  26.857  19.409  0.00  0.00    -0.214 NA
ATOM      4  C8  UNL     1      16.250  27.421  19.866  0.00  0.00    +0.091 A 
ATOM      5  C9  UNL     1      16.016  28.141  21.047  0.00  0.00    +0.030 A 
ATOM      6  C10 UNL     1      14.726  28.622  21.300  0.00  0.00    +0.002 A 
ATOM      7  C11 UNL     1      13.690  28.390  20.394  0.00  0.00    +0.002 A 
ATOM      8  C12 UNL     1      13.905  27.675  19.210  0.00  0.00    +0.028 A 
ATOM      9  C13 UNL     1      15.203  27.202  18.977  0.00  0.00    +0.070 A 
ATOM     10  N3  UNL     1      17.942  25.567  17.461  0.00  0.00    -0.301 N 
ATOM     11  C14 UNL     1      19.288  26.155  17.313  0.00  0.00    +0.108 C 
ATOM     12  C15 UNL     1      20.303  25.471  18.224  0.00  0.00    +0.032 C 
ATOM     13  C16 UNL     1      20.433  23.975  17.889  0.00  0.00    +0.078 C 
ATOM     14  C17 UNL     1      19.174  23.436  17.191  0.00  0.00    +0.032 C 
ATOM     15  C18 UNL     1      17.923  24.114  17.733  0.00  0.00    +0.108 C 
ENDROOT
BRANCH  13  16
ATOM     16  C19 UNL     1      21.684  23.704  17.058  0.00  0.00    +0.216 C 
ATOM     17  O1  UNL     1      21.998  22.593  16.643  0.00  0.00    -0.276 OA
ATOM     18  N4  UNL     1      22.443  24.827  16.816  0.00  0.00    -0.310 N 
ATOM     19  H21 UNL     1      22.271  25.660  17.364  0.00  0.00    +0.149 HD
BRANCH  18  20
ATOM     20  C20 UNL     1      23.718  24.721  16.146  0.00  0.00    +0.146 C 
BRANCH  20  21
ATOM     21  C21 UNL     1      23.544  25.181  14.736  0.00  0.00    +0.007 A 
ATOM     22  C22 UNL     1      24.171  24.707  13.600  0.00  0.00    +0.013 A 
ATOM     23  C23 UNL     1      23.749  25.388  12.422  0.00  0.00    +0.008 A 
ATOM     24  C24 UNL     1      22.814  26.359  12.697  0.00  0.00    +0.045 A 
ATOM     25  S1  UNL     1      22.449  26.447  14.365  0.00  0.00    -0.100 S 
ENDBRANCH  20  21
ENDBRANCH  18  20
ENDBRANCH  13  16
BRANCH   1  26
ATOM     26  C6  UNL     1      15.112  26.060  16.731  0.00  0.00    +0.160 C 
BRANCH  26  31
ATOM     27  C1  UNL     1      15.483  29.963  12.413  0.00  0.00    +0.044 C 
ATOM     28  C2  UNL     1      15.371  28.955  13.517  0.00  0.00    -0.050 A 
ATOM     29  C3  UNL     1      14.375  29.063  14.493  0.00  0.00    +0.004 A 
ATOM     30  C4  UNL     1      14.294  28.129  15.529  0.00  0.00    +0.005 A 
ATOM     31  C5  UNL     1      15.214  27.075  15.615  0.00  0.00    -0.028 A 
ATOM     32  C25 UNL     1      16.204  26.965  14.629  0.00  0.00    +0.005 A 
ATOM     33  C26 UNL     1      16.286  27.900  13.595  0.00  0.00    +0.004 A 
ENDBRANCH  26  31
ENDBRANCH   1  26
TORSDOF 5
ENDMDL
MODEL 2
REMARK VINA RESULT:    -4.126      5.762      9.460
REMARK INTER + INTRA:          -6.471
REMARK INTER:                  -5.575
REMARK INTRA:                  -0.896
REMARK UNBOUND:                -1.139
REMARK  Name = /home/vital/Documents/PhD_2021/Malaria_codes/data/pdb_ligands_mmv/ligand_84.pdb
REMARK  6 active torsions:
REMARK  status: ('A' for Active; 'I' for Inactive)
REMARK    1  A    between atoms: C1_1  and  C2_2
REMARK    2  A    between atoms: C5_5  and  C6_6
REMARK    3  A    between atoms: C6_6  and  N1_7
REMARK    4  A    between atoms: C16_19  and  C19_22
REMARK    5  A    between atoms: N4_24  and  C20_25
REMARK    6  A    between atoms: C20_25  and  C21_26
REMARK                            x       y       z     vdW  Elec       q    Type
REMARK                         _______ _______ _______ _____ _____    ______ ____
ROOT
ATOM      1  N1  UNL     1      17.059  28.026  15.639  0.00  0.00    -0.307 N 
ATOM      2  C7  UNL     1      16.427  29.121  15.089  0.00  0.00    +0.200 A 
ATOM      3  N2  UNL     1      15.323  28.771  14.471  0.00  0.00    -0.214 NA
ATOM      4  C8  UNL     1      15.201  27.420  14.666  0.00  0.00    +0.091 A 
ATOM      5  C9  UNL     1      14.191  26.547  14.233  0.00  0.00    +0.030 A 
ATOM      6  C10 UNL     1      14.285  25.190  14.563  0.00  0.00    +0.002 A 
ATOM      7  C11 UNL     1      15.364  24.711  15.307  0.00  0.00    +0.002 A 
ATOM      8  C12 UNL     1      16.382  25.567  15.746  0.00  0.00    +0.028 A 
ATOM      9  C13 UNL     1      16.268  26.920  15.407  0.00  0.00    +0.070 A 
ATOM     10  N3  UNL     1      16.946  30.380  15.189  0.00  0.00    -0.301 N 
ATOM     11  C14 UNL     1      16.861  31.171  13.945  0.00  0.00    +0.108 C 
ATOM     12  C15 UNL     1      15.676  32.132  13.972  0.00  0.00    +0.032 C 
ATOM     13  C16 UNL     1      15.800  33.139  15.130  0.00  0.00    +0.078 C 
ATOM     14  C17 UNL     1      16.692  32.599  16.260  0.00  0.00    +0.032 C 
ATOM     15  C18 UNL     1      16.519  31.094  16.412  0.00  0.00    +0.108 C 
ENDROOT
BRANCH  13  16
ATOM     16  C19 UNL     1      16.299  34.492  14.632  0.00  0.00    +0.216 C 
ATOM     17  O1  UNL     1      16.624  34.712  13.470  0.00  0.00    -0.276 OA
ATOM     18  N4  UNL     1      16.359  35.456  15.613  0.00  0.00    -0.310 N 
ATOM     19  H21 UNL     1      16.305  35.170  16.582  0.00  0.00    +0.149 HD
BRANCH  18  20
ATOM     20  C20 UNL     1      16.921  36.756  15.332  0.00  0.00    +0.146 C 
BRANCH  20  21
ATOM     21  C21 UNL     1      15.798  37.730  15.186  0.00  0.00    +0.007 A 
ATOM     22  C22 UNL     1      15.672  38.757  14.271  0.00  0.00    +0.013 A 
ATOM     23  C23 UNL     1      14.455  39.480  14.430  0.00  0.00    +0.008 A 
ATOM     24  C24 UNL     1      13.691  38.980  15.459  0.00  0.00    +0.045 A 
ATOM     25  S1  UNL     1      14.439  37.648  16.227  0.00  0.00    -0.100 S 
ENDBRANCH  20  21
ENDBRANCH  18  20
ENDBRANCH  13  16
BRANCH   1  26
ATOM     26  C6  UNL     1      18.333  28.027  16.339  0.00  0.00    +0.160 C 
BRANCH  26  31
ATOM     27  C1  UNL     1      22.788  26.437  12.928  0.00  0.00    +0.044 C 
ATOM     28  C2  UNL     1      21.654  26.856  13.814  0.00  0.00    -0.050 A 
ATOM     29  C3  UNL     1      21.694  26.628  15.193  0.00  0.00    +0.004 A 
ATOM     30  C4  UNL     1      20.622  27.006  16.006  0.00  0.00    +0.005 A 
ATOM     31  C5  UNL     1      19.483  27.609  15.453  0.00  0.00    -0.028 A 
ATOM     32  C25 UNL     1      19.452  27.845  14.072  0.00  0.00    +0.005 A 
ATOM     33  C26 UNL     1      20.523  27.466  13.260  0.00  0.00    +0.004 A 
ENDBRANCH  26  31
ENDBRANCH   1  26
TORSDOF 5
ENDMDL
MODEL 3
REMARK VINA RESULT:    -4.044      4.584      6.950
REMARK INTER + INTRA:          -6.365
REMARK INTER:                  -5.142
REMARK INTRA:                  -1.224
REMARK UNBOUND:                -1.139
REMARK  Name = /home/vital/Documents/PhD_2021/Malaria_codes/data/pdb_ligands_mmv/ligand_84.pdb
REMARK  6 active torsions:
REMARK  status: ('A' for Active; 'I' for Inactive)
REMARK    1  A    between atoms: C1_1  and  C2_2
REMARK    2  A    between atoms: C5_5  and  C6_6
REMARK    3  A    between atoms: C6_6  and  N1_7
REMARK    4  A    between atoms: C16_19  and  C19_22
REMARK    5  A    between atoms: N4_24  and  C20_25
REMARK    6  A    between atoms: C20_25  and  C21_26
REMARK                            x       y       z     vdW  Elec       q    Type
REMARK                         _______ _______ _______ _____ _____    ______ ____
ROOT
ATOM      1  N1  UNL     1      14.510  29.362  21.774  0.00  0.00    -0.307 N 
ATOM      2  C7  UNL     1      15.129  28.415  20.987  0.00  0.00    +0.200 A 
ATOM      3  N2  UNL     1      15.848  27.590  21.713  0.00  0.00    -0.214 NA
ATOM      4  C8  UNL     1      15.651  27.974  23.015  0.00  0.00    +0.091 A 
ATOM      5  C9  UNL     1      16.171  27.418  24.193  0.00  0.00    +0.030 A 
ATOM      6  C10 UNL     1      15.820  27.991  25.421  0.00  0.00    +0.002 A 
ATOM      7  C11 UNL     1      14.971  29.097  25.474  0.00  0.00    +0.002 A 
ATOM      8  C12 UNL     1      14.445  29.667  24.308  0.00  0.00    +0.028 A 
ATOM      9  C13 UNL     1      14.807  29.077  23.091  0.00  0.00    +0.070 A 
ATOM     10  N3  UNL     1      14.992  28.403  19.629  0.00  0.00    -0.301 N 
ATOM     11  C14 UNL     1      16.246  28.138  18.895  0.00  0.00    +0.108 C 
ATOM     12  C15 UNL     1      16.343  26.680  18.458  0.00  0.00    +0.032 C 
ATOM     13  C16 UNL     1      15.188  26.303  17.512  0.00  0.00    +0.078 C 
ATOM     14  C17 UNL     1      13.972  27.225  17.704  0.00  0.00    +0.032 C 
ATOM     15  C18 UNL     1      13.823  27.625  19.165  0.00  0.00    +0.108 C 
ENDROOT
BRANCH  13  16
ATOM     16  C19 UNL     1      15.649  26.293  16.057  0.00  0.00    +0.216 C 
ATOM     17  O1  UNL     1      16.522  25.547  15.626  0.00  0.00    -0.276 OA
ATOM     18  N4  UNL     1      14.996  27.208  15.263  0.00  0.00    -0.310 N 
ATOM     19  H21 UNL     1      14.462  27.945  15.704  0.00  0.00    +0.149 HD
BRANCH  18  20
ATOM     20  C20 UNL     1      15.397  27.406  13.889  0.00  0.00    +0.146 C 
BRANCH  20  21
ATOM     21  C21 UNL     1      15.207  28.847  13.550  0.00  0.00    +0.007 A 
ATOM     22  C22 UNL     1      14.408  29.776  14.187  0.00  0.00    +0.013 A 
ATOM     23  C23 UNL     1      14.483  31.064  13.583  0.00  0.00    +0.008 A 
ATOM     24  C24 UNL     1      15.338  31.076  12.504  0.00  0.00    +0.045 A 
ATOM     25  S1  UNL     1      16.043  29.544  12.225  0.00  0.00    -0.100 S 
ENDBRANCH  20  21
ENDBRANCH  18  20
ENDBRANCH  13  16
BRANCH   1  26
ATOM     26  C6  UNL     1      13.690  30.469  21.309  0.00  0.00    +0.160 C 
BRANCH  26  31
ATOM     27  C1  UNL     1      16.830  35.275  20.284  0.00  0.00    +0.044 C 
ATOM     28  C2  UNL     1      16.037  34.030  20.543  0.00  0.00    -0.050 A 
ATOM     29  C3  UNL     1      15.789  33.108  19.521  0.00  0.00    +0.004 A 
ATOM     30  C4  UNL     1      15.032  31.960  19.770  0.00  0.00    +0.005 A 
ATOM     31  C5  UNL     1      14.497  31.718  21.043  0.00  0.00    -0.028 A 
ATOM     32  C25 UNL     1      14.757  32.640  22.067  0.00  0.00    +0.005 A 
ATOM     33  C26 UNL     1      15.513  33.788  21.817  0.00  0.00    +0.004 A 
ENDBRANCH  26  31
ENDBRANCH   1  26
TORSDOF 5
ENDMDL
MODEL 4
REMARK VINA RESULT:    -3.955      5.102      8.395
REMARK INTER + INTRA:          -6.250
REMARK INTER:                  -5.310
REMARK INTRA:                  -0.940
REMARK UNBOUND:                -1.139
REMARK  Name = /home/vital/Documents/PhD_2021/Malaria_codes/data/pdb_ligands_mmv/ligand_84.pdb
REMARK  6 active torsions:
REMARK  status: ('A' for Active; 'I' for Inactive)
REMARK    1  A    between atoms: C1_1  and  C2_2
REMARK    2  A    between atoms: C5_5  and  C6_6
REMARK    3  A    between atoms: C6_6  and  N1_7
REMARK    4  A    between atoms: C16_19  and  C19_22
REMARK    5  A    between atoms: N4_24  and  C20_25
REMARK    6  A    between atoms: C20_25  and  C21_26
REMARK                            x       y       z     vdW  Elec       q    Type
REMARK                         _______ _______ _______ _____ _____    ______ ____
ROOT
ATOM      1  N1  UNL     1      15.155  26.533  18.023  0.00  0.00    -0.307 N 
ATOM      2  C7  UNL     1      15.584  27.465  18.943  0.00  0.00    +0.200 A 
ATOM      3  N2  UNL     1      16.520  26.970  19.720  0.00  0.00    -0.214 NA
ATOM      4  C8  UNL     1      16.746  25.697  19.262  0.00  0.00    +0.091 A 
ATOM      5  C9  UNL     1      17.659  24.737  19.723  0.00  0.00    +0.030 A 
ATOM      6  C10 UNL     1      17.709  23.492  19.084  0.00  0.00    +0.002 A 
ATOM      7  C11 UNL     1      16.865  23.210  18.010  0.00  0.00    +0.002 A 
ATOM      8  C12 UNL     1      15.947  24.155  17.537  0.00  0.00    +0.028 A 
ATOM      9  C13 UNL     1      15.915  25.394  18.189  0.00  0.00    +0.070 A 
ATOM     10  N3  UNL     1      15.049  28.720  19.003  0.00  0.00    -0.301 N 
ATOM     11  C14 UNL     1      14.794  29.205  20.375  0.00  0.00    +0.108 C 
ATOM     12  C15 UNL     1      15.906  30.132  20.857  0.00  0.00    +0.032 C 
ATOM     13  C16 UNL     1      16.021  31.378  19.961  0.00  0.00    +0.078 C 
ATOM     14  C17 UNL     1      15.455  31.121  18.554  0.00  0.00    +0.032 C 
ATOM     15  C18 UNL     1      15.727  29.689  18.116  0.00  0.00    +0.108 C 
ENDROOT
BRANCH  13  16
ATOM     16  C19 UNL     1      15.356  32.588  20.611  0.00  0.00    +0.216 C 
ATOM     17  O1  UNL     1      15.348  32.791  21.821  0.00  0.00    -0.276 OA
ATOM     18  N4  UNL     1      14.753  33.438  19.712  0.00  0.00    -0.310 N 
ATOM     19  H21 UNL     1      14.588  33.114  18.768  0.00  0.00    +0.149 HD
BRANCH  18  20
ATOM     20  C20 UNL     1      13.979  34.567  20.175  0.00  0.00    +0.146 C 
BRANCH  20  21
ATOM     21  C21 UNL     1      14.118  35.669  19.178  0.00  0.00    +0.007 A 
ATOM     22  C22 UNL     1      14.565  35.589  17.873  0.00  0.00    +0.013 A 
ATOM     23  C23 UNL     1      14.557  36.854  17.218  0.00  0.00    +0.008 A 
ATOM     24  C24 UNL     1      14.103  37.858  18.042  0.00  0.00    +0.045 A 
ATOM     25  S1  UNL     1      13.690  37.276  19.596  0.00  0.00    -0.100 S 
ENDBRANCH  20  21
ENDBRANCH  18  20
ENDBRANCH  13  16
BRANCH   1  26
ATOM     26  C6  UNL     1      14.090  26.709  17.049  0.00  0.00    +0.160 C 
BRANCH  26  31
ATOM     27  C1  UNL     1      15.861  29.645  12.331  0.00  0.00    +0.044 C 
ATOM     28  C2  UNL     1      15.421  28.895  13.552  0.00  0.00    -0.050 A 
ATOM     29  C3  UNL     1      16.170  27.824  14.049  0.00  0.00    +0.004 A 
ATOM     30  C4  UNL     1      15.739  27.120  15.177  0.00  0.00    +0.005 A 
ATOM     31  C5  UNL     1      14.544  27.466  15.822  0.00  0.00    -0.028 A 
ATOM     32  C25 UNL     1      13.801  28.546  15.326  0.00  0.00    +0.005 A 
ATOM     33  C26 UNL     1      14.232  29.249  14.198  0.00  0.00    +0.004 A 
ENDBRANCH  26  31
ENDBRANCH   1  26
TORSDOF 5
ENDMDL
MODEL 5
REMARK VINA RESULT:    -3.882      5.664      9.440
REMARK INTER + INTRA:          -6.156
REMARK INTER:                  -5.268
REMARK INTRA:                  -0.888
REMARK UNBOUND:                -1.139
REMARK  Name = /home/vital/Documents/PhD_2021/Malaria_codes/data/pdb_ligands_mmv/ligand_84.pdb
REMARK  6 active torsions:
REMARK  status: ('A' for Active; 'I' for Inactive)
REMARK    1  A    between atoms: C1_1  and  C2_2
REMARK    2  A    between atoms: C5_5  and  C6_6
REMARK    3  A    between atoms: C6_6  and  N1_7
REMARK    4  A    between atoms: C16_19  and  C19_22
REMARK    5  A    between atoms: N4_24  and  C20_25
REMARK    6  A    between atoms: C20_25  and  C21_26
REMARK                            x       y       z     vdW  Elec       q    Type
REMARK                         _______ _______ _______ _____ _____    ______ ____
ROOT
ATOM      1  N1  UNL     1      16.501  27.834  16.670  0.00  0.00    -0.307 N 
ATOM      2  C7  UNL     1      16.276  28.947  15.888  0.00  0.00    +0.200 A 
ATOM      3  N2  UNL     1      15.673  28.624  14.766  0.00  0.00    -0.214 NA
ATOM      4  C8  UNL     1      15.451  27.274  14.840  0.00  0.00    +0.091 A 
ATOM      5  C9  UNL     1      14.823  26.425  13.916  0.00  0.00    +0.030 A 
ATOM      6  C10 UNL     1      14.711  25.063  14.218  0.00  0.00    +0.002 A 
ATOM      7  C11 UNL     1      15.217  24.556  15.416  0.00  0.00    +0.002 A 
ATOM      8  C12 UNL     1      15.848  25.387  16.349  0.00  0.00    +0.028 A 
ATOM      9  C13 UNL     1      15.948  26.746  16.028  0.00  0.00    +0.070 A 
ATOM     10  N3  UNL     1      16.673  30.194  16.275  0.00  0.00    -0.301 N 
ATOM     11  C14 UNL     1      17.277  31.001  15.195  0.00  0.00    +0.108 C 
ATOM     12  C15 UNL     1      16.273  31.984  14.600  0.00  0.00    +0.032 C 
ATOM     13  C16 UNL     1      15.766  32.975  15.663  0.00  0.00    +0.078 C 
ATOM     14  C17 UNL     1      15.906  32.406  17.085  0.00  0.00    +0.032 C 
ATOM     15  C18 UNL     1      15.663  30.903  17.091  0.00  0.00    +0.108 C 
ENDROOT
BRANCH  13  16
ATOM     16  C19 UNL     1      16.468  34.324  15.537  0.00  0.00    +0.216 C 
ATOM     17  O1  UNL     1      17.340  34.563  14.707  0.00  0.00    -0.276 OA
ATOM     18  N4  UNL     1      16.038  35.260  16.450  0.00  0.00    -0.310 N 
ATOM     19  H21 UNL     1      15.497  34.952  17.248  0.00  0.00    +0.149 HD
BRANCH  18  20
ATOM     20  C20 UNL     1      16.684  36.548  16.541  0.00  0.00    +0.146 C 
BRANCH  20  21
ATOM     21  C21 UNL     1      15.691  37.598  16.163  0.00  0.00    +0.007 A 
ATOM     22  C22 UNL     1      15.715  38.442  15.071  0.00  0.00    +0.013 A 
ATOM     23  C23 UNL     1      14.590  39.315  15.034  0.00  0.00    +0.008 A 
ATOM     24  C24 UNL     1      13.743  39.108  16.099  0.00  0.00    +0.045 A 
ATOM     25  S1  UNL     1      14.304  37.868  17.134  0.00  0.00    -0.100 S 
ENDBRANCH  20  21
ENDBRANCH  18  20
ENDBRANCH  13  16
BRANCH   1  26
ATOM     26  C6  UNL     1      17.200  27.803  17.944  0.00  0.00    +0.160 C 
BRANCH  26  31
ATOM     27  C1  UNL     1      13.690  28.876  22.477  0.00  0.00    +0.044 C 
ATOM     28  C2  UNL     1      14.604  28.592  21.322  0.00  0.00    -0.050 A 
ATOM     29  C3  UNL     1      15.921  29.059  21.314  0.00  0.00    +0.004 A 
ATOM     30  C4  UNL     1      16.757  28.804  20.223  0.00  0.00    +0.005 A 
ATOM     31  C5  UNL     1      16.287  28.086  19.115  0.00  0.00    -0.028 A 
ATOM     32  C25 UNL     1      14.969  27.611  19.132  0.00  0.00    +0.005 A 
ATOM     33  C26 UNL     1      14.133  27.868  20.222  0.00  0.00    +0.004 A 
ENDBRANCH  26  31
ENDBRANCH   1  26
TORSDOF 5
ENDMDL
MODEL 6
REMARK VINA RESULT:    -3.879     19.159     23.056
REMARK INTER + INTRA:          -6.151
REMARK INTER:                  -5.159
REMARK INTRA:                  -0.992
REMARK UNBOUND:                -1.139
REMARK  Name = /home/vital/Documents/PhD_2021/Malaria_codes/data/pdb_ligands_mmv/ligand_84.pdb
REMARK  6 active torsions:
REMARK  status: ('A' for Active; 'I' for Inactive)
REMARK    1  A    between atoms: C1_1  and  C2_2
REMARK    2  A    between atoms: C5_5  and  C6_6
REMARK    3  A    between atoms: C6_6  and  N1_7
REMARK    4  A    between atoms: C16_19  and  C19_22
REMARK    5  A    between atoms: N4_24  and  C20_25
REMARK    6  A    between atoms: C20_25  and  C21_26
REMARK                            x       y       z     vdW  Elec       q    Type
REMARK                         _______ _______ _______ _____ _____    ______ ____
ROOT
ATOM      1  N1  UNL     1      15.618  44.721  26.918  0.00  0.00    -0.307 N 
ATOM      2  C7  UNL     1      15.123  45.233  28.099  0.00  0.00    +0.200 A 
ATOM      3  N2  UNL     1      14.441  46.335  27.890  0.00  0.00    -0.214 NA
ATOM      4  C8  UNL     1      14.444  46.521  26.531  0.00  0.00    +0.091 A 
ATOM      5  C9  UNL     1      13.845  47.537  25.772  0.00  0.00    +0.030 A 
ATOM      6  C10 UNL     1      13.988  47.513  24.380  0.00  0.00    +0.002 A 
ATOM      7  C11 UNL     1      14.715  46.499  23.757  0.00  0.00    +0.002 A 
ATOM      8  C12 UNL     1      15.322  45.477  24.498  0.00  0.00    +0.028 A 
ATOM      9  C13 UNL     1      15.165  45.519  25.889  0.00  0.00    +0.070 A 
ATOM     10  N3  UNL     1      15.366  44.635  29.302  0.00  0.00    -0.301 N 
ATOM     11  C14 UNL     1      15.693  45.577  30.392  0.00  0.00    +0.108 C 
ATOM     12  C15 UNL     1      14.480  45.860  31.273  0.00  0.00    +0.032 C 
ATOM     13  C16 UNL     1      13.963  44.573  31.940  0.00  0.00    +0.078 C 
ATOM     14  C17 UNL     1      14.371  43.319  31.150  0.00  0.00    +0.032 C 
ATOM     15  C18 UNL     1      14.369  43.600  29.653  0.00  0.00    +0.108 C 
ENDROOT
BRANCH  13  16
ATOM     16  C19 UNL     1      14.423  44.483  33.393  0.00  0.00    +0.216 C 
ATOM     17  O1  UNL     1      13.690  44.697  34.353  0.00  0.00    -0.276 OA
ATOM     18  N4  UNL     1      15.750  44.144  33.534  0.00  0.00    -0.310 N 
ATOM     19  H21 UNL     1      16.358  44.206  32.728  0.00  0.00    +0.149 HD
BRANCH  18  20
ATOM     20  C20 UNL     1      16.370  44.132  34.838  0.00  0.00    +0.146 C 
BRANCH  20  21
ATOM     21  C21 UNL     1      17.563  45.030  34.797  0.00  0.00    +0.007 A 
ATOM     22  C22 UNL     1      17.773  46.204  35.494  0.00  0.00    +0.013 A 
ATOM     23  C23 UNL     1      19.038  46.789  35.203  0.00  0.00    +0.008 A 
ATOM     24  C24 UNL     1      19.753  46.044  34.294  0.00  0.00    +0.045 A 
ATOM     25  S1  UNL     1      18.901  44.647  33.797  0.00  0.00    -0.100 S 
ENDBRANCH  20  21
ENDBRANCH  18  20
ENDBRANCH  13  16
BRANCH   1  26
ATOM     26  C6  UNL     1      16.470  43.552  26.775  0.00  0.00    +0.160 C 
BRANCH  26  31
ATOM     27  C1  UNL     1      13.908  39.293  23.722  0.00  0.00    +0.044 C 
ATOM     28  C2  UNL     1      14.568  40.398  24.492  0.00  0.00    -0.050 A 
ATOM     29  C3  UNL     1      15.865  40.818  24.180  0.00  0.00    +0.004 A 
ATOM     30  C4  UNL     1      16.476  41.835  24.918  0.00  0.00    +0.005 A 
ATOM     31  C5  UNL     1      15.807  42.443  25.990  0.00  0.00    -0.028 A 
ATOM     32  C25 UNL     1      14.504  42.026  26.292  0.00  0.00    +0.005 A 
ATOM     33  C26 UNL     1      13.894  41.008  25.555  0.00  0.00    +0.004 A 
ENDBRANCH  26  31
ENDBRANCH   1  26
TORSDOF 5
ENDMDL
MODEL 7
REMARK VINA RESULT:    -3.782     18.112     20.649
REMARK INTER + INTRA:          -6.027
REMARK INTER:                  -5.176
REMARK INTRA:                  -0.851
REMARK UNBOUND:                -1.139
REMARK  Name = /home/vital/Documents/PhD_2021/Malaria_codes/data/pdb_ligands_mmv/ligand_84.pdb
REMARK  6 active torsions:
REMARK  status: ('A' for Active; 'I' for Inactive)
REMARK    1  A    between atoms: C1_1  and  C2_2
REMARK    2  A    between atoms: C5_5  and  C6_6
REMARK    3  A    between atoms: C6_6  and  N1_7
REMARK    4  A    between atoms: C16_19  and  C19_22
REMARK    5  A    between atoms: N4_24  and  C20_25
REMARK    6  A    between atoms: C20_25  and  C21_26
REMARK                            x       y       z     vdW  Elec       q    Type
REMARK                         _______ _______ _______ _____ _____    ______ ____
ROOT
ATOM      1  N1  UNL     1      36.463  25.593  15.232  0.00  0.00    -0.307 N 
ATOM      2  C7  UNL     1      36.960  26.857  14.999  0.00  0.00    +0.200 A 
ATOM      3  N2  UNL     1      37.829  26.852  14.015  0.00  0.00    -0.214 NA
ATOM      4  C8  UNL     1      37.863  25.560  13.556  0.00  0.00    +0.091 A 
ATOM      5  C9  UNL     1      38.611  25.010  12.505  0.00  0.00    +0.030 A 
ATOM      6  C10 UNL     1      38.473  23.646  12.220  0.00  0.00    +0.002 A 
ATOM      7  C11 UNL     1      37.609  22.847  12.969  0.00  0.00    +0.002 A 
ATOM      8  C12 UNL     1      36.857  23.378  14.024  0.00  0.00    +0.028 A 
ATOM      9  C13 UNL     1      37.008  24.744  14.290  0.00  0.00    +0.070 A 
ATOM     10  N3  UNL     1      36.575  27.933  15.746  0.00  0.00    -0.301 N 
ATOM     11  C14 UNL     1      37.681  28.837  16.122  0.00  0.00    +0.108 C 
ATOM     12  C15 UNL     1      37.747  30.054  15.203  0.00  0.00    +0.032 C 
ATOM     13  C16 UNL     1      36.452  30.882  15.280  0.00  0.00    +0.078 C 
ATOM     14  C17 UNL     1      35.260  30.032  15.751  0.00  0.00    +0.032 C 
ATOM     15  C18 UNL     1      35.369  28.609  15.221  0.00  0.00    +0.108 C 
ENDROOT
BRANCH  13  16
ATOM     16  C19 UNL     1      36.637  32.112  16.165  0.00  0.00    +0.216 C 
ATOM     17  O1  UNL     1      36.669  32.070  17.390  0.00  0.00    -0.276 OA
ATOM     18  N4  UNL     1      36.759  33.288  15.460  0.00  0.00    -0.310 N 
ATOM     19  H21 UNL     1      36.497  33.301  14.483  0.00  0.00    +0.149 HD
BRANCH  18  20
ATOM     20  C20 UNL     1      36.821  34.555  16.151  0.00  0.00    +0.146 C 
BRANCH  20  21
ATOM     21  C21 UNL     1      37.278  35.594  15.181  0.00  0.00    +0.007 A 
ATOM     22  C22 UNL     1      37.238  35.551  13.801  0.00  0.00    +0.013 A 
ATOM     23  C23 UNL     1      37.759  36.734  13.205  0.00  0.00    +0.008 A 
ATOM     24  C24 UNL     1      38.180  37.643  14.148  0.00  0.00    +0.045 A 
ATOM     25  S1  UNL     1      37.945  37.070  15.742  0.00  0.00    -0.100 S 
ENDBRANCH  20  21
ENDBRANCH  18  20
ENDBRANCH  13  16
BRANCH   1  26
ATOM     26  C6  UNL     1      35.533  25.211  16.282  0.00  0.00    +0.160 C 
BRANCH  26  31
ATOM     27  C1  UNL     1      38.190  22.591  20.764  0.00  0.00    +0.044 C 
ATOM     28  C2  UNL     1      37.519  23.259  19.601  0.00  0.00    -0.050 A 
ATOM     29  C3  UNL     1      38.172  24.254  18.867  0.00  0.00    +0.004 A 
ATOM     30  C4  UNL     1      37.529  24.883  17.798  0.00  0.00    +0.005 A 
ATOM     31  C5  UNL     1      36.217  24.536  17.448  0.00  0.00    -0.028 A 
ATOM     32  C25 UNL     1      35.571  23.531  18.179  0.00  0.00    +0.005 A 
ATOM     33  C26 UNL     1      36.213  22.904  19.250  0.00  0.00    +0.004 A 
ENDBRANCH  26  31
ENDBRANCH   1  26
TORSDOF 5
ENDMDL
MODEL 8
REMARK VINA RESULT:    -3.755      5.730      9.438
REMARK INTER + INTRA:          -5.992
REMARK INTER:                  -4.950
REMARK INTRA:                  -1.041
REMARK UNBOUND:                -1.139
REMARK  Name = /home/vital/Documents/PhD_2021/Malaria_codes/data/pdb_ligands_mmv/ligand_84.pdb
REMARK  6 active torsions:
REMARK  status: ('A' for Active; 'I' for Inactive)
REMARK    1  A    between atoms: C1_1  and  C2_2
REMARK    2  A    between atoms: C5_5  and  C6_6
REMARK    3  A    between atoms: C6_6  and  N1_7
REMARK    4  A    between atoms: C16_19  and  C19_22
REMARK    5  A    between atoms: N4_24  and  C20_25
REMARK    6  A    between atoms: C20_25  and  C21_26
REMARK                            x       y       z     vdW  Elec       q    Type
REMARK                         _______ _______ _______ _____ _____    ______ ____
ROOT
ATOM      1  N1  UNL     1      16.800  27.900  16.352  0.00  0.00    -0.307 N 
ATOM      2  C7  UNL     1      16.380  29.007  15.647  0.00  0.00    +0.200 A 
ATOM      3  N2  UNL     1      15.590  28.667  14.655  0.00  0.00    -0.214 NA
ATOM      4  C8  UNL     1      15.448  27.306  14.744  0.00  0.00    +0.091 A 
ATOM      5  C9  UNL     1      14.695  26.437  13.940  0.00  0.00    +0.030 A 
ATOM      6  C10 UNL     1      14.705  25.068  14.233  0.00  0.00    +0.002 A 
ATOM      7  C11 UNL     1      15.452  24.575  15.304  0.00  0.00    +0.002 A 
ATOM      8  C12 UNL     1      16.211  25.427  16.115  0.00  0.00    +0.028 A 
ATOM      9  C13 UNL     1      16.185  26.792  15.806  0.00  0.00    +0.070 A 
ATOM     10  N3  UNL     1      16.786  30.269  15.975  0.00  0.00    -0.301 N 
ATOM     11  C14 UNL     1      17.136  31.114  14.816  0.00  0.00    +0.108 C 
ATOM     12  C15 UNL     1      15.994  32.053  14.440  0.00  0.00    +0.032 C 
ATOM     13  C16 UNL     1      15.654  33.008  15.597  0.00  0.00    +0.078 C 
ATOM     14  C17 UNL     1      16.087  32.433  16.956  0.00  0.00    +0.032 C 
ATOM     15  C18 UNL     1      15.918  30.920  16.981  0.00  0.00    +0.108 C 
ENDROOT
BRANCH  13  16
ATOM     16  C19 UNL     1      16.257  34.391  15.365  0.00  0.00    +0.216 C 
ATOM     17  O1  UNL     1      16.812  34.725  14.324  0.00  0.00    -0.276 OA
ATOM     18  N4  UNL     1      16.127  35.239  16.441  0.00  0.00    -0.310 N 
ATOM     19  H21 UNL     1      15.876  34.852  17.342  0.00  0.00    +0.149 HD
BRANCH  18  20
ATOM     20  C20 UNL     1      16.748  36.543  16.427  0.00  0.00    +0.146 C 
BRANCH  20  21
ATOM     21  C21 UNL     1      15.698  37.558  16.113  0.00  0.00    +0.007 A 
ATOM     22  C22 UNL     1      15.640  38.421  15.036  0.00  0.00    +0.013 A 
ATOM     23  C23 UNL     1      14.481  39.248  15.064  0.00  0.00    +0.008 A 
ATOM     24  C24 UNL     1      13.691  38.988  16.161  0.00  0.00    +0.045 A 
ATOM     25  S1  UNL     1      14.346  37.755  17.148  0.00  0.00    -0.100 S 
ENDBRANCH  20  21
ENDBRANCH  18  20
ENDBRANCH  13  16
BRANCH   1  26
ATOM     26  C6  UNL     1      17.729  27.890  17.470  0.00  0.00    +0.160 C 
BRANCH  26  31
ATOM     27  C1  UNL     1      22.952  25.754  15.995  0.00  0.00    +0.044 C 
ATOM     28  C2  UNL     1      21.605  26.303  16.358  0.00  0.00    -0.050 A 
ATOM     29  C3  UNL     1      21.171  27.535  15.858  0.00  0.00    +0.004 A 
ATOM     30  C4  UNL     1      19.921  28.045  16.219  0.00  0.00    +0.005 A 
ATOM     31  C5  UNL     1      19.085  27.339  17.095  0.00  0.00    -0.028 A 
ATOM     32  C25 UNL     1      19.520  26.100  17.584  0.00  0.00    +0.005 A 
ATOM     33  C26 UNL     1      20.771  25.591  17.225  0.00  0.00    +0.004 A 
ENDBRANCH  26  31
ENDBRANCH   1  26
TORSDOF 5
ENDMDL
MODEL 9
REMARK VINA RESULT:    -3.195      5.088      8.543
REMARK INTER + INTRA:          -5.268
REMARK INTER:                  -4.463
REMARK INTRA:                  -0.805
REMARK UNBOUND:                -1.139
REMARK  Name = /home/vital/Documents/PhD_2021/Malaria_codes/data/pdb_ligands_mmv/ligand_84.pdb
REMARK  6 active torsions:
REMARK  status: ('A' for Active; 'I' for Inactive)
REMARK    1  A    between atoms: C1_1  and  C2_2
REMARK    2  A    between atoms: C5_5  and  C6_6
REMARK    3  A    between atoms: C6_6  and  N1_7
REMARK    4  A    between atoms: C16_19  and  C19_22
REMARK    5  A    between atoms: N4_24  and  C20_25
REMARK    6  A    between atoms: C20_25  and  C21_26
REMARK                            x       y       z     vdW  Elec       q    Type
REMARK                         _______ _______ _______ _____ _____    ______ ____
ROOT
ATOM      1  N1  UNL     1      14.687  25.952  17.279  0.00  0.00    -0.307 N 
ATOM      2  C7  UNL     1      14.999  26.565  18.474  0.00  0.00    +0.200 A 
ATOM      3  N2  UNL     1      15.898  25.878  19.140  0.00  0.00    -0.214 NA
ATOM      4  C8  UNL     1      16.221  24.814  18.337  0.00  0.00    +0.091 A 
ATOM      5  C9  UNL     1      17.143  23.781  18.560  0.00  0.00    +0.030 A 
ATOM      6  C10 UNL     1      17.303  22.795  17.579  0.00  0.00    +0.002 A 
ATOM      7  C11 UNL     1      16.557  22.837  16.401  0.00  0.00    +0.002 A 
ATOM      8  C12 UNL     1      15.630  23.859  16.162  0.00  0.00    +0.028 A 
ATOM      9  C13 UNL     1      15.488  24.836  17.155  0.00  0.00    +0.070 A 
ATOM     10  N3  UNL     1      14.400  27.726  18.867  0.00  0.00    -0.301 N 
ATOM     11  C14 UNL     1      14.019  27.759  20.294  0.00  0.00    +0.108 C 
ATOM     12  C15 UNL     1      15.044  28.520  21.130  0.00  0.00    +0.032 C 
ATOM     13  C16 UNL     1      15.164  29.983  20.670  0.00  0.00    +0.078 C 
ATOM     14  C17 UNL     1      14.718  30.159  19.209  0.00  0.00    +0.032 C 
ATOM     15  C18 UNL     1      15.093  28.938  18.379  0.00  0.00    +0.108 C 
ENDROOT
BRANCH  13  16
ATOM     16  C19 UNL     1      14.393  30.918  21.598  0.00  0.00    +0.216 C 
ATOM     17  O1  UNL     1      13.745  30.532  22.566  0.00  0.00    -0.276 OA
ATOM     18  N4  UNL     1      14.483  32.246  21.248  0.00  0.00    -0.310 N 
ATOM     19  H21 UNL     1      14.827  32.486  20.327  0.00  0.00    +0.149 HD
BRANCH  18  20
ATOM     20  C20 UNL     1      13.715  33.245  21.954  0.00  0.00    +0.146 C 
BRANCH  20  21
ATOM     21  C21 UNL     1      14.503  34.513  21.972  0.00  0.00    +0.007 A 
ATOM     22  C22 UNL     1      15.560  34.874  21.158  0.00  0.00    +0.013 A 
ATOM     23  C23 UNL     1      16.064  36.170  21.464  0.00  0.00    +0.008 A 
ATOM     24  C24 UNL     1      15.376  36.757  22.501  0.00  0.00    +0.045 A 
ATOM     25  S1  UNL     1      14.131  35.750  23.099  0.00  0.00    -0.100 S 
ENDBRANCH  20  21
ENDBRANCH  18  20
ENDBRANCH  13  16
BRANCH   1  26
ATOM     26  C6  UNL     1      13.690  26.393  16.317  0.00  0.00    +0.160 C 
BRANCH  26  31
ATOM     27  C1  UNL     1      15.954  29.872  12.220  0.00  0.00    +0.044 C 
ATOM     28  C2  UNL     1      15.388  28.974  13.279  0.00  0.00    -0.050 A 
ATOM     29  C3  UNL     1      15.673  27.605  13.289  0.00  0.00    +0.004 A 
ATOM     30  C4  UNL     1      15.124  26.774  14.270  0.00  0.00    +0.005 A 
ATOM     31  C5  UNL     1      14.270  27.295  15.252  0.00  0.00    -0.028 A 
ATOM     32  C25 UNL     1      13.996  28.669  15.244  0.00  0.00    +0.005 A 
ATOM     33  C26 UNL     1      14.543  29.499  14.262  0.00  0.00    +0.004 A 
ENDBRANCH  26  31
ENDBRANCH   1  26
TORSDOF 5
ENDMDL
