MODEL 1
REMARK VINA RESULT:    -4.363      0.000      0.000
REMARK INTER + INTRA:          -5.513
REMARK INTER:                  -5.129
REMARK INTRA:                  -0.385
REMARK UNBOUND:                -0.385
REMARK  Name = /home/vital/Documents/PhD_2021/Malaria_codes/data/pdb_ligands_mmv/ligand_178.pdb
REMARK  6 active torsions:
REMARK  status: ('A' for Active; 'I' for Inactive)
REMARK    1  A    between atoms: C1_1  and  C2_2
REMARK    2  A    between atoms: C2_2  and  O1_3
REMARK    3  A    between atoms: O1_3  and  C3_4
REMARK    4  A    between atoms: C6_7  and  C9_10
REMARK    5  A    between atoms: N1_11  and  C10_12
REMARK    6  A    between atoms: N2_19  and  C17_20
REMARK                            x       y       z     vdW  Elec       q    Type
REMARK                         _______ _______ _______ _____ _____    ______ ____
ROOT
ATOM      1  C9  UNL     1      16.438  26.981  14.011  0.00  0.00    +0.192 C 
ATOM      2  N1  UNL     1      15.419  25.897  13.943  0.00  0.00    -0.309 N 
ATOM      3  C10 UNL     1      14.005  26.230  14.064  0.00  0.00    +0.131 C 
ATOM      4  C11 UNL     1      15.842  25.046  15.003  0.00  0.00    +0.052 A 
ATOM      5  C12 UNL     1      15.347  23.787  15.307  0.00  0.00    +0.025 A 
ATOM      6  C13 UNL     1      15.905  23.094  16.384  0.00  0.00    +0.002 A 
ATOM      7  C14 UNL     1      16.939  23.667  17.138  0.00  0.00    +0.002 A 
ATOM      8  C15 UNL     1      17.428  24.938  16.824  0.00  0.00    +0.025 A 
ATOM      9  C16 UNL     1      16.877  25.617  15.749  0.00  0.00    +0.052 A 
ATOM     10  N2  UNL     1      17.173  26.914  15.294  0.00  0.00    -0.309 N 
ATOM     11  C17 UNL     1      18.577  27.283  15.279  0.00  0.00    +0.131 C 
ENDROOT
BRANCH   1  15
ATOM     12  C3  UNL     1      14.909  30.999  13.327  0.00  0.00    +0.121 A 
ATOM     13  C4  UNL     1      15.338  30.217  12.253  0.00  0.00    +0.046 A 
ATOM     14  C5  UNL     1      15.830  28.925  12.458  0.00  0.00    +0.010 A 
ATOM     15  C6  UNL     1      15.891  28.380  13.749  0.00  0.00    -0.009 A 
ATOM     16  C7  UNL     1      15.459  29.176  14.825  0.00  0.00    +0.010 A 
ATOM     17  C8  UNL     1      14.969  30.471  14.615  0.00  0.00    +0.046 A 
BRANCH  12  18
ATOM     18  O1  UNL     1      14.452  32.238  12.977  0.00  0.00    -0.492 OA
BRANCH  18  20
ATOM     19  C1  UNL     1      16.485  33.550  13.135  0.00  0.00    +0.048 C 
ATOM     20  C2  UNL     1      15.320  33.117  12.264  0.00  0.00    +0.225 C 
ENDBRANCH  18  20
ENDBRANCH  12  18
ENDBRANCH   1  15
TORSDOF 3
ENDMDL
MODEL 2
REMARK VINA RESULT:    -3.922      1.510      2.624
REMARK INTER + INTRA:          -4.995
REMARK INTER:                  -4.671
REMARK INTRA:                  -0.323
REMARK UNBOUND:                -0.385
REMARK  Name = /home/vital/Documents/PhD_2021/Malaria_codes/data/pdb_ligands_mmv/ligand_178.pdb
REMARK  6 active torsions:
REMARK  status: ('A' for Active; 'I' for Inactive)
REMARK    1  A    between atoms: C1_1  and  C2_2
REMARK    2  A    between atoms: C2_2  and  O1_3
REMARK    3  A    between atoms: O1_3  and  C3_4
REMARK    4  A    between atoms: C6_7  and  C9_10
REMARK    5  A    between atoms: N1_11  and  C10_12
REMARK    6  A    between atoms: N2_19  and  C17_20
REMARK                            x       y       z     vdW  Elec       q    Type
REMARK                         _______ _______ _______ _____ _____    ______ ____
ROOT
ATOM      1  C9  UNL     1      15.019  26.502  15.883  0.00  0.00    +0.192 C 
ATOM      2  N1  UNL     1      15.663  26.729  17.206  0.00  0.00    -0.309 N 
ATOM      3  C10 UNL     1      16.678  27.767  17.343  0.00  0.00    +0.131 C 
ATOM      4  C11 UNL     1      16.203  25.441  17.481  0.00  0.00    +0.052 A 
ATOM      5  C12 UNL     1      16.787  25.018  18.666  0.00  0.00    +0.025 A 
ATOM      6  C13 UNL     1      17.246  23.702  18.751  0.00  0.00    +0.002 A 
ATOM      7  C14 UNL     1      17.120  22.834  17.657  0.00  0.00    +0.002 A 
ATOM      8  C15 UNL     1      16.532  23.271  16.466  0.00  0.00    +0.025 A 
ATOM      9  C16 UNL     1      16.069  24.575  16.392  0.00  0.00    +0.052 A 
ATOM     10  N2  UNL     1      15.501  25.236  15.287  0.00  0.00    -0.309 N 
ATOM     11  C17 UNL     1      14.557  24.467  14.497  0.00  0.00    +0.131 C 
ENDROOT
BRANCH   1  15
ATOM     12  C3  UNL     1      15.406  29.779  13.044  0.00  0.00    +0.121 A 
ATOM     13  C4  UNL     1      14.429  29.823  14.041  0.00  0.00    +0.046 A 
ATOM     14  C5  UNL     1      14.294  28.778  14.960  0.00  0.00    +0.010 A 
ATOM     15  C6  UNL     1      15.148  27.667  14.908  0.00  0.00    -0.009 A 
ATOM     16  C7  UNL     1      16.128  27.630  13.900  0.00  0.00    +0.010 A 
ATOM     17  C8  UNL     1      16.257  28.678  12.979  0.00  0.00    +0.046 A 
BRANCH  12  18
ATOM     18  O1  UNL     1      15.422  30.868  12.220  0.00  0.00    -0.492 OA
BRANCH  18  20
ATOM     19  C1  UNL     1      15.712  33.087  13.154  0.00  0.00    +0.048 C 
ATOM     20  C2  UNL     1      14.736  32.051  12.626  0.00  0.00    +0.225 C 
ENDBRANCH  18  20
ENDBRANCH  12  18
ENDBRANCH   1  15
TORSDOF 3
ENDMDL
MODEL 3
REMARK VINA RESULT:    -3.673      1.640      2.076
REMARK INTER + INTRA:          -4.701
REMARK INTER:                  -4.391
REMARK INTRA:                  -0.311
REMARK UNBOUND:                -0.385
REMARK  Name = /home/vital/Documents/PhD_2021/Malaria_codes/data/pdb_ligands_mmv/ligand_178.pdb
REMARK  6 active torsions:
REMARK  status: ('A' for Active; 'I' for Inactive)
REMARK    1  A    between atoms: C1_1  and  C2_2
REMARK    2  A    between atoms: C2_2  and  O1_3
REMARK    3  A    between atoms: O1_3  and  C3_4
REMARK    4  A    between atoms: C6_7  and  C9_10
REMARK    5  A    between atoms: N1_11  and  C10_12
REMARK    6  A    between atoms: N2_19  and  C17_20
REMARK                            x       y       z     vdW  Elec       q    Type
REMARK                         _______ _______ _______ _____ _____    ______ ____
ROOT
ATOM      1  C9  UNL     1      16.055  27.910  14.281  0.00  0.00    +0.192 C 
ATOM      2  N1  UNL     1      14.901  26.993  14.493  0.00  0.00    -0.309 N 
ATOM      3  C10 UNL     1      13.725  27.470  15.212  0.00  0.00    +0.131 C 
ATOM      4  C11 UNL     1      15.522  25.911  15.179  0.00  0.00    +0.052 A 
ATOM      5  C12 UNL     1      14.951  24.688  15.497  0.00  0.00    +0.025 A 
ATOM      6  C13 UNL     1      15.731  23.741  16.163  0.00  0.00    +0.002 A 
ATOM      7  C14 UNL     1      17.060  24.029  16.504  0.00  0.00    +0.002 A 
ATOM      8  C15 UNL     1      17.625  25.266  16.182  0.00  0.00    +0.025 A 
ATOM      9  C16 UNL     1      16.849  26.198  15.512  0.00  0.00    +0.052 A 
ATOM     10  N2  UNL     1      17.191  27.511  15.142  0.00  0.00    -0.309 N 
ATOM     11  C17 UNL     1      18.529  27.699  14.611  0.00  0.00    +0.131 C 
ENDROOT
BRANCH   1  15
ATOM     12  C3  UNL     1      15.049  32.125  14.688  0.00  0.00    +0.121 A 
ATOM     13  C4  UNL     1      15.671  31.445  15.738  0.00  0.00    +0.046 A 
ATOM     14  C5  UNL     1      16.000  30.092  15.620  0.00  0.00    +0.010 A 
ATOM     15  C6  UNL     1      15.724  29.390  14.437  0.00  0.00    -0.009 A 
ATOM     16  C7  UNL     1      15.096  30.081  13.387  0.00  0.00    +0.010 A 
ATOM     17  C8  UNL     1      14.765  31.437  13.511  0.00  0.00    +0.046 A 
BRANCH  12  18
ATOM     18  O1  UNL     1      14.788  33.441  14.944  0.00  0.00    -0.492 OA
BRANCH  18  20
ATOM     19  C1  UNL     1      14.489  34.767  16.952  0.00  0.00    +0.048 C 
ATOM     20  C2  UNL     1      15.472  34.085  16.017  0.00  0.00    +0.225 C 
ENDBRANCH  18  20
ENDBRANCH  12  18
ENDBRANCH   1  15
TORSDOF 3
ENDMDL
MODEL 4
REMARK VINA RESULT:    -3.604      2.709      6.770
REMARK INTER + INTRA:          -4.620
REMARK INTER:                  -4.303
REMARK INTRA:                  -0.317
REMARK UNBOUND:                -0.385
REMARK  Name = /home/vital/Documents/PhD_2021/Malaria_codes/data/pdb_ligands_mmv/ligand_178.pdb
REMARK  6 active torsions:
REMARK  status: ('A' for Active; 'I' for Inactive)
REMARK    1  A    between atoms: C1_1  and  C2_2
REMARK    2  A    between atoms: C2_2  and  O1_3
REMARK    3  A    between atoms: O1_3  and  C3_4
REMARK    4  A    between atoms: C6_7  and  C9_10
REMARK    5  A    between atoms: N1_11  and  C10_12
REMARK    6  A    between atoms: N2_19  and  C17_20
REMARK                            x       y       z     vdW  Elec       q    Type
REMARK                         _______ _______ _______ _____ _____    ______ ____
ROOT
ATOM      1  C9  UNL     1      14.935  29.280  15.195  0.00  0.00    +0.192 C 
ATOM      2  N1  UNL     1      15.061  29.901  13.847  0.00  0.00    -0.309 N 
ATOM      3  C10 UNL     1      15.610  29.122  12.744  0.00  0.00    +0.131 C 
ATOM      4  C11 UNL     1      15.875  31.034  14.134  0.00  0.00    +0.052 A 
ATOM      5  C12 UNL     1      16.191  32.072  13.271  0.00  0.00    +0.025 A 
ATOM      6  C13 UNL     1      16.997  33.111  13.744  0.00  0.00    +0.002 A 
ATOM      7  C14 UNL     1      17.475  33.094  15.063  0.00  0.00    +0.002 A 
ATOM      8  C15 UNL     1      17.152  32.041  15.923  0.00  0.00    +0.025 A 
ATOM      9  C16 UNL     1      16.345  31.019  15.451  0.00  0.00    +0.052 A 
ATOM     10  N2  UNL     1      15.945  29.847  16.118  0.00  0.00    -0.309 N 
ATOM     11  C17 UNL     1      15.565  30.000  17.510  0.00  0.00    +0.131 C 
ENDROOT
BRANCH   1  15
ATOM     12  C3  UNL     1      15.086  24.930  15.242  0.00  0.00    +0.121 A 
ATOM     13  C4  UNL     1      13.862  25.590  15.114  0.00  0.00    +0.046 A 
ATOM     14  C5  UNL     1      13.800  26.986  15.095  0.00  0.00    +0.010 A 
ATOM     15  C6  UNL     1      14.969  27.755  15.194  0.00  0.00    -0.009 A 
ATOM     16  C7  UNL     1      16.196  27.082  15.325  0.00  0.00    +0.010 A 
ATOM     17  C8  UNL     1      16.253  25.683  15.345  0.00  0.00    +0.046 A 
BRANCH  12  18
ATOM     18  O1  UNL     1      14.995  23.567  15.242  0.00  0.00    -0.492 OA
BRANCH  18  20
ATOM     19  C1  UNL     1      15.637  22.966  17.502  0.00  0.00    +0.048 C 
ATOM     20  C2  UNL     1      15.924  22.813  16.019  0.00  0.00    +0.225 C 
ENDBRANCH  18  20
ENDBRANCH  12  18
ENDBRANCH   1  15
TORSDOF 3
ENDMDL
MODEL 5
REMARK VINA RESULT:    -3.586      1.748      2.448
REMARK INTER + INTRA:          -4.599
REMARK INTER:                  -4.221
REMARK INTRA:                  -0.378
REMARK UNBOUND:                -0.385
REMARK  Name = /home/vital/Documents/PhD_2021/Malaria_codes/data/pdb_ligands_mmv/ligand_178.pdb
REMARK  6 active torsions:
REMARK  status: ('A' for Active; 'I' for Inactive)
REMARK    1  A    between atoms: C1_1  and  C2_2
REMARK    2  A    between atoms: C2_2  and  O1_3
REMARK    3  A    between atoms: O1_3  and  C3_4
REMARK    4  A    between atoms: C6_7  and  C9_10
REMARK    5  A    between atoms: N1_11  and  C10_12
REMARK    6  A    between atoms: N2_19  and  C17_20
REMARK                            x       y       z     vdW  Elec       q    Type
REMARK                         _______ _______ _______ _____ _____    ______ ____
ROOT
ATOM      1  C9  UNL     1      14.709  28.018  14.927  0.00  0.00    +0.192 C 
ATOM      2  N1  UNL     1      14.582  27.987  16.410  0.00  0.00    -0.309 N 
ATOM      3  C10 UNL     1      15.290  28.976  17.214  0.00  0.00    +0.131 C 
ATOM      4  C11 UNL     1      15.029  26.667  16.704  0.00  0.00    +0.052 A 
ATOM      5  C12 UNL     1      14.980  26.025  17.932  0.00  0.00    +0.025 A 
ATOM      6  C13 UNL     1      15.456  24.715  18.019  0.00  0.00    +0.002 A 
ATOM      7  C14 UNL     1      15.975  24.071  16.886  0.00  0.00    +0.002 A 
ATOM      8  C15 UNL     1      16.022  24.729  15.653  0.00  0.00    +0.025 A 
ATOM      9  C16 UNL     1      15.539  26.026  15.572  0.00  0.00    +0.052 A 
ATOM     10  N2  UNL     1      15.540  26.886  14.459  0.00  0.00    -0.309 N 
ATOM     11  C17 UNL     1      15.194  26.285  13.184  0.00  0.00    +0.131 C 
ENDROOT
BRANCH   1  15
ATOM     12  C3  UNL     1      16.057  31.845  13.351  0.00  0.00    +0.121 A 
ATOM     13  C4  UNL     1      16.980  30.838  13.638  0.00  0.00    +0.046 A 
ATOM     14  C5  UNL     1      16.561  29.603  14.143  0.00  0.00    +0.010 A 
ATOM     15  C6  UNL     1      15.199  29.346  14.362  0.00  0.00    -0.009 A 
ATOM     16  C7  UNL     1      14.277  30.367  14.072  0.00  0.00    +0.010 A 
ATOM     17  C8  UNL     1      14.702  31.603  13.569  0.00  0.00    +0.046 A 
BRANCH  12  18
ATOM     18  O1  UNL     1      16.609  32.995  12.863  0.00  0.00    -0.492 OA
BRANCH  18  20
ATOM     19  C1  UNL     1      16.643  34.685  14.601  0.00  0.00    +0.048 C 
ATOM     20  C2  UNL     1      17.459  33.766  13.709  0.00  0.00    +0.225 C 
ENDBRANCH  18  20
ENDBRANCH  12  18
ENDBRANCH   1  15
TORSDOF 3
ENDMDL
MODEL 6
REMARK VINA RESULT:    -3.535      3.142      7.088
REMARK INTER + INTRA:          -4.539
REMARK INTER:                  -4.183
REMARK INTRA:                  -0.356
REMARK UNBOUND:                -0.385
REMARK  Name = /home/vital/Documents/PhD_2021/Malaria_codes/data/pdb_ligands_mmv/ligand_178.pdb
REMARK  6 active torsions:
REMARK  status: ('A' for Active; 'I' for Inactive)
REMARK    1  A    between atoms: C1_1  and  C2_2
REMARK    2  A    between atoms: C2_2  and  O1_3
REMARK    3  A    between atoms: O1_3  and  C3_4
REMARK    4  A    between atoms: C6_7  and  C9_10
REMARK    5  A    between atoms: N1_11  and  C10_12
REMARK    6  A    between atoms: N2_19  and  C17_20
REMARK                            x       y       z     vdW  Elec       q    Type
REMARK                         _______ _______ _______ _____ _____    ______ ____
ROOT
ATOM      1  C9  UNL     1      14.519  28.309  16.339  0.00  0.00    +0.192 C 
ATOM      2  N1  UNL     1      14.251  28.394  14.877  0.00  0.00    -0.309 N 
ATOM      3  C10 UNL     1      14.889  27.446  13.972  0.00  0.00    +0.131 C 
ATOM      4  C11 UNL     1      14.654  29.730  14.594  0.00  0.00    +0.052 A 
ATOM      5  C12 UNL     1      14.480  30.417  13.402  0.00  0.00    +0.025 A 
ATOM      6  C13 UNL     1      14.932  31.737  13.321  0.00  0.00    +0.002 A 
ATOM      7  C14 UNL     1      15.550  32.344  14.424  0.00  0.00    +0.002 A 
ATOM      8  C15 UNL     1      15.722  31.641  15.619  0.00  0.00    +0.025 A 
ATOM      9  C16 UNL     1      15.263  30.336  15.696  0.00  0.00    +0.052 A 
ATOM     10  N2  UNL     1      15.380  29.434  16.769  0.00  0.00    -0.309 N 
ATOM     11  C17 UNL     1      15.151  29.982  18.094  0.00  0.00    +0.131 C 
ENDROOT
BRANCH   1  15
ATOM     12  C3  UNL     1      16.165  24.514  17.695  0.00  0.00    +0.121 A 
ATOM     13  C4  UNL     1      14.783  24.714  17.673  0.00  0.00    +0.046 A 
ATOM     14  C5  UNL     1      14.242  25.927  17.238  0.00  0.00    +0.010 A 
ATOM     15  C6  UNL     1      15.076  26.967  16.803  0.00  0.00    -0.009 A 
ATOM     16  C7  UNL     1      16.466  26.758  16.831  0.00  0.00    +0.010 A 
ATOM     17  C8  UNL     1      17.004  25.541  17.270  0.00  0.00    +0.046 A 
BRANCH  12  18
ATOM     18  O1  UNL     1      16.551  23.282  18.141  0.00  0.00    -0.492 OA
BRANCH  18  20
ATOM     19  C1  UNL     1      17.665  23.490  20.284  0.00  0.00    +0.048 C 
ATOM     20  C2  UNL     1      17.803  23.151  18.811  0.00  0.00    +0.225 C 
ENDBRANCH  18  20
ENDBRANCH  12  18
ENDBRANCH   1  15
TORSDOF 3
ENDMDL
MODEL 7
REMARK VINA RESULT:    -3.384      3.216      7.174
REMARK INTER + INTRA:          -4.362
REMARK INTER:                  -4.027
REMARK INTRA:                  -0.334
REMARK UNBOUND:                -0.385
REMARK  Name = /home/vital/Documents/PhD_2021/Malaria_codes/data/pdb_ligands_mmv/ligand_178.pdb
REMARK  6 active torsions:
REMARK  status: ('A' for Active; 'I' for Inactive)
REMARK    1  A    between atoms: C1_1  and  C2_2
REMARK    2  A    between atoms: C2_2  and  O1_3
REMARK    3  A    between atoms: O1_3  and  C3_4
REMARK    4  A    between atoms: C6_7  and  C9_10
REMARK    5  A    between atoms: N1_11  and  C10_12
REMARK    6  A    between atoms: N2_19  and  C17_20
REMARK                            x       y       z     vdW  Elec       q    Type
REMARK                         _______ _______ _______ _____ _____    ______ ____
ROOT
ATOM      1  C9  UNL     1      15.551  26.346  15.474  0.00  0.00    +0.192 C 
ATOM      2  N1  UNL     1      16.263  26.717  14.219  0.00  0.00    -0.309 N 
ATOM      3  C10 UNL     1      17.720  26.695  14.185  0.00  0.00    +0.131 C 
ATOM      4  C11 UNL     1      15.761  28.029  13.988  0.00  0.00    +0.052 A 
ATOM      5  C12 UNL     1      15.964  28.812  12.862  0.00  0.00    +0.025 A 
ATOM      6  C13 UNL     1      15.372  30.076  12.813  0.00  0.00    +0.002 A 
ATOM      7  C14 UNL     1      14.595  30.539  13.884  0.00  0.00    +0.002 A 
ATOM      8  C15 UNL     1      14.399  29.742  15.016  0.00  0.00    +0.025 A 
ATOM      9  C16 UNL     1      14.981  28.485  15.055  0.00  0.00    +0.052 A 
ATOM     10  N2  UNL     1      14.962  27.549  16.105  0.00  0.00    -0.309 N 
ATOM     11  C17 UNL     1      13.697  27.388  16.797  0.00  0.00    +0.131 C 
ENDROOT
BRANCH   1  15
ATOM     12  C3  UNL     1      17.924  24.108  18.356  0.00  0.00    +0.121 A 
ATOM     13  C4  UNL     1      17.285  23.446  17.306  0.00  0.00    +0.046 A 
ATOM     14  C5  UNL     1      16.521  24.153  16.372  0.00  0.00    +0.010 A 
ATOM     15  C6  UNL     1      16.390  25.547  16.464  0.00  0.00    -0.009 A 
ATOM     16  C7  UNL     1      17.035  26.204  17.526  0.00  0.00    +0.010 A 
ATOM     17  C8  UNL     1      17.798  25.492  18.461  0.00  0.00    +0.046 A 
BRANCH  12  18
ATOM     18  O1  UNL     1      18.636  23.292  19.188  0.00  0.00    -0.492 OA
BRANCH  18  20
ATOM     19  C1  UNL     1      18.353  23.168  21.593  0.00  0.00    +0.048 C 
ATOM     20  C2  UNL     1      19.096  23.810  20.435  0.00  0.00    +0.225 C 
ENDBRANCH  18  20
ENDBRANCH  12  18
ENDBRANCH   1  15
TORSDOF 3
ENDMDL
MODEL 8
REMARK VINA RESULT:    -3.279      2.341      3.606
REMARK INTER + INTRA:          -4.238
REMARK INTER:                  -3.881
REMARK INTRA:                  -0.357
REMARK UNBOUND:                -0.385
REMARK  Name = /home/vital/Documents/PhD_2021/Malaria_codes/data/pdb_ligands_mmv/ligand_178.pdb
REMARK  6 active torsions:
REMARK  status: ('A' for Active; 'I' for Inactive)
REMARK    1  A    between atoms: C1_1  and  C2_2
REMARK    2  A    between atoms: C2_2  and  O1_3
REMARK    3  A    between atoms: O1_3  and  C3_4
REMARK    4  A    between atoms: C6_7  and  C9_10
REMARK    5  A    between atoms: N1_11  and  C10_12
REMARK    6  A    between atoms: N2_19  and  C17_20
REMARK                            x       y       z     vdW  Elec       q    Type
REMARK                         _______ _______ _______ _____ _____    ______ ____
ROOT
ATOM      1  C9  UNL     1      15.404  25.794  17.354  0.00  0.00    +0.192 C 
ATOM      2  N1  UNL     1      15.841  26.366  18.657  0.00  0.00    -0.309 N 
ATOM      3  C10 UNL     1      16.448  27.691  18.693  0.00  0.00    +0.131 C 
ATOM      4  C11 UNL     1      16.751  25.369  19.111  0.00  0.00    +0.052 A 
ATOM      5  C12 UNL     1      17.354  25.298  20.358  0.00  0.00    +0.025 A 
ATOM      6  C13 UNL     1      18.211  24.227  20.624  0.00  0.00    +0.002 A 
ATOM      7  C14 UNL     1      18.455  23.253  19.646  0.00  0.00    +0.002 A 
ATOM      8  C15 UNL     1      17.844  23.336  18.391  0.00  0.00    +0.025 A 
ATOM      9  C16 UNL     1      16.987  24.395  18.137  0.00  0.00    +0.052 A 
ATOM     10  N2  UNL     1      16.316  24.703  16.940  0.00  0.00    -0.309 N 
ATOM     11  C17 UNL     1      15.735  23.582  16.224  0.00  0.00    +0.131 C 
ENDROOT
BRANCH   1  15
ATOM     12  C3  UNL     1      14.824  28.766  14.227  0.00  0.00    +0.121 A 
ATOM     13  C4  UNL     1      16.052  28.115  14.360  0.00  0.00    +0.046 A 
ATOM     14  C5  UNL     1      16.251  27.157  15.359  0.00  0.00    +0.010 A 
ATOM     15  C6  UNL     1      15.216  26.821  16.243  0.00  0.00    -0.009 A 
ATOM     16  C7  UNL     1      13.983  27.483  16.103  0.00  0.00    +0.010 A 
ATOM     17  C8  UNL     1      13.789  28.444  15.102  0.00  0.00    +0.046 A 
BRANCH  12  18
ATOM     18  O1  UNL     1      14.774  29.674  13.208  0.00  0.00    -0.492 OA
BRANCH  18  20
ATOM     19  C1  UNL     1      14.623  31.973  13.966  0.00  0.00    +0.048 C 
ATOM     20  C2  UNL     1      15.494  30.899  13.338  0.00  0.00    +0.225 C 
ENDBRANCH  18  20
ENDBRANCH  12  18
ENDBRANCH   1  15
TORSDOF 3
ENDMDL
