MODEL 1
REMARK VINA RESULT:    -4.178      0.000      0.000
REMARK INTER + INTRA:          -7.295
REMARK INTER:                  -6.010
REMARK INTRA:                  -1.285
REMARK UNBOUND:                -1.285
REMARK  Name = /home/vital/Documents/PhD_2021/Malaria_codes/data/pdb_ligands_mmv/ligand_300.pdb
REMARK  9 active torsions:
REMARK  status: ('A' for Active; 'I' for Inactive)
REMARK    1  A    between atoms: C1_1  and  C2_2
REMARK    2  A    between atoms: C2_2  and  C3_3
REMARK    3  A    between atoms: C3_3  and  O1_4
REMARK    4  A    between atoms: O1_4  and  C4_5
REMARK    5  A    between atoms: C4_5  and  C5_6
REMARK    6  A    between atoms: C7_8  and  C8_9
REMARK    7  A    between atoms: C8_9  and  N1_10
REMARK    8  A    between atoms: N2_13  and  C13_16
REMARK    9  A    between atoms: C19_23  and  O2_24
REMARK                            x       y       z     vdW  Elec       q    Type
REMARK                         _______ _______ _______ _____ _____    ______ ____
ROOT
ATOM      1  C5  UNL     1      15.059  29.570  15.448  0.00  0.00    -0.012 A 
ATOM      2  C6  UNL     1      15.746  30.788  15.287  0.00  0.00    +0.015 A 
ATOM      3  C7  UNL     1      16.206  31.518  16.385  0.00  0.00    +0.010 A 
ATOM      4  C19 UNL     1      15.964  31.000  17.667  0.00  0.00    +0.147 A 
ATOM      5  C20 UNL     1      15.302  29.782  17.887  0.00  0.00    +0.113 A 
ATOM      6  N3  UNL     1      15.119  29.332  19.151  0.00  0.00    -0.251 NA
ATOM      7  C21 UNL     1      14.498  28.154  19.348  0.00  0.00    +0.111 A 
ATOM      8  C22 UNL     1      14.035  27.362  18.325  0.00  0.00    +0.020 A 
ATOM      9  C23 UNL     1      14.220  27.813  17.024  0.00  0.00    +0.012 A 
ATOM     10  C24 UNL     1      14.855  29.049  16.759  0.00  0.00    +0.009 A 
ENDROOT
BRANCH   4  11
ATOM     11  O2  UNL     1      16.411  31.708  18.766  0.00  0.00    -0.504 OA
ATOM     12  H25 UNL     1      17.311  31.378  18.970  0.00  0.00    +0.292 HD
ENDBRANCH   4  11
BRANCH   1  13
ATOM     13  C4  UNL     1      14.612  28.845  14.191  0.00  0.00    +0.195 C 
BRANCH  13  14
ATOM     14  O1  UNL     1      15.655  28.047  13.619  0.00  0.00    -0.375 OA
BRANCH  14  15
ATOM     15  C3  UNL     1      15.222  26.733  13.252  0.00  0.00    +0.160 C 
BRANCH  15  17
ATOM     16  C1  UNL     1      14.667  24.582  14.471  0.00  0.00    +0.006 C 
ATOM     17  C2  UNL     1      15.655  25.732  14.322  0.00  0.00    +0.025 C 
ENDBRANCH  15  17
ENDBRANCH  14  15
ENDBRANCH  13  14
ENDBRANCH   1  13
BRANCH   3  18
ATOM     18  C8  UNL     1      16.864  32.864  16.154  0.00  0.00    +0.123 C 
BRANCH  18  19
ATOM     19  N1  UNL     1      16.313  33.942  17.003  0.00  0.00    -0.295 NA
ATOM     20  C9  UNL     1      17.291  35.039  17.220  0.00  0.00    +0.103 C 
ATOM     21  C10 UNL     1      17.213  36.227  16.231  0.00  0.00    +0.120 C 
ATOM     22  N2  UNL     1      15.857  36.803  16.184  0.00  0.00    -0.327 N 
ATOM     23  C11 UNL     1      14.766  35.954  16.688  0.00  0.00    +0.120 C 
ATOM     24  C12 UNL     1      15.067  34.467  16.387  0.00  0.00    +0.103 C 
BRANCH  22  25
ATOM     25  C13 UNL     1      15.661  38.138  15.858  0.00  0.00    +0.031 A 
ATOM     26  C14 UNL     1      14.511  38.581  15.183  0.00  0.00    +0.023 A 
ATOM     27  C15 UNL     1      14.313  39.927  14.847  0.00  0.00    +0.003 A 
ATOM     28  C16 UNL     1      15.274  40.875  15.181  0.00  0.00    +0.020 A 
ATOM     29  C17 UNL     1      16.422  40.466  15.844  0.00  0.00    +0.043 A 
ATOM     30 CL1  UNL     1      17.625  41.628  16.262  0.00  0.00    -0.083 Cl
ATOM     31  C18 UNL     1      16.615  39.120  16.177  0.00  0.00    +0.043 A 
ENDBRANCH  22  25
ENDBRANCH  18  19
ENDBRANCH   3  18
TORSDOF 8
ENDMDL
MODEL 2
REMARK VINA RESULT:    -4.162      6.342      9.817
REMARK INTER + INTRA:          -7.271
REMARK INTER:                  -5.669
REMARK INTRA:                  -1.603
REMARK UNBOUND:                -1.285
REMARK  Name = /home/vital/Documents/PhD_2021/Malaria_codes/data/pdb_ligands_mmv/ligand_300.pdb
REMARK  9 active torsions:
REMARK  status: ('A' for Active; 'I' for Inactive)
REMARK    1  A    between atoms: C1_1  and  C2_2
REMARK    2  A    between atoms: C2_2  and  C3_3
REMARK    3  A    between atoms: C3_3  and  O1_4
REMARK    4  A    between atoms: O1_4  and  C4_5
REMARK    5  A    between atoms: C4_5  and  C5_6
REMARK    6  A    between atoms: C7_8  and  C8_9
REMARK    7  A    between atoms: C8_9  and  N1_10
REMARK    8  A    between atoms: N2_13  and  C13_16
REMARK    9  A    between atoms: C19_23  and  O2_24
REMARK                            x       y       z     vdW  Elec       q    Type
REMARK                         _______ _______ _______ _____ _____    ______ ____
ROOT
ATOM      1  C5  UNL     1      14.144  26.939  16.452  0.00  0.00    -0.012 A 
ATOM      2  C6  UNL     1      13.924  27.123  17.830  0.00  0.00    +0.015 A 
ATOM      3  C7  UNL     1      14.295  28.303  18.478  0.00  0.00    +0.010 A 
ATOM      4  C19 UNL     1      14.899  29.312  17.711  0.00  0.00    +0.147 A 
ATOM      5  C20 UNL     1      15.125  29.192  16.332  0.00  0.00    +0.113 A 
ATOM      6  N3  UNL     1      15.696  30.213  15.649  0.00  0.00    -0.251 NA
ATOM      7  C21 UNL     1      15.892  30.092  14.323  0.00  0.00    +0.111 A 
ATOM      8  C22 UNL     1      15.535  28.977  13.604  0.00  0.00    +0.020 A 
ATOM      9  C23 UNL     1      14.947  27.924  14.293  0.00  0.00    +0.012 A 
ATOM     10  C24 UNL     1      14.729  27.992  15.690  0.00  0.00    +0.009 A 
ENDROOT
BRANCH   4  11
ATOM     11  O2  UNL     1      15.274  30.486  18.335  0.00  0.00    -0.504 OA
ATOM     12  H25 UNL     1      16.045  30.837  17.840  0.00  0.00    +0.292 HD
ENDBRANCH   4  11
BRANCH   1  13
ATOM     13  C4  UNL     1      13.691  25.626  15.839  0.00  0.00    +0.195 C 
BRANCH  13  14
ATOM     14  O1  UNL     1      14.505  24.521  16.247  0.00  0.00    -0.375 OA
BRANCH  14  15
ATOM     15  C3  UNL     1      15.724  24.414  15.505  0.00  0.00    +0.160 C 
BRANCH  15  17
ATOM     16  C1  UNL     1      17.676  25.763  16.396  0.00  0.00    +0.006 C 
ATOM     17  C2  UNL     1      16.913  24.446  16.466  0.00  0.00    +0.025 C 
ENDBRANCH  15  17
ENDBRANCH  14  15
ENDBRANCH  13  14
ENDBRANCH   1  13
BRANCH   3  18
ATOM     18  C8  UNL     1      14.111  28.411  19.979  0.00  0.00    +0.123 C 
BRANCH  18  19
ATOM     19  N1  UNL     1      15.365  28.703  20.707  0.00  0.00    -0.295 NA
ATOM     20  C9  UNL     1      15.112  29.248  22.064  0.00  0.00    +0.103 C 
ATOM     21  C10 UNL     1      15.069  28.216  23.216  0.00  0.00    +0.120 C 
ATOM     22  N2  UNL     1      16.295  27.399  23.257  0.00  0.00    -0.327 N 
ATOM     23  C11 UNL     1      17.103  27.371  22.028  0.00  0.00    +0.120 C 
ATOM     24  C12 UNL     1      16.188  27.467  20.786  0.00  0.00    +0.103 C 
BRANCH  22  25
ATOM     25  C13 UNL     1      16.744  26.847  24.448  0.00  0.00    +0.031 A 
ATOM     26  C14 UNL     1      16.082  27.065  25.668  0.00  0.00    +0.023 A 
ATOM     27  C15 UNL     1      16.537  26.514  26.873  0.00  0.00    +0.003 A 
ATOM     28  C16 UNL     1      17.680  25.722  26.888  0.00  0.00    +0.020 A 
ATOM     29  C17 UNL     1      18.357  25.494  25.698  0.00  0.00    +0.043 A 
ATOM     30 CL1  UNL     1      19.779  24.519  25.700  0.00  0.00    -0.083 Cl
ATOM     31  C18 UNL     1      17.899  26.047  24.498  0.00  0.00    +0.043 A 
ENDBRANCH  22  25
ENDBRANCH  18  19
ENDBRANCH   3  18
TORSDOF 8
ENDMDL
MODEL 3
REMARK VINA RESULT:    -3.991      5.463      9.462
REMARK INTER + INTRA:          -7.026
REMARK INTER:                  -5.821
REMARK INTRA:                  -1.204
REMARK UNBOUND:                -1.285
REMARK  Name = /home/vital/Documents/PhD_2021/Malaria_codes/data/pdb_ligands_mmv/ligand_300.pdb
REMARK  9 active torsions:
REMARK  status: ('A' for Active; 'I' for Inactive)
REMARK    1  A    between atoms: C1_1  and  C2_2
REMARK    2  A    between atoms: C2_2  and  C3_3
REMARK    3  A    between atoms: C3_3  and  O1_4
REMARK    4  A    between atoms: O1_4  and  C4_5
REMARK    5  A    between atoms: C4_5  and  C5_6
REMARK    6  A    between atoms: C7_8  and  C8_9
REMARK    7  A    between atoms: C8_9  and  N1_10
REMARK    8  A    between atoms: N2_13  and  C13_16
REMARK    9  A    between atoms: C19_23  and  O2_24
REMARK                            x       y       z     vdW  Elec       q    Type
REMARK                         _______ _______ _______ _____ _____    ______ ____
ROOT
ATOM      1  C5  UNL     1      14.559  28.549  16.281  0.00  0.00    -0.012 A 
ATOM      2  C6  UNL     1      14.851  28.577  17.657  0.00  0.00    +0.015 A 
ATOM      3  C7  UNL     1      15.423  29.700  18.260  0.00  0.00    +0.010 A 
ATOM      4  C19 UNL     1      15.701  30.811  17.448  0.00  0.00    +0.147 A 
ATOM      5  C20 UNL     1      15.414  30.847  16.075  0.00  0.00    +0.113 A 
ATOM      6  N3  UNL     1      15.691  31.960  15.355  0.00  0.00    -0.251 NA
ATOM      7  C21 UNL     1      15.395  31.987  14.043  0.00  0.00    +0.111 A 
ATOM      8  C22 UNL     1      14.810  30.938  13.377  0.00  0.00    +0.020 A 
ATOM      9  C23 UNL     1      14.519  29.792  14.106  0.00  0.00    +0.012 A 
ATOM     10  C24 UNL     1      14.820  29.703  15.485  0.00  0.00    +0.009 A 
ENDROOT
BRANCH   4  11
ATOM     11  O2  UNL     1      16.268  31.931  18.026  0.00  0.00    -0.504 OA
ATOM     12  H25 UNL     1      15.836  32.051  18.897  0.00  0.00    +0.292 HD
ENDBRANCH   4  11
BRANCH   1  13
ATOM     13  C4  UNL     1      13.925  27.287  15.724  0.00  0.00    +0.195 C 
BRANCH  13  14
ATOM     14  O1  UNL     1      14.643  26.104  16.093  0.00  0.00    -0.375 OA
BRANCH  14  15
ATOM     15  C3  UNL     1      15.390  25.538  15.011  0.00  0.00    +0.160 C 
BRANCH  15  17
ATOM     16  C1  UNL     1      17.298  27.036  14.276  0.00  0.00    +0.006 C 
ATOM     17  C2  UNL     1      16.870  25.883  15.175  0.00  0.00    +0.025 C 
ENDBRANCH  15  17
ENDBRANCH  14  15
ENDBRANCH  13  14
ENDBRANCH   1  13
BRANCH   3  18
ATOM     18  C8  UNL     1      15.794  29.642  19.729  0.00  0.00    +0.123 C 
BRANCH  18  19
ATOM     19  N1  UNL     1      15.148  28.527  20.455  0.00  0.00    -0.295 NA
ATOM     20  C9  UNL     1      16.141  27.602  21.057  0.00  0.00    +0.103 C 
ATOM     21  C10 UNL     1      16.541  27.892  22.524  0.00  0.00    +0.120 C 
ATOM     22  N2  UNL     1      15.361  27.957  23.404  0.00  0.00    -0.327 N 
ATOM     23  C11 UNL     1      14.064  28.179  22.745  0.00  0.00    +0.120 C 
ATOM     24  C12 UNL     1      14.246  29.078  21.500  0.00  0.00    +0.103 C 
BRANCH  22  25
ATOM     25  C13 UNL     1      15.459  27.640  24.751  0.00  0.00    +0.031 A 
ATOM     26  C14 UNL     1      14.557  28.145  25.704  0.00  0.00    +0.023 A 
ATOM     27  C15 UNL     1      14.656  27.831  27.066  0.00  0.00    +0.003 A 
ATOM     28  C16 UNL     1      15.674  26.996  27.515  0.00  0.00    +0.020 A 
ATOM     29  C17 UNL     1      16.581  26.487  26.597  0.00  0.00    +0.043 A 
ATOM     30 CL1  UNL     1      17.851  25.453  27.137  0.00  0.00    -0.083 Cl
ATOM     31  C18 UNL     1      16.477  26.804  25.238  0.00  0.00    +0.043 A 
ENDBRANCH  22  25
ENDBRANCH  18  19
ENDBRANCH   3  18
TORSDOF 8
ENDMDL
MODEL 4
REMARK VINA RESULT:    -3.979      6.457      9.704
REMARK INTER + INTRA:          -7.008
REMARK INTER:                  -5.475
REMARK INTRA:                  -1.533
REMARK UNBOUND:                -1.285
REMARK  Name = /home/vital/Documents/PhD_2021/Malaria_codes/data/pdb_ligands_mmv/ligand_300.pdb
REMARK  9 active torsions:
REMARK  status: ('A' for Active; 'I' for Inactive)
REMARK    1  A    between atoms: C1_1  and  C2_2
REMARK    2  A    between atoms: C2_2  and  C3_3
REMARK    3  A    between atoms: C3_3  and  O1_4
REMARK    4  A    between atoms: O1_4  and  C4_5
REMARK    5  A    between atoms: C4_5  and  C5_6
REMARK    6  A    between atoms: C7_8  and  C8_9
REMARK    7  A    between atoms: C8_9  and  N1_10
REMARK    8  A    between atoms: N2_13  and  C13_16
REMARK    9  A    between atoms: C19_23  and  O2_24
REMARK                            x       y       z     vdW  Elec       q    Type
REMARK                         _______ _______ _______ _____ _____    ______ ____
ROOT
ATOM      1  C5  UNL     1      14.254  27.004  16.452  0.00  0.00    -0.012 A 
ATOM      2  C6  UNL     1      14.043  27.337  17.802  0.00  0.00    +0.015 A 
ATOM      3  C7  UNL     1      14.513  28.536  18.342  0.00  0.00    +0.010 A 
ATOM      4  C19 UNL     1      15.209  29.410  17.492  0.00  0.00    +0.147 A 
ATOM      5  C20 UNL     1      15.433  29.140  16.133  0.00  0.00    +0.113 A 
ATOM      6  N3  UNL     1      16.097  30.036  15.366  0.00  0.00    -0.251 NA
ATOM      7  C21 UNL     1      16.290  29.772  14.060  0.00  0.00    +0.111 A 
ATOM      8  C22 UNL     1      15.841  28.629  13.445  0.00  0.00    +0.020 A 
ATOM      9  C23 UNL     1      15.156  27.703  14.222  0.00  0.00    +0.012 A 
ATOM     10  C24 UNL     1      14.935  27.923  15.602  0.00  0.00    +0.009 A 
ENDROOT
BRANCH   4  11
ATOM     11  O2  UNL     1      15.683  30.602  18.007  0.00  0.00    -0.504 OA
ATOM     12  H25 UNL     1      16.449  30.865  17.454  0.00  0.00    +0.292 HD
ENDBRANCH   4  11
BRANCH   1  13
ATOM     13  C4  UNL     1      13.691  25.683  15.958  0.00  0.00    +0.195 C 
BRANCH  13  14
ATOM     14  O1  UNL     1      14.321  24.554  16.575  0.00  0.00    -0.375 OA
BRANCH  14  15
ATOM     15  C3  UNL     1      15.604  24.251  16.018  0.00  0.00    +0.160 C 
BRANCH  15  17
ATOM     16  C1  UNL     1      16.931  24.939  18.064  0.00  0.00    +0.006 C 
ATOM     17  C2  UNL     1      16.551  23.798  17.129  0.00  0.00    +0.025 C 
ENDBRANCH  15  17
ENDBRANCH  14  15
ENDBRANCH  13  14
ENDBRANCH   1  13
BRANCH   3  18
ATOM     18  C8  UNL     1      14.329  28.803  19.823  0.00  0.00    +0.123 C 
BRANCH  18  19
ATOM     19  N1  UNL     1      15.604  28.978  20.552  0.00  0.00    -0.295 NA
ATOM     20  C9  UNL     1      15.399  29.539  21.911  0.00  0.00    +0.103 C 
ATOM     21  C10 UNL     1      15.261  28.511  23.060  0.00  0.00    +0.120 C 
ATOM     22  N2  UNL     1      16.409  27.587  23.098  0.00  0.00    -0.327 N 
ATOM     23  C11 UNL     1      17.213  27.490  21.870  0.00  0.00    +0.120 C 
ATOM     24  C12 UNL     1      16.311  27.673  20.627  0.00  0.00    +0.103 C 
BRANCH  22  25
ATOM     25  C13 UNL     1      16.805  26.993  24.287  0.00  0.00    +0.031 A 
ATOM     26  C14 UNL     1      17.966  26.206  24.378  0.00  0.00    +0.023 A 
ATOM     27  C15 UNL     1      18.366  25.600  25.577  0.00  0.00    +0.003 A 
ATOM     28  C16 UNL     1      17.605  25.767  26.728  0.00  0.00    +0.020 A 
ATOM     29  C17 UNL     1      16.451  26.535  26.667  0.00  0.00    +0.043 A 
ATOM     30 CL1  UNL     1      15.493  26.748  28.085  0.00  0.00    -0.083 Cl
ATOM     31  C18 UNL     1      16.056  27.138  25.468  0.00  0.00    +0.043 A 
ENDBRANCH  22  25
ENDBRANCH  18  19
ENDBRANCH   3  18
TORSDOF 8
ENDMDL
MODEL 5
REMARK VINA RESULT:    -3.838      2.575      4.678
REMARK INTER + INTRA:          -6.806
REMARK INTER:                  -5.345
REMARK INTRA:                  -1.460
REMARK UNBOUND:                -1.285
REMARK  Name = /home/vital/Documents/PhD_2021/Malaria_codes/data/pdb_ligands_mmv/ligand_300.pdb
REMARK  9 active torsions:
REMARK  status: ('A' for Active; 'I' for Inactive)
REMARK    1  A    between atoms: C1_1  and  C2_2
REMARK    2  A    between atoms: C2_2  and  C3_3
REMARK    3  A    between atoms: C3_3  and  O1_4
REMARK    4  A    between atoms: O1_4  and  C4_5
REMARK    5  A    between atoms: C4_5  and  C5_6
REMARK    6  A    between atoms: C7_8  and  C8_9
REMARK    7  A    between atoms: C8_9  and  N1_10
REMARK    8  A    between atoms: N2_13  and  C13_16
REMARK    9  A    between atoms: C19_23  and  O2_24
REMARK                            x       y       z     vdW  Elec       q    Type
REMARK                         _______ _______ _______ _____ _____    ______ ____
ROOT
ATOM      1  C5  UNL     1      14.358  25.914  16.469  0.00  0.00    -0.012 A 
ATOM      2  C6  UNL     1      14.070  27.115  17.143  0.00  0.00    +0.015 A 
ATOM      3  C7  UNL     1      14.636  27.409  18.386  0.00  0.00    +0.010 A 
ATOM      4  C19 UNL     1      15.510  26.466  18.950  0.00  0.00    +0.147 A 
ATOM      5  C20 UNL     1      15.848  25.261  18.315  0.00  0.00    +0.113 A 
ATOM      6  N3  UNL     1      16.713  24.404  18.908  0.00  0.00    -0.251 NA
ATOM      7  C21 UNL     1      17.042  23.260  18.280  0.00  0.00    +0.111 A 
ATOM      8  C22 UNL     1      16.551  22.904  17.047  0.00  0.00    +0.020 A 
ATOM      9  C23 UNL     1      15.665  23.777  16.428  0.00  0.00    +0.012 A 
ATOM     10  C24 UNL     1      15.274  24.988  17.048  0.00  0.00    +0.009 A 
ENDROOT
BRANCH   4  11
ATOM     11  O2  UNL     1      16.079  26.738  20.179  0.00  0.00    -0.504 OA
ATOM     12  H25 UNL     1      17.018  26.463  20.124  0.00  0.00    +0.292 HD
ENDBRANCH   4  11
BRANCH   1  13
ATOM     13  C4  UNL     1      13.703  25.694  15.117  0.00  0.00    +0.195 C 
BRANCH  13  14
ATOM     14  O1  UNL     1      13.995  26.746  14.189  0.00  0.00    -0.375 OA
BRANCH  14  15
ATOM     15  C3  UNL     1      15.360  26.755  13.759  0.00  0.00    +0.160 C 
BRANCH  15  17
ATOM     16  C1  UNL     1      14.872  29.211  14.150  0.00  0.00    +0.006 C 
ATOM     17  C2  UNL     1      15.809  28.194  13.509  0.00  0.00    +0.025 C 
ENDBRANCH  15  17
ENDBRANCH  14  15
ENDBRANCH  13  14
ENDBRANCH   1  13
BRANCH   3  18
ATOM     18  C8  UNL     1      14.223  28.679  19.104  0.00  0.00    +0.123 C 
BRANCH  18  19
ATOM     19  N1  UNL     1      15.345  29.614  19.337  0.00  0.00    -0.295 NA
ATOM     20  C9  UNL     1      16.085  29.923  18.088  0.00  0.00    +0.103 C 
ATOM     21  C10 UNL     1      15.625  31.184  17.317  0.00  0.00    +0.120 C 
ATOM     22  N2  UNL     1      15.635  32.379  18.180  0.00  0.00    -0.327 N 
ATOM     23  C11 UNL     1      15.634  32.138  19.631  0.00  0.00    +0.120 C 
ATOM     24  C12 UNL     1      14.827  30.860  19.959  0.00  0.00    +0.103 C 
BRANCH  22  25
ATOM     25  C13 UNL     1      15.823  33.644  17.643  0.00  0.00    +0.031 A 
ATOM     26  C14 UNL     1      15.629  33.912  16.276  0.00  0.00    +0.023 A 
ATOM     27  C15 UNL     1      15.823  35.187  15.730  0.00  0.00    +0.003 A 
ATOM     28  C16 UNL     1      16.223  36.240  16.546  0.00  0.00    +0.020 A 
ATOM     29  C17 UNL     1      16.427  36.003  17.899  0.00  0.00    +0.043 A 
ATOM     30 CL1  UNL     1      16.927  37.296  18.924  0.00  0.00    -0.083 Cl
ATOM     31  C18 UNL     1      16.232  34.728  18.439  0.00  0.00    +0.043 A 
ENDBRANCH  22  25
ENDBRANCH  18  19
ENDBRANCH   3  18
TORSDOF 8
ENDMDL
MODEL 6
REMARK VINA RESULT:    -3.670      4.732      7.614
REMARK INTER + INTRA:          -6.564
REMARK INTER:                  -5.589
REMARK INTRA:                  -0.975
REMARK UNBOUND:                -1.285
REMARK  Name = /home/vital/Documents/PhD_2021/Malaria_codes/data/pdb_ligands_mmv/ligand_300.pdb
REMARK  9 active torsions:
REMARK  status: ('A' for Active; 'I' for Inactive)
REMARK    1  A    between atoms: C1_1  and  C2_2
REMARK    2  A    between atoms: C2_2  and  C3_3
REMARK    3  A    between atoms: C3_3  and  O1_4
REMARK    4  A    between atoms: O1_4  and  C4_5
REMARK    5  A    between atoms: C4_5  and  C5_6
REMARK    6  A    between atoms: C7_8  and  C8_9
REMARK    7  A    between atoms: C8_9  and  N1_10
REMARK    8  A    between atoms: N2_13  and  C13_16
REMARK    9  A    between atoms: C19_23  and  O2_24
REMARK                            x       y       z     vdW  Elec       q    Type
REMARK                         _______ _______ _______ _____ _____    ______ ____
ROOT
ATOM      1  C5  UNL     1      17.895  23.780  17.955  0.00  0.00    -0.012 A 
ATOM      2  C6  UNL     1      16.940  23.769  16.922  0.00  0.00    +0.015 A 
ATOM      3  C7  UNL     1      15.827  24.611  16.945  0.00  0.00    +0.010 A 
ATOM      4  C19 UNL     1      15.683  25.480  18.038  0.00  0.00    +0.147 A 
ATOM      5  C20 UNL     1      16.612  25.548  19.088  0.00  0.00    +0.113 A 
ATOM      6  N3  UNL     1      16.421  26.424  20.104  0.00  0.00    -0.251 NA
ATOM      7  C21 UNL     1      17.328  26.492  21.095  0.00  0.00    +0.111 A 
ATOM      8  C22 UNL     1      18.462  25.718  21.138  0.00  0.00    +0.020 A 
ATOM      9  C23 UNL     1      18.670  24.818  20.100  0.00  0.00    +0.012 A 
ATOM     10  C24 UNL     1      17.743  24.695  19.038  0.00  0.00    +0.009 A 
ENDROOT
BRANCH   4  11
ATOM     11  O2  UNL     1      14.587  26.320  18.080  0.00  0.00    -0.504 OA
ATOM     12  H25 UNL     1      14.213  26.254  18.984  0.00  0.00    +0.292 HD
ENDBRANCH   4  11
BRANCH   1  13
ATOM     13  C4  UNL     1      19.077  22.837  17.830  0.00  0.00    +0.195 C 
BRANCH  13  14
ATOM     14  O1  UNL     1      20.196  23.445  17.174  0.00  0.00    -0.375 OA
BRANCH  14  15
ATOM     15  C3  UNL     1      21.438  23.211  17.845  0.00  0.00    +0.160 C 
BRANCH  15  17
ATOM     16  C1  UNL     1      21.329  25.732  17.609  0.00  0.00    +0.006 C 
ATOM     17  C2  UNL     1      22.094  24.549  18.188  0.00  0.00    +0.025 C 
ENDBRANCH  15  17
ENDBRANCH  14  15
ENDBRANCH  13  14
ENDBRANCH   1  13
BRANCH   3  18
ATOM     18  C8  UNL     1      14.788  24.494  15.846  0.00  0.00    +0.123 C 
BRANCH  18  19
ATOM     19  N1  UNL     1      15.069  25.357  14.678  0.00  0.00    -0.295 NA
ATOM     20  C9  UNL     1      13.909  26.213  14.323  0.00  0.00    +0.103 C 
ATOM     21  C10 UNL     1      13.889  27.628  14.950  0.00  0.00    +0.120 C 
ATOM     22  N2  UNL     1      15.130  28.367  14.656  0.00  0.00    -0.327 N 
ATOM     23  C11 UNL     1      16.290  27.561  14.242  0.00  0.00    +0.120 C 
ATOM     24  C12 UNL     1      16.267  26.190  14.957  0.00  0.00    +0.103 C 
BRANCH  22  25
ATOM     25  C13 UNL     1      15.136  29.753  14.594  0.00  0.00    +0.031 A 
ATOM     26  C14 UNL     1      14.693  30.453  13.458  0.00  0.00    +0.023 A 
ATOM     27  C15 UNL     1      14.704  31.852  13.391  0.00  0.00    +0.003 A 
ATOM     28  C16 UNL     1      15.164  32.596  14.472  0.00  0.00    +0.020 A 
ATOM     29  C17 UNL     1      15.612  31.932  15.605  0.00  0.00    +0.043 A 
ATOM     30 CL1  UNL     1      16.190  32.840  16.952  0.00  0.00    -0.083 Cl
ATOM     31  C18 UNL     1      15.600  30.535  15.666  0.00  0.00    +0.043 A 
ENDBRANCH  22  25
ENDBRANCH  18  19
ENDBRANCH   3  18
TORSDOF 8
ENDMDL
MODEL 7
REMARK VINA RESULT:    -3.644      2.444      2.901
REMARK INTER + INTRA:          -6.526
REMARK INTER:                  -5.262
REMARK INTRA:                  -1.264
REMARK UNBOUND:                -1.285
REMARK  Name = /home/vital/Documents/PhD_2021/Malaria_codes/data/pdb_ligands_mmv/ligand_300.pdb
REMARK  9 active torsions:
REMARK  status: ('A' for Active; 'I' for Inactive)
REMARK    1  A    between atoms: C1_1  and  C2_2
REMARK    2  A    between atoms: C2_2  and  C3_3
REMARK    3  A    between atoms: C3_3  and  O1_4
REMARK    4  A    between atoms: O1_4  and  C4_5
REMARK    5  A    between atoms: C4_5  and  C5_6
REMARK    6  A    between atoms: C7_8  and  C8_9
REMARK    7  A    between atoms: C8_9  and  N1_10
REMARK    8  A    between atoms: N2_13  and  C13_16
REMARK    9  A    between atoms: C19_23  and  O2_24
REMARK                            x       y       z     vdW  Elec       q    Type
REMARK                         _______ _______ _______ _____ _____    ______ ____
ROOT
ATOM      1  C5  UNL     1      15.896  29.010  15.755  0.00  0.00    -0.012 A 
ATOM      2  C6  UNL     1      15.596  30.298  15.275  0.00  0.00    +0.015 A 
ATOM      3  C7  UNL     1      16.586  31.130  14.747  0.00  0.00    +0.010 A 
ATOM      4  C19 UNL     1      17.902  30.642  14.707  0.00  0.00    +0.147 A 
ATOM      5  C20 UNL     1      18.256  29.359  15.154  0.00  0.00    +0.113 A 
ATOM      6  N3  UNL     1      19.542  28.945  15.069  0.00  0.00    -0.251 NA
ATOM      7  C21 UNL     1      19.865  27.707  15.485  0.00  0.00    +0.111 A 
ATOM      8  C22 UNL     1      18.951  26.817  15.994  0.00  0.00    +0.020 A 
ATOM      9  C23 UNL     1      17.628  27.230  16.084  0.00  0.00    +0.012 A 
ATOM     10  C24 UNL     1      17.234  28.525  15.673  0.00  0.00    +0.009 A 
ENDROOT
BRANCH   4  11
ATOM     11  O2  UNL     1      18.896  31.450  14.189  0.00  0.00    -0.504 OA
ATOM     12  H25 UNL     1      18.681  32.369  14.454  0.00  0.00    +0.292 HD
ENDBRANCH   4  11
BRANCH   1  13
ATOM     13  C4  UNL     1      14.746  28.178  16.296  0.00  0.00    +0.195 C 
BRANCH  13  14
ATOM     14  O1  UNL     1      13.694  28.009  15.338  0.00  0.00    -0.375 OA
BRANCH  14  15
ATOM     15  C3  UNL     1      13.930  26.931  14.427  0.00  0.00    +0.160 C 
BRANCH  15  17
ATOM     16  C1  UNL     1      14.760  24.539  14.520  0.00  0.00    +0.006 C 
ATOM     17  C2  UNL     1      13.897  25.604  15.184  0.00  0.00    +0.025 C 
ENDBRANCH  15  17
ENDBRANCH  14  15
ENDBRANCH  13  14
ENDBRANCH   1  13
BRANCH   3  18
ATOM     18  C8  UNL     1      16.219  32.539  14.323  0.00  0.00    +0.123 C 
BRANCH  18  19
ATOM     19  N1  UNL     1      16.731  33.581  15.239  0.00  0.00    -0.295 NA
ATOM     20  C9  UNL     1      17.402  34.686  14.510  0.00  0.00    +0.103 C 
ATOM     21  C10 UNL     1      16.516  35.903  14.148  0.00  0.00    +0.120 C 
ATOM     22  N2  UNL     1      15.849  36.458  15.340  0.00  0.00    -0.327 N 
ATOM     23  C11 UNL     1      15.764  35.576  16.514  0.00  0.00    +0.120 C 
ATOM     24  C12 UNL     1      15.611  34.104  16.064  0.00  0.00    +0.103 C 
BRANCH  22  25
ATOM     25  C13 UNL     1      15.495  37.798  15.398  0.00  0.00    +0.031 A 
ATOM     26  C14 UNL     1      14.602  38.294  16.364  0.00  0.00    +0.023 A 
ATOM     27  C15 UNL     1      14.238  39.646  16.421  0.00  0.00    +0.003 A 
ATOM     28  C16 UNL     1      14.764  40.547  15.502  0.00  0.00    +0.020 A 
ATOM     29  C17 UNL     1      15.645  40.085  14.534  0.00  0.00    +0.043 A 
ATOM     30 CL1  UNL     1      16.302  41.189  13.384  0.00  0.00    -0.083 Cl
ATOM     31  C18 UNL     1      16.004  38.734  14.481  0.00  0.00    +0.043 A 
ENDBRANCH  22  25
ENDBRANCH  18  19
ENDBRANCH   3  18
TORSDOF 8
ENDMDL
MODEL 8
REMARK VINA RESULT:    -3.338      5.119      8.618
REMARK INTER + INTRA:          -6.086
REMARK INTER:                  -4.854
REMARK INTRA:                  -1.232
REMARK UNBOUND:                -1.285
REMARK  Name = /home/vital/Documents/PhD_2021/Malaria_codes/data/pdb_ligands_mmv/ligand_300.pdb
REMARK  9 active torsions:
REMARK  status: ('A' for Active; 'I' for Inactive)
REMARK    1  A    between atoms: C1_1  and  C2_2
REMARK    2  A    between atoms: C2_2  and  C3_3
REMARK    3  A    between atoms: C3_3  and  O1_4
REMARK    4  A    between atoms: O1_4  and  C4_5
REMARK    5  A    between atoms: C4_5  and  C5_6
REMARK    6  A    between atoms: C7_8  and  C8_9
REMARK    7  A    between atoms: C8_9  and  N1_10
REMARK    8  A    between atoms: N2_13  and  C13_16
REMARK    9  A    between atoms: C19_23  and  O2_24
REMARK                            x       y       z     vdW  Elec       q    Type
REMARK                         _______ _______ _______ _____ _____    ______ ____
ROOT
ATOM      1  C5  UNL     1      15.029  28.540  15.901  0.00  0.00    -0.012 A 
ATOM      2  C6  UNL     1      15.423  29.004  17.169  0.00  0.00    +0.015 A 
ATOM      3  C7  UNL     1      15.772  28.123  18.194  0.00  0.00    +0.010 A 
ATOM      4  C19 UNL     1      15.721  26.746  17.923  0.00  0.00    +0.147 A 
ATOM      5  C20 UNL     1      15.354  26.226  16.673  0.00  0.00    +0.113 A 
ATOM      6  N3  UNL     1      15.344  24.886  16.474  0.00  0.00    -0.251 NA
ATOM      7  C21 UNL     1      15.007  24.401  15.265  0.00  0.00    +0.111 A 
ATOM      8  C22 UNL     1      14.673  25.197  14.196  0.00  0.00    +0.020 A 
ATOM      9  C23 UNL     1      14.683  26.573  14.387  0.00  0.00    +0.012 A 
ATOM     10  C24 UNL     1      15.017  27.138  15.641  0.00  0.00    +0.009 A 
ENDROOT
BRANCH   4  11
ATOM     11  O2  UNL     1      16.062  25.858  18.925  0.00  0.00    -0.504 OA
ATOM     12  H25 UNL     1      16.347  25.029  18.485  0.00  0.00    +0.292 HD
ENDBRANCH   4  11
BRANCH   1  13
ATOM     13  C4  UNL     1      14.683  29.578  14.849  0.00  0.00    +0.195 C 
BRANCH  13  14
ATOM     14  O1  UNL     1      15.827  29.997  14.095  0.00  0.00    -0.375 OA
BRANCH  14  15
ATOM     15  C3  UNL     1      15.788  31.380  13.732  0.00  0.00    +0.160 C 
BRANCH  15  17
ATOM     16  C1  UNL     1      17.335  31.894  15.673  0.00  0.00    +0.006 C 
ATOM     17  C2  UNL     1      16.027  32.241  14.972  0.00  0.00    +0.025 C 
ENDBRANCH  15  17
ENDBRANCH  14  15
ENDBRANCH  13  14
ENDBRANCH   1  13
BRANCH   3  18
ATOM     18  C8  UNL     1      16.107  28.678  19.565  0.00  0.00    +0.123 C 
BRANCH  18  19
ATOM     19  N1  UNL     1      15.433  27.963  20.670  0.00  0.00    -0.295 NA
ATOM     20  C9  UNL     1      16.287  27.870  21.880  0.00  0.00    +0.103 C 
ATOM     21  C10 UNL     1      16.105  28.991  22.932  0.00  0.00    +0.120 C 
ATOM     22  N2  UNL     1      14.698  29.112  23.354  0.00  0.00    -0.327 N 
ATOM     23  C11 UNL     1      13.692  28.519  22.459  0.00  0.00    +0.120 C 
ATOM     24  C12 UNL     1      14.150  28.643  20.987  0.00  0.00    +0.103 C 
BRANCH  22  25
ATOM     25  C13 UNL     1      14.371  29.592  24.614  0.00  0.00    +0.031 A 
ATOM     26  C14 UNL     1      14.044  28.734  25.679  0.00  0.00    +0.023 A 
ATOM     27  C15 UNL     1      13.708  29.217  26.951  0.00  0.00    +0.003 A 
ATOM     28  C16 UNL     1      13.690  30.586  27.193  0.00  0.00    +0.020 A 
ATOM     29  C17 UNL     1      14.005  31.457  26.159  0.00  0.00    +0.043 A 
ATOM     30 CL1  UNL     1      13.983  33.158  26.441  0.00  0.00    -0.083 Cl
ATOM     31  C18 UNL     1      14.339  30.970  24.891  0.00  0.00    +0.043 A 
ENDBRANCH  22  25
ENDBRANCH  18  19
ENDBRANCH   3  18
TORSDOF 8
ENDMDL
