MODEL 1
REMARK VINA RESULT:    -3.766      0.000      0.000
REMARK INTER + INTRA:          -6.892
REMARK INTER:                  -5.087
REMARK INTRA:                  -1.804
REMARK UNBOUND:                -1.804
REMARK  Name = /home/vital/Documents/PhD_2021/Malaria_codes/data/pdb_ligands_mmv/ligand_280.pdb
REMARK  9 active torsions:
REMARK  status: ('A' for Active; 'I' for Inactive)
REMARK    1  A    between atoms: C1_1  and  C2_2
REMARK    2  A    between atoms: C2_2  and  O1_3
REMARK    3  A    between atoms: O1_3  and  C3_4
REMARK    4  A    between atoms: C3_4  and  C4_6
REMARK    5  A    between atoms: C7_10  and  C8_11
REMARK    6  A    between atoms: C13_16  and  N2_17
REMARK    7  A    between atoms: N2_17  and  C14_18
REMARK    8  A    between atoms: C17_21  and  C20_24
REMARK    9  A    between atoms: C20_24  and  C21_26
REMARK                            x       y       z     vdW  Elec       q    Type
REMARK                         _______ _______ _______ _____ _____    ______ ____
ROOT
ATOM      1  C4  UNL     1      14.437  27.458  15.092  0.00  0.00    +0.099 A 
ATOM      2  C5  UNL     1      13.691  28.621  15.047  0.00  0.00    +0.128 A 
ATOM      3  N1  UNL     1      14.069  29.738  14.383  0.00  0.00    -0.254 NA
ATOM      4  C6  UNL     1      15.230  29.731  13.703  0.00  0.00    +0.076 A 
ATOM      5  C7  UNL     1      15.620  30.880  13.000  0.00  0.00    -0.024 A 
ATOM      6  C8  UNL     1      14.745  32.106  13.021  0.00  0.00    +0.046 C 
ATOM      7  C9  UNL     1      16.816  30.907  12.266  0.00  0.00    +0.005 A 
ATOM      8  C10 UNL     1      17.633  29.787  12.220  0.00  0.00    +0.001 A 
ATOM      9  C11 UNL     1      17.260  28.641  12.916  0.00  0.00    +0.012 A 
ATOM     10  C12 UNL     1      16.069  28.591  13.675  0.00  0.00    +0.023 A 
ATOM     11  C13 UNL     1      15.659  27.434  14.399  0.00  0.00    +0.056 A 
ENDROOT
BRANCH   1  12
ATOM     12  C3  UNL     1      13.936  26.269  15.818  0.00  0.00    +0.342 C 
ATOM     13  O2  UNL     1      13.782  25.180  15.285  0.00  0.00    -0.245 OA
BRANCH  12  14
ATOM     14  O1  UNL     1      13.697  26.566  17.119  0.00  0.00    -0.461 OA
BRANCH  14  16
ATOM     15  C1  UNL     1      15.394  26.961  18.800  0.00  0.00    +0.048 C 
ATOM     16  C2  UNL     1      14.555  25.925  18.075  0.00  0.00    +0.229 C 
ENDBRANCH  14  16
ENDBRANCH  12  14
ENDBRANCH   1  12
BRANCH  11  17
ATOM     17  N2  UNL     1      16.524  26.297  14.500  0.00  0.00    -0.313 N 
ATOM     18  H13 UNL     1      16.017  25.448  14.213  0.00  0.00    +0.152 HD
BRANCH  17  19
ATOM     19  C14 UNL     1      17.336  25.965  15.618  0.00  0.00    +0.031 A 
ATOM     20  C15 UNL     1      17.290  24.722  16.261  0.00  0.00    +0.024 A 
ATOM     21  C16 UNL     1      18.072  24.466  17.395  0.00  0.00    +0.013 A 
ATOM     22  C17 UNL     1      18.906  25.460  17.915  0.00  0.00    +0.017 A 
ATOM     23  C18 UNL     1      18.942  26.711  17.291  0.00  0.00    +0.013 A 
ATOM     24  C19 UNL     1      18.158  26.961  16.160  0.00  0.00    +0.024 A 
BRANCH  22  25
ATOM     25  C20 UNL     1      19.758  25.239  19.121  0.00  0.00    +0.160 C 
ATOM     26  O3  UNL     1      20.979  25.159  19.004  0.00  0.00    -0.292 OA
ATOM     27  C21 UNL     1      19.096  25.117  20.469  0.00  0.00    +0.091 C 
ENDBRANCH  22  25
ENDBRANCH  17  19
ENDBRANCH  11  17
TORSDOF 6
ENDMDL
MODEL 2
REMARK VINA RESULT:    -3.742      1.981      2.634
REMARK INTER + INTRA:          -6.859
REMARK INTER:                  -5.080
REMARK INTRA:                  -1.779
REMARK UNBOUND:                -1.804
REMARK  Name = /home/vital/Documents/PhD_2021/Malaria_codes/data/pdb_ligands_mmv/ligand_280.pdb
REMARK  9 active torsions:
REMARK  status: ('A' for Active; 'I' for Inactive)
REMARK    1  A    between atoms: C1_1  and  C2_2
REMARK    2  A    between atoms: C2_2  and  O1_3
REMARK    3  A    between atoms: O1_3  and  C3_4
REMARK    4  A    between atoms: C3_4  and  C4_6
REMARK    5  A    between atoms: C7_10  and  C8_11
REMARK    6  A    between atoms: C13_16  and  N2_17
REMARK    7  A    between atoms: N2_17  and  C14_18
REMARK    8  A    between atoms: C17_21  and  C20_24
REMARK    9  A    between atoms: C20_24  and  C21_26
REMARK                            x       y       z     vdW  Elec       q    Type
REMARK                         _______ _______ _______ _____ _____    ______ ____
ROOT
ATOM      1  C4  UNL     1      14.399  27.300  16.080  0.00  0.00    +0.099 A 
ATOM      2  C5  UNL     1      13.753  27.850  14.987  0.00  0.00    +0.128 A 
ATOM      3  N1  UNL     1      14.048  29.062  14.464  0.00  0.00    -0.254 NA
ATOM      4  C6  UNL     1      15.041  29.786  15.014  0.00  0.00    +0.076 A 
ATOM      5  C7  UNL     1      15.362  31.037  14.467  0.00  0.00    -0.024 A 
ATOM      6  C8  UNL     1      14.592  31.557  13.281  0.00  0.00    +0.046 C 
ATOM      7  C9  UNL     1      16.400  31.815  15.003  0.00  0.00    +0.005 A 
ATOM      8  C10 UNL     1      17.132  31.353  16.087  0.00  0.00    +0.001 A 
ATOM      9  C11 UNL     1      16.822  30.116  16.642  0.00  0.00    +0.012 A 
ATOM     10  C12 UNL     1      15.772  29.317  16.131  0.00  0.00    +0.023 A 
ATOM     11  C13 UNL     1      15.429  28.046  16.678  0.00  0.00    +0.056 A 
ENDROOT
BRANCH   1  12
ATOM     12  C3  UNL     1      14.034  25.953  16.572  0.00  0.00    +0.342 C 
ATOM     13  O2  UNL     1      13.714  25.732  17.731  0.00  0.00    -0.245 OA
BRANCH  12  14
ATOM     14  O1  UNL     1      14.097  25.042  15.571  0.00  0.00    -0.461 OA
BRANCH  14  16
ATOM     15  C1  UNL     1      15.760  23.361  16.094  0.00  0.00    +0.048 C 
ATOM     16  C2  UNL     1      15.411  24.566  15.239  0.00  0.00    +0.229 C 
ENDBRANCH  14  16
ENDBRANCH  12  14
ENDBRANCH   1  12
BRANCH  11  17
ATOM     17  N2  UNL     1      16.057  27.578  17.876  0.00  0.00    -0.313 N 
ATOM     18  H13 UNL     1      16.386  28.380  18.432  0.00  0.00    +0.152 HD
BRANCH  17  19
ATOM     19  C14 UNL     1      17.044  26.558  17.955  0.00  0.00    +0.031 A 
ATOM     20  C15 UNL     1      18.051  26.385  16.998  0.00  0.00    +0.024 A 
ATOM     21  C16 UNL     1      18.965  25.326  17.094  0.00  0.00    +0.013 A 
ATOM     22  C17 UNL     1      18.875  24.411  18.146  0.00  0.00    +0.017 A 
ATOM     23  C18 UNL     1      17.858  24.564  19.095  0.00  0.00    +0.013 A 
ATOM     24  C19 UNL     1      16.948  25.622  18.993  0.00  0.00    +0.024 A 
BRANCH  22  25
ATOM     25  C20 UNL     1      19.822  23.266  18.294  0.00  0.00    +0.160 C 
ATOM     26  O3  UNL     1      20.160  22.889  19.414  0.00  0.00    -0.292 OA
ATOM     27  C21 UNL     1      20.348  22.591  17.054  0.00  0.00    +0.091 C 
ENDBRANCH  22  25
ENDBRANCH  17  19
ENDBRANCH  11  17
TORSDOF 6
ENDMDL
MODEL 3
REMARK VINA RESULT:    -3.699      2.964      7.054
REMARK INTER + INTRA:          -6.801
REMARK INTER:                  -5.386
REMARK INTRA:                  -1.414
REMARK UNBOUND:                -1.804
REMARK  Name = /home/vital/Documents/PhD_2021/Malaria_codes/data/pdb_ligands_mmv/ligand_280.pdb
REMARK  9 active torsions:
REMARK  status: ('A' for Active; 'I' for Inactive)
REMARK    1  A    between atoms: C1_1  and  C2_2
REMARK    2  A    between atoms: C2_2  and  O1_3
REMARK    3  A    between atoms: O1_3  and  C3_4
REMARK    4  A    between atoms: C3_4  and  C4_6
REMARK    5  A    between atoms: C7_10  and  C8_11
REMARK    6  A    between atoms: C13_16  and  N2_17
REMARK    7  A    between atoms: N2_17  and  C14_18
REMARK    8  A    between atoms: C17_21  and  C20_24
REMARK    9  A    between atoms: C20_24  and  C21_26
REMARK                            x       y       z     vdW  Elec       q    Type
REMARK                         _______ _______ _______ _____ _____    ______ ____
ROOT
ATOM      1  C4  UNL     1      16.496  26.413  18.206  0.00  0.00    +0.099 A 
ATOM      2  C5  UNL     1      17.432  26.283  19.215  0.00  0.00    +0.128 A 
ATOM      3  N1  UNL     1      17.315  26.858  20.434  0.00  0.00    -0.254 NA
ATOM      4  C6  UNL     1      16.219  27.591  20.708  0.00  0.00    +0.076 A 
ATOM      5  C7  UNL     1      16.085  28.177  21.975  0.00  0.00    -0.024 A 
ATOM      6  C8  UNL     1      17.166  27.989  23.007  0.00  0.00    +0.046 C 
ATOM      7  C9  UNL     1      14.950  28.935  22.304  0.00  0.00    +0.005 A 
ATOM      8  C10 UNL     1      13.935  29.112  21.375  0.00  0.00    +0.001 A 
ATOM      9  C11 UNL     1      14.056  28.539  20.113  0.00  0.00    +0.012 A 
ATOM     10  C12 UNL     1      15.195  27.783  19.751  0.00  0.00    +0.023 A 
ATOM     11  C13 UNL     1      15.350  27.184  18.466  0.00  0.00    +0.056 A 
ENDROOT
BRANCH   1  12
ATOM     12  C3  UNL     1      16.686  25.725  16.909  0.00  0.00    +0.342 C 
ATOM     13  O2  UNL     1      17.683  25.872  16.218  0.00  0.00    -0.245 OA
BRANCH  12  14
ATOM     14  O1  UNL     1      15.626  24.930  16.626  0.00  0.00    -0.461 OA
BRANCH  14  16
ATOM     15  C1  UNL     1      14.694  24.854  14.392  0.00  0.00    +0.048 C 
ATOM     16  C2  UNL     1      15.679  24.238  15.369  0.00  0.00    +0.229 C 
ENDBRANCH  14  16
ENDBRANCH  12  14
ENDBRANCH   1  12
BRANCH  11  17
ATOM     17  N2  UNL     1      14.402  27.443  17.425  0.00  0.00    -0.313 N 
ATOM     18  H13 UNL     1      14.137  26.559  16.968  0.00  0.00    +0.152 HD
BRANCH  17  19
ATOM     19  C14 UNL     1      14.523  28.437  16.416  0.00  0.00    +0.031 A 
ATOM     20  C15 UNL     1      13.800  28.411  15.218  0.00  0.00    +0.024 A 
ATOM     21  C16 UNL     1      13.999  29.386  14.231  0.00  0.00    +0.013 A 
ATOM     22  C17 UNL     1      14.942  30.399  14.423  0.00  0.00    +0.017 A 
ATOM     23  C18 UNL     1      15.685  30.421  15.608  0.00  0.00    +0.013 A 
ATOM     24  C19 UNL     1      15.482  29.444  16.589  0.00  0.00    +0.024 A 
BRANCH  22  25
ATOM     25  C20 UNL     1      15.194  31.461  13.404  0.00  0.00    +0.160 C 
ATOM     26  O3  UNL     1      14.690  32.574  13.538  0.00  0.00    -0.292 OA
ATOM     27  C21 UNL     1      16.070  31.142  12.220  0.00  0.00    +0.091 C 
ENDBRANCH  22  25
ENDBRANCH  17  19
ENDBRANCH  11  17
TORSDOF 6
ENDMDL
MODEL 4
REMARK VINA RESULT:    -3.608      2.233      3.418
REMARK INTER + INTRA:          -6.679
REMARK INTER:                  -5.297
REMARK INTRA:                  -1.381
REMARK UNBOUND:                -1.804
REMARK  Name = /home/vital/Documents/PhD_2021/Malaria_codes/data/pdb_ligands_mmv/ligand_280.pdb
REMARK  9 active torsions:
REMARK  status: ('A' for Active; 'I' for Inactive)
REMARK    1  A    between atoms: C1_1  and  C2_2
REMARK    2  A    between atoms: C2_2  and  O1_3
REMARK    3  A    between atoms: O1_3  and  C3_4
REMARK    4  A    between atoms: C3_4  and  C4_6
REMARK    5  A    between atoms: C7_10  and  C8_11
REMARK    6  A    between atoms: C13_16  and  N2_17
REMARK    7  A    between atoms: N2_17  and  C14_18
REMARK    8  A    between atoms: C17_21  and  C20_24
REMARK    9  A    between atoms: C20_24  and  C21_26
REMARK                            x       y       z     vdW  Elec       q    Type
REMARK                         _______ _______ _______ _____ _____    ______ ____
ROOT
ATOM      1  C4  UNL     1      14.902  26.076  15.584  0.00  0.00    +0.099 A 
ATOM      2  C5  UNL     1      15.122  26.213  14.226  0.00  0.00    +0.128 A 
ATOM      3  N1  UNL     1      15.325  27.399  13.608  0.00  0.00    -0.254 NA
ATOM      4  C6  UNL     1      15.335  28.526  14.344  0.00  0.00    +0.076 A 
ATOM      5  C7  UNL     1      15.560  29.757  13.711  0.00  0.00    -0.024 A 
ATOM      6  C8  UNL     1      15.778  29.806  12.221  0.00  0.00    +0.046 C 
ATOM      7  C9  UNL     1      15.593  30.952  14.447  0.00  0.00    +0.005 A 
ATOM      8  C10 UNL     1      15.408  30.932  15.821  0.00  0.00    +0.001 A 
ATOM      9  C11 UNL     1      15.180  29.719  16.461  0.00  0.00    +0.012 A 
ATOM     10  C12 UNL     1      15.127  28.502  15.744  0.00  0.00    +0.023 A 
ATOM     11  C13 UNL     1      14.894  27.242  16.370  0.00  0.00    +0.056 A 
ENDROOT
BRANCH   1  12
ATOM     12  C3  UNL     1      14.718  24.737  16.187  0.00  0.00    +0.342 C 
ATOM     13  O2  UNL     1      13.894  24.508  17.061  0.00  0.00    -0.245 OA
BRANCH  12  14
ATOM     14  O1  UNL     1      15.566  23.839  15.631  0.00  0.00    -0.461 OA
BRANCH  14  16
ATOM     15  C1  UNL     1      17.173  22.817  17.127  0.00  0.00    +0.048 C 
ATOM     16  C2  UNL     1      15.841  22.668  16.415  0.00  0.00    +0.229 C 
ENDBRANCH  14  16
ENDBRANCH  12  14
ENDBRANCH   1  12
BRANCH  11  17
ATOM     17  N2  UNL     1      14.564  27.174  17.761  0.00  0.00    -0.313 N 
ATOM     18  H13 UNL     1      13.869  27.899  17.989  0.00  0.00    +0.152 HD
BRANCH  17  19
ATOM     19  C14 UNL     1      15.492  27.104  18.835  0.00  0.00    +0.031 A 
ATOM     20  C15 UNL     1      16.512  26.148  18.911  0.00  0.00    +0.024 A 
ATOM     21  C16 UNL     1      17.365  26.087  20.021  0.00  0.00    +0.013 A 
ATOM     22  C17 UNL     1      17.200  26.978  21.086  0.00  0.00    +0.017 A 
ATOM     23  C18 UNL     1      16.169  27.922  21.028  0.00  0.00    +0.013 A 
ATOM     24  C19 UNL     1      15.321  27.977  19.917  0.00  0.00    +0.024 A 
BRANCH  22  25
ATOM     25  C20 UNL     1      18.080  26.955  22.291  0.00  0.00    +0.160 C 
ATOM     26  O3  UNL     1      18.695  25.931  22.584  0.00  0.00    -0.292 OA
ATOM     27  C21 UNL     1      18.198  28.200  23.132  0.00  0.00    +0.091 C 
ENDBRANCH  22  25
ENDBRANCH  17  19
ENDBRANCH  11  17
TORSDOF 6
ENDMDL
MODEL 5
REMARK VINA RESULT:    -3.522      2.964      4.489
REMARK INTER + INTRA:          -6.562
REMARK INTER:                  -4.832
REMARK INTRA:                  -1.730
REMARK UNBOUND:                -1.804
REMARK  Name = /home/vital/Documents/PhD_2021/Malaria_codes/data/pdb_ligands_mmv/ligand_280.pdb
REMARK  9 active torsions:
REMARK  status: ('A' for Active; 'I' for Inactive)
REMARK    1  A    between atoms: C1_1  and  C2_2
REMARK    2  A    between atoms: C2_2  and  O1_3
REMARK    3  A    between atoms: O1_3  and  C3_4
REMARK    4  A    between atoms: C3_4  and  C4_6
REMARK    5  A    between atoms: C7_10  and  C8_11
REMARK    6  A    between atoms: C13_16  and  N2_17
REMARK    7  A    between atoms: N2_17  and  C14_18
REMARK    8  A    between atoms: C17_21  and  C20_24
REMARK    9  A    between atoms: C20_24  and  C21_26
REMARK                            x       y       z     vdW  Elec       q    Type
REMARK                         _______ _______ _______ _____ _____    ______ ____
ROOT
ATOM      1  C4  UNL     1      16.262  27.088  18.874  0.00  0.00    +0.099 A 
ATOM      2  C5  UNL     1      15.890  28.289  18.298  0.00  0.00    +0.128 A 
ATOM      3  N1  UNL     1      15.243  28.394  17.115  0.00  0.00    -0.254 NA
ATOM      4  C6  UNL     1      14.914  27.271  16.450  0.00  0.00    +0.076 A 
ATOM      5  C7  UNL     1      14.229  27.372  15.230  0.00  0.00    -0.024 A 
ATOM      6  C8  UNL     1      13.878  28.728  14.676  0.00  0.00    +0.046 C 
ATOM      7  C9  UNL     1      13.856  26.224  14.514  0.00  0.00    +0.005 A 
ATOM      8  C10 UNL     1      14.156  24.963  15.009  0.00  0.00    +0.001 A 
ATOM      9  C11 UNL     1      14.838  24.848  16.216  0.00  0.00    +0.012 A 
ATOM     10  C12 UNL     1      15.239  25.988  16.950  0.00  0.00    +0.023 A 
ATOM     11  C13 UNL     1      15.940  25.904  18.189  0.00  0.00    +0.056 A 
ENDROOT
BRANCH   1  12
ATOM     12  C3  UNL     1      16.942  27.061  20.188  0.00  0.00    +0.342 C 
ATOM     13  O2  UNL     1      16.527  26.415  21.139  0.00  0.00    -0.245 OA
BRANCH  12  14
ATOM     14  O1  UNL     1      18.060  27.826  20.166  0.00  0.00    -0.461 OA
BRANCH  14  16
ATOM     15  C1  UNL     1      20.217  26.782  19.816  0.00  0.00    +0.048 C 
ATOM     16  C2  UNL     1      19.207  27.279  20.835  0.00  0.00    +0.229 C 
ENDBRANCH  14  16
ENDBRANCH  12  14
ENDBRANCH   1  12
BRANCH  11  17
ATOM     17  N2  UNL     1      16.395  24.639  18.681  0.00  0.00    -0.313 N 
ATOM     18  H13 UNL     1      16.109  24.525  19.664  0.00  0.00    +0.152 HD
BRANCH  17  19
ATOM     19  C14 UNL     1      17.709  24.115  18.544  0.00  0.00    +0.031 A 
ATOM     20  C15 UNL     1      18.338  23.347  19.531  0.00  0.00    +0.024 A 
ATOM     21  C16 UNL     1      19.658  22.903  19.370  0.00  0.00    +0.013 A 
ATOM     22  C17 UNL     1      20.377  23.236  18.218  0.00  0.00    +0.017 A 
ATOM     23  C18 UNL     1      19.763  24.021  17.237  0.00  0.00    +0.013 A 
ATOM     24  C19 UNL     1      18.446  24.462  17.404  0.00  0.00    +0.024 A 
BRANCH  22  25
ATOM     25  C20 UNL     1      21.784  22.789  17.998  0.00  0.00    +0.160 C 
ATOM     26  O3  UNL     1      22.524  22.590  18.959  0.00  0.00    -0.292 OA
ATOM     27  C21 UNL     1      22.273  22.591  16.586  0.00  0.00    +0.091 C 
ENDBRANCH  22  25
ENDBRANCH  17  19
ENDBRANCH  11  17
TORSDOF 6
ENDMDL
MODEL 6
REMARK VINA RESULT:    -3.480      2.839      4.677
REMARK INTER + INTRA:          -6.505
REMARK INTER:                  -4.955
REMARK INTRA:                  -1.550
REMARK UNBOUND:                -1.804
REMARK  Name = /home/vital/Documents/PhD_2021/Malaria_codes/data/pdb_ligands_mmv/ligand_280.pdb
REMARK  9 active torsions:
REMARK  status: ('A' for Active; 'I' for Inactive)
REMARK    1  A    between atoms: C1_1  and  C2_2
REMARK    2  A    between atoms: C2_2  and  O1_3
REMARK    3  A    between atoms: O1_3  and  C3_4
REMARK    4  A    between atoms: C3_4  and  C4_6
REMARK    5  A    between atoms: C7_10  and  C8_11
REMARK    6  A    between atoms: C13_16  and  N2_17
REMARK    7  A    between atoms: N2_17  and  C14_18
REMARK    8  A    between atoms: C17_21  and  C20_24
REMARK    9  A    between atoms: C20_24  and  C21_26
REMARK                            x       y       z     vdW  Elec       q    Type
REMARK                         _______ _______ _______ _____ _____    ______ ____
ROOT
ATOM      1  C4  UNL     1      14.366  26.791  16.873  0.00  0.00    +0.099 A 
ATOM      2  C5  UNL     1      13.975  26.708  18.196  0.00  0.00    +0.128 A 
ATOM      3  N1  UNL     1      14.141  27.702  19.099  0.00  0.00    -0.254 NA
ATOM      4  C6  UNL     1      14.703  28.859  18.699  0.00  0.00    +0.076 A 
ATOM      5  C7  UNL     1      14.865  29.899  19.626  0.00  0.00    -0.024 A 
ATOM      6  C8  UNL     1      14.417  29.710  21.052  0.00  0.00    +0.046 C 
ATOM      7  C9  UNL     1      15.433  31.125  19.244  0.00  0.00    +0.005 A 
ATOM      8  C10 UNL     1      15.841  31.328  17.934  0.00  0.00    +0.001 A 
ATOM      9  C11 UNL     1      15.690  30.304  17.006  0.00  0.00    +0.012 A 
ATOM     10  C12 UNL     1      15.134  29.054  17.366  0.00  0.00    +0.023 A 
ATOM     11  C13 UNL     1      14.968  27.984  16.438  0.00  0.00    +0.056 A 
ENDROOT
BRANCH   1  12
ATOM     12  C3  UNL     1      14.120  25.666  15.942  0.00  0.00    +0.342 C 
ATOM     13  O2  UNL     1      13.696  25.822  14.807  0.00  0.00    -0.245 OA
BRANCH  12  14
ATOM     14  O1  UNL     1      14.439  24.484  16.523  0.00  0.00    -0.461 OA
BRANCH  14  16
ATOM     15  C1  UNL     1      16.699  23.928  17.193  0.00  0.00    +0.048 C 
ATOM     16  C2  UNL     1      15.665  23.880  16.083  0.00  0.00    +0.229 C 
ENDBRANCH  14  16
ENDBRANCH  12  14
ENDBRANCH   1  12
BRANCH  11  17
ATOM     17  N2  UNL     1      15.492  28.087  15.110  0.00  0.00    -0.313 N 
ATOM     18  H13 UNL     1      14.897  27.555  14.459  0.00  0.00    +0.152 HD
BRANCH  17  19
ATOM     19  C14 UNL     1      16.846  27.883  14.730  0.00  0.00    +0.031 A 
ATOM     20  C15 UNL     1      17.709  27.007  15.399  0.00  0.00    +0.024 A 
ATOM     21  C16 UNL     1      19.053  26.885  15.019  0.00  0.00    +0.013 A 
ATOM     22  C17 UNL     1      19.560  27.655  13.968  0.00  0.00    +0.017 A 
ATOM     23  C18 UNL     1      18.709  28.549  13.308  0.00  0.00    +0.013 A 
ATOM     24  C19 UNL     1      17.369  28.666  13.693  0.00  0.00    +0.024 A 
BRANCH  22  25
ATOM     25  C20 UNL     1      20.982  27.564  13.524  0.00  0.00    +0.160 C 
ATOM     26  O3  UNL     1      21.867  28.104  14.185  0.00  0.00    -0.292 OA
ATOM     27  C21 UNL     1      21.306  26.805  12.264  0.00  0.00    +0.091 C 
ENDBRANCH  22  25
ENDBRANCH  17  19
ENDBRANCH  11  17
TORSDOF 6
ENDMDL
MODEL 7
REMARK VINA RESULT:    -3.450      2.132      6.330
REMARK INTER + INTRA:          -6.464
REMARK INTER:                  -4.863
REMARK INTRA:                  -1.601
REMARK UNBOUND:                -1.804
REMARK  Name = /home/vital/Documents/PhD_2021/Malaria_codes/data/pdb_ligands_mmv/ligand_280.pdb
REMARK  9 active torsions:
REMARK  status: ('A' for Active; 'I' for Inactive)
REMARK    1  A    between atoms: C1_1  and  C2_2
REMARK    2  A    between atoms: C2_2  and  O1_3
REMARK    3  A    between atoms: O1_3  and  C3_4
REMARK    4  A    between atoms: C3_4  and  C4_6
REMARK    5  A    between atoms: C7_10  and  C8_11
REMARK    6  A    between atoms: C13_16  and  N2_17
REMARK    7  A    between atoms: N2_17  and  C14_18
REMARK    8  A    between atoms: C17_21  and  C20_24
REMARK    9  A    between atoms: C20_24  and  C21_26
REMARK                            x       y       z     vdW  Elec       q    Type
REMARK                         _______ _______ _______ _____ _____    ______ ____
ROOT
ATOM      1  C4  UNL     1      16.072  25.094  16.275  0.00  0.00    +0.099 A 
ATOM      2  C5  UNL     1      16.193  24.267  17.376  0.00  0.00    +0.128 A 
ATOM      3  N1  UNL     1      17.317  24.157  18.121  0.00  0.00    -0.254 NA
ATOM      4  C6  UNL     1      18.389  24.905  17.798  0.00  0.00    +0.076 A 
ATOM      5  C7  UNL     1      19.552  24.807  18.576  0.00  0.00    -0.024 A 
ATOM      6  C8  UNL     1      19.592  23.866  19.752  0.00  0.00    +0.046 C 
ATOM      7  C9  UNL     1      20.686  25.581  18.280  0.00  0.00    +0.005 A 
ATOM      8  C10 UNL     1      20.670  26.464  17.210  0.00  0.00    +0.001 A 
ATOM      9  C11 UNL     1      19.524  26.568  16.429  0.00  0.00    +0.012 A 
ATOM     10  C12 UNL     1      18.373  25.790  16.695  0.00  0.00    +0.023 A 
ATOM     11  C13 UNL     1      17.184  25.873  15.912  0.00  0.00    +0.056 A 
ENDROOT
BRANCH   1  12
ATOM     12  C3  UNL     1      14.795  25.177  15.531  0.00  0.00    +0.342 C 
ATOM     13  O2  UNL     1      14.687  24.858  14.356  0.00  0.00    -0.245 OA
BRANCH  12  14
ATOM     14  O1  UNL     1      13.802  25.634  16.331  0.00  0.00    -0.461 OA
BRANCH  14  16
ATOM     15  C1  UNL     1      13.952  27.499  17.869  0.00  0.00    +0.048 C 
ATOM     16  C2  UNL     1      13.690  27.062  16.439  0.00  0.00    +0.229 C 
ENDBRANCH  14  16
ENDBRANCH  12  14
ENDBRANCH   1  12
BRANCH  11  17
ATOM     17  N2  UNL     1      17.155  26.664  14.719  0.00  0.00    -0.313 N 
ATOM     18  H13 UNL     1      18.059  26.592  14.232  0.00  0.00    +0.152 HD
BRANCH  17  19
ATOM     19  C14 UNL     1      16.712  28.011  14.624  0.00  0.00    +0.031 A 
ATOM     20  C15 UNL     1      16.664  28.885  15.717  0.00  0.00    +0.024 A 
ATOM     21  C16 UNL     1      16.165  30.187  15.580  0.00  0.00    +0.013 A 
ATOM     22  C17 UNL     1      15.690  30.633  14.343  0.00  0.00    +0.017 A 
ATOM     23  C18 UNL     1      15.714  29.759  13.251  0.00  0.00    +0.013 A 
ATOM     24  C19 UNL     1      16.213  28.460  13.395  0.00  0.00    +0.024 A 
BRANCH  22  25
ATOM     25  C20 UNL     1      15.147  32.009  14.144  0.00  0.00    +0.160 C 
ATOM     26  O3  UNL     1      14.503  32.275  13.131  0.00  0.00    -0.292 OA
ATOM     27  C21 UNL     1      15.403  33.054  15.199  0.00  0.00    +0.091 C 
ENDBRANCH  22  25
ENDBRANCH  17  19
ENDBRANCH  11  17
TORSDOF 6
ENDMDL
MODEL 8
REMARK VINA RESULT:    -3.329      2.919      4.497
REMARK INTER + INTRA:          -6.301
REMARK INTER:                  -5.017
REMARK INTRA:                  -1.284
REMARK UNBOUND:                -1.804
REMARK  Name = /home/vital/Documents/PhD_2021/Malaria_codes/data/pdb_ligands_mmv/ligand_280.pdb
REMARK  9 active torsions:
REMARK  status: ('A' for Active; 'I' for Inactive)
REMARK    1  A    between atoms: C1_1  and  C2_2
REMARK    2  A    between atoms: C2_2  and  O1_3
REMARK    3  A    between atoms: O1_3  and  C3_4
REMARK    4  A    between atoms: C3_4  and  C4_6
REMARK    5  A    between atoms: C7_10  and  C8_11
REMARK    6  A    between atoms: C13_16  and  N2_17
REMARK    7  A    between atoms: N2_17  and  C14_18
REMARK    8  A    between atoms: C17_21  and  C20_24
REMARK    9  A    between atoms: C20_24  and  C21_26
REMARK                            x       y       z     vdW  Elec       q    Type
REMARK                         _______ _______ _______ _____ _____    ______ ____
ROOT
ATOM      1  C4  UNL     1      15.009  26.712  15.899  0.00  0.00    +0.099 A 
ATOM      2  C5  UNL     1      14.475  27.153  14.703  0.00  0.00    +0.128 A 
ATOM      3  N1  UNL     1      14.560  28.429  14.261  0.00  0.00    -0.254 NA
ATOM      4  C6  UNL     1      15.215  29.337  15.009  0.00  0.00    +0.076 A 
ATOM      5  C7  UNL     1      15.318  30.657  14.550  0.00  0.00    -0.024 A 
ATOM      6  C8  UNL     1      14.693  31.047  13.235  0.00  0.00    +0.046 C 
ATOM      7  C9  UNL     1      16.006  31.629  15.293  0.00  0.00    +0.005 A 
ATOM      8  C10 UNL     1      16.602  31.293  16.500  0.00  0.00    +0.001 A 
ATOM      9  C11 UNL     1      16.504  29.987  16.969  0.00  0.00    +0.012 A 
ATOM     10  C12 UNL     1      15.805  28.992  16.248  0.00  0.00    +0.023 A 
ATOM     11  C13 UNL     1      15.685  27.646  16.702  0.00  0.00    +0.056 A 
ENDROOT
BRANCH   1  12
ATOM     12  C3  UNL     1      14.898  25.290  16.295  0.00  0.00    +0.342 C 
ATOM     13  O2  UNL     1      13.831  24.752  16.552  0.00  0.00    -0.245 OA
BRANCH  12  14
ATOM     14  O1  UNL     1      16.118  24.700  16.315  0.00  0.00    -0.461 OA
BRANCH  14  16
ATOM     15  C1  UNL     1      17.710  23.115  17.219  0.00  0.00    +0.048 C 
ATOM     16  C2  UNL     1      16.321  23.714  17.339  0.00  0.00    +0.229 C 
ENDBRANCH  14  16
ENDBRANCH  12  14
ENDBRANCH   1  12
BRANCH  11  17
ATOM     17  N2  UNL     1      16.162  27.273  18.000  0.00  0.00    -0.313 N 
ATOM     18  H13 UNL     1      16.330  26.257  18.030  0.00  0.00    +0.152 HD
BRANCH  17  19
ATOM     19  C14 UNL     1      15.586  27.658  19.241  0.00  0.00    +0.031 A 
ATOM     20  C15 UNL     1      14.213  27.585  19.508  0.00  0.00    +0.024 A 
ATOM     21  C16 UNL     1      13.690  28.031  20.730  0.00  0.00    +0.013 A 
ATOM     22  C17 UNL     1      14.535  28.574  21.701  0.00  0.00    +0.017 A 
ATOM     23  C18 UNL     1      15.905  28.671  21.434  0.00  0.00    +0.013 A 
ATOM     24  C19 UNL     1      16.421  28.224  20.212  0.00  0.00    +0.024 A 
BRANCH  22  25
ATOM     25  C20 UNL     1      14.029  29.064  23.018  0.00  0.00    +0.160 C 
ATOM     26  O3  UNL     1      13.878  30.270  23.207  0.00  0.00    -0.292 OA
ATOM     27  C21 UNL     1      13.711  28.061  24.096  0.00  0.00    +0.091 C 
ENDBRANCH  22  25
ENDBRANCH  17  19
ENDBRANCH  11  17
TORSDOF 6
ENDMDL
