MODEL 1
REMARK VINA RESULT:    -4.212      0.000      0.000
REMARK INTER + INTRA:          -6.307
REMARK INTER:                  -5.443
REMARK INTRA:                  -0.864
REMARK UNBOUND:                -0.864
REMARK  Name = /home/vital/Documents/PhD_2021/Malaria_codes/data/pdb_ligands_mmv/ligand_126.pdb
REMARK  8 active torsions:
REMARK  status: ('A' for Active; 'I' for Inactive)
REMARK    1  A    between atoms: C1_1  and  C2_2
REMARK    2  A    between atoms: C2_2  and  O1_3
REMARK    3  A    between atoms: O1_3  and  C3_4
REMARK    4  A    between atoms: C6_7  and  C9_10
REMARK    5  A    between atoms: C11_14  and  C12_16
REMARK    6  A    between atoms: C16_20  and  S1_22
REMARK    7  A    between atoms: S1_22  and  C18_25
REMARK    8  A    between atoms: C19_27  and  C20_28
REMARK                            x       y       z     vdW  Elec       q    Type
REMARK                         _______ _______ _______ _____ _____    ______ ____
ROOT
ATOM      1  C9  UNL     1     140.714 131.139  90.413  0.00  0.00    +0.083 A 
ATOM      2  N1  UNL     1     140.094 129.901  90.490  0.00  0.00    -0.224 NA
ATOM      3  C10 UNL     1     139.339 129.716  89.435  0.00  0.00    +0.165 A 
ATOM      4  N2  UNL     1     138.598 128.570  89.299  0.00  0.00    -0.261 N 
ATOM      5  C11 UNL     1     137.816 128.210  88.230  0.00  0.00    +0.250 C 
ATOM      6  O2  UNL     1     137.664 128.808  87.172  0.00  0.00    -0.270 OA
ATOM      7  S2  UNL     1     139.328 130.976  88.297  0.00  0.00    -0.057 S 
ATOM      8  C19 UNL     1     140.444 131.860  89.259  0.00  0.00    +0.016 A 
ATOM      9  C20 UNL     1     140.954 133.177  88.785  0.00  0.00    +0.054 C 
ATOM     10  H10 UNL     1     138.735 127.933  90.070  0.00  0.00    +0.157 HD
ENDROOT
BRANCH   1  14
ATOM     11  C3  UNL     1     143.371 132.367  93.526  0.00  0.00    +0.121 A 
ATOM     12  C4  UNL     1     142.010 132.674  93.601  0.00  0.00    +0.046 A 
ATOM     13  C5  UNL     1     141.129 132.278  92.591  0.00  0.00    +0.013 A 
ATOM     14  C6  UNL     1     141.603 131.574  91.480  0.00  0.00    +0.001 A 
ATOM     15  C7  UNL     1     142.965 131.258  91.412  0.00  0.00    +0.013 A 
ATOM     16  C8  UNL     1     143.845 131.657  92.425  0.00  0.00    +0.046 A 
BRANCH  11  17
ATOM     17  O1  UNL     1     144.111 132.823  94.580  0.00  0.00    -0.492 OA
BRANCH  17  19
ATOM     18  C1  UNL     1     145.805 134.528  94.252  0.00  0.00    +0.048 C 
ATOM     19  C2  UNL     1     145.509 133.045  94.398  0.00  0.00    +0.225 C 
ENDBRANCH  17  19
ENDBRANCH  11  17
ENDBRANCH   1  14
BRANCH   5  20
ATOM     20  C12 UNL     1     137.100 126.915  88.395  0.00  0.00    +0.039 A 
ATOM     21  C13 UNL     1     137.382 126.046  89.460  0.00  0.00    +0.013 A 
ATOM     22  C14 UNL     1     136.678 124.845  89.589  0.00  0.00    +0.003 A 
ATOM     23  C15 UNL     1     135.684 124.513  88.668  0.00  0.00    +0.027 A 
ATOM     24  C16 UNL     1     135.388 125.395  87.625  0.00  0.00    +0.089 A 
ATOM     25  C17 UNL     1     136.095 126.591  87.476  0.00  0.00    +0.040 A 
BRANCH  24  26
ATOM     26  S1  UNL     1     134.127 124.985  86.443  0.00  0.00    -0.006 S 
ATOM     27  O3  UNL     1     133.706 126.228  85.826  0.00  0.00    -0.170 OA
ATOM     28  O4  UNL     1     134.623 123.885  85.638  0.00  0.00    -0.170 OA
ATOM     29  C18 UNL     1     132.799 124.370  87.445  0.00  0.00    +0.200 C 
ENDBRANCH  24  26
ENDBRANCH   5  20
TORSDOF 5
ENDMDL
MODEL 2
REMARK VINA RESULT:    -4.180      2.519     11.002
REMARK INTER + INTRA:          -6.265
REMARK INTER:                  -5.395
REMARK INTRA:                  -0.871
REMARK UNBOUND:                -0.864
REMARK  Name = /home/vital/Documents/PhD_2021/Malaria_codes/data/pdb_ligands_mmv/ligand_126.pdb
REMARK  8 active torsions:
REMARK  status: ('A' for Active; 'I' for Inactive)
REMARK    1  A    between atoms: C1_1  and  C2_2
REMARK    2  A    between atoms: C2_2  and  O1_3
REMARK    3  A    between atoms: O1_3  and  C3_4
REMARK    4  A    between atoms: C6_7  and  C9_10
REMARK    5  A    between atoms: C11_14  and  C12_16
REMARK    6  A    between atoms: C16_20  and  S1_22
REMARK    7  A    between atoms: S1_22  and  C18_25
REMARK    8  A    between atoms: C19_27  and  C20_28
REMARK                            x       y       z     vdW  Elec       q    Type
REMARK                         _______ _______ _______ _____ _____    ______ ____
ROOT
ATOM      1  C9  UNL     1     136.833 125.222  89.019  0.00  0.00    +0.083 A 
ATOM      2  N1  UNL     1     137.205 126.558  89.033  0.00  0.00    -0.224 NA
ATOM      3  C10 UNL     1     138.401 126.681  89.558  0.00  0.00    +0.165 A 
ATOM      4  N2  UNL     1     138.974 127.917  89.706  0.00  0.00    -0.261 N 
ATOM      5  C11 UNL     1     140.233 128.196  90.177  0.00  0.00    +0.250 C 
ATOM      6  O2  UNL     1     141.107 127.405  90.506  0.00  0.00    -0.270 OA
ATOM      7  S2  UNL     1     139.150 125.238  90.046  0.00  0.00    -0.057 S 
ATOM      8  C19 UNL     1     137.790 124.341  89.501  0.00  0.00    +0.016 A 
ATOM      9  C20 UNL     1     137.794 122.855  89.594  0.00  0.00    +0.054 C 
ATOM     10  H10 UNL     1     138.383 128.657  89.354  0.00  0.00    +0.157 HD
ENDROOT
BRANCH   1  14
ATOM     11  C3  UNL     1     133.042 124.111  87.391  0.00  0.00    +0.121 A 
ATOM     12  C4  UNL     1     133.194 124.276  88.770  0.00  0.00    +0.046 A 
ATOM     13  C5  UNL     1     134.428 124.641  89.317  0.00  0.00    +0.013 A 
ATOM     14  C6  UNL     1     135.536 124.835  88.486  0.00  0.00    +0.001 A 
ATOM     15  C7  UNL     1     135.378 124.680  87.104  0.00  0.00    +0.013 A 
ATOM     16  C8  UNL     1     134.142 124.314  86.559  0.00  0.00    +0.046 A 
BRANCH  11  17
ATOM     17  O1  UNL     1     131.783 123.748  87.002  0.00  0.00    -0.492 OA
BRANCH  17  19
ATOM     18  C1  UNL     1     131.271 121.481  86.309  0.00  0.00    +0.048 C 
ATOM     19  C2  UNL     1     131.260 122.494  87.440  0.00  0.00    +0.225 C 
ENDBRANCH  17  19
ENDBRANCH  11  17
ENDBRANCH   1  14
BRANCH   5  20
ATOM     20  C12 UNL     1     140.556 129.648  90.258  0.00  0.00    +0.039 A 
ATOM     21  C13 UNL     1     140.367 130.508  89.166  0.00  0.00    +0.013 A 
ATOM     22  C14 UNL     1     140.669 131.868  89.285  0.00  0.00    +0.003 A 
ATOM     23  C15 UNL     1     141.145 132.376  90.494  0.00  0.00    +0.027 A 
ATOM     24  C16 UNL     1     141.304 131.520  91.586  0.00  0.00    +0.089 A 
ATOM     25  C17 UNL     1     141.021 130.156  91.476  0.00  0.00    +0.040 A 
BRANCH  24  26
ATOM     26  S1  UNL     1     141.913 132.152  93.132  0.00  0.00    -0.006 S 
ATOM     27  O3  UNL     1     141.013 133.213  93.539  0.00  0.00    -0.170 OA
ATOM     28  O4  UNL     1     142.167 131.016  93.999  0.00  0.00    -0.170 OA
ATOM     29  C18 UNL     1     143.478 132.868  92.703  0.00  0.00    +0.200 C 
ENDBRANCH  24  26
ENDBRANCH   5  20
TORSDOF 5
ENDMDL
MODEL 3
REMARK VINA RESULT:    -4.130      4.663      8.084
REMARK INTER + INTRA:          -6.202
REMARK INTER:                  -5.321
REMARK INTRA:                  -0.881
REMARK UNBOUND:                -0.864
REMARK  Name = /home/vital/Documents/PhD_2021/Malaria_codes/data/pdb_ligands_mmv/ligand_126.pdb
REMARK  8 active torsions:
REMARK  status: ('A' for Active; 'I' for Inactive)
REMARK    1  A    between atoms: C1_1  and  C2_2
REMARK    2  A    between atoms: C2_2  and  O1_3
REMARK    3  A    between atoms: O1_3  and  C3_4
REMARK    4  A    between atoms: C6_7  and  C9_10
REMARK    5  A    between atoms: C11_14  and  C12_16
REMARK    6  A    between atoms: C16_20  and  S1_22
REMARK    7  A    between atoms: S1_22  and  C18_25
REMARK    8  A    between atoms: C19_27  and  C20_28
REMARK                            x       y       z     vdW  Elec       q    Type
REMARK                         _______ _______ _______ _____ _____    ______ ____
ROOT
ATOM      1  C9  UNL     1     143.409 132.381  96.044  0.00  0.00    +0.083 A 
ATOM      2  N1  UNL     1     142.613 132.347  94.908  0.00  0.00    -0.224 NA
ATOM      3  C10 UNL     1     143.294 132.782  93.875  0.00  0.00    +0.165 A 
ATOM      4  N2  UNL     1     142.706 132.869  92.640  0.00  0.00    -0.261 N 
ATOM      5  C11 UNL     1     143.304 133.242  91.462  0.00  0.00    +0.250 C 
ATOM      6  O2  UNL     1     144.482 133.521  91.269  0.00  0.00    -0.270 OA
ATOM      7  S2  UNL     1     144.900 133.239  94.181  0.00  0.00    -0.057 S 
ATOM      8  C19 UNL     1     144.712 132.807  95.834  0.00  0.00    +0.016 A 
ATOM      9  C20 UNL     1     145.867 132.924  96.768  0.00  0.00    +0.054 C 
ATOM     10  H10 UNL     1     141.749 132.548  92.648  0.00  0.00    +0.157 HD
ENDROOT
BRANCH   1  14
ATOM     11  C3  UNL     1     141.813 131.048  99.776  0.00  0.00    +0.121 A 
ATOM     12  C4  UNL     1     141.794 132.406  99.448  0.00  0.00    +0.046 A 
ATOM     13  C5  UNL     1     142.311 132.856  98.229  0.00  0.00    +0.013 A 
ATOM     14  C6  UNL     1     142.868 131.949  97.323  0.00  0.00    +0.001 A 
ATOM     15  C7  UNL     1     142.876 130.588  97.650  0.00  0.00    +0.013 A 
ATOM     16  C8  UNL     1     142.358 130.140  98.871  0.00  0.00    +0.046 A 
BRANCH  11  17
ATOM     17  O1  UNL     1     141.280 130.756 101.000  0.00  0.00    -0.492 OA
BRANCH  17  19
ATOM     18  C1  UNL     1     139.124 129.646 101.075  0.00  0.00    +0.048 C 
ATOM     19  C2  UNL     1     140.632 129.499 101.188  0.00  0.00    +0.225 C 
ENDBRANCH  17  19
ENDBRANCH  11  17
ENDBRANCH   1  14
BRANCH   5  20
ATOM     20  C12 UNL     1     142.390 133.277  90.287  0.00  0.00    +0.039 A 
ATOM     21  C13 UNL     1     142.436 134.316  89.346  0.00  0.00    +0.013 A 
ATOM     22  C14 UNL     1     141.571 134.305  88.248  0.00  0.00    +0.003 A 
ATOM     23  C15 UNL     1     140.669 133.255  88.077  0.00  0.00    +0.027 A 
ATOM     24  C16 UNL     1     140.646 132.209  89.003  0.00  0.00    +0.089 A 
ATOM     25  C17 UNL     1     141.495 132.215  90.113  0.00  0.00    +0.040 A 
BRANCH  24  26
ATOM     26  S1  UNL     1     139.501 130.865  88.801  0.00  0.00    -0.006 S 
ATOM     27  O3  UNL     1     138.178 131.392  89.075  0.00  0.00    -0.170 OA
ATOM     28  O4  UNL     1     139.798 130.222  87.535  0.00  0.00    -0.170 OA
ATOM     29  C18 UNL     1     139.944 129.740  90.099  0.00  0.00    +0.200 C 
ENDBRANCH  24  26
ENDBRANCH   5  20
TORSDOF 5
ENDMDL
MODEL 4
REMARK VINA RESULT:    -4.036     11.677     15.570
REMARK INTER + INTRA:          -6.079
REMARK INTER:                  -5.183
REMARK INTRA:                  -0.896
REMARK UNBOUND:                -0.864
REMARK  Name = /home/vital/Documents/PhD_2021/Malaria_codes/data/pdb_ligands_mmv/ligand_126.pdb
REMARK  8 active torsions:
REMARK  status: ('A' for Active; 'I' for Inactive)
REMARK    1  A    between atoms: C1_1  and  C2_2
REMARK    2  A    between atoms: C2_2  and  O1_3
REMARK    3  A    between atoms: O1_3  and  C3_4
REMARK    4  A    between atoms: C6_7  and  C9_10
REMARK    5  A    between atoms: C11_14  and  C12_16
REMARK    6  A    between atoms: C16_20  and  S1_22
REMARK    7  A    between atoms: S1_22  and  C18_25
REMARK    8  A    between atoms: C19_27  and  C20_28
REMARK                            x       y       z     vdW  Elec       q    Type
REMARK                         _______ _______ _______ _____ _____    ______ ____
ROOT
ATOM      1  C9  UNL     1     142.848 127.120 103.696  0.00  0.00    +0.083 A 
ATOM      2  N1  UNL     1     142.454 128.063 102.758  0.00  0.00    -0.224 NA
ATOM      3  C10 UNL     1     143.478 128.807 102.419  0.00  0.00    +0.165 A 
ATOM      4  N2  UNL     1     143.327 129.834 101.523  0.00  0.00    -0.261 N 
ATOM      5  C11 UNL     1     144.312 130.652 101.028  0.00  0.00    +0.250 C 
ATOM      6  O2  UNL     1     145.516 130.600 101.243  0.00  0.00    -0.270 OA
ATOM      7  S2  UNL     1     144.953 128.431 103.171  0.00  0.00    -0.057 S 
ATOM      8  C19 UNL     1     144.197 127.142 104.020  0.00  0.00    +0.016 A 
ATOM      9  C20 UNL     1     145.003 126.272 104.920  0.00  0.00    +0.054 C 
ATOM     10  H10 UNL     1     142.382 129.904 101.177  0.00  0.00    +0.157 HD
ENDROOT
BRANCH   1  14
ATOM     11  C3  UNL     1     140.003 124.383 105.331  0.00  0.00    +0.121 A 
ATOM     12  C4  UNL     1     140.679 124.072 104.148  0.00  0.00    +0.046 A 
ATOM     13  C5  UNL     1     141.614 124.957 103.603  0.00  0.00    +0.013 A 
ATOM     14  C6  UNL     1     141.877 126.178 104.231  0.00  0.00    +0.001 A 
ATOM     15  C7  UNL     1     141.207 126.482 105.422  0.00  0.00    +0.013 A 
ATOM     16  C8  UNL     1     140.271 125.595 105.966  0.00  0.00    +0.046 A 
BRANCH  11  17
ATOM     17  O1  UNL     1     139.116 123.428 105.742  0.00  0.00    -0.492 OA
BRANCH  17  19
ATOM     18  C1  UNL     1     136.824 123.873 105.085  0.00  0.00    +0.048 C 
ATOM     19  C2  UNL     1     138.069 123.033 104.858  0.00  0.00    +0.225 C 
ENDBRANCH  17  19
ENDBRANCH  11  17
ENDBRANCH   1  14
BRANCH   5  20
ATOM     20  C12 UNL     1     143.828 131.706 100.093  0.00  0.00    +0.039 A 
ATOM     21  C13 UNL     1     142.468 132.033  99.989  0.00  0.00    +0.013 A 
ATOM     22  C14 UNL     1     142.054 133.038  99.110  0.00  0.00    +0.003 A 
ATOM     23  C15 UNL     1     142.993 133.730  98.345  0.00  0.00    +0.027 A 
ATOM     24  C16 UNL     1     144.350 133.419  98.473  0.00  0.00    +0.089 A 
ATOM     25  C17 UNL     1     144.775 132.406  99.336  0.00  0.00    +0.040 A 
BRANCH  24  26
ATOM     26  S1  UNL     1     145.558 134.288  97.502  0.00  0.00    -0.006 S 
ATOM     27  O3  UNL     1     145.169 135.685  97.494  0.00  0.00    -0.170 OA
ATOM     28  O4  UNL     1     146.870 133.883  97.971  0.00  0.00    -0.170 OA
ATOM     29  C18 UNL     1     145.337 133.628  95.871  0.00  0.00    +0.200 C 
ENDBRANCH  24  26
ENDBRANCH   5  20
TORSDOF 5
ENDMDL
MODEL 5
REMARK VINA RESULT:    -3.921      5.279      6.956
REMARK INTER + INTRA:          -5.931
REMARK INTER:                  -5.202
REMARK INTRA:                  -0.729
REMARK UNBOUND:                -0.864
REMARK  Name = /home/vital/Documents/PhD_2021/Malaria_codes/data/pdb_ligands_mmv/ligand_126.pdb
REMARK  8 active torsions:
REMARK  status: ('A' for Active; 'I' for Inactive)
REMARK    1  A    between atoms: C1_1  and  C2_2
REMARK    2  A    between atoms: C2_2  and  O1_3
REMARK    3  A    between atoms: O1_3  and  C3_4
REMARK    4  A    between atoms: C6_7  and  C9_10
REMARK    5  A    between atoms: C11_14  and  C12_16
REMARK    6  A    between atoms: C16_20  and  S1_22
REMARK    7  A    between atoms: S1_22  and  C18_25
REMARK    8  A    between atoms: C19_27  and  C20_28
REMARK                            x       y       z     vdW  Elec       q    Type
REMARK                         _______ _______ _______ _____ _____    ______ ____
ROOT
ATOM      1  C9  UNL     1     140.742 127.298  95.076  0.00  0.00    +0.083 A 
ATOM      2  N1  UNL     1     140.294 128.274  94.198  0.00  0.00    -0.224 NA
ATOM      3  C10 UNL     1     140.591 127.935  92.968  0.00  0.00    +0.165 A 
ATOM      4  N2  UNL     1     140.273 128.761  91.921  0.00  0.00    -0.261 N 
ATOM      5  C11 UNL     1     140.463 128.514  90.584  0.00  0.00    +0.250 C 
ATOM      6  O2  UNL     1     140.902 127.498  90.059  0.00  0.00    -0.270 OA
ATOM      7  S2  UNL     1     141.397 126.452  92.778  0.00  0.00    -0.057 S 
ATOM      8  C19 UNL     1     141.341 126.200  94.477  0.00  0.00    +0.016 A 
ATOM      9  C20 UNL     1     141.887 124.942  95.059  0.00  0.00    +0.054 C 
ATOM     10  H10 UNL     1     139.792 129.595  92.224  0.00  0.00    +0.157 HD
ENDROOT
BRANCH   1  14
ATOM     11  C3  UNL     1     140.056 127.775  99.267  0.00  0.00    +0.121 A 
ATOM     12  C4  UNL     1     141.348 127.895  98.747  0.00  0.00    +0.046 A 
ATOM     13  C5  UNL     1     141.586 127.743  97.378  0.00  0.00    +0.013 A 
ATOM     14  C6  UNL     1     140.531 127.456  96.507  0.00  0.00    +0.001 A 
ATOM     15  C7  UNL     1     139.236 127.347  97.028  0.00  0.00    +0.013 A 
ATOM     16  C8  UNL     1     139.000 127.499  98.400  0.00  0.00    +0.046 A 
BRANCH  11  17
ATOM     17  O1  UNL     1     139.974 127.942 100.621  0.00  0.00    -0.492 OA
BRANCH  17  19
ATOM     18  C1  UNL     1     139.748 130.329 100.984  0.00  0.00    +0.048 C 
ATOM     19  C2  UNL     1     139.116 128.957 101.140  0.00  0.00    +0.225 C 
ENDBRANCH  17  19
ENDBRANCH  11  17
ENDBRANCH   1  14
BRANCH   5  20
ATOM     20  C12 UNL     1     140.049 129.627  89.684  0.00  0.00    +0.039 A 
ATOM     21  C13 UNL     1     140.582 130.918  89.813  0.00  0.00    +0.013 A 
ATOM     22  C14 UNL     1     140.178 131.933  88.941  0.00  0.00    +0.003 A 
ATOM     23  C15 UNL     1     139.255 131.662  87.931  0.00  0.00    +0.027 A 
ATOM     24  C16 UNL     1     138.748 130.368  87.790  0.00  0.00    +0.089 A 
ATOM     25  C17 UNL     1     139.131 129.348  88.664  0.00  0.00    +0.040 A 
BRANCH  24  26
ATOM     26  S1  UNL     1     137.568 130.008  86.510  0.00  0.00    -0.006 S 
ATOM     27  O3  UNL     1     138.296 129.366  85.433  0.00  0.00    -0.170 OA
ATOM     28  O4  UNL     1     136.432 129.356  87.134  0.00  0.00    -0.170 OA
ATOM     29  C18 UNL     1     137.042 131.611  85.964  0.00  0.00    +0.200 C 
ENDBRANCH  24  26
ENDBRANCH   5  20
TORSDOF 5
ENDMDL
MODEL 6
REMARK VINA RESULT:    -3.846     12.793     16.481
REMARK INTER + INTRA:          -5.834
REMARK INTER:                  -4.956
REMARK INTRA:                  -0.877
REMARK UNBOUND:                -0.864
REMARK  Name = /home/vital/Documents/PhD_2021/Malaria_codes/data/pdb_ligands_mmv/ligand_126.pdb
REMARK  8 active torsions:
REMARK  status: ('A' for Active; 'I' for Inactive)
REMARK    1  A    between atoms: C1_1  and  C2_2
REMARK    2  A    between atoms: C2_2  and  O1_3
REMARK    3  A    between atoms: O1_3  and  C3_4
REMARK    4  A    between atoms: C6_7  and  C9_10
REMARK    5  A    between atoms: C11_14  and  C12_16
REMARK    6  A    between atoms: C16_20  and  S1_22
REMARK    7  A    between atoms: S1_22  and  C18_25
REMARK    8  A    between atoms: C19_27  and  C20_28
REMARK                            x       y       z     vdW  Elec       q    Type
REMARK                         _______ _______ _______ _____ _____    ______ ____
ROOT
ATOM      1  C9  UNL     1     142.497 125.725 105.333  0.00  0.00    +0.083 A 
ATOM      2  N1  UNL     1     141.832 126.569 104.456  0.00  0.00    -0.224 NA
ATOM      3  C10 UNL     1     142.700 127.292 103.791  0.00  0.00    +0.165 A 
ATOM      4  N2  UNL     1     142.277 128.226 102.880  0.00  0.00    -0.261 N 
ATOM      5  C11 UNL     1     143.063 129.007 102.070  0.00  0.00    +0.250 C 
ATOM      6  O2  UNL     1     144.283 128.992 101.959  0.00  0.00    -0.270 OA
ATOM      7  S2  UNL     1     144.335 127.010 104.151  0.00  0.00    -0.057 S 
ATOM      8  C19 UNL     1     143.881 125.798 105.281  0.00  0.00    +0.016 A 
ATOM      9  C20 UNL     1     144.930 125.028 106.007  0.00  0.00    +0.054 C 
ATOM     10  H10 UNL     1     141.272 128.249 102.795  0.00  0.00    +0.157 HD
ENDROOT
BRANCH   1  14
ATOM     11  C3  UNL     1     140.255 123.045 107.792  0.00  0.00    +0.121 A 
ATOM     12  C4  UNL     1     140.588 124.318 108.262  0.00  0.00    +0.046 A 
ATOM     13  C5  UNL     1     141.320 125.206 107.468  0.00  0.00    +0.013 A 
ATOM     14  C6  UNL     1     141.740 124.825 106.190  0.00  0.00    +0.001 A 
ATOM     15  C7  UNL     1     141.396 123.553 105.717  0.00  0.00    +0.013 A 
ATOM     16  C8  UNL     1     140.663 122.665 106.515  0.00  0.00    +0.046 A 
BRANCH  11  17
ATOM     17  O1  UNL     1     139.544 122.285 108.678  0.00  0.00    -0.492 OA
BRANCH  17  19
ATOM     18  C1  UNL     1     137.232 121.660 108.296  0.00  0.00    +0.048 C 
ATOM     19  C2  UNL     1     138.189 122.637 108.956  0.00  0.00    +0.225 C 
ENDBRANCH  17  19
ENDBRANCH  11  17
ENDBRANCH   1  14
BRANCH   5  20
ATOM     20  C12 UNL     1     142.308 129.960 101.209  0.00  0.00    +0.039 A 
ATOM     21  C13 UNL     1     140.907 129.949 101.148  0.00  0.00    +0.013 A 
ATOM     22  C14 UNL     1     140.234 130.869 100.340  0.00  0.00    +0.003 A 
ATOM     23  C15 UNL     1     140.952 131.810  99.601  0.00  0.00    +0.027 A 
ATOM     24  C16 UNL     1     142.346 131.834  99.686  0.00  0.00    +0.089 A 
ATOM     25  C17 UNL     1     143.032 130.910 100.479  0.00  0.00    +0.040 A 
BRANCH  24  26
ATOM     26  S1  UNL     1     143.276 133.024  98.749  0.00  0.00    -0.006 S 
ATOM     27  O3  UNL     1     142.560 134.282  98.835  0.00  0.00    -0.170 OA
ATOM     28  O4  UNL     1     144.661 132.925  99.168  0.00  0.00    -0.170 OA
ATOM     29  C18 UNL     1     143.167 132.420  97.085  0.00  0.00    +0.200 C 
ENDBRANCH  24  26
ENDBRANCH   5  20
TORSDOF 5
ENDMDL
MODEL 7
REMARK VINA RESULT:    -3.544      8.470     11.405
REMARK INTER + INTRA:          -5.443
REMARK INTER:                  -4.552
REMARK INTRA:                  -0.891
REMARK UNBOUND:                -0.864
REMARK  Name = /home/vital/Documents/PhD_2021/Malaria_codes/data/pdb_ligands_mmv/ligand_126.pdb
REMARK  8 active torsions:
REMARK  status: ('A' for Active; 'I' for Inactive)
REMARK    1  A    between atoms: C1_1  and  C2_2
REMARK    2  A    between atoms: C2_2  and  O1_3
REMARK    3  A    between atoms: O1_3  and  C3_4
REMARK    4  A    between atoms: C6_7  and  C9_10
REMARK    5  A    between atoms: C11_14  and  C12_16
REMARK    6  A    between atoms: C16_20  and  S1_22
REMARK    7  A    between atoms: S1_22  and  C18_25
REMARK    8  A    between atoms: C19_27  and  C20_28
REMARK                            x       y       z     vdW  Elec       q    Type
REMARK                         _______ _______ _______ _____ _____    ______ ____
ROOT
ATOM      1  C9  UNL     1     144.578 132.781  95.551  0.00  0.00    +0.083 A 
ATOM      2  N1  UNL     1     143.656 131.914  96.119  0.00  0.00    -0.224 NA
ATOM      3  C10 UNL     1     143.542 132.164  97.401  0.00  0.00    +0.165 A 
ATOM      4  N2  UNL     1     142.706 131.413  98.186  0.00  0.00    -0.261 N 
ATOM      5  C11 UNL     1     142.438 131.594  99.520  0.00  0.00    +0.250 C 
ATOM      6  O2  UNL     1     142.844 132.484 100.257  0.00  0.00    -0.270 OA
ATOM      7  S2  UNL     1     144.498 133.433  97.999  0.00  0.00    -0.057 S 
ATOM      8  C19 UNL     1     145.119 133.715  96.422  0.00  0.00    +0.016 A 
ATOM      9  C20 UNL     1     146.077 134.831  96.189  0.00  0.00    +0.054 C 
ATOM     10  H10 UNL     1     142.215 130.707  97.657  0.00  0.00    +0.157 HD
ENDROOT
BRANCH   1  14
ATOM     11  C3  UNL     1     145.400 132.541  91.365  0.00  0.00    +0.121 A 
ATOM     12  C4  UNL     1     146.177 131.821  92.277  0.00  0.00    +0.046 A 
ATOM     13  C5  UNL     1     145.918 131.889  93.649  0.00  0.00    +0.013 A 
ATOM     14  C6  UNL     1     144.880 132.692  94.131  0.00  0.00    +0.001 A 
ATOM     15  C7  UNL     1     144.096 133.403  93.214  0.00  0.00    +0.013 A 
ATOM     16  C8  UNL     1     144.357 133.334  91.841  0.00  0.00    +0.046 A 
BRANCH  11  17
ATOM     17  O1  UNL     1     145.771 132.382  90.059  0.00  0.00    -0.492 OA
BRANCH  17  19
ATOM     18  C1  UNL     1     144.459 130.791  88.783  0.00  0.00    +0.048 C 
ATOM     19  C2  UNL     1     145.770 131.071  89.496  0.00  0.00    +0.225 C 
ENDBRANCH  17  19
ENDBRANCH  11  17
ENDBRANCH   1  14
BRANCH   5  20
ATOM     20  C12 UNL     1     141.512 130.587 100.107  0.00  0.00    +0.039 A 
ATOM     21  C13 UNL     1     140.154 130.540  99.758  0.00  0.00    +0.013 A 
ATOM     22  C14 UNL     1     139.319 129.570 100.321  0.00  0.00    +0.003 A 
ATOM     23  C15 UNL     1     139.836 128.636 101.219  0.00  0.00    +0.027 A 
ATOM     24  C16 UNL     1     141.195 128.670 101.543  0.00  0.00    +0.089 A 
ATOM     25  C17 UNL     1     142.037 129.644 101.000  0.00  0.00    +0.040 A 
BRANCH  24  26
ATOM     26  S1  UNL     1     141.868 127.491 102.688  0.00  0.00    -0.006 S 
ATOM     27  O3  UNL     1     141.054 127.553 103.886  0.00  0.00    -0.170 OA
ATOM     28  O4  UNL     1     142.048 126.240 101.974  0.00  0.00    -0.170 OA
ATOM     29  C18 UNL     1     143.476 128.141 103.060  0.00  0.00    +0.200 C 
ENDBRANCH  24  26
ENDBRANCH   5  20
TORSDOF 5
ENDMDL
MODEL 8
REMARK VINA RESULT:    -3.404      4.441     11.304
REMARK INTER + INTRA:          -5.263
REMARK INTER:                  -4.435
REMARK INTRA:                  -0.828
REMARK UNBOUND:                -0.864
REMARK  Name = /home/vital/Documents/PhD_2021/Malaria_codes/data/pdb_ligands_mmv/ligand_126.pdb
REMARK  8 active torsions:
REMARK  status: ('A' for Active; 'I' for Inactive)
REMARK    1  A    between atoms: C1_1  and  C2_2
REMARK    2  A    between atoms: C2_2  and  O1_3
REMARK    3  A    between atoms: O1_3  and  C3_4
REMARK    4  A    between atoms: C6_7  and  C9_10
REMARK    5  A    between atoms: C11_14  and  C12_16
REMARK    6  A    between atoms: C16_20  and  S1_22
REMARK    7  A    between atoms: S1_22  and  C18_25
REMARK    8  A    between atoms: C19_27  and  C20_28
REMARK                            x       y       z     vdW  Elec       q    Type
REMARK                         _______ _______ _______ _____ _____    ______ ____
ROOT
ATOM      1  C9  UNL     1     136.511 124.992  88.979  0.00  0.00    +0.083 A 
ATOM      2  N1  UNL     1     137.227 124.799  90.151  0.00  0.00    -0.224 NA
ATOM      3  C10 UNL     1     138.199 125.675  90.228  0.00  0.00    +0.165 A 
ATOM      4  N2  UNL     1     139.066 125.664  91.290  0.00  0.00    -0.261 N 
ATOM      5  C11 UNL     1     140.085 126.550  91.538  0.00  0.00    +0.250 C 
ATOM      6  O2  UNL     1     140.390 127.547  90.896  0.00  0.00    -0.270 OA
ATOM      7  S2  UNL     1     138.314 126.774  88.939  0.00  0.00    -0.057 S 
ATOM      8  C19 UNL     1     136.938 126.058  88.200  0.00  0.00    +0.016 A 
ATOM      9  C20 UNL     1     136.404 126.616  86.926  0.00  0.00    +0.054 C 
ATOM     10  H10 UNL     1     138.839 124.944  91.961  0.00  0.00    +0.157 HD
ENDROOT
BRANCH   1  14
ATOM     11  C3  UNL     1     133.156 122.492  88.115  0.00  0.00    +0.121 A 
ATOM     12  C4  UNL     1     134.435 122.124  87.690  0.00  0.00    +0.046 A 
ATOM     13  C5  UNL     1     135.542 122.932  87.967  0.00  0.00    +0.013 A 
ATOM     14  C6  UNL     1     135.381 124.131  88.667  0.00  0.00    +0.001 A 
ATOM     15  C7  UNL     1     134.100 124.492  89.102  0.00  0.00    +0.013 A 
ATOM     16  C8  UNL     1     132.993 123.681  88.823  0.00  0.00    +0.046 A 
BRANCH  11  17
ATOM     17  O1  UNL     1     132.171 121.610  87.769  0.00  0.00    -0.492 OA
BRANCH  17  19
ATOM     18  C1  UNL     1     131.352 120.872  85.609  0.00  0.00    +0.048 C 
ATOM     19  C2  UNL     1     131.300 121.939  86.688  0.00  0.00    +0.225 C 
ENDBRANCH  17  19
ENDBRANCH  11  17
ENDBRANCH   1  14
BRANCH   5  20
ATOM     20  C12 UNL     1     140.882 126.251  92.760  0.00  0.00    +0.039 A 
ATOM     21  C13 UNL     1     141.441 124.984  92.985  0.00  0.00    +0.013 A 
ATOM     22  C14 UNL     1     142.194 124.746  94.138  0.00  0.00    +0.003 A 
ATOM     23  C15 UNL     1     142.405 125.770  95.061  0.00  0.00    +0.027 A 
ATOM     24  C16 UNL     1     141.869 127.038  94.819  0.00  0.00    +0.089 A 
ATOM     25  C17 UNL     1     141.101 127.285  93.678  0.00  0.00    +0.040 A 
BRANCH  24  26
ATOM     26  S1  UNL     1     142.125 128.352  95.987  0.00  0.00    -0.006 S 
ATOM     27  O3  UNL     1     142.445 129.541  95.221  0.00  0.00    -0.170 OA
ATOM     28  O4  UNL     1     141.007 128.340  96.911  0.00  0.00    -0.170 OA
ATOM     29  C18 UNL     1     143.572 127.843  96.877  0.00  0.00    +0.200 C 
ENDBRANCH  24  26
ENDBRANCH   5  20
TORSDOF 5
ENDMDL
MODEL 9
REMARK VINA RESULT:    -3.384      2.817     10.221
REMARK INTER + INTRA:          -5.237
REMARK INTER:                  -4.418
REMARK INTRA:                  -0.819
REMARK UNBOUND:                -0.864
REMARK  Name = /home/vital/Documents/PhD_2021/Malaria_codes/data/pdb_ligands_mmv/ligand_126.pdb
REMARK  8 active torsions:
REMARK  status: ('A' for Active; 'I' for Inactive)
REMARK    1  A    between atoms: C1_1  and  C2_2
REMARK    2  A    between atoms: C2_2  and  O1_3
REMARK    3  A    between atoms: O1_3  and  C3_4
REMARK    4  A    between atoms: C6_7  and  C9_10
REMARK    5  A    between atoms: C11_14  and  C12_16
REMARK    6  A    between atoms: C16_20  and  S1_22
REMARK    7  A    between atoms: S1_22  and  C18_25
REMARK    8  A    between atoms: C19_27  and  C20_28
REMARK                            x       y       z     vdW  Elec       q    Type
REMARK                         _______ _______ _______ _____ _____    ______ ____
ROOT
ATOM      1  C9  UNL     1     136.443 125.847  88.059  0.00  0.00    +0.083 A 
ATOM      2  N1  UNL     1     137.226 126.543  88.968  0.00  0.00    -0.224 NA
ATOM      3  C10 UNL     1     137.738 127.604  88.393  0.00  0.00    +0.165 A 
ATOM      4  N2  UNL     1     138.576 128.438  89.087  0.00  0.00    -0.261 N 
ATOM      5  C11 UNL     1     139.135 129.610  88.642  0.00  0.00    +0.250 C 
ATOM      6  O2  UNL     1     138.960 130.167  87.565  0.00  0.00    -0.270 OA
ATOM      7  S2  UNL     1     137.319 127.843  86.765  0.00  0.00    -0.057 S 
ATOM      8  C19 UNL     1     136.343 126.429  86.804  0.00  0.00    +0.016 A 
ATOM      9  C20 UNL     1     135.567 126.029  85.598  0.00  0.00    +0.054 C 
ATOM     10  H10 UNL     1     138.705 128.140  90.043  0.00  0.00    +0.157 HD
ENDROOT
BRANCH   1  14
ATOM     11  C3  UNL     1     134.520 122.215  89.228  0.00  0.00    +0.121 A 
ATOM     12  C4  UNL     1     133.786 123.401  89.134  0.00  0.00    +0.046 A 
ATOM     13  C5  UNL     1     134.402 124.596  88.751  0.00  0.00    +0.013 A 
ATOM     14  C6  UNL     1     135.771 124.623  88.467  0.00  0.00    +0.001 A 
ATOM     15  C7  UNL     1     136.501 123.431  88.551  0.00  0.00    +0.013 A 
ATOM     16  C8  UNL     1     135.882 122.236  88.935  0.00  0.00    +0.046 A 
BRANCH  11  17
ATOM     17  O1  UNL     1     133.788 121.129  89.619  0.00  0.00    -0.492 OA
BRANCH  17  19
ATOM     18  C1  UNL     1     133.389 120.600  91.952  0.00  0.00    +0.048 C 
ATOM     19  C2  UNL     1     132.863 121.271  90.695  0.00  0.00    +0.225 C 
ENDBRANCH  17  19
ENDBRANCH  11  17
ENDBRANCH   1  14
BRANCH   5  20
ATOM     20  C12 UNL     1     140.037 130.276  89.621  0.00  0.00    +0.039 A 
ATOM     21  C13 UNL     1     140.502 131.585  89.424  0.00  0.00    +0.013 A 
ATOM     22  C14 UNL     1     141.337 132.182  90.373  0.00  0.00    +0.003 A 
ATOM     23  C15 UNL     1     141.699 131.484  91.525  0.00  0.00    +0.027 A 
ATOM     24  C16 UNL     1     141.211 130.191  91.729  0.00  0.00    +0.089 A 
ATOM     25  C17 UNL     1     140.389 129.577  90.782  0.00  0.00    +0.040 A 
BRANCH  24  26
ATOM     26  S1  UNL     1     141.666 129.287  93.190  0.00  0.00    -0.006 S 
ATOM     27  O3  UNL     1     142.347 130.218  94.068  0.00  0.00    -0.170 OA
ATOM     28  O4  UNL     1     140.493 128.561  93.639  0.00  0.00    -0.170 OA
ATOM     29  C18 UNL     1     142.845 128.101  92.597  0.00  0.00    +0.200 C 
ENDBRANCH  24  26
ENDBRANCH   5  20
TORSDOF 5
ENDMDL
