MODEL 1
REMARK VINA RESULT:    -4.224      0.000      0.000
REMARK INTER + INTRA:          -7.957
REMARK INTER:                  -6.076
REMARK INTRA:                  -1.881
REMARK UNBOUND:                -1.881
REMARK  Name = /home/vital/Documents/PhD_2021/Malaria_codes/data/pdb_ligands_mmv/ligand_101.pdb
REMARK  9 active torsions:
REMARK  status: ('A' for Active; 'I' for Inactive)
REMARK    1  A    between atoms: C1_1  and  C2_2
REMARK    2  A    between atoms: C2_2  and  C3_3
REMARK    3  A    between atoms: C3_3  and  C4_4
REMARK    4  A    between atoms: C4_4  and  N1_5
REMARK    5  A    between atoms: N1_5  and  C5_6
REMARK    6  A    between atoms: C5_6  and  C6_7
REMARK    7  A    between atoms: C6_7  and  O1_8
REMARK    8  A    between atoms: C6_7  and  C7_9
REMARK    9  A    between atoms: C6_7  and  C13_16
REMARK                            x       y       z     vdW  Elec       q    Type
REMARK                         _______ _______ _______ _____ _____    ______ ____
ROOT
ATOM      1  C6  UNL     1     143.598 130.992 100.732  0.00  0.00    +0.128 C 
ENDROOT
BRANCH   1   2
ATOM      2  C7  UNL     1     144.138 132.065  99.768  0.00  0.00    -0.010 A 
ATOM      3  C8  UNL     1     145.502 132.135  99.435  0.00  0.00    +0.008 A 
ATOM      4  C9  UNL     1     145.978 133.107  98.550  0.00  0.00    +0.020 A 
ATOM      5  C10 UNL     1     145.094 134.021  97.984  0.00  0.00    +0.041 A 
ATOM      6 CL1  UNL     1     145.679 135.217  96.895  0.00  0.00    -0.084 Cl
ATOM      7  C11 UNL     1     143.738 133.972  98.295  0.00  0.00    +0.020 A 
ATOM      8  C12 UNL     1     143.263 132.999  99.180  0.00  0.00    +0.008 A 
ENDBRANCH   1   2
BRANCH   1   9
ATOM      9  C13 UNL     1     142.260 130.415 100.227  0.00  0.00    -0.010 A 
ATOM     10  C14 UNL     1     142.274 129.518  99.135  0.00  0.00    +0.008 A 
ATOM     11  C15 UNL     1     141.093 128.965  98.631  0.00  0.00    +0.020 A 
ATOM     12  C16 UNL     1     139.875 129.301  99.211  0.00  0.00    +0.041 A 
ATOM     13 CL2  UNL     1     138.418 128.624  98.596  0.00  0.00    -0.084 Cl
ATOM     14  C17 UNL     1     139.830 130.184 100.284  0.00  0.00    +0.020 A 
ATOM     15  C18 UNL     1     141.012 130.739 100.789  0.00  0.00    +0.008 A 
ENDBRANCH   1   9
BRANCH   1  16
ATOM     16  O1  UNL     1     143.284 131.593 102.005  0.00  0.00    -0.378 OA
ATOM     17  H13 UNL     1     144.130 131.735 102.465  0.00  0.00    +0.211 HD
ENDBRANCH   1  16
BRANCH   1  18
ATOM     18  C5  UNL     1     144.717 129.906 100.996  0.00  0.00    +0.125 C 
BRANCH  18  19
ATOM     19  N1  UNL     1     144.770 129.227 102.310  0.00  0.00    -0.313 NA
ATOM     20  H10 UNL     1     144.330 129.825 103.013  0.00  0.00    +0.122 HD
BRANCH  19  21
ATOM     21  C4  UNL     1     144.103 127.926 102.317  0.00  0.00    +0.081 C 
BRANCH  21  22
ATOM     22  C3  UNL     1     142.778 127.999 103.086  0.00  0.00    +0.015 C 
BRANCH  22  24
ATOM     23  C1  UNL     1     141.942 126.488 101.205  0.00  0.00    +0.004 C 
ATOM     24  C2  UNL     1     141.568 127.397 102.366  0.00  0.00    -0.002 C 
ENDBRANCH  22  24
ENDBRANCH  21  22
ENDBRANCH  19  21
ENDBRANCH  18  19
ENDBRANCH   1  18
TORSDOF 8
ENDMDL
MODEL 2
REMARK VINA RESULT:    -4.191      0.244      1.054
REMARK INTER + INTRA:          -7.909
REMARK INTER:                  -5.983
REMARK INTRA:                  -1.926
REMARK UNBOUND:                -1.881
REMARK  Name = /home/vital/Documents/PhD_2021/Malaria_codes/data/pdb_ligands_mmv/ligand_101.pdb
REMARK  9 active torsions:
REMARK  status: ('A' for Active; 'I' for Inactive)
REMARK    1  A    between atoms: C1_1  and  C2_2
REMARK    2  A    between atoms: C2_2  and  C3_3
REMARK    3  A    between atoms: C3_3  and  C4_4
REMARK    4  A    between atoms: C4_4  and  N1_5
REMARK    5  A    between atoms: N1_5  and  C5_6
REMARK    6  A    between atoms: C5_6  and  C6_7
REMARK    7  A    between atoms: C6_7  and  O1_8
REMARK    8  A    between atoms: C6_7  and  C7_9
REMARK    9  A    between atoms: C6_7  and  C13_16
REMARK                            x       y       z     vdW  Elec       q    Type
REMARK                         _______ _______ _______ _____ _____    ______ ____
ROOT
ATOM      1  C6  UNL     1     143.576 130.971 100.811  0.00  0.00    +0.128 C 
ENDROOT
BRANCH   1   2
ATOM      2  C7  UNL     1     144.060 131.999  99.772  0.00  0.00    -0.010 A 
ATOM      3  C8  UNL     1     143.209 133.003  99.278  0.00  0.00    +0.008 A 
ATOM      4  C9  UNL     1     143.664 133.937  98.343  0.00  0.00    +0.020 A 
ATOM      5  C10 UNL     1     144.978 133.880  97.889  0.00  0.00    +0.041 A 
ATOM      6 CL1  UNL     1     145.538 135.028  96.738  0.00  0.00    -0.084 Cl
ATOM      7  C11 UNL     1     145.842 132.897  98.363  0.00  0.00    +0.020 A 
ATOM      8  C12 UNL     1     145.387 131.963  99.299  0.00  0.00    +0.008 A 
ENDBRANCH   1   2
BRANCH   1   9
ATOM      9  C13 UNL     1     142.226 130.352 100.392  0.00  0.00    -0.010 A 
ATOM     10  C14 UNL     1     142.195 129.467  99.291  0.00  0.00    +0.008 A 
ATOM     11  C15 UNL     1     141.002 128.879  98.863  0.00  0.00    +0.020 A 
ATOM     12  C16 UNL     1     139.816 129.167  99.529  0.00  0.00    +0.041 A 
ATOM     13 CL2  UNL     1     138.344 128.446  99.008  0.00  0.00    -0.084 Cl
ATOM     14  C17 UNL     1     139.815 130.037 100.613  0.00  0.00    +0.020 A 
ATOM     15  C18 UNL     1     141.010 130.628 101.043  0.00  0.00    +0.008 A 
ENDBRANCH   1   9
BRANCH   1  16
ATOM     16  O1  UNL     1     143.306 131.633 102.064  0.00  0.00    -0.378 OA
ATOM     17  H13 UNL     1     142.357 131.518 102.244  0.00  0.00    +0.211 HD
ENDBRANCH   1  16
BRANCH   1  18
ATOM     18  C5  UNL     1     144.719 129.913 101.083  0.00  0.00    +0.125 C 
BRANCH  18  19
ATOM     19  N1  UNL     1     144.789 129.248 102.403  0.00  0.00    -0.313 NA
ATOM     20  H10 UNL     1     144.354 129.851 103.104  0.00  0.00    +0.122 HD
BRANCH  19  21
ATOM     21  C4  UNL     1     144.131 127.944 102.430  0.00  0.00    +0.081 C 
BRANCH  21  22
ATOM     22  C3  UNL     1     142.883 127.985 103.320  0.00  0.00    +0.015 C 
BRANCH  22  24
ATOM     23  C1  UNL     1     141.900 126.466 101.518  0.00  0.00    +0.004 C 
ATOM     24  C2  UNL     1     141.619 127.372 102.707  0.00  0.00    -0.002 C 
ENDBRANCH  22  24
ENDBRANCH  21  22
ENDBRANCH  19  21
ENDBRANCH  18  19
ENDBRANCH   1  18
TORSDOF 8
ENDMDL
MODEL 3
REMARK VINA RESULT:    -4.155      3.339      7.003
REMARK INTER + INTRA:          -7.857
REMARK INTER:                  -5.966
REMARK INTRA:                  -1.891
REMARK UNBOUND:                -1.881
REMARK  Name = /home/vital/Documents/PhD_2021/Malaria_codes/data/pdb_ligands_mmv/ligand_101.pdb
REMARK  9 active torsions:
REMARK  status: ('A' for Active; 'I' for Inactive)
REMARK    1  A    between atoms: C1_1  and  C2_2
REMARK    2  A    between atoms: C2_2  and  C3_3
REMARK    3  A    between atoms: C3_3  and  C4_4
REMARK    4  A    between atoms: C4_4  and  N1_5
REMARK    5  A    between atoms: N1_5  and  C5_6
REMARK    6  A    between atoms: C5_6  and  C6_7
REMARK    7  A    between atoms: C6_7  and  O1_8
REMARK    8  A    between atoms: C6_7  and  C7_9
REMARK    9  A    between atoms: C6_7  and  C13_16
REMARK                            x       y       z     vdW  Elec       q    Type
REMARK                         _______ _______ _______ _____ _____    ______ ____
ROOT
ATOM      1  C6  UNL     1     142.223 127.133 102.225  0.00  0.00    +0.128 C 
ENDROOT
BRANCH   1   2
ATOM      2  C7  UNL     1     141.622 126.406 103.442  0.00  0.00    -0.010 A 
ATOM      3  C8  UNL     1     141.013 125.144 103.319  0.00  0.00    +0.008 A 
ATOM      4  C9  UNL     1     140.481 124.490 104.434  0.00  0.00    +0.020 A 
ATOM      5  C10 UNL     1     140.552 125.088 105.688  0.00  0.00    +0.041 A 
ATOM      6 CL1  UNL     1     139.897 124.283 107.059  0.00  0.00    -0.084 Cl
ATOM      7  C11 UNL     1     141.151 126.336 105.838  0.00  0.00    +0.020 A 
ATOM      8  C12 UNL     1     141.684 126.990 104.722  0.00  0.00    +0.008 A 
ENDBRANCH   1   2
BRANCH   1   9
ATOM      9  C13 UNL     1     141.169 127.318 101.113  0.00  0.00    -0.010 A 
ATOM     10  C14 UNL     1     140.037 128.123 101.374  0.00  0.00    +0.008 A 
ATOM     11  C15 UNL     1     139.048 128.325 100.408  0.00  0.00    +0.020 A 
ATOM     12  C16 UNL     1     139.172 127.721  99.161  0.00  0.00    +0.041 A 
ATOM     13 CL2  UNL     1     137.958 127.965  97.967  0.00  0.00    -0.084 Cl
ATOM     14  C17 UNL     1     140.272 126.919  98.877  0.00  0.00    +0.020 A 
ATOM     15  C18 UNL     1     141.264 126.717  99.845  0.00  0.00    +0.008 A 
ENDBRANCH   1   9
BRANCH   1  16
ATOM     16  O1  UNL     1     143.251 126.317 101.627  0.00  0.00    -0.378 OA
ATOM     17  H13 UNL     1     143.087 126.316 100.668  0.00  0.00    +0.211 HD
ENDBRANCH   1  16
BRANCH   1  18
ATOM     18  C5  UNL     1     142.912 128.476 102.696  0.00  0.00    +0.125 C 
BRANCH  18  19
ATOM     19  N1  UNL     1     143.766 129.222 101.746  0.00  0.00    -0.313 NA
ATOM     20  H10 UNL     1     144.094 128.583 101.019  0.00  0.00    +0.122 HD
BRANCH  19  21
ATOM     21  C4  UNL     1     143.082 130.346 101.111  0.00  0.00    +0.081 C 
BRANCH  21  22
ATOM     22  C3  UNL     1     142.982 130.135  99.595  0.00  0.00    +0.015 C 
BRANCH  22  24
ATOM     23  C1  UNL     1     140.832 131.490  99.842  0.00  0.00    +0.004 C 
ATOM     24  C2  UNL     1     141.658 130.567  98.958  0.00  0.00    -0.002 C 
ENDBRANCH  22  24
ENDBRANCH  21  22
ENDBRANCH  19  21
ENDBRANCH  18  19
ENDBRANCH   1  18
TORSDOF 8
ENDMDL
MODEL 4
REMARK VINA RESULT:    -4.110      2.818      4.375
REMARK INTER + INTRA:          -7.793
REMARK INTER:                  -6.315
REMARK INTRA:                  -1.478
REMARK UNBOUND:                -1.881
REMARK  Name = /home/vital/Documents/PhD_2021/Malaria_codes/data/pdb_ligands_mmv/ligand_101.pdb
REMARK  9 active torsions:
REMARK  status: ('A' for Active; 'I' for Inactive)
REMARK    1  A    between atoms: C1_1  and  C2_2
REMARK    2  A    between atoms: C2_2  and  C3_3
REMARK    3  A    between atoms: C3_3  and  C4_4
REMARK    4  A    between atoms: C4_4  and  N1_5
REMARK    5  A    between atoms: N1_5  and  C5_6
REMARK    6  A    between atoms: C5_6  and  C6_7
REMARK    7  A    between atoms: C6_7  and  O1_8
REMARK    8  A    between atoms: C6_7  and  C7_9
REMARK    9  A    between atoms: C6_7  and  C13_16
REMARK                            x       y       z     vdW  Elec       q    Type
REMARK                         _______ _______ _______ _____ _____    ______ ____
ROOT
ATOM      1  C6  UNL     1     142.928 128.654  99.326  0.00  0.00    +0.128 C 
ENDROOT
BRANCH   1   2
ATOM      2  C7  UNL     1     142.668 130.164  99.173  0.00  0.00    -0.010 A 
ATOM      3  C8  UNL     1     143.410 130.950  98.273  0.00  0.00    +0.008 A 
ATOM      4  C9  UNL     1     143.157 132.318  98.135  0.00  0.00    +0.020 A 
ATOM      5  C10 UNL     1     142.158 132.918  98.895  0.00  0.00    +0.041 A 
ATOM      6 CL1  UNL     1     141.847 134.602  98.726  0.00  0.00    -0.084 Cl
ATOM      7  C11 UNL     1     141.408 132.163  99.792  0.00  0.00    +0.020 A 
ATOM      8  C12 UNL     1     141.661 130.794  99.930  0.00  0.00    +0.008 A 
ENDBRANCH   1   2
BRANCH   1   9
ATOM      9  C13 UNL     1     142.555 128.168 100.743  0.00  0.00    -0.010 A 
ATOM     10  C14 UNL     1     143.301 128.644 101.844  0.00  0.00    +0.008 A 
ATOM     11  C15 UNL     1     143.013 128.237 103.150  0.00  0.00    +0.020 A 
ATOM     12  C16 UNL     1     141.973 127.343 103.377  0.00  0.00    +0.041 A 
ATOM     13 CL2  UNL     1     141.613 126.838 104.981  0.00  0.00    -0.084 Cl
ATOM     14  C17 UNL     1     141.224 126.854 102.312  0.00  0.00    +0.020 A 
ATOM     15  C18 UNL     1     141.512 127.262 101.004  0.00  0.00    +0.008 A 
ENDBRANCH   1   9
BRANCH   1  16
ATOM     16  O1  UNL     1     144.340 128.386  99.203  0.00  0.00    -0.378 OA
ATOM     17  H13 UNL     1     144.465 127.927  98.355  0.00  0.00    +0.211 HD
ENDBRANCH   1  16
BRANCH   1  18
ATOM     18  C5  UNL     1     142.204 127.870  98.159  0.00  0.00    +0.125 C 
BRANCH  18  19
ATOM     19  N1  UNL     1     140.924 128.387  97.626  0.00  0.00    -0.313 NA
ATOM     20  H10 UNL     1     141.099 128.855  96.734  0.00  0.00    +0.122 HD
BRANCH  19  21
ATOM     21  C4  UNL     1     139.920 127.346  97.421  0.00  0.00    +0.081 C 
BRANCH  21  22
ATOM     22  C3  UNL     1     138.731 127.544  98.370  0.00  0.00    +0.015 C 
BRANCH  22  24
ATOM     23  C1  UNL     1     138.378 128.728 100.605  0.00  0.00    +0.004 C 
ATOM     24  C2  UNL     1     138.712 128.875  99.129  0.00  0.00    -0.002 C 
ENDBRANCH  22  24
ENDBRANCH  21  22
ENDBRANCH  19  21
ENDBRANCH  18  19
ENDBRANCH   1  18
TORSDOF 8
ENDMDL
MODEL 5
REMARK VINA RESULT:    -4.030      2.502      5.783
REMARK INTER + INTRA:          -7.678
REMARK INTER:                  -5.931
REMARK INTRA:                  -1.747
REMARK UNBOUND:                -1.881
REMARK  Name = /home/vital/Documents/PhD_2021/Malaria_codes/data/pdb_ligands_mmv/ligand_101.pdb
REMARK  9 active torsions:
REMARK  status: ('A' for Active; 'I' for Inactive)
REMARK    1  A    between atoms: C1_1  and  C2_2
REMARK    2  A    between atoms: C2_2  and  C3_3
REMARK    3  A    between atoms: C3_3  and  C4_4
REMARK    4  A    between atoms: C4_4  and  N1_5
REMARK    5  A    between atoms: N1_5  and  C5_6
REMARK    6  A    between atoms: C5_6  and  C6_7
REMARK    7  A    between atoms: C6_7  and  O1_8
REMARK    8  A    between atoms: C6_7  and  C7_9
REMARK    9  A    between atoms: C6_7  and  C13_16
REMARK                            x       y       z     vdW  Elec       q    Type
REMARK                         _______ _______ _______ _____ _____    ______ ____
ROOT
ATOM      1  C6  UNL     1     143.619 130.313 101.211  0.00  0.00    +0.128 C 
ENDROOT
BRANCH   1   2
ATOM      2  C7  UNL     1     142.305 129.947 100.495  0.00  0.00    -0.010 A 
ATOM      3  C8  UNL     1     142.260 128.949  99.505  0.00  0.00    +0.008 A 
ATOM      4  C9  UNL     1     141.059 128.618  98.871  0.00  0.00    +0.020 A 
ATOM      5  C10 UNL     1     139.886 129.281  99.219  0.00  0.00    +0.041 A 
ATOM      6 CL1  UNL     1     138.408 128.875  98.438  0.00  0.00    -0.084 Cl
ATOM      7  C11 UNL     1     139.903 130.272 100.197  0.00  0.00    +0.020 A 
ATOM      8  C12 UNL     1     141.104 130.602 100.832  0.00  0.00    +0.008 A 
ENDBRANCH   1   2
BRANCH   1   9
ATOM      9  C13 UNL     1     144.035 129.209 102.205  0.00  0.00    -0.010 A 
ATOM     10  C14 UNL     1     145.397 128.842 102.284  0.00  0.00    +0.008 A 
ATOM     11  C15 UNL     1     145.834 127.847 103.162  0.00  0.00    +0.020 A 
ATOM     12  C16 UNL     1     144.914 127.199 103.979  0.00  0.00    +0.041 A 
ATOM     13 CL2  UNL     1     145.445 125.973 105.063  0.00  0.00    -0.084 Cl
ATOM     14  C17 UNL     1     143.566 127.536 103.921  0.00  0.00    +0.020 A 
ATOM     15  C18 UNL     1     143.128 128.533 103.040  0.00  0.00    +0.008 A 
ENDBRANCH   1   9
BRANCH   1  16
ATOM     16  O1  UNL     1     143.421 131.488 102.024  0.00  0.00    -0.378 OA
ATOM     17  H13 UNL     1     144.304 131.846 102.219  0.00  0.00    +0.211 HD
ENDBRANCH   1  16
BRANCH   1  18
ATOM     18  C5  UNL     1     144.724 130.673 100.139  0.00  0.00    +0.125 C 
BRANCH  18  19
ATOM     19  N1  UNL     1     145.296 132.037 100.119  0.00  0.00    -0.313 NA
ATOM     20  H10 UNL     1     146.313 131.974 100.191  0.00  0.00    +0.122 HD
BRANCH  19  21
ATOM     21  C4  UNL     1     144.957 132.791  98.914  0.00  0.00    +0.081 C 
BRANCH  21  22
ATOM     22  C3  UNL     1     144.008 131.984  98.018  0.00  0.00    +0.015 C 
BRANCH  22  24
ATOM     23  C1  UNL     1     142.214 133.563  98.917  0.00  0.00    +0.004 C 
ATOM     24  C2  UNL     1     142.618 132.596  97.815  0.00  0.00    -0.002 C 
ENDBRANCH  22  24
ENDBRANCH  21  22
ENDBRANCH  19  21
ENDBRANCH  18  19
ENDBRANCH   1  18
TORSDOF 8
ENDMDL
MODEL 6
REMARK VINA RESULT:    -3.905      2.513      3.638
REMARK INTER + INTRA:          -7.497
REMARK INTER:                  -6.087
REMARK INTRA:                  -1.410
REMARK UNBOUND:                -1.881
REMARK  Name = /home/vital/Documents/PhD_2021/Malaria_codes/data/pdb_ligands_mmv/ligand_101.pdb
REMARK  9 active torsions:
REMARK  status: ('A' for Active; 'I' for Inactive)
REMARK    1  A    between atoms: C1_1  and  C2_2
REMARK    2  A    between atoms: C2_2  and  C3_3
REMARK    3  A    between atoms: C3_3  and  C4_4
REMARK    4  A    between atoms: C4_4  and  N1_5
REMARK    5  A    between atoms: N1_5  and  C5_6
REMARK    6  A    between atoms: C5_6  and  C6_7
REMARK    7  A    between atoms: C6_7  and  O1_8
REMARK    8  A    between atoms: C6_7  and  C7_9
REMARK    9  A    between atoms: C6_7  and  C13_16
REMARK                            x       y       z     vdW  Elec       q    Type
REMARK                         _______ _______ _______ _____ _____    ______ ____
ROOT
ATOM      1  C6  UNL     1     141.020 128.827 101.169  0.00  0.00    +0.128 C 
ENDROOT
BRANCH   1   2
ATOM      2  C7  UNL     1     141.581 130.077 100.466  0.00  0.00    -0.010 A 
ATOM      3  C8  UNL     1     140.768 131.191 100.187  0.00  0.00    +0.008 A 
ATOM      4  C9  UNL     1     141.292 132.325  99.558  0.00  0.00    +0.020 A 
ATOM      5  C10 UNL     1     142.636 132.360  99.201  0.00  0.00    +0.041 A 
ATOM      6 CL1  UNL     1     143.281 133.754  98.427  0.00  0.00    -0.084 Cl
ATOM      7  C11 UNL     1     143.463 131.272  99.467  0.00  0.00    +0.020 A 
ATOM      8  C12 UNL     1     142.939 130.138 100.097  0.00  0.00    +0.008 A 
ENDBRANCH   1   2
BRANCH   1   9
ATOM      9  C13 UNL     1     140.703 127.713 100.150  0.00  0.00    -0.010 A 
ATOM     10  C14 UNL     1     141.486 126.536 100.161  0.00  0.00    +0.008 A 
ATOM     11  C15 UNL     1     141.249 125.495  99.261  0.00  0.00    +0.020 A 
ATOM     12  C16 UNL     1     140.223 125.611  98.330  0.00  0.00    +0.041 A 
ATOM     13 CL2  UNL     1     139.926 124.333  97.218  0.00  0.00    -0.084 Cl
ATOM     14  C17 UNL     1     139.439 126.759  98.291  0.00  0.00    +0.020 A 
ATOM     15  C18 UNL     1     139.676 127.804  99.194  0.00  0.00    +0.008 A 
ENDBRANCH   1   9
BRANCH   1  16
ATOM     16  O1  UNL     1     139.752 129.139 101.782  0.00  0.00    -0.378 OA
ATOM     17  H13 UNL     1     139.838 130.027 102.168  0.00  0.00    +0.211 HD
ENDBRANCH   1  16
BRANCH   1  18
ATOM     18  C5  UNL     1     142.000 128.387 102.329  0.00  0.00    +0.125 C 
BRANCH  18  19
ATOM     19  N1  UNL     1     141.439 127.796 103.564  0.00  0.00    -0.313 NA
ATOM     20  H10 UNL     1     140.426 127.705 103.460  0.00  0.00    +0.122 HD
BRANCH  19  21
ATOM     21  C4  UNL     1     141.999 126.485 103.885  0.00  0.00    +0.081 C 
BRANCH  21  22
ATOM     22  C3  UNL     1     140.923 125.396 103.782  0.00  0.00    +0.015 C 
BRANCH  22  24
ATOM     23  C1  UNL     1     142.820 124.105 102.661  0.00  0.00    +0.004 C 
ATOM     24  C2  UNL     1     141.349 124.122 103.045  0.00  0.00    -0.002 C 
ENDBRANCH  22  24
ENDBRANCH  21  22
ENDBRANCH  19  21
ENDBRANCH  18  19
ENDBRANCH   1  18
TORSDOF 8
ENDMDL
MODEL 7
REMARK VINA RESULT:    -3.897      2.503      5.878
REMARK INTER + INTRA:          -7.487
REMARK INTER:                  -5.805
REMARK INTRA:                  -1.682
REMARK UNBOUND:                -1.881
REMARK  Name = /home/vital/Documents/PhD_2021/Malaria_codes/data/pdb_ligands_mmv/ligand_101.pdb
REMARK  9 active torsions:
REMARK  status: ('A' for Active; 'I' for Inactive)
REMARK    1  A    between atoms: C1_1  and  C2_2
REMARK    2  A    between atoms: C2_2  and  C3_3
REMARK    3  A    between atoms: C3_3  and  C4_4
REMARK    4  A    between atoms: C4_4  and  N1_5
REMARK    5  A    between atoms: N1_5  and  C5_6
REMARK    6  A    between atoms: C5_6  and  C6_7
REMARK    7  A    between atoms: C6_7  and  O1_8
REMARK    8  A    between atoms: C6_7  and  C7_9
REMARK    9  A    between atoms: C6_7  and  C13_16
REMARK                            x       y       z     vdW  Elec       q    Type
REMARK                         _______ _______ _______ _____ _____    ______ ____
ROOT
ATOM      1  C6  UNL     1     143.537 130.306 101.254  0.00  0.00    +0.128 C 
ENDROOT
BRANCH   1   2
ATOM      2  C7  UNL     1     142.226 129.948 100.528  0.00  0.00    -0.010 A 
ATOM      3  C8  UNL     1     141.027 130.630 100.799  0.00  0.00    +0.008 A 
ATOM      4  C9  UNL     1     139.846 130.304 100.126  0.00  0.00    +0.020 A 
ATOM      5  C10 UNL     1     139.849 129.292  99.172  0.00  0.00    +0.041 A 
ATOM      6 CL1  UNL     1     138.396 128.890  98.344  0.00  0.00    -0.084 Cl
ATOM      7  C11 UNL     1     141.023 128.602  98.884  0.00  0.00    +0.020 A 
ATOM      8  C12 UNL     1     142.205 128.929  99.557  0.00  0.00    +0.008 A 
ENDBRANCH   1   2
BRANCH   1   9
ATOM      9  C13 UNL     1     143.984 129.161 102.187  0.00  0.00    -0.010 A 
ATOM     10  C14 UNL     1     143.037 128.589 103.066  0.00  0.00    +0.008 A 
ATOM     11  C15 UNL     1     143.383 127.553 103.937  0.00  0.00    +0.020 A 
ATOM     12  C16 UNL     1     144.687 127.071 103.947  0.00  0.00    +0.041 A 
ATOM     13 CL2  UNL     1     145.121 125.796 105.016  0.00  0.00    -0.084 Cl
ATOM     14  C17 UNL     1     145.643 127.617 103.097  0.00  0.00    +0.020 A 
ATOM     15  C18 UNL     1     145.296 128.656 102.223  0.00  0.00    +0.008 A 
ENDBRANCH   1   9
BRANCH   1  16
ATOM     16  O1  UNL     1     143.321 131.432 102.127  0.00  0.00    -0.378 OA
ATOM     17  H13 UNL     1     143.152 131.071 103.015  0.00  0.00    +0.211 HD
ENDBRANCH   1  16
BRANCH   1  18
ATOM     18  C5  UNL     1     144.627 130.743 100.194  0.00  0.00    +0.125 C 
BRANCH  18  19
ATOM     19  N1  UNL     1     145.071 132.154 100.155  0.00  0.00    -0.313 NA
ATOM     20  H10 UNL     1     146.065 132.197 100.391  0.00  0.00    +0.122 HD
BRANCH  19  21
ATOM     21  C4  UNL     1     144.869 132.789  98.855  0.00  0.00    +0.081 C 
BRANCH  21  22
ATOM     22  C3  UNL     1     143.923 131.953  97.983  0.00  0.00    +0.015 C 
BRANCH  22  24
ATOM     23  C1  UNL     1     142.220 133.695  98.748  0.00  0.00    +0.004 C 
ATOM     24  C2  UNL     1     142.500 132.503  97.846  0.00  0.00    -0.002 C 
ENDBRANCH  22  24
ENDBRANCH  21  22
ENDBRANCH  19  21
ENDBRANCH  18  19
ENDBRANCH   1  18
TORSDOF 8
ENDMDL
MODEL 8
REMARK VINA RESULT:    -3.700      3.159      6.269
REMARK INTER + INTRA:          -7.203
REMARK INTER:                  -5.437
REMARK INTRA:                  -1.767
REMARK UNBOUND:                -1.881
REMARK  Name = /home/vital/Documents/PhD_2021/Malaria_codes/data/pdb_ligands_mmv/ligand_101.pdb
REMARK  9 active torsions:
REMARK  status: ('A' for Active; 'I' for Inactive)
REMARK    1  A    between atoms: C1_1  and  C2_2
REMARK    2  A    between atoms: C2_2  and  C3_3
REMARK    3  A    between atoms: C3_3  and  C4_4
REMARK    4  A    between atoms: C4_4  and  N1_5
REMARK    5  A    between atoms: N1_5  and  C5_6
REMARK    6  A    between atoms: C5_6  and  C6_7
REMARK    7  A    between atoms: C6_7  and  O1_8
REMARK    8  A    between atoms: C6_7  and  C7_9
REMARK    9  A    between atoms: C6_7  and  C13_16
REMARK                            x       y       z     vdW  Elec       q    Type
REMARK                         _______ _______ _______ _____ _____    ______ ____
ROOT
ATOM      1  C6  UNL     1     142.470 128.171 101.524  0.00  0.00    +0.128 C 
ENDROOT
BRANCH   1   2
ATOM      2  C7  UNL     1     141.200 128.047 100.663  0.00  0.00    -0.010 A 
ATOM      3  C8  UNL     1     139.970 128.582 101.085  0.00  0.00    +0.008 A 
ATOM      4  C9  UNL     1     138.826 128.473 100.289  0.00  0.00    +0.020 A 
ATOM      5  C10 UNL     1     138.898 127.828  99.058  0.00  0.00    +0.041 A 
ATOM      6 CL1  UNL     1     137.491 127.692  98.078  0.00  0.00    -0.084 Cl
ATOM      7  C11 UNL     1     140.104 127.291  98.616  0.00  0.00    +0.020 A 
ATOM      8  C12 UNL     1     141.248 127.401  99.412  0.00  0.00    +0.008 A 
ENDBRANCH   1   2
BRANCH   1   9
ATOM      9  C13 UNL     1     142.487 127.109 102.644  0.00  0.00    -0.010 A 
ATOM     10  C14 UNL     1     142.811 125.775 102.312  0.00  0.00    +0.008 A 
ATOM     11  C15 UNL     1     142.839 124.769 103.281  0.00  0.00    +0.020 A 
ATOM     12  C16 UNL     1     142.542 125.080 104.603  0.00  0.00    +0.041 A 
ATOM     13 CL2  UNL     1     142.575 123.847 105.802  0.00  0.00    -0.084 Cl
ATOM     14  C17 UNL     1     142.216 126.384 104.960  0.00  0.00    +0.020 A 
ATOM     15  C18 UNL     1     142.187 127.393 103.988  0.00  0.00    +0.008 A 
ENDBRANCH   1   9
BRANCH   1  16
ATOM     16  O1  UNL     1     142.470 129.437 102.216  0.00  0.00    -0.378 OA
ATOM     17  H13 UNL     1     141.622 129.499 102.688  0.00  0.00    +0.211 HD
ENDBRANCH   1  16
BRANCH   1  18
ATOM     18  C5  UNL     1     143.747 128.154 100.592  0.00  0.00    +0.125 C 
BRANCH  18  19
ATOM     19  N1  UNL     1     144.328 129.436 100.137  0.00  0.00    -0.313 NA
ATOM     20  H10 UNL     1     145.322 129.456 100.375  0.00  0.00    +0.122 HD
BRANCH  19  21
ATOM     21  C4  UNL     1     144.185 129.659  98.700  0.00  0.00    +0.081 C 
BRANCH  21  22
ATOM     22  C3  UNL     1     142.911 130.458  98.398  0.00  0.00    +0.015 C 
BRANCH  22  24
ATOM     23  C1  UNL     1     141.077 131.771  99.595  0.00  0.00    +0.004 C 
ATOM     24  C2  UNL     1     142.571 131.557  99.410  0.00  0.00    -0.002 C 
ENDBRANCH  22  24
ENDBRANCH  21  22
ENDBRANCH  19  21
ENDBRANCH  18  19
ENDBRANCH   1  18
TORSDOF 8
ENDMDL
MODEL 9
REMARK VINA RESULT:    -3.541      3.017      6.064
REMARK INTER + INTRA:          -6.975
REMARK INTER:                  -5.311
REMARK INTRA:                  -1.664
REMARK UNBOUND:                -1.881
REMARK  Name = /home/vital/Documents/PhD_2021/Malaria_codes/data/pdb_ligands_mmv/ligand_101.pdb
REMARK  9 active torsions:
REMARK  status: ('A' for Active; 'I' for Inactive)
REMARK    1  A    between atoms: C1_1  and  C2_2
REMARK    2  A    between atoms: C2_2  and  C3_3
REMARK    3  A    between atoms: C3_3  and  C4_4
REMARK    4  A    between atoms: C4_4  and  N1_5
REMARK    5  A    between atoms: N1_5  and  C5_6
REMARK    6  A    between atoms: C5_6  and  C6_7
REMARK    7  A    between atoms: C6_7  and  O1_8
REMARK    8  A    between atoms: C6_7  and  C7_9
REMARK    9  A    between atoms: C6_7  and  C13_16
REMARK                            x       y       z     vdW  Elec       q    Type
REMARK                         _______ _______ _______ _____ _____    ______ ____
ROOT
ATOM      1  C6  UNL     1     140.676 129.323 100.351  0.00  0.00    +0.128 C 
ENDROOT
BRANCH   1   2
ATOM      2  C7  UNL     1     141.538 128.299 101.112  0.00  0.00    -0.010 A 
ATOM      3  C8  UNL     1     142.565 128.705 101.983  0.00  0.00    +0.008 A 
ATOM      4  C9  UNL     1     143.333 127.765 102.677  0.00  0.00    +0.020 A 
ATOM      5  C10 UNL     1     143.084 126.407 102.509  0.00  0.00    +0.041 A 
ATOM      6 CL1  UNL     1     144.030 125.250 103.361  0.00  0.00    -0.084 Cl
ATOM      7  C11 UNL     1     142.073 125.978 101.653  0.00  0.00    +0.020 A 
ATOM      8  C12 UNL     1     141.304 126.918 100.960  0.00  0.00    +0.008 A 
ENDBRANCH   1   2
BRANCH   1   9
ATOM      9  C13 UNL     1     141.529 130.135  99.353  0.00  0.00    -0.010 A 
ATOM     10  C14 UNL     1     141.461 131.546  99.389  0.00  0.00    +0.008 A 
ATOM     11  C15 UNL     1     142.207 132.333  98.509  0.00  0.00    +0.020 A 
ATOM     12  C16 UNL     1     143.036 131.724  97.574  0.00  0.00    +0.041 A 
ATOM     13 CL2  UNL     1     143.957 132.687  96.487  0.00  0.00    -0.084 Cl
ATOM     14  C17 UNL     1     143.121 130.337  97.513  0.00  0.00    +0.020 A 
ATOM     15  C18 UNL     1     142.373 129.546  98.394  0.00  0.00    +0.008 A 
ENDBRANCH   1   9
BRANCH   1  16
ATOM     16  O1  UNL     1     140.154 130.302 101.272  0.00  0.00    -0.378 OA
ATOM     17  H13 UNL     1     140.867 130.505 101.901  0.00  0.00    +0.211 HD
ENDBRANCH   1  16
BRANCH   1  18
ATOM     18  C5  UNL     1     139.435 128.592  99.699  0.00  0.00    +0.125 C 
BRANCH  18  19
ATOM     19  N1  UNL     1     138.969 129.012  98.359  0.00  0.00    -0.313 NA
ATOM     20  H10 UNL     1     139.563 129.773  98.023  0.00  0.00    +0.122 HD
BRANCH  19  21
ATOM     21  C4  UNL     1     138.987 127.932  97.375  0.00  0.00    +0.081 C 
BRANCH  21  22
ATOM     22  C3  UNL     1     139.010 126.564  98.069  0.00  0.00    +0.015 C 
BRANCH  22  24
ATOM     23  C1  UNL     1     141.305 126.348  96.971  0.00  0.00    +0.004 C 
ATOM     24  C2  UNL     1     140.143 125.628  97.636  0.00  0.00    -0.002 C 
ENDBRANCH  22  24
ENDBRANCH  21  22
ENDBRANCH  19  21
ENDBRANCH  18  19
ENDBRANCH   1  18
TORSDOF 8
ENDMDL
