MODEL 1
REMARK VINA RESULT:    -3.739      0.000      0.000
REMARK INTER + INTRA:          -4.507
REMARK INTER:                  -4.395
REMARK INTRA:                  -0.113
REMARK UNBOUND:                -0.113
REMARK  Name = /home/vital/Documents/PhD_2021/Malaria_codes/data/pdb_ligands_mmv/ligand_209.pdb
REMARK  5 active torsions:
REMARK  status: ('A' for Active; 'I' for Inactive)
REMARK    1  A    between atoms: C1_1  and  O1_2
REMARK    2  A    between atoms: O1_2  and  C2_3
REMARK    3  A    between atoms: C2_3  and  C3_4
REMARK    4  A    between atoms: C3_4  and  N1_5
REMARK    5  A    between atoms: C4_6  and  C12_16
REMARK                            x       y       z     vdW  Elec       q    Type
REMARK                         _______ _______ _______ _____ _____    ______ ____
ROOT
ATOM      1  N1  UNL     1     142.308 127.724 102.833  0.00  0.00    -0.294 N 
ATOM      2  C4  UNL     1     143.435 128.523 102.872  0.00  0.00    +0.110 A 
ATOM      3  N2  UNL     1     143.562 129.620 102.196  0.00  0.00    -0.234 NA
ATOM      4  C5  UNL     1     142.505 130.035 101.380  0.00  0.00    +0.078 A 
ATOM      5  C6  UNL     1     142.648 131.208 100.634  0.00  0.00    +0.028 A 
ATOM      6  C7  UNL     1     141.612 131.660  99.811  0.00  0.00    +0.002 A 
ATOM      7  C8  UNL     1     140.420 130.939  99.728  0.00  0.00    +0.001 A 
ATOM      8  C9  UNL     1     140.267 129.767 100.467  0.00  0.00    +0.015 A 
ATOM      9  C10 UNL     1     141.313 129.325 101.287  0.00  0.00    +0.065 A 
ATOM     10  C11 UNL     1     141.191 128.094 102.085  0.00  0.00    +0.262 A 
ATOM     11  O2  UNL     1     140.136 127.464 102.073  0.00  0.00    -0.267 OA
ATOM     12  C12 UNL     1     144.598 128.103 103.739  0.00  0.00    +0.086 C 
ENDROOT
BRANCH   1  13
ATOM     13  C3  UNL     1     142.174 126.496 103.620  0.00  0.00    +0.154 C 
BRANCH  13  14
ATOM     14  C2  UNL     1     141.587 126.763 105.011  0.00  0.00    +0.181 C 
BRANCH  14  16
ATOM     15  C1  UNL     1     139.958 125.044 105.175  0.00  0.00    +0.194 C 
ATOM     16  O1  UNL     1     140.196 126.441 105.062  0.00  0.00    -0.381 OA
ENDBRANCH  14  16
ENDBRANCH  13  14
ENDBRANCH   1  13
TORSDOF 3
ENDMDL
MODEL 2
REMARK VINA RESULT:    -3.649      2.507      3.214
REMARK INTER + INTRA:          -4.402
REMARK INTER:                  -4.331
REMARK INTRA:                  -0.070
REMARK UNBOUND:                -0.113
REMARK  Name = /home/vital/Documents/PhD_2021/Malaria_codes/data/pdb_ligands_mmv/ligand_209.pdb
REMARK  5 active torsions:
REMARK  status: ('A' for Active; 'I' for Inactive)
REMARK    1  A    between atoms: C1_1  and  O1_2
REMARK    2  A    between atoms: O1_2  and  C2_3
REMARK    3  A    between atoms: C2_3  and  C3_4
REMARK    4  A    between atoms: C3_4  and  N1_5
REMARK    5  A    between atoms: C4_6  and  C12_16
REMARK                            x       y       z     vdW  Elec       q    Type
REMARK                         _______ _______ _______ _____ _____    ______ ____
ROOT
ATOM      1  N1  UNL     1     141.649 127.457 101.547  0.00  0.00    -0.294 N 
ATOM      2  C4  UNL     1     142.249 126.676 100.580  0.00  0.00    +0.110 A 
ATOM      3  N2  UNL     1     141.751 126.482  99.400  0.00  0.00    -0.234 NA
ATOM      4  C5  UNL     1     140.540 127.098  99.071  0.00  0.00    +0.078 A 
ATOM      5  C6  UNL     1     139.990 126.876  97.806  0.00  0.00    +0.028 A 
ATOM      6  C7  UNL     1     138.784 127.478  97.436  0.00  0.00    +0.002 A 
ATOM      7  C8  UNL     1     138.116 128.312  98.334  0.00  0.00    +0.001 A 
ATOM      8  C9  UNL     1     138.655 128.541  99.599  0.00  0.00    +0.015 A 
ATOM      9  C10 UNL     1     139.863 127.931  99.956  0.00  0.00    +0.065 A 
ATOM     10  C11 UNL     1     140.466 128.148 101.281  0.00  0.00    +0.262 A 
ATOM     11  O2  UNL     1     139.930 128.917 102.075  0.00  0.00    -0.267 OA
ATOM     12  C12 UNL     1     143.556 125.991 100.901  0.00  0.00    +0.086 C 
ENDROOT
BRANCH   1  13
ATOM     13  C3  UNL     1     142.237 127.681 102.870  0.00  0.00    +0.154 C 
BRANCH  13  14
ATOM     14  C2  UNL     1     141.770 126.641 103.895  0.00  0.00    +0.181 C 
BRANCH  14  16
ATOM     15  C1  UNL     1     140.732 126.369 106.013  0.00  0.00    +0.194 C 
ATOM     16  O1  UNL     1     140.953 127.235 104.906  0.00  0.00    -0.381 OA
ENDBRANCH  14  16
ENDBRANCH  13  14
ENDBRANCH   1  13
TORSDOF 3
ENDMDL
MODEL 3
REMARK VINA RESULT:    -3.291      1.797      4.846
REMARK INTER + INTRA:          -3.982
REMARK INTER:                  -3.751
REMARK INTRA:                  -0.231
REMARK UNBOUND:                -0.113
REMARK  Name = /home/vital/Documents/PhD_2021/Malaria_codes/data/pdb_ligands_mmv/ligand_209.pdb
REMARK  5 active torsions:
REMARK  status: ('A' for Active; 'I' for Inactive)
REMARK    1  A    between atoms: C1_1  and  O1_2
REMARK    2  A    between atoms: O1_2  and  C2_3
REMARK    3  A    between atoms: C2_3  and  C3_4
REMARK    4  A    between atoms: C3_4  and  N1_5
REMARK    5  A    between atoms: C4_6  and  C12_16
REMARK                            x       y       z     vdW  Elec       q    Type
REMARK                         _______ _______ _______ _____ _____    ______ ____
ROOT
ATOM      1  N1  UNL     1     140.772 129.643 100.907  0.00  0.00    -0.294 N 
ATOM      2  C4  UNL     1     141.940 130.371 100.777  0.00  0.00    +0.110 A 
ATOM      3  N2  UNL     1     143.035 130.090 101.408  0.00  0.00    -0.234 NA
ATOM      4  C5  UNL     1     143.055 128.988 102.268  0.00  0.00    +0.078 A 
ATOM      5  C6  UNL     1     144.230 128.695 102.965  0.00  0.00    +0.028 A 
ATOM      6  C7  UNL     1     144.291 127.599 103.830  0.00  0.00    +0.002 A 
ATOM      7  C8  UNL     1     143.172 126.784 104.005  0.00  0.00    +0.001 A 
ATOM      8  C9  UNL     1     141.995 127.066 103.315  0.00  0.00    +0.015 A 
ATOM      9  C10 UNL     1     141.946 128.168 102.453  0.00  0.00    +0.065 A 
ATOM     10  C11 UNL     1     140.724 128.500 101.704  0.00  0.00    +0.262 A 
ATOM     11  O2  UNL     1     139.737 127.772 101.796  0.00  0.00    -0.267 OA
ATOM     12  C12 UNL     1     141.955 131.570  99.859  0.00  0.00    +0.086 C 
ENDROOT
BRANCH   1  13
ATOM     13  C3  UNL     1     139.548 129.963 100.170  0.00  0.00    +0.154 C 
BRANCH  13  14
ATOM     14  C2  UNL     1     139.297 128.987  99.014  0.00  0.00    +0.181 C 
BRANCH  14  16
ATOM     15  C1  UNL     1     140.999 127.934  97.737  0.00  0.00    +0.194 C 
ATOM     16  O1  UNL     1     140.276 129.134  97.983  0.00  0.00    -0.381 OA
ENDBRANCH  14  16
ENDBRANCH  13  14
ENDBRANCH   1  13
TORSDOF 3
ENDMDL
MODEL 4
REMARK VINA RESULT:    -3.238      4.441      6.812
REMARK INTER + INTRA:          -3.919
REMARK INTER:                  -3.835
REMARK INTRA:                  -0.084
REMARK UNBOUND:                -0.113
REMARK  Name = /home/vital/Documents/PhD_2021/Malaria_codes/data/pdb_ligands_mmv/ligand_209.pdb
REMARK  5 active torsions:
REMARK  status: ('A' for Active; 'I' for Inactive)
REMARK    1  A    between atoms: C1_1  and  O1_2
REMARK    2  A    between atoms: O1_2  and  C2_3
REMARK    3  A    between atoms: C2_3  and  C3_4
REMARK    4  A    between atoms: C3_4  and  N1_5
REMARK    5  A    between atoms: C4_6  and  C12_16
REMARK                            x       y       z     vdW  Elec       q    Type
REMARK                         _______ _______ _______ _____ _____    ______ ____
ROOT
ATOM      1  N1  UNL     1     142.766 131.101  97.935  0.00  0.00    -0.294 N 
ATOM      2  C4  UNL     1     142.247 132.108  98.727  0.00  0.00    +0.110 A 
ATOM      3  N2  UNL     1     141.291 131.929  99.583  0.00  0.00    -0.234 NA
ATOM      4  C5  UNL     1     140.748 130.649  99.729  0.00  0.00    +0.078 A 
ATOM      5  C6  UNL     1     139.703 130.457 100.636  0.00  0.00    +0.028 A 
ATOM      6  C7  UNL     1     139.137 129.192 100.816  0.00  0.00    +0.002 A 
ATOM      7  C8  UNL     1     139.614 128.103 100.084  0.00  0.00    +0.001 A 
ATOM      8  C9  UNL     1     140.656 128.282  99.176  0.00  0.00    +0.015 A 
ATOM      9  C10 UNL     1     141.213 129.556  99.005  0.00  0.00    +0.065 A 
ATOM     10  C11 UNL     1     142.315 129.787  98.057  0.00  0.00    +0.262 A 
ATOM     11  O2  UNL     1     142.792 128.840  97.436  0.00  0.00    -0.267 OA
ATOM     12  C12 UNL     1     142.806 133.504  98.594  0.00  0.00    +0.086 C 
ENDROOT
BRANCH   1  13
ATOM     13  C3  UNL     1     143.861 131.318  96.987  0.00  0.00    +0.154 C 
BRANCH  13  14
ATOM     14  C2  UNL     1     143.427 131.076  95.537  0.00  0.00    +0.181 C 
BRANCH  14  16
ATOM     15  C1  UNL     1     142.432 132.507  93.925  0.00  0.00    +0.194 C 
ATOM     16  O1  UNL     1     142.292 131.874  95.191  0.00  0.00    -0.381 OA
ENDBRANCH  14  16
ENDBRANCH  13  14
ENDBRANCH   1  13
TORSDOF 3
ENDMDL
MODEL 5
REMARK VINA RESULT:    -3.210      2.122      3.392
REMARK INTER + INTRA:          -3.886
REMARK INTER:                  -3.660
REMARK INTRA:                  -0.226
REMARK UNBOUND:                -0.113
REMARK  Name = /home/vital/Documents/PhD_2021/Malaria_codes/data/pdb_ligands_mmv/ligand_209.pdb
REMARK  5 active torsions:
REMARK  status: ('A' for Active; 'I' for Inactive)
REMARK    1  A    between atoms: C1_1  and  O1_2
REMARK    2  A    between atoms: O1_2  and  C2_3
REMARK    3  A    between atoms: C2_3  and  C3_4
REMARK    4  A    between atoms: C3_4  and  N1_5
REMARK    5  A    between atoms: C4_6  and  C12_16
REMARK                            x       y       z     vdW  Elec       q    Type
REMARK                         _______ _______ _______ _____ _____    ______ ____
ROOT
ATOM      1  N1  UNL     1     142.950 128.348 102.940  0.00  0.00    -0.294 N 
ATOM      2  C4  UNL     1     141.857 127.534 103.162  0.00  0.00    +0.110 A 
ATOM      3  N2  UNL     1     140.747 127.624 102.501  0.00  0.00    -0.234 NA
ATOM      4  C5  UNL     1     140.636 128.591 101.498  0.00  0.00    +0.078 A 
ATOM      5  C6  UNL     1     139.433 128.703 100.797  0.00  0.00    +0.028 A 
ATOM      6  C7  UNL     1     139.284 129.653  99.783  0.00  0.00    +0.002 A 
ATOM      7  C8  UNL     1     140.344 130.502  99.461  0.00  0.00    +0.001 A 
ATOM      8  C9  UNL     1     141.549 130.400 100.154  0.00  0.00    +0.015 A 
ATOM      9  C10 UNL     1     141.683 129.445 101.168  0.00  0.00    +0.065 A 
ATOM     10  C11 UNL     1     142.939 129.303 101.922  0.00  0.00    +0.262 A 
ATOM     11  O2  UNL     1     143.908 130.000 101.628  0.00  0.00    -0.267 OA
ATOM     12  C12 UNL     1     141.938 126.480 104.242  0.00  0.00    +0.086 C 
ENDROOT
BRANCH   1  13
ATOM     13  C3  UNL     1     144.205 128.219 103.683  0.00  0.00    +0.154 C 
BRANCH  13  14
ATOM     14  C2  UNL     1     145.308 127.560 102.847  0.00  0.00    +0.181 C 
BRANCH  14  16
ATOM     15  C1  UNL     1     144.966 125.975 101.113  0.00  0.00    +0.194 C 
ATOM     16  O1  UNL     1     144.976 126.209 102.515  0.00  0.00    -0.381 OA
ENDBRANCH  14  16
ENDBRANCH  13  14
ENDBRANCH   1  13
TORSDOF 3
ENDMDL
MODEL 6
REMARK VINA RESULT:    -3.186      1.413      1.976
REMARK INTER + INTRA:          -3.858
REMARK INTER:                  -3.558
REMARK INTRA:                  -0.299
REMARK UNBOUND:                -0.113
REMARK  Name = /home/vital/Documents/PhD_2021/Malaria_codes/data/pdb_ligands_mmv/ligand_209.pdb
REMARK  5 active torsions:
REMARK  status: ('A' for Active; 'I' for Inactive)
REMARK    1  A    between atoms: C1_1  and  O1_2
REMARK    2  A    between atoms: O1_2  and  C2_3
REMARK    3  A    between atoms: C2_3  and  C3_4
REMARK    4  A    between atoms: C3_4  and  N1_5
REMARK    5  A    between atoms: C4_6  and  C12_16
REMARK                            x       y       z     vdW  Elec       q    Type
REMARK                         _______ _______ _______ _____ _____    ______ ____
ROOT
ATOM      1  N1  UNL     1     142.394 127.780 102.851  0.00  0.00    -0.294 N 
ATOM      2  C4  UNL     1     143.554 128.525 102.948  0.00  0.00    +0.110 A 
ATOM      3  N2  UNL     1     143.758 129.625 102.296  0.00  0.00    -0.234 NA
ATOM      4  C5  UNL     1     142.755 130.102 101.447  0.00  0.00    +0.078 A 
ATOM      5  C6  UNL     1     142.981 131.278 100.728  0.00  0.00    +0.028 A 
ATOM      6  C7  UNL     1     142.000 131.790  99.873  0.00  0.00    +0.002 A 
ATOM      7  C8  UNL     1     140.781 131.127  99.732  0.00  0.00    +0.001 A 
ATOM      8  C9  UNL     1     140.545 129.952 100.444  0.00  0.00    +0.015 A 
ATOM      9  C10 UNL     1     141.536 129.449 101.296  0.00  0.00    +0.065 A 
ATOM     10  C11 UNL     1     141.325 128.214 102.067  0.00  0.00    +0.262 A 
ATOM     11  O2  UNL     1     140.244 127.634 102.004  0.00  0.00    -0.267 OA
ATOM     12  C12 UNL     1     144.662 128.038 103.852  0.00  0.00    +0.086 C 
ENDROOT
BRANCH   1  13
ATOM     13  C3  UNL     1     142.172 126.548 103.612  0.00  0.00    +0.154 C 
BRANCH  13  14
ATOM     14  C2  UNL     1     142.252 125.299 102.726  0.00  0.00    +0.181 C 
BRANCH  14  16
ATOM     15  C1  UNL     1     143.413 125.110 100.665  0.00  0.00    +0.194 C 
ATOM     16  O1  UNL     1     143.522 125.197 102.080  0.00  0.00    -0.381 OA
ENDBRANCH  14  16
ENDBRANCH  13  14
ENDBRANCH   1  13
TORSDOF 3
ENDMDL
MODEL 7
REMARK VINA RESULT:    -3.116      4.075      5.763
REMARK INTER + INTRA:          -3.776
REMARK INTER:                  -3.498
REMARK INTRA:                  -0.278
REMARK UNBOUND:                -0.113
REMARK  Name = /home/vital/Documents/PhD_2021/Malaria_codes/data/pdb_ligands_mmv/ligand_209.pdb
REMARK  5 active torsions:
REMARK  status: ('A' for Active; 'I' for Inactive)
REMARK    1  A    between atoms: C1_1  and  O1_2
REMARK    2  A    between atoms: O1_2  and  C2_3
REMARK    3  A    between atoms: C2_3  and  C3_4
REMARK    4  A    between atoms: C3_4  and  N1_5
REMARK    5  A    between atoms: C4_6  and  C12_16
REMARK                            x       y       z     vdW  Elec       q    Type
REMARK                         _______ _______ _______ _____ _____    ______ ____
ROOT
ATOM      1  N1  UNL     1     142.884 131.364  98.684  0.00  0.00    -0.294 N 
ATOM      2  C4  UNL     1     142.606 130.494  97.647  0.00  0.00    +0.110 A 
ATOM      3  N2  UNL     1     141.632 129.641  97.666  0.00  0.00    -0.234 NA
ATOM      4  C5  UNL     1     140.802 129.590  98.790  0.00  0.00    +0.078 A 
ATOM      5  C6  UNL     1     139.762 128.657  98.821  0.00  0.00    +0.028 A 
ATOM      6  C7  UNL     1     138.907 128.579  99.924  0.00  0.00    +0.002 A 
ATOM      7  C8  UNL     1     139.087 129.438 101.009  0.00  0.00    +0.001 A 
ATOM      8  C9  UNL     1     140.121 130.372 100.990  0.00  0.00    +0.015 A 
ATOM      9  C10 UNL     1     140.971 130.439  99.879  0.00  0.00    +0.065 A 
ATOM     10  C11 UNL     1     142.073 131.412  99.818  0.00  0.00    +0.262 A 
ATOM     11  O2  UNL     1     142.226 132.217 100.734  0.00  0.00    -0.267 OA
ATOM     12  C12 UNL     1     143.484 130.517  96.418  0.00  0.00    +0.086 C 
ENDROOT
BRANCH   1  13
ATOM     13  C3  UNL     1     143.978 132.336  98.637  0.00  0.00    +0.154 C 
BRANCH  13  14
ATOM     14  C2  UNL     1     145.155 131.927  99.531  0.00  0.00    +0.181 C 
BRANCH  14  16
ATOM     15  C1  UNL     1     145.625 129.901 100.675  0.00  0.00    +0.194 C 
ATOM     16  O1  UNL     1     145.439 130.531  99.414  0.00  0.00    -0.381 OA
ENDBRANCH  14  16
ENDBRANCH  13  14
ENDBRANCH   1  13
TORSDOF 3
ENDMDL
MODEL 8
REMARK VINA RESULT:    -3.110      2.358      5.738
REMARK INTER + INTRA:          -3.768
REMARK INTER:                  -3.671
REMARK INTRA:                  -0.097
REMARK UNBOUND:                -0.113
REMARK  Name = /home/vital/Documents/PhD_2021/Malaria_codes/data/pdb_ligands_mmv/ligand_209.pdb
REMARK  5 active torsions:
REMARK  status: ('A' for Active; 'I' for Inactive)
REMARK    1  A    between atoms: C1_1  and  O1_2
REMARK    2  A    between atoms: O1_2  and  C2_3
REMARK    3  A    between atoms: C2_3  and  C3_4
REMARK    4  A    between atoms: C3_4  and  N1_5
REMARK    5  A    between atoms: C4_6  and  C12_16
REMARK                            x       y       z     vdW  Elec       q    Type
REMARK                         _______ _______ _______ _____ _____    ______ ____
ROOT
ATOM      1  N1  UNL     1     141.304 129.234 100.728  0.00  0.00    -0.294 N 
ATOM      2  C4  UNL     1     140.231 128.526 101.234  0.00  0.00    +0.110 A 
ATOM      3  N2  UNL     1     140.317 127.709 102.235  0.00  0.00    -0.234 NA
ATOM      4  C5  UNL     1     141.558 127.528 102.853  0.00  0.00    +0.078 A 
ATOM      5  C6  UNL     1     141.657 126.632 103.921  0.00  0.00    +0.028 A 
ATOM      6  C7  UNL     1     142.879 126.427 104.569  0.00  0.00    +0.002 A 
ATOM      7  C8  UNL     1     144.015 127.121 104.152  0.00  0.00    +0.001 A 
ATOM      8  C9  UNL     1     143.929 128.017 103.087  0.00  0.00    +0.015 A 
ATOM      9  C10 UNL     1     142.699 128.211 102.446  0.00  0.00    +0.065 A 
ATOM     10  C11 UNL     1     142.564 129.149 101.321  0.00  0.00    +0.262 A 
ATOM     11  O2  UNL     1     143.534 129.814 100.962  0.00  0.00    -0.267 OA
ATOM     12  C12 UNL     1     138.876 128.693 100.589  0.00  0.00    +0.086 C 
ENDROOT
BRANCH   1  13
ATOM     13  C3  UNL     1     141.185 130.169  99.608  0.00  0.00    +0.154 C 
BRANCH  13  14
ATOM     14  C2  UNL     1     141.043 131.622 100.079  0.00  0.00    +0.181 C 
BRANCH  14  16
ATOM     15  C1  UNL     1     142.890 132.747  99.099  0.00  0.00    +0.194 C 
ATOM     16  O1  UNL     1     141.483 132.542  99.077  0.00  0.00    -0.381 OA
ENDBRANCH  14  16
ENDBRANCH  13  14
ENDBRANCH   1  13
TORSDOF 3
ENDMDL
MODEL 9
REMARK VINA RESULT:    -3.018      3.214      4.858
REMARK INTER + INTRA:          -3.660
REMARK INTER:                  -3.409
REMARK INTRA:                  -0.251
REMARK UNBOUND:                -0.113
REMARK  Name = /home/vital/Documents/PhD_2021/Malaria_codes/data/pdb_ligands_mmv/ligand_209.pdb
REMARK  5 active torsions:
REMARK  status: ('A' for Active; 'I' for Inactive)
REMARK    1  A    between atoms: C1_1  and  O1_2
REMARK    2  A    between atoms: O1_2  and  C2_3
REMARK    3  A    between atoms: C2_3  and  C3_4
REMARK    4  A    between atoms: C3_4  and  N1_5
REMARK    5  A    between atoms: C4_6  and  C12_16
REMARK                            x       y       z     vdW  Elec       q    Type
REMARK                         _______ _______ _______ _____ _____    ______ ____
ROOT
ATOM      1  N1  UNL     1     142.205 130.770  99.547  0.00  0.00    -0.294 N 
ATOM      2  C4  UNL     1     142.705 130.211  98.387  0.00  0.00    +0.110 A 
ATOM      3  N2  UNL     1     142.077 129.318  97.691  0.00  0.00    -0.234 NA
ATOM      4  C5  UNL     1     140.817 128.891  98.120  0.00  0.00    +0.078 A 
ATOM      5  C6  UNL     1     140.145 127.913  97.382  0.00  0.00    +0.028 A 
ATOM      6  C7  UNL     1     138.881 127.465  97.775  0.00  0.00    +0.002 A 
ATOM      7  C8  UNL     1     138.277 127.993  98.916  0.00  0.00    +0.001 A 
ATOM      8  C9  UNL     1     138.937 128.968  99.662  0.00  0.00    +0.015 A 
ATOM      9  C10 UNL     1     140.203 129.408  99.257  0.00  0.00    +0.065 A 
ATOM     10  C11 UNL     1     140.933 130.437 100.015  0.00  0.00    +0.262 A 
ATOM     11  O2  UNL     1     140.406 130.959 100.995  0.00  0.00    -0.267 OA
ATOM     12  C12 UNL     1     144.065 130.644  97.895  0.00  0.00    +0.086 C 
ENDROOT
BRANCH   1  13
ATOM     13  C3  UNL     1     142.920 131.794 100.312  0.00  0.00    +0.154 C 
BRANCH  13  14
ATOM     14  C2  UNL     1     143.596 131.216 101.561  0.00  0.00    +0.181 C 
BRANCH  14  16
ATOM     15  C1  UNL     1     143.693 128.997 102.397  0.00  0.00    +0.194 C 
ATOM     16  O1  UNL     1     144.048 129.878 101.340  0.00  0.00    -0.381 OA
ENDBRANCH  14  16
ENDBRANCH  13  14
ENDBRANCH   1  13
TORSDOF 3
ENDMDL
