MODEL 1
REMARK VINA RESULT:    -3.773      0.000      0.000
REMARK INTER + INTRA:          -4.659
REMARK INTER:                  -4.324
REMARK INTRA:                  -0.335
REMARK UNBOUND:                -0.335
REMARK  Name = /home/vital/Documents/PhD_2021/Malaria_codes/data/pdb_ligands_mmv/ligand_112.pdb
REMARK  5 active torsions:
REMARK  status: ('A' for Active; 'I' for Inactive)
REMARK    1  A    between atoms: C1_1  and  N1_2
REMARK    2  A    between atoms: N1_2  and  C2_3
REMARK    3  A    between atoms: N1_2  and  C3_4
REMARK    4  A    between atoms: C6_7  and  C9_10
REMARK    5  A    between atoms: C12_14  and  N3_15
REMARK                            x       y       z     vdW  Elec       q    Type
REMARK                         _______ _______ _______ _____ _____    ______ ____
ROOT
ATOM      1  C9  UNL     1     142.666 128.621 102.580  0.00  0.00    +0.139 A 
ATOM      2  N2  UNL     1     143.572 129.512 102.213  0.00  0.00    -0.228 NA
ATOM      3  C10 UNL     1     142.952 130.350 101.320  0.00  0.00    +0.091 A 
ATOM      4  C11 UNL     1     143.456 131.463 100.629  0.00  0.00    +0.052 A 
ATOM      5  C12 UNL     1     142.625 132.146  99.731  0.00  0.00    +0.027 A 
ATOM      6  C13 UNL     1     141.280 131.773  99.616  0.00  0.00    +0.025 A 
ATOM      7  C14 UNL     1     140.752 130.668 100.298  0.00  0.00    +0.029 A 
ATOM      8  C15 UNL     1     141.629 129.978 101.135  0.00  0.00    +0.067 A 
ATOM      9  N4  UNL     1     141.472 128.885 101.945  0.00  0.00    -0.338 N 
ATOM     10  H16 UNL     1     140.614 128.372 102.073  0.00  0.00    +0.167 HD
ENDROOT
BRANCH   1  14
ATOM     11  C3  UNL     1     143.194 125.381 105.426  0.00  0.00    +0.029 A 
ATOM     12  C4  UNL     1     144.270 125.887 104.678  0.00  0.00    +0.024 A 
ATOM     13  C5  UNL     1     144.123 126.938 103.754  0.00  0.00    +0.013 A 
ATOM     14  C6  UNL     1     142.876 127.525 103.531  0.00  0.00    +0.017 A 
ATOM     15  C7  UNL     1     141.791 127.030 104.258  0.00  0.00    +0.013 A 
ATOM     16  C8  UNL     1     141.947 125.978 105.176  0.00  0.00    +0.024 A 
BRANCH  11  18
ATOM     17  C1  UNL     1     144.416 123.349 106.085  0.00  0.00    +0.129 C 
ATOM     18  N1  UNL     1     143.351 124.321 106.328  0.00  0.00    -0.336 N 
ATOM     19  C2  UNL     1     142.992 124.522 107.730  0.00  0.00    +0.129 C 
ENDBRANCH  11  18
ENDBRANCH   1  14
BRANCH   5  20
ATOM     20  N3  UNL     1     143.077 133.326  99.119  0.00  0.00    -0.358 N 
ATOM     21  H12 UNL     1     144.089 133.403  99.084  0.00  0.00    +0.142 HD
ATOM     22  H13 UNL     1     142.645 133.513  98.219  0.00  0.00    +0.142 HD
ENDBRANCH   5  20
TORSDOF 3
ENDMDL
MODEL 2
REMARK VINA RESULT:    -3.681      1.621      2.439
REMARK INTER + INTRA:          -4.554
REMARK INTER:                  -4.221
REMARK INTRA:                  -0.333
REMARK UNBOUND:                -0.335
REMARK  Name = /home/vital/Documents/PhD_2021/Malaria_codes/data/pdb_ligands_mmv/ligand_112.pdb
REMARK  5 active torsions:
REMARK  status: ('A' for Active; 'I' for Inactive)
REMARK    1  A    between atoms: C1_1  and  N1_2
REMARK    2  A    between atoms: N1_2  and  C2_3
REMARK    3  A    between atoms: N1_2  and  C3_4
REMARK    4  A    between atoms: C6_7  and  C9_10
REMARK    5  A    between atoms: C12_14  and  N3_15
REMARK                            x       y       z     vdW  Elec       q    Type
REMARK                         _______ _______ _______ _____ _____    ______ ____
ROOT
ATOM      1  C9  UNL     1     142.923 130.286 101.084  0.00  0.00    +0.139 A 
ATOM      2  N2  UNL     1     144.021 130.707 100.479  0.00  0.00    -0.228 NA
ATOM      3  C10 UNL     1     143.653 131.784  99.713  0.00  0.00    +0.091 A 
ATOM      4  C11 UNL     1     144.428 132.601  98.875  0.00  0.00    +0.052 A 
ATOM      5  C12 UNL     1     143.807 133.634  98.158  0.00  0.00    +0.027 A 
ATOM      6  C13 UNL     1     142.448 133.899  98.371  0.00  0.00    +0.025 A 
ATOM      7  C14 UNL     1     141.654 133.101  99.206  0.00  0.00    +0.029 A 
ATOM      8  C15 UNL     1     142.298 132.047  99.851  0.00  0.00    +0.067 A 
ATOM      9  N4  UNL     1     141.860 131.087 100.726  0.00  0.00    -0.338 N 
ATOM     10  H16 UNL     1     140.917 130.999 101.070  0.00  0.00    +0.167 HD
ENDROOT
BRANCH   1  14
ATOM     11  C3  UNL     1     142.564 126.919 103.806  0.00  0.00    +0.029 A 
ATOM     12  C4  UNL     1     143.723 127.712 103.763  0.00  0.00    +0.024 A 
ATOM     13  C5  UNL     1     143.859 128.809 102.893  0.00  0.00    +0.013 A 
ATOM     14  C6  UNL     1     142.833 129.154 102.012  0.00  0.00    +0.017 A 
ATOM     15  C7  UNL     1     141.676 128.373 102.032  0.00  0.00    +0.013 A 
ATOM     16  C8  UNL     1     141.550 127.278 102.902  0.00  0.00    +0.024 A 
BRANCH  11  18
ATOM     17  C1  UNL     1     143.662 125.083 105.023  0.00  0.00    +0.129 C 
ATOM     18  N1  UNL     1     142.450 125.818 104.663  0.00  0.00    -0.336 N 
ATOM     19  C2  UNL     1     141.387 125.804 105.666  0.00  0.00    +0.129 C 
ENDBRANCH  11  18
ENDBRANCH   1  14
BRANCH   5  20
ATOM     20  N3  UNL     1     144.584 134.528  97.405  0.00  0.00    -0.358 N 
ATOM     21  H12 UNL     1     144.536 134.363  96.404  0.00  0.00    +0.142 HD
ATOM     22  H13 UNL     1     144.434 135.503  97.643  0.00  0.00    +0.142 HD
ENDBRANCH   5  20
TORSDOF 3
ENDMDL
MODEL 3
REMARK VINA RESULT:    -3.677      3.346      4.779
REMARK INTER + INTRA:          -4.549
REMARK INTER:                  -4.212
REMARK INTRA:                  -0.337
REMARK UNBOUND:                -0.335
REMARK  Name = /home/vital/Documents/PhD_2021/Malaria_codes/data/pdb_ligands_mmv/ligand_112.pdb
REMARK  5 active torsions:
REMARK  status: ('A' for Active; 'I' for Inactive)
REMARK    1  A    between atoms: C1_1  and  N1_2
REMARK    2  A    between atoms: N1_2  and  C2_3
REMARK    3  A    between atoms: N1_2  and  C3_4
REMARK    4  A    between atoms: C6_7  and  C9_10
REMARK    5  A    between atoms: C12_14  and  N3_15
REMARK                            x       y       z     vdW  Elec       q    Type
REMARK                         _______ _______ _______ _____ _____    ______ ____
ROOT
ATOM      1  C9  UNL     1     141.009 126.104 104.547  0.00  0.00    +0.139 A 
ATOM      2  N2  UNL     1     140.598 126.687 103.433  0.00  0.00    -0.228 NA
ATOM      3  C10 UNL     1     141.632 127.483 103.009  0.00  0.00    +0.091 A 
ATOM      4  C11 UNL     1     141.725 128.315 101.883  0.00  0.00    +0.052 A 
ATOM      5  C12 UNL     1     142.890 129.068 101.680  0.00  0.00    +0.027 A 
ATOM      6  C13 UNL     1     143.980 128.898 102.544  0.00  0.00    +0.025 A 
ATOM      7  C14 UNL     1     143.913 128.069 103.673  0.00  0.00    +0.029 A 
ATOM      8  C15 UNL     1     142.714 127.386 103.872  0.00  0.00    +0.067 A 
ATOM      9  N4  UNL     1     142.295 126.506 104.834  0.00  0.00    -0.338 N 
ATOM     10  H16 UNL     1     142.849 126.186 105.613  0.00  0.00    +0.167 HD
ENDROOT
BRANCH   1  14
ATOM     11  C3  UNL     1     138.636 123.322 106.894  0.00  0.00    +0.029 A 
ATOM     12  C4  UNL     1     139.985 123.576 107.195  0.00  0.00    +0.024 A 
ATOM     13  C5  UNL     1     140.770 124.476 106.451  0.00  0.00    +0.013 A 
ATOM     14  C6  UNL     1     140.235 125.157 105.357  0.00  0.00    +0.017 A 
ATOM     15  C7  UNL     1     138.898 124.912 105.035  0.00  0.00    +0.013 A 
ATOM     16  C8  UNL     1     138.123 124.009 105.781  0.00  0.00    +0.024 A 
BRANCH  11  18
ATOM     17  C1  UNL     1     137.897 122.493 109.090  0.00  0.00    +0.129 C 
ATOM     18  N1  UNL     1     137.872 122.409 107.631  0.00  0.00    -0.336 N 
ATOM     19  C2  UNL     1     136.634 121.889 107.053  0.00  0.00    +0.129 C 
ENDBRANCH  11  18
ENDBRANCH   1  14
BRANCH   5  20
ATOM     20  N3  UNL     1     143.044 129.816 100.503  0.00  0.00    -0.358 N 
ATOM     21  H12 UNL     1     142.176 129.954  99.993  0.00  0.00    +0.142 HD
ATOM     22  H13 UNL     1     143.557 130.683 100.631  0.00  0.00    +0.142 HD
ENDBRANCH   5  20
TORSDOF 3
ENDMDL
MODEL 4
REMARK VINA RESULT:    -3.642      3.665      7.917
REMARK INTER + INTRA:          -4.509
REMARK INTER:                  -4.171
REMARK INTRA:                  -0.338
REMARK UNBOUND:                -0.335
REMARK  Name = /home/vital/Documents/PhD_2021/Malaria_codes/data/pdb_ligands_mmv/ligand_112.pdb
REMARK  5 active torsions:
REMARK  status: ('A' for Active; 'I' for Inactive)
REMARK    1  A    between atoms: C1_1  and  N1_2
REMARK    2  A    between atoms: N1_2  and  C2_3
REMARK    3  A    between atoms: N1_2  and  C3_4
REMARK    4  A    between atoms: C6_7  and  C9_10
REMARK    5  A    between atoms: C12_14  and  N3_15
REMARK                            x       y       z     vdW  Elec       q    Type
REMARK                         _______ _______ _______ _____ _____    ______ ____
ROOT
ATOM      1  C9  UNL     1     140.372 125.323 104.777  0.00  0.00    +0.139 A 
ATOM      2  N2  UNL     1     139.086 125.330 104.469  0.00  0.00    -0.228 NA
ATOM      3  C10 UNL     1     138.493 124.379 105.260  0.00  0.00    +0.091 A 
ATOM      4  C11 UNL     1     137.150 123.980 105.336  0.00  0.00    +0.052 A 
ATOM      5  C12 UNL     1     136.789 122.946 106.211  0.00  0.00    +0.027 A 
ATOM      6  C13 UNL     1     137.754 122.400 107.067  0.00  0.00    +0.025 A 
ATOM      7  C14 UNL     1     139.101 122.784 107.013  0.00  0.00    +0.029 A 
ATOM      8  C15 UNL     1     139.428 123.773 106.086  0.00  0.00    +0.067 A 
ATOM      9  N4  UNL     1     140.608 124.390 105.764  0.00  0.00    -0.338 N 
ATOM     10  H16 UNL     1     141.499 124.207 106.197  0.00  0.00    +0.167 HD
ENDROOT
BRANCH   1  14
ATOM     11  C3  UNL     1     143.360 127.897 102.954  0.00  0.00    +0.029 A 
ATOM     12  C4  UNL     1     143.668 127.070 104.047  0.00  0.00    +0.024 A 
ATOM     13  C5  UNL     1     142.718 126.227 104.650  0.00  0.00    +0.013 A 
ATOM     14  C6  UNL     1     141.402 126.183 104.185  0.00  0.00    +0.017 A 
ATOM     15  C7  UNL     1     141.073 127.004 103.105  0.00  0.00    +0.013 A 
ATOM     16  C8  UNL     1     142.028 127.846 102.511  0.00  0.00    +0.024 A 
BRANCH  11  18
ATOM     17  C1  UNL     1     143.845 129.915 101.631  0.00  0.00    +0.129 C 
ATOM     18  N1  UNL     1     144.311 128.747 102.376  0.00  0.00    -0.336 N 
ATOM     19  C2  UNL     1     145.618 128.890 103.015  0.00  0.00    +0.129 C 
ENDBRANCH  11  18
ENDBRANCH   1  14
BRANCH   5  20
ATOM     20  N3  UNL     1     135.436 122.613 106.382  0.00  0.00    -0.358 N 
ATOM     21  H12 UNL     1     134.798 123.350 106.097  0.00  0.00    +0.142 HD
ATOM     22  H13 UNL     1     135.183 121.711 105.989  0.00  0.00    +0.142 HD
ENDBRANCH   5  20
TORSDOF 3
ENDMDL
MODEL 5
REMARK VINA RESULT:    -3.626      1.740      2.788
REMARK INTER + INTRA:          -4.491
REMARK INTER:                  -4.159
REMARK INTRA:                  -0.332
REMARK UNBOUND:                -0.335
REMARK  Name = /home/vital/Documents/PhD_2021/Malaria_codes/data/pdb_ligands_mmv/ligand_112.pdb
REMARK  5 active torsions:
REMARK  status: ('A' for Active; 'I' for Inactive)
REMARK    1  A    between atoms: C1_1  and  N1_2
REMARK    2  A    between atoms: N1_2  and  C2_3
REMARK    3  A    between atoms: N1_2  and  C3_4
REMARK    4  A    between atoms: C6_7  and  C9_10
REMARK    5  A    between atoms: C12_14  and  N3_15
REMARK                            x       y       z     vdW  Elec       q    Type
REMARK                         _______ _______ _______ _____ _____    ______ ____
ROOT
ATOM      1  C9  UNL     1     142.840 130.285 101.034  0.00  0.00    +0.139 A 
ATOM      2  N2  UNL     1     143.951 130.704 100.452  0.00  0.00    -0.228 NA
ATOM      3  C10 UNL     1     143.606 131.802  99.704  0.00  0.00    +0.091 A 
ATOM      4  C11 UNL     1     144.401 132.625  98.893  0.00  0.00    +0.052 A 
ATOM      5  C12 UNL     1     143.803 133.680  98.189  0.00  0.00    +0.027 A 
ATOM      6  C13 UNL     1     142.444 133.957  98.389  0.00  0.00    +0.025 A 
ATOM      7  C14 UNL     1     141.630 133.152  99.197  0.00  0.00    +0.029 A 
ATOM      8  C15 UNL     1     142.253 132.077  99.830  0.00  0.00    +0.067 A 
ATOM      9  N4  UNL     1     141.792 131.106 100.679  0.00  0.00    -0.338 N 
ATOM     10  H16 UNL     1     140.843 131.021 101.009  0.00  0.00    +0.167 HD
ENDROOT
BRANCH   1  14
ATOM     11  C3  UNL     1     142.591 126.896 103.741  0.00  0.00    +0.029 A 
ATOM     12  C4  UNL     1     141.542 127.216 102.863  0.00  0.00    +0.024 A 
ATOM     13  C5  UNL     1     141.603 128.306 101.976  0.00  0.00    +0.013 A 
ATOM     14  C6  UNL     1     142.725 129.136 101.938  0.00  0.00    +0.017 A 
ATOM     15  C7  UNL     1     143.775 128.840 102.810  0.00  0.00    +0.013 A 
ATOM     16  C8  UNL     1     143.703 127.752 103.695  0.00  0.00    +0.024 A 
BRANCH  11  18
ATOM     17  C1  UNL     1     141.472 125.844 105.665  0.00  0.00    +0.129 C 
ATOM     18  N1  UNL     1     142.508 125.820 104.633  0.00  0.00    -0.336 N 
ATOM     19  C2  UNL     1     142.915 124.490 104.183  0.00  0.00    +0.129 C 
ENDBRANCH  11  18
ENDBRANCH   1  14
BRANCH   5  20
ATOM     20  N3  UNL     1     144.600 134.580  97.465  0.00  0.00    -0.358 N 
ATOM     21  H12 UNL     1     145.357 134.132  96.956  0.00  0.00    +0.142 HD
ATOM     22  H13 UNL     1     144.070 135.220  96.882  0.00  0.00    +0.142 HD
ENDBRANCH   5  20
TORSDOF 3
ENDMDL
MODEL 6
REMARK VINA RESULT:    -3.579      4.292      8.656
REMARK INTER + INTRA:          -4.437
REMARK INTER:                  -4.103
REMARK INTRA:                  -0.334
REMARK UNBOUND:                -0.335
REMARK  Name = /home/vital/Documents/PhD_2021/Malaria_codes/data/pdb_ligands_mmv/ligand_112.pdb
REMARK  5 active torsions:
REMARK  status: ('A' for Active; 'I' for Inactive)
REMARK    1  A    between atoms: C1_1  and  N1_2
REMARK    2  A    between atoms: N1_2  and  C2_3
REMARK    3  A    between atoms: N1_2  and  C3_4
REMARK    4  A    between atoms: C6_7  and  C9_10
REMARK    5  A    between atoms: C12_14  and  N3_15
REMARK                            x       y       z     vdW  Elec       q    Type
REMARK                         _______ _______ _______ _____ _____    ______ ____
ROOT
ATOM      1  C9  UNL     1     139.830 124.299 105.679  0.00  0.00    +0.139 A 
ATOM      2  N2  UNL     1     138.736 123.922 105.040  0.00  0.00    -0.228 NA
ATOM      3  C10 UNL     1     138.020 123.149 105.919  0.00  0.00    +0.091 A 
ATOM      4  C11 UNL     1     136.786 122.502 105.752  0.00  0.00    +0.052 A 
ATOM      5  C12 UNL     1     136.269 121.729 106.801  0.00  0.00    +0.027 A 
ATOM      6  C13 UNL     1     136.938 121.702 108.032  0.00  0.00    +0.025 A 
ATOM      7  C14 UNL     1     138.169 122.344 108.225  0.00  0.00    +0.029 A 
ATOM      8  C15 UNL     1     138.679 123.050 107.136  0.00  0.00    +0.067 A 
ATOM      9  N4  UNL     1     139.819 123.789 106.959  0.00  0.00    -0.338 N 
ATOM     10  H16 UNL     1     140.523 123.951 107.662  0.00  0.00    +0.167 HD
ENDROOT
BRANCH   1  14
ATOM     11  C3  UNL     1     143.051 126.762 104.118  0.00  0.00    +0.029 A 
ATOM     12  C4  UNL     1     141.712 126.982 103.754  0.00  0.00    +0.024 A 
ATOM     13  C5  UNL     1     140.654 126.199 104.250  0.00  0.00    +0.013 A 
ATOM     14  C6  UNL     1     140.896 125.146 105.133  0.00  0.00    +0.017 A 
ATOM     15  C7  UNL     1     142.221 124.904 105.501  0.00  0.00    +0.013 A 
ATOM     16  C8  UNL     1     143.272 125.689 104.997  0.00  0.00    +0.024 A 
BRANCH  11  18
ATOM     17  C1  UNL     1     143.767 128.687 102.762  0.00  0.00    +0.129 C 
ATOM     18  N1  UNL     1     144.097 127.536 103.601  0.00  0.00    -0.336 N 
ATOM     19  C2  UNL     1     145.341 127.649 104.360  0.00  0.00    +0.129 C 
ENDBRANCH  11  18
ENDBRANCH   1  14
BRANCH   5  20
ATOM     20  N3  UNL     1     134.987 121.169 106.692  0.00  0.00    -0.358 N 
ATOM     21  H12 UNL     1     134.393 121.644 106.018  0.00  0.00    +0.142 HD
ATOM     22  H13 UNL     1     134.988 120.162 106.562  0.00  0.00    +0.142 HD
ENDBRANCH   5  20
TORSDOF 3
ENDMDL
MODEL 7
REMARK VINA RESULT:    -3.533      3.169      4.609
REMARK INTER + INTRA:          -4.384
REMARK INTER:                  -4.046
REMARK INTRA:                  -0.338
REMARK UNBOUND:                -0.335
REMARK  Name = /home/vital/Documents/PhD_2021/Malaria_codes/data/pdb_ligands_mmv/ligand_112.pdb
REMARK  5 active torsions:
REMARK  status: ('A' for Active; 'I' for Inactive)
REMARK    1  A    between atoms: C1_1  and  N1_2
REMARK    2  A    between atoms: N1_2  and  C2_3
REMARK    3  A    between atoms: N1_2  and  C3_4
REMARK    4  A    between atoms: C6_7  and  C9_10
REMARK    5  A    between atoms: C12_14  and  N3_15
REMARK                            x       y       z     vdW  Elec       q    Type
REMARK                         _______ _______ _______ _____ _____    ______ ____
ROOT
ATOM      1  C9  UNL     1     141.250 126.223 104.530  0.00  0.00    +0.139 A 
ATOM      2  N2  UNL     1     142.462 126.651 104.840  0.00  0.00    -0.228 NA
ATOM      3  C10 UNL     1     142.843 127.500 103.832  0.00  0.00    +0.091 A 
ATOM      4  C11 UNL     1     144.033 128.225 103.666  0.00  0.00    +0.052 A 
ATOM      5  C12 UNL     1     144.205 129.008 102.516  0.00  0.00    +0.027 A 
ATOM      6  C13 UNL     1     143.148 129.136 101.605  0.00  0.00    +0.025 A 
ATOM      7  C14 UNL     1     141.948 128.425 101.751  0.00  0.00    +0.029 A 
ATOM      8  C15 UNL     1     141.843 127.610 102.877  0.00  0.00    +0.067 A 
ATOM      9  N4  UNL     1     140.845 126.796 103.344  0.00  0.00    -0.338 N 
ATOM     10  H16 UNL     1     139.950 126.658 102.901  0.00  0.00    +0.167 HD
ENDROOT
BRANCH   1  14
ATOM     11  C3  UNL     1     138.916 123.463 106.941  0.00  0.00    +0.029 A 
ATOM     12  C4  UNL     1     138.412 124.007 105.748  0.00  0.00    +0.024 A 
ATOM     13  C5  UNL     1     139.151 124.899 104.951  0.00  0.00    +0.013 A 
ATOM     14  C6  UNL     1     140.437 125.295 105.324  0.00  0.00    +0.017 A 
ATOM     15  C7  UNL     1     140.954 124.773 106.511  0.00  0.00    +0.013 A 
ATOM     16  C8  UNL     1     140.206 123.886 107.303  0.00  0.00    +0.024 A 
BRANCH  11  18
ATOM     17  C1  UNL     1     138.163 122.788 109.185  0.00  0.00    +0.129 C 
ATOM     18  N1  UNL     1     138.162 122.591 107.736  0.00  0.00    -0.336 N 
ATOM     19  C2  UNL     1     136.946 121.998 107.184  0.00  0.00    +0.129 C 
ENDBRANCH  11  18
ENDBRANCH   1  14
BRANCH   5  20
ATOM     20  N3  UNL     1     145.338 129.826 102.389  0.00  0.00    -0.358 N 
ATOM     21  H12 UNL     1     146.043 129.449 101.762  0.00  0.00    +0.142 HD
ATOM     22  H13 UNL     1     145.123 130.797 102.187  0.00  0.00    +0.142 HD
ENDBRANCH   5  20
TORSDOF 3
ENDMDL
MODEL 8
REMARK VINA RESULT:    -3.342      3.000      3.863
REMARK INTER + INTRA:          -4.165
REMARK INTER:                  -3.837
REMARK INTRA:                  -0.328
REMARK UNBOUND:                -0.335
REMARK  Name = /home/vital/Documents/PhD_2021/Malaria_codes/data/pdb_ligands_mmv/ligand_112.pdb
REMARK  5 active torsions:
REMARK  status: ('A' for Active; 'I' for Inactive)
REMARK    1  A    between atoms: C1_1  and  N1_2
REMARK    2  A    between atoms: N1_2  and  C2_3
REMARK    3  A    between atoms: N1_2  and  C3_4
REMARK    4  A    between atoms: C6_7  and  C9_10
REMARK    5  A    between atoms: C12_14  and  N3_15
REMARK                            x       y       z     vdW  Elec       q    Type
REMARK                         _______ _______ _______ _____ _____    ______ ____
ROOT
ATOM      1  C9  UNL     1     142.151 127.742 101.972  0.00  0.00    +0.139 A 
ATOM      2  N2  UNL     1     142.011 127.150 100.798  0.00  0.00    -0.228 NA
ATOM      3  C10 UNL     1     140.824 127.600 100.277  0.00  0.00    +0.091 A 
ATOM      4  C11 UNL     1     140.200 127.290  99.058  0.00  0.00    +0.052 A 
ATOM      5  C12 UNL     1     138.953 127.858  98.762  0.00  0.00    +0.027 A 
ATOM      6  C13 UNL     1     138.402 128.804  99.636  0.00  0.00    +0.025 A 
ATOM      7  C14 UNL     1     139.008 129.133 100.857  0.00  0.00    +0.029 A 
ATOM      8  C15 UNL     1     140.216 128.498 101.141  0.00  0.00    +0.067 A 
ATOM      9  N4  UNL     1     141.077 128.574 102.204  0.00  0.00    -0.338 N 
ATOM     10  H16 UNL     1     140.954 129.162 103.012  0.00  0.00    +0.167 HD
ENDROOT
BRANCH   1  14
ATOM     11  C3  UNL     1     145.533 127.310 104.665  0.00  0.00    +0.029 A 
ATOM     12  C4  UNL     1     144.539 126.322 104.566  0.00  0.00    +0.024 A 
ATOM     13  C5  UNL     1     143.438 126.439 103.698  0.00  0.00    +0.013 A 
ATOM     14  C6  UNL     1     143.280 127.568 102.893  0.00  0.00    +0.017 A 
ATOM     15  C7  UNL     1     144.252 128.566 102.983  0.00  0.00    +0.013 A 
ATOM     16  C8  UNL     1     145.346 128.442 103.855  0.00  0.00    +0.024 A 
BRANCH  11  18
ATOM     17  C1  UNL     1     147.324 128.400 105.953  0.00  0.00    +0.129 C 
ATOM     18  N1  UNL     1     146.613 127.188 105.548  0.00  0.00    -0.336 N 
ATOM     19  C2  UNL     1     146.614 126.103 106.526  0.00  0.00    +0.129 C 
ENDBRANCH  11  18
ENDBRANCH   1  14
BRANCH   5  20
ATOM     20  N3  UNL     1     138.370 127.648  97.503  0.00  0.00    -0.358 N 
ATOM     21  H12 UNL     1     137.356 127.580  97.531  0.00  0.00    +0.142 HD
ATOM     22  H13 UNL     1     138.692 128.293  96.788  0.00  0.00    +0.142 HD
ENDBRANCH   5  20
TORSDOF 3
ENDMDL
MODEL 9
REMARK VINA RESULT:    -3.157     15.809     18.612
REMARK INTER + INTRA:          -3.953
REMARK INTER:                  -3.620
REMARK INTRA:                  -0.333
REMARK UNBOUND:                -0.335
REMARK  Name = /home/vital/Documents/PhD_2021/Malaria_codes/data/pdb_ligands_mmv/ligand_112.pdb
REMARK  5 active torsions:
REMARK  status: ('A' for Active; 'I' for Inactive)
REMARK    1  A    between atoms: C1_1  and  N1_2
REMARK    2  A    between atoms: N1_2  and  C2_3
REMARK    3  A    between atoms: N1_2  and  C3_4
REMARK    4  A    between atoms: C6_7  and  C9_10
REMARK    5  A    between atoms: C12_14  and  N3_15
REMARK                            x       y       z     vdW  Elec       q    Type
REMARK                         _______ _______ _______ _____ _____    ______ ____
ROOT
ATOM      1  C9  UNL     1     134.537 124.401  87.587  0.00  0.00    +0.139 A 
ATOM      2  N2  UNL     1     134.250 123.898  86.399  0.00  0.00    -0.228 NA
ATOM      3  C10 UNL     1     133.173 123.067  86.579  0.00  0.00    +0.091 A 
ATOM      4  C11 UNL     1     132.470 122.288  85.648  0.00  0.00    +0.052 A 
ATOM      5  C12 UNL     1     131.411 121.481  86.087  0.00  0.00    +0.027 A 
ATOM      6  C13 UNL     1     131.006 121.547  87.427  0.00  0.00    +0.025 A 
ATOM      7  C14 UNL     1     131.689 122.321  88.375  0.00  0.00    +0.029 A 
ATOM      8  C15 UNL     1     132.774 123.060  87.907  0.00  0.00    +0.067 A 
ATOM      9  N4  UNL     1     133.651 123.914  88.524  0.00  0.00    -0.338 N 
ATOM     10  H16 UNL     1     133.633 124.163  89.500  0.00  0.00    +0.167 HD
ENDROOT
BRANCH   1  14
ATOM     11  C3  UNL     1     137.725 127.248  88.369  0.00  0.00    +0.029 A 
ATOM     12  C4  UNL     1     137.390 126.244  89.293  0.00  0.00    +0.024 A 
ATOM     13  C5  UNL     1     136.365 125.310  89.059  0.00  0.00    +0.013 A 
ATOM     14  C6  UNL     1     135.617 125.350  87.881  0.00  0.00    +0.017 A 
ATOM     15  C7  UNL     1     135.927 126.345  86.953  0.00  0.00    +0.013 A 
ATOM     16  C8  UNL     1     136.950 127.276  87.197  0.00  0.00    +0.024 A 
BRANCH  11  18
ATOM     17  C1  UNL     1     138.372 129.597  88.715  0.00  0.00    +0.129 C 
ATOM     18  N1  UNL     1     138.735 128.184  88.623  0.00  0.00    -0.336 N 
ATOM     19  C2  UNL     1     139.894 127.780  89.417  0.00  0.00    +0.129 C 
ENDBRANCH  11  18
ENDBRANCH   1  14
BRANCH   5  20
ATOM     20  N3  UNL     1     130.628 120.784  85.155  0.00  0.00    -0.358 N 
ATOM     21  H12 UNL     1     130.428 119.826  85.428  0.00  0.00    +0.142 HD
ATOM     22  H13 UNL     1     129.793 121.284  84.865  0.00  0.00    +0.142 HD
ENDBRANCH   5  20
TORSDOF 3
ENDMDL
