MODEL 1
REMARK VINA RESULT:    -5.244      0.000      0.000
REMARK INTER + INTRA:          -7.178
REMARK INTER:                  -6.777
REMARK INTRA:                  -0.401
REMARK UNBOUND:                -0.401
REMARK  Name = /home/vital/Documents/PhD_2021/Malaria_codes/data/pdb_ligands_mmv/ligand_105.pdb
REMARK  6 active torsions:
REMARK  status: ('A' for Active; 'I' for Inactive)
REMARK    1  A    between atoms: C1_1  and  C2_2
REMARK    2  A    between atoms: C2_2  and  O1_3
REMARK    3  A    between atoms: O1_3  and  C3_4
REMARK    4  A    between atoms: N2_13  and  C10_14
REMARK    5  A    between atoms: C10_14  and  C11_15
REMARK    6  A    between atoms: C16_21  and  C17_23
REMARK                            x       y       z     vdW  Elec       q    Type
REMARK                         _______ _______ _______ _____ _____    ______ ____
ROOT
ATOM      1  C3  UNL     1     141.332 126.327 104.413  0.00  0.00    +0.147 A 
ATOM      2  C4  UNL     1     142.205 125.580 105.210  0.00  0.00    +0.048 A 
ATOM      3  C5  UNL     1     143.574 125.821 105.164  0.00  0.00    +0.005 A 
ATOM      4  C6  UNL     1     144.102 126.793 104.305  0.00  0.00    +0.017 A 
ATOM      5  C7  UNL     1     143.215 127.514 103.487  0.00  0.00    +0.044 A 
ATOM      6  S1  UNL     1     143.562 128.729 102.322  0.00  0.00    -0.052 S 
ATOM      7  C8  UNL     1     141.892 128.935 102.006  0.00  0.00    +0.169 A 
ATOM      8  N1  UNL     1     141.104 128.099 102.647  0.00  0.00    -0.221 NA
ATOM      9  C9  UNL     1     141.837 127.304 103.521  0.00  0.00    +0.122 A 
ATOM     10  N2  UNL     1     141.411 129.843 101.048  0.00  0.00    -0.246 N 
ATOM     11  C16 UNL     1     142.235 130.862 100.555  0.00  0.00    +0.225 C 
ATOM     12  O2  UNL     1     143.214 131.313 101.153  0.00  0.00    -0.275 OA
ENDROOT
BRANCH  11  13
ATOM     13  C17 UNL     1     141.889 131.416  99.155  0.00  0.00    +0.076 C 
ATOM     14  C18 UNL     1     142.008 132.955  99.104  0.00  0.00    +0.013 C 
ATOM     15  C19 UNL     1     143.410 133.407  98.718  0.00  0.00    +0.001 C 
ATOM     16  C20 UNL     1     143.798 132.917  97.323  0.00  0.00    +0.000 C 
ATOM     17  C21 UNL     1     143.083 131.634  96.909  0.00  0.00    +0.001 C 
ATOM     18  C22 UNL     1     142.787 130.735  98.104  0.00  0.00    +0.013 C 
ENDBRANCH  11  13
BRANCH   1  19
ATOM     19  O1  UNL     1     139.989 126.016 104.467  0.00  0.00    -0.490 OA
BRANCH  19  21
ATOM     20  C1  UNL     1     138.278 124.568 105.271  0.00  0.00    +0.048 C 
ATOM     21  C2  UNL     1     139.778 124.827 105.229  0.00  0.00    +0.226 C 
ENDBRANCH  19  21
ENDBRANCH   1  19
BRANCH  10  22
ATOM     22  C10 UNL     1     139.961 129.825 100.782  0.00  0.00    +0.152 C 
BRANCH  22  23
ATOM     23  C11 UNL     1     139.589 128.886  99.665  0.00  0.00    -0.012 A 
ATOM     24  C12 UNL     1     138.426 129.055  98.903  0.00  0.00    +0.008 A 
ATOM     25  C13 UNL     1     138.121 128.132  97.906  0.00  0.00    +0.020 A 
ATOM     26  C14 UNL     1     138.986 127.067  97.700  0.00  0.00    +0.111 A 
ATOM     27  N3  UNL     1     140.110 126.868  98.414  0.00  0.00    -0.263 NA
ATOM     28  C15 UNL     1     140.378 127.777  99.380  0.00  0.00    +0.116 A 
ENDBRANCH  22  23
ENDBRANCH  10  22
TORSDOF 5
ENDMDL
MODEL 2
REMARK VINA RESULT:    -4.164      1.575      2.227
REMARK INTER + INTRA:          -5.782
REMARK INTER:                  -5.282
REMARK INTRA:                  -0.500
REMARK UNBOUND:                -0.401
REMARK  Name = /home/vital/Documents/PhD_2021/Malaria_codes/data/pdb_ligands_mmv/ligand_105.pdb
REMARK  6 active torsions:
REMARK  status: ('A' for Active; 'I' for Inactive)
REMARK    1  A    between atoms: C1_1  and  C2_2
REMARK    2  A    between atoms: C2_2  and  O1_3
REMARK    3  A    between atoms: O1_3  and  C3_4
REMARK    4  A    between atoms: N2_13  and  C10_14
REMARK    5  A    between atoms: C10_14  and  C11_15
REMARK    6  A    between atoms: C16_21  and  C17_23
REMARK                            x       y       z     vdW  Elec       q    Type
REMARK                         _______ _______ _______ _____ _____    ______ ____
ROOT
ATOM      1  C3  UNL     1     143.339 127.564 103.928  0.00  0.00    +0.147 A 
ATOM      2  C4  UNL     1     144.231 126.624 104.453  0.00  0.00    +0.048 A 
ATOM      3  C5  UNL     1     145.529 126.539 103.960  0.00  0.00    +0.005 A 
ATOM      4  C6  UNL     1     145.955 127.372 102.918  0.00  0.00    +0.017 A 
ATOM      5  C7  UNL     1     145.038 128.291 102.380  0.00  0.00    +0.044 A 
ATOM      6  S1  UNL     1     145.253 129.407 101.090  0.00  0.00    -0.052 S 
ATOM      7  C8  UNL     1     143.663 130.000 101.308  0.00  0.00    +0.169 A 
ATOM      8  N1  UNL     1     142.958 129.363 102.217  0.00  0.00    -0.221 NA
ATOM      9  C9  UNL     1     143.734 128.408 102.862  0.00  0.00    +0.122 A 
ATOM     10  N2  UNL     1     143.115 131.009 100.496  0.00  0.00    -0.246 N 
ATOM     11  C16 UNL     1     143.943 131.814  99.704  0.00  0.00    +0.225 C 
ATOM     12  O2  UNL     1     145.137 132.016  99.931  0.00  0.00    -0.275 OA
ENDROOT
BRANCH  11  13
ATOM     13  C17 UNL     1     143.297 132.451  98.454  0.00  0.00    +0.076 C 
ATOM     14  C18 UNL     1     143.785 133.900  98.235  0.00  0.00    +0.013 C 
ATOM     15  C19 UNL     1     145.038 133.957  97.372  0.00  0.00    +0.001 C 
ATOM     16  C20 UNL     1     144.789 133.390  95.974  0.00  0.00    +0.000 C 
ATOM     17  C21 UNL     1     143.670 132.353  95.930  0.00  0.00    +0.001 C 
ATOM     18  C22 UNL     1     143.576 131.559  97.228  0.00  0.00    +0.013 C 
ENDBRANCH  11  13
BRANCH   1  19
ATOM     19  O1  UNL     1     142.052 127.574 104.425  0.00  0.00    -0.490 OA
BRANCH  19  21
ATOM     20  C1  UNL     1     140.661 125.705 104.915  0.00  0.00    +0.048 C 
ATOM     21  C2  UNL     1     141.265 126.556 103.806  0.00  0.00    +0.226 C 
ENDBRANCH  19  21
ENDBRANCH   1  19
BRANCH  10  22
ATOM     22  C10 UNL     1     141.693 131.332 100.705  0.00  0.00    +0.152 C 
BRANCH  22  23
ATOM     23  C11 UNL     1     140.771 130.268 100.168  0.00  0.00    -0.012 A 
ATOM     24  C12 UNL     1     139.792 129.659 100.962  0.00  0.00    +0.008 A 
ATOM     25  C13 UNL     1     138.995 128.657 100.416  0.00  0.00    +0.020 A 
ATOM     26  C14 UNL     1     139.200 128.292  99.092  0.00  0.00    +0.111 A 
ATOM     27  N3  UNL     1     140.133 128.852  98.300  0.00  0.00    -0.263 NA
ATOM     28  C15 UNL     1     140.898 129.818  98.859  0.00  0.00    +0.116 A 
ENDBRANCH  22  23
ENDBRANCH  10  22
TORSDOF 5
ENDMDL
MODEL 3
REMARK VINA RESULT:    -4.041      4.180      7.648
REMARK INTER + INTRA:          -5.624
REMARK INTER:                  -4.869
REMARK INTRA:                  -0.755
REMARK UNBOUND:                -0.401
REMARK  Name = /home/vital/Documents/PhD_2021/Malaria_codes/data/pdb_ligands_mmv/ligand_105.pdb
REMARK  6 active torsions:
REMARK  status: ('A' for Active; 'I' for Inactive)
REMARK    1  A    between atoms: C1_1  and  C2_2
REMARK    2  A    between atoms: C2_2  and  O1_3
REMARK    3  A    between atoms: O1_3  and  C3_4
REMARK    4  A    between atoms: N2_13  and  C10_14
REMARK    5  A    between atoms: C10_14  and  C11_15
REMARK    6  A    between atoms: C16_21  and  C17_23
REMARK                            x       y       z     vdW  Elec       q    Type
REMARK                         _______ _______ _______ _____ _____    ______ ____
ROOT
ATOM      1  C3  UNL     1     141.498 130.560  99.625  0.00  0.00    +0.147 A 
ATOM      2  C4  UNL     1     140.624 130.737 100.703  0.00  0.00    +0.048 A 
ATOM      3  C5  UNL     1     139.517 129.906 100.849  0.00  0.00    +0.005 A 
ATOM      4  C6  UNL     1     139.248 128.901  99.911  0.00  0.00    +0.017 A 
ATOM      5  C7  UNL     1     140.119 128.756  98.818  0.00  0.00    +0.044 A 
ATOM      6  S1  UNL     1     140.033 127.652  97.503  0.00  0.00    -0.052 S 
ATOM      7  C8  UNL     1     141.497 128.264  96.863  0.00  0.00    +0.169 A 
ATOM      8  N1  UNL     1     141.995 129.291  97.516  0.00  0.00    -0.221 NA
ATOM      9  C9  UNL     1     141.243 129.565  98.652  0.00  0.00    +0.122 A 
ATOM     10  N2  UNL     1     142.057 127.784  95.666  0.00  0.00    -0.246 N 
ATOM     11  C16 UNL     1     141.640 126.563  95.124  0.00  0.00    +0.225 C 
ATOM     12  O2  UNL     1     141.124 125.653  95.777  0.00  0.00    -0.275 OA
ENDROOT
BRANCH  11  13
ATOM     13  C17 UNL     1     141.823 126.383  93.601  0.00  0.00    +0.076 C 
ATOM     14  C18 UNL     1     142.196 124.930  93.237  0.00  0.00    +0.013 C 
ATOM     15  C19 UNL     1     140.965 124.068  92.990  0.00  0.00    +0.001 C 
ATOM     16  C20 UNL     1     140.138 124.588  91.815  0.00  0.00    +0.000 C 
ATOM     17  C21 UNL     1     140.291 126.088  91.580  0.00  0.00    +0.001 C 
ATOM     18  C22 UNL     1     140.542 126.846  92.878  0.00  0.00    +0.013 C 
ENDBRANCH  11  13
BRANCH   1  19
ATOM     19  O1  UNL     1     142.554 131.441  99.507  0.00  0.00    -0.490 OA
BRANCH  19  21
ATOM     20  C1  UNL     1     143.037 133.405  98.251  0.00  0.00    +0.048 C 
ATOM     21  C2  UNL     1     142.081 132.762  99.247  0.00  0.00    +0.226 C 
ENDBRANCH  19  21
ENDBRANCH   1  19
BRANCH  10  22
ATOM     22  C10 UNL     1     143.248 128.489  95.159  0.00  0.00    +0.152 C 
BRANCH  22  23
ATOM     23  C11 UNL     1     142.917 129.834  94.567  0.00  0.00    -0.012 A 
ATOM     24  C12 UNL     1     142.185 129.968  93.381  0.00  0.00    +0.008 A 
ATOM     25  C13 UNL     1     141.942 131.239  92.866  0.00  0.00    +0.020 A 
ATOM     26  C14 UNL     1     142.438 132.339  93.552  0.00  0.00    +0.111 A 
ATOM     27  N3  UNL     1     143.148 132.250  94.693  0.00  0.00    -0.263 NA
ATOM     28  C15 UNL     1     143.375 131.002  95.165  0.00  0.00    +0.116 A 
ENDBRANCH  22  23
ENDBRANCH  10  22
TORSDOF 5
ENDMDL
MODEL 4
REMARK VINA RESULT:    -3.923      4.339      7.544
REMARK INTER + INTRA:          -5.470
REMARK INTER:                  -4.633
REMARK INTRA:                  -0.838
REMARK UNBOUND:                -0.401
REMARK  Name = /home/vital/Documents/PhD_2021/Malaria_codes/data/pdb_ligands_mmv/ligand_105.pdb
REMARK  6 active torsions:
REMARK  status: ('A' for Active; 'I' for Inactive)
REMARK    1  A    between atoms: C1_1  and  C2_2
REMARK    2  A    between atoms: C2_2  and  O1_3
REMARK    3  A    between atoms: O1_3  and  C3_4
REMARK    4  A    between atoms: N2_13  and  C10_14
REMARK    5  A    between atoms: C10_14  and  C11_15
REMARK    6  A    between atoms: C16_21  and  C17_23
REMARK                            x       y       z     vdW  Elec       q    Type
REMARK                         _______ _______ _______ _____ _____    ______ ____
ROOT
ATOM      1  C3  UNL     1     141.024 130.291  99.934  0.00  0.00    +0.147 A 
ATOM      2  C4  UNL     1     140.101 130.385 100.981  0.00  0.00    +0.048 A 
ATOM      3  C5  UNL     1     139.022 129.509 101.044  0.00  0.00    +0.005 A 
ATOM      4  C6  UNL     1     138.829 128.539 100.052  0.00  0.00    +0.017 A 
ATOM      5  C7  UNL     1     139.748 128.477  98.990  0.00  0.00    +0.044 A 
ATOM      6  S1  UNL     1     139.756 127.433  97.625  0.00  0.00    -0.052 S 
ATOM      7  C8  UNL     1     141.220 128.127  97.074  0.00  0.00    +0.169 A 
ATOM      8  N1  UNL     1     141.652 129.140  97.792  0.00  0.00    -0.221 NA
ATOM      9  C9  UNL     1     140.845 129.333  98.907  0.00  0.00    +0.122 A 
ATOM     10  N2  UNL     1     141.845 127.724  95.881  0.00  0.00    -0.246 N 
ATOM     11  C16 UNL     1     141.497 126.514  95.268  0.00  0.00    +0.225 C 
ATOM     12  O2  UNL     1     140.991 125.558  95.857  0.00  0.00    -0.275 OA
ENDROOT
BRANCH  11  13
ATOM     13  C17 UNL     1     141.747 126.413  93.747  0.00  0.00    +0.076 C 
ATOM     14  C18 UNL     1     142.062 124.964  93.315  0.00  0.00    +0.013 C 
ATOM     15  C19 UNL     1     140.802 124.187  92.959  0.00  0.00    +0.001 C 
ATOM     16  C20 UNL     1     140.063 124.817  91.779  0.00  0.00    +0.000 C 
ATOM     17  C21 UNL     1     140.306 126.318  91.642  0.00  0.00    +0.001 C 
ATOM     18  C22 UNL     1     140.530 126.986  92.993  0.00  0.00    +0.013 C 
ENDBRANCH  11  13
BRANCH   1  19
ATOM     19  O1  UNL     1     142.049 131.214  99.899  0.00  0.00    -0.490 OA
BRANCH  19  21
ATOM     20  C1  UNL     1     142.587 133.056  98.490  0.00  0.00    +0.048 C 
ATOM     21  C2  UNL     1     141.567 132.486  99.467  0.00  0.00    +0.226 C 
ENDBRANCH  19  21
ENDBRANCH   1  19
BRANCH  10  22
ATOM     22  C10 UNL     1     143.027 128.494  95.456  0.00  0.00    +0.152 C 
BRANCH  22  23
ATOM     23  C11 UNL     1     144.321 127.785  95.762  0.00  0.00    -0.012 A 
ATOM     24  C12 UNL     1     145.175 127.322  94.753  0.00  0.00    +0.008 A 
ATOM     25  C13 UNL     1     146.339 126.643  95.101  0.00  0.00    +0.020 A 
ATOM     26  C14 UNL     1     146.617 126.447  96.447  0.00  0.00    +0.111 A 
ATOM     27  N3  UNL     1     145.819 126.874  97.444  0.00  0.00    -0.263 NA
ATOM     28  C15 UNL     1     144.691 127.524  97.076  0.00  0.00    +0.116 A 
ENDBRANCH  22  23
ENDBRANCH  10  22
TORSDOF 5
ENDMDL
MODEL 5
REMARK VINA RESULT:    -3.902      5.088      9.516
REMARK INTER + INTRA:          -5.444
REMARK INTER:                  -4.728
REMARK INTRA:                  -0.716
REMARK UNBOUND:                -0.401
REMARK  Name = /home/vital/Documents/PhD_2021/Malaria_codes/data/pdb_ligands_mmv/ligand_105.pdb
REMARK  6 active torsions:
REMARK  status: ('A' for Active; 'I' for Inactive)
REMARK    1  A    between atoms: C1_1  and  C2_2
REMARK    2  A    between atoms: C2_2  and  O1_3
REMARK    3  A    between atoms: O1_3  and  C3_4
REMARK    4  A    between atoms: N2_13  and  C10_14
REMARK    5  A    between atoms: C10_14  and  C11_15
REMARK    6  A    between atoms: C16_21  and  C17_23
REMARK                            x       y       z     vdW  Elec       q    Type
REMARK                         _______ _______ _______ _____ _____    ______ ____
ROOT
ATOM      1  C3  UNL     1     140.751 129.442  92.502  0.00  0.00    +0.147 A 
ATOM      2  C4  UNL     1     140.538 129.378  91.121  0.00  0.00    +0.048 A 
ATOM      3  C5  UNL     1     140.475 128.146  90.479  0.00  0.00    +0.005 A 
ATOM      4  C6  UNL     1     140.648 126.955  91.196  0.00  0.00    +0.017 A 
ATOM      5  C7  UNL     1     140.891 127.037  92.578  0.00  0.00    +0.044 A 
ATOM      6  S1  UNL     1     141.173 125.769  93.704  0.00  0.00    -0.052 S 
ATOM      7  C8  UNL     1     141.274 126.899  94.985  0.00  0.00    +0.169 A 
ATOM      8  N1  UNL     1     141.199 128.159  94.614  0.00  0.00    -0.221 NA
ATOM      9  C9  UNL     1     140.946 128.257  93.251  0.00  0.00    +0.122 A 
ATOM     10  N2  UNL     1     141.538 126.516  96.312  0.00  0.00    -0.246 N 
ATOM     11  C16 UNL     1     141.389 125.183  96.711  0.00  0.00    +0.225 C 
ATOM     12  O2  UNL     1     140.666 124.364  96.140  0.00  0.00    -0.275 OA
ENDROOT
BRANCH  11  13
ATOM     13  C17 UNL     1     142.221 124.729  97.931  0.00  0.00    +0.076 C 
ATOM     14  C18 UNL     1     141.321 124.351  99.127  0.00  0.00    +0.013 C 
ATOM     15  C19 UNL     1     140.924 122.881  99.102  0.00  0.00    +0.001 C 
ATOM     16  C20 UNL     1     142.143 121.963  99.196  0.00  0.00    +0.000 C 
ATOM     17  C21 UNL     1     143.422 122.595  98.655  0.00  0.00    +0.001 C 
ATOM     18  C22 UNL     1     143.141 123.564  97.512  0.00  0.00    +0.013 C 
ENDBRANCH  11  13
BRANCH   1  19
ATOM     19  O1  UNL     1     140.847 130.692  93.078  0.00  0.00    -0.490 OA
BRANCH  19  21
ATOM     20  C1  UNL     1     142.119 132.678  92.751  0.00  0.00    +0.048 C 
ATOM     21  C2  UNL     1     141.179 131.674  92.097  0.00  0.00    +0.226 C 
ENDBRANCH  19  21
ENDBRANCH   1  19
BRANCH  10  22
ATOM     22  C10 UNL     1     141.730 127.600  97.292  0.00  0.00    +0.152 C 
BRANCH  22  23
ATOM     23  C11 UNL     1     140.491 127.873  98.104  0.00  0.00    -0.012 A 
ATOM     24  C12 UNL     1     139.210 127.861  97.539  0.00  0.00    +0.008 A 
ATOM     25  C13 UNL     1     138.108 128.156  98.337  0.00  0.00    +0.020 A 
ATOM     26  C14 UNL     1     138.318 128.454  99.676  0.00  0.00    +0.111 A 
ATOM     27  N3  UNL     1     139.534 128.478 100.254  0.00  0.00    -0.263 NA
ATOM     28  C15 UNL     1     140.587 128.195  99.453  0.00  0.00    +0.116 A 
ENDBRANCH  22  23
ENDBRANCH  10  22
TORSDOF 5
ENDMDL
MODEL 6
REMARK VINA RESULT:    -3.800      2.498      7.925
REMARK INTER + INTRA:          -5.312
REMARK INTER:                  -4.246
REMARK INTRA:                  -1.067
REMARK UNBOUND:                -0.401
REMARK  Name = /home/vital/Documents/PhD_2021/Malaria_codes/data/pdb_ligands_mmv/ligand_105.pdb
REMARK  6 active torsions:
REMARK  status: ('A' for Active; 'I' for Inactive)
REMARK    1  A    between atoms: C1_1  and  C2_2
REMARK    2  A    between atoms: C2_2  and  O1_3
REMARK    3  A    between atoms: O1_3  and  C3_4
REMARK    4  A    between atoms: N2_13  and  C10_14
REMARK    5  A    between atoms: C10_14  and  C11_15
REMARK    6  A    between atoms: C16_21  and  C17_23
REMARK                            x       y       z     vdW  Elec       q    Type
REMARK                         _______ _______ _______ _____ _____    ______ ____
ROOT
ATOM      1  C3  UNL     1     143.303 131.269 100.947  0.00  0.00    +0.147 A 
ATOM      2  C4  UNL     1     142.713 132.111  99.999  0.00  0.00    +0.048 A 
ATOM      3  C5  UNL     1     141.463 131.804  99.473  0.00  0.00    +0.005 A 
ATOM      4  C6  UNL     1     140.788 130.640  99.862  0.00  0.00    +0.017 A 
ATOM      5  C7  UNL     1     141.407 129.789 100.793  0.00  0.00    +0.044 A 
ATOM      6  S1  UNL     1     140.850 128.292 101.429  0.00  0.00    -0.052 S 
ATOM      7  C8  UNL     1     142.237 128.173 102.425  0.00  0.00    +0.169 A 
ATOM      8  N1  UNL     1     143.124 129.128 102.249  0.00  0.00    -0.221 NA
ATOM      9  C9  UNL     1     142.654 130.076 101.348  0.00  0.00    +0.122 A 
ATOM     10  N2  UNL     1     142.465 127.077 103.275  0.00  0.00    -0.246 N 
ATOM     11  C16 UNL     1     141.421 126.206 103.610  0.00  0.00    +0.225 C 
ATOM     12  O2  UNL     1     140.226 126.507 103.572  0.00  0.00    -0.275 OA
ENDROOT
BRANCH  11  13
ATOM     13  C17 UNL     1     141.821 124.771 104.019  0.00  0.00    +0.076 C 
ATOM     14  C18 UNL     1     141.140 124.342 105.336  0.00  0.00    +0.013 C 
ATOM     15  C19 UNL     1     139.789 123.682 105.093  0.00  0.00    +0.001 C 
ATOM     16  C20 UNL     1     139.924 122.405 104.263  0.00  0.00    +0.000 C 
ATOM     17  C21 UNL     1     141.145 122.403 103.346  0.00  0.00    +0.001 C 
ATOM     18  C22 UNL     1     141.498 123.805 102.862  0.00  0.00    +0.013 C 
ENDBRANCH  11  13
BRANCH   1  19
ATOM     19  O1  UNL     1     144.563 131.600 101.403  0.00  0.00    -0.490 OA
BRANCH  19  21
ATOM     20  C1  UNL     1     146.313 130.251 100.516  0.00  0.00    +0.048 C 
ATOM     21  C2  UNL     1     145.515 131.536 100.341  0.00  0.00    +0.226 C 
ENDBRANCH  19  21
ENDBRANCH   1  19
BRANCH  10  22
ATOM     22  C10 UNL     1     143.760 127.037 103.977  0.00  0.00    +0.152 C 
BRANCH  22  23
ATOM     23  C11 UNL     1     144.907 126.711 103.057  0.00  0.00    -0.012 A 
ATOM     24  C12 UNL     1     144.848 125.661 102.133  0.00  0.00    +0.008 A 
ATOM     25  C13 UNL     1     145.956 125.389 101.335  0.00  0.00    +0.020 A 
ATOM     26  C14 UNL     1     147.091 126.173 101.485  0.00  0.00    +0.111 A 
ATOM     27  N3  UNL     1     147.187 127.187 102.365  0.00  0.00    -0.263 NA
ATOM     28  C15 UNL     1     146.098 127.425 103.131  0.00  0.00    +0.116 A 
ENDBRANCH  22  23
ENDBRANCH  10  22
TORSDOF 5
ENDMDL
MODEL 7
REMARK VINA RESULT:    -3.691      8.999     13.296
REMARK INTER + INTRA:          -5.170
REMARK INTER:                  -4.581
REMARK INTRA:                  -0.590
REMARK UNBOUND:                -0.401
REMARK  Name = /home/vital/Documents/PhD_2021/Malaria_codes/data/pdb_ligands_mmv/ligand_105.pdb
REMARK  6 active torsions:
REMARK  status: ('A' for Active; 'I' for Inactive)
REMARK    1  A    between atoms: C1_1  and  C2_2
REMARK    2  A    between atoms: C2_2  and  O1_3
REMARK    3  A    between atoms: O1_3  and  C3_4
REMARK    4  A    between atoms: N2_13  and  C10_14
REMARK    5  A    between atoms: C10_14  and  C11_15
REMARK    6  A    between atoms: C16_21  and  C17_23
REMARK                            x       y       z     vdW  Elec       q    Type
REMARK                         _______ _______ _______ _____ _____    ______ ____
ROOT
ATOM      1  C3  UNL     1     141.351 135.314  88.491  0.00  0.00    +0.147 A 
ATOM      2  C4  UNL     1     141.409 135.580  87.119  0.00  0.00    +0.048 A 
ATOM      3  C5  UNL     1     141.412 134.533  86.203  0.00  0.00    +0.005 A 
ATOM      4  C6  UNL     1     141.382 133.201  86.637  0.00  0.00    +0.017 A 
ATOM      5  C7  UNL     1     141.354 132.950  88.019  0.00  0.00    +0.044 A 
ATOM      6  S1  UNL     1     141.349 131.442  88.846  0.00  0.00    -0.052 S 
ATOM      7  C8  UNL     1     141.253 132.244  90.354  0.00  0.00    +0.169 A 
ATOM      8  N1  UNL     1     141.314 133.556  90.285  0.00  0.00    -0.221 NA
ATOM      9  C9  UNL     1     141.338 133.978  88.961  0.00  0.00    +0.122 A 
ATOM     10  N2  UNL     1     141.234 131.552  91.578  0.00  0.00    -0.246 N 
ATOM     11  C16 UNL     1     140.944 130.183  91.617  0.00  0.00    +0.225 C 
ATOM     12  O2  UNL     1     140.307 129.583  90.749  0.00  0.00    -0.275 OA
ENDROOT
BRANCH  11  13
ATOM     13  C17 UNL     1     141.498 129.393  92.823  0.00  0.00    +0.076 C 
ATOM     14  C18 UNL     1     140.493 128.332  93.322  0.00  0.00    +0.013 C 
ATOM     15  C19 UNL     1     140.675 126.995  92.616  0.00  0.00    +0.001 C 
ATOM     16  C20 UNL     1     142.061 126.403  92.873  0.00  0.00    +0.000 C 
ATOM     17  C21 UNL     1     143.125 127.456  93.170  0.00  0.00    +0.001 C 
ATOM     18  C22 UNL     1     142.853 128.765  92.439  0.00  0.00    +0.013 C 
ENDBRANCH  11  13
BRANCH   1  19
ATOM     19  O1  UNL     1     141.395 136.389  89.354  0.00  0.00    -0.490 OA
BRANCH  19  21
ATOM     20  C1  UNL     1     142.562 138.458  89.513  0.00  0.00    +0.048 C 
ATOM     21  C2  UNL     1     142.709 136.947  89.397  0.00  0.00    +0.226 C 
ENDBRANCH  19  21
ENDBRANCH   1  19
BRANCH  10  22
ATOM     22  C10 UNL     1     141.285 132.367  92.805  0.00  0.00    +0.152 C 
BRANCH  22  23
ATOM     23  C11 UNL     1     142.686 132.533  93.333  0.00  0.00    -0.012 A 
ATOM     24  C12 UNL     1     143.050 132.130  94.624  0.00  0.00    +0.008 A 
ATOM     25  C13 UNL     1     144.353 132.343  95.064  0.00  0.00    +0.020 A 
ATOM     26  C14 UNL     1     145.255 132.952  94.202  0.00  0.00    +0.111 A 
ATOM     27  N3  UNL     1     144.942 133.355  92.957  0.00  0.00    -0.263 NA
ATOM     28  C15 UNL     1     143.666 133.142  92.558  0.00  0.00    +0.116 A 
ENDBRANCH  22  23
ENDBRANCH  10  22
TORSDOF 5
ENDMDL
MODEL 8
REMARK VINA RESULT:    -3.290      3.791      7.970
REMARK INTER + INTRA:          -4.652
REMARK INTER:                  -3.617
REMARK INTRA:                  -1.035
REMARK UNBOUND:                -0.401
REMARK  Name = /home/vital/Documents/PhD_2021/Malaria_codes/data/pdb_ligands_mmv/ligand_105.pdb
REMARK  6 active torsions:
REMARK  status: ('A' for Active; 'I' for Inactive)
REMARK    1  A    between atoms: C1_1  and  C2_2
REMARK    2  A    between atoms: C2_2  and  O1_3
REMARK    3  A    between atoms: O1_3  and  C3_4
REMARK    4  A    between atoms: N2_13  and  C10_14
REMARK    5  A    between atoms: C10_14  and  C11_15
REMARK    6  A    between atoms: C16_21  and  C17_23
REMARK                            x       y       z     vdW  Elec       q    Type
REMARK                         _______ _______ _______ _____ _____    ______ ____
ROOT
ATOM      1  C3  UNL     1     143.789 131.822  96.758  0.00  0.00    +0.147 A 
ATOM      2  C4  UNL     1     144.077 132.609  95.639  0.00  0.00    +0.048 A 
ATOM      3  C5  UNL     1     143.908 132.093  94.358  0.00  0.00    +0.005 A 
ATOM      4  C6  UNL     1     143.472 130.775  94.169  0.00  0.00    +0.017 A 
ATOM      5  C7  UNL     1     143.215 129.987  95.304  0.00  0.00    +0.044 A 
ATOM      6  S1  UNL     1     142.710 128.346  95.392  0.00  0.00    -0.052 S 
ATOM      7  C8  UNL     1     142.655 128.431  97.100  0.00  0.00    +0.169 A 
ATOM      8  N1  UNL     1     143.073 129.570  97.608  0.00  0.00    -0.221 NA
ATOM      9  C9  UNL     1     143.364 130.481  96.600  0.00  0.00    +0.122 A 
ATOM     10  N2  UNL     1     142.308 127.328  97.900  0.00  0.00    -0.246 N 
ATOM     11  C16 UNL     1     141.660 126.220  97.342  0.00  0.00    +0.225 C 
ATOM     12  O2  UNL     1     140.992 126.254  96.307  0.00  0.00    -0.275 OA
ENDROOT
BRANCH  11  13
ATOM     13  C17 UNL     1     141.836 124.873  98.077  0.00  0.00    +0.076 C 
ATOM     14  C18 UNL     1     140.477 124.253  98.469  0.00  0.00    +0.013 C 
ATOM     15  C19 UNL     1     139.921 123.354  97.373  0.00  0.00    +0.001 C 
ATOM     16  C20 UNL     1     140.846 122.172  97.087  0.00  0.00    +0.000 C 
ATOM     17  C21 UNL     1     142.311 122.454  97.410  0.00  0.00    +0.001 C 
ATOM     18  C22 UNL     1     142.670 123.920  97.197  0.00  0.00    +0.013 C 
ENDBRANCH  11  13
BRANCH   1  19
ATOM     19  O1  UNL     1     144.017 132.371  98.003  0.00  0.00    -0.490 OA
BRANCH  19  21
ATOM     20  C1  UNL     1     142.032 133.017  99.149  0.00  0.00    +0.048 C 
ATOM     21  C2  UNL     1     143.152 133.484  98.229  0.00  0.00    +0.226 C 
ENDBRANCH  19  21
ENDBRANCH   1  19
BRANCH  10  22
ATOM     22  C10 UNL     1     142.430 127.499  99.359  0.00  0.00    +0.152 C 
BRANCH  22  23
ATOM     23  C11 UNL     1     141.276 128.266  99.950  0.00  0.00    -0.012 A 
ATOM     24  C12 UNL     1     139.945 127.872  99.766  0.00  0.00    +0.008 A 
ATOM     25  C13 UNL     1     138.922 128.644 100.310  0.00  0.00    +0.020 A 
ATOM     26  C14 UNL     1     139.258 129.786 101.023  0.00  0.00    +0.111 A 
ATOM     27  N3  UNL     1     140.525 130.198 101.219  0.00  0.00    -0.263 NA
ATOM     28  C15 UNL     1     141.498 129.433 100.672  0.00  0.00    +0.116 A 
ENDBRANCH  22  23
ENDBRANCH  10  22
TORSDOF 5
ENDMDL
MODEL 9
REMARK VINA RESULT:    -3.272      5.530      9.616
REMARK INTER + INTRA:          -4.630
REMARK INTER:                  -3.715
REMARK INTRA:                  -0.915
REMARK UNBOUND:                -0.401
REMARK  Name = /home/vital/Documents/PhD_2021/Malaria_codes/data/pdb_ligands_mmv/ligand_105.pdb
REMARK  6 active torsions:
REMARK  status: ('A' for Active; 'I' for Inactive)
REMARK    1  A    between atoms: C1_1  and  C2_2
REMARK    2  A    between atoms: C2_2  and  O1_3
REMARK    3  A    between atoms: O1_3  and  C3_4
REMARK    4  A    between atoms: N2_13  and  C10_14
REMARK    5  A    between atoms: C10_14  and  C11_15
REMARK    6  A    between atoms: C16_21  and  C17_23
REMARK                            x       y       z     vdW  Elec       q    Type
REMARK                         _______ _______ _______ _____ _____    ______ ____
ROOT
ATOM      1  C3  UNL     1     146.233 134.747  95.200  0.00  0.00    +0.147 A 
ATOM      2  C4  UNL     1     146.575 135.718  94.253  0.00  0.00    +0.048 A 
ATOM      3  C5  UNL     1     146.148 135.591  92.935  0.00  0.00    +0.005 A 
ATOM      4  C6  UNL     1     145.394 134.482  92.530  0.00  0.00    +0.017 A 
ATOM      5  C7  UNL     1     145.085 133.499  93.487  0.00  0.00    +0.044 A 
ATOM      6  S1  UNL     1     144.218 132.028  93.287  0.00  0.00    -0.052 S 
ATOM      7  C8  UNL     1     144.373 131.684  94.956  0.00  0.00    +0.169 A 
ATOM      8  N1  UNL     1     145.101 132.547  95.630  0.00  0.00    -0.221 NA
ATOM      9  C9  UNL     1     145.488 133.606  94.818  0.00  0.00    +0.122 A 
ATOM     10  N2  UNL     1     143.864 130.508  95.535  0.00  0.00    -0.246 N 
ATOM     11  C16 UNL     1     142.914 129.734  94.857  0.00  0.00    +0.225 C 
ATOM     12  O2  UNL     1     142.165 130.166  93.980  0.00  0.00    -0.275 OA
ENDROOT
BRANCH  11  13
ATOM     13  C17 UNL     1     142.847 128.237  95.233  0.00  0.00    +0.076 C 
ATOM     14  C18 UNL     1     141.391 127.764  95.435  0.00  0.00    +0.013 C 
ATOM     15  C19 UNL     1     140.768 127.262  94.139  0.00  0.00    +0.001 C 
ATOM     16  C20 UNL     1     141.520 126.055  93.580  0.00  0.00    +0.000 C 
ATOM     17  C21 UNL     1     142.990 126.013  93.988  0.00  0.00    +0.001 C 
ATOM     18  C22 UNL     1     143.576 127.410  94.156  0.00  0.00    +0.013 C 
ENDBRANCH  11  13
BRANCH   1  19
ATOM     19  O1  UNL     1     146.720 134.902  96.481  0.00  0.00    -0.490 OA
BRANCH  19  21
ATOM     20  C1  UNL     1     145.160 135.540  98.163  0.00  0.00    +0.048 C 
ATOM     21  C2  UNL     1     146.135 136.044  97.107  0.00  0.00    +0.226 C 
ENDBRANCH  19  21
ENDBRANCH   1  19
BRANCH  10  22
ATOM     22  C10 UNL     1     144.183 130.273  96.954  0.00  0.00    +0.152 C 
BRANCH  22  23
ATOM     23  C11 UNL     1     143.141 130.841  97.883  0.00  0.00    -0.012 A 
ATOM     24  C12 UNL     1     143.083 132.204  98.197  0.00  0.00    +0.008 A 
ATOM     25  C13 UNL     1     142.118 132.660  99.090  0.00  0.00    +0.020 A 
ATOM     26  C14 UNL     1     141.238 131.740  99.644  0.00  0.00    +0.111 A 
ATOM     27  N3  UNL     1     141.265 130.422  99.369  0.00  0.00    -0.263 NA
ATOM     28  C15 UNL     1     142.218 130.007  98.504  0.00  0.00    +0.116 A 
ENDBRANCH  22  23
ENDBRANCH  10  22
TORSDOF 5
ENDMDL
