MODEL 1
REMARK VINA RESULT:    -4.365      0.000      0.000
REMARK INTER + INTRA:          -5.836
REMARK INTER:                  -5.386
REMARK INTRA:                  -0.449
REMARK UNBOUND:                -0.449
REMARK  Name = /home/vital/Documents/PhD_2021/Malaria_codes/data/pdb_ligands_mmv/ligand_191.pdb
REMARK  7 active torsions:
REMARK  status: ('A' for Active; 'I' for Inactive)
REMARK    1  A    between atoms: N2_4  and  C3_5
REMARK    2  A    between atoms: C6_11  and  C9_16
REMARK    3  A    between atoms: N5_13  and  C7_14
REMARK    4  A    between atoms: C7_14  and  C8_15
REMARK    5  A    between atoms: C12_19  and  C13_20
REMARK    6  A    between atoms: C13_20  and  O4_22
REMARK    7  A    between atoms: O4_22  and  C14_23
REMARK                            x       y       z     vdW  Elec       q    Type
REMARK                         _______ _______ _______ _____ _____    ______ ____
ROOT
ATOM      1  C1  UNL     1     143.505 132.970  92.777  0.00  0.00    +0.186 A 
ATOM      2  N1  UNL     1     143.558 133.168  91.503  0.00  0.00    -0.172 NA
ATOM      3  C2  UNL     1     142.595 132.711  90.645  0.00  0.00    +0.353 A 
ATOM      4  N2  UNL     1     141.429 132.141  91.143  0.00  0.00    -0.261 N 
ATOM      5  C3  UNL     1     140.426 131.716  90.186  0.00  0.00    +0.157 C 
ATOM      6  C4  UNL     1     141.261 131.765  92.459  0.00  0.00    +0.284 A 
ATOM      7  O1  UNL     1     140.334 131.102  92.904  0.00  0.00    -0.265 OA
ATOM      8  O2  UNL     1     142.771 132.804  89.433  0.00  0.00    -0.244 OA
ATOM      9  C5  UNL     1     142.361 132.221  93.367  0.00  0.00    +0.174 A 
ATOM     10  N3  UNL     1     142.305 131.968  94.639  0.00  0.00    -0.217 NA
ATOM     11  C6  UNL     1     143.329 132.404  95.445  0.00  0.00    +0.181 A 
ATOM     12  N4  UNL     1     144.360 133.084  95.031  0.00  0.00    -0.149 NA
ATOM     13  N5  UNL     1     144.439 133.395  93.699  0.00  0.00    -0.243 N 
ENDROOT
BRANCH  11  14
ATOM     14  C9  UNL     1     143.210 132.048  96.896  0.00  0.00    +0.021 A 
ATOM     15  C10 UNL     1     143.146 133.064  97.861  0.00  0.00    +0.012 A 
ATOM     16  C11 UNL     1     143.034 132.745  99.220  0.00  0.00    +0.015 A 
ATOM     17  C12 UNL     1     142.988 131.406  99.630  0.00  0.00    +0.059 A 
ATOM     18  C15 UNL     1     143.053 130.392  98.665  0.00  0.00    +0.015 A 
ATOM     19  C16 UNL     1     143.163 130.710  97.308  0.00  0.00    +0.012 A 
BRANCH  17  20
ATOM     20  C13 UNL     1     142.871 131.010 101.061  0.00  0.00    +0.339 C 
ATOM     21  O3  UNL     1     143.222 131.723 101.988  0.00  0.00    -0.245 OA
BRANCH  20  22
ATOM     22  O4  UNL     1     142.332 129.771 101.173  0.00  0.00    -0.464 OA
ATOM     23  C14 UNL     1     142.948 128.959 102.173  0.00  0.00    +0.280 C 
ENDBRANCH  20  22
ENDBRANCH  17  20
ENDBRANCH  11  14
BRANCH  13  24
ATOM     24  C7  UNL     1     145.662 134.084  93.291  0.00  0.00    +0.142 C 
ATOM     25  C8  UNL     1     146.133 135.026  94.387  0.00  0.00    +0.029 C 
ENDBRANCH  13  24
TORSDOF 4
ENDMDL
MODEL 2
REMARK VINA RESULT:    -4.305      2.239      7.878
REMARK INTER + INTRA:          -5.761
REMARK INTER:                  -5.238
REMARK INTRA:                  -0.523
REMARK UNBOUND:                -0.449
REMARK  Name = /home/vital/Documents/PhD_2021/Malaria_codes/data/pdb_ligands_mmv/ligand_191.pdb
REMARK  7 active torsions:
REMARK  status: ('A' for Active; 'I' for Inactive)
REMARK    1  A    between atoms: N2_4  and  C3_5
REMARK    2  A    between atoms: C6_11  and  C9_16
REMARK    3  A    between atoms: N5_13  and  C7_14
REMARK    4  A    between atoms: C7_14  and  C8_15
REMARK    5  A    between atoms: C12_19  and  C13_20
REMARK    6  A    between atoms: C13_20  and  O4_22
REMARK    7  A    between atoms: O4_22  and  C14_23
REMARK                            x       y       z     vdW  Elec       q    Type
REMARK                         _______ _______ _______ _____ _____    ______ ____
ROOT
ATOM      1  C1  UNL     1     143.910 132.356  98.585  0.00  0.00    +0.186 A 
ATOM      2  N1  UNL     1     144.029 132.262  99.867  0.00  0.00    -0.172 NA
ATOM      3  C2  UNL     1     143.170 131.523 100.634  0.00  0.00    +0.353 A 
ATOM      4  N2  UNL     1     142.216 130.712 100.032  0.00  0.00    -0.261 N 
ATOM      5  C3  UNL     1     141.364 129.918 100.896  0.00  0.00    +0.157 C 
ATOM      6  C4  UNL     1     141.892 130.774  98.692  0.00  0.00    +0.284 A 
ATOM      7  O1  UNL     1     140.945 130.215  98.156  0.00  0.00    -0.265 OA
ATOM      8  O2  UNL     1     143.245 131.587 101.859  0.00  0.00    -0.244 OA
ATOM      9  C5  UNL     1     142.808 131.641  97.885  0.00  0.00    +0.174 A 
ATOM     10  N3  UNL     1     142.638 131.753  96.603  0.00  0.00    -0.217 NA
ATOM     11  C6  UNL     1     143.498 132.555  95.890  0.00  0.00    +0.181 A 
ATOM     12  N4  UNL     1     144.504 133.202  96.405  0.00  0.00    -0.149 NA
ATOM     13  N5  UNL     1     144.733 133.084  97.751  0.00  0.00    -0.243 N 
ENDROOT
BRANCH  11  14
ATOM     14  C9  UNL     1     143.222 132.661  94.422  0.00  0.00    +0.021 A 
ATOM     15  C10 UNL     1     144.258 132.997  93.538  0.00  0.00    +0.012 A 
ATOM     16  C11 UNL     1     144.012 133.099  92.163  0.00  0.00    +0.015 A 
ATOM     17  C12 UNL     1     142.727 132.867  91.656  0.00  0.00    +0.059 A 
ATOM     18  C15 UNL     1     141.692 132.532  92.540  0.00  0.00    +0.015 A 
ATOM     19  C16 UNL     1     141.937 132.429  93.913  0.00  0.00    +0.012 A 
BRANCH  17  20
ATOM     20  C13 UNL     1     142.409 132.963  90.204  0.00  0.00    +0.339 C 
ATOM     21  O3  UNL     1     142.969 132.298  89.347  0.00  0.00    -0.245 OA
BRANCH  20  22
ATOM     22  O4  UNL     1     141.432 133.878  89.987  0.00  0.00    -0.464 OA
ATOM     23  C14 UNL     1     141.803 134.919  89.083  0.00  0.00    +0.280 C 
ENDBRANCH  20  22
ENDBRANCH  17  20
ENDBRANCH  11  14
BRANCH  13  24
ATOM     24  C7  UNL     1     145.824 133.904  98.273  0.00  0.00    +0.142 C 
ATOM     25  C8  UNL     1     145.499 135.381  98.124  0.00  0.00    +0.029 C 
ENDBRANCH  13  24
TORSDOF 4
ENDMDL
MODEL 3
REMARK VINA RESULT:    -4.116      5.590      9.387
REMARK INTER + INTRA:          -5.529
REMARK INTER:                  -5.028
REMARK INTRA:                  -0.500
REMARK UNBOUND:                -0.449
REMARK  Name = /home/vital/Documents/PhD_2021/Malaria_codes/data/pdb_ligands_mmv/ligand_191.pdb
REMARK  7 active torsions:
REMARK  status: ('A' for Active; 'I' for Inactive)
REMARK    1  A    between atoms: N2_4  and  C3_5
REMARK    2  A    between atoms: C6_11  and  C9_16
REMARK    3  A    between atoms: N5_13  and  C7_14
REMARK    4  A    between atoms: C7_14  and  C8_15
REMARK    5  A    between atoms: C12_19  and  C13_20
REMARK    6  A    between atoms: C13_20  and  O4_22
REMARK    7  A    between atoms: O4_22  and  C14_23
REMARK                            x       y       z     vdW  Elec       q    Type
REMARK                         _______ _______ _______ _____ _____    ______ ____
ROOT
ATOM      1  C1  UNL     1     140.933 128.444 101.774  0.00  0.00    +0.186 A 
ATOM      2  N1  UNL     1     140.442 127.410 102.370  0.00  0.00    -0.172 NA
ATOM      3  C2  UNL     1     141.180 126.624 103.212  0.00  0.00    +0.353 A 
ATOM      4  N2  UNL     1     142.465 127.008 103.579  0.00  0.00    -0.261 N 
ATOM      5  C3  UNL     1     143.181 126.157 104.509  0.00  0.00    +0.157 C 
ATOM      6  C4  UNL     1     143.170 128.019 102.959  0.00  0.00    +0.284 A 
ATOM      7  O1  UNL     1     144.355 128.272 103.122  0.00  0.00    -0.265 OA
ATOM      8  O2  UNL     1     140.702 125.575 103.636  0.00  0.00    -0.244 OA
ATOM      9  C5  UNL     1     142.356 128.824 101.993  0.00  0.00    +0.174 A 
ATOM     10  N3  UNL     1     142.888 129.831 101.373  0.00  0.00    -0.217 NA
ATOM     11  C6  UNL     1     142.113 130.552 100.495  0.00  0.00    +0.181 A 
ATOM     12  N4  UNL     1     140.856 130.315 100.251  0.00  0.00    -0.149 NA
ATOM     13  N5  UNL     1     140.251 129.276 100.911  0.00  0.00    -0.243 N 
ENDROOT
BRANCH  11  14
ATOM     14  C9  UNL     1     142.804 131.680  99.793  0.00  0.00    +0.021 A 
ATOM     15  C10 UNL     1     142.051 132.731  99.249  0.00  0.00    +0.012 A 
ATOM     16  C11 UNL     1     142.685 133.792  98.591  0.00  0.00    +0.015 A 
ATOM     17  C12 UNL     1     144.080 133.814  98.467  0.00  0.00    +0.059 A 
ATOM     18  C15 UNL     1     144.832 132.763  99.010  0.00  0.00    +0.015 A 
ATOM     19  C16 UNL     1     144.200 131.704  99.669  0.00  0.00    +0.012 A 
BRANCH  17  20
ATOM     20  C13 UNL     1     144.806 134.916  97.776  0.00  0.00    +0.339 C 
ATOM     21  O3  UNL     1     145.408 134.770  96.724  0.00  0.00    -0.245 OA
BRANCH  20  22
ATOM     22  O4  UNL     1     144.699 136.072  98.477  0.00  0.00    -0.464 OA
ATOM     23  C14 UNL     1     145.797 136.966  98.290  0.00  0.00    +0.280 C 
ENDBRANCH  20  22
ENDBRANCH  17  20
ENDBRANCH  11  14
BRANCH  13  24
ATOM     24  C7  UNL     1     138.866 129.015 100.525  0.00  0.00    +0.142 C 
ATOM     25  C8  UNL     1     138.813 128.283  99.193  0.00  0.00    +0.029 C 
ENDBRANCH  13  24
TORSDOF 4
ENDMDL
MODEL 4
REMARK VINA RESULT:    -3.815      8.955     13.029
REMARK INTER + INTRA:          -5.156
REMARK INTER:                  -4.631
REMARK INTRA:                  -0.526
REMARK UNBOUND:                -0.449
REMARK  Name = /home/vital/Documents/PhD_2021/Malaria_codes/data/pdb_ligands_mmv/ligand_191.pdb
REMARK  7 active torsions:
REMARK  status: ('A' for Active; 'I' for Inactive)
REMARK    1  A    between atoms: N2_4  and  C3_5
REMARK    2  A    between atoms: C6_11  and  C9_16
REMARK    3  A    between atoms: N5_13  and  C7_14
REMARK    4  A    between atoms: C7_14  and  C8_15
REMARK    5  A    between atoms: C12_19  and  C13_20
REMARK    6  A    between atoms: C13_20  and  O4_22
REMARK    7  A    between atoms: O4_22  and  C14_23
REMARK                            x       y       z     vdW  Elec       q    Type
REMARK                         _______ _______ _______ _____ _____    ______ ____
ROOT
ATOM      1  C1  UNL     1     138.679 127.178  89.131  0.00  0.00    +0.186 A 
ATOM      2  N1  UNL     1     139.769 127.859  89.255  0.00  0.00    -0.172 NA
ATOM      3  C2  UNL     1     139.898 129.136  88.782  0.00  0.00    +0.353 A 
ATOM      4  N2  UNL     1     138.792 129.810  88.279  0.00  0.00    -0.261 N 
ATOM      5  C3  UNL     1     138.982 131.178  87.834  0.00  0.00    +0.157 C 
ATOM      6  C4  UNL     1     137.591 129.200  87.983  0.00  0.00    +0.284 A 
ATOM      7  O1  UNL     1     136.657 129.707  87.377  0.00  0.00    -0.265 OA
ATOM      8  O2  UNL     1     141.000 129.679  88.801  0.00  0.00    -0.244 OA
ATOM      9  C5  UNL     1     137.498 127.781  88.453  0.00  0.00    +0.174 A 
ATOM     10  N3  UNL     1     136.405 127.105  88.275  0.00  0.00    -0.217 NA
ATOM     11  C6  UNL     1     136.351 125.805  88.721  0.00  0.00    +0.181 A 
ATOM     12  N4  UNL     1     137.319 125.196  89.343  0.00  0.00    -0.149 NA
ATOM     13  N5  UNL     1     138.479 125.888  89.577  0.00  0.00    -0.243 N 
ENDROOT
BRANCH  11  14
ATOM     14  C9  UNL     1     135.069 125.078  88.452  0.00  0.00    +0.021 A 
ATOM     15  C10 UNL     1     134.506 124.263  89.445  0.00  0.00    +0.012 A 
ATOM     16  C11 UNL     1     133.308 123.578  89.206  0.00  0.00    +0.015 A 
ATOM     17  C12 UNL     1     132.660 123.699  87.970  0.00  0.00    +0.059 A 
ATOM     18  C15 UNL     1     133.223 124.514  86.978  0.00  0.00    +0.015 A 
ATOM     19  C16 UNL     1     134.419 125.199  87.217  0.00  0.00    +0.012 A 
BRANCH  17  20
ATOM     20  C13 UNL     1     131.386 122.993  87.661  0.00  0.00    +0.339 C 
ATOM     21  O3  UNL     1     130.494 122.825  88.478  0.00  0.00    -0.245 OA
BRANCH  20  22
ATOM     22  O4  UNL     1     131.369 122.577  86.370  0.00  0.00    -0.464 OA
ATOM     23  C14 UNL     1     131.346 121.158  86.220  0.00  0.00    +0.280 C 
ENDBRANCH  20  22
ENDBRANCH  17  20
ENDBRANCH  11  14
BRANCH  13  24
ATOM     24  C7  UNL     1     139.551 125.116  90.202  0.00  0.00    +0.142 C 
ATOM     25  C8  UNL     1     138.974 124.018  91.080  0.00  0.00    +0.029 C 
ENDBRANCH  13  24
TORSDOF 4
ENDMDL
MODEL 5
REMARK VINA RESULT:    -3.747      6.616     10.026
REMARK INTER + INTRA:          -5.073
REMARK INTER:                  -4.597
REMARK INTRA:                  -0.475
REMARK UNBOUND:                -0.449
REMARK  Name = /home/vital/Documents/PhD_2021/Malaria_codes/data/pdb_ligands_mmv/ligand_191.pdb
REMARK  7 active torsions:
REMARK  status: ('A' for Active; 'I' for Inactive)
REMARK    1  A    between atoms: N2_4  and  C3_5
REMARK    2  A    between atoms: C6_11  and  C9_16
REMARK    3  A    between atoms: N5_13  and  C7_14
REMARK    4  A    between atoms: C7_14  and  C8_15
REMARK    5  A    between atoms: C12_19  and  C13_20
REMARK    6  A    between atoms: C13_20  and  O4_22
REMARK    7  A    between atoms: O4_22  and  C14_23
REMARK                            x       y       z     vdW  Elec       q    Type
REMARK                         _______ _______ _______ _____ _____    ______ ____
ROOT
ATOM      1  C1  UNL     1     141.831 129.618 101.355  0.00  0.00    +0.186 A 
ATOM      2  N1  UNL     1     142.043 130.658 100.621  0.00  0.00    -0.172 NA
ATOM      3  C2  UNL     1     143.272 131.251 100.519  0.00  0.00    +0.353 A 
ATOM      4  N2  UNL     1     144.387 130.651 101.094  0.00  0.00    -0.261 N 
ATOM      5  C3  UNL     1     145.670 131.303 100.914  0.00  0.00    +0.157 C 
ATOM      6  C4  UNL     1     144.318 129.605 101.990  0.00  0.00    +0.284 A 
ATOM      7  O1  UNL     1     145.247 129.165 102.653  0.00  0.00    -0.265 OA
ATOM      8  O2  UNL     1     143.382 132.319  99.921  0.00  0.00    -0.244 OA
ATOM      9  C5  UNL     1     142.949 129.015 102.132  0.00  0.00    +0.174 A 
ATOM     10  N3  UNL     1     142.755 127.997 102.913  0.00  0.00    -0.217 NA
ATOM     11  C6  UNL     1     141.486 127.477 103.019  0.00  0.00    +0.181 A 
ATOM     12  N4  UNL     1     140.449 127.918 102.367  0.00  0.00    -0.149 NA
ATOM     13  N5  UNL     1     140.622 128.973 101.509  0.00  0.00    -0.243 N 
ENDROOT
BRANCH  11  14
ATOM     14  C9  UNL     1     141.333 126.324 103.963  0.00  0.00    +0.021 A 
ATOM     15  C10 UNL     1     141.287 125.014 103.463  0.00  0.00    +0.012 A 
ATOM     16  C11 UNL     1     141.144 123.927 104.335  0.00  0.00    +0.015 A 
ATOM     17  C12 UNL     1     141.044 124.138 105.717  0.00  0.00    +0.059 A 
ATOM     18  C15 UNL     1     141.091 125.447 106.215  0.00  0.00    +0.015 A 
ATOM     19  C16 UNL     1     141.235 126.533 105.345  0.00  0.00    +0.012 A 
BRANCH  17  20
ATOM     20  C13 UNL     1     140.890 123.020 106.688  0.00  0.00    +0.339 C 
ATOM     21  O3  UNL     1     141.480 121.955 106.589  0.00  0.00    -0.245 OA
BRANCH  20  22
ATOM     22  O4  UNL     1     140.019 123.356 107.671  0.00  0.00    -0.464 OA
ATOM     23  C14 UNL     1     138.772 122.664 107.602  0.00  0.00    +0.280 C 
ENDBRANCH  20  22
ENDBRANCH  17  20
ENDBRANCH  11  14
BRANCH  13  24
ATOM     24  C7  UNL     1     139.401 129.469 100.877  0.00  0.00    +0.142 C 
ATOM     25  C8  UNL     1     138.918 128.495  99.814  0.00  0.00    +0.029 C 
ENDBRANCH  13  24
TORSDOF 4
ENDMDL
MODEL 6
REMARK VINA RESULT:    -3.576      5.508      8.716
REMARK INTER + INTRA:          -4.862
REMARK INTER:                  -4.351
REMARK INTRA:                  -0.511
REMARK UNBOUND:                -0.449
REMARK  Name = /home/vital/Documents/PhD_2021/Malaria_codes/data/pdb_ligands_mmv/ligand_191.pdb
REMARK  7 active torsions:
REMARK  status: ('A' for Active; 'I' for Inactive)
REMARK    1  A    between atoms: N2_4  and  C3_5
REMARK    2  A    between atoms: C6_11  and  C9_16
REMARK    3  A    between atoms: N5_13  and  C7_14
REMARK    4  A    between atoms: C7_14  and  C8_15
REMARK    5  A    between atoms: C12_19  and  C13_20
REMARK    6  A    between atoms: C13_20  and  O4_22
REMARK    7  A    between atoms: O4_22  and  C14_23
REMARK                            x       y       z     vdW  Elec       q    Type
REMARK                         _______ _______ _______ _____ _____    ______ ____
ROOT
ATOM      1  C1  UNL     1     141.505 130.573 100.677  0.00  0.00    +0.186 A 
ATOM      2  N1  UNL     1     141.137 131.536  99.900  0.00  0.00    -0.172 NA
ATOM      3  C2  UNL     1     142.018 132.448  99.389  0.00  0.00    +0.353 A 
ATOM      4  N2  UNL     1     143.386 132.276  99.570  0.00  0.00    -0.261 N 
ATOM      5  C3  UNL     1     144.272 133.252  98.966  0.00  0.00    +0.157 C 
ATOM      6  C4  UNL     1     143.934 131.368 100.451  0.00  0.00    +0.284 A 
ATOM      7  O1  UNL     1     145.112 131.303 100.775  0.00  0.00    -0.265 OA
ATOM      8  O2  UNL     1     141.592 133.424  98.776  0.00  0.00    -0.244 OA
ATOM      9  C5  UNL     1     142.939 130.421 101.047  0.00  0.00    +0.174 A 
ATOM     10  N3  UNL     1     143.331 129.490 101.861  0.00  0.00    -0.217 NA
ATOM     11  C6  UNL     1     142.392 128.635 102.388  0.00  0.00    +0.181 A 
ATOM     12  N4  UNL     1     141.120 128.670 102.111  0.00  0.00    -0.149 NA
ATOM     13  N5  UNL     1     140.673 129.622 101.231  0.00  0.00    -0.243 N 
ENDROOT
BRANCH  11  14
ATOM     14  C9  UNL     1     142.914 127.606 103.344  0.00  0.00    +0.021 A 
ATOM     15  C10 UNL     1     142.017 126.809 104.070  0.00  0.00    +0.012 A 
ATOM     16  C11 UNL     1     142.492 125.843 104.967  0.00  0.00    +0.015 A 
ATOM     17  C12 UNL     1     143.870 125.665 105.148  0.00  0.00    +0.059 A 
ATOM     18  C15 UNL     1     144.766 126.462 104.422  0.00  0.00    +0.015 A 
ATOM     19  C16 UNL     1     144.291 127.426 103.526  0.00  0.00    +0.012 A 
BRANCH  17  20
ATOM     20  C13 UNL     1     144.430 124.655 106.088  0.00  0.00    +0.339 C 
ATOM     21  O3  UNL     1     145.514 124.115 105.930  0.00  0.00    -0.245 OA
BRANCH  20  22
ATOM     22  O4  UNL     1     143.575 124.432 107.117  0.00  0.00    -0.464 OA
ATOM     23  C14 UNL     1     144.141 124.679 108.405  0.00  0.00    +0.280 C 
ENDBRANCH  20  22
ENDBRANCH  17  20
ENDBRANCH  11  14
BRANCH  13  24
ATOM     24  C7  UNL     1     139.226 129.657 101.033  0.00  0.00    +0.142 C 
ATOM     25  C8  UNL     1     138.798 128.595 100.034  0.00  0.00    +0.029 C 
ENDBRANCH  13  24
TORSDOF 4
ENDMDL
MODEL 7
REMARK VINA RESULT:    -3.562      5.959      9.034
REMARK INTER + INTRA:          -4.844
REMARK INTER:                  -4.360
REMARK INTRA:                  -0.485
REMARK UNBOUND:                -0.449
REMARK  Name = /home/vital/Documents/PhD_2021/Malaria_codes/data/pdb_ligands_mmv/ligand_191.pdb
REMARK  7 active torsions:
REMARK  status: ('A' for Active; 'I' for Inactive)
REMARK    1  A    between atoms: N2_4  and  C3_5
REMARK    2  A    between atoms: C6_11  and  C9_16
REMARK    3  A    between atoms: N5_13  and  C7_14
REMARK    4  A    between atoms: C7_14  and  C8_15
REMARK    5  A    between atoms: C12_19  and  C13_20
REMARK    6  A    between atoms: C13_20  and  O4_22
REMARK    7  A    between atoms: O4_22  and  C14_23
REMARK                            x       y       z     vdW  Elec       q    Type
REMARK                         _______ _______ _______ _____ _____    ______ ____
ROOT
ATOM      1  C1  UNL     1     142.072 133.738  89.928  0.00  0.00    +0.186 A 
ATOM      2  N1  UNL     1     142.877 134.729  90.116  0.00  0.00    -0.172 NA
ATOM      3  C2  UNL     1     143.000 135.758  89.223  0.00  0.00    +0.353 A 
ATOM      4  N2  UNL     1     142.136 135.850  88.138  0.00  0.00    -0.261 N 
ATOM      5  C3  UNL     1     142.287 136.988  87.252  0.00  0.00    +0.157 C 
ATOM      6  C4  UNL     1     141.296 134.831  87.739  0.00  0.00    +0.284 A 
ATOM      7  O1  UNL     1     140.655 134.796  86.697  0.00  0.00    -0.265 OA
ATOM      8  O2  UNL     1     143.884 136.596  89.385  0.00  0.00    -0.244 OA
ATOM      9  C5  UNL     1     141.228 133.686  88.702  0.00  0.00    +0.174 A 
ATOM     10  N3  UNL     1     140.443 132.681  88.465  0.00  0.00    -0.217 NA
ATOM     11  C6  UNL     1     140.401 131.647  89.371  0.00  0.00    +0.181 A 
ATOM     12  N4  UNL     1     141.081 131.607  90.481  0.00  0.00    -0.149 NA
ATOM     13  N5  UNL     1     141.899 132.666  90.779  0.00  0.00    -0.243 N 
ENDROOT
BRANCH  11  14
ATOM     14  C9  UNL     1     139.496 130.507  89.015  0.00  0.00    +0.021 A 
ATOM     15  C10 UNL     1     138.358 130.738  88.229  0.00  0.00    +0.012 A 
ATOM     16  C11 UNL     1     137.504 129.681  87.890  0.00  0.00    +0.015 A 
ATOM     17  C12 UNL     1     137.778 128.381  88.335  0.00  0.00    +0.059 A 
ATOM     18  C15 UNL     1     138.915 128.151  89.121  0.00  0.00    +0.015 A 
ATOM     19  C16 UNL     1     139.769 129.206  89.459  0.00  0.00    +0.012 A 
BRANCH  17  20
ATOM     20  C13 UNL     1     136.904 127.221  88.005  0.00  0.00    +0.339 C 
ATOM     21  O3  UNL     1     136.038 127.253  87.144  0.00  0.00    -0.245 OA
BRANCH  20  22
ATOM     22  O4  UNL     1     137.207 126.155  88.787  0.00  0.00    -0.464 OA
ATOM     23  C14 UNL     1     136.065 125.486  89.322  0.00  0.00    +0.280 C 
ENDBRANCH  20  22
ENDBRANCH  17  20
ENDBRANCH  11  14
BRANCH  13  24
ATOM     24  C7  UNL     1     142.695 132.516  91.995  0.00  0.00    +0.142 C 
ATOM     25  C8  UNL     1     141.826 132.704  93.228  0.00  0.00    +0.029 C 
ENDBRANCH  13  24
TORSDOF 4
ENDMDL
MODEL 8
REMARK VINA RESULT:    -3.518      6.263     11.132
REMARK INTER + INTRA:          -4.790
REMARK INTER:                  -4.318
REMARK INTRA:                  -0.473
REMARK UNBOUND:                -0.449
REMARK  Name = /home/vital/Documents/PhD_2021/Malaria_codes/data/pdb_ligands_mmv/ligand_191.pdb
REMARK  7 active torsions:
REMARK  status: ('A' for Active; 'I' for Inactive)
REMARK    1  A    between atoms: N2_4  and  C3_5
REMARK    2  A    between atoms: C6_11  and  C9_16
REMARK    3  A    between atoms: N5_13  and  C7_14
REMARK    4  A    between atoms: C7_14  and  C8_15
REMARK    5  A    between atoms: C12_19  and  C13_20
REMARK    6  A    between atoms: C13_20  and  O4_22
REMARK    7  A    between atoms: O4_22  and  C14_23
REMARK                            x       y       z     vdW  Elec       q    Type
REMARK                         _______ _______ _______ _____ _____    ______ ____
ROOT
ATOM      1  C1  UNL     1     144.024 126.262 104.427  0.00  0.00    +0.186 A 
ATOM      2  N1  UNL     1     144.259 125.324 105.282  0.00  0.00    -0.172 NA
ATOM      3  C2  UNL     1     143.319 124.889 106.176  0.00  0.00    +0.353 A 
ATOM      4  N2  UNL     1     142.008 125.346 106.090  0.00  0.00    -0.261 N 
ATOM      5  C3  UNL     1     141.047 124.814 107.037  0.00  0.00    +0.157 C 
ATOM      6  C4  UNL     1     141.619 126.414 105.309  0.00  0.00    +0.284 A 
ATOM      7  O1  UNL     1     140.525 126.962 105.336  0.00  0.00    -0.265 OA
ATOM      8  O2  UNL     1     143.643 124.098 107.058  0.00  0.00    -0.244 OA
ATOM      9  C5  UNL     1     142.686 126.914 104.385  0.00  0.00    +0.174 A 
ATOM     10  N3  UNL     1     142.436 127.889 103.567  0.00  0.00    -0.217 NA
ATOM     11  C6  UNL     1     143.437 128.323 102.730  0.00  0.00    +0.181 A 
ATOM     12  N4  UNL     1     144.631 127.806 102.674  0.00  0.00    -0.149 NA
ATOM     13  N5  UNL     1     144.922 126.754 103.503  0.00  0.00    -0.243 N 
ENDROOT
BRANCH  11  14
ATOM     14  C9  UNL     1     143.085 129.472 101.836  0.00  0.00    +0.021 A 
ATOM     15  C10 UNL     1     141.797 129.563 101.289  0.00  0.00    +0.012 A 
ATOM     16  C11 UNL     1     141.455 130.632 100.452  0.00  0.00    +0.015 A 
ATOM     17  C12 UNL     1     142.398 131.623 100.151  0.00  0.00    +0.059 A 
ATOM     18  C15 UNL     1     143.686 131.532 100.698  0.00  0.00    +0.015 A 
ATOM     19  C16 UNL     1     144.027 130.465 101.535  0.00  0.00    +0.012 A 
BRANCH  17  20
ATOM     20  C13 UNL     1     142.089 132.781  99.267  0.00  0.00    +0.339 C 
ATOM     21  O3  UNL     1     141.026 133.381  99.289  0.00  0.00    -0.245 OA
BRANCH  20  22
ATOM     22  O4  UNL     1     143.140 133.058  98.455  0.00  0.00    -0.464 OA
ATOM     23  C14 UNL     1     143.044 132.464  97.160  0.00  0.00    +0.280 C 
ENDBRANCH  20  22
ENDBRANCH  17  20
ENDBRANCH  11  14
BRANCH  13  24
ATOM     24  C7  UNL     1     146.304 126.281 103.448  0.00  0.00    +0.142 C 
ATOM     25  C8  UNL     1     146.901 126.538 102.074  0.00  0.00    +0.029 C 
ENDBRANCH  13  24
TORSDOF 4
ENDMDL
MODEL 9
REMARK VINA RESULT:    -3.510      6.668     10.567
REMARK INTER + INTRA:          -4.780
REMARK INTER:                  -4.264
REMARK INTRA:                  -0.515
REMARK UNBOUND:                -0.449
REMARK  Name = /home/vital/Documents/PhD_2021/Malaria_codes/data/pdb_ligands_mmv/ligand_191.pdb
REMARK  7 active torsions:
REMARK  status: ('A' for Active; 'I' for Inactive)
REMARK    1  A    between atoms: N2_4  and  C3_5
REMARK    2  A    between atoms: C6_11  and  C9_16
REMARK    3  A    between atoms: N5_13  and  C7_14
REMARK    4  A    between atoms: C7_14  and  C8_15
REMARK    5  A    between atoms: C12_19  and  C13_20
REMARK    6  A    between atoms: C13_20  and  O4_22
REMARK    7  A    between atoms: O4_22  and  C14_23
REMARK                            x       y       z     vdW  Elec       q    Type
REMARK                         _______ _______ _______ _____ _____    ______ ____
ROOT
ATOM      1  C1  UNL     1     142.990 128.737 102.386  0.00  0.00    +0.186 A 
ATOM      2  N1  UNL     1     143.437 129.568 101.505  0.00  0.00    -0.172 NA
ATOM      3  C2  UNL     1     142.629 130.162 100.575  0.00  0.00    +0.353 A 
ATOM      4  N2  UNL     1     141.250 130.005 100.645  0.00  0.00    -0.261 N 
ATOM      5  C3  UNL     1     140.443 130.696  99.658  0.00  0.00    +0.157 C 
ATOM      6  C4  UNL     1     140.624 129.078 101.452  0.00  0.00    +0.284 A 
ATOM      7  O1  UNL     1     139.438 128.781 101.417  0.00  0.00    -0.265 OA
ATOM      8  O2  UNL     1     143.132 130.830  99.674  0.00  0.00    -0.244 OA
ATOM      9  C5  UNL     1     141.541 128.394 102.418  0.00  0.00    +0.174 A 
ATOM     10  N3  UNL     1     141.071 127.529 103.262  0.00  0.00    -0.217 NA
ATOM     11  C6  UNL     1     141.940 126.920 104.138  0.00  0.00    +0.181 A 
ATOM     12  N4  UNL     1     143.217 127.167 104.205  0.00  0.00    -0.149 NA
ATOM     13  N5  UNL     1     143.744 128.098 103.348  0.00  0.00    -0.243 N 
ENDROOT
BRANCH  11  14
ATOM     14  C9  UNL     1     141.331 125.911 105.061  0.00  0.00    +0.021 A 
ATOM     15  C10 UNL     1     140.096 125.328 104.743  0.00  0.00    +0.012 A 
ATOM     16  C11 UNL     1     139.516 124.383 105.599  0.00  0.00    +0.015 A 
ATOM     17  C12 UNL     1     140.164 124.010 106.784  0.00  0.00    +0.059 A 
ATOM     18  C15 UNL     1     141.398 124.593 107.101  0.00  0.00    +0.015 A 
ATOM     19  C16 UNL     1     141.979 125.536 106.247  0.00  0.00    +0.012 A 
BRANCH  17  20
ATOM     20  C13 UNL     1     139.593 123.012 107.729  0.00  0.00    +0.339 C 
ATOM     21  O3  UNL     1     139.644 121.806 107.548  0.00  0.00    -0.245 OA
BRANCH  20  22
ATOM     22  O4  UNL     1     139.022 123.631 108.793  0.00  0.00    -0.464 OA
ATOM     23  C14 UNL     1     138.458 122.735 109.751  0.00  0.00    +0.280 C 
ENDBRANCH  20  22
ENDBRANCH  17  20
ENDBRANCH  11  14
BRANCH  13  24
ATOM     24  C7  UNL     1     145.195 128.261 103.420  0.00  0.00    +0.142 C 
ATOM     25  C8  UNL     1     145.787 127.315 104.453  0.00  0.00    +0.029 C 
ENDBRANCH  13  24
TORSDOF 4
ENDMDL
