MODEL 1
REMARK VINA RESULT:    -3.348      0.000      0.000
REMARK INTER + INTRA:          -4.294
REMARK INTER:                  -3.935
REMARK INTRA:                  -0.359
REMARK UNBOUND:                -0.359
REMARK  Name = /home/vital/Documents/PhD_2021/Malaria_codes/data/pdb_ligands_mmv/ligand_192.pdb
REMARK  6 active torsions:
REMARK  status: ('A' for Active; 'I' for Inactive)
REMARK    1  A    between atoms: C1_1  and  O1_2
REMARK    2  A    between atoms: O1_2  and  C2_3
REMARK    3  A    between atoms: C4_5  and  S1_6
REMARK    4  A    between atoms: S1_6  and  C5_7
REMARK    5  A    between atoms: C8_10  and  C9_11
REMARK    6  A    between atoms: C13_17  and  C14_18
REMARK                            x       y       z     vdW  Elec       q    Type
REMARK                         _______ _______ _______ _____ _____    ______ ____
ROOT
ATOM      1  C2  UNL     1     140.970 127.159  94.206  0.00  0.00    +0.133 A 
ATOM      2  C3  UNL     1     140.800 126.204  93.197  0.00  0.00    +0.061 A 
ATOM      3  C4  UNL     1     141.079 124.850  93.437  0.00  0.00    +0.011 A 
ATOM      4  C6  UNL     1     141.508 124.440  94.702  0.00  0.00    +0.015 A 
ATOM      5  C7  UNL     1     141.675 125.378  95.719  0.00  0.00    +0.018 A 
ATOM      6  C8  UNL     1     141.397 126.726  95.470  0.00  0.00    +0.079 A 
ENDROOT
BRANCH   6   7
ATOM      7  C9  UNL     1     141.621 127.682  96.572  0.00  0.00    +0.250 C 
ATOM      8  O2  UNL     1     142.735 128.191  96.658  0.00  0.00    -0.270 OA
ATOM      9  N1  UNL     1     140.590 127.897  97.485  0.00  0.00    -0.297 N 
ATOM     10  C10 UNL     1     139.265 127.279  97.400  0.00  0.00    +0.108 C 
ATOM     11  C11 UNL     1     138.193 128.151  98.043  0.00  0.00    +0.019 C 
ATOM     12  C12 UNL     1     138.500 128.470  99.508  0.00  0.00    +0.006 C 
ATOM     13  C13 UNL     1     140.001 128.422  99.835  0.00  0.00    +0.003 C 
ATOM     14  C14 UNL     1     140.329 129.315 101.028  0.00  0.00    +0.009 C 
ATOM     15  C15 UNL     1     140.845 128.793  98.612  0.00  0.00    +0.111 C 
ENDBRANCH   6   7
BRANCH   1  17
ATOM     16  C1  UNL     1     140.731 129.029  92.745  0.00  0.00    +0.277 C 
ATOM     17  O1  UNL     1     140.717 128.498  94.063  0.00  0.00    -0.494 OA
ENDBRANCH   1  17
BRANCH   3  18
ATOM     18  S1  UNL     1     140.836 123.671  92.117  0.00  0.00    -0.128 S 
ATOM     19  C5  UNL     1     139.377 124.396  91.320  0.00  0.00    +0.090 C 
ENDBRANCH   3  18
TORSDOF 3
ENDMDL
MODEL 2
REMARK VINA RESULT:    -3.243      6.173      8.331
REMARK INTER + INTRA:          -4.171
REMARK INTER:                  -3.718
REMARK INTRA:                  -0.453
REMARK UNBOUND:                -0.359
REMARK  Name = /home/vital/Documents/PhD_2021/Malaria_codes/data/pdb_ligands_mmv/ligand_192.pdb
REMARK  6 active torsions:
REMARK  status: ('A' for Active; 'I' for Inactive)
REMARK    1  A    between atoms: C1_1  and  O1_2
REMARK    2  A    between atoms: O1_2  and  C2_3
REMARK    3  A    between atoms: C4_5  and  S1_6
REMARK    4  A    between atoms: S1_6  and  C5_7
REMARK    5  A    between atoms: C8_10  and  C9_11
REMARK    6  A    between atoms: C13_17  and  C14_18
REMARK                            x       y       z     vdW  Elec       q    Type
REMARK                         _______ _______ _______ _____ _____    ______ ____
ROOT
ATOM      1  C2  UNL     1     142.081 125.524 102.938  0.00  0.00    +0.133 A 
ATOM      2  C3  UNL     1     141.638 124.463 103.736  0.00  0.00    +0.061 A 
ATOM      3  C4  UNL     1     141.084 124.700 105.004  0.00  0.00    +0.011 A 
ATOM      4  C6  UNL     1     140.949 126.011 105.471  0.00  0.00    +0.015 A 
ATOM      5  C7  UNL     1     141.379 127.079 104.686  0.00  0.00    +0.018 A 
ATOM      6  C8  UNL     1     141.932 126.832 103.424  0.00  0.00    +0.079 A 
ENDROOT
BRANCH   6   7
ATOM      7  C9  UNL     1     142.400 127.995 102.647  0.00  0.00    +0.250 C 
ATOM      8  O2  UNL     1     143.510 128.446 102.920  0.00  0.00    -0.270 OA
ATOM      9  N1  UNL     1     141.538 128.555 101.706  0.00  0.00    -0.297 N 
ATOM     10  C10 UNL     1     140.207 128.035 101.387  0.00  0.00    +0.108 C 
ATOM     11  C11 UNL     1     139.803 128.361  99.954  0.00  0.00    +0.019 C 
ATOM     12  C12 UNL     1     139.832 129.862  99.664  0.00  0.00    +0.006 C 
ATOM     13  C13 UNL     1     140.808 130.633 100.568  0.00  0.00    +0.003 C 
ATOM     14  C14 UNL     1     141.288 131.912  99.888  0.00  0.00    +0.009 C 
ATOM     15  C15 UNL     1     141.985 129.750 100.990  0.00  0.00    +0.111 C 
ENDBRANCH   6   7
BRANCH   1  17
ATOM     16  C1  UNL     1     141.998 124.476 100.798  0.00  0.00    +0.277 C 
ATOM     17  O1  UNL     1     142.627 125.386 101.690  0.00  0.00    -0.494 OA
ENDBRANCH   1  17
BRANCH   3  18
ATOM     18  S1  UNL     1     140.525 123.311 105.976  0.00  0.00    -0.128 S 
ATOM     19  C5  UNL     1     138.833 123.851 106.344  0.00  0.00    +0.090 C 
ENDBRANCH   3  18
TORSDOF 3
ENDMDL
MODEL 3
REMARK VINA RESULT:    -3.214      6.079      7.667
REMARK INTER + INTRA:          -4.137
REMARK INTER:                  -3.793
REMARK INTRA:                  -0.344
REMARK UNBOUND:                -0.359
REMARK  Name = /home/vital/Documents/PhD_2021/Malaria_codes/data/pdb_ligands_mmv/ligand_192.pdb
REMARK  6 active torsions:
REMARK  status: ('A' for Active; 'I' for Inactive)
REMARK    1  A    between atoms: C1_1  and  O1_2
REMARK    2  A    between atoms: O1_2  and  C2_3
REMARK    3  A    between atoms: C4_5  and  S1_6
REMARK    4  A    between atoms: S1_6  and  C5_7
REMARK    5  A    between atoms: C8_10  and  C9_11
REMARK    6  A    between atoms: C13_17  and  C14_18
REMARK                            x       y       z     vdW  Elec       q    Type
REMARK                         _______ _______ _______ _____ _____    ______ ____
ROOT
ATOM      1  C2  UNL     1     141.126 132.399  90.838  0.00  0.00    +0.133 A 
ATOM      2  C3  UNL     1     140.409 131.704  89.858  0.00  0.00    +0.061 A 
ATOM      3  C4  UNL     1     140.044 130.363  90.052  0.00  0.00    +0.011 A 
ATOM      4  C6  UNL     1     140.376 129.715  91.245  0.00  0.00    +0.015 A 
ATOM      5  C7  UNL     1     141.084 130.396  92.234  0.00  0.00    +0.018 A 
ATOM      6  C8  UNL     1     141.445 131.732  92.030  0.00  0.00    +0.079 A 
ENDROOT
BRANCH   6   7
ATOM      7  C9  UNL     1     142.221 132.397  93.095  0.00  0.00    +0.250 C 
ATOM      8  O2  UNL     1     141.594 132.849  94.050  0.00  0.00    -0.270 OA
ATOM      9  N1  UNL     1     143.597 132.538  92.925  0.00  0.00    -0.297 N 
ATOM     10  C10 UNL     1     144.348 132.019  91.781  0.00  0.00    +0.108 C 
ATOM     11  C11 UNL     1     145.792 131.701  92.151  0.00  0.00    +0.019 C 
ATOM     12  C12 UNL     1     146.531 132.913  92.722  0.00  0.00    +0.006 C 
ATOM     13  C13 UNL     1     145.592 133.939  93.377  0.00  0.00    +0.003 C 
ATOM     14  C14 UNL     1     146.325 134.750  94.441  0.00  0.00    +0.009 C 
ATOM     15  C15 UNL     1     144.346 133.259  93.953  0.00  0.00    +0.111 C 
ENDBRANCH   6   7
BRANCH   1  17
ATOM     16  C1  UNL     1     142.004 134.148  89.476  0.00  0.00    +0.277 C 
ATOM     17  O1  UNL     1     141.518 133.707  90.736  0.00  0.00    -0.494 OA
ENDBRANCH   1  17
BRANCH   3  18
ATOM     18  S1  UNL     1     139.121 129.525  88.773  0.00  0.00    -0.128 S 
ATOM     19  C5  UNL     1     138.274 130.943  88.023  0.00  0.00    +0.090 C 
ENDBRANCH   3  18
TORSDOF 3
ENDMDL
MODEL 4
REMARK VINA RESULT:    -3.151      8.035      9.511
REMARK INTER + INTRA:          -4.063
REMARK INTER:                  -3.659
REMARK INTRA:                  -0.403
REMARK UNBOUND:                -0.359
REMARK  Name = /home/vital/Documents/PhD_2021/Malaria_codes/data/pdb_ligands_mmv/ligand_192.pdb
REMARK  6 active torsions:
REMARK  status: ('A' for Active; 'I' for Inactive)
REMARK    1  A    between atoms: C1_1  and  O1_2
REMARK    2  A    between atoms: O1_2  and  C2_3
REMARK    3  A    between atoms: C4_5  and  S1_6
REMARK    4  A    between atoms: S1_6  and  C5_7
REMARK    5  A    between atoms: C8_10  and  C9_11
REMARK    6  A    between atoms: C13_17  and  C14_18
REMARK                            x       y       z     vdW  Elec       q    Type
REMARK                         _______ _______ _______ _____ _____    ______ ____
ROOT
ATOM      1  C2  UNL     1     139.632 129.782  87.097  0.00  0.00    +0.133 A 
ATOM      2  C3  UNL     1     140.604 130.761  87.336  0.00  0.00    +0.061 A 
ATOM      3  C4  UNL     1     140.527 131.587  88.467  0.00  0.00    +0.011 A 
ATOM      4  C6  UNL     1     139.484 131.421  89.383  0.00  0.00    +0.015 A 
ATOM      5  C7  UNL     1     138.512 130.447  89.163  0.00  0.00    +0.018 A 
ATOM      6  C8  UNL     1     138.596 129.629  88.031  0.00  0.00    +0.079 A 
ENDROOT
BRANCH   6   7
ATOM      7  C9  UNL     1     137.525 128.634  87.829  0.00  0.00    +0.250 C 
ATOM      8  O2  UNL     1     136.561 128.974  87.147  0.00  0.00    -0.270 OA
ATOM      9  N1  UNL     1     137.630 127.404  88.475  0.00  0.00    -0.297 N 
ATOM     10  C10 UNL     1     138.766 126.998  89.305  0.00  0.00    +0.108 C 
ATOM     11  C11 UNL     1     138.955 125.485  89.303  0.00  0.00    +0.019 C 
ATOM     12  C12 UNL     1     137.705 124.739  89.773  0.00  0.00    +0.006 C 
ATOM     13  C13 UNL     1     136.407 125.530  89.541  0.00  0.00    +0.003 C 
ATOM     14  C14 UNL     1     135.211 124.591  89.407  0.00  0.00    +0.009 C 
ATOM     15  C15 UNL     1     136.531 126.452  88.325  0.00  0.00    +0.111 C 
ENDBRANCH   6   7
BRANCH   1  17
ATOM     16  C1  UNL     1     140.822 128.197  85.771  0.00  0.00    +0.277 C 
ATOM     17  O1  UNL     1     139.631 128.930  86.026  0.00  0.00    -0.494 OA
ENDBRANCH   1  17
BRANCH   3  18
ATOM     18  S1  UNL     1     141.799 132.813  88.729  0.00  0.00    -0.128 S 
ATOM     19  C5  UNL     1     141.857 132.817  90.542  0.00  0.00    +0.090 C 
ENDBRANCH   3  18
TORSDOF 3
ENDMDL
MODEL 5
REMARK VINA RESULT:    -3.096      8.385     10.892
REMARK INTER + INTRA:          -3.998
REMARK INTER:                  -3.546
REMARK INTRA:                  -0.452
REMARK UNBOUND:                -0.359
REMARK  Name = /home/vital/Documents/PhD_2021/Malaria_codes/data/pdb_ligands_mmv/ligand_192.pdb
REMARK  6 active torsions:
REMARK  status: ('A' for Active; 'I' for Inactive)
REMARK    1  A    between atoms: C1_1  and  O1_2
REMARK    2  A    between atoms: O1_2  and  C2_3
REMARK    3  A    between atoms: C4_5  and  S1_6
REMARK    4  A    between atoms: S1_6  and  C5_7
REMARK    5  A    between atoms: C8_10  and  C9_11
REMARK    6  A    between atoms: C13_17  and  C14_18
REMARK                            x       y       z     vdW  Elec       q    Type
REMARK                         _______ _______ _______ _____ _____    ______ ____
ROOT
ATOM      1  C2  UNL     1     139.884 123.852 106.490  0.00  0.00    +0.133 A 
ATOM      2  C3  UNL     1     138.973 122.804 106.664  0.00  0.00    +0.061 A 
ATOM      3  C4  UNL     1     137.712 122.840 106.050  0.00  0.00    +0.011 A 
ATOM      4  C6  UNL     1     137.364 123.921 105.234  0.00  0.00    +0.015 A 
ATOM      5  C7  UNL     1     138.263 124.969 105.045  0.00  0.00    +0.018 A 
ATOM      6  C8  UNL     1     139.517 124.925 105.663  0.00  0.00    +0.079 A 
ENDROOT
BRANCH   6   7
ATOM      7  C9  UNL     1     140.419 126.075 105.456  0.00  0.00    +0.250 C 
ATOM      8  O2  UNL     1     140.299 127.030 106.219  0.00  0.00    -0.270 OA
ATOM      9  N1  UNL     1     141.297 126.044 104.375  0.00  0.00    -0.297 N 
ATOM     10  C10 UNL     1     141.433 124.917 103.449  0.00  0.00    +0.108 C 
ATOM     11  C11 UNL     1     142.832 124.845 102.850  0.00  0.00    +0.019 C 
ATOM     12  C12 UNL     1     143.226 126.133 102.125  0.00  0.00    +0.006 C 
ATOM     13  C13 UNL     1     142.488 127.374 102.655  0.00  0.00    +0.003 C 
ATOM     14  C14 UNL     1     143.302 128.641 102.407  0.00  0.00    +0.009 C 
ATOM     15  C15 UNL     1     142.137 127.217 104.137  0.00  0.00    +0.111 C 
ENDBRANCH   6   7
BRANCH   1  17
ATOM     16  C1  UNL     1     141.974 122.766 106.861  0.00  0.00    +0.277 C 
ATOM     17  O1  UNL     1     141.135 123.898 107.045  0.00  0.00    -0.494 OA
ENDBRANCH   1  17
BRANCH   3  18
ATOM     18  S1  UNL     1     136.591 121.472 106.297  0.00  0.00    -0.128 S 
ATOM     19  C5  UNL     1     136.823 121.200 108.076  0.00  0.00    +0.090 C 
ENDBRANCH   3  18
TORSDOF 3
ENDMDL
MODEL 6
REMARK VINA RESULT:    -2.993      6.327      8.837
REMARK INTER + INTRA:          -3.877
REMARK INTER:                  -3.542
REMARK INTRA:                  -0.335
REMARK UNBOUND:                -0.359
REMARK  Name = /home/vital/Documents/PhD_2021/Malaria_codes/data/pdb_ligands_mmv/ligand_192.pdb
REMARK  6 active torsions:
REMARK  status: ('A' for Active; 'I' for Inactive)
REMARK    1  A    between atoms: C1_1  and  O1_2
REMARK    2  A    between atoms: O1_2  and  C2_3
REMARK    3  A    between atoms: C4_5  and  S1_6
REMARK    4  A    between atoms: S1_6  and  C5_7
REMARK    5  A    between atoms: C8_10  and  C9_11
REMARK    6  A    between atoms: C13_17  and  C14_18
REMARK                            x       y       z     vdW  Elec       q    Type
REMARK                         _______ _______ _______ _____ _____    ______ ____
ROOT
ATOM      1  C2  UNL     1     143.682 132.533  91.729  0.00  0.00    +0.133 A 
ATOM      2  C3  UNL     1     144.407 132.439  92.923  0.00  0.00    +0.061 A 
ATOM      3  C4  UNL     1     143.751 132.444  94.163  0.00  0.00    +0.011 A 
ATOM      4  C6  UNL     1     142.356 132.522  94.214  0.00  0.00    +0.015 A 
ATOM      5  C7  UNL     1     141.620 132.610  93.034  0.00  0.00    +0.018 A 
ATOM      6  C8  UNL     1     142.283 132.606  91.802  0.00  0.00    +0.079 A 
ENDROOT
BRANCH   6   7
ATOM      7  C9  UNL     1     141.459 132.733  90.585  0.00  0.00    +0.250 C 
ATOM      8  O2  UNL     1     141.356 133.852  90.089  0.00  0.00    -0.270 OA
ATOM      9  N1  UNL     1     140.793 131.604  90.113  0.00  0.00    -0.297 N 
ATOM     10  C10 UNL     1     140.896 130.270  90.709  0.00  0.00    +0.108 C 
ATOM     11  C11 UNL     1     140.669 129.172  89.677  0.00  0.00    +0.019 C 
ATOM     12  C12 UNL     1     139.316 129.299  88.975  0.00  0.00    +0.006 C 
ATOM     13  C13 UNL     1     138.779 130.739  88.954  0.00  0.00    +0.003 C 
ATOM     14  C14 UNL     1     137.836 130.954  87.774  0.00  0.00    +0.009 C 
ATOM     15  C15 UNL     1     139.924 131.756  88.946  0.00  0.00    +0.111 C 
ENDBRANCH   6   7
BRANCH   1  17
ATOM     16  C1  UNL     1     145.136 131.473  90.164  0.00  0.00    +0.277 C 
ATOM     17  O1  UNL     1     144.238 132.529  90.478  0.00  0.00    -0.494 OA
ENDBRANCH   1  17
BRANCH   3  18
ATOM     18  S1  UNL     1     144.723 132.310  95.655  0.00  0.00    -0.128 S 
ATOM     19  C5  UNL     1     143.393 132.232  96.886  0.00  0.00    +0.090 C 
ENDBRANCH   3  18
TORSDOF 3
ENDMDL
MODEL 7
REMARK VINA RESULT:    -2.977      5.041      8.203
REMARK INTER + INTRA:          -3.858
REMARK INTER:                  -3.516
REMARK INTRA:                  -0.343
REMARK UNBOUND:                -0.359
REMARK  Name = /home/vital/Documents/PhD_2021/Malaria_codes/data/pdb_ligands_mmv/ligand_192.pdb
REMARK  6 active torsions:
REMARK  status: ('A' for Active; 'I' for Inactive)
REMARK    1  A    between atoms: C1_1  and  O1_2
REMARK    2  A    between atoms: O1_2  and  C2_3
REMARK    3  A    between atoms: C4_5  and  S1_6
REMARK    4  A    between atoms: S1_6  and  C5_7
REMARK    5  A    between atoms: C8_10  and  C9_11
REMARK    6  A    between atoms: C13_17  and  C14_18
REMARK                            x       y       z     vdW  Elec       q    Type
REMARK                         _______ _______ _______ _____ _____    ______ ____
ROOT
ATOM      1  C2  UNL     1     142.635 128.073 103.016  0.00  0.00    +0.133 A 
ATOM      2  C3  UNL     1     143.756 127.708 103.771  0.00  0.00    +0.061 A 
ATOM      3  C4  UNL     1     145.031 128.196 103.445  0.00  0.00    +0.011 A 
ATOM      4  C6  UNL     1     145.186 129.076 102.370  0.00  0.00    +0.015 A 
ATOM      5  C7  UNL     1     144.079 129.454 101.612  0.00  0.00    +0.018 A 
ATOM      6  C8  UNL     1     142.813 128.961 101.944  0.00  0.00    +0.079 A 
ENDROOT
BRANCH   6   7
ATOM      7  C9  UNL     1     141.679 129.367 101.092  0.00  0.00    +0.250 C 
ATOM      8  O2  UNL     1     141.134 130.438 101.351  0.00  0.00    -0.270 OA
ATOM      9  N1  UNL     1     141.249 128.491 100.097  0.00  0.00    -0.297 N 
ATOM     10  C10 UNL     1     141.881 127.206  99.794  0.00  0.00    +0.108 C 
ATOM     11  C11 UNL     1     141.688 126.812  98.334  0.00  0.00    +0.019 C 
ATOM     12  C12 UNL     1     140.213 126.748  97.934  0.00  0.00    +0.006 C 
ATOM     13  C13 UNL     1     139.314 127.648  98.796  0.00  0.00    +0.003 C 
ATOM     14  C14 UNL     1     138.057 128.057  98.033  0.00  0.00    +0.009 C 
ATOM     15  C15 UNL     1     140.081 128.873  99.303  0.00  0.00    +0.111 C 
ENDBRANCH   6   7
BRANCH   1  17
ATOM     16  C1  UNL     1     141.198 126.434 103.982  0.00  0.00    +0.277 C 
ATOM     17  O1  UNL     1     141.357 127.651 103.265  0.00  0.00    -0.494 OA
ENDBRANCH   1  17
BRANCH   3  18
ATOM     18  S1  UNL     1     146.426 127.707 104.447  0.00  0.00    -0.128 S 
ATOM     19  C5  UNL     1     146.511 125.946 104.021  0.00  0.00    +0.090 C 
ENDBRANCH   3  18
TORSDOF 3
ENDMDL
MODEL 8
REMARK VINA RESULT:    -2.913      4.745      5.518
REMARK INTER + INTRA:          -3.783
REMARK INTER:                  -3.330
REMARK INTRA:                  -0.453
REMARK UNBOUND:                -0.359
REMARK  Name = /home/vital/Documents/PhD_2021/Malaria_codes/data/pdb_ligands_mmv/ligand_192.pdb
REMARK  6 active torsions:
REMARK  status: ('A' for Active; 'I' for Inactive)
REMARK    1  A    between atoms: C1_1  and  O1_2
REMARK    2  A    between atoms: O1_2  and  C2_3
REMARK    3  A    between atoms: C4_5  and  S1_6
REMARK    4  A    between atoms: S1_6  and  C5_7
REMARK    5  A    between atoms: C8_10  and  C9_11
REMARK    6  A    between atoms: C13_17  and  C14_18
REMARK                            x       y       z     vdW  Elec       q    Type
REMARK                         _______ _______ _______ _____ _____    ______ ____
ROOT
ATOM      1  C2  UNL     1     143.238 131.929  97.600  0.00  0.00    +0.133 A 
ATOM      2  C3  UNL     1     143.260 132.510  96.326  0.00  0.00    +0.061 A 
ATOM      3  C4  UNL     1     143.383 131.715  95.177  0.00  0.00    +0.011 A 
ATOM      4  C6  UNL     1     143.461 130.325  95.296  0.00  0.00    +0.015 A 
ATOM      5  C7  UNL     1     143.434 129.730  96.556  0.00  0.00    +0.018 A 
ATOM      6  C8  UNL     1     143.313 130.531  97.696  0.00  0.00    +0.079 A 
ENDROOT
BRANCH   6   7
ATOM      7  C9  UNL     1     143.321 129.855  99.007  0.00  0.00    +0.250 C 
ATOM      8  O2  UNL     1     144.414 129.551  99.479  0.00  0.00    -0.270 OA
ATOM      9  N1  UNL     1     142.099 129.536  99.598  0.00  0.00    -0.297 N 
ATOM     10  C10 UNL     1     140.792 129.877  99.034  0.00  0.00    +0.108 C 
ATOM     11  C11 UNL     1     139.735 130.043 100.119  0.00  0.00    +0.019 C 
ATOM     12  C12 UNL     1     139.589 128.794 100.990  0.00  0.00    +0.006 C 
ATOM     13  C13 UNL     1     140.866 127.939 101.038  0.00  0.00    +0.003 C 
ATOM     14  C14 UNL     1     140.930 127.122 102.325  0.00  0.00    +0.009 C 
ATOM     15  C15 UNL     1     142.117 128.804 100.864  0.00  0.00    +0.111 C 
ENDBRANCH   6   7
BRANCH   1  17
ATOM     16  C1  UNL     1     142.115 133.632  98.833  0.00  0.00    +0.277 C 
ATOM     17  O1  UNL     1     143.115 132.625  98.772  0.00  0.00    -0.494 OA
ENDBRANCH   1  17
BRANCH   3  18
ATOM     18  S1  UNL     1     143.396 132.507  93.576  0.00  0.00    -0.128 S 
ATOM     19  C5  UNL     1     141.618 132.512  93.219  0.00  0.00    +0.090 C 
ENDBRANCH   3  18
TORSDOF 3
ENDMDL
MODEL 9
REMARK VINA RESULT:    -2.744      1.255      2.478
REMARK INTER + INTRA:          -3.585
REMARK INTER:                  -3.188
REMARK INTRA:                  -0.397
REMARK UNBOUND:                -0.359
REMARK  Name = /home/vital/Documents/PhD_2021/Malaria_codes/data/pdb_ligands_mmv/ligand_192.pdb
REMARK  6 active torsions:
REMARK  status: ('A' for Active; 'I' for Inactive)
REMARK    1  A    between atoms: C1_1  and  O1_2
REMARK    2  A    between atoms: O1_2  and  C2_3
REMARK    3  A    between atoms: C4_5  and  S1_6
REMARK    4  A    between atoms: S1_6  and  C5_7
REMARK    5  A    between atoms: C8_10  and  C9_11
REMARK    6  A    between atoms: C13_17  and  C14_18
REMARK                            x       y       z     vdW  Elec       q    Type
REMARK                         _______ _______ _______ _____ _____    ______ ____
ROOT
ATOM      1  C2  UNL     1     141.879 125.437  96.512  0.00  0.00    +0.133 A 
ATOM      2  C3  UNL     1     141.809 124.424  95.548  0.00  0.00    +0.061 A 
ATOM      3  C4  UNL     1     141.413 124.711  94.233  0.00  0.00    +0.011 A 
ATOM      4  C6  UNL     1     141.105 126.024  93.868  0.00  0.00    +0.015 A 
ATOM      5  C7  UNL     1     141.174 127.045  94.815  0.00  0.00    +0.018 A 
ATOM      6  C8  UNL     1     141.569 126.749  96.124  0.00  0.00    +0.079 A 
ENDROOT
BRANCH   6   7
ATOM      7  C9  UNL     1     141.597 127.860  97.094  0.00  0.00    +0.250 C 
ATOM      8  O2  UNL     1     142.640 128.502  97.187  0.00  0.00    -0.270 OA
ATOM      9  N1  UNL     1     140.475 128.072  97.893  0.00  0.00    -0.297 N 
ATOM     10  C10 UNL     1     139.234 127.299  97.803  0.00  0.00    +0.108 C 
ATOM     11  C11 UNL     1     138.026 128.118  98.242  0.00  0.00    +0.019 C 
ATOM     12  C12 UNL     1     138.171 128.660  99.665  0.00  0.00    +0.006 C 
ATOM     13  C13 UNL     1     139.636 128.829 100.100  0.00  0.00    +0.003 C 
ATOM     14  C14 UNL     1     139.766 129.903 101.177  0.00  0.00    +0.009 C 
ATOM     15  C15 UNL     1     140.538 129.132  98.900  0.00  0.00    +0.111 C 
ENDBRANCH   6   7
BRANCH   1  17
ATOM     16  C1  UNL     1     141.609 124.219  98.544  0.00  0.00    +0.277 C 
ATOM     17  O1  UNL     1     142.260 125.249  97.813  0.00  0.00    -0.494 OA
ENDBRANCH   1  17
BRANCH   3  18
ATOM     18  S1  UNL     1     141.352 123.383  93.040  0.00  0.00    -0.128 S 
ATOM     19  C5  UNL     1     140.186 124.093  91.846  0.00  0.00    +0.090 C 
ENDBRANCH   3  18
TORSDOF 3
ENDMDL
