MODEL 1
REMARK VINA RESULT:    -5.695      0.000      0.000
REMARK INTER + INTRA:          -8.052
REMARK INTER:                  -7.360
REMARK INTRA:                  -0.693
REMARK UNBOUND:                -0.693
REMARK  Name = /home/vital/Documents/PhD_2021/Malaria_codes/data/pdb_ligands_mmv/ligand_231.pdb
REMARK  6 active torsions:
REMARK  status: ('A' for Active; 'I' for Inactive)
REMARK    1  A    between atoms: C3_4  and  C4_5
REMARK    2  A    between atoms: N3_8  and  C6_9
REMARK    3  A    between atoms: C11_14  and  N4_15
REMARK    4  A    between atoms: C12_16  and  C13_17
REMARK    5  A    between atoms: C13_17  and  C14_18
REMARK    6  A    between atoms: C14_18  and  C15_19
REMARK                            x       y       z     vdW  Elec       q    Type
REMARK                         _______ _______ _______ _____ _____    ______ ____
ROOT
ATOM      1  C6  UNL     1     143.230 126.367 104.361  0.00  0.00    +0.034 A 
ATOM      2  C7  UNL     1     144.324 126.431 103.487  0.00  0.00    +0.025 A 
ATOM      3  C8  UNL     1     144.287 127.197 102.313  0.00  0.00    +0.025 A 
ATOM      4  C9  UNL     1     142.089 127.090 104.010  0.00  0.00    +0.025 A 
ATOM      5  C10 UNL     1     142.045 127.858 102.838  0.00  0.00    +0.025 A 
ATOM      6  C11 UNL     1     143.145 127.919 101.979  0.00  0.00    +0.033 A 
ENDROOT
BRANCH   1  14
ATOM      7  N1  UNL     1     141.126 124.753 105.938  0.00  0.00    -0.199 NA
ATOM      8  C1  UNL     1     140.299 124.032 106.715  0.00  0.00    +0.127 A 
ATOM      9  C2  UNL     1     140.773 123.429 107.862  0.00  0.00    +0.066 A 
ATOM     10  C3  UNL     1     142.112 123.576 108.153  0.00  0.00    +0.045 A 
ATOM     11  C4  UNL     1     142.692 122.948 109.383  0.00  0.00    +0.066 C 
ATOM     12  N2  UNL     1     142.945 124.279 107.365  0.00  0.00    -0.219 NA
ATOM     13  C5  UNL     1     142.419 124.856 106.275  0.00  0.00    +0.221 A 
ATOM     14  N3  UNL     1     143.331 125.572 105.505  0.00  0.00    -0.284 N 
ATOM     15  N5  UNL     1     138.970 123.946 106.356  0.00  0.00    -0.315 N 
ATOM     16  C21 UNL     1     138.533 124.554 105.103  0.00  0.00    +0.106 C 
ATOM     17  C22 UNL     1     137.073 124.126 105.005  0.00  0.00    +0.020 C 
ATOM     18  C23 UNL     1     137.102 122.721 105.586  0.00  0.00    +0.020 C 
ATOM     19  C24 UNL     1     138.115 122.822 106.728  0.00  0.00    +0.106 C 
ATOM     20  H5  UNL     1     144.237 125.514 105.946  0.00  0.00    +0.155 HD
ENDBRANCH   1  14
BRANCH   6  21
ATOM     21  N4  UNL     1     143.019 128.714 100.822  0.00  0.00    -0.285 N 
ATOM     22  C12 UNL     1     143.072 130.095 100.735  0.00  0.00    +0.218 C 
ATOM     23  O1  UNL     1     143.242 130.880 101.661  0.00  0.00    -0.275 OA
ATOM     24  H10 UNL     1     142.871 128.209  99.956  0.00  0.00    +0.155 HD
BRANCH  22  25
ATOM     25  C13 UNL     1     142.889 130.564  99.302  0.00  0.00    +0.101 C 
BRANCH  25  26
ATOM     26  C14 UNL     1     141.513 131.181  99.074  0.00  0.00    +0.044 C 
BRANCH  26  27
ATOM     27  C15 UNL     1     140.420 130.302  99.629  0.00  0.00    -0.047 A 
ATOM     28  C16 UNL     1     139.790 130.629 100.837  0.00  0.00    +0.003 A 
ATOM     29  C17 UNL     1     138.795 129.802 101.362  0.00  0.00    +0.000 A 
ATOM     30  C18 UNL     1     138.425 128.639 100.687  0.00  0.00    +0.000 A 
ATOM     31  C19 UNL     1     139.048 128.303  99.487  0.00  0.00    +0.000 A 
ATOM     32  C20 UNL     1     140.043 129.129  98.960  0.00  0.00    +0.003 A 
ENDBRANCH  26  27
ENDBRANCH  25  26
ENDBRANCH  22  25
ENDBRANCH   6  21
TORSDOF 5
ENDMDL
MODEL 2
REMARK VINA RESULT:    -5.584     14.414     16.755
REMARK INTER + INTRA:          -7.909
REMARK INTER:                  -7.110
REMARK INTRA:                  -0.800
REMARK UNBOUND:                -0.693
REMARK  Name = /home/vital/Documents/PhD_2021/Malaria_codes/data/pdb_ligands_mmv/ligand_231.pdb
REMARK  6 active torsions:
REMARK  status: ('A' for Active; 'I' for Inactive)
REMARK    1  A    between atoms: C3_4  and  C4_5
REMARK    2  A    between atoms: N3_8  and  C6_9
REMARK    3  A    between atoms: C11_14  and  N4_15
REMARK    4  A    between atoms: C12_16  and  C13_17
REMARK    5  A    between atoms: C13_17  and  C14_18
REMARK    6  A    between atoms: C14_18  and  C15_19
REMARK                            x       y       z     vdW  Elec       q    Type
REMARK                         _______ _______ _______ _____ _____    ______ ____
ROOT
ATOM      1  C6  UNL     1     140.015 144.283 104.340  0.00  0.00    +0.034 A 
ATOM      2  C7  UNL     1     139.271 144.045 103.175  0.00  0.00    +0.025 A 
ATOM      3  C8  UNL     1     139.889 143.733 101.956  0.00  0.00    +0.025 A 
ATOM      4  C9  UNL     1     141.404 144.210 104.237  0.00  0.00    +0.025 A 
ATOM      5  C10 UNL     1     142.029 143.899 103.021  0.00  0.00    +0.025 A 
ATOM      6  C11 UNL     1     141.276 143.656 101.869  0.00  0.00    +0.033 A 
ENDROOT
BRANCH   1  14
ATOM      7  N1  UNL     1     139.782 142.822 107.047  0.00  0.00    -0.199 NA
ATOM      8  C1  UNL     1     139.589 142.270 108.258  0.00  0.00    +0.127 A 
ATOM      9  C2  UNL     1     138.741 142.869 109.167  0.00  0.00    +0.066 A 
ATOM     10  C3  UNL     1     138.134 144.048 108.792  0.00  0.00    +0.045 A 
ATOM     11  C4  UNL     1     137.201 144.750 109.732  0.00  0.00    +0.066 C 
ATOM     12  N2  UNL     1     138.343 144.612 107.590  0.00  0.00    -0.219 NA
ATOM     13  C5  UNL     1     139.163 143.971 106.745  0.00  0.00    +0.221 A 
ATOM     14  N3  UNL     1     139.333 144.604 105.516  0.00  0.00    -0.284 N 
ATOM     15  N5  UNL     1     140.228 141.082 108.546  0.00  0.00    -0.315 N 
ATOM     16  C21 UNL     1     141.158 140.522 107.572  0.00  0.00    +0.106 C 
ATOM     17  C22 UNL     1     141.742 139.321 108.307  0.00  0.00    +0.020 C 
ATOM     18  C23 UNL     1     141.832 139.823 109.739  0.00  0.00    +0.020 C 
ATOM     19  C24 UNL     1     140.570 140.671 109.905  0.00  0.00    +0.106 C 
ATOM     20  H5  UNL     1     138.776 145.446 105.510  0.00  0.00    +0.155 HD
ENDBRANCH   1  14
BRANCH   6  21
ATOM     21  N4  UNL     1     141.981 143.349 100.688  0.00  0.00    -0.285 N 
ATOM     22  C12 UNL     1     141.911 142.186  99.938  0.00  0.00    +0.218 C 
ATOM     23  O1  UNL     1     141.212 141.207 100.172  0.00  0.00    -0.275 OA
ATOM     24  H10 UNL     1     142.614 144.067 100.354  0.00  0.00    +0.155 HD
BRANCH  22  25
ATOM     25  C13 UNL     1     142.834 142.251  98.734  0.00  0.00    +0.101 C 
BRANCH  25  26
ATOM     26  C14 UNL     1     142.523 143.447  97.840  0.00  0.00    +0.044 C 
BRANCH  26  27
ATOM     27  C15 UNL     1     141.422 143.126  96.859  0.00  0.00    -0.047 A 
ATOM     28  C16 UNL     1     141.589 142.104  95.914  0.00  0.00    +0.003 A 
ATOM     29  C17 UNL     1     140.578 141.824  94.992  0.00  0.00    +0.000 A 
ATOM     30  C18 UNL     1     139.397 142.564  95.003  0.00  0.00    +0.000 A 
ATOM     31  C19 UNL     1     139.224 143.585  95.936  0.00  0.00    +0.000 A 
ATOM     32  C20 UNL     1     140.233 143.867  96.859  0.00  0.00    +0.003 A 
ENDBRANCH  26  27
ENDBRANCH  25  26
ENDBRANCH  22  25
ENDBRANCH   6  21
TORSDOF 5
ENDMDL
MODEL 3
REMARK VINA RESULT:    -5.222      7.888     13.274
REMARK INTER + INTRA:          -7.441
REMARK INTER:                  -6.619
REMARK INTRA:                  -0.822
REMARK UNBOUND:                -0.693
REMARK  Name = /home/vital/Documents/PhD_2021/Malaria_codes/data/pdb_ligands_mmv/ligand_231.pdb
REMARK  6 active torsions:
REMARK  status: ('A' for Active; 'I' for Inactive)
REMARK    1  A    between atoms: C3_4  and  C4_5
REMARK    2  A    between atoms: N3_8  and  C6_9
REMARK    3  A    between atoms: C11_14  and  N4_15
REMARK    4  A    between atoms: C12_16  and  C13_17
REMARK    5  A    between atoms: C13_17  and  C14_18
REMARK    6  A    between atoms: C14_18  and  C15_19
REMARK                            x       y       z     vdW  Elec       q    Type
REMARK                         _______ _______ _______ _____ _____    ______ ____
ROOT
ATOM      1  C6  UNL     1     142.117 131.514  91.089  0.00  0.00    +0.034 A 
ATOM      2  C7  UNL     1     141.234 132.256  91.886  0.00  0.00    +0.025 A 
ATOM      3  C8  UNL     1     141.573 132.659  93.186  0.00  0.00    +0.025 A 
ATOM      4  C9  UNL     1     143.352 131.178  91.647  0.00  0.00    +0.025 A 
ATOM      5  C10 UNL     1     143.697 131.578  92.946  0.00  0.00    +0.025 A 
ATOM      6  C11 UNL     1     142.810 132.323  93.727  0.00  0.00    +0.033 A 
ENDROOT
BRANCH   1  14
ATOM      7  N1  UNL     1     141.042 128.843  89.984  0.00  0.00    -0.199 NA
ATOM      8  C1  UNL     1     140.585 127.729  89.384  0.00  0.00    +0.127 A 
ATOM      9  C2  UNL     1     140.362 127.715  88.022  0.00  0.00    +0.066 A 
ATOM     10  C3  UNL     1     140.600 128.880  87.325  0.00  0.00    +0.045 A 
ATOM     11  C4  UNL     1     140.379 128.933  85.844  0.00  0.00    +0.066 C 
ATOM     12  N2  UNL     1     141.036 130.000  87.926  0.00  0.00    -0.219 NA
ATOM     13  C5  UNL     1     141.252 129.944  89.249  0.00  0.00    +0.221 A 
ATOM     14  N3  UNL     1     141.707 131.134  89.810  0.00  0.00    -0.284 N 
ATOM     15  N5  UNL     1     140.384 126.604  90.156  0.00  0.00    -0.315 N 
ATOM     16  C21 UNL     1     140.580 126.691  91.599  0.00  0.00    +0.106 C 
ATOM     17  C22 UNL     1     140.132 125.317  92.088  0.00  0.00    +0.020 C 
ATOM     18  C23 UNL     1     138.969 125.001  91.161  0.00  0.00    +0.020 C 
ATOM     19  C24 UNL     1     139.419 125.563  89.811  0.00  0.00    +0.106 C 
ATOM     20  H5  UNL     1     141.792 131.821  89.076  0.00  0.00    +0.155 HD
ENDBRANCH   1  14
BRANCH   6  21
ATOM     21  N4  UNL     1     143.235 132.684  95.022  0.00  0.00    -0.285 N 
ATOM     22  C12 UNL     1     143.246 131.894  96.159  0.00  0.00    +0.218 C 
ATOM     23  O1  UNL     1     142.883 130.727  96.242  0.00  0.00    -0.275 OA
ATOM     24  H10 UNL     1     143.570 133.635  95.125  0.00  0.00    +0.155 HD
BRANCH  22  25
ATOM     25  C13 UNL     1     143.779 132.661  97.357  0.00  0.00    +0.101 C 
BRANCH  25  26
ATOM     26  C14 UNL     1     142.655 133.228  98.219  0.00  0.00    +0.044 C 
BRANCH  26  27
ATOM     27  C15 UNL     1     142.201 132.228  99.253  0.00  0.00    -0.047 A 
ATOM     28  C16 UNL     1     140.929 131.646  99.167  0.00  0.00    +0.003 A 
ATOM     29  C17 UNL     1     140.501 130.738 100.138  0.00  0.00    +0.000 A 
ATOM     30  C18 UNL     1     141.337 130.408 101.203  0.00  0.00    +0.000 A 
ATOM     31  C19 UNL     1     142.602 130.985 101.300  0.00  0.00    +0.000 A 
ATOM     32  C20 UNL     1     143.032 131.893 100.331  0.00  0.00    +0.003 A 
ENDBRANCH  26  27
ENDBRANCH  25  26
ENDBRANCH  22  25
ENDBRANCH   6  21
TORSDOF 5
ENDMDL
MODEL 4
REMARK VINA RESULT:    -5.113      1.578      2.822
REMARK INTER + INTRA:          -7.300
REMARK INTER:                  -6.551
REMARK INTRA:                  -0.749
REMARK UNBOUND:                -0.693
REMARK  Name = /home/vital/Documents/PhD_2021/Malaria_codes/data/pdb_ligands_mmv/ligand_231.pdb
REMARK  6 active torsions:
REMARK  status: ('A' for Active; 'I' for Inactive)
REMARK    1  A    between atoms: C3_4  and  C4_5
REMARK    2  A    between atoms: N3_8  and  C6_9
REMARK    3  A    between atoms: C11_14  and  N4_15
REMARK    4  A    between atoms: C12_16  and  C13_17
REMARK    5  A    between atoms: C13_17  and  C14_18
REMARK    6  A    between atoms: C14_18  and  C15_19
REMARK                            x       y       z     vdW  Elec       q    Type
REMARK                         _______ _______ _______ _____ _____    ______ ____
ROOT
ATOM      1  C6  UNL     1     142.277 125.642 104.421  0.00  0.00    +0.034 A 
ATOM      2  C7  UNL     1     141.828 124.943 103.290  0.00  0.00    +0.025 A 
ATOM      3  C8  UNL     1     141.503 125.603 102.097  0.00  0.00    +0.025 A 
ATOM      4  C9  UNL     1     142.376 127.030 104.316  0.00  0.00    +0.025 A 
ATOM      5  C10 UNL     1     142.053 127.695 103.126  0.00  0.00    +0.025 A 
ATOM      6  C11 UNL     1     141.614 126.987 102.004  0.00  0.00    +0.033 A 
ENDROOT
BRANCH   1  14
ATOM      7  N1  UNL     1     140.528 123.849 106.222  0.00  0.00    -0.199 NA
ATOM      8  C1  UNL     1     139.864 123.065 107.090  0.00  0.00    +0.127 A 
ATOM      9  C2  UNL     1     140.498 122.584 108.217  0.00  0.00    +0.066 A 
ATOM     10  C3  UNL     1     141.825 122.915 108.392  0.00  0.00    +0.045 A 
ATOM     11  C4  UNL     1     142.573 122.426 109.595  0.00  0.00    +0.066 C 
ATOM     12  N2  UNL     1     142.496 123.680 107.514  0.00  0.00    -0.219 NA
ATOM     13  C5  UNL     1     141.818 124.132 106.449  0.00  0.00    +0.221 A 
ATOM     14  N3  UNL     1     142.568 124.922 105.581  0.00  0.00    -0.284 N 
ATOM     15  N5  UNL     1     138.534 122.793 106.842  0.00  0.00    -0.315 N 
ATOM     16  C21 UNL     1     137.929 123.279 105.607  0.00  0.00    +0.106 C 
ATOM     17  C22 UNL     1     136.534 122.663 105.644  0.00  0.00    +0.020 C 
ATOM     18  C23 UNL     1     136.792 121.303 106.273  0.00  0.00    +0.020 C 
ATOM     19  C24 UNL     1     137.866 121.587 107.324  0.00  0.00    +0.106 C 
ATOM     20  H5  UNL     1     143.504 125.001 105.950  0.00  0.00    +0.155 HD
ENDBRANCH   1  14
BRANCH   6  21
ATOM     21  N4  UNL     1     141.309 127.732 100.847  0.00  0.00    -0.285 N 
ATOM     22  C12 UNL     1     140.126 128.389 100.551  0.00  0.00    +0.218 C 
ATOM     23  O1  UNL     1     139.123 128.438 101.252  0.00  0.00    -0.275 OA
ATOM     24  H10 UNL     1     142.047 127.790 100.154  0.00  0.00    +0.155 HD
BRANCH  22  25
ATOM     25  C13 UNL     1     140.202 129.077  99.199  0.00  0.00    +0.101 C 
BRANCH  25  26
ATOM     26  C14 UNL     1     139.973 130.581  99.310  0.00  0.00    +0.044 C 
BRANCH  26  27
ATOM     27  C15 UNL     1     141.266 131.345  99.158  0.00  0.00    -0.047 A 
ATOM     28  C16 UNL     1     142.472 130.663  98.946  0.00  0.00    +0.003 A 
ATOM     29  C17 UNL     1     143.671 131.369  98.829  0.00  0.00    +0.000 A 
ATOM     30  C18 UNL     1     143.675 132.760  98.929  0.00  0.00    +0.000 A 
ATOM     31  C19 UNL     1     142.482 133.446  99.144  0.00  0.00    +0.000 A 
ATOM     32  C20 UNL     1     141.282 132.742  99.261  0.00  0.00    +0.003 A 
ENDBRANCH  26  27
ENDBRANCH  25  26
ENDBRANCH  22  25
ENDBRANCH   6  21
TORSDOF 5
ENDMDL
MODEL 5
REMARK VINA RESULT:    -5.085     14.486     17.991
REMARK INTER + INTRA:          -7.264
REMARK INTER:                  -6.296
REMARK INTRA:                  -0.968
REMARK UNBOUND:                -0.693
REMARK  Name = /home/vital/Documents/PhD_2021/Malaria_codes/data/pdb_ligands_mmv/ligand_231.pdb
REMARK  6 active torsions:
REMARK  status: ('A' for Active; 'I' for Inactive)
REMARK    1  A    between atoms: C3_4  and  C4_5
REMARK    2  A    between atoms: N3_8  and  C6_9
REMARK    3  A    between atoms: C11_14  and  N4_15
REMARK    4  A    between atoms: C12_16  and  C13_17
REMARK    5  A    between atoms: C13_17  and  C14_18
REMARK    6  A    between atoms: C14_18  and  C15_19
REMARK                            x       y       z     vdW  Elec       q    Type
REMARK                         _______ _______ _______ _____ _____    ______ ____
ROOT
ATOM      1  C6  UNL     1     137.883 125.567  89.200  0.00  0.00    +0.034 A 
ATOM      2  C7  UNL     1     136.559 125.738  89.630  0.00  0.00    +0.025 A 
ATOM      3  C8  UNL     1     135.523 124.908  89.180  0.00  0.00    +0.025 A 
ATOM      4  C9  UNL     1     138.130 124.538  88.289  0.00  0.00    +0.025 A 
ATOM      5  C10 UNL     1     137.099 123.704  87.836  0.00  0.00    +0.025 A 
ATOM      6  C11 UNL     1     135.785 123.881  88.278  0.00  0.00    +0.033 A 
ENDROOT
BRANCH   1  14
ATOM      7  N1  UNL     1     138.771 128.369  88.264  0.00  0.00    -0.199 NA
ATOM      8  C1  UNL     1     139.257 129.580  87.939  0.00  0.00    +0.127 A 
ATOM      9  C2  UNL     1     140.336 130.102  88.623  0.00  0.00    +0.066 A 
ATOM     10  C3  UNL     1     140.862 129.352  89.652  0.00  0.00    +0.045 A 
ATOM     11  C4  UNL     1     142.035 129.860  90.435  0.00  0.00    +0.066 C 
ATOM     12  N2  UNL     1     140.364 128.151  89.993  0.00  0.00    -0.219 NA
ATOM     13  C5  UNL     1     139.328 127.690  89.277  0.00  0.00    +0.221 A 
ATOM     14  N3  UNL     1     138.861 126.441  89.677  0.00  0.00    -0.284 N 
ATOM     15  N5  UNL     1     138.676 130.258  86.887  0.00  0.00    -0.315 N 
ATOM     16  C21 UNL     1     137.502 129.686  86.237  0.00  0.00    +0.106 C 
ATOM     17  C22 UNL     1     137.090 130.776  85.253  0.00  0.00    +0.020 C 
ATOM     18  C23 UNL     1     137.400 132.049  86.025  0.00  0.00    +0.020 C 
ATOM     19  C24 UNL     1     138.690 131.714  86.774  0.00  0.00    +0.106 C 
ATOM     20  H5  UNL     1     139.426 126.121  90.450  0.00  0.00    +0.155 HD
ENDBRANCH   1  14
BRANCH   6  21
ATOM     21  N4  UNL     1     134.808 122.999  87.773  0.00  0.00    -0.285 N 
ATOM     22  C12 UNL     1     134.126 123.092  86.571  0.00  0.00    +0.218 C 
ATOM     23  O1  UNL     1     134.254 123.968  85.724  0.00  0.00    -0.275 OA
ATOM     24  H10 UNL     1     134.582 122.208  88.364  0.00  0.00    +0.155 HD
BRANCH  22  25
ATOM     25  C13 UNL     1     133.153 121.938  86.400  0.00  0.00    +0.101 C 
BRANCH  25  26
ATOM     26  C14 UNL     1     131.721 122.425  86.195  0.00  0.00    +0.044 C 
BRANCH  26  27
ATOM     27  C15 UNL     1     131.121 122.923  87.487  0.00  0.00    -0.047 A 
ATOM     28  C16 UNL     1     130.745 124.265  87.624  0.00  0.00    +0.003 A 
ATOM     29  C17 UNL     1     130.212 124.730  88.828  0.00  0.00    +0.000 A 
ATOM     30  C18 UNL     1     130.055 123.859  89.905  0.00  0.00    +0.000 A 
ATOM     31  C19 UNL     1     130.430 122.522  89.780  0.00  0.00    +0.000 A 
ATOM     32  C20 UNL     1     130.963 122.056  88.576  0.00  0.00    +0.003 A 
ENDBRANCH  26  27
ENDBRANCH  25  26
ENDBRANCH  22  25
ENDBRANCH   6  21
TORSDOF 5
ENDMDL
MODEL 6
REMARK VINA RESULT:    -5.056      2.193      8.258
REMARK INTER + INTRA:          -7.227
REMARK INTER:                  -6.516
REMARK INTRA:                  -0.710
REMARK UNBOUND:                -0.693
REMARK  Name = /home/vital/Documents/PhD_2021/Malaria_codes/data/pdb_ligands_mmv/ligand_231.pdb
REMARK  6 active torsions:
REMARK  status: ('A' for Active; 'I' for Inactive)
REMARK    1  A    between atoms: C3_4  and  C4_5
REMARK    2  A    between atoms: N3_8  and  C6_9
REMARK    3  A    between atoms: C11_14  and  N4_15
REMARK    4  A    between atoms: C12_16  and  C13_17
REMARK    5  A    between atoms: C13_17  and  C14_18
REMARK    6  A    between atoms: C14_18  and  C15_19
REMARK                            x       y       z     vdW  Elec       q    Type
REMARK                         _______ _______ _______ _____ _____    ______ ____
ROOT
ATOM      1  C6  UNL     1     143.673 126.912 104.114  0.00  0.00    +0.034 A 
ATOM      2  C7  UNL     1     144.343 125.774 104.587  0.00  0.00    +0.025 A 
ATOM      3  C8  UNL     1     143.688 124.794 105.345  0.00  0.00    +0.025 A 
ATOM      4  C9  UNL     1     142.322 127.038 104.440  0.00  0.00    +0.025 A 
ATOM      5  C10 UNL     1     141.661 126.061 105.198  0.00  0.00    +0.025 A 
ATOM      6  C11 UNL     1     142.339 124.929 105.656  0.00  0.00    +0.033 A 
ENDROOT
BRANCH   1  14
ATOM      7  N1  UNL     1     142.950 128.543 101.598  0.00  0.00    -0.199 NA
ATOM      8  C1  UNL     1     142.758 129.291 100.497  0.00  0.00    +0.127 A 
ATOM      9  C2  UNL     1     143.781 130.075 100.003  0.00  0.00    +0.066 A 
ATOM     10  C3  UNL     1     144.974 130.076 100.693  0.00  0.00    +0.045 A 
ATOM     11  C4  UNL     1     146.125 130.905 100.211  0.00  0.00    +0.066 C 
ATOM     12  N2  UNL     1     145.160 129.347 101.806  0.00  0.00    -0.219 NA
ATOM     13  C5  UNL     1     144.134 128.590 102.224  0.00  0.00    +0.221 A 
ATOM     14  N3  UNL     1     144.392 127.856 103.379  0.00  0.00    -0.284 N 
ATOM     15  N5  UNL     1     141.536 129.221  99.862  0.00  0.00    -0.315 N 
ATOM     16  C21 UNL     1     140.472 128.421 100.459  0.00  0.00    +0.106 C 
ATOM     17  C22 UNL     1     139.277 128.713  99.557  0.00  0.00    +0.020 C 
ATOM     18  C23 UNL     1     139.478 130.180  99.209  0.00  0.00    +0.020 C 
ATOM     19  C24 UNL     1     140.994 130.312  99.056  0.00  0.00    +0.106 C 
ATOM     20  H5  UNL     1     145.339 128.045 103.672  0.00  0.00    +0.155 HD
ENDBRANCH   1  14
BRANCH   6  21
ATOM     21  N4  UNL     1     141.601 123.995 106.411  0.00  0.00    -0.285 N 
ATOM     22  C12 UNL     1     141.225 124.090 107.741  0.00  0.00    +0.218 C 
ATOM     23  O1  UNL     1     141.471 125.015 108.505  0.00  0.00    -0.275 OA
ATOM     24  H10 UNL     1     141.315 123.158 105.917  0.00  0.00    +0.155 HD
BRANCH  22  25
ATOM     25  C13 UNL     1     140.436 122.868 108.179  0.00  0.00    +0.101 C 
BRANCH  25  26
ATOM     26  C14 UNL     1     138.942 123.159 108.281  0.00  0.00    +0.044 C 
BRANCH  26  27
ATOM     27  C15 UNL     1     138.270 123.048 106.935  0.00  0.00    -0.047 A 
ATOM     28  C16 UNL     1     138.058 124.190 106.151  0.00  0.00    +0.003 A 
ATOM     29  C17 UNL     1     137.415 124.090 104.916  0.00  0.00    +0.000 A 
ATOM     30  C18 UNL     1     136.974 122.849 104.456  0.00  0.00    +0.000 A 
ATOM     31  C19 UNL     1     137.177 121.708 105.230  0.00  0.00    +0.000 A 
ATOM     32  C20 UNL     1     137.820 121.807 106.466  0.00  0.00    +0.003 A 
ENDBRANCH  26  27
ENDBRANCH  25  26
ENDBRANCH  22  25
ENDBRANCH   6  21
TORSDOF 5
ENDMDL
MODEL 7
REMARK VINA RESULT:    -4.985      7.202     10.064
REMARK INTER + INTRA:          -7.134
REMARK INTER:                  -6.206
REMARK INTRA:                  -0.928
REMARK UNBOUND:                -0.693
REMARK  Name = /home/vital/Documents/PhD_2021/Malaria_codes/data/pdb_ligands_mmv/ligand_231.pdb
REMARK  6 active torsions:
REMARK  status: ('A' for Active; 'I' for Inactive)
REMARK    1  A    between atoms: C3_4  and  C4_5
REMARK    2  A    between atoms: N3_8  and  C6_9
REMARK    3  A    between atoms: C11_14  and  N4_15
REMARK    4  A    between atoms: C12_16  and  C13_17
REMARK    5  A    between atoms: C13_17  and  C14_18
REMARK    6  A    between atoms: C14_18  and  C15_19
REMARK                            x       y       z     vdW  Elec       q    Type
REMARK                         _______ _______ _______ _____ _____    ______ ____
ROOT
ATOM      1  C6  UNL     1     141.654 127.303  94.672  0.00  0.00    +0.034 A 
ATOM      2  C7  UNL     1     140.442 127.545  94.008  0.00  0.00    +0.025 A 
ATOM      3  C8  UNL     1     140.320 128.553  93.041  0.00  0.00    +0.025 A 
ATOM      4  C9  UNL     1     142.738 128.116  94.340  0.00  0.00    +0.025 A 
ATOM      5  C10 UNL     1     142.622 129.125  93.373  0.00  0.00    +0.025 A 
ATOM      6  C11 UNL     1     141.411 129.352  92.714  0.00  0.00    +0.033 A 
ENDROOT
BRANCH   1  14
ATOM      7  N1  UNL     1     141.102 127.329  97.707  0.00  0.00    -0.199 NA
ATOM      8  C1  UNL     1     140.909 127.221  99.033  0.00  0.00    +0.127 A 
ATOM      9  C2  UNL     1     141.144 126.022  99.674  0.00  0.00    +0.066 A 
ATOM     10  C3  UNL     1     141.552 124.956  98.901  0.00  0.00    +0.045 A 
ATOM     11  C4  UNL     1     141.826 123.625  99.534  0.00  0.00    +0.066 C 
ATOM     12  N2  UNL     1     141.725 125.056  97.572  0.00  0.00    -0.219 NA
ATOM     13  C5  UNL     1     141.499 126.254  97.012  0.00  0.00    +0.221 A 
ATOM     14  N3  UNL     1     141.699 126.293  95.635  0.00  0.00    -0.284 N 
ATOM     15  N5  UNL     1     140.509 128.342  99.731  0.00  0.00    -0.315 N 
ATOM     16  C21 UNL     1     140.219 129.568  98.996  0.00  0.00    +0.106 C 
ATOM     17  C22 UNL     1     139.689 130.500 100.081  0.00  0.00    +0.020 C 
ATOM     18  C23 UNL     1     138.906 129.551 100.975  0.00  0.00    +0.020 C 
ATOM     19  C24 UNL     1     139.751 128.276 100.977  0.00  0.00    +0.106 C 
ATOM     20  H5  UNL     1     141.994 125.377  95.329  0.00  0.00    +0.155 HD
ENDBRANCH   1  14
BRANCH   6  21
ATOM     21  N4  UNL     1     141.380 130.386  91.756  0.00  0.00    -0.285 N 
ATOM     22  C12 UNL     1     141.209 131.742  91.981  0.00  0.00    +0.218 C 
ATOM     23  O1  UNL     1     141.054 132.289  93.066  0.00  0.00    -0.275 OA
ATOM     24  H10 UNL     1     141.496 130.096  90.793  0.00  0.00    +0.155 HD
BRANCH  22  25
ATOM     25  C13 UNL     1     141.235 132.523  90.679  0.00  0.00    +0.101 C 
BRANCH  25  26
ATOM     26  C14 UNL     1     141.525 131.625  89.480  0.00  0.00    +0.044 C 
BRANCH  26  27
ATOM     27  C15 UNL     1     140.383 131.644  88.493  0.00  0.00    -0.047 A 
ATOM     28  C16 UNL     1     140.474 132.398  87.316  0.00  0.00    +0.003 A 
ATOM     29  C17 UNL     1     139.408 132.433  86.415  0.00  0.00    +0.000 A 
ATOM     30  C18 UNL     1     138.241 131.719  86.686  0.00  0.00    +0.000 A 
ATOM     31  C19 UNL     1     138.139 130.970  87.857  0.00  0.00    +0.000 A 
ATOM     32  C20 UNL     1     139.205 130.933  88.758  0.00  0.00    +0.003 A 
ENDBRANCH  26  27
ENDBRANCH  25  26
ENDBRANCH  22  25
ENDBRANCH   6  21
TORSDOF 5
ENDMDL
MODEL 8
REMARK VINA RESULT:    -4.970      5.976     12.395
REMARK INTER + INTRA:          -7.116
REMARK INTER:                  -6.293
REMARK INTRA:                  -0.822
REMARK UNBOUND:                -0.693
REMARK  Name = /home/vital/Documents/PhD_2021/Malaria_codes/data/pdb_ligands_mmv/ligand_231.pdb
REMARK  6 active torsions:
REMARK  status: ('A' for Active; 'I' for Inactive)
REMARK    1  A    between atoms: C3_4  and  C4_5
REMARK    2  A    between atoms: N3_8  and  C6_9
REMARK    3  A    between atoms: C11_14  and  N4_15
REMARK    4  A    between atoms: C12_16  and  C13_17
REMARK    5  A    between atoms: C13_17  and  C14_18
REMARK    6  A    between atoms: C14_18  and  C15_19
REMARK                            x       y       z     vdW  Elec       q    Type
REMARK                         _______ _______ _______ _____ _____    ______ ____
ROOT
ATOM      1  C6  UNL     1     144.776 132.574  96.421  0.00  0.00    +0.034 A 
ATOM      2  C7  UNL     1     145.540 131.560  97.017  0.00  0.00    +0.025 A 
ATOM      3  C8  UNL     1     144.969 130.618  97.883  0.00  0.00    +0.025 A 
ATOM      4  C9  UNL     1     143.417 132.617  96.735  0.00  0.00    +0.025 A 
ATOM      5  C10 UNL     1     142.839 131.678  97.600  0.00  0.00    +0.025 A 
ATOM      6  C11 UNL     1     143.611 130.668  98.182  0.00  0.00    +0.033 A 
ENDROOT
BRANCH   1  14
ATOM      7  N1  UNL     1     144.345 133.285  93.450  0.00  0.00    -0.199 NA
ATOM      8  C1  UNL     1     144.265 133.664  92.162  0.00  0.00    +0.127 A 
ATOM      9  C2  UNL     1     145.165 134.576  91.650  0.00  0.00    +0.066 A 
ATOM     10  C3  UNL     1     146.113 135.089  92.509  0.00  0.00    +0.045 A 
ATOM     11  C4  UNL     1     147.121 136.083  92.017  0.00  0.00    +0.066 C 
ATOM     12  N2  UNL     1     146.180 134.728  93.802  0.00  0.00    -0.219 NA
ATOM     13  C5  UNL     1     145.289 133.823  94.234  0.00  0.00    +0.221 A 
ATOM     14  N3  UNL     1     145.414 133.488  95.580  0.00  0.00    -0.284 N 
ATOM     15  N5  UNL     1     143.292 133.091  91.369  0.00  0.00    -0.315 N 
ATOM     16  C21 UNL     1     142.331 132.177  91.976  0.00  0.00    +0.106 C 
ATOM     17  C22 UNL     1     141.367 131.886  90.831  0.00  0.00    +0.020 C 
ATOM     18  C23 UNL     1     141.298 133.223  90.110  0.00  0.00    +0.020 C 
ATOM     19  C24 UNL     1     142.729 133.755  90.196  0.00  0.00    +0.106 C 
ATOM     20  H5  UNL     1     146.186 134.010  95.969  0.00  0.00    +0.155 HD
ENDBRANCH   1  14
BRANCH   6  21
ATOM     21  N4  UNL     1     142.952 129.764  99.040  0.00  0.00    -0.285 N 
ATOM     22  C12 UNL     1     142.677 129.926 100.388  0.00  0.00    +0.218 C 
ATOM     23  O1  UNL     1     142.960 130.896 101.081  0.00  0.00    -0.275 OA
ATOM     24  H10 UNL     1     142.648 128.897  98.615  0.00  0.00    +0.155 HD
BRANCH  22  25
ATOM     25  C13 UNL     1     141.950 128.717 100.950  0.00  0.00    +0.101 C 
BRANCH  25  26
ATOM     26  C14 UNL     1     140.444 128.943 101.033  0.00  0.00    +0.044 C 
BRANCH  26  27
ATOM     27  C15 UNL     1     139.737 128.361  99.833  0.00  0.00    -0.047 A 
ATOM     28  C16 UNL     1     138.650 129.031  99.256  0.00  0.00    +0.003 A 
ATOM     29  C17 UNL     1     137.982 128.481  98.160  0.00  0.00    +0.000 A 
ATOM     30  C18 UNL     1     138.391 127.256  97.636  0.00  0.00    +0.000 A 
ATOM     31  C19 UNL     1     139.468 126.579  98.206  0.00  0.00    +0.000 A 
ATOM     32  C20 UNL     1     140.138 127.128  99.301  0.00  0.00    +0.003 A 
ENDBRANCH  26  27
ENDBRANCH  25  26
ENDBRANCH  22  25
ENDBRANCH   6  21
TORSDOF 5
ENDMDL
MODEL 9
REMARK VINA RESULT:    -4.897      6.219     12.143
REMARK INTER + INTRA:          -7.021
REMARK INTER:                  -6.206
REMARK INTRA:                  -0.815
REMARK UNBOUND:                -0.693
REMARK  Name = /home/vital/Documents/PhD_2021/Malaria_codes/data/pdb_ligands_mmv/ligand_231.pdb
REMARK  6 active torsions:
REMARK  status: ('A' for Active; 'I' for Inactive)
REMARK    1  A    between atoms: C3_4  and  C4_5
REMARK    2  A    between atoms: N3_8  and  C6_9
REMARK    3  A    between atoms: C11_14  and  N4_15
REMARK    4  A    between atoms: C12_16  and  C13_17
REMARK    5  A    between atoms: C13_17  and  C14_18
REMARK    6  A    between atoms: C14_18  and  C15_19
REMARK                            x       y       z     vdW  Elec       q    Type
REMARK                         _______ _______ _______ _____ _____    ______ ____
ROOT
ATOM      1  C6  UNL     1     144.615 131.950  96.020  0.00  0.00    +0.034 A 
ATOM      2  C7  UNL     1     144.327 132.856  97.052  0.00  0.00    +0.025 A 
ATOM      3  C8  UNL     1     143.581 132.478  98.178  0.00  0.00    +0.025 A 
ATOM      4  C9  UNL     1     144.117 130.653  96.151  0.00  0.00    +0.025 A 
ATOM      5  C10 UNL     1     143.371 130.269  97.274  0.00  0.00    +0.025 A 
ATOM      6  C11 UNL     1     143.097 131.179  98.299  0.00  0.00    +0.033 A 
ENDROOT
BRANCH   1  14
ATOM      7  N1  UNL     1     144.037 131.873  92.990  0.00  0.00    -0.199 NA
ATOM      8  C1  UNL     1     143.907 131.878  91.652  0.00  0.00    +0.127 A 
ATOM      9  C2  UNL     1     144.930 132.353  90.856  0.00  0.00    +0.066 A 
ATOM     10  C3  UNL     1     146.056 132.837  91.487  0.00  0.00    +0.045 A 
ATOM     11  C4  UNL     1     147.204 133.367  90.682  0.00  0.00    +0.066 C 
ATOM     12  N2  UNL     1     146.179 132.852  92.825  0.00  0.00    -0.219 NA
ATOM     13  C5  UNL     1     145.158 132.359  93.542  0.00  0.00    +0.221 A 
ATOM     14  N3  UNL     1     145.349 132.399  94.920  0.00  0.00    -0.284 N 
ATOM     15  N5  UNL     1     142.750 131.365  91.104  0.00  0.00    -0.315 N 
ATOM     16  C21 UNL     1     141.678 130.929  91.991  0.00  0.00    +0.106 C 
ATOM     17  C22 UNL     1     140.555 130.574  91.023  0.00  0.00    +0.020 C 
ATOM     18  C23 UNL     1     140.713 131.625  89.936  0.00  0.00    +0.020 C 
ATOM     19  C24 UNL     1     142.229 131.786  89.806  0.00  0.00    +0.106 C 
ATOM     20  H5  UNL     1     146.256 132.801  95.106  0.00  0.00    +0.155 HD
ENDBRANCH   1  14
BRANCH   6  21
ATOM     21  N4  UNL     1     142.341 130.712  99.393  0.00  0.00    -0.285 N 
ATOM     22  C12 UNL     1     141.042 131.054  99.730  0.00  0.00    +0.218 C 
ATOM     23  O1  UNL     1     140.311 131.832  99.129  0.00  0.00    -0.275 OA
ATOM     24  H10 UNL     1     142.809 130.050 100.000  0.00  0.00    +0.155 HD
BRANCH  22  25
ATOM     25  C13 UNL     1     140.590 130.329 100.987  0.00  0.00    +0.101 C 
BRANCH  25  26
ATOM     26  C14 UNL     1     139.201 129.719 100.826  0.00  0.00    +0.044 C 
BRANCH  26  27
ATOM     27  C15 UNL     1     139.201 128.624  99.787  0.00  0.00    -0.047 A 
ATOM     28  C16 UNL     1     140.165 127.608  99.827  0.00  0.00    +0.003 A 
ATOM     29  C17 UNL     1     140.179 126.609  98.852  0.00  0.00    +0.000 A 
ATOM     30  C18 UNL     1     139.233 126.619  97.828  0.00  0.00    +0.000 A 
ATOM     31  C19 UNL     1     138.272 127.628  97.778  0.00  0.00    +0.000 A 
ATOM     32  C20 UNL     1     138.257 128.628  98.752  0.00  0.00    +0.003 A 
ENDBRANCH  26  27
ENDBRANCH  25  26
ENDBRANCH  22  25
ENDBRANCH   6  21
TORSDOF 5
ENDMDL
