MODEL 1
REMARK VINA RESULT:    -4.056      0.000      0.000
REMARK INTER + INTRA:          -4.174
REMARK INTER:                  -4.174
REMARK INTRA:                   0.000
REMARK UNBOUND:                 0.000
REMARK  Name = /home/vital/Documents/PhD_2021/Malaria_codes/data/pdb_ligands_mmv/ligand_229.pdb
REMARK  1 active torsions:
REMARK  status: ('A' for Active; 'I' for Inactive)
REMARK    1  A    between atoms: O1_1  and  C1_2
REMARK                            x       y       z     vdW  Elec       q    Type
REMARK                         _______ _______ _______ _____ _____    ______ ____
ROOT
ATOM      1  C1  UNL     1     140.394 128.242 101.419  0.00  0.00    +0.131 A 
ATOM      2  C2  UNL     1     141.384 127.406 101.947  0.00  0.00    +0.016 A 
ATOM      3  C3  UNL     1     141.960 127.610 103.325  0.00  0.00    +0.040 C 
ATOM      4  C4  UNL     1     142.788 126.433 103.838  0.00  0.00    +0.005 C 
ATOM      5  C5  UNL     1     143.727 125.925 102.753  0.00  0.00    +0.006 C 
ATOM      6  C6  UNL     1     142.916 125.420 101.565  0.00  0.00    +0.056 C 
ATOM      7  C7  UNL     1     141.858 126.393 101.110  0.00  0.00    +0.049 A 
ATOM      8  N1  UNL     1     141.378 126.173  99.862  0.00  0.00    -0.251 NA
ATOM      9  C8  UNL     1     140.410 126.971  99.383  0.00  0.00    +0.075 A 
ATOM     10  C9  UNL     1     139.921 126.740  98.103  0.00  0.00    +0.028 A 
ATOM     11  C10 UNL     1     138.918 127.533  97.540  0.00  0.00    +0.002 A 
ATOM     12  C11 UNL     1     138.384 128.587  98.270  0.00  0.00    +0.001 A 
ATOM     13  C12 UNL     1     138.860 128.838  99.556  0.00  0.00    +0.013 A 
ATOM     14  C13 UNL     1     139.874 128.035 100.126  0.00  0.00    +0.042 A 
ENDROOT
BRANCH   1  15
ATOM     15  O1  UNL     1     139.891 129.298 102.140  0.00  0.00    -0.506 OA
ATOM     16  H1  UNL     1     138.958 129.438 101.917  0.00  0.00    +0.292 HD
ENDBRANCH   1  15
TORSDOF 1
ENDMDL
MODEL 2
REMARK VINA RESULT:    -3.867      2.594      5.276
REMARK INTER + INTRA:          -3.981
REMARK INTER:                  -3.981
REMARK INTRA:                   0.000
REMARK UNBOUND:                 0.000
REMARK  Name = /home/vital/Documents/PhD_2021/Malaria_codes/data/pdb_ligands_mmv/ligand_229.pdb
REMARK  1 active torsions:
REMARK  status: ('A' for Active; 'I' for Inactive)
REMARK    1  A    between atoms: O1_1  and  C1_2
REMARK                            x       y       z     vdW  Elec       q    Type
REMARK                         _______ _______ _______ _____ _____    ______ ____
ROOT
ATOM      1  C1  UNL     1     140.863 128.498 101.672  0.00  0.00    +0.131 A 
ATOM      2  C2  UNL     1     141.321 129.671 101.060  0.00  0.00    +0.016 A 
ATOM      3  C3  UNL     1     140.480 130.452 100.083  0.00  0.00    +0.040 C 
ATOM      4  C4  UNL     1     141.018 131.846  99.767  0.00  0.00    +0.005 C 
ATOM      5  C5  UNL     1     142.519 131.797  99.518  0.00  0.00    +0.006 C 
ATOM      6  C6  UNL     1     143.233 131.313 100.775  0.00  0.00    +0.056 C 
ATOM      7  C7  UNL     1     142.627 130.063 101.360  0.00  0.00    +0.049 A 
ATOM      8  N1  UNL     1     143.425 129.392 102.227  0.00  0.00    -0.251 NA
ATOM      9  C8  UNL     1     142.959 128.283 102.822  0.00  0.00    +0.075 A 
ATOM     10  C9  UNL     1     143.781 127.600 103.711  0.00  0.00    +0.028 A 
ATOM     11  C10 UNL     1     143.361 126.437 104.362  0.00  0.00    +0.002 A 
ATOM     12  C11 UNL     1     142.088 125.938 104.124  0.00  0.00    +0.001 A 
ATOM     13  C12 UNL     1     141.245 126.605 103.237  0.00  0.00    +0.013 A 
ATOM     14  C13 UNL     1     141.669 127.783 102.579  0.00  0.00    +0.042 A 
ENDROOT
BRANCH   1  15
ATOM     15  O1  UNL     1     139.610 127.998 101.411  0.00  0.00    -0.506 OA
ATOM     16  H1  UNL     1     139.618 127.032 101.479  0.00  0.00    +0.292 HD
ENDBRANCH   1  15
TORSDOF 1
ENDMDL
MODEL 3
REMARK VINA RESULT:    -3.824      2.218      2.874
REMARK INTER + INTRA:          -3.936
REMARK INTER:                  -3.936
REMARK INTRA:                   0.000
REMARK UNBOUND:                 0.000
REMARK  Name = /home/vital/Documents/PhD_2021/Malaria_codes/data/pdb_ligands_mmv/ligand_229.pdb
REMARK  1 active torsions:
REMARK  status: ('A' for Active; 'I' for Inactive)
REMARK    1  A    between atoms: O1_1  and  C1_2
REMARK                            x       y       z     vdW  Elec       q    Type
REMARK                         _______ _______ _______ _____ _____    ______ ____
ROOT
ATOM      1  C1  UNL     1     141.258 127.710 102.489  0.00  0.00    +0.131 A 
ATOM      2  C2  UNL     1     142.572 127.710 102.969  0.00  0.00    +0.016 A 
ATOM      3  C3  UNL     1     143.038 126.759 104.043  0.00  0.00    +0.040 C 
ATOM      4  C4  UNL     1     144.555 126.699 104.211  0.00  0.00    +0.005 C 
ATOM      5  C5  UNL     1     145.151 128.099 104.207  0.00  0.00    +0.006 C 
ATOM      6  C6  UNL     1     144.874 128.773 102.868  0.00  0.00    +0.056 C 
ATOM      7  C7  UNL     1     143.431 128.676 102.440  0.00  0.00    +0.049 A 
ATOM      8  N1  UNL     1     143.059 129.556 101.479  0.00  0.00    -0.251 NA
ATOM      9  C8  UNL     1     141.800 129.523 101.013  0.00  0.00    +0.075 A 
ATOM     10  C9  UNL     1     141.425 130.427 100.027  0.00  0.00    +0.028 A 
ATOM     11  C10 UNL     1     140.131 130.452  99.500  0.00  0.00    +0.002 A 
ATOM     12  C11 UNL     1     139.182 129.552  99.966  0.00  0.00    +0.001 A 
ATOM     13  C12 UNL     1     139.535 128.636 100.955  0.00  0.00    +0.013 A 
ATOM     14  C13 UNL     1     140.845 128.610 101.488  0.00  0.00    +0.042 A 
ENDROOT
BRANCH   1  15
ATOM     15  O1  UNL     1     140.320 126.832 102.975  0.00  0.00    -0.506 OA
ATOM     16  H1  UNL     1     139.819 127.246 103.694  0.00  0.00    +0.292 HD
ENDBRANCH   1  15
TORSDOF 1
ENDMDL
MODEL 4
REMARK VINA RESULT:    -3.813      2.642      3.441
REMARK INTER + INTRA:          -3.925
REMARK INTER:                  -3.925
REMARK INTRA:                   0.000
REMARK UNBOUND:                 0.000
REMARK  Name = /home/vital/Documents/PhD_2021/Malaria_codes/data/pdb_ligands_mmv/ligand_229.pdb
REMARK  1 active torsions:
REMARK  status: ('A' for Active; 'I' for Inactive)
REMARK    1  A    between atoms: O1_1  and  C1_2
REMARK                            x       y       z     vdW  Elec       q    Type
REMARK                         _______ _______ _______ _____ _____    ______ ____
ROOT
ATOM      1  C1  UNL     1     140.892 128.646 101.619  0.00  0.00    +0.131 A 
ATOM      2  C2  UNL     1     141.685 127.855 102.458  0.00  0.00    +0.016 A 
ATOM      3  C3  UNL     1     141.163 126.600 103.112  0.00  0.00    +0.040 C 
ATOM      4  C4  UNL     1     142.247 125.718 103.729  0.00  0.00    +0.005 C 
ATOM      5  C5  UNL     1     143.238 126.560 104.518  0.00  0.00    +0.006 C 
ATOM      6  C6  UNL     1     143.936 127.544 103.586  0.00  0.00    +0.056 C 
ATOM      7  C7  UNL     1     142.981 128.312 102.708  0.00  0.00    +0.049 A 
ATOM      8  N1  UNL     1     143.493 129.435 102.150  0.00  0.00    -0.251 NA
ATOM      9  C8  UNL     1     142.725 130.168 101.328  0.00  0.00    +0.075 A 
ATOM     10  C9  UNL     1     143.257 131.318 100.758  0.00  0.00    +0.028 A 
ATOM     11  C10 UNL     1     142.513 132.129  99.897  0.00  0.00    +0.002 A 
ATOM     12  C11 UNL     1     141.202 131.787  99.593  0.00  0.00    +0.001 A 
ATOM     13  C12 UNL     1     140.647 130.638 100.152  0.00  0.00    +0.013 A 
ATOM     14  C13 UNL     1     141.400 129.817 101.023  0.00  0.00    +0.042 A 
ENDROOT
BRANCH   1  15
ATOM     15  O1  UNL     1     139.588 128.312 101.344  0.00  0.00    -0.506 OA
ATOM     16  H1  UNL     1     139.164 129.021 100.838  0.00  0.00    +0.292 HD
ENDBRANCH   1  15
TORSDOF 1
ENDMDL
MODEL 5
REMARK VINA RESULT:    -3.813      2.370      5.581
REMARK INTER + INTRA:          -3.924
REMARK INTER:                  -3.924
REMARK INTRA:                   0.000
REMARK UNBOUND:                 0.000
REMARK  Name = /home/vital/Documents/PhD_2021/Malaria_codes/data/pdb_ligands_mmv/ligand_229.pdb
REMARK  1 active torsions:
REMARK  status: ('A' for Active; 'I' for Inactive)
REMARK    1  A    between atoms: O1_1  and  C1_2
REMARK                            x       y       z     vdW  Elec       q    Type
REMARK                         _______ _______ _______ _____ _____    ______ ____
ROOT
ATOM      1  C1  UNL     1     143.333 129.596 102.139  0.00  0.00    +0.131 A 
ATOM      2  C2  UNL     1     142.111 129.644 101.459  0.00  0.00    +0.016 A 
ATOM      3  C3  UNL     1     141.702 130.829 100.621  0.00  0.00    +0.040 C 
ATOM      4  C4  UNL     1     140.496 130.571  99.719  0.00  0.00    +0.005 C 
ATOM      5  C5  UNL     1     139.401 129.841 100.484  0.00  0.00    +0.006 C 
ATOM      6  C6  UNL     1     139.915 128.483 100.946  0.00  0.00    +0.056 C 
ATOM      7  C7  UNL     1     141.255 128.555 101.634  0.00  0.00    +0.049 A 
ATOM      8  N1  UNL     1     141.574 127.470 102.381  0.00  0.00    -0.251 NA
ATOM      9  C8  UNL     1     142.762 127.432 103.006  0.00  0.00    +0.075 A 
ATOM     10  C9  UNL     1     143.084 126.317 103.770  0.00  0.00    +0.028 A 
ATOM     11  C10 UNL     1     144.300 126.212 104.450  0.00  0.00    +0.002 A 
ATOM     12  C11 UNL     1     145.224 127.245 104.369  0.00  0.00    +0.001 A 
ATOM     13  C12 UNL     1     144.923 128.374 103.609  0.00  0.00    +0.013 A 
ATOM     14  C13 UNL     1     143.693 128.480 102.920  0.00  0.00    +0.042 A 
ENDROOT
BRANCH   1  15
ATOM     15  O1  UNL     1     144.230 130.635 102.073  0.00  0.00    -0.506 OA
ATOM     16  H1  UNL     1     145.106 130.336 102.361  0.00  0.00    +0.292 HD
ENDBRANCH   1  15
TORSDOF 1
ENDMDL
MODEL 6
REMARK VINA RESULT:    -3.734      4.424      5.557
REMARK INTER + INTRA:          -3.843
REMARK INTER:                  -3.843
REMARK INTRA:                   0.000
REMARK UNBOUND:                 0.000
REMARK  Name = /home/vital/Documents/PhD_2021/Malaria_codes/data/pdb_ligands_mmv/ligand_229.pdb
REMARK  1 active torsions:
REMARK  status: ('A' for Active; 'I' for Inactive)
REMARK    1  A    between atoms: O1_1  and  C1_2
REMARK                            x       y       z     vdW  Elec       q    Type
REMARK                         _______ _______ _______ _____ _____    ______ ____
ROOT
ATOM      1  C1  UNL     1     142.095 129.903  98.387  0.00  0.00    +0.131 A 
ATOM      2  C2  UNL     1     141.117 129.498  99.302  0.00  0.00    +0.016 A 
ATOM      3  C3  UNL     1     140.661 128.065  99.414  0.00  0.00    +0.040 C 
ATOM      4  C4  UNL     1     139.829 127.768 100.660  0.00  0.00    +0.005 C 
ATOM      5  C5  UNL     1     138.787 128.854 100.881  0.00  0.00    +0.006 C 
ATOM      6  C6  UNL     1     139.480 130.192 101.112  0.00  0.00    +0.056 C 
ATOM      7  C7  UNL     1     140.537 130.501 100.082  0.00  0.00    +0.049 A 
ATOM      8  N1  UNL     1     140.908 131.803 100.015  0.00  0.00    -0.251 NA
ATOM      9  C8  UNL     1     141.865 132.167  99.148  0.00  0.00    +0.075 A 
ATOM     10  C9  UNL     1     142.242 133.504  99.085  0.00  0.00    +0.028 A 
ATOM     11  C10 UNL     1     143.228 133.953  98.203  0.00  0.00    +0.002 A 
ATOM     12  C11 UNL     1     143.860 133.049  97.360  0.00  0.00    +0.001 A 
ATOM     13  C12 UNL     1     143.500 131.704  97.406  0.00  0.00    +0.013 A 
ATOM     14  C13 UNL     1     142.502 131.248  98.298  0.00  0.00    +0.042 A 
ENDROOT
BRANCH   1  15
ATOM     15  O1  UNL     1     142.697 129.004  97.540  0.00  0.00    -0.506 OA
ATOM     16  H1  UNL     1     142.102 128.258  97.371  0.00  0.00    +0.292 HD
ENDBRANCH   1  15
TORSDOF 1
ENDMDL
MODEL 7
REMARK VINA RESULT:    -3.642      2.227      2.728
REMARK INTER + INTRA:          -3.748
REMARK INTER:                  -3.748
REMARK INTRA:                   0.000
REMARK UNBOUND:                 0.000
REMARK  Name = /home/vital/Documents/PhD_2021/Malaria_codes/data/pdb_ligands_mmv/ligand_229.pdb
REMARK  1 active torsions:
REMARK  status: ('A' for Active; 'I' for Inactive)
REMARK    1  A    between atoms: O1_1  and  C1_2
REMARK                            x       y       z     vdW  Elec       q    Type
REMARK                         _______ _______ _______ _____ _____    ______ ____
ROOT
ATOM      1  C1  UNL     1     142.728 129.516 101.464  0.00  0.00    +0.131 A 
ATOM      2  C2  UNL     1     143.138 128.644 102.479  0.00  0.00    +0.016 A 
ATOM      3  C3  UNL     1     144.534 128.669 103.047  0.00  0.00    +0.040 C 
ATOM      4  C4  UNL     1     144.699 127.871 104.340  0.00  0.00    +0.005 C 
ATOM      5  C5  UNL     1     144.012 126.518 104.225  0.00  0.00    +0.006 C 
ATOM      6  C6  UNL     1     142.517 126.717 104.007  0.00  0.00    +0.056 C 
ATOM      7  C7  UNL     1     142.201 127.704 102.912  0.00  0.00    +0.049 A 
ATOM      8  N1  UNL     1     140.936 127.637 102.429  0.00  0.00    -0.251 NA
ATOM      9  C8  UNL     1     140.554 128.498 101.473  0.00  0.00    +0.075 A 
ATOM     10  C9  UNL     1     139.256 128.425 100.982  0.00  0.00    +0.028 A 
ATOM     11  C10 UNL     1     138.793 129.287  99.985  0.00  0.00    +0.002 A 
ATOM     12  C11 UNL     1     139.643 130.250  99.459  0.00  0.00    +0.001 A 
ATOM     13  C12 UNL     1     140.950 130.342  99.935  0.00  0.00    +0.013 A 
ATOM     14  C13 UNL     1     141.419 129.471 100.945  0.00  0.00    +0.042 A 
ENDROOT
BRANCH   1  15
ATOM     15  O1  UNL     1     143.585 130.449 100.933  0.00  0.00    -0.506 OA
ATOM     16  H1  UNL     1     144.025 130.938 101.645  0.00  0.00    +0.292 HD
ENDBRANCH   1  15
TORSDOF 1
ENDMDL
MODEL 8
REMARK VINA RESULT:    -3.624      2.406      5.567
REMARK INTER + INTRA:          -3.729
REMARK INTER:                  -3.729
REMARK INTRA:                   0.000
REMARK UNBOUND:                 0.000
REMARK  Name = /home/vital/Documents/PhD_2021/Malaria_codes/data/pdb_ligands_mmv/ligand_229.pdb
REMARK  1 active torsions:
REMARK  status: ('A' for Active; 'I' for Inactive)
REMARK    1  A    between atoms: O1_1  and  C1_2
REMARK                            x       y       z     vdW  Elec       q    Type
REMARK                         _______ _______ _______ _____ _____    ______ ____
ROOT
ATOM      1  C1  UNL     1     141.379 127.669 102.531  0.00  0.00    +0.131 A 
ATOM      2  C2  UNL     1     141.049 128.693 101.636  0.00  0.00    +0.016 A 
ATOM      3  C3  UNL     1     139.686 128.799 101.000  0.00  0.00    +0.040 C 
ATOM      4  C4  UNL     1     139.421 130.135 100.308  0.00  0.00    +0.005 C 
ATOM      5  C5  UNL     1     140.620 130.553  99.470  0.00  0.00    +0.006 C 
ATOM      6  C6  UNL     1     141.835 130.747 100.371  0.00  0.00    +0.056 C 
ATOM      7  C7  UNL     1     142.067 129.594 101.314  0.00  0.00    +0.049 A 
ATOM      8  N1  UNL     1     143.309 129.537 101.854  0.00  0.00    -0.251 NA
ATOM      9  C8  UNL     1     143.598 128.562 102.730  0.00  0.00    +0.075 A 
ATOM     10  C9  UNL     1     144.873 128.509 103.281  0.00  0.00    +0.028 A 
ATOM     11  C10 UNL     1     145.244 127.519 104.194  0.00  0.00    +0.002 A 
ATOM     12  C11 UNL     1     144.322 126.554 104.573  0.00  0.00    +0.001 A 
ATOM     13  C12 UNL     1     143.037 126.586 104.034  0.00  0.00    +0.013 A 
ATOM     14  C13 UNL     1     142.661 127.587 103.110  0.00  0.00    +0.042 A 
ENDROOT
BRANCH   1  15
ATOM     15  O1  UNL     1     140.466 126.703 102.880  0.00  0.00    -0.506 OA
ATOM     16  H1  UNL     1     139.705 126.735 102.282  0.00  0.00    +0.292 HD
ENDBRANCH   1  15
TORSDOF 1
ENDMDL
MODEL 9
REMARK VINA RESULT:    -3.421     16.075     17.531
REMARK INTER + INTRA:          -3.521
REMARK INTER:                  -3.521
REMARK INTRA:                   0.000
REMARK UNBOUND:                 0.000
REMARK  Name = /home/vital/Documents/PhD_2021/Malaria_codes/data/pdb_ligands_mmv/ligand_229.pdb
REMARK  1 active torsions:
REMARK  status: ('A' for Active; 'I' for Inactive)
REMARK    1  A    between atoms: O1_1  and  C1_2
REMARK                            x       y       z     vdW  Elec       q    Type
REMARK                         _______ _______ _______ _____ _____    ______ ____
ROOT
ATOM      1  C1  UNL     1     141.019 141.743  94.041  0.00  0.00    +0.131 A 
ATOM      2  C2  UNL     1     141.796 141.733  92.878  0.00  0.00    +0.016 A 
ATOM      3  C3  UNL     1     142.703 140.582  92.524  0.00  0.00    +0.040 C 
ATOM      4  C4  UNL     1     143.223 140.613  91.088  0.00  0.00    +0.005 C 
ATOM      5  C5  UNL     1     143.689 142.013  90.716  0.00  0.00    +0.006 C 
ATOM      6  C6  UNL     1     142.515 142.982  90.790  0.00  0.00    +0.056 C 
ATOM      7  C7  UNL     1     141.734 142.874  92.075  0.00  0.00    +0.049 A 
ATOM      8  N1  UNL     1     140.940 143.937  92.353  0.00  0.00    -0.251 NA
ATOM      9  C8  UNL     1     140.182 143.916  93.461  0.00  0.00    +0.075 A 
ATOM     10  C9  UNL     1     139.369 145.008  93.740  0.00  0.00    +0.028 A 
ATOM     11  C10 UNL     1     138.559 145.055  94.877  0.00  0.00    +0.002 A 
ATOM     12  C11 UNL     1     138.555 143.986  95.763  0.00  0.00    +0.001 A 
ATOM     13  C12 UNL     1     139.362 142.880  95.505  0.00  0.00    +0.013 A 
ATOM     14  C13 UNL     1     140.182 142.832  94.354  0.00  0.00    +0.042 A 
ENDROOT
BRANCH   1  15
ATOM     15  O1  UNL     1     141.041 140.690  94.925  0.00  0.00    -0.506 OA
ATOM     16  H1  UNL     1     140.417 140.851  95.648  0.00  0.00    +0.292 HD
ENDBRANCH   1  15
TORSDOF 1
ENDMDL
