MODEL 1
REMARK VINA RESULT:    -4.168      0.000      0.000
REMARK INTER + INTRA:          -5.221
REMARK INTER:                  -4.898
REMARK INTRA:                  -0.322
REMARK UNBOUND:                -0.322
REMARK  Name = /home/vital/Documents/PhD_2021/Malaria_codes/data/pdb_ligands_mmv/ligand_178.pdb
REMARK  6 active torsions:
REMARK  status: ('A' for Active; 'I' for Inactive)
REMARK    1  A    between atoms: C1_1  and  C2_2
REMARK    2  A    between atoms: C2_2  and  O1_3
REMARK    3  A    between atoms: O1_3  and  C3_4
REMARK    4  A    between atoms: C6_7  and  C9_10
REMARK    5  A    between atoms: N1_11  and  C10_12
REMARK    6  A    between atoms: N2_19  and  C17_20
REMARK                            x       y       z     vdW  Elec       q    Type
REMARK                         _______ _______ _______ _____ _____    ______ ____
ROOT
ATOM      1  C9  UNL     1     142.048 129.714  99.587  0.00  0.00    +0.192 C 
ATOM      2  N1  UNL     1     142.191 128.562  98.654  0.00  0.00    -0.309 N 
ATOM      3  C10 UNL     1     142.906 128.739  97.396  0.00  0.00    +0.131 C 
ATOM      4  C11 UNL     1     140.830 128.210  98.430  0.00  0.00    +0.052 A 
ATOM      5  C12 UNL     1     140.359 127.095  97.754  0.00  0.00    +0.025 A 
ATOM      6  C13 UNL     1     138.978 126.912  97.651  0.00  0.00    +0.002 A 
ATOM      7  C14 UNL     1     138.094 127.841  98.218  0.00  0.00    +0.002 A 
ATOM      8  C15 UNL     1     138.580 128.964  98.895  0.00  0.00    +0.025 A 
ATOM      9  C16 UNL     1     139.951 129.134  99.002  0.00  0.00    +0.052 A 
ATOM     10  N2  UNL     1     140.652 130.206  99.584  0.00  0.00    -0.309 N 
ATOM     11  C17 UNL     1     140.121 130.714 100.836  0.00  0.00    +0.131 C 
ENDROOT
BRANCH   1  15
ATOM     12  C3  UNL     1     144.942 132.895  98.916  0.00  0.00    +0.121 A 
ATOM     13  C4  UNL     1     143.683 132.952  98.316  0.00  0.00    +0.046 A 
ATOM     14  C5  UNL     1     142.744 131.938  98.524  0.00  0.00    +0.010 A 
ATOM     15  C6  UNL     1     143.043 130.846  99.352  0.00  0.00    -0.009 A 
ATOM     16  C7  UNL     1     144.314 130.796  99.950  0.00  0.00    +0.010 A 
ATOM     17  C8  UNL     1     145.253 131.813  99.737  0.00  0.00    +0.046 A 
BRANCH  12  18
ATOM     18  O1  UNL     1     145.754 133.955  98.626  0.00  0.00    -0.492 OA
BRANCH  18  20
ATOM     19  C1  UNL     1     145.914 135.654  96.903  0.00  0.00    +0.048 C 
ATOM     20  C2  UNL     1     145.169 135.157  98.130  0.00  0.00    +0.225 C 
ENDBRANCH  18  20
ENDBRANCH  12  18
ENDBRANCH   1  15
TORSDOF 3
ENDMDL
MODEL 2
REMARK VINA RESULT:    -4.050      4.063      6.979
REMARK INTER + INTRA:          -5.083
REMARK INTER:                  -4.748
REMARK INTRA:                  -0.335
REMARK UNBOUND:                -0.322
REMARK  Name = /home/vital/Documents/PhD_2021/Malaria_codes/data/pdb_ligands_mmv/ligand_178.pdb
REMARK  6 active torsions:
REMARK  status: ('A' for Active; 'I' for Inactive)
REMARK    1  A    between atoms: C1_1  and  C2_2
REMARK    2  A    between atoms: C2_2  and  O1_3
REMARK    3  A    between atoms: O1_3  and  C3_4
REMARK    4  A    between atoms: C6_7  and  C9_10
REMARK    5  A    between atoms: N1_11  and  C10_12
REMARK    6  A    between atoms: N2_19  and  C17_20
REMARK                            x       y       z     vdW  Elec       q    Type
REMARK                         _______ _______ _______ _____ _____    ______ ____
ROOT
ATOM      1  C9  UNL     1     141.108 127.085  97.900  0.00  0.00    +0.192 C 
ATOM      2  N1  UNL     1     139.775 127.021  98.559  0.00  0.00    -0.309 N 
ATOM      3  C10 UNL     1     138.570 126.941  97.741  0.00  0.00    +0.131 C 
ATOM      4  C11 UNL     1     139.790 128.210  99.342  0.00  0.00    +0.052 A 
ATOM      5  C12 UNL     1     138.856 128.593 100.293  0.00  0.00    +0.025 A 
ATOM      6  C13 UNL     1     139.052 129.797 100.974  0.00  0.00    +0.002 A 
ATOM      7  C14 UNL     1     140.169 130.597 100.693  0.00  0.00    +0.002 A 
ATOM      8  C15 UNL     1     141.103 130.202  99.730  0.00  0.00    +0.025 A 
ATOM      9  C16 UNL     1     140.907 129.002  99.066  0.00  0.00    +0.052 A 
ATOM     10  N2  UNL     1     141.681 128.444  98.032  0.00  0.00    -0.309 N 
ATOM     11  C17 UNL     1     143.121 128.549  98.181  0.00  0.00    +0.131 C 
ENDROOT
BRANCH   1  15
ATOM     12  C3  UNL     1     141.108 125.666  93.785  0.00  0.00    +0.121 A 
ATOM     13  C4  UNL     1     140.991 127.030  94.059  0.00  0.00    +0.046 A 
ATOM     14  C5  UNL     1     140.991 127.500  95.375  0.00  0.00    +0.010 A 
ATOM     15  C6  UNL     1     141.121 126.609  96.451  0.00  0.00    -0.009 A 
ATOM     16  C7  UNL     1     141.236 125.237  96.166  0.00  0.00    +0.010 A 
ATOM     17  C8  UNL     1     141.233 124.771  94.845  0.00  0.00    +0.046 A 
BRANCH  12  18
ATOM     18  O1  UNL     1     141.095 125.354  92.455  0.00  0.00    -0.492 OA
BRANCH  18  20
ATOM     19  C1  UNL     1     139.148 124.786  91.126  0.00  0.00    +0.048 C 
ATOM     20  C2  UNL     1     140.061 125.889  91.630  0.00  0.00    +0.225 C 
ENDBRANCH  18  20
ENDBRANCH  12  18
ENDBRANCH   1  15
TORSDOF 3
ENDMDL
MODEL 3
REMARK VINA RESULT:    -3.965     11.766     14.615
REMARK INTER + INTRA:          -4.982
REMARK INTER:                  -4.682
REMARK INTRA:                  -0.300
REMARK UNBOUND:                -0.322
REMARK  Name = /home/vital/Documents/PhD_2021/Malaria_codes/data/pdb_ligands_mmv/ligand_178.pdb
REMARK  6 active torsions:
REMARK  status: ('A' for Active; 'I' for Inactive)
REMARK    1  A    between atoms: C1_1  and  C2_2
REMARK    2  A    between atoms: C2_2  and  O1_3
REMARK    3  A    between atoms: O1_3  and  C3_4
REMARK    4  A    between atoms: C6_7  and  C9_10
REMARK    5  A    between atoms: N1_11  and  C10_12
REMARK    6  A    between atoms: N2_19  and  C17_20
REMARK                            x       y       z     vdW  Elec       q    Type
REMARK                         _______ _______ _______ _____ _____    ______ ____
ROOT
ATOM      1  C9  UNL     1     134.953 122.134  88.588  0.00  0.00    +0.192 C 
ATOM      2  N1  UNL     1     135.228 121.629  87.214  0.00  0.00    -0.309 N 
ATOM      3  C10 UNL     1     136.075 122.408  86.318  0.00  0.00    +0.131 C 
ATOM      4  C11 UNL     1     133.910 121.496  86.693  0.00  0.00    +0.052 A 
ATOM      5  C12 UNL     1     133.546 120.914  85.488  0.00  0.00    +0.025 A 
ATOM      6  C13 UNL     1     132.190 120.863  85.155  0.00  0.00    +0.002 A 
ATOM      7  C14 UNL     1     131.226 121.395  86.023  0.00  0.00    +0.002 A 
ATOM      8  C15 UNL     1     131.605 121.983  87.233  0.00  0.00    +0.025 A 
ATOM      9  C16 UNL     1     132.950 122.022  87.562  0.00  0.00    +0.052 A 
ATOM     10  N2  UNL     1     133.554 122.608  88.689  0.00  0.00    -0.309 N 
ATOM     11  C17 UNL     1     132.872 122.411  89.956  0.00  0.00    +0.131 C 
ENDROOT
BRANCH   1  15
ATOM     12  C3  UNL     1     137.712 125.171  90.039  0.00  0.00    +0.121 A 
ATOM     13  C4  UNL     1     138.087 123.826  90.031  0.00  0.00    +0.046 A 
ATOM     14  C5  UNL     1     137.211 122.841  89.566  0.00  0.00    +0.010 A 
ATOM     15  C6  UNL     1     135.939 123.184  89.086  0.00  0.00    -0.009 A 
ATOM     16  C7  UNL     1     135.569 124.541  89.100  0.00  0.00    +0.010 A 
ATOM     17  C8  UNL     1     136.449 125.525  89.568  0.00  0.00    +0.046 A 
BRANCH  12  18
ATOM     18  O1  UNL     1     138.668 126.021  90.517  0.00  0.00    -0.492 OA
BRANCH  18  20
ATOM     19  C1  UNL     1     140.316 125.982  92.295  0.00  0.00    +0.048 C 
ATOM     20  C2  UNL     1     139.931 125.487  90.913  0.00  0.00    +0.225 C 
ENDBRANCH  18  20
ENDBRANCH  12  18
ENDBRANCH   1  15
TORSDOF 3
ENDMDL
MODEL 4
REMARK VINA RESULT:    -3.949      4.233      7.810
REMARK INTER + INTRA:          -4.964
REMARK INTER:                  -4.574
REMARK INTRA:                  -0.390
REMARK UNBOUND:                -0.322
REMARK  Name = /home/vital/Documents/PhD_2021/Malaria_codes/data/pdb_ligands_mmv/ligand_178.pdb
REMARK  6 active torsions:
REMARK  status: ('A' for Active; 'I' for Inactive)
REMARK    1  A    between atoms: C1_1  and  C2_2
REMARK    2  A    between atoms: C2_2  and  O1_3
REMARK    3  A    between atoms: O1_3  and  C3_4
REMARK    4  A    between atoms: C6_7  and  C9_10
REMARK    5  A    between atoms: N1_11  and  C10_12
REMARK    6  A    between atoms: N2_19  and  C17_20
REMARK                            x       y       z     vdW  Elec       q    Type
REMARK                         _______ _______ _______ _____ _____    ______ ____
ROOT
ATOM      1  C9  UNL     1     140.410 127.514  97.589  0.00  0.00    +0.192 C 
ATOM      2  N1  UNL     1     141.684 128.078  98.115  0.00  0.00    -0.309 N 
ATOM      3  C10 UNL     1     142.715 127.178  98.618  0.00  0.00    +0.131 C 
ATOM      4  C11 UNL     1     141.207 128.941  99.142  0.00  0.00    +0.052 A 
ATOM      5  C12 UNL     1     141.951 129.853  99.876  0.00  0.00    +0.025 A 
ATOM      6  C13 UNL     1     141.297 130.628 100.836  0.00  0.00    +0.002 A 
ATOM      7  C14 UNL     1     139.919 130.479 101.051  0.00  0.00    +0.002 A 
ATOM      8  C15 UNL     1     139.179 129.555 100.307  0.00  0.00    +0.025 A 
ATOM      9  C16 UNL     1     139.832 128.796  99.349  0.00  0.00    +0.052 A 
ATOM     10  N2  UNL     1     139.302 127.779  98.534  0.00  0.00    -0.309 N 
ATOM     11  C17 UNL     1     137.988 128.031  97.970  0.00  0.00    +0.131 C 
ENDROOT
BRANCH   1  15
ATOM     12  C3  UNL     1     140.547 123.294  96.532  0.00  0.00    +0.121 A 
ATOM     13  C4  UNL     1     141.044 124.256  95.651  0.00  0.00    +0.046 A 
ATOM     14  C5  UNL     1     141.007 125.615  95.978  0.00  0.00    +0.010 A 
ATOM     15  C6  UNL     1     140.481 126.040  97.207  0.00  0.00    -0.009 A 
ATOM     16  C7  UNL     1     139.980 125.064  98.087  0.00  0.00    +0.010 A 
ATOM     17  C8  UNL     1     140.017 123.704  97.753  0.00  0.00    +0.046 A 
BRANCH  12  18
ATOM     18  O1  UNL     1     140.649 122.009  96.081  0.00  0.00    -0.492 OA
BRANCH  18  20
ATOM     19  C1  UNL     1     138.503 121.510  95.068  0.00  0.00    +0.048 C 
ATOM     20  C2  UNL     1     139.506 121.158  96.153  0.00  0.00    +0.225 C 
ENDBRANCH  18  20
ENDBRANCH  12  18
ENDBRANCH   1  15
TORSDOF 3
ENDMDL
MODEL 5
REMARK VINA RESULT:    -3.881     11.629     14.433
REMARK INTER + INTRA:          -4.884
REMARK INTER:                  -4.591
REMARK INTRA:                  -0.293
REMARK UNBOUND:                -0.322
REMARK  Name = /home/vital/Documents/PhD_2021/Malaria_codes/data/pdb_ligands_mmv/ligand_178.pdb
REMARK  6 active torsions:
REMARK  status: ('A' for Active; 'I' for Inactive)
REMARK    1  A    between atoms: C1_1  and  C2_2
REMARK    2  A    between atoms: C2_2  and  O1_3
REMARK    3  A    between atoms: O1_3  and  C3_4
REMARK    4  A    between atoms: C6_7  and  C9_10
REMARK    5  A    between atoms: N1_11  and  C10_12
REMARK    6  A    between atoms: N2_19  and  C17_20
REMARK                            x       y       z     vdW  Elec       q    Type
REMARK                         _______ _______ _______ _____ _____    ______ ____
ROOT
ATOM      1  C9  UNL     1     134.942 122.267  88.695  0.00  0.00    +0.192 C 
ATOM      2  N1  UNL     1     135.199 121.784  87.311  0.00  0.00    -0.309 N 
ATOM      3  C10 UNL     1     136.071 122.552  86.430  0.00  0.00    +0.131 C 
ATOM      4  C11 UNL     1     133.877 121.707  86.789  0.00  0.00    +0.052 A 
ATOM      5  C12 UNL     1     133.492 121.164  85.572  0.00  0.00    +0.025 A 
ATOM      6  C13 UNL     1     132.135 121.166  85.241  0.00  0.00    +0.002 A 
ATOM      7  C14 UNL     1     131.190 121.712  86.121  0.00  0.00    +0.002 A 
ATOM      8  C15 UNL     1     131.590 122.260  87.343  0.00  0.00    +0.025 A 
ATOM      9  C16 UNL     1     132.936 122.246  87.671  0.00  0.00    +0.052 A 
ATOM     10  N2  UNL     1     133.560 122.786  88.809  0.00  0.00    -0.309 N 
ATOM     11  C17 UNL     1     132.874 122.586  90.072  0.00  0.00    +0.131 C 
ENDROOT
BRANCH   1  15
ATOM     12  C3  UNL     1     137.914 125.097  90.148  0.00  0.00    +0.121 A 
ATOM     13  C4  UNL     1     136.671 125.550  89.699  0.00  0.00    +0.046 A 
ATOM     14  C5  UNL     1     135.708 124.652  89.231  0.00  0.00    +0.010 A 
ATOM     15  C6  UNL     1     135.964 123.273  89.214  0.00  0.00    -0.009 A 
ATOM     16  C7  UNL     1     137.218 122.826  89.666  0.00  0.00    +0.010 A 
ATOM     17  C8  UNL     1     138.182 123.730  90.132  0.00  0.00    +0.046 A 
BRANCH  12  18
ATOM     18  O1  UNL     1     138.753 126.085  90.577  0.00  0.00    -0.492 OA
BRANCH  18  20
ATOM     19  C1  UNL     1     140.345 125.801  92.385  0.00  0.00    +0.048 C 
ATOM     20  C2  UNL     1     140.107 125.755  90.886  0.00  0.00    +0.225 C 
ENDBRANCH  18  20
ENDBRANCH  12  18
ENDBRANCH   1  15
TORSDOF 3
ENDMDL
MODEL 6
REMARK VINA RESULT:    -3.732      4.118      6.719
REMARK INTER + INTRA:          -4.709
REMARK INTER:                  -4.382
REMARK INTRA:                  -0.327
REMARK UNBOUND:                -0.322
REMARK  Name = /home/vital/Documents/PhD_2021/Malaria_codes/data/pdb_ligands_mmv/ligand_178.pdb
REMARK  6 active torsions:
REMARK  status: ('A' for Active; 'I' for Inactive)
REMARK    1  A    between atoms: C1_1  and  C2_2
REMARK    2  A    between atoms: C2_2  and  O1_3
REMARK    3  A    between atoms: O1_3  and  C3_4
REMARK    4  A    between atoms: C6_7  and  C9_10
REMARK    5  A    between atoms: N1_11  and  C10_12
REMARK    6  A    between atoms: N2_19  and  C17_20
REMARK                            x       y       z     vdW  Elec       q    Type
REMARK                         _______ _______ _______ _____ _____    ______ ____
ROOT
ATOM      1  C9  UNL     1     141.462 129.007 100.078  0.00  0.00    +0.192 C 
ATOM      2  N1  UNL     1     142.515 128.998  99.025  0.00  0.00    -0.309 N 
ATOM      3  C10 UNL     1     143.846 128.492  99.343  0.00  0.00    +0.131 C 
ATOM      4  C11 UNL     1     142.560 130.373  98.659  0.00  0.00    +0.052 A 
ATOM      5  C12 UNL     1     143.263 130.930  97.601  0.00  0.00    +0.025 A 
ATOM      6  C13 UNL     1     143.169 132.308  97.390  0.00  0.00    +0.002 A 
ATOM      7  C14 UNL     1     142.383 133.103  98.236  0.00  0.00    +0.002 A 
ATOM      8  C15 UNL     1     141.681 132.531  99.301  0.00  0.00    +0.025 A 
ATOM      9  C16 UNL     1     141.771 131.163  99.499  0.00  0.00    +0.052 A 
ATOM     10  N2  UNL     1     141.200 130.393 100.529  0.00  0.00    -0.309 N 
ATOM     11  C17 UNL     1     139.837 130.728 100.899  0.00  0.00    +0.131 C 
ENDROOT
BRANCH   1  15
ATOM     12  C3  UNL     1     142.232 126.407 103.482  0.00  0.00    +0.121 A 
ATOM     13  C4  UNL     1     141.510 125.934 102.385  0.00  0.00    +0.046 A 
ATOM     14  C5  UNL     1     141.256 126.758 101.285  0.00  0.00    +0.010 A 
ATOM     15  C6  UNL     1     141.734 128.076 101.254  0.00  0.00    -0.009 A 
ATOM     16  C7  UNL     1     142.459 128.544 102.364  0.00  0.00    +0.010 A 
ATOM     17  C8  UNL     1     142.708 127.716 103.466  0.00  0.00    +0.046 A 
BRANCH  12  18
ATOM     18  O1  UNL     1     142.404 125.492 104.482  0.00  0.00    -0.492 OA
BRANCH  18  20
ATOM     19  C1  UNL     1     141.259 125.703 106.609  0.00  0.00    +0.048 C 
ATOM     20  C2  UNL     1     141.267 125.066 105.231  0.00  0.00    +0.225 C 
ENDBRANCH  18  20
ENDBRANCH  12  18
ENDBRANCH   1  15
TORSDOF 3
ENDMDL
MODEL 7
REMARK VINA RESULT:    -3.681     13.215     15.380
REMARK INTER + INTRA:          -4.648
REMARK INTER:                  -4.283
REMARK INTRA:                  -0.366
REMARK UNBOUND:                -0.322
REMARK  Name = /home/vital/Documents/PhD_2021/Malaria_codes/data/pdb_ligands_mmv/ligand_178.pdb
REMARK  6 active torsions:
REMARK  status: ('A' for Active; 'I' for Inactive)
REMARK    1  A    between atoms: C1_1  and  C2_2
REMARK    2  A    between atoms: C2_2  and  O1_3
REMARK    3  A    between atoms: O1_3  and  C3_4
REMARK    4  A    between atoms: C6_7  and  C9_10
REMARK    5  A    between atoms: N1_11  and  C10_12
REMARK    6  A    between atoms: N2_19  and  C17_20
REMARK                            x       y       z     vdW  Elec       q    Type
REMARK                         _______ _______ _______ _____ _____    ______ ____
ROOT
ATOM      1  C9  UNL     1     140.466 141.484 107.885  0.00  0.00    +0.192 C 
ATOM      2  N1  UNL     1     140.210 142.688 107.047  0.00  0.00    -0.309 N 
ATOM      3  C10 UNL     1     141.333 143.506 106.601  0.00  0.00    +0.131 C 
ATOM      4  C11 UNL     1     139.330 143.432 107.882  0.00  0.00    +0.052 A 
ATOM      5  C12 UNL     1     138.638 144.585 107.545  0.00  0.00    +0.025 A 
ATOM      6  C13 UNL     1     137.802 145.166 108.502  0.00  0.00    +0.002 A 
ATOM      7  C14 UNL     1     137.675 144.592 109.775  0.00  0.00    +0.002 A 
ATOM      8  C15 UNL     1     138.379 143.430 110.105  0.00  0.00    +0.025 A 
ATOM      9  C16 UNL     1     139.199 142.854 109.148  0.00  0.00    +0.052 A 
ATOM     10  N2  UNL     1     140.033 141.729 109.280  0.00  0.00    -0.309 N 
ATOM     11  C17 UNL     1     139.481 140.605 110.015  0.00  0.00    +0.131 C 
ENDROOT
BRANCH   1  15
ATOM     12  C3  UNL     1     144.553 139.991 107.786  0.00  0.00    +0.121 A 
ATOM     13  C4  UNL     1     143.643 139.618 106.795  0.00  0.00    +0.046 A 
ATOM     14  C5  UNL     1     142.328 140.091 106.813  0.00  0.00    +0.010 A 
ATOM     15  C6  UNL     1     141.897 140.963 107.824  0.00  0.00    -0.009 A 
ATOM     16  C7  UNL     1     142.819 141.331 108.820  0.00  0.00    +0.010 A 
ATOM     17  C8  UNL     1     144.135 140.852 108.798  0.00  0.00    +0.046 A 
BRANCH  12  18
ATOM     18  O1  UNL     1     145.800 139.455 107.639  0.00  0.00    -0.492 OA
BRANCH  18  20
ATOM     19  C1  UNL     1     146.321 137.643 109.165  0.00  0.00    +0.048 C 
ATOM     20  C2  UNL     1     146.542 139.102 108.806  0.00  0.00    +0.225 C 
ENDBRANCH  18  20
ENDBRANCH  12  18
ENDBRANCH   1  15
TORSDOF 3
ENDMDL
MODEL 8
REMARK VINA RESULT:    -3.131     15.024     17.018
REMARK INTER + INTRA:          -4.003
REMARK INTER:                  -3.748
REMARK INTRA:                  -0.255
REMARK UNBOUND:                -0.322
REMARK  Name = /home/vital/Documents/PhD_2021/Malaria_codes/data/pdb_ligands_mmv/ligand_178.pdb
REMARK  6 active torsions:
REMARK  status: ('A' for Active; 'I' for Inactive)
REMARK    1  A    between atoms: C1_1  and  C2_2
REMARK    2  A    between atoms: C2_2  and  O1_3
REMARK    3  A    between atoms: O1_3  and  C3_4
REMARK    4  A    between atoms: C6_7  and  C9_10
REMARK    5  A    between atoms: N1_11  and  C10_12
REMARK    6  A    between atoms: N2_19  and  C17_20
REMARK                            x       y       z     vdW  Elec       q    Type
REMARK                         _______ _______ _______ _____ _____    ______ ____
ROOT
ATOM      1  C9  UNL     1     135.384 123.056  85.932  0.00  0.00    +0.192 C 
ATOM      2  N1  UNL     1     136.180 121.884  85.474  0.00  0.00    -0.309 N 
ATOM      3  C10 UNL     1     136.023 120.601  86.148  0.00  0.00    +0.131 C 
ATOM      4  C11 UNL     1     137.509 122.377  85.606  0.00  0.00    +0.052 A 
ATOM      5  C12 UNL     1     138.673 121.760  85.172  0.00  0.00    +0.025 A 
ATOM      6  C13 UNL     1     139.891 122.413  85.378  0.00  0.00    +0.002 A 
ATOM      7  C14 UNL     1     139.928 123.661  86.015  0.00  0.00    +0.002 A 
ATOM      8  C15 UNL     1     138.749 124.273  86.451  0.00  0.00    +0.025 A 
ATOM      9  C16 UNL     1     137.543 123.625  86.235  0.00  0.00    +0.052 A 
ATOM     10  N2  UNL     1     136.256 124.025  86.635  0.00  0.00    -0.309 N 
ATOM     11  C17 UNL     1     135.947 125.435  86.481  0.00  0.00    +0.131 C 
ENDROOT
BRANCH   1  15
ATOM     12  C3  UNL     1     131.897 122.093  88.353  0.00  0.00    +0.121 A 
ATOM     13  C4  UNL     1     131.800 122.123  86.960  0.00  0.00    +0.046 A 
ATOM     14  C5  UNL     1     132.913 122.430  86.171  0.00  0.00    +0.010 A 
ATOM     15  C6  UNL     1     134.155 122.702  86.762  0.00  0.00    -0.009 A 
ATOM     16  C7  UNL     1     134.243 122.671  88.165  0.00  0.00    +0.010 A 
ATOM     17  C8  UNL     1     133.125 122.366  88.952  0.00  0.00    +0.046 A 
BRANCH  12  18
ATOM     18  O1  UNL     1     130.733 121.777  88.993  0.00  0.00    -0.492 OA
BRANCH  18  20
ATOM     19  C1  UNL     1     130.292 124.060  89.680  0.00  0.00    +0.048 C 
ATOM     20  C2  UNL     1     130.298 122.595  90.078  0.00  0.00    +0.225 C 
ENDBRANCH  18  20
ENDBRANCH  12  18
ENDBRANCH   1  15
TORSDOF 3
ENDMDL
