MODEL 1
REMARK VINA RESULT:    -4.966      0.000      0.000
REMARK INTER + INTRA:          -6.611
REMARK INTER:                  -6.127
REMARK INTRA:                  -0.484
REMARK UNBOUND:                -0.484
REMARK  Name = /home/vital/Documents/PhD_2021/Malaria_codes/data/pdb_ligands_mmv/ligand_10.pdb
REMARK  7 active torsions:
REMARK  status: ('A' for Active; 'I' for Inactive)
REMARK    1  A    between atoms: C1_1  and  O1_2
REMARK    2  A    between atoms: O1_2  and  C2_3
REMARK    3  A    between atoms: C4_5  and  O2_6
REMARK    4  A    between atoms: O2_6  and  C5_7
REMARK    5  A    between atoms: C6_8  and  N1_12
REMARK    6  A    between atoms: N1_12  and  C9_13
REMARK    7  A    between atoms: C10_14  and  C11_16
REMARK                            x       y       z     vdW  Elec       q    Type
REMARK                         _______ _______ _______ _____ _____    ______ ____
ROOT
ATOM      1  N1  UNL     1     144.789 133.835  98.301  0.00  0.00    -0.267 N 
ATOM      2  C9  UNL     1     145.687 132.909  98.985  0.00  0.00    +0.139 C 
ATOM      3  C10 UNL     1     143.393 133.779  98.527  0.00  0.00    +0.257 C 
ATOM      4  O3  UNL     1     142.681 134.785  98.543  0.00  0.00    -0.269 OA
ENDROOT
BRANCH   3   5
ATOM      5  C11 UNL     1     142.827 132.479  98.852  0.00  0.00    +0.075 A 
ATOM      6  C12 UNL     1     142.315 132.060 100.061  0.00  0.00    +0.026 A 
ATOM      7  C13 UNL     1     141.826 130.717 100.007  0.00  0.00    -0.011 A 
ATOM      8  C14 UNL     1     141.265 129.961 101.167  0.00  0.00    +0.208 C 
ATOM      9  S1  UNL     1     140.046 128.754 100.673  0.00  0.00    +0.002 S 
ATOM     10  O4  UNL     1     140.072 127.685 101.658  0.00  0.00    -0.169 OA
ATOM     11  O5  UNL     1     138.805 129.431 100.350  0.00  0.00    -0.169 OA
ATOM     12  C15 UNL     1     140.661 128.069  99.154  0.00  0.00    +0.097 A 
ATOM     13  C16 UNL     1     140.266 126.765  98.822  0.00  0.00    +0.027 A 
ATOM     14  C17 UNL     1     140.731 126.186  97.645  0.00  0.00    +0.002 A 
ATOM     15  C18 UNL     1     141.584 126.906  96.811  0.00  0.00    +0.001 A 
ATOM     16  C19 UNL     1     141.978 128.206  97.153  0.00  0.00    +0.011 A 
ATOM     17  C20 UNL     1     141.525 128.817  98.335  0.00  0.00    +0.014 A 
ATOM     18  C21 UNL     1     141.943 130.173  98.736  0.00  0.00    +0.027 A 
ATOM     19  S2  UNL     1     142.611 131.302  97.635  0.00  0.00    -0.083 S 
ENDBRANCH   3   5
BRANCH   1  23
ATOM     20  C2  UNL     1     146.511 137.372  96.625  0.00  0.00    +0.142 A 
ATOM     21  C3  UNL     1     146.353 136.224  95.844  0.00  0.00    +0.094 A 
ATOM     22  C4  UNL     1     145.773 135.065  96.384  0.00  0.00    +0.145 A 
ATOM     23  C6  UNL     1     145.356 135.027  97.730  0.00  0.00    +0.080 A 
ATOM     24  C7  UNL     1     145.538 136.174  98.512  0.00  0.00    +0.051 A 
ATOM     25  C8  UNL     1     146.100 137.332  97.964  0.00  0.00    +0.084 A 
ATOM     26 CL1  UNL     1     146.275 138.709  99.000  0.00  0.00    -0.080 Cl
BRANCH  20  28
ATOM     27  C1  UNL     1     146.263 139.401  95.383  0.00  0.00    +0.277 C 
ATOM     28  O1  UNL     1     147.069 138.544  96.185  0.00  0.00    -0.494 OA
ENDBRANCH  20  28
BRANCH  22  29
ATOM     29  O2  UNL     1     145.750 133.893  95.663  0.00  0.00    -0.493 OA
ATOM     30  C5  UNL     1     145.579 134.088  94.257  0.00  0.00    +0.277 C 
ENDBRANCH  22  29
ENDBRANCH   1  23
TORSDOF 4
ENDMDL
MODEL 2
REMARK VINA RESULT:    -4.841      7.527     10.505
REMARK INTER + INTRA:          -6.457
REMARK INTER:                  -5.982
REMARK INTRA:                  -0.475
REMARK UNBOUND:                -0.484
REMARK  Name = /home/vital/Documents/PhD_2021/Malaria_codes/data/pdb_ligands_mmv/ligand_10.pdb
REMARK  7 active torsions:
REMARK  status: ('A' for Active; 'I' for Inactive)
REMARK    1  A    between atoms: C1_1  and  O1_2
REMARK    2  A    between atoms: O1_2  and  C2_3
REMARK    3  A    between atoms: C4_5  and  O2_6
REMARK    4  A    between atoms: O2_6  and  C5_7
REMARK    5  A    between atoms: C6_8  and  N1_12
REMARK    6  A    between atoms: N1_12  and  C9_13
REMARK    7  A    between atoms: C10_14  and  C11_16
REMARK                            x       y       z     vdW  Elec       q    Type
REMARK                         _______ _______ _______ _____ _____    ______ ____
ROOT
ATOM      1  N1  UNL     1     141.320 126.024 103.032  0.00  0.00    -0.267 N 
ATOM      2  C9  UNL     1     141.648 124.640 102.701  0.00  0.00    +0.139 C 
ATOM      3  C10 UNL     1     141.171 126.422 104.382  0.00  0.00    +0.257 C 
ATOM      4  O3  UNL     1     141.515 127.533 104.789  0.00  0.00    -0.269 OA
ENDROOT
BRANCH   3   5
ATOM      5  C11 UNL     1     140.686 125.420 105.318  0.00  0.00    +0.075 A 
ATOM      6  C12 UNL     1     141.318 124.943 106.446  0.00  0.00    +0.026 A 
ATOM      7  C13 UNL     1     140.530 123.970 107.139  0.00  0.00    -0.011 A 
ATOM      8  C14 UNL     1     140.963 123.229 108.362  0.00  0.00    +0.208 C 
ATOM      9  S1  UNL     1     139.590 122.779 109.411  0.00  0.00    +0.002 S 
ATOM     10  O4  UNL     1     139.972 121.575 110.130  0.00  0.00    -0.169 OA
ATOM     11  O5  UNL     1     139.130 123.953 110.127  0.00  0.00    -0.169 OA
ATOM     12  C15 UNL     1     138.285 122.322 108.296  0.00  0.00    +0.097 A 
ATOM     13  C16 UNL     1     137.320 121.416 108.761  0.00  0.00    +0.027 A 
ATOM     14  C17 UNL     1     136.285 121.024 107.918  0.00  0.00    +0.002 A 
ATOM     15  C18 UNL     1     136.219 121.532 106.623  0.00  0.00    +0.001 A 
ATOM     16  C19 UNL     1     137.189 122.432 106.164  0.00  0.00    +0.011 A 
ATOM     17  C20 UNL     1     138.247 122.847 106.993  0.00  0.00    +0.014 A 
ATOM     18  C21 UNL     1     139.299 123.771 106.531  0.00  0.00    +0.027 A 
ATOM     19  S2  UNL     1     139.111 124.782 105.161  0.00  0.00    -0.083 S 
ENDBRANCH   3   5
BRANCH   1  23
ATOM     20  C2  UNL     1     141.977 129.045 100.078  0.00  0.00    +0.142 A 
ATOM     21  C3  UNL     1     143.059 128.431 100.715  0.00  0.00    +0.094 A 
ATOM     22  C4  UNL     1     142.850 127.427 101.674  0.00  0.00    +0.145 A 
ATOM     23  C6  UNL     1     141.545 127.029 102.029  0.00  0.00    +0.080 A 
ATOM     24  C7  UNL     1     140.466 127.665 101.402  0.00  0.00    +0.051 A 
ATOM     25  C8  UNL     1     140.681 128.652 100.435  0.00  0.00    +0.084 A 
ATOM     26 CL1  UNL     1     139.288 129.374  99.700  0.00  0.00    -0.080 Cl
BRANCH  20  28
ATOM     27  C1  UNL     1     142.382 131.350  99.589  0.00  0.00    +0.277 C 
ATOM     28  O1  UNL     1     142.086 130.034  99.135  0.00  0.00    -0.494 OA
ENDBRANCH  20  28
BRANCH  22  29
ATOM     29  O2  UNL     1     143.903 126.928 102.405  0.00  0.00    -0.493 OA
ATOM     30  C5  UNL     1     144.811 127.932 102.862  0.00  0.00    +0.277 C 
ENDBRANCH  22  29
ENDBRANCH   1  23
TORSDOF 4
ENDMDL
MODEL 3
REMARK VINA RESULT:    -4.753      6.911     12.400
REMARK INTER + INTRA:          -6.348
REMARK INTER:                  -5.794
REMARK INTRA:                  -0.554
REMARK UNBOUND:                -0.484
REMARK  Name = /home/vital/Documents/PhD_2021/Malaria_codes/data/pdb_ligands_mmv/ligand_10.pdb
REMARK  7 active torsions:
REMARK  status: ('A' for Active; 'I' for Inactive)
REMARK    1  A    between atoms: C1_1  and  O1_2
REMARK    2  A    between atoms: O1_2  and  C2_3
REMARK    3  A    between atoms: C4_5  and  O2_6
REMARK    4  A    between atoms: O2_6  and  C5_7
REMARK    5  A    between atoms: C6_8  and  N1_12
REMARK    6  A    between atoms: N1_12  and  C9_13
REMARK    7  A    between atoms: C10_14  and  C11_16
REMARK                            x       y       z     vdW  Elec       q    Type
REMARK                         _______ _______ _______ _____ _____    ______ ____
ROOT
ATOM      1  N1  UNL     1     140.801 125.606 104.897  0.00  0.00    -0.267 N 
ATOM      2  C9  UNL     1     141.161 126.658 105.843  0.00  0.00    +0.139 C 
ATOM      3  C10 UNL     1     141.525 125.447 103.691  0.00  0.00    +0.257 C 
ATOM      4  O3  UNL     1     141.743 124.344 103.187  0.00  0.00    -0.269 OA
ENDROOT
BRANCH   3   5
ATOM      5  C11 UNL     1     142.108 126.645 103.108  0.00  0.00    +0.075 A 
ATOM      6  C12 UNL     1     143.422 127.056 103.159  0.00  0.00    +0.026 A 
ATOM      7  C13 UNL     1     143.636 128.282 102.453  0.00  0.00    -0.011 A 
ATOM      8  C14 UNL     1     144.938 129.010 102.374  0.00  0.00    +0.208 C 
ATOM      9  S1  UNL     1     145.111 129.939 100.859  0.00  0.00    +0.002 S 
ATOM     10  O4  UNL     1     145.985 131.066 101.140  0.00  0.00    -0.169 OA
ATOM     11  O5  UNL     1     145.407 129.028  99.770  0.00  0.00    -0.169 OA
ATOM     12  C15 UNL     1     143.497 130.607 100.536  0.00  0.00    +0.097 A 
ATOM     13  C16 UNL     1     143.421 131.791  99.788  0.00  0.00    +0.027 A 
ATOM     14  C17 UNL     1     142.176 132.354  99.520  0.00  0.00    +0.002 A 
ATOM     15  C18 UNL     1     141.022 131.737  99.998  0.00  0.00    +0.001 A 
ATOM     16  C19 UNL     1     141.107 130.558 100.749  0.00  0.00    +0.011 A 
ATOM     17  C20 UNL     1     142.350 129.967 101.036  0.00  0.00    +0.014 A 
ATOM     18  C21 UNL     1     142.475 128.741 101.847  0.00  0.00    +0.027 A 
ATOM     19  S2  UNL     1     141.166 127.670 102.120  0.00  0.00    -0.083 S 
ENDBRANCH   3   5
BRANCH   1  23
ATOM     20  C2  UNL     1     138.411 122.341 106.281  0.00  0.00    +0.142 A 
ATOM     21  C3  UNL     1     139.745 122.461 106.681  0.00  0.00    +0.094 A 
ATOM     22  C4  UNL     1     140.530 123.539 106.243  0.00  0.00    +0.145 A 
ATOM     23  C6  UNL     1     139.997 124.514 105.376  0.00  0.00    +0.080 A 
ATOM     24  C7  UNL     1     138.666 124.375 104.962  0.00  0.00    +0.051 A 
ATOM     25  C8  UNL     1     137.883 123.308 105.416  0.00  0.00    +0.084 A 
ATOM     26 CL1  UNL     1     136.243 123.223 104.865  0.00  0.00    -0.080 Cl
BRANCH  20  28
ATOM     27  C1  UNL     1     137.136 121.288 108.009  0.00  0.00    +0.277 C 
ATOM     28  O1  UNL     1     137.573 121.322 106.655  0.00  0.00    -0.494 OA
ENDBRANCH  20  28
BRANCH  22  29
ATOM     29  O2  UNL     1     141.878 123.579 106.516  0.00  0.00    -0.493 OA
ATOM     30  C5  UNL     1     142.584 122.412 106.090  0.00  0.00    +0.277 C 
ENDBRANCH  22  29
ENDBRANCH   1  23
TORSDOF 4
ENDMDL
MODEL 4
REMARK VINA RESULT:    -4.714     12.051     14.319
REMARK INTER + INTRA:          -6.301
REMARK INTER:                  -5.695
REMARK INTRA:                  -0.606
REMARK UNBOUND:                -0.484
REMARK  Name = /home/vital/Documents/PhD_2021/Malaria_codes/data/pdb_ligands_mmv/ligand_10.pdb
REMARK  7 active torsions:
REMARK  status: ('A' for Active; 'I' for Inactive)
REMARK    1  A    between atoms: C1_1  and  O1_2
REMARK    2  A    between atoms: O1_2  and  C2_3
REMARK    3  A    between atoms: C4_5  and  O2_6
REMARK    4  A    between atoms: O2_6  and  C5_7
REMARK    5  A    between atoms: C6_8  and  N1_12
REMARK    6  A    between atoms: N1_12  and  C9_13
REMARK    7  A    between atoms: C10_14  and  C11_16
REMARK                            x       y       z     vdW  Elec       q    Type
REMARK                         _______ _______ _______ _____ _____    ______ ____
ROOT
ATOM      1  N1  UNL     1     138.313 126.032  88.782  0.00  0.00    -0.267 N 
ATOM      2  C9  UNL     1     138.475 124.817  89.576  0.00  0.00    +0.139 C 
ATOM      3  C10 UNL     1     137.025 126.574  88.558  0.00  0.00    +0.257 C 
ATOM      4  O3  UNL     1     136.816 127.787  88.492  0.00  0.00    -0.269 OA
ENDROOT
BRANCH   3   5
ATOM      5  C11 UNL     1     135.912 125.639  88.510  0.00  0.00    +0.075 A 
ATOM      6  C12 UNL     1     135.022 125.334  89.517  0.00  0.00    +0.026 A 
ATOM      7  C13 UNL     1     134.041 124.377  89.103  0.00  0.00    -0.011 A 
ATOM      8  C14 UNL     1     132.978 123.805  89.982  0.00  0.00    +0.208 C 
ATOM      9  S1  UNL     1     131.507 123.357  89.074  0.00  0.00    +0.002 S 
ATOM     10  O4  UNL     1     130.869 122.268  89.795  0.00  0.00    -0.169 OA
ATOM     11  O5  UNL     1     130.766 124.558  88.740  0.00  0.00    -0.169 OA
ATOM     12  C15 UNL     1     132.097 122.682  87.540  0.00  0.00    +0.097 A 
ATOM     13  C16 UNL     1     131.278 121.755  86.880  0.00  0.00    +0.027 A 
ATOM     14  C17 UNL     1     131.705 121.195  85.679  0.00  0.00    +0.002 A 
ATOM     15  C18 UNL     1     132.940 121.560  85.148  0.00  0.00    +0.001 A 
ATOM     16  C19 UNL     1     133.754 122.482  85.817  0.00  0.00    +0.011 A 
ATOM     17  C20 UNL     1     133.350 123.065  87.030  0.00  0.00    +0.014 A 
ATOM     18  C21 UNL     1     134.196 124.018  87.772  0.00  0.00    +0.027 A 
ATOM     19  S2  UNL     1     135.498 124.863  87.047  0.00  0.00    -0.083 S 
ENDBRANCH   3   5
BRANCH   1  23
ATOM     20  C2  UNL     1     141.765 128.490  88.215  0.00  0.00    +0.142 A 
ATOM     21  C3  UNL     1     141.228 127.768  87.146  0.00  0.00    +0.094 A 
ATOM     22  C4  UNL     1     140.085 126.971  87.322  0.00  0.00    +0.145 A 
ATOM     23  C6  UNL     1     139.465 126.868  88.584  0.00  0.00    +0.080 A 
ATOM     24  C7  UNL     1     140.023 127.578  89.655  0.00  0.00    +0.051 A 
ATOM     25  C8  UNL     1     141.152 128.384  89.469  0.00  0.00    +0.084 A 
ATOM     26 CL1  UNL     1     141.765 129.238  90.846  0.00  0.00    -0.080 Cl
BRANCH  20  28
ATOM     27  C1  UNL     1     144.148 128.646  88.078  0.00  0.00    +0.277 C 
ATOM     28  O1  UNL     1     142.878 129.287  88.136  0.00  0.00    -0.494 OA
ENDBRANCH  20  28
BRANCH  22  29
ATOM     29  O2  UNL     1     139.643 126.148  86.312  0.00  0.00    -0.493 OA
ATOM     30  C5  UNL     1     140.533 126.082  85.196  0.00  0.00    +0.277 C 
ENDBRANCH  22  29
ENDBRANCH   1  23
TORSDOF 4
ENDMDL
MODEL 5
REMARK VINA RESULT:    -4.385      7.233     10.251
REMARK INTER + INTRA:          -5.894
REMARK INTER:                  -5.403
REMARK INTRA:                  -0.491
REMARK UNBOUND:                -0.484
REMARK  Name = /home/vital/Documents/PhD_2021/Malaria_codes/data/pdb_ligands_mmv/ligand_10.pdb
REMARK  7 active torsions:
REMARK  status: ('A' for Active; 'I' for Inactive)
REMARK    1  A    between atoms: C1_1  and  O1_2
REMARK    2  A    between atoms: O1_2  and  C2_3
REMARK    3  A    between atoms: C4_5  and  O2_6
REMARK    4  A    between atoms: O2_6  and  C5_7
REMARK    5  A    between atoms: C6_8  and  N1_12
REMARK    6  A    between atoms: N1_12  and  C9_13
REMARK    7  A    between atoms: C10_14  and  C11_16
REMARK                            x       y       z     vdW  Elec       q    Type
REMARK                         _______ _______ _______ _____ _____    ______ ____
ROOT
ATOM      1  N1  UNL     1     141.834 125.894 102.668  0.00  0.00    -0.267 N 
ATOM      2  C9  UNL     1     142.036 124.452 102.552  0.00  0.00    +0.139 C 
ATOM      3  C10 UNL     1     141.342 126.454 103.871  0.00  0.00    +0.257 C 
ATOM      4  O3  UNL     1     141.708 127.553 104.292  0.00  0.00    -0.269 OA
ENDROOT
BRANCH   3   5
ATOM      5  C11 UNL     1     140.449 125.628 104.668  0.00  0.00    +0.075 A 
ATOM      6  C12 UNL     1     139.260 125.051 104.278  0.00  0.00    +0.026 A 
ATOM      7  C13 UNL     1     138.657 124.286 105.327  0.00  0.00    -0.011 A 
ATOM      8  C14 UNL     1     137.339 123.590 105.231  0.00  0.00    +0.208 C 
ATOM      9  S1  UNL     1     137.257 122.137 106.266  0.00  0.00    +0.002 S 
ATOM     10  O4  UNL     1     135.863 121.945 106.631  0.00  0.00    -0.169 OA
ATOM     11  O5  UNL     1     138.013 121.065 105.648  0.00  0.00    -0.169 OA
ATOM     12  C15 UNL     1     138.123 122.577 107.753  0.00  0.00    +0.097 A 
ATOM     13  C16 UNL     1     137.766 121.910 108.934  0.00  0.00    +0.027 A 
ATOM     14  C17 UNL     1     138.413 122.230 110.125  0.00  0.00    +0.002 A 
ATOM     15  C18 UNL     1     139.405 123.208 110.130  0.00  0.00    +0.001 A 
ATOM     16  C19 UNL     1     139.751 123.873 108.947  0.00  0.00    +0.011 A 
ATOM     17  C20 UNL     1     139.116 123.571 107.730  0.00  0.00    +0.014 A 
ATOM     18  C21 UNL     1     139.438 124.272 106.473  0.00  0.00    +0.027 A 
ATOM     19  S2  UNL     1     140.889 125.154 106.248  0.00  0.00    -0.083 S 
ENDBRANCH   3   5
BRANCH   1  23
ATOM     20  C2  UNL     1     143.843 128.398  99.843  0.00  0.00    +0.142 A 
ATOM     21  C3  UNL     1     142.460 128.212  99.766  0.00  0.00    +0.094 A 
ATOM     22  C4  UNL     1     141.792 127.404 100.701  0.00  0.00    +0.145 A 
ATOM     23  C6  UNL     1     142.504 126.748 101.725  0.00  0.00    +0.080 A 
ATOM     24  C7  UNL     1     143.893 126.921 101.782  0.00  0.00    +0.051 A 
ATOM     25  C8  UNL     1     144.550 127.741 100.858  0.00  0.00    +0.084 A 
ATOM     26 CL1  UNL     1     146.267 127.910 101.013  0.00  0.00    -0.080 Cl
BRANCH  20  28
ATOM     27  C1  UNL     1     144.327 130.564  98.954  0.00  0.00    +0.277 C 
ATOM     28  O1  UNL     1     144.577 129.163  98.974  0.00  0.00    -0.494 OA
ENDBRANCH  20  28
BRANCH  22  29
ATOM     29  O2  UNL     1     140.459 127.104 100.540  0.00  0.00    -0.493 OA
ATOM     30  C5  UNL     1     139.611 128.254 100.517  0.00  0.00    +0.277 C 
ENDBRANCH  22  29
ENDBRANCH   1  23
TORSDOF 4
ENDMDL
MODEL 6
REMARK VINA RESULT:    -4.354      6.104      9.026
REMARK INTER + INTRA:          -5.856
REMARK INTER:                  -5.180
REMARK INTRA:                  -0.676
REMARK UNBOUND:                -0.484
REMARK  Name = /home/vital/Documents/PhD_2021/Malaria_codes/data/pdb_ligands_mmv/ligand_10.pdb
REMARK  7 active torsions:
REMARK  status: ('A' for Active; 'I' for Inactive)
REMARK    1  A    between atoms: C1_1  and  O1_2
REMARK    2  A    between atoms: O1_2  and  C2_3
REMARK    3  A    between atoms: C4_5  and  O2_6
REMARK    4  A    between atoms: O2_6  and  C5_7
REMARK    5  A    between atoms: C6_8  and  N1_12
REMARK    6  A    between atoms: N1_12  and  C9_13
REMARK    7  A    between atoms: C10_14  and  C11_16
REMARK                            x       y       z     vdW  Elec       q    Type
REMARK                         _______ _______ _______ _____ _____    ______ ____
ROOT
ATOM      1  N1  UNL     1     141.632 127.157 101.373  0.00  0.00    -0.267 N 
ATOM      2  C9  UNL     1     141.570 125.929 100.585  0.00  0.00    +0.139 C 
ATOM      3  C10 UNL     1     142.044 127.120 102.726  0.00  0.00    +0.257 C 
ATOM      4  O3  UNL     1     142.702 128.024 103.246  0.00  0.00    -0.269 OA
ENDROOT
BRANCH   3   5
ATOM      5  C11 UNL     1     141.751 125.908 103.474  0.00  0.00    +0.075 A 
ATOM      6  C12 UNL     1     142.636 124.935 103.885  0.00  0.00    +0.026 A 
ATOM      7  C13 UNL     1     141.992 123.889 104.618  0.00  0.00    -0.011 A 
ATOM      8  C14 UNL     1     142.671 122.668 105.146  0.00  0.00    +0.208 C 
ATOM      9  S1  UNL     1     141.892 122.036 106.624  0.00  0.00    +0.002 S 
ATOM     10  O4  UNL     1     142.136 120.604 106.663  0.00  0.00    -0.169 OA
ATOM     11  O5  UNL     1     142.248 122.878 107.750  0.00  0.00    -0.169 OA
ATOM     12  C15 UNL     1     140.149 122.254 106.359  0.00  0.00    +0.097 A 
ATOM     13  C16 UNL     1     139.276 121.386 107.030  0.00  0.00    +0.027 A 
ATOM     14  C17 UNL     1     137.903 121.515 106.844  0.00  0.00    +0.002 A 
ATOM     15  C18 UNL     1     137.411 122.503 105.993  0.00  0.00    +0.001 A 
ATOM     16  C19 UNL     1     138.290 123.363 105.323  0.00  0.00    +0.011 A 
ATOM     17  C20 UNL     1     139.682 123.256 105.491  0.00  0.00    +0.014 A 
ATOM     18  C21 UNL     1     140.635 124.128 104.778  0.00  0.00    +0.027 A 
ATOM     19  S2  UNL     1     140.177 125.617 104.067  0.00  0.00    -0.083 S 
ENDBRANCH   3   5
BRANCH   1  23
ATOM     20  C2  UNL     1     141.717 130.863  99.241  0.00  0.00    +0.142 A 
ATOM     21  C3  UNL     1     140.644 130.555 100.083  0.00  0.00    +0.094 A 
ATOM     22  C4  UNL     1     140.619 129.347 100.798  0.00  0.00    +0.145 A 
ATOM     23  C6  UNL     1     141.664 128.410 100.668  0.00  0.00    +0.080 A 
ATOM     24  C7  UNL     1     142.723 128.716  99.805  0.00  0.00    +0.051 A 
ATOM     25  C8  UNL     1     142.752 129.929  99.109  0.00  0.00    +0.084 A 
ATOM     26 CL1  UNL     1     144.109 130.230  98.075  0.00  0.00    -0.080 Cl
BRANCH  20  28
ATOM     27  C1  UNL     1     142.203 133.204  99.184  0.00  0.00    +0.277 C 
ATOM     28  O1  UNL     1     141.823 132.013  98.502  0.00  0.00    -0.494 OA
ENDBRANCH  20  28
BRANCH  22  29
ATOM     29  O2  UNL     1     139.500 128.980 101.510  0.00  0.00    -0.493 OA
ATOM     30  C5  UNL     1     138.384 128.634 100.687  0.00  0.00    +0.277 C 
ENDBRANCH  22  29
ENDBRANCH   1  23
TORSDOF 4
ENDMDL
MODEL 7
REMARK VINA RESULT:    -4.318      6.649     12.068
REMARK INTER + INTRA:          -5.811
REMARK INTER:                  -5.341
REMARK INTRA:                  -0.471
REMARK UNBOUND:                -0.484
REMARK  Name = /home/vital/Documents/PhD_2021/Malaria_codes/data/pdb_ligands_mmv/ligand_10.pdb
REMARK  7 active torsions:
REMARK  status: ('A' for Active; 'I' for Inactive)
REMARK    1  A    between atoms: C1_1  and  O1_2
REMARK    2  A    between atoms: O1_2  and  C2_3
REMARK    3  A    between atoms: C4_5  and  O2_6
REMARK    4  A    between atoms: O2_6  and  C5_7
REMARK    5  A    between atoms: C6_8  and  N1_12
REMARK    6  A    between atoms: N1_12  and  C9_13
REMARK    7  A    between atoms: C10_14  and  C11_16
REMARK                            x       y       z     vdW  Elec       q    Type
REMARK                         _______ _______ _______ _____ _____    ______ ____
ROOT
ATOM      1  N1  UNL     1     140.936 125.669 104.250  0.00  0.00    -0.267 N 
ATOM      2  C9  UNL     1     141.600 126.650 105.104  0.00  0.00    +0.139 C 
ATOM      3  C10 UNL     1     141.370 125.468 102.918  0.00  0.00    +0.257 C 
ATOM      4  O3  UNL     1     141.354 124.362 102.374  0.00  0.00    -0.269 OA
ENDROOT
BRANCH   3   5
ATOM      5  C11 UNL     1     141.946 126.612 102.230  0.00  0.00    +0.075 A 
ATOM      6  C12 UNL     1     141.326 127.796 101.896  0.00  0.00    +0.026 A 
ATOM      7  C13 UNL     1     142.212 128.707 101.238  0.00  0.00    -0.011 A 
ATOM      8  C14 UNL     1     141.822 130.046 100.703  0.00  0.00    +0.208 C 
ATOM      9  S1  UNL     1     143.176 131.211 100.724  0.00  0.00    +0.002 S 
ATOM     10  O4  UNL     1     142.946 132.159  99.646  0.00  0.00    -0.169 OA
ATOM     11  O5  UNL     1     143.389 131.672 102.082  0.00  0.00    -0.169 OA
ATOM     12  C15 UNL     1     144.611 130.263 100.278  0.00  0.00    +0.097 A 
ATOM     13  C16 UNL     1     145.675 130.943  99.669  0.00  0.00    +0.027 A 
ATOM     14  C17 UNL     1     146.816 130.237  99.296  0.00  0.00    +0.002 A 
ATOM     15  C18 UNL     1     146.886 128.865  99.529  0.00  0.00    +0.001 A 
ATOM     16  C19 UNL     1     145.816 128.194 100.133  0.00  0.00    +0.011 A 
ATOM     17  C20 UNL     1     144.652 128.879 100.521  0.00  0.00    +0.014 A 
ATOM     18  C21 UNL     1     143.497 128.196 101.134  0.00  0.00    +0.027 A 
ATOM     19  S2  UNL     1     143.611 126.647 101.856  0.00  0.00    -0.083 S 
ENDBRANCH   3   5
BRANCH   1  23
ATOM     20  C2  UNL     1     138.544 122.641 106.092  0.00  0.00    +0.142 A 
ATOM     21  C3  UNL     1     139.927 122.669 106.293  0.00  0.00    +0.094 A 
ATOM     22  C4  UNL     1     140.715 123.671 105.704  0.00  0.00    +0.145 A 
ATOM     23  C6  UNL     1     140.133 124.658 104.882  0.00  0.00    +0.080 A 
ATOM     24  C7  UNL     1     138.750 124.609 104.669  0.00  0.00    +0.051 A 
ATOM     25  C8  UNL     1     137.967 123.619 105.273  0.00  0.00    +0.084 A 
ATOM     26 CL1  UNL     1     136.262 123.643 104.965  0.00  0.00    -0.080 Cl
BRANCH  20  28
ATOM     27  C1  UNL     1     137.410 121.780 108.014  0.00  0.00    +0.277 C 
ATOM     28  O1  UNL     1     137.698 121.701 106.622  0.00  0.00    -0.494 OA
ENDBRANCH  20  28
BRANCH  22  29
ATOM     29  O2  UNL     1     142.088 123.615 105.780  0.00  0.00    -0.493 OA
ATOM     30  C5  UNL     1     142.651 122.463 105.150  0.00  0.00    +0.277 C 
ENDBRANCH  22  29
ENDBRANCH   1  23
TORSDOF 4
ENDMDL
MODEL 8
REMARK VINA RESULT:    -4.315      7.216     12.579
REMARK INTER + INTRA:          -5.808
REMARK INTER:                  -5.144
REMARK INTRA:                  -0.664
REMARK UNBOUND:                -0.484
REMARK  Name = /home/vital/Documents/PhD_2021/Malaria_codes/data/pdb_ligands_mmv/ligand_10.pdb
REMARK  7 active torsions:
REMARK  status: ('A' for Active; 'I' for Inactive)
REMARK    1  A    between atoms: C1_1  and  O1_2
REMARK    2  A    between atoms: O1_2  and  C2_3
REMARK    3  A    between atoms: C4_5  and  O2_6
REMARK    4  A    between atoms: O2_6  and  C5_7
REMARK    5  A    between atoms: C6_8  and  N1_12
REMARK    6  A    between atoms: N1_12  and  C9_13
REMARK    7  A    between atoms: C10_14  and  C11_16
REMARK                            x       y       z     vdW  Elec       q    Type
REMARK                         _______ _______ _______ _____ _____    ______ ____
ROOT
ATOM      1  N1  UNL     1     141.168 125.248 105.383  0.00  0.00    -0.267 N 
ATOM      2  C9  UNL     1     141.075 126.508 106.115  0.00  0.00    +0.139 C 
ATOM      3  C10 UNL     1     142.024 125.132 104.262  0.00  0.00    +0.257 C 
ATOM      4  O3  UNL     1     142.633 124.094 103.994  0.00  0.00    -0.269 OA
ENDROOT
BRANCH   3   5
ATOM      5  C11 UNL     1     142.252 126.335 103.476  0.00  0.00    +0.075 A 
ATOM      6  C12 UNL     1     143.412 127.071 103.376  0.00  0.00    +0.026 A 
ATOM      7  C13 UNL     1     143.273 128.187 102.492  0.00  0.00    -0.011 A 
ATOM      8  C14 UNL     1     144.334 129.203 102.220  0.00  0.00    +0.208 C 
ATOM      9  S1  UNL     1     144.209 129.901 100.581  0.00  0.00    +0.002 S 
ATOM     10  O4  UNL     1     144.763 131.243 100.640  0.00  0.00    -0.169 OA
ATOM     11  O5  UNL     1     144.700 128.940  99.613  0.00  0.00    -0.169 OA
ATOM     12  C15 UNL     1     142.467 130.076 100.283  0.00  0.00    +0.097 A 
ATOM     13  C16 UNL     1     142.058 131.071  99.383  0.00  0.00    +0.027 A 
ATOM     14  C17 UNL     1     140.701 131.248  99.127  0.00  0.00    +0.002 A 
ATOM     15  C18 UNL     1     139.766 130.438  99.767  0.00  0.00    +0.001 A 
ATOM     16  C19 UNL     1     140.182 129.450 100.668  0.00  0.00    +0.011 A 
ATOM     17  C20 UNL     1     141.545 129.248 100.947  0.00  0.00    +0.014 A 
ATOM     18  C21 UNL     1     142.014 128.235 101.911  0.00  0.00    +0.027 A 
ATOM     19  S2  UNL     1     141.043 126.920 102.423  0.00  0.00    -0.083 S 
ENDBRANCH   3   5
BRANCH   1  23
ATOM     20  C2  UNL     1     139.787 121.715 107.357  0.00  0.00    +0.142 A 
ATOM     21  C3  UNL     1     139.077 122.244 106.275  0.00  0.00    +0.094 A 
ATOM     22  C4  UNL     1     139.535 123.395 105.612  0.00  0.00    +0.145 A 
ATOM     23  C6  UNL     1     140.708 124.052 106.035  0.00  0.00    +0.080 A 
ATOM     24  C7  UNL     1     141.401 123.528 107.134  0.00  0.00    +0.051 A 
ATOM     25  C8  UNL     1     140.950 122.371 107.779  0.00  0.00    +0.084 A 
ATOM     26 CL1  UNL     1     141.878 121.786 109.119  0.00  0.00    -0.080 Cl
BRANCH  20  28
ATOM     27  C1  UNL     1     138.261 120.701 108.894  0.00  0.00    +0.277 C 
ATOM     28  O1  UNL     1     139.414 120.602 108.064  0.00  0.00    -0.494 OA
ENDBRANCH  20  28
BRANCH  22  29
ATOM     29  O2  UNL     1     138.763 123.998 104.646  0.00  0.00    -0.493 OA
ATOM     30  C5  UNL     1     137.411 124.223 105.050  0.00  0.00    +0.277 C 
ENDBRANCH  22  29
ENDBRANCH   1  23
TORSDOF 4
ENDMDL
MODEL 9
REMARK VINA RESULT:    -4.036      5.914     11.248
REMARK INTER + INTRA:          -5.464
REMARK INTER:                  -4.957
REMARK INTRA:                  -0.507
REMARK UNBOUND:                -0.484
REMARK  Name = /home/vital/Documents/PhD_2021/Malaria_codes/data/pdb_ligands_mmv/ligand_10.pdb
REMARK  7 active torsions:
REMARK  status: ('A' for Active; 'I' for Inactive)
REMARK    1  A    between atoms: C1_1  and  O1_2
REMARK    2  A    between atoms: O1_2  and  C2_3
REMARK    3  A    between atoms: C4_5  and  O2_6
REMARK    4  A    between atoms: O2_6  and  C5_7
REMARK    5  A    between atoms: C6_8  and  N1_12
REMARK    6  A    between atoms: N1_12  and  C9_13
REMARK    7  A    between atoms: C10_14  and  C11_16
REMARK                            x       y       z     vdW  Elec       q    Type
REMARK                         _______ _______ _______ _____ _____    ______ ____
ROOT
ATOM      1  N1  UNL     1     142.100 126.381 103.407  0.00  0.00    -0.267 N 
ATOM      2  C9  UNL     1     142.959 127.302 104.146  0.00  0.00    +0.139 C 
ATOM      3  C10 UNL     1     142.255 126.220 102.009  0.00  0.00    +0.257 C 
ATOM      4  O3  UNL     1     142.087 125.140 101.441  0.00  0.00    -0.269 OA
ENDROOT
BRANCH   3   5
ATOM      5  C11 UNL     1     142.733 127.372 101.261  0.00  0.00    +0.075 A 
ATOM      6  C12 UNL     1     143.962 127.538 100.660  0.00  0.00    +0.026 A 
ATOM      7  C13 UNL     1     144.075 128.799  99.992  0.00  0.00    -0.011 A 
ATOM      8  C14 UNL     1     145.301 129.294  99.298  0.00  0.00    +0.208 C 
ATOM      9  S1  UNL     1     144.923 130.391  97.941  0.00  0.00    +0.002 S 
ATOM     10  O4  UNL     1     146.050 131.297  97.789  0.00  0.00    -0.169 OA
ATOM     11  O5  UNL     1     144.444 129.612  96.815  0.00  0.00    -0.169 OA
ATOM     12  C15 UNL     1     143.550 131.368  98.502  0.00  0.00    +0.097 A 
ATOM     13  C16 UNL     1     143.387 132.643  97.943  0.00  0.00    +0.027 A 
ATOM     14  C17 UNL     1     142.329 133.446  98.360  0.00  0.00    +0.002 A 
ATOM     15  C18 UNL     1     141.446 132.975  99.330  0.00  0.00    +0.001 A 
ATOM     16  C19 UNL     1     141.619 131.702  99.887  0.00  0.00    +0.011 A 
ATOM     17  C20 UNL     1     142.677 130.869  99.485  0.00  0.00    +0.014 A 
ATOM     18  C21 UNL     1     142.902 129.535 100.072  0.00  0.00    +0.027 A 
ATOM     19  S2  UNL     1     141.687 128.678 100.923  0.00  0.00    -0.083 S 
ENDBRANCH   3   5
BRANCH   1  23
ATOM     20  C2  UNL     1     139.989 123.364 105.580  0.00  0.00    +0.142 A 
ATOM     21  C3  UNL     1     141.376 123.286 105.428  0.00  0.00    +0.094 A 
ATOM     22  C4  UNL     1     142.077 124.282 104.730  0.00  0.00    +0.145 A 
ATOM     23  C6  UNL     1     141.395 125.372 104.150  0.00  0.00    +0.080 A 
ATOM     24  C7  UNL     1     140.003 125.430 104.288  0.00  0.00    +0.051 A 
ATOM     25  C8  UNL     1     139.312 124.444 105.000  0.00  0.00    +0.084 A 
ATOM     26 CL1  UNL     1     137.592 124.604 105.133  0.00  0.00    -0.080 Cl
BRANCH  20  28
ATOM     27  C1  UNL     1     139.205 122.488 107.663  0.00  0.00    +0.277 C 
ATOM     28  O1  UNL     1     139.224 122.437 106.241  0.00  0.00    -0.494 OA
ENDBRANCH  20  28
BRANCH  22  29
ATOM     29  O2  UNL     1     143.416 124.132 104.454  0.00  0.00    -0.493 OA
ATOM     30  C5  UNL     1     144.188 123.699 105.576  0.00  0.00    +0.277 C 
ENDBRANCH  22  29
ENDBRANCH   1  23
TORSDOF 4
ENDMDL
