MODEL 1
REMARK VINA RESULT:    -5.582      0.000      0.000
REMARK INTER + INTRA:          -8.717
REMARK INTER:                  -7.377
REMARK INTRA:                  -1.340
REMARK UNBOUND:                -1.340
REMARK  Name = /home/vital/Documents/PhD_2021/Malaria_codes/data/pdb_ligands_mmv/ligand_243.pdb
REMARK  7 active torsions:
REMARK  status: ('A' for Active; 'I' for Inactive)
REMARK    1  A    between atoms: C1_1  and  O1_2
REMARK    2  A    between atoms: O1_2  and  C2_3
REMARK    3  A    between atoms: C5_6  and  C8_9
REMARK    4  A    between atoms: N1_11  and  C9_12
REMARK    5  A    between atoms: C9_12  and  C10_13
REMARK    6  A    between atoms: C9_12  and  C16_21
REMARK    7  A    between atoms: C24_31  and  O3_32
REMARK                            x       y       z     vdW  Elec       q    Type
REMARK                         _______ _______ _______ _____ _____    ______ ____
ROOT
ATOM      1  C9  UNL     1     141.477 126.735 103.403  0.00  0.00    +0.139 C 
ENDROOT
BRANCH   1   2
ATOM      2  C16 UNL     1     141.197 126.642 101.907  0.00  0.00    +0.022 A 
ATOM      3  C17 UNL     1     141.758 125.595 101.163  0.00  0.00    +0.030 A 
ATOM      4  C18 UNL     1     141.513 125.482  99.790  0.00  0.00    +0.051 A 
ATOM      5 CL3  UNL     1     142.244 124.144  98.967  0.00  0.00    -0.083 Cl
ATOM      6  C19 UNL     1     140.701 126.421  99.111  0.00  0.00    +0.022 A 
ATOM      7  C20 UNL     1     140.399 126.386  97.731  0.00  0.00    +0.013 A 
ATOM      8  C21 UNL     1     139.592 127.362  97.158  0.00  0.00    +0.020 A 
ATOM      9  C22 UNL     1     139.101 128.359  97.977  0.00  0.00    +0.111 A 
ATOM     10  N2  UNL     1     139.360 128.436  99.299  0.00  0.00    -0.251 NA
ATOM     11  C23 UNL     1     140.144 127.483  99.849  0.00  0.00    +0.114 A 
ATOM     12  C24 UNL     1     140.408 127.568 101.217  0.00  0.00    +0.148 A 
BRANCH  12  13
ATOM     13  O3  UNL     1     139.863 128.636 101.897  0.00  0.00    -0.504 OA
ATOM     14  H17 UNL     1     138.929 128.662 101.589  0.00  0.00    +0.292 HD
ENDBRANCH  12  13
ENDBRANCH   1   2
BRANCH   1  15
ATOM     15  C10 UNL     1     142.963 126.925 103.724  0.00  0.00    -0.004 A 
ATOM     16  C11 UNL     1     143.567 125.899 104.492  0.00  0.00    +0.008 A 
ATOM     17  C12 UNL     1     144.911 125.953 104.869  0.00  0.00    +0.020 A 
ATOM     18  C13 UNL     1     145.684 127.039 104.486  0.00  0.00    +0.042 A 
ATOM     19 CL1  UNL     1     147.340 127.114 104.947  0.00  0.00    -0.083 Cl
ATOM     20  C14 UNL     1     145.127 128.063 103.731  0.00  0.00    +0.040 A 
ATOM     21  C15 UNL     1     143.777 128.013 103.350  0.00  0.00    +0.048 A 
ATOM     22 CL2  UNL     1     143.231 129.357 102.405  0.00  0.00    -0.083 Cl
ENDBRANCH   1  15
BRANCH   1  25
ATOM     23  C8  UNL     1     140.157 125.836 105.286  0.00  0.00    +0.245 C 
ATOM     24  O2  UNL     1     140.230 126.866 105.947  0.00  0.00    -0.270 OA
ATOM     25  N1  UNL     1     140.818 125.653 104.096  0.00  0.00    -0.300 N 
ATOM     26  H8  UNL     1     140.673 124.815 103.549  0.00  0.00    +0.150 HD
BRANCH  23  30
ATOM     27  C2  UNL     1     137.719 122.545 106.600  0.00  0.00    +0.120 A 
ATOM     28  C3  UNL     1     137.359 123.305 105.487  0.00  0.00    +0.046 A 
ATOM     29  C4  UNL     1     138.166 124.371 105.075  0.00  0.00    +0.016 A 
ATOM     30  C5  UNL     1     139.336 124.693 105.775  0.00  0.00    +0.037 A 
ATOM     31  C6  UNL     1     139.705 123.921 106.881  0.00  0.00    +0.016 A 
ATOM     32  C7  UNL     1     138.894 122.858 107.289  0.00  0.00    +0.046 A 
BRANCH  27  34
ATOM     33  C1  UNL     1     136.960 121.377 108.526  0.00  0.00    +0.277 C 
ATOM     34  O1  UNL     1     137.025 121.482 107.109  0.00  0.00    -0.495 OA
ENDBRANCH  27  34
ENDBRANCH  23  30
ENDBRANCH   1  25
TORSDOF 6
ENDMDL
MODEL 2
REMARK VINA RESULT:    -5.220      4.165      9.039
REMARK INTER + INTRA:          -8.239
REMARK INTER:                  -6.967
REMARK INTRA:                  -1.271
REMARK UNBOUND:                -1.340
REMARK  Name = /home/vital/Documents/PhD_2021/Malaria_codes/data/pdb_ligands_mmv/ligand_243.pdb
REMARK  7 active torsions:
REMARK  status: ('A' for Active; 'I' for Inactive)
REMARK    1  A    between atoms: C1_1  and  O1_2
REMARK    2  A    between atoms: O1_2  and  C2_3
REMARK    3  A    between atoms: C5_6  and  C8_9
REMARK    4  A    between atoms: N1_11  and  C9_12
REMARK    5  A    between atoms: C9_12  and  C10_13
REMARK    6  A    between atoms: C9_12  and  C16_21
REMARK    7  A    between atoms: C24_31  and  O3_32
REMARK                            x       y       z     vdW  Elec       q    Type
REMARK                         _______ _______ _______ _____ _____    ______ ____
ROOT
ATOM      1  C9  UNL     1     141.118 127.895 100.667  0.00  0.00    +0.139 C 
ENDROOT
BRANCH   1   2
ATOM      2  C16 UNL     1     142.035 127.489 101.815  0.00  0.00    +0.022 A 
ATOM      3  C17 UNL     1     141.480 127.160 103.059  0.00  0.00    +0.030 A 
ATOM      4  C18 UNL     1     142.297 126.778 104.129  0.00  0.00    +0.051 A 
ATOM      5 CL3  UNL     1     141.510 126.379 105.619  0.00  0.00    -0.083 Cl
ATOM      6  C19 UNL     1     143.705 126.720 103.991  0.00  0.00    +0.022 A 
ATOM      7  C20 UNL     1     144.606 126.345 105.012  0.00  0.00    +0.013 A 
ATOM      8  C21 UNL     1     145.976 126.325 104.775  0.00  0.00    +0.020 A 
ATOM      9  C22 UNL     1     146.420 126.681 103.518  0.00  0.00    +0.111 A 
ATOM     10  N2  UNL     1     145.600 127.045 102.510  0.00  0.00    -0.251 NA
ATOM     11  C23 UNL     1     144.271 127.062 102.747  0.00  0.00    +0.114 A 
ATOM     12  C24 UNL     1     143.428 127.439 101.701  0.00  0.00    +0.148 A 
BRANCH  12  13
ATOM     13  O3  UNL     1     144.024 127.788 100.509  0.00  0.00    -0.504 OA
ATOM     14  H17 UNL     1     143.274 128.082  99.945  0.00  0.00    +0.292 HD
ENDBRANCH  12  13
ENDBRANCH   1   2
BRANCH   1  15
ATOM     15  C10 UNL     1     140.798 126.735  99.717  0.00  0.00    -0.004 A 
ATOM     16  C11 UNL     1     141.590 125.571  99.873  0.00  0.00    +0.008 A 
ATOM     17  C12 UNL     1     141.416 124.446  99.062  0.00  0.00    +0.020 A 
ATOM     18  C13 UNL     1     140.443 124.460  98.074  0.00  0.00    +0.042 A 
ATOM     19 CL1  UNL     1     140.221 123.081  97.071  0.00  0.00    -0.083 Cl
ATOM     20  C14 UNL     1     139.646 125.584  97.894  0.00  0.00    +0.040 A 
ATOM     21  C15 UNL     1     139.817 126.716  98.706  0.00  0.00    +0.048 A 
ATOM     22 CL2  UNL     1     138.745 128.032  98.365  0.00  0.00    -0.083 Cl
ENDBRANCH   1  15
BRANCH   1  25
ATOM     23  C8  UNL     1     141.105 130.342 100.337  0.00  0.00    +0.245 C 
ATOM     24  O2  UNL     1     140.084 130.516 100.993  0.00  0.00    -0.270 OA
ATOM     25  N1  UNL     1     141.612 129.100 100.043  0.00  0.00    -0.300 N 
ATOM     26  H8  UNL     1     142.496 129.004  99.559  0.00  0.00    +0.150 HD
BRANCH  23  30
ATOM     27  C2  UNL     1     143.360 133.652  98.769  0.00  0.00    +0.120 A 
ATOM     28  C3  UNL     1     143.993 132.468  99.146  0.00  0.00    +0.046 A 
ATOM     29  C4  UNL     1     143.241 131.402  99.652  0.00  0.00    +0.016 A 
ATOM     30  C5  UNL     1     141.852 131.512  99.796  0.00  0.00    +0.037 A 
ATOM     31  C6  UNL     1     141.216 132.694  99.403  0.00  0.00    +0.016 A 
ATOM     32  C7  UNL     1     141.971 133.756  98.898  0.00  0.00    +0.046 A 
BRANCH  27  34
ATOM     33  C1  UNL     1     145.382 134.705  98.097  0.00  0.00    +0.277 C 
ATOM     34  O1  UNL     1     143.970 134.766  98.262  0.00  0.00    -0.495 OA
ENDBRANCH  27  34
ENDBRANCH  23  30
ENDBRANCH   1  25
TORSDOF 6
ENDMDL
MODEL 3
REMARK VINA RESULT:    -4.997      3.742      9.049
REMARK INTER + INTRA:          -7.945
REMARK INTER:                  -6.466
REMARK INTRA:                  -1.479
REMARK UNBOUND:                -1.340
REMARK  Name = /home/vital/Documents/PhD_2021/Malaria_codes/data/pdb_ligands_mmv/ligand_243.pdb
REMARK  7 active torsions:
REMARK  status: ('A' for Active; 'I' for Inactive)
REMARK    1  A    between atoms: C1_1  and  O1_2
REMARK    2  A    between atoms: O1_2  and  C2_3
REMARK    3  A    between atoms: C5_6  and  C8_9
REMARK    4  A    between atoms: N1_11  and  C9_12
REMARK    5  A    between atoms: C9_12  and  C10_13
REMARK    6  A    between atoms: C9_12  and  C16_21
REMARK    7  A    between atoms: C24_31  and  O3_32
REMARK                            x       y       z     vdW  Elec       q    Type
REMARK                         _______ _______ _______ _____ _____    ______ ____
ROOT
ATOM      1  C9  UNL     1     141.221 127.465  99.136  0.00  0.00    +0.139 C 
ENDROOT
BRANCH   1   2
ATOM      2  C16 UNL     1     141.832 126.969 100.442  0.00  0.00    +0.022 A 
ATOM      3  C17 UNL     1     143.071 126.316 100.420  0.00  0.00    +0.030 A 
ATOM      4  C18 UNL     1     143.659 125.855 101.603  0.00  0.00    +0.051 A 
ATOM      5 CL3  UNL     1     145.198 125.073 101.467  0.00  0.00    -0.083 Cl
ATOM      6  C19 UNL     1     143.018 126.027 102.854  0.00  0.00    +0.022 A 
ATOM      7  C20 UNL     1     143.535 125.598 104.097  0.00  0.00    +0.013 A 
ATOM      8  C21 UNL     1     142.822 125.812 105.272  0.00  0.00    +0.020 A 
ATOM      9  C22 UNL     1     141.604 126.453 105.182  0.00  0.00    +0.111 A 
ATOM     10  N2  UNL     1     141.068 126.883 104.019  0.00  0.00    -0.251 NA
ATOM     11  C23 UNL     1     141.766 126.672 102.883  0.00  0.00    +0.114 A 
ATOM     12  C24 UNL     1     141.208 127.119 101.684  0.00  0.00    +0.148 A 
BRANCH  12  13
ATOM     13  O3  UNL     1     139.971 127.723 101.755  0.00  0.00    -0.504 OA
ATOM     14  H17 UNL     1     139.378 127.108 101.268  0.00  0.00    +0.292 HD
ENDBRANCH  12  13
ENDBRANCH   1   2
BRANCH   1  15
ATOM     15  C10 UNL     1     141.284 126.426  98.011  0.00  0.00    -0.004 A 
ATOM     16  C11 UNL     1     140.347 125.367  98.094  0.00  0.00    +0.008 A 
ATOM     17  C12 UNL     1     140.305 124.343  97.144  0.00  0.00    +0.020 A 
ATOM     18  C13 UNL     1     141.203 124.355  96.087  0.00  0.00    +0.042 A 
ATOM     19 CL1  UNL     1     141.160 123.099  94.913  0.00  0.00    -0.083 Cl
ATOM     20  C14 UNL     1     142.135 125.380  95.972  0.00  0.00    +0.040 A 
ATOM     21  C15 UNL     1     142.180 126.410  96.924  0.00  0.00    +0.048 A 
ATOM     22 CL2  UNL     1     143.389 127.617  96.641  0.00  0.00    -0.083 Cl
ENDBRANCH   1  15
BRANCH   1  25
ATOM     23  C8  UNL     1     141.114 129.932  99.201  0.00  0.00    +0.245 C 
ATOM     24  O2  UNL     1     139.984 129.960  99.675  0.00  0.00    -0.270 OA
ATOM     25  N1  UNL     1     141.742 128.773  98.813  0.00  0.00    -0.300 N 
ATOM     26  H8  UNL     1     142.701 128.788  98.493  0.00  0.00    +0.150 HD
BRANCH  23  30
ATOM     27  C2  UNL     1     143.384 133.529  98.564  0.00  0.00    +0.120 A 
ATOM     28  C3  UNL     1     143.932 132.277  98.285  0.00  0.00    +0.046 A 
ATOM     29  C4  UNL     1     143.176 131.118  98.498  0.00  0.00    +0.016 A 
ATOM     30  C5  UNL     1     141.871 131.199  98.999  0.00  0.00    +0.037 A 
ATOM     31  C6  UNL     1     141.317 132.455  99.264  0.00  0.00    +0.016 A 
ATOM     32  C7  UNL     1     142.076 133.610  99.050  0.00  0.00    +0.046 A 
BRANCH  27  34
ATOM     33  C1  UNL     1     145.180 134.749  97.597  0.00  0.00    +0.277 C 
ATOM     34  O1  UNL     1     144.008 134.735  98.403  0.00  0.00    -0.495 OA
ENDBRANCH  27  34
ENDBRANCH  23  30
ENDBRANCH   1  25
TORSDOF 6
ENDMDL
MODEL 4
REMARK VINA RESULT:    -4.977      4.944      9.959
REMARK INTER + INTRA:          -7.918
REMARK INTER:                  -6.804
REMARK INTRA:                  -1.114
REMARK UNBOUND:                -1.340
REMARK  Name = /home/vital/Documents/PhD_2021/Malaria_codes/data/pdb_ligands_mmv/ligand_243.pdb
REMARK  7 active torsions:
REMARK  status: ('A' for Active; 'I' for Inactive)
REMARK    1  A    between atoms: C1_1  and  O1_2
REMARK    2  A    between atoms: O1_2  and  C2_3
REMARK    3  A    between atoms: C5_6  and  C8_9
REMARK    4  A    between atoms: N1_11  and  C9_12
REMARK    5  A    between atoms: C9_12  and  C10_13
REMARK    6  A    between atoms: C9_12  and  C16_21
REMARK    7  A    between atoms: C24_31  and  O3_32
REMARK                            x       y       z     vdW  Elec       q    Type
REMARK                         _______ _______ _______ _____ _____    ______ ____
ROOT
ATOM      1  C9  UNL     1     142.076 129.825 100.864  0.00  0.00    +0.139 C 
ENDROOT
BRANCH   1   2
ATOM      2  C16 UNL     1     142.880 128.826 101.688  0.00  0.00    +0.022 A 
ATOM      3  C17 UNL     1     142.391 127.525 101.867  0.00  0.00    +0.030 A 
ATOM      4  C18 UNL     1     143.110 126.586 102.614  0.00  0.00    +0.051 A 
ATOM      5 CL3  UNL     1     142.423 125.003 102.761  0.00  0.00    -0.083 Cl
ATOM      6  C19 UNL     1     144.346 126.921 103.217  0.00  0.00    +0.022 A 
ATOM      7  C20 UNL     1     145.140 126.041 103.985  0.00  0.00    +0.013 A 
ATOM      8  C21 UNL     1     146.340 126.472 104.540  0.00  0.00    +0.020 A 
ATOM      9  C22 UNL     1     146.724 127.778 104.316  0.00  0.00    +0.111 A 
ATOM     10  N2  UNL     1     146.002 128.657 103.590  0.00  0.00    -0.251 NA
ATOM     11  C23 UNL     1     144.838 128.231 103.053  0.00  0.00    +0.114 A 
ATOM     12  C24 UNL     1     144.095 129.144 102.303  0.00  0.00    +0.148 A 
BRANCH  12  13
ATOM     13  O3  UNL     1     144.601 130.420 102.187  0.00  0.00    -0.504 OA
ATOM     14  H17 UNL     1     144.468 130.811 103.080  0.00  0.00    +0.292 HD
ENDBRANCH  12  13
ENDBRANCH   1   2
BRANCH   1  15
ATOM     15  C10 UNL     1     140.972 129.164 100.031  0.00  0.00    -0.004 A 
ATOM     16  C11 UNL     1     139.673 129.185 100.596  0.00  0.00    +0.008 A 
ATOM     17  C12 UNL     1     138.578 128.605  99.952  0.00  0.00    +0.020 A 
ATOM     18  C13 UNL     1     138.757 127.988  98.723  0.00  0.00    +0.042 A 
ATOM     19 CL1  UNL     1     137.415 127.270  97.922  0.00  0.00    -0.083 Cl
ATOM     20  C14 UNL     1     140.016 127.950  98.137  0.00  0.00    +0.040 A 
ATOM     21  C15 UNL     1     141.120 128.532  98.781  0.00  0.00    +0.048 A 
ATOM     22 CL2  UNL     1     142.618 128.410  97.922  0.00  0.00    -0.083 Cl
ENDBRANCH   1  15
BRANCH   1  25
ATOM     23  C8  UNL     1     142.580 131.936  99.685  0.00  0.00    +0.245 C 
ATOM     24  O2  UNL     1     141.415 132.317  99.681  0.00  0.00    -0.270 OA
ATOM     25  N1  UNL     1     142.969 130.700 100.141  0.00  0.00    -0.300 N 
ATOM     26  H8  UNL     1     143.949 130.453 100.192  0.00  0.00    +0.150 HD
BRANCH  23  30
ATOM     27  C2  UNL     1     145.764 134.402  98.175  0.00  0.00    +0.120 A 
ATOM     28  C3  UNL     1     146.027 133.143  98.716  0.00  0.00    +0.046 A 
ATOM     29  C4  UNL     1     144.977 132.355  99.201  0.00  0.00    +0.016 A 
ATOM     30  C5  UNL     1     143.656 132.821  99.158  0.00  0.00    +0.037 A 
ATOM     31  C6  UNL     1     143.391 134.076  98.601  0.00  0.00    +0.016 A 
ATOM     32  C7  UNL     1     144.444 134.859  98.118  0.00  0.00    +0.046 A 
BRANCH  27  34
ATOM     33  C1  UNL     1     146.249 136.595  97.399  0.00  0.00    +0.277 C 
ATOM     34  O1  UNL     1     146.691 135.270  97.668  0.00  0.00    -0.495 OA
ENDBRANCH  27  34
ENDBRANCH  23  30
ENDBRANCH   1  25
TORSDOF 6
ENDMDL
MODEL 5
REMARK VINA RESULT:    -4.787      2.388      2.808
REMARK INTER + INTRA:          -7.667
REMARK INTER:                  -5.912
REMARK INTRA:                  -1.755
REMARK UNBOUND:                -1.340
REMARK  Name = /home/vital/Documents/PhD_2021/Malaria_codes/data/pdb_ligands_mmv/ligand_243.pdb
REMARK  7 active torsions:
REMARK  status: ('A' for Active; 'I' for Inactive)
REMARK    1  A    between atoms: C1_1  and  O1_2
REMARK    2  A    between atoms: O1_2  and  C2_3
REMARK    3  A    between atoms: C5_6  and  C8_9
REMARK    4  A    between atoms: N1_11  and  C9_12
REMARK    5  A    between atoms: C9_12  and  C10_13
REMARK    6  A    between atoms: C9_12  and  C16_21
REMARK    7  A    between atoms: C24_31  and  O3_32
REMARK                            x       y       z     vdW  Elec       q    Type
REMARK                         _______ _______ _______ _____ _____    ______ ____
ROOT
ATOM      1  C9  UNL     1     142.769 125.675 102.599  0.00  0.00    +0.139 C 
ENDROOT
BRANCH   1   2
ATOM      2  C16 UNL     1     141.928 126.470 101.607  0.00  0.00    +0.022 A 
ATOM      3  C17 UNL     1     141.409 125.831 100.473  0.00  0.00    +0.030 A 
ATOM      4  C18 UNL     1     140.629 126.533  99.549  0.00  0.00    +0.051 A 
ATOM      5 CL3  UNL     1     140.026 125.646  98.189  0.00  0.00    -0.083 Cl
ATOM      6  C19 UNL     1     140.346 127.909  99.726  0.00  0.00    +0.022 A 
ATOM      7  C20 UNL     1     139.569 128.698  98.848  0.00  0.00    +0.013 A 
ATOM      8  C21 UNL     1     139.353 130.046  99.111  0.00  0.00    +0.020 A 
ATOM      9  C22 UNL     1     139.921 130.582 100.249  0.00  0.00    +0.111 A 
ATOM     10  N2  UNL     1     140.670 129.871 101.118  0.00  0.00    -0.251 NA
ATOM     11  C23 UNL     1     140.874 128.562 100.857  0.00  0.00    +0.114 A 
ATOM     12  C24 UNL     1     141.650 127.832 101.759  0.00  0.00    +0.148 A 
BRANCH  12  13
ATOM     13  O3  UNL     1     142.166 128.515 102.838  0.00  0.00    -0.504 OA
ATOM     14  H17 UNL     1     141.601 129.316 102.906  0.00  0.00    +0.292 HD
ENDBRANCH  12  13
ENDBRANCH   1   2
BRANCH   1  15
ATOM     15  C10 UNL     1     143.862 124.839 101.924  0.00  0.00    -0.004 A 
ATOM     16  C11 UNL     1     143.684 123.434 101.969  0.00  0.00    +0.008 A 
ATOM     17  C12 UNL     1     144.611 122.554 101.407  0.00  0.00    +0.020 A 
ATOM     18  C13 UNL     1     145.743 123.060 100.785  0.00  0.00    +0.042 A 
ATOM     19 CL1  UNL     1     146.891 121.984 100.091  0.00  0.00    -0.083 Cl
ATOM     20  C14 UNL     1     145.950 124.432 100.720  0.00  0.00    +0.040 A 
ATOM     21  C15 UNL     1     145.021 125.320 101.283  0.00  0.00    +0.048 A 
ATOM     22 CL2  UNL     1     145.414 126.998 101.114  0.00  0.00    -0.083 Cl
ENDBRANCH   1  15
BRANCH   1  25
ATOM     23  C8  UNL     1     141.412 125.541 104.658  0.00  0.00    +0.245 C 
ATOM     24  O2  UNL     1     141.799 126.621 105.091  0.00  0.00    -0.270 OA
ATOM     25  N1  UNL     1     141.910 124.963 103.516  0.00  0.00    -0.300 N 
ATOM     26  H8  UNL     1     141.513 124.105 103.156  0.00  0.00    +0.150 HD
BRANCH  23  30
ATOM     27  C2  UNL     1     138.328 123.319 106.671  0.00  0.00    +0.120 A 
ATOM     28  C3  UNL     1     138.168 123.731 105.348  0.00  0.00    +0.046 A 
ATOM     29  C4  UNL     1     139.184 124.452 104.710  0.00  0.00    +0.016 A 
ATOM     30  C5  UNL     1     140.365 124.776 105.391  0.00  0.00    +0.037 A 
ATOM     31  C6  UNL     1     140.532 124.349 106.712  0.00  0.00    +0.016 A 
ATOM     32  C7  UNL     1     139.514 123.629 107.345  0.00  0.00    +0.046 A 
BRANCH  27  34
ATOM     33  C1  UNL     1     137.943 121.662 108.331  0.00  0.00    +0.277 C 
ATOM     34  O1  UNL     1     137.420 122.613 107.411  0.00  0.00    -0.495 OA
ENDBRANCH  27  34
ENDBRANCH  23  30
ENDBRANCH   1  25
TORSDOF 6
ENDMDL
MODEL 6
REMARK VINA RESULT:    -4.752      3.040      5.197
REMARK INTER + INTRA:          -7.621
REMARK INTER:                  -5.895
REMARK INTRA:                  -1.726
REMARK UNBOUND:                -1.340
REMARK  Name = /home/vital/Documents/PhD_2021/Malaria_codes/data/pdb_ligands_mmv/ligand_243.pdb
REMARK  7 active torsions:
REMARK  status: ('A' for Active; 'I' for Inactive)
REMARK    1  A    between atoms: C1_1  and  O1_2
REMARK    2  A    between atoms: O1_2  and  C2_3
REMARK    3  A    between atoms: C5_6  and  C8_9
REMARK    4  A    between atoms: N1_11  and  C9_12
REMARK    5  A    between atoms: C9_12  and  C10_13
REMARK    6  A    between atoms: C9_12  and  C16_21
REMARK    7  A    between atoms: C24_31  and  O3_32
REMARK                            x       y       z     vdW  Elec       q    Type
REMARK                         _______ _______ _______ _____ _____    ______ ____
ROOT
ATOM      1  C9  UNL     1     141.887 125.305 100.165  0.00  0.00    +0.139 C 
ENDROOT
BRANCH   1   2
ATOM      2  C16 UNL     1     141.455 126.750  99.942  0.00  0.00    +0.022 A 
ATOM      3  C17 UNL     1     140.252 127.016  99.274  0.00  0.00    +0.030 A 
ATOM      4  C18 UNL     1     139.827 128.331  99.060  0.00  0.00    +0.051 A 
ATOM      5 CL3  UNL     1     138.319 128.549  98.237  0.00  0.00    -0.083 Cl
ATOM      6  C19 UNL     1     140.600 129.431  99.503  0.00  0.00    +0.022 A 
ATOM      7  C20 UNL     1     140.252 130.790  99.334  0.00  0.00    +0.013 A 
ATOM      8  C21 UNL     1     141.085 131.799  99.803  0.00  0.00    +0.020 A 
ATOM      9  C22 UNL     1     142.255 131.430 100.435  0.00  0.00    +0.111 A 
ATOM     10  N2  UNL     1     142.632 130.147 100.622  0.00  0.00    -0.251 NA
ATOM     11  C23 UNL     1     141.817 129.173 100.164  0.00  0.00    +0.114 A 
ATOM     12  C24 UNL     1     142.212 127.849 100.360  0.00  0.00    +0.148 A 
BRANCH  12  13
ATOM     13  O3  UNL     1     143.420 127.641 100.990  0.00  0.00    -0.504 OA
ATOM     14  H17 UNL     1     144.069 128.111 100.420  0.00  0.00    +0.292 HD
ENDBRANCH  12  13
ENDBRANCH   1   2
BRANCH   1  15
ATOM     15  C10 UNL     1     141.761 124.440  98.906  0.00  0.00    -0.004 A 
ATOM     16  C11 UNL     1     140.752 123.446  98.936  0.00  0.00    +0.008 A 
ATOM     17  C12 UNL     1     140.539 122.577  97.863  0.00  0.00    +0.020 A 
ATOM     18  C13 UNL     1     141.333 122.684  96.731  0.00  0.00    +0.042 A 
ATOM     19 CL1  UNL     1     141.079 121.619  95.404  0.00  0.00    -0.083 Cl
ATOM     20  C14 UNL     1     142.331 123.649  96.664  0.00  0.00    +0.040 A 
ATOM     21  C15 UNL     1     142.548 124.523  97.740  0.00  0.00    +0.048 A 
ATOM     22 CL2  UNL     1     143.820 125.674  97.505  0.00  0.00    -0.083 Cl
ENDBRANCH   1  15
BRANCH   1  25
ATOM     23  C8  UNL     1     141.785 124.962 102.609  0.00  0.00    +0.245 C 
ATOM     24  O2  UNL     1     142.910 125.409 102.809  0.00  0.00    -0.270 OA
ATOM     25  N1  UNL     1     141.257 124.780 101.353  0.00  0.00    -0.300 N 
ATOM     26  H8  UNL     1     140.300 124.476 101.235  0.00  0.00    +0.150 HD
BRANCH  23  30
ATOM     27  C2  UNL     1     139.298 123.935 105.964  0.00  0.00    +0.120 A 
ATOM     28  C3  UNL     1     139.848 125.211 105.843  0.00  0.00    +0.046 A 
ATOM     29  C4  UNL     1     140.654 125.526 104.743  0.00  0.00    +0.016 A 
ATOM     30  C5  UNL     1     140.924 124.567 103.758  0.00  0.00    +0.037 A 
ATOM     31  C6  UNL     1     140.359 123.293 103.871  0.00  0.00    +0.016 A 
ATOM     32  C7  UNL     1     139.556 122.983 104.972  0.00  0.00    +0.046 A 
BRANCH  27  34
ATOM     33  C1  UNL     1     137.900 122.215 106.821  0.00  0.00    +0.277 C 
ATOM     34  O1  UNL     1     138.497 123.496 106.981  0.00  0.00    -0.495 OA
ENDBRANCH  27  34
ENDBRANCH  23  30
ENDBRANCH   1  25
TORSDOF 6
ENDMDL
MODEL 7
REMARK VINA RESULT:    -4.413      4.107      5.762
REMARK INTER + INTRA:          -7.172
REMARK INTER:                  -5.630
REMARK INTRA:                  -1.542
REMARK UNBOUND:                -1.340
REMARK  Name = /home/vital/Documents/PhD_2021/Malaria_codes/data/pdb_ligands_mmv/ligand_243.pdb
REMARK  7 active torsions:
REMARK  status: ('A' for Active; 'I' for Inactive)
REMARK    1  A    between atoms: C1_1  and  O1_2
REMARK    2  A    between atoms: O1_2  and  C2_3
REMARK    3  A    between atoms: C5_6  and  C8_9
REMARK    4  A    between atoms: N1_11  and  C9_12
REMARK    5  A    between atoms: C9_12  and  C10_13
REMARK    6  A    between atoms: C9_12  and  C16_21
REMARK    7  A    between atoms: C24_31  and  O3_32
REMARK                            x       y       z     vdW  Elec       q    Type
REMARK                         _______ _______ _______ _____ _____    ______ ____
ROOT
ATOM      1  C9  UNL     1     142.170 129.197 100.952  0.00  0.00    +0.139 C 
ENDROOT
BRANCH   1   2
ATOM      2  C16 UNL     1     141.746 128.126  99.955  0.00  0.00    +0.022 A 
ATOM      3  C17 UNL     1     140.421 128.091  99.500  0.00  0.00    +0.030 A 
ATOM      4  C18 UNL     1     140.005 127.122  98.580  0.00  0.00    +0.051 A 
ATOM      5 CL3  UNL     1     138.349 127.176  98.073  0.00  0.00    -0.083 Cl
ATOM      6  C19 UNL     1     140.904 126.146  98.088  0.00  0.00    +0.022 A 
ATOM      7  C20 UNL     1     140.575 125.133  97.159  0.00  0.00    +0.013 A 
ATOM      8  C21 UNL     1     141.533 124.217  96.741  0.00  0.00    +0.020 A 
ATOM      9  C22 UNL     1     142.806 124.330  97.261  0.00  0.00    +0.111 A 
ATOM     10  N2  UNL     1     143.171 125.279  98.149  0.00  0.00    -0.251 NA
ATOM     11  C23 UNL     1     142.234 126.166  98.550  0.00  0.00    +0.114 A 
ATOM     12  C24 UNL     1     142.617 127.145  99.468  0.00  0.00    +0.148 A 
BRANCH  12  13
ATOM     13  O3  UNL     1     143.921 127.115  99.912  0.00  0.00    -0.504 OA
ATOM     14  H17 UNL     1     144.444 127.407  99.132  0.00  0.00    +0.292 HD
ENDBRANCH  12  13
ENDBRANCH   1   2
BRANCH   1  15
ATOM     15  C10 UNL     1     142.794 130.427 100.282  0.00  0.00    -0.004 A 
ATOM     16  C11 UNL     1     144.209 130.492 100.302  0.00  0.00    +0.008 A 
ATOM     17  C12 UNL     1     144.907 131.565  99.741  0.00  0.00    +0.020 A 
ATOM     18  C13 UNL     1     144.202 132.601  99.146  0.00  0.00    +0.042 A 
ATOM     19 CL1  UNL     1     145.052 133.927  98.455  0.00  0.00    -0.083 Cl
ATOM     20  C14 UNL     1     142.813 132.570  99.106  0.00  0.00    +0.040 A 
ATOM     21  C15 UNL     1     142.109 131.494  99.668  0.00  0.00    +0.048 A 
ATOM     22 CL2  UNL     1     140.386 131.595  99.533  0.00  0.00    -0.083 Cl
ENDBRANCH   1  15
BRANCH   1  25
ATOM     23  C8  UNL     1     142.374 127.828 102.997  0.00  0.00    +0.245 C 
ATOM     24  O2  UNL     1     141.163 127.735 103.164  0.00  0.00    -0.270 OA
ATOM     25  N1  UNL     1     142.944 128.602 102.016  0.00  0.00    -0.300 N 
ATOM     26  H8  UNL     1     143.945 128.595 101.869  0.00  0.00    +0.150 HD
BRANCH  23  30
ATOM     27  C2  UNL     1     144.990 125.628 105.607  0.00  0.00    +0.120 A 
ATOM     28  C3  UNL     1     143.662 125.241 105.431  0.00  0.00    +0.046 A 
ATOM     29  C4  UNL     1     142.827 125.969 104.576  0.00  0.00    +0.016 A 
ATOM     30  C5  UNL     1     143.309 127.096 103.896  0.00  0.00    +0.037 A 
ATOM     31  C6  UNL     1     144.645 127.474 104.061  0.00  0.00    +0.016 A 
ATOM     32  C7  UNL     1     145.474 126.743 104.917  0.00  0.00    +0.046 A 
BRANCH  27  34
ATOM     33  C1  UNL     1     146.753 125.851 107.186  0.00  0.00    +0.277 C 
ATOM     34  O1  UNL     1     145.910 125.009 106.408  0.00  0.00    -0.495 OA
ENDBRANCH  27  34
ENDBRANCH  23  30
ENDBRANCH   1  25
TORSDOF 6
ENDMDL
MODEL 8
REMARK VINA RESULT:    -4.380     13.687     17.667
REMARK INTER + INTRA:          -7.128
REMARK INTER:                  -5.419
REMARK INTRA:                  -1.709
REMARK UNBOUND:                -1.340
REMARK  Name = /home/vital/Documents/PhD_2021/Malaria_codes/data/pdb_ligands_mmv/ligand_243.pdb
REMARK  7 active torsions:
REMARK  status: ('A' for Active; 'I' for Inactive)
REMARK    1  A    between atoms: C1_1  and  O1_2
REMARK    2  A    between atoms: O1_2  and  C2_3
REMARK    3  A    between atoms: C5_6  and  C8_9
REMARK    4  A    between atoms: N1_11  and  C9_12
REMARK    5  A    between atoms: C9_12  and  C10_13
REMARK    6  A    between atoms: C9_12  and  C16_21
REMARK    7  A    between atoms: C24_31  and  O3_32
REMARK                            x       y       z     vdW  Elec       q    Type
REMARK                         _______ _______ _______ _____ _____    ______ ____
ROOT
ATOM      1  C9  UNL     1     137.179 124.158  87.736  0.00  0.00    +0.139 C 
ENDROOT
BRANCH   1   2
ATOM      2  C16 UNL     1     135.740 123.672  87.596  0.00  0.00    +0.022 A 
ATOM      3  C17 UNL     1     134.810 123.967  88.601  0.00  0.00    +0.030 A 
ATOM      4  C18 UNL     1     133.482 123.539  88.497  0.00  0.00    +0.051 A 
ATOM      5 CL3  UNL     1     132.411 123.968  89.788  0.00  0.00    -0.083 Cl
ATOM      6  C19 UNL     1     133.041 122.789  87.380  0.00  0.00    +0.022 A 
ATOM      7  C20 UNL     1     131.723 122.317  87.188  0.00  0.00    +0.013 A 
ATOM      8  C21 UNL     1     131.391 121.584  86.055  0.00  0.00    +0.020 A 
ATOM      9  C22 UNL     1     132.386 121.336  85.131  0.00  0.00    +0.111 A 
ATOM     10  N2  UNL     1     133.658 121.765  85.267  0.00  0.00    -0.251 NA
ATOM     11  C23 UNL     1     133.973 122.478  86.371  0.00  0.00    +0.114 A 
ATOM     12  C24 UNL     1     135.290 122.920  86.506  0.00  0.00    +0.148 A 
BRANCH  12  13
ATOM     13  O3  UNL     1     136.174 122.573  85.508  0.00  0.00    -0.504 OA
ATOM     14  H17 UNL     1     136.718 121.858  85.910  0.00  0.00    +0.292 HD
ENDBRANCH  12  13
ENDBRANCH   1   2
BRANCH   1  15
ATOM     15  C10 UNL     1     137.871 123.627  88.996  0.00  0.00    -0.004 A 
ATOM     16  C11 UNL     1     138.177 124.592  89.987  0.00  0.00    +0.008 A 
ATOM     17  C12 UNL     1     138.822 124.249  91.178  0.00  0.00    +0.020 A 
ATOM     18  C13 UNL     1     139.177 122.927  91.405  0.00  0.00    +0.042 A 
ATOM     19 CL1  UNL     1     139.973 122.494  92.867  0.00  0.00    -0.083 Cl
ATOM     20  C14 UNL     1     138.891 121.953  90.456  0.00  0.00    +0.040 A 
ATOM     21  C15 UNL     1     138.243 122.294  89.259  0.00  0.00    +0.048 A 
ATOM     22 CL2  UNL     1     137.949 120.972  88.181  0.00  0.00    -0.083 Cl
ENDBRANCH   1  15
BRANCH   1  25
ATOM     23  C8  UNL     1     137.156 126.167  86.299  0.00  0.00    +0.245 C 
ATOM     24  O2  UNL     1     137.222 125.530  85.253  0.00  0.00    -0.270 OA
ATOM     25  N1  UNL     1     137.236 125.588  87.542  0.00  0.00    -0.300 N 
ATOM     26  H8  UNL     1     137.106 126.142  88.379  0.00  0.00    +0.150 HD
BRANCH  23  30
ATOM     27  C2  UNL     1     136.794 130.452  86.277  0.00  0.00    +0.120 A 
ATOM     28  C3  UNL     1     137.534 129.800  87.263  0.00  0.00    +0.046 A 
ATOM     29  C4  UNL     1     137.641 128.405  87.252  0.00  0.00    +0.016 A 
ATOM     30  C5  UNL     1     137.003 127.648  86.261  0.00  0.00    +0.037 A 
ATOM     31  C6  UNL     1     136.274 128.303  85.264  0.00  0.00    +0.016 A 
ATOM     32  C7  UNL     1     136.170 129.697  85.280  0.00  0.00    +0.046 A 
BRANCH  27  34
ATOM     33  C1  UNL     1     135.361 132.239  85.642  0.00  0.00    +0.277 C 
ATOM     34  O1  UNL     1     136.608 131.803  86.170  0.00  0.00    -0.495 OA
ENDBRANCH  27  34
ENDBRANCH  23  30
ENDBRANCH   1  25
TORSDOF 6
ENDMDL
MODEL 9
REMARK VINA RESULT:    -4.262      4.010      5.782
REMARK INTER + INTRA:          -6.972
REMARK INTER:                  -5.601
REMARK INTRA:                  -1.372
REMARK UNBOUND:                -1.340
REMARK  Name = /home/vital/Documents/PhD_2021/Malaria_codes/data/pdb_ligands_mmv/ligand_243.pdb
REMARK  7 active torsions:
REMARK  status: ('A' for Active; 'I' for Inactive)
REMARK    1  A    between atoms: C1_1  and  O1_2
REMARK    2  A    between atoms: O1_2  and  C2_3
REMARK    3  A    between atoms: C5_6  and  C8_9
REMARK    4  A    between atoms: N1_11  and  C9_12
REMARK    5  A    between atoms: C9_12  and  C10_13
REMARK    6  A    between atoms: C9_12  and  C16_21
REMARK    7  A    between atoms: C24_31  and  O3_32
REMARK                            x       y       z     vdW  Elec       q    Type
REMARK                         _______ _______ _______ _____ _____    ______ ____
ROOT
ATOM      1  C9  UNL     1     141.334 127.153 101.314  0.00  0.00    +0.139 C 
ENDROOT
BRANCH   1   2
ATOM      2  C16 UNL     1     141.304 126.124 100.190  0.00  0.00    +0.022 A 
ATOM      3  C17 UNL     1     141.137 126.550  98.866  0.00  0.00    +0.030 A 
ATOM      4  C18 UNL     1     141.112 125.628  97.814  0.00  0.00    +0.051 A 
ATOM      5 CL3  UNL     1     140.913 126.261  96.214  0.00  0.00    -0.083 Cl
ATOM      6  C19 UNL     1     141.246 124.239  98.055  0.00  0.00    +0.022 A 
ATOM      7  C20 UNL     1     141.234 123.237  97.059  0.00  0.00    +0.013 A 
ATOM      8  C21 UNL     1     141.369 121.897  97.401  0.00  0.00    +0.020 A 
ATOM      9  C22 UNL     1     141.514 121.582  98.737  0.00  0.00    +0.111 A 
ATOM     10  N2  UNL     1     141.533 122.501  99.725  0.00  0.00    -0.251 NA
ATOM     11  C23 UNL     1     141.402 123.801  99.384  0.00  0.00    +0.114 A 
ATOM     12  C24 UNL     1     141.422 124.747 100.410  0.00  0.00    +0.148 A 
BRANCH  12  13
ATOM     13  O3  UNL     1     141.553 124.274 101.698  0.00  0.00    -0.504 OA
ATOM     14  H17 UNL     1     141.367 125.060 102.260  0.00  0.00    +0.292 HD
ENDBRANCH  12  13
ENDBRANCH   1   2
BRANCH   1  15
ATOM     15  C10 UNL     1     141.234 128.597 100.807  0.00  0.00    -0.004 A 
ATOM     16  C11 UNL     1     142.465 129.248 100.547  0.00  0.00    +0.008 A 
ATOM     17  C12 UNL     1     142.520 130.570 100.096  0.00  0.00    +0.020 A 
ATOM     18  C13 UNL     1     141.341 131.272  99.895  0.00  0.00    +0.042 A 
ATOM     19 CL1  UNL     1     141.398 132.899  99.342  0.00  0.00    -0.083 Cl
ATOM     20  C14 UNL     1     140.115 130.664 100.138  0.00  0.00    +0.040 A 
ATOM     21  C15 UNL     1     140.055 129.337 100.591  0.00  0.00    +0.048 A 
ATOM     22 CL2  UNL     1     138.458 128.718 100.839  0.00  0.00    -0.083 Cl
ENDBRANCH   1  15
BRANCH   1  25
ATOM     23  C8  UNL     1     142.306 126.935 103.574  0.00  0.00    +0.245 C 
ATOM     24  O2  UNL     1     141.324 127.404 104.139  0.00  0.00    -0.270 OA
ATOM     25  N1  UNL     1     142.435 126.877 102.207  0.00  0.00    -0.300 N 
ATOM     26  H8  UNL     1     143.230 126.418 101.783  0.00  0.00    +0.150 HD
BRANCH  23  30
ATOM     27  C2  UNL     1     145.661 125.524 105.865  0.00  0.00    +0.120 A 
ATOM     28  C3  UNL     1     145.740 126.709 105.134  0.00  0.00    +0.046 A 
ATOM     29  C4  UNL     1     144.636 127.152 104.396  0.00  0.00    +0.016 A 
ATOM     30  C5  UNL     1     143.448 126.411 104.374  0.00  0.00    +0.037 A 
ATOM     31  C6  UNL     1     143.364 125.231 105.119  0.00  0.00    +0.016 A 
ATOM     32  C7  UNL     1     144.469 124.792 105.855  0.00  0.00    +0.046 A 
BRANCH  27  34
ATOM     33  C1  UNL     1     146.274 124.390 107.862  0.00  0.00    +0.277 C 
ATOM     34  O1  UNL     1     146.658 124.978 106.625  0.00  0.00    -0.495 OA
ENDBRANCH  27  34
ENDBRANCH  23  30
ENDBRANCH   1  25
TORSDOF 6
ENDMDL
