MODEL 1
REMARK VINA RESULT:    -3.210      0.000      0.000
REMARK INTER + INTRA:          -7.114
REMARK INTER:                  -4.336
REMARK INTRA:                  -2.778
REMARK UNBOUND:                -2.778
REMARK  Name = /home/vital/Documents/PhD_2021/Malaria_codes/data/pdb_ligands_mmv/ligand_0.pdb
REMARK  7 active torsions:
REMARK  status: ('A' for Active; 'I' for Inactive)
REMARK    1  A    between atoms: C1_1  and  O1_2
REMARK    2  A    between atoms: O1_2  and  C2_3
REMARK    3  A    between atoms: C7_8  and  C8_9
REMARK    4  A    between atoms: C8_9  and  N1_10
REMARK    5  A    between atoms: C9_11  and  C10_13
REMARK    6  A    between atoms: C10_13  and  C11_14
REMARK    7  A    between atoms: C11_14  and  N2_15
REMARK                            x       y       z     vdW  Elec       q    Type
REMARK                         _______ _______ _______ _____ _____    ______ ____
ROOT
ATOM      1  C10 UNL     1     139.502 126.606  98.009  0.00  0.00    +0.117 C 
ENDROOT
BRANCH   1   3
ATOM      2  N1  UNL     1     139.604 128.593  99.364  0.00  0.00    -0.311 N 
ATOM      3  C9  UNL     1     139.174 128.074  98.164  0.00  0.00    +0.215 C 
ATOM      4  O2  UNL     1     138.580 128.727  97.312  0.00  0.00    -0.276 OA
ATOM      5  H10 UNL     1     140.244 128.057  99.934  0.00  0.00    +0.149 HD
BRANCH   2   6
ATOM      6  C8  UNL     1     139.515 130.005  99.661  0.00  0.00    +0.143 C 
BRANCH   6  12
ATOM      7  C2  UNL     1     141.636 129.950 101.070  0.00  0.00    +0.125 A 
ATOM      8  C3  UNL     1     142.887 130.488 101.393  0.00  0.00    +0.046 A 
ATOM      9  C4  UNL     1     143.374 131.609 100.714  0.00  0.00    +0.004 A 
ATOM     10  C5  UNL     1     142.620 132.198  99.705  0.00  0.00    +0.001 A 
ATOM     11  C6  UNL     1     141.373 131.671  99.376  0.00  0.00    +0.009 A 
ATOM     12  C7  UNL     1     140.863 130.555 100.061  0.00  0.00    +0.011 A 
BRANCH   7  14
ATOM     13  C1  UNL     1     141.988 127.872 102.187  0.00  0.00    +0.277 C 
ATOM     14  O1  UNL     1     141.089 128.841 101.662  0.00  0.00    -0.495 OA
ENDBRANCH   7  14
ENDBRANCH   6  12
ENDBRANCH   2   6
ENDBRANCH   1   3
BRANCH   1  15
ATOM     15  C11 UNL     1     140.665 126.403  97.043  0.00  0.00    +0.139 C 
BRANCH  15  16
ATOM     16  N2  UNL     1     141.882 127.057  97.515  0.00  0.00    -0.260 N 
ATOM     17  C12 UNL     1     142.586 126.447  98.555  0.00  0.00    +0.330 A 
ATOM     18  O3  UNL     1     142.250 125.385  99.076  0.00  0.00    -0.246 OA
ATOM     19  N3  UNL     1     143.724 127.077  99.000  0.00  0.00    -0.307 N 
ATOM     20  C13 UNL     1     144.193 128.235  98.430  0.00  0.00    +0.063 A 
ATOM     21  C14 UNL     1     145.342 128.981  98.790  0.00  0.00    +0.034 A 
ATOM     22  C15 UNL     1     145.494 130.087  97.974  0.00  0.00    +0.048 A 
ATOM     23  S1  UNL     1     144.251 130.194  96.793  0.00  0.00    -0.090 S 
ATOM     24  C16 UNL     1     143.517 128.779  97.374  0.00  0.00    +0.100 A 
ATOM     25  C17 UNL     1     142.319 128.200  96.823  0.00  0.00    +0.271 A 
ATOM     26  O4  UNL     1     141.737 128.635  95.831  0.00  0.00    -0.266 OA
ATOM     27  H15 UNL     1     144.221 126.640  99.765  0.00  0.00    +0.170 HD
ENDBRANCH  15  16
ENDBRANCH   1  15
TORSDOF 6
ENDMDL
MODEL 2
REMARK VINA RESULT:    -3.144      2.387      4.841
REMARK INTER + INTRA:          -7.025
REMARK INTER:                  -4.518
REMARK INTRA:                  -2.507
REMARK UNBOUND:                -2.778
REMARK  Name = /home/vital/Documents/PhD_2021/Malaria_codes/data/pdb_ligands_mmv/ligand_0.pdb
REMARK  7 active torsions:
REMARK  status: ('A' for Active; 'I' for Inactive)
REMARK    1  A    between atoms: C1_1  and  O1_2
REMARK    2  A    between atoms: O1_2  and  C2_3
REMARK    3  A    between atoms: C7_8  and  C8_9
REMARK    4  A    between atoms: C8_9  and  N1_10
REMARK    5  A    between atoms: C9_11  and  C10_13
REMARK    6  A    between atoms: C10_13  and  C11_14
REMARK    7  A    between atoms: C11_14  and  N2_15
REMARK                            x       y       z     vdW  Elec       q    Type
REMARK                         _______ _______ _______ _____ _____    ______ ____
ROOT
ATOM      1  C10 UNL     1     145.110 130.477 101.090  0.00  0.00    +0.117 C 
ENDROOT
BRANCH   1   3
ATOM      2  N1  UNL     1     143.092 131.086  99.929  0.00  0.00    -0.311 N 
ATOM      3  C9  UNL     1     143.781 131.197 101.114  0.00  0.00    +0.215 C 
ATOM      4  O2  UNL     1     143.368 131.819 102.088  0.00  0.00    -0.276 OA
ATOM      5  H10 UNL     1     143.397 130.412  99.240  0.00  0.00    +0.149 HD
BRANCH   2   6
ATOM      6  C8  UNL     1     141.742 131.582  99.780  0.00  0.00    +0.143 C 
BRANCH   6  12
ATOM      7  C2  UNL     1     140.691 129.437  98.897  0.00  0.00    +0.125 A 
ATOM      8  C3  UNL     1     139.758 128.403  99.033  0.00  0.00    +0.046 A 
ATOM      9  C4  UNL     1     138.890 128.370 100.128  0.00  0.00    +0.004 A 
ATOM     10  C5  UNL     1     138.950 129.365 101.099  0.00  0.00    +0.001 A 
ATOM     11  C6  UNL     1     139.875 130.399 100.973  0.00  0.00    +0.009 A 
ATOM     12  C7  UNL     1     140.743 130.454  99.868  0.00  0.00    +0.011 A 
BRANCH   7  14
ATOM     13  C1  UNL     1     141.770 128.399  97.040  0.00  0.00    +0.277 C 
ATOM     14  O1  UNL     1     141.598 129.539  97.873  0.00  0.00    -0.495 OA
ENDBRANCH   7  14
ENDBRANCH   6  12
ENDBRANCH   2   6
ENDBRANCH   1   3
BRANCH   1  15
ATOM     15  C11 UNL     1     145.075 129.229 101.967  0.00  0.00    +0.139 C 
BRANCH  15  16
ATOM     16  N2  UNL     1     144.220 128.190 101.397  0.00  0.00    -0.260 N 
ATOM     17  C12 UNL     1     142.975 127.974 101.991  0.00  0.00    +0.330 A 
ATOM     18  O3  UNL     1     142.554 128.622 102.949  0.00  0.00    -0.246 OA
ATOM     19  N3  UNL     1     142.185 126.987 101.455  0.00  0.00    -0.307 N 
ATOM     20  C13 UNL     1     142.562 126.260 100.352  0.00  0.00    +0.063 A 
ATOM     21  C14 UNL     1     141.849 125.223  99.704  0.00  0.00    +0.034 A 
ATOM     22  C15 UNL     1     142.550 124.739  98.617  0.00  0.00    +0.048 A 
ATOM     23  S1  UNL     1     144.049 125.550  98.401  0.00  0.00    -0.090 S 
ATOM     24  C16 UNL     1     143.761 126.533  99.753  0.00  0.00    +0.100 A 
ATOM     25  C17 UNL     1     144.664 127.550 100.227  0.00  0.00    +0.271 A 
ATOM     26  O4  UNL     1     145.712 127.857  99.662  0.00  0.00    -0.266 OA
ATOM     27  H15 UNL     1     141.291 126.822 101.900  0.00  0.00    +0.170 HD
ENDBRANCH  15  16
ENDBRANCH   1  15
TORSDOF 6
ENDMDL
MODEL 3
REMARK VINA RESULT:    -3.112      2.714      5.154
REMARK INTER + INTRA:          -6.981
REMARK INTER:                  -4.315
REMARK INTRA:                  -2.666
REMARK UNBOUND:                -2.778
REMARK  Name = /home/vital/Documents/PhD_2021/Malaria_codes/data/pdb_ligands_mmv/ligand_0.pdb
REMARK  7 active torsions:
REMARK  status: ('A' for Active; 'I' for Inactive)
REMARK    1  A    between atoms: C1_1  and  O1_2
REMARK    2  A    between atoms: O1_2  and  C2_3
REMARK    3  A    between atoms: C7_8  and  C8_9
REMARK    4  A    between atoms: C8_9  and  N1_10
REMARK    5  A    between atoms: C9_11  and  C10_13
REMARK    6  A    between atoms: C10_13  and  C11_14
REMARK    7  A    between atoms: C11_14  and  N2_15
REMARK                            x       y       z     vdW  Elec       q    Type
REMARK                         _______ _______ _______ _____ _____    ______ ____
ROOT
ATOM      1  C10 UNL     1     145.163 131.073 100.791  0.00  0.00    +0.117 C 
ENDROOT
BRANCH   1   3
ATOM      2  N1  UNL     1     142.980 131.542  99.893  0.00  0.00    -0.311 N 
ATOM      3  C9  UNL     1     143.734 131.496 101.043  0.00  0.00    +0.215 C 
ATOM      4  O2  UNL     1     143.299 131.776 102.155  0.00  0.00    -0.276 OA
ATOM      5  H10 UNL     1     143.342 131.123  99.047  0.00  0.00    +0.149 HD
BRANCH   2   6
ATOM      6  C8  UNL     1     141.555 131.789  99.922  0.00  0.00    +0.143 C 
BRANCH   6  12
ATOM      7  C2  UNL     1     141.069 129.485  98.950  0.00  0.00    +0.125 A 
ATOM      8  C3  UNL     1     140.337 128.293  98.976  0.00  0.00    +0.046 A 
ATOM      9  C4  UNL     1     139.340 128.092  99.935  0.00  0.00    +0.004 A 
ATOM     10  C5  UNL     1     139.069 129.077 100.879  0.00  0.00    +0.001 A 
ATOM     11  C6  UNL     1     139.791 130.268 100.863  0.00  0.00    +0.009 A 
ATOM     12  C7  UNL     1     140.785 130.491  99.894  0.00  0.00    +0.011 A 
BRANCH   7  14
ATOM     13  C1  UNL     1     142.558 128.685  97.268  0.00  0.00    +0.277 C 
ATOM     14  O1  UNL     1     142.079 129.761  98.066  0.00  0.00    -0.495 OA
ENDBRANCH   7  14
ENDBRANCH   6  12
ENDBRANCH   2   6
ENDBRANCH   1   3
BRANCH   1  15
ATOM     15  C11 UNL     1     145.534 129.860 101.638  0.00  0.00    +0.139 C 
BRANCH  15  16
ATOM     16  N2  UNL     1     144.792 128.669 101.233  0.00  0.00    -0.260 N 
ATOM     17  C12 UNL     1     145.214 128.001 100.081  0.00  0.00    +0.330 A 
ATOM     18  O3  UNL     1     146.184 128.346  99.408  0.00  0.00    -0.246 OA
ATOM     19  N3  UNL     1     144.502 126.889  99.702  0.00  0.00    -0.307 N 
ATOM     20  C13 UNL     1     143.444 126.408 100.434  0.00  0.00    +0.063 A 
ATOM     21  C14 UNL     1     142.630 125.283 100.157  0.00  0.00    +0.034 A 
ATOM     22  C15 UNL     1     141.669 125.110 101.135  0.00  0.00    +0.048 A 
ATOM     23  S1  UNL     1     141.774 126.305 102.364  0.00  0.00    -0.090 S 
ATOM     24  C16 UNL     1     143.089 127.048 101.589  0.00  0.00    +0.100 A 
ATOM     25  C17 UNL     1     143.770 128.216 102.084  0.00  0.00    +0.271 A 
ATOM     26  O4  UNL     1     143.510 128.763 103.155  0.00  0.00    -0.266 OA
ATOM     27  H15 UNL     1     144.801 126.418  98.858  0.00  0.00    +0.170 HD
ENDBRANCH  15  16
ENDBRANCH   1  15
TORSDOF 6
ENDMDL
MODEL 4
REMARK VINA RESULT:    -2.937      1.996      3.540
REMARK INTER + INTRA:          -6.744
REMARK INTER:                  -3.953
REMARK INTRA:                  -2.791
REMARK UNBOUND:                -2.778
REMARK  Name = /home/vital/Documents/PhD_2021/Malaria_codes/data/pdb_ligands_mmv/ligand_0.pdb
REMARK  7 active torsions:
REMARK  status: ('A' for Active; 'I' for Inactive)
REMARK    1  A    between atoms: C1_1  and  O1_2
REMARK    2  A    between atoms: O1_2  and  C2_3
REMARK    3  A    between atoms: C7_8  and  C8_9
REMARK    4  A    between atoms: C8_9  and  N1_10
REMARK    5  A    between atoms: C9_11  and  C10_13
REMARK    6  A    between atoms: C10_13  and  C11_14
REMARK    7  A    between atoms: C11_14  and  N2_15
REMARK                            x       y       z     vdW  Elec       q    Type
REMARK                         _______ _______ _______ _____ _____    ______ ____
ROOT
ATOM      1  C10 UNL     1     143.105 127.800  95.211  0.00  0.00    +0.117 C 
ENDROOT
BRANCH   1   3
ATOM      2  N1  UNL     1     141.281 127.245  96.682  0.00  0.00    -0.311 N 
ATOM      3  C9  UNL     1     141.616 127.816  95.475  0.00  0.00    +0.215 C 
ATOM      4  O2  UNL     1     140.796 128.282  94.691  0.00  0.00    -0.276 OA
ATOM      5  H10 UNL     1     142.009 127.053  97.357  0.00  0.00    +0.149 HD
BRANCH   2   6
ATOM      6  C8  UNL     1     139.930 127.278  97.194  0.00  0.00    +0.143 C 
BRANCH   6  12
ATOM      7  C2  UNL     1     140.794 127.229  99.590  0.00  0.00    +0.125 A 
ATOM      8  C3  UNL     1     140.748 127.715 100.901  0.00  0.00    +0.046 A 
ATOM      9  C4  UNL     1     139.842 128.719 101.255  0.00  0.00    +0.004 A 
ATOM     10  C5  UNL     1     138.979 129.251 100.302  0.00  0.00    +0.001 A 
ATOM     11  C6  UNL     1     139.016 128.774  98.993  0.00  0.00    +0.009 A 
ATOM     12  C7  UNL     1     139.911 127.753  98.627  0.00  0.00    +0.011 A 
BRANCH   7  14
ATOM     13  C1  UNL     1     142.701 125.867 100.032  0.00  0.00    +0.277 C 
ATOM     14  O1  UNL     1     141.664 126.267  99.145  0.00  0.00    -0.495 OA
ENDBRANCH   7  14
ENDBRANCH   6  12
ENDBRANCH   2   6
ENDBRANCH   1   3
BRANCH   1  15
ATOM     15  C11 UNL     1     143.743 129.134  95.584  0.00  0.00    +0.139 C 
BRANCH  15  16
ATOM     16  N2  UNL     1     143.801 129.322  97.031  0.00  0.00    -0.260 N 
ATOM     17  C12 UNL     1     144.718 128.550  97.750  0.00  0.00    +0.330 A 
ATOM     18  O3  UNL     1     145.488 127.744  97.230  0.00  0.00    -0.246 OA
ATOM     19  N3  UNL     1     144.757 128.726  99.112  0.00  0.00    -0.307 N 
ATOM     20  C13 UNL     1     143.969 129.647  99.758  0.00  0.00    +0.063 A 
ATOM     21  C14 UNL     1     143.909 129.925 101.144  0.00  0.00    +0.034 A 
ATOM     22  C15 UNL     1     143.000 130.931 101.413  0.00  0.00    +0.048 A 
ATOM     23  S1  UNL     1     142.244 131.517  99.986  0.00  0.00    -0.090 S 
ATOM     24  C16 UNL     1     143.122 130.431  99.023  0.00  0.00    +0.100 A 
ATOM     25  C17 UNL     1     143.007 130.337  97.591  0.00  0.00    +0.271 A 
ATOM     26  O4  UNL     1     142.304 131.079  96.906  0.00  0.00    -0.266 OA
ATOM     27  H15 UNL     1     145.409 128.153  99.630  0.00  0.00    +0.170 HD
ENDBRANCH  15  16
ENDBRANCH   1  15
TORSDOF 6
ENDMDL
MODEL 5
REMARK VINA RESULT:    -2.852      3.628      5.453
REMARK INTER + INTRA:          -6.629
REMARK INTER:                  -4.783
REMARK INTRA:                  -1.846
REMARK UNBOUND:                -2.778
REMARK  Name = /home/vital/Documents/PhD_2021/Malaria_codes/data/pdb_ligands_mmv/ligand_0.pdb
REMARK  7 active torsions:
REMARK  status: ('A' for Active; 'I' for Inactive)
REMARK    1  A    between atoms: C1_1  and  O1_2
REMARK    2  A    between atoms: O1_2  and  C2_3
REMARK    3  A    between atoms: C7_8  and  C8_9
REMARK    4  A    between atoms: C8_9  and  N1_10
REMARK    5  A    between atoms: C9_11  and  C10_13
REMARK    6  A    between atoms: C10_13  and  C11_14
REMARK    7  A    between atoms: C11_14  and  N2_15
REMARK                            x       y       z     vdW  Elec       q    Type
REMARK                         _______ _______ _______ _____ _____    ______ ____
ROOT
ATOM      1  C10 UNL     1     143.977 132.486  99.353  0.00  0.00    +0.117 C 
ENDROOT
BRANCH   1   3
ATOM      2  N1  UNL     1     141.874 131.334  99.558  0.00  0.00    -0.311 N 
ATOM      3  C9  UNL     1     142.963 131.813 100.250  0.00  0.00    +0.215 C 
ATOM      4  O2  UNL     1     143.096 131.714 101.465  0.00  0.00    -0.276 OA
ATOM      5  H10 UNL     1     141.912 131.281  98.549  0.00  0.00    +0.149 HD
BRANCH   2   6
ATOM      6  C8  UNL     1     140.851 130.537 100.199  0.00  0.00    +0.143 C 
BRANCH   6  12
ATOM      7  C2  UNL     1     141.197 128.546  98.648  0.00  0.00    +0.125 A 
ATOM      8  C3  UNL     1     140.666 127.569  97.799  0.00  0.00    +0.046 A 
ATOM      9  C4  UNL     1     139.289 127.503  97.567  0.00  0.00    +0.004 A 
ATOM     10  C5  UNL     1     138.431 128.407  98.184  0.00  0.00    +0.001 A 
ATOM     11  C6  UNL     1     138.949 129.385  99.031  0.00  0.00    +0.009 A 
ATOM     12  C7  UNL     1     140.333 129.474  99.261  0.00  0.00    +0.011 A 
BRANCH   7  14
ATOM     13  C1  UNL     1     143.250 127.477  99.221  0.00  0.00    +0.277 C 
ATOM     14  O1  UNL     1     142.527 128.673  98.955  0.00  0.00    -0.495 OA
ENDBRANCH   7  14
ENDBRANCH   6  12
ENDBRANCH   2   6
ENDBRANCH   1   3
BRANCH   1  15
ATOM     15  C11 UNL     1     144.580 131.493  98.364  0.00  0.00    +0.139 C 
BRANCH  15  16
ATOM     16  N2  UNL     1     144.463 131.962  96.986  0.00  0.00    -0.260 N 
ATOM     17  C12 UNL     1     143.312 131.611  96.276  0.00  0.00    +0.330 A 
ATOM     18  O3  UNL     1     142.390 130.952  96.754  0.00  0.00    -0.246 OA
ATOM     19  N3  UNL     1     143.217 132.048  94.977  0.00  0.00    -0.307 N 
ATOM     20  C13 UNL     1     144.180 132.835  94.393  0.00  0.00    +0.063 A 
ATOM     21  C14 UNL     1     144.206 133.347  93.073  0.00  0.00    +0.034 A 
ATOM     22  C15 UNL     1     145.337 134.110  92.856  0.00  0.00    +0.048 A 
ATOM     23  S1  UNL     1     146.338 134.193  94.250  0.00  0.00    -0.090 S 
ATOM     24  C16 UNL     1     145.268 133.213  95.129  0.00  0.00    +0.100 A 
ATOM     25  C17 UNL     1     145.465 132.820  96.501  0.00  0.00    +0.271 A 
ATOM     26  O4  UNL     1     146.400 133.206  97.200  0.00  0.00    -0.266 OA
ATOM     27  H15 UNL     1     142.390 131.776  94.461  0.00  0.00    +0.170 HD
ENDBRANCH  15  16
ENDBRANCH   1  15
TORSDOF 6
ENDMDL
MODEL 6
REMARK VINA RESULT:    -2.758      4.288      5.896
REMARK INTER + INTRA:          -6.502
REMARK INTER:                  -4.993
REMARK INTRA:                  -1.509
REMARK UNBOUND:                -2.778
REMARK  Name = /home/vital/Documents/PhD_2021/Malaria_codes/data/pdb_ligands_mmv/ligand_0.pdb
REMARK  7 active torsions:
REMARK  status: ('A' for Active; 'I' for Inactive)
REMARK    1  A    between atoms: C1_1  and  O1_2
REMARK    2  A    between atoms: O1_2  and  C2_3
REMARK    3  A    between atoms: C7_8  and  C8_9
REMARK    4  A    between atoms: C8_9  and  N1_10
REMARK    5  A    between atoms: C9_11  and  C10_13
REMARK    6  A    between atoms: C10_13  and  C11_14
REMARK    7  A    between atoms: C11_14  and  N2_15
REMARK                            x       y       z     vdW  Elec       q    Type
REMARK                         _______ _______ _______ _____ _____    ______ ____
ROOT
ATOM      1  C10 UNL     1     143.374 133.566  98.383  0.00  0.00    +0.117 C 
ENDROOT
BRANCH   1   3
ATOM      2  N1  UNL     1     142.244 131.678  99.358  0.00  0.00    -0.311 N 
ATOM      3  C9  UNL     1     142.138 133.016  99.057  0.00  0.00    +0.215 C 
ATOM      4  O2  UNL     1     141.145 133.694  99.301  0.00  0.00    -0.276 OA
ATOM      5  H10 UNL     1     143.147 131.228  99.302  0.00  0.00    +0.149 HD
BRANCH   2   6
ATOM      6  C8  UNL     1     141.233 130.984 100.125  0.00  0.00    +0.143 C 
BRANCH   6  12
ATOM      7  C2  UNL     1     141.390 128.950  98.600  0.00  0.00    +0.125 A 
ATOM      8  C3  UNL     1     140.760 127.934  97.873  0.00  0.00    +0.046 A 
ATOM      9  C4  UNL     1     139.366 127.830  97.858  0.00  0.00    +0.004 A 
ATOM     10  C5  UNL     1     138.590 128.736  98.573  0.00  0.00    +0.001 A 
ATOM     11  C6  UNL     1     139.206 129.752  99.299  0.00  0.00    +0.009 A 
ATOM     12  C7  UNL     1     140.606 129.879  99.310  0.00  0.00    +0.011 A 
BRANCH   7  14
ATOM     13  C1  UNL     1     143.538 128.634  97.614  0.00  0.00    +0.277 C 
ATOM     14  O1  UNL     1     142.747 129.115  98.694  0.00  0.00    -0.495 OA
ENDBRANCH   7  14
ENDBRANCH   6  12
ENDBRANCH   2   6
ENDBRANCH   1   3
BRANCH   1  15
ATOM     15  C11 UNL     1     144.123 132.470  97.631  0.00  0.00    +0.139 C 
BRANCH  15  16
ATOM     16  N2  UNL     1     144.311 132.811  96.223  0.00  0.00    -0.260 N 
ATOM     17  C12 UNL     1     145.406 133.611  95.889  0.00  0.00    +0.330 A 
ATOM     18  O3  UNL     1     146.227 134.022  96.708  0.00  0.00    -0.246 OA
ATOM     19  N3  UNL     1     145.567 133.936  94.564  0.00  0.00    -0.307 N 
ATOM     20  C13 UNL     1     144.725 133.468  93.584  0.00  0.00    +0.063 A 
ATOM     21  C14 UNL     1     144.777 133.725  92.193  0.00  0.00    +0.034 A 
ATOM     22  C15 UNL     1     143.762 133.066  91.526  0.00  0.00    +0.048 A 
ATOM     23  S1  UNL     1     142.775 132.151  92.593  0.00  0.00    -0.090 S 
ATOM     24  C16 UNL     1     143.695 132.639  93.932  0.00  0.00    +0.100 A 
ATOM     25  C17 UNL     1     143.439 132.228  95.288  0.00  0.00    +0.271 A 
ATOM     26  O4  UNL     1     142.562 131.428  95.611  0.00  0.00    -0.266 OA
ATOM     27  H15 UNL     1     146.352 134.529  94.329  0.00  0.00    +0.170 HD
ENDBRANCH  15  16
ENDBRANCH   1  15
TORSDOF 6
ENDMDL
MODEL 7
REMARK VINA RESULT:    -2.605      2.741      5.127
REMARK INTER + INTRA:          -6.296
REMARK INTER:                  -3.847
REMARK INTRA:                  -2.449
REMARK UNBOUND:                -2.778
REMARK  Name = /home/vital/Documents/PhD_2021/Malaria_codes/data/pdb_ligands_mmv/ligand_0.pdb
REMARK  7 active torsions:
REMARK  status: ('A' for Active; 'I' for Inactive)
REMARK    1  A    between atoms: C1_1  and  O1_2
REMARK    2  A    between atoms: O1_2  and  C2_3
REMARK    3  A    between atoms: C7_8  and  C8_9
REMARK    4  A    between atoms: C8_9  and  N1_10
REMARK    5  A    between atoms: C9_11  and  C10_13
REMARK    6  A    between atoms: C10_13  and  C11_14
REMARK    7  A    between atoms: C11_14  and  N2_15
REMARK                            x       y       z     vdW  Elec       q    Type
REMARK                         _______ _______ _______ _____ _____    ______ ____
ROOT
ATOM      1  C10 UNL     1     145.744 128.950 101.889  0.00  0.00    +0.117 C 
ENDROOT
BRANCH   1   3
ATOM      2  N1  UNL     1     143.731 127.902 101.086  0.00  0.00    -0.311 N 
ATOM      3  C9  UNL     1     144.339 128.472 102.181  0.00  0.00    +0.215 C 
ATOM      4  O2  UNL     1     143.800 128.588 103.276  0.00  0.00    -0.276 OA
ATOM      5  H10 UNL     1     144.289 127.669 100.275  0.00  0.00    +0.149 HD
BRANCH   2   6
ATOM      6  C8  UNL     1     142.441 127.257 101.178  0.00  0.00    +0.143 C 
BRANCH   6  12
ATOM      7  C2  UNL     1     141.484 128.761  99.358  0.00  0.00    +0.125 A 
ATOM      8  C3  UNL     1     140.444 129.562  98.876  0.00  0.00    +0.046 A 
ATOM      9  C4  UNL     1     139.279 129.743  99.629  0.00  0.00    +0.004 A 
ATOM     10  C5  UNL     1     139.142 129.121 100.865  0.00  0.00    +0.001 A 
ATOM     11  C6  UNL     1     140.172 128.322 101.356  0.00  0.00    +0.009 A 
ATOM     12  C7  UNL     1     141.356 128.145 100.617  0.00  0.00    +0.011 A 
BRANCH   7  14
ATOM     13  C1  UNL     1     142.560 128.338  97.272  0.00  0.00    +0.277 C 
ATOM     14  O1  UNL     1     142.649 128.506  98.682  0.00  0.00    -0.495 OA
ENDBRANCH   7  14
ENDBRANCH   6  12
ENDBRANCH   2   6
ENDBRANCH   1   3
BRANCH   1  15
ATOM     15  C11 UNL     1     145.799 130.472 101.802  0.00  0.00    +0.139 C 
BRANCH  15  16
ATOM     16  N2  UNL     1     145.002 130.980 100.688  0.00  0.00    -0.260 N 
ATOM     17  C12 UNL     1     143.770 131.567 100.986  0.00  0.00    +0.330 A 
ATOM     18  O3  UNL     1     143.334 131.698 102.128  0.00  0.00    -0.246 OA
ATOM     19  N3  UNL     1     143.023 132.031  99.930  0.00  0.00    -0.307 N 
ATOM     20  C13 UNL     1     143.468 131.972  98.632  0.00  0.00    +0.063 A 
ATOM     21  C14 UNL     1     142.804 132.409  97.460  0.00  0.00    +0.034 A 
ATOM     22  C15 UNL     1     143.578 132.191  96.337  0.00  0.00    +0.048 A 
ATOM     23  S1  UNL     1     145.089 131.471  96.723  0.00  0.00    -0.090 S 
ATOM     24  C16 UNL     1     144.704 131.446  98.375  0.00  0.00    +0.100 A 
ATOM     25  C17 UNL     1     145.573 130.938  99.405  0.00  0.00    +0.271 A 
ATOM     26  O4  UNL     1     146.714 130.526  99.202  0.00  0.00    -0.266 OA
ATOM     27  H15 UNL     1     142.124 132.439 100.148  0.00  0.00    +0.170 HD
ENDBRANCH  15  16
ENDBRANCH   1  15
TORSDOF 6
ENDMDL
MODEL 8
REMARK VINA RESULT:    -2.575      3.696      6.546
REMARK INTER + INTRA:          -6.256
REMARK INTER:                  -4.345
REMARK INTRA:                  -1.911
REMARK UNBOUND:                -2.778
REMARK  Name = /home/vital/Documents/PhD_2021/Malaria_codes/data/pdb_ligands_mmv/ligand_0.pdb
REMARK  7 active torsions:
REMARK  status: ('A' for Active; 'I' for Inactive)
REMARK    1  A    between atoms: C1_1  and  O1_2
REMARK    2  A    between atoms: O1_2  and  C2_3
REMARK    3  A    between atoms: C7_8  and  C8_9
REMARK    4  A    between atoms: C8_9  and  N1_10
REMARK    5  A    between atoms: C9_11  and  C10_13
REMARK    6  A    between atoms: C10_13  and  C11_14
REMARK    7  A    between atoms: C11_14  and  N2_15
REMARK                            x       y       z     vdW  Elec       q    Type
REMARK                         _______ _______ _______ _____ _____    ______ ____
ROOT
ATOM      1  C10 UNL     1     143.707 128.988 102.618  0.00  0.00    +0.117 C 
ENDROOT
BRANCH   1   3
ATOM      2  N1  UNL     1     142.236 129.341 100.745  0.00  0.00    -0.311 N 
ATOM      3  C9  UNL     1     143.036 129.963 101.677  0.00  0.00    +0.215 C 
ATOM      4  O2  UNL     1     143.196 131.177 101.736  0.00  0.00    -0.276 OA
ATOM      5  H10 UNL     1     142.002 128.365 100.867  0.00  0.00    +0.149 HD
BRANCH   2   6
ATOM      6  C8  UNL     1     141.396 130.089  99.837  0.00  0.00    +0.143 C 
BRANCH   6  12
ATOM      7  C2  UNL     1     141.031 128.045  98.362  0.00  0.00    +0.125 A 
ATOM      8  C3  UNL     1     140.166 127.208  97.651  0.00  0.00    +0.046 A 
ATOM      9  C4  UNL     1     138.792 127.467  97.619  0.00  0.00    +0.004 A 
ATOM     10  C5  UNL     1     138.271 128.561  98.303  0.00  0.00    +0.001 A 
ATOM     11  C6  UNL     1     139.124 129.402  99.014  0.00  0.00    +0.009 A 
ATOM     12  C7  UNL     1     140.510 129.163  99.040  0.00  0.00    +0.011 A 
BRANCH   7  14
ATOM     13  C1  UNL     1     142.859 126.515  98.454  0.00  0.00    +0.277 C 
ATOM     14  O1  UNL     1     142.385 127.857  98.470  0.00  0.00    -0.495 OA
ENDBRANCH   7  14
ENDBRANCH   6  12
ENDBRANCH   2   6
ENDBRANCH   1   3
BRANCH   1  15
ATOM     15  C11 UNL     1     143.434 127.546 102.202  0.00  0.00    +0.139 C 
BRANCH  15  16
ATOM     16  N2  UNL     1     142.551 126.868 103.148  0.00  0.00    -0.260 N 
ATOM     17  C12 UNL     1     141.207 126.726 102.795  0.00  0.00    +0.330 A 
ATOM     18  O3  UNL     1     140.736 127.119 101.729  0.00  0.00    -0.246 OA
ATOM     19  N3  UNL     1     140.383 126.097 103.697  0.00  0.00    -0.307 N 
ATOM     20  C13 UNL     1     140.847 125.582 104.882  0.00  0.00    +0.063 A 
ATOM     21  C14 UNL     1     140.112 124.917 105.893  0.00  0.00    +0.034 A 
ATOM     22  C15 UNL     1     140.932 124.532 106.936  0.00  0.00    +0.048 A 
ATOM     23  S1  UNL     1     142.569 124.978 106.669  0.00  0.00    -0.090 S 
ATOM     24  C16 UNL     1     142.179 125.682 105.176  0.00  0.00    +0.100 A 
ATOM     25  C17 UNL     1     143.133 126.314 104.301  0.00  0.00    +0.271 A 
ATOM     26  O4  UNL     1     144.343 126.353 104.515  0.00  0.00    -0.266 OA
ATOM     27  H15 UNL     1     139.407 126.012 103.445  0.00  0.00    +0.170 HD
ENDBRANCH  15  16
ENDBRANCH   1  15
TORSDOF 6
ENDMDL
MODEL 9
REMARK VINA RESULT:    -2.477      2.386      4.407
REMARK INTER + INTRA:          -6.123
REMARK INTER:                  -3.962
REMARK INTRA:                  -2.161
REMARK UNBOUND:                -2.778
REMARK  Name = /home/vital/Documents/PhD_2021/Malaria_codes/data/pdb_ligands_mmv/ligand_0.pdb
REMARK  7 active torsions:
REMARK  status: ('A' for Active; 'I' for Inactive)
REMARK    1  A    between atoms: C1_1  and  O1_2
REMARK    2  A    between atoms: O1_2  and  C2_3
REMARK    3  A    between atoms: C7_8  and  C8_9
REMARK    4  A    between atoms: C8_9  and  N1_10
REMARK    5  A    between atoms: C9_11  and  C10_13
REMARK    6  A    between atoms: C10_13  and  C11_14
REMARK    7  A    between atoms: C11_14  and  N2_15
REMARK                            x       y       z     vdW  Elec       q    Type
REMARK                         _______ _______ _______ _____ _____    ______ ____
ROOT
ATOM      1  C10 UNL     1     144.541 131.601 100.134  0.00  0.00    +0.117 C 
ENDROOT
BRANCH   1   3
ATOM      2  N1  UNL     1     142.223 130.971  99.982  0.00  0.00    -0.311 N 
ATOM      3  C9  UNL     1     143.221 131.379 100.837  0.00  0.00    +0.215 C 
ATOM      4  O2  UNL     1     143.059 131.552 102.041  0.00  0.00    -0.276 OA
ATOM      5  H10 UNL     1     142.465 130.670  99.048  0.00  0.00    +0.149 HD
BRANCH   2   6
ATOM      6  C8  UNL     1     140.920 130.571 100.463  0.00  0.00    +0.143 C 
BRANCH   6  12
ATOM      7  C2  UNL     1     141.109 128.263  99.401  0.00  0.00    +0.125 A 
ATOM      8  C3  UNL     1     140.545 127.234  98.640  0.00  0.00    +0.046 A 
ATOM      9  C4  UNL     1     139.252 127.360  98.122  0.00  0.00    +0.004 A 
ATOM     10  C5  UNL     1     138.510 128.511  98.365  0.00  0.00    +0.001 A 
ATOM     11  C6  UNL     1     139.062 129.542  99.121  0.00  0.00    +0.009 A 
ATOM     12  C7  UNL     1     140.367 129.437  99.634  0.00  0.00    +0.011 A 
BRANCH   7  14
ATOM     13  C1  UNL     1     143.122 127.039  99.768  0.00  0.00    +0.277 C 
ATOM     14  O1  UNL     1     142.355 128.220  99.970  0.00  0.00    -0.495 OA
ENDBRANCH   7  14
ENDBRANCH   6  12
ENDBRANCH   2   6
ENDBRANCH   1   3
BRANCH   1  15
ATOM     15  C11 UNL     1     144.335 131.846  98.643  0.00  0.00    +0.139 C 
BRANCH  15  16
ATOM     16  N2  UNL     1     144.481 130.617  97.867  0.00  0.00    -0.260 N 
ATOM     17  C12 UNL     1     145.679 129.910  97.989  0.00  0.00    +0.330 A 
ATOM     18  O3  UNL     1     146.602 130.252  98.726  0.00  0.00    -0.246 OA
ATOM     19  N3  UNL     1     145.811 128.762  97.246  0.00  0.00    -0.307 N 
ATOM     20  C13 UNL     1     144.802 128.286  96.444  0.00  0.00    +0.063 A 
ATOM     21  C14 UNL     1     144.808 127.126  95.631  0.00  0.00    +0.034 A 
ATOM     22  C15 UNL     1     143.600 126.970  94.977  0.00  0.00    +0.048 A 
ATOM     23  S1  UNL     1     142.490 128.222  95.362  0.00  0.00    -0.090 S 
ATOM     24  C16 UNL     1     143.618 128.966  96.388  0.00  0.00    +0.100 A 
ATOM     25  C17 UNL     1     143.369 130.175  97.131  0.00  0.00    +0.271 A 
ATOM     26  O4  UNL     1     142.288 130.762  97.148  0.00  0.00    -0.266 OA
ATOM     27  H15 UNL     1     146.687 128.262  97.324  0.00  0.00    +0.170 HD
ENDBRANCH  15  16
ENDBRANCH   1  15
TORSDOF 6
ENDMDL
