MODEL 1
REMARK VINA RESULT:    -4.597      0.000      0.000
REMARK INTER + INTRA:          -5.147
REMARK INTER:                  -4.866
REMARK INTRA:                  -0.281
REMARK UNBOUND:                -0.281
REMARK  Name = /home/vital/Documents/PhD_2021/Malaria_codes/data/pdb_ligands_mmv/ligand_251.pdb
REMARK  1 active torsions:
REMARK  status: ('A' for Active; 'I' for Inactive)
REMARK    1  A    between atoms: C4_5  and  C7_8
REMARK                            x       y       z     vdW  Elec       q    Type
REMARK                         _______ _______ _______ _____ _____    ______ ____
ROOT
ATOM      1  C7  UNL     1     141.673 126.867 103.420  0.00  0.00    +0.094 A 
ATOM      2  C8  UNL     1     142.837 127.602 103.214  0.00  0.00    +0.044 A 
ATOM      3  C9  UNL     1     142.736 128.680 102.364  0.00  0.00    +0.052 A 
ATOM      4  C10 UNL     1     143.745 129.660 101.926  0.00  0.00    +0.196 C 
ATOM      5  O1  UNL     1     144.909 129.685 102.261  0.00  0.00    -0.287 OA
ATOM      6  C11 UNL     1     143.056 130.595 101.005  0.00  0.00    +0.032 A 
ATOM      7  C12 UNL     1     143.555 131.688 100.326  0.00  0.00    +0.012 A 
ATOM      8  C13 UNL     1     142.660 132.391  99.519  0.00  0.00    +0.001 A 
ATOM      9  C14 UNL     1     141.312 131.989  99.414  0.00  0.00    +0.001 A 
ATOM     10  C15 UNL     1     140.830 130.876 100.114  0.00  0.00    +0.011 A 
ATOM     11  C16 UNL     1     141.717 130.179 100.914  0.00  0.00    +0.014 A 
ATOM     12  C17 UNL     1     141.548 129.017 101.746  0.00  0.00    +0.105 A 
ATOM     13  N1  UNL     1     140.433 128.318 101.938  0.00  0.00    -0.148 NA
ATOM     14  N2  UNL     1     140.510 127.231 102.788  0.00  0.00    -0.149 NA
ENDROOT
BRANCH   1  19
ATOM     15 BR1  UNL     1     141.285 121.933 107.176  0.00  0.00    -0.050 Br
ATOM     16  C1  UNL     1     141.404 123.429 106.029  0.00  0.00    +0.018 A 
ATOM     17  C2  UNL     1     141.335 124.713 106.553  0.00  0.00    +0.016 A 
ATOM     18  C3  UNL     1     141.424 125.817 105.696  0.00  0.00    +0.011 A 
ATOM     19  C4  UNL     1     141.582 125.673 104.300  0.00  0.00    +0.002 A 
ATOM     20  C5  UNL     1     141.648 124.353 103.809  0.00  0.00    +0.011 A 
ATOM     21  C6  UNL     1     141.560 123.243 104.660  0.00  0.00    +0.016 A 
ENDBRANCH   1  19
TORSDOF 1
ENDMDL
MODEL 2
REMARK VINA RESULT:    -4.581      3.440      7.491
REMARK INTER + INTRA:          -5.130
REMARK INTER:                  -4.828
REMARK INTRA:                  -0.302
REMARK UNBOUND:                -0.281
REMARK  Name = /home/vital/Documents/PhD_2021/Malaria_codes/data/pdb_ligands_mmv/ligand_251.pdb
REMARK  1 active torsions:
REMARK  status: ('A' for Active; 'I' for Inactive)
REMARK    1  A    between atoms: C4_5  and  C7_8
REMARK                            x       y       z     vdW  Elec       q    Type
REMARK                         _______ _______ _______ _____ _____    ______ ____
ROOT
ATOM      1  C7  UNL     1     141.918 128.719 102.111  0.00  0.00    +0.094 A 
ATOM      2  C8  UNL     1     142.962 128.208 102.876  0.00  0.00    +0.044 A 
ATOM      3  C9  UNL     1     142.679 127.089 103.626  0.00  0.00    +0.052 A 
ATOM      4  C10 UNL     1     143.527 126.296 104.533  0.00  0.00    +0.196 C 
ATOM      5  O1  UNL     1     144.693 126.508 104.788  0.00  0.00    -0.287 OA
ATOM      6  C11 UNL     1     142.677 125.204 105.061  0.00  0.00    +0.032 A 
ATOM      7  C12 UNL     1     142.994 124.192 105.945  0.00  0.00    +0.012 A 
ATOM      8  C13 UNL     1     141.976 123.292 106.265  0.00  0.00    +0.001 A 
ATOM      9  C14 UNL     1     140.689 123.427 105.703  0.00  0.00    +0.001 A 
ATOM     10  C15 UNL     1     140.393 124.463 104.808  0.00  0.00    +0.011 A 
ATOM     11  C16 UNL     1     141.402 125.354 104.490  0.00  0.00    +0.014 A 
ATOM     12  C17 UNL     1     141.428 126.503 103.625  0.00  0.00    +0.105 A 
ATOM     13  N1  UNL     1     140.426 126.988 102.897  0.00  0.00    -0.148 NA
ATOM     14  N2  UNL     1     140.688 128.111 102.135  0.00  0.00    -0.149 NA
ENDROOT
BRANCH   1  19
ATOM     15 BR1  UNL     1     142.471 133.741  98.495  0.00  0.00    -0.050 Br
ATOM     16  C1  UNL     1     142.296 132.214  99.592  0.00  0.00    +0.018 A 
ATOM     17  C2  UNL     1     143.366 131.792 100.371  0.00  0.00    +0.016 A 
ATOM     18  C3  UNL     1     143.229 130.659 101.182  0.00  0.00    +0.011 A 
ATOM     19  C4  UNL     1     142.028 129.918 101.239  0.00  0.00    +0.002 A 
ATOM     20  C5  UNL     1     140.967 130.379 100.434  0.00  0.00    +0.011 A 
ATOM     21  C6  UNL     1     141.097 131.512  99.620  0.00  0.00    +0.016 A 
ENDBRANCH   1  19
TORSDOF 1
ENDMDL
MODEL 3
REMARK VINA RESULT:    -4.558      0.178      1.062
REMARK INTER + INTRA:          -5.105
REMARK INTER:                  -4.825
REMARK INTRA:                  -0.281
REMARK UNBOUND:                -0.281
REMARK  Name = /home/vital/Documents/PhD_2021/Malaria_codes/data/pdb_ligands_mmv/ligand_251.pdb
REMARK  1 active torsions:
REMARK  status: ('A' for Active; 'I' for Inactive)
REMARK    1  A    between atoms: C4_5  and  C7_8
REMARK                            x       y       z     vdW  Elec       q    Type
REMARK                         _______ _______ _______ _____ _____    ______ ____
ROOT
ATOM      1  C7  UNL     1     141.712 126.790 103.569  0.00  0.00    +0.094 A 
ATOM      2  C8  UNL     1     142.860 127.547 103.349  0.00  0.00    +0.044 A 
ATOM      3  C9  UNL     1     142.735 128.607 102.480  0.00  0.00    +0.052 A 
ATOM      4  C10 UNL     1     143.722 129.601 102.024  0.00  0.00    +0.196 C 
ATOM      5  O1  UNL     1     144.885 129.657 102.358  0.00  0.00    -0.287 OA
ATOM      6  C11 UNL     1     143.013 130.503 101.087  0.00  0.00    +0.032 A 
ATOM      7  C12 UNL     1     143.487 131.595 100.388  0.00  0.00    +0.012 A 
ATOM      8  C13 UNL     1     142.577 132.264  99.569  0.00  0.00    +0.001 A 
ATOM      9  C14 UNL     1     141.238 131.830  99.472  0.00  0.00    +0.001 A 
ATOM     10  C15 UNL     1     140.781 130.720 100.192  0.00  0.00    +0.011 A 
ATOM     11  C16 UNL     1     141.683 130.056 101.004  0.00  0.00    +0.014 A 
ATOM     12  C17 UNL     1     141.540 128.907 101.857  0.00  0.00    +0.105 A 
ATOM     13  N1  UNL     1     140.441 128.187 102.062  0.00  0.00    -0.148 NA
ATOM     14  N2  UNL     1     140.542 127.117 102.932  0.00  0.00    -0.149 NA
ENDROOT
BRANCH   1  19
ATOM     15 BR1  UNL     1     141.459 121.798 107.260  0.00  0.00    -0.050 Br
ATOM     16  C1  UNL     1     141.534 123.320 106.143  0.00  0.00    +0.018 A 
ATOM     17  C2  UNL     1     141.771 123.172 104.783  0.00  0.00    +0.016 A 
ATOM     18  C3  UNL     1     141.826 124.305 103.961  0.00  0.00    +0.011 A 
ATOM     19  C4  UNL     1     141.648 125.610 104.470  0.00  0.00    +0.002 A 
ATOM     20  C5  UNL     1     141.410 125.716 105.855  0.00  0.00    +0.011 A 
ATOM     21  C6  UNL     1     141.354 124.587 106.684  0.00  0.00    +0.016 A 
ENDBRANCH   1  19
TORSDOF 1
ENDMDL
MODEL 4
REMARK VINA RESULT:    -4.291      2.193      3.143
REMARK INTER + INTRA:          -4.823
REMARK INTER:                  -4.523
REMARK INTRA:                  -0.300
REMARK UNBOUND:                -0.281
REMARK  Name = /home/vital/Documents/PhD_2021/Malaria_codes/data/pdb_ligands_mmv/ligand_251.pdb
REMARK  1 active torsions:
REMARK  status: ('A' for Active; 'I' for Inactive)
REMARK    1  A    between atoms: C4_5  and  C7_8
REMARK                            x       y       z     vdW  Elec       q    Type
REMARK                         _______ _______ _______ _____ _____    ______ ____
ROOT
ATOM      1  C7  UNL     1     141.022 125.837 104.845  0.00  0.00    +0.094 A 
ATOM      2  C8  UNL     1     142.401 125.886 105.025  0.00  0.00    +0.044 A 
ATOM      3  C9  UNL     1     143.084 126.808 104.263  0.00  0.00    +0.052 A 
ATOM      4  C10 UNL     1     144.520 127.128 104.196  0.00  0.00    +0.196 C 
ATOM      5  O1  UNL     1     145.400 126.602 104.842  0.00  0.00    -0.287 OA
ATOM      6  C11 UNL     1     144.666 128.209 103.194  0.00  0.00    +0.032 A 
ATOM      7  C12 UNL     1     145.803 128.862 102.763  0.00  0.00    +0.012 A 
ATOM      8  C13 UNL     1     145.635 129.852 101.795  0.00  0.00    +0.001 A 
ATOM      9  C14 UNL     1     144.353 130.159 101.291  0.00  0.00    +0.001 A 
ATOM     10  C15 UNL     1     143.214 129.483 101.745  0.00  0.00    +0.011 A 
ATOM     11  C16 UNL     1     143.381 128.501 102.705  0.00  0.00    +0.014 A 
ATOM     12  C17 UNL     1     142.440 127.639 103.368  0.00  0.00    +0.105 A 
ATOM     13  N1  UNL     1     141.122 127.595 103.191  0.00  0.00    -0.148 NA
ATOM     14  N2  UNL     1     140.416 126.678 103.946  0.00  0.00    -0.149 NA
ENDROOT
BRANCH   1  19
ATOM     15 BR1  UNL     1     137.302 121.953 107.958  0.00  0.00    -0.050 Br
ATOM     16  C1  UNL     1     138.428 123.135 107.007  0.00  0.00    +0.018 A 
ATOM     17  C2  UNL     1     139.700 123.419 107.486  0.00  0.00    +0.016 A 
ATOM     18  C3  UNL     1     140.529 124.295 106.775  0.00  0.00    +0.011 A 
ATOM     19  C4  UNL     1     140.115 124.911 105.574  0.00  0.00    +0.002 A 
ATOM     20  C5  UNL     1     138.818 124.596 105.122  0.00  0.00    +0.011 A 
ATOM     21  C6  UNL     1     137.983 123.719 105.828  0.00  0.00    +0.016 A 
ENDBRANCH   1  19
TORSDOF 1
ENDMDL
MODEL 5
REMARK VINA RESULT:    -4.162      3.566      7.544
REMARK INTER + INTRA:          -4.686
REMARK INTER:                  -4.386
REMARK INTRA:                  -0.300
REMARK UNBOUND:                -0.281
REMARK  Name = /home/vital/Documents/PhD_2021/Malaria_codes/data/pdb_ligands_mmv/ligand_251.pdb
REMARK  1 active torsions:
REMARK  status: ('A' for Active; 'I' for Inactive)
REMARK    1  A    between atoms: C4_5  and  C7_8
REMARK                            x       y       z     vdW  Elec       q    Type
REMARK                         _______ _______ _______ _____ _____    ______ ____
ROOT
ATOM      1  C7  UNL     1     142.069 127.412 103.453  0.00  0.00    +0.094 A 
ATOM      2  C8  UNL     1     142.404 126.832 104.673  0.00  0.00    +0.044 A 
ATOM      3  C9  UNL     1     141.477 125.969 105.213  0.00  0.00    +0.052 A 
ATOM      4  C10 UNL     1     141.498 125.191 106.464  0.00  0.00    +0.196 C 
ATOM      5  O1  UNL     1     142.392 125.178 107.281  0.00  0.00    -0.287 OA
ATOM      6  C11 UNL     1     140.222 124.440 106.517  0.00  0.00    +0.032 A 
ATOM      7  C12 UNL     1     139.754 123.569 107.479  0.00  0.00    +0.012 A 
ATOM      8  C13 UNL     1     138.498 123.001 107.260  0.00  0.00    +0.001 A 
ATOM      9  C14 UNL     1     137.756 123.315 106.102  0.00  0.00    +0.001 A 
ATOM     10  C15 UNL     1     138.254 124.202 105.139  0.00  0.00    +0.011 A 
ATOM     11  C16 UNL     1     139.498 124.765 105.357  0.00  0.00    +0.014 A 
ATOM     12  C17 UNL     1     140.279 125.693 104.583  0.00  0.00    +0.105 A 
ATOM     13  N1  UNL     1     139.954 126.245 103.418  0.00  0.00    -0.148 NA
ATOM     14  N2  UNL     1     140.870 127.115 102.857  0.00  0.00    -0.149 NA
ENDROOT
BRANCH   1  19
ATOM     15 BR1  UNL     1     145.774 131.372 100.419  0.00  0.00    -0.050 Br
ATOM     16  C1  UNL     1     144.642 130.171 101.338  0.00  0.00    +0.018 A 
ATOM     17  C2  UNL     1     145.168 129.320 102.301  0.00  0.00    +0.016 A 
ATOM     18  C3  UNL     1     144.323 128.432 102.978  0.00  0.00    +0.011 A 
ATOM     19  C4  UNL     1     142.937 128.367 102.715  0.00  0.00    +0.002 A 
ATOM     20  C5  UNL     1     142.444 129.247 101.731  0.00  0.00    +0.011 A 
ATOM     21  C6  UNL     1     143.283 130.138 101.049  0.00  0.00    +0.016 A 
ENDBRANCH   1  19
TORSDOF 1
ENDMDL
MODEL 6
REMARK VINA RESULT:    -4.124      1.913      2.317
REMARK INTER + INTRA:          -4.646
REMARK INTER:                  -4.359
REMARK INTRA:                  -0.287
REMARK UNBOUND:                -0.281
REMARK  Name = /home/vital/Documents/PhD_2021/Malaria_codes/data/pdb_ligands_mmv/ligand_251.pdb
REMARK  1 active torsions:
REMARK  status: ('A' for Active; 'I' for Inactive)
REMARK    1  A    between atoms: C4_5  and  C7_8
REMARK                            x       y       z     vdW  Elec       q    Type
REMARK                         _______ _______ _______ _____ _____    ______ ____
ROOT
ATOM      1  C7  UNL     1     142.453 127.057 103.875  0.00  0.00    +0.094 A 
ATOM      2  C8  UNL     1     141.393 127.290 103.003  0.00  0.00    +0.044 A 
ATOM      3  C9  UNL     1     141.519 128.375 102.166  0.00  0.00    +0.052 A 
ATOM      4  C10 UNL     1     140.611 128.909 101.136  0.00  0.00    +0.196 C 
ATOM      5  O1  UNL     1     139.530 128.453 100.831  0.00  0.00    -0.287 OA
ATOM      6  C11 UNL     1     141.279 130.097 100.556  0.00  0.00    +0.032 A 
ATOM      7  C12 UNL     1     140.848 130.950  99.561  0.00  0.00    +0.012 A 
ATOM      8  C13 UNL     1     141.701 132.000  99.216  0.00  0.00    +0.001 A 
ATOM      9  C14 UNL     1     142.941 132.167  99.867  0.00  0.00    +0.001 A 
ATOM     10  C15 UNL     1     143.356 131.287 100.875  0.00  0.00    +0.011 A 
ATOM     11  C16 UNL     1     142.511 130.246 101.216  0.00  0.00    +0.014 A 
ATOM     12  C17 UNL     1     142.633 129.191 102.186  0.00  0.00    +0.105 A 
ATOM     13  N1  UNL     1     143.648 128.974 103.018  0.00  0.00    -0.148 NA
ATOM     14  N2  UNL     1     143.544 127.889 103.868  0.00  0.00    -0.149 NA
ENDROOT
BRANCH   1  19
ATOM     15 BR1  UNL     1     142.575 122.415 108.003  0.00  0.00    -0.050 Br
ATOM     16  C1  UNL     1     142.544 123.823 106.745  0.00  0.00    +0.018 A 
ATOM     17  C2  UNL     1     141.525 124.765 106.783  0.00  0.00    +0.016 A 
ATOM     18  C3  UNL     1     141.508 125.807 105.847  0.00  0.00    +0.011 A 
ATOM     19  C4  UNL     1     142.502 125.938 104.853  0.00  0.00    +0.002 A 
ATOM     20  C5  UNL     1     143.518 124.962 104.849  0.00  0.00    +0.011 A 
ATOM     21  C6  UNL     1     143.542 123.916 105.782  0.00  0.00    +0.016 A 
ENDBRANCH   1  19
TORSDOF 1
ENDMDL
MODEL 7
REMARK VINA RESULT:    -3.980     13.824     15.913
REMARK INTER + INTRA:          -4.493
REMARK INTER:                  -4.197
REMARK INTRA:                  -0.297
REMARK UNBOUND:                -0.281
REMARK  Name = /home/vital/Documents/PhD_2021/Malaria_codes/data/pdb_ligands_mmv/ligand_251.pdb
REMARK  1 active torsions:
REMARK  status: ('A' for Active; 'I' for Inactive)
REMARK    1  A    between atoms: C4_5  and  C7_8
REMARK                            x       y       z     vdW  Elec       q    Type
REMARK                         _______ _______ _______ _____ _____    ______ ____
ROOT
ATOM      1  C7  UNL     1     140.078 130.493  89.195  0.00  0.00    +0.094 A 
ATOM      2  C8  UNL     1     138.924 130.136  88.503  0.00  0.00    +0.044 A 
ATOM      3  C9  UNL     1     138.490 128.839  88.668  0.00  0.00    +0.052 A 
ATOM      4  C10 UNL     1     137.329 128.132  88.100  0.00  0.00    +0.196 C 
ATOM      5  O1  UNL     1     136.507 128.602  87.344  0.00  0.00    -0.287 OA
ATOM      6  C11 UNL     1     137.371 126.751  88.635  0.00  0.00    +0.032 A 
ATOM      7  C12 UNL     1     136.512 125.694  88.410  0.00  0.00    +0.012 A 
ATOM      8  C13 UNL     1     136.806 124.494  89.058  0.00  0.00    +0.001 A 
ATOM      9  C14 UNL     1     137.933 124.384  89.900  0.00  0.00    +0.001 A 
ATOM     10  C15 UNL     1     138.789 125.472  90.112  0.00  0.00    +0.011 A 
ATOM     11  C16 UNL     1     138.498 126.662  89.470  0.00  0.00    +0.014 A 
ATOM     12  C17 UNL     1     139.159 127.940  89.474  0.00  0.00    +0.105 A 
ATOM     13  N1  UNL     1     140.262 128.275  90.136  0.00  0.00    -0.148 NA
ATOM     14  N2  UNL     1     140.717 129.571  89.986  0.00  0.00    -0.149 NA
ENDROOT
BRANCH   1  19
ATOM     15 BR1  UNL     1     142.648 136.141  88.891  0.00  0.00    -0.050 Br
ATOM     16  C1  UNL     1     141.869 134.423  88.990  0.00  0.00    +0.018 A 
ATOM     17  C2  UNL     1     141.179 133.910  87.900  0.00  0.00    +0.016 A 
ATOM     18  C3  UNL     1     140.604 132.635  87.980  0.00  0.00    +0.011 A 
ATOM     19  C4  UNL     1     140.700 131.842  89.144  0.00  0.00    +0.002 A 
ATOM     20  C5  UNL     1     141.409 132.399  90.227  0.00  0.00    +0.011 A 
ATOM     21  C6  UNL     1     141.987 133.674  90.154  0.00  0.00    +0.016 A 
ENDBRANCH   1  19
TORSDOF 1
ENDMDL
MODEL 8
REMARK VINA RESULT:    -3.840      3.448      7.533
REMARK INTER + INTRA:          -4.346
REMARK INTER:                  -4.045
REMARK INTRA:                  -0.301
REMARK UNBOUND:                -0.281
REMARK  Name = /home/vital/Documents/PhD_2021/Malaria_codes/data/pdb_ligands_mmv/ligand_251.pdb
REMARK  1 active torsions:
REMARK  status: ('A' for Active; 'I' for Inactive)
REMARK    1  A    between atoms: C4_5  and  C7_8
REMARK                            x       y       z     vdW  Elec       q    Type
REMARK                         _______ _______ _______ _____ _____    ______ ____
ROOT
ATOM      1  C7  UNL     1     142.226 128.126 102.799  0.00  0.00    +0.094 A 
ATOM      2  C8  UNL     1     143.400 127.601 103.332  0.00  0.00    +0.044 A 
ATOM      3  C9  UNL     1     143.254 126.562 104.224  0.00  0.00    +0.052 A 
ATOM      4  C10 UNL     1     144.259 125.781 104.967  0.00  0.00    +0.196 C 
ATOM      5  O1  UNL     1     145.460 125.930 104.915  0.00  0.00    -0.287 OA
ATOM      6  C11 UNL     1     143.511 124.792 105.778  0.00  0.00    +0.032 A 
ATOM      7  C12 UNL     1     143.984 123.828 106.644  0.00  0.00    +0.012 A 
ATOM      8  C13 UNL     1     143.033 123.027 107.278  0.00  0.00    +0.001 A 
ATOM      9  C14 UNL     1     141.656 123.209 107.032  0.00  0.00    +0.001 A 
ATOM     10  C15 UNL     1     141.201 124.195 106.146  0.00  0.00    +0.011 A 
ATOM     11  C16 UNL     1     142.144 124.988 105.519  0.00  0.00    +0.014 A 
ATOM     12  C17 UNL     1     142.014 126.066 104.575  0.00  0.00    +0.105 A 
ATOM     13  N1  UNL     1     140.889 126.565 104.070  0.00  0.00    -0.148 NA
ATOM     14  N2  UNL     1     141.011 127.608 103.171  0.00  0.00    -0.149 NA
ENDROOT
BRANCH   1  19
ATOM     15 BR1  UNL     1     142.119 132.832  98.743  0.00  0.00    -0.050 Br
ATOM     16  C1  UNL     1     142.144 131.400  99.975  0.00  0.00    +0.018 A 
ATOM     17  C2  UNL     1     143.306 131.110 100.679  0.00  0.00    +0.016 A 
ATOM     18  C3  UNL     1     143.318 130.047 101.591  0.00  0.00    +0.011 A 
ATOM     19  C4  UNL     1     142.178 129.247 101.824  0.00  0.00    +0.002 A 
ATOM     20  C5  UNL     1     141.021 129.574 101.090  0.00  0.00    +0.011 A 
ATOM     21  C6  UNL     1     141.001 130.637 100.177  0.00  0.00    +0.016 A 
ENDBRANCH   1  19
TORSDOF 1
ENDMDL
MODEL 9
REMARK VINA RESULT:    -3.507     14.776     16.538
REMARK INTER + INTRA:          -3.993
REMARK INTER:                  -3.706
REMARK INTRA:                  -0.287
REMARK UNBOUND:                -0.281
REMARK  Name = /home/vital/Documents/PhD_2021/Malaria_codes/data/pdb_ligands_mmv/ligand_251.pdb
REMARK  1 active torsions:
REMARK  status: ('A' for Active; 'I' for Inactive)
REMARK    1  A    between atoms: C4_5  and  C7_8
REMARK                            x       y       z     vdW  Elec       q    Type
REMARK                         _______ _______ _______ _____ _____    ______ ____
ROOT
ATOM      1  C7  UNL     1     135.510 125.446  87.519  0.00  0.00    +0.094 A 
ATOM      2  C8  UNL     1     136.559 125.214  88.404  0.00  0.00    +0.044 A 
ATOM      3  C9  UNL     1     137.412 126.271  88.630  0.00  0.00    +0.052 A 
ATOM      4  C10 UNL     1     138.604 126.381  89.488  0.00  0.00    +0.196 C 
ATOM      5  O1  UNL     1     139.065 125.504  90.186  0.00  0.00    -0.287 OA
ATOM      6  C11 UNL     1     139.117 127.761  89.327  0.00  0.00    +0.032 A 
ATOM      7  C12 UNL     1     140.209 128.369  89.913  0.00  0.00    +0.012 A 
ATOM      8  C13 UNL     1     140.452 129.699  89.568  0.00  0.00    +0.001 A 
ATOM      9  C14 UNL     1     139.610 130.375  88.661  0.00  0.00    +0.001 A 
ATOM     10  C15 UNL     1     138.507 129.737  88.080  0.00  0.00    +0.011 A 
ATOM     11  C16 UNL     1     138.266 128.419  88.422  0.00  0.00    +0.014 A 
ATOM     12  C17 UNL     1     137.241 127.495  88.014  0.00  0.00    +0.105 A 
ATOM     13  N1  UNL     1     136.242 127.721  87.167  0.00  0.00    -0.148 NA
ATOM     14  N2  UNL     1     135.372 126.675  86.925  0.00  0.00    -0.149 NA
ENDROOT
BRANCH   1  19
ATOM     15 BR1  UNL     1     131.266 121.215  85.876  0.00  0.00    -0.050 Br
ATOM     16  C1  UNL     1     132.554 122.501  86.382  0.00  0.00    +0.018 A 
ATOM     17  C2  UNL     1     133.373 123.079  85.421  0.00  0.00    +0.016 A 
ATOM     18  C3  UNL     1     134.325 124.032  85.804  0.00  0.00    +0.011 A 
ATOM     19  C4  UNL     1     134.488 124.431  87.148  0.00  0.00    +0.002 A 
ATOM     20  C5  UNL     1     133.639 123.820  88.092  0.00  0.00    +0.011 A 
ATOM     21  C6  UNL     1     132.683 122.867  87.717  0.00  0.00    +0.016 A 
ENDBRANCH   1  19
TORSDOF 1
ENDMDL
