MODEL 1
REMARK VINA RESULT:    -4.402      0.000      0.000
REMARK INTER + INTRA:          -6.918
REMARK INTER:                  -5.688
REMARK INTRA:                  -1.230
REMARK UNBOUND:                -1.230
REMARK  Name = /home/vital/Documents/PhD_2021/Malaria_codes/data/pdb_ligands_mmv/ligand_16.pdb
REMARK  5 active torsions:
REMARK  status: ('A' for Active; 'I' for Inactive)
REMARK    1  A    between atoms: C6_8  and  N2_9
REMARK    2  A    between atoms: N2_9  and  C7_10
REMARK    3  A    between atoms: C7_10  and  C8_11
REMARK    4  A    between atoms: C8_11  and  C9_12
REMARK    5  A    between atoms: C9_12  and  N3_13
REMARK                            x       y       z     vdW  Elec       q    Type
REMARK                         _______ _______ _______ _____ _____    ______ ____
ROOT
ATOM      1  F1  UNL     1     145.178 134.444  97.538  0.00  0.00    -0.205 F 
ATOM      2  C1  UNL     1     144.417 133.618  98.268  0.00  0.00    +0.124 A 
ATOM      3  C2  UNL     1     143.034 133.745  98.210  0.00  0.00    +0.040 A 
ATOM      4  C3  UNL     1     142.208 132.900  98.958  0.00  0.00    +0.029 A 
ATOM      5  C4  UNL     1     142.832 131.934  99.757  0.00  0.00    +0.049 A 
ATOM      6  N1  UNL     1     142.287 130.978 100.586  0.00  0.00    -0.350 N 
ATOM      7  C5  UNL     1     143.273 130.238 101.191  0.00  0.00    +0.106 A 
ATOM      8  C6  UNL     1     143.222 129.188 102.098  0.00  0.00    +0.146 A 
ATOM      9  N4  UNL     1     144.404 128.662 102.481  0.00  0.00    -0.219 NA
ATOM     10  C14 UNL     1     145.540 129.184 101.979  0.00  0.00    +0.224 A 
ATOM     11  N5  UNL     1     145.673 130.201 101.117  0.00  0.00    -0.233 NA
ATOM     12  C15 UNL     1     144.487 130.719 100.727  0.00  0.00    +0.101 A 
ATOM     13  C16 UNL     1     144.221 131.791  99.828  0.00  0.00    +0.029 A 
ATOM     14  C17 UNL     1     145.032 132.654  99.064  0.00  0.00    +0.050 A 
ATOM     15  H3  UNL     1     141.299 130.830 100.730  0.00  0.00    +0.166 HD
ENDROOT
BRANCH   8  16
ATOM     16  N2  UNL     1     142.014 128.693 102.575  0.00  0.00    -0.327 N 
ATOM     17  H4  UNL     1     141.786 129.066 103.499  0.00  0.00    +0.148 HD
BRANCH  16  18
ATOM     18  C7  UNL     1     141.883 127.244 102.558  0.00  0.00    +0.104 C 
BRANCH  18  19
ATOM     19  C8  UNL     1     140.942 126.823 101.423  0.00  0.00    +0.034 C 
BRANCH  19  20
ATOM     20  C9  UNL     1     139.954 127.928 101.003  0.00  0.00    +0.086 C 
BRANCH  20  21
ATOM     21  N3  UNL     1     140.339 128.646  99.767  0.00  0.00    -0.298 NA
ATOM     22  C10 UNL     1     139.212 129.462  99.252  0.00  0.00    +0.112 C 
ATOM     23  C11 UNL     1     138.089 128.645  98.591  0.00  0.00    +0.175 C 
ATOM     24  O1  UNL     1     138.602 127.833  97.529  0.00  0.00    -0.377 OA
ATOM     25  C12 UNL     1     139.618 126.947  98.014  0.00  0.00    +0.175 C 
ATOM     26  C13 UNL     1     140.765 127.724  98.683  0.00  0.00    +0.112 C 
ENDBRANCH  20  21
ENDBRANCH  19  20
ENDBRANCH  18  19
ENDBRANCH  16  18
ENDBRANCH   8  16
TORSDOF 5
ENDMDL
MODEL 2
REMARK VINA RESULT:    -4.320      3.043      5.624
REMARK INTER + INTRA:          -6.813
REMARK INTER:                  -5.477
REMARK INTRA:                  -1.336
REMARK UNBOUND:                -1.230
REMARK  Name = /home/vital/Documents/PhD_2021/Malaria_codes/data/pdb_ligands_mmv/ligand_16.pdb
REMARK  5 active torsions:
REMARK  status: ('A' for Active; 'I' for Inactive)
REMARK    1  A    between atoms: C6_8  and  N2_9
REMARK    2  A    between atoms: N2_9  and  C7_10
REMARK    3  A    between atoms: C7_10  and  C8_11
REMARK    4  A    between atoms: C8_11  and  C9_12
REMARK    5  A    between atoms: C9_12  and  N3_13
REMARK                            x       y       z     vdW  Elec       q    Type
REMARK                         _______ _______ _______ _____ _____    ______ ____
ROOT
ATOM      1  F1  UNL     1     137.914 128.357  98.234  0.00  0.00    -0.205 F 
ATOM      2  C1  UNL     1     138.916 128.693  99.058  0.00  0.00    +0.124 A 
ATOM      3  C2  UNL     1     139.284 130.030  99.164  0.00  0.00    +0.040 A 
ATOM      4  C3  UNL     1     140.324 130.418 100.013  0.00  0.00    +0.029 A 
ATOM      5  C4  UNL     1     140.968 129.411 100.742  0.00  0.00    +0.049 A 
ATOM      6  N1  UNL     1     142.007 129.491 101.644  0.00  0.00    -0.350 N 
ATOM      7  C5  UNL     1     142.335 128.246 102.121  0.00  0.00    +0.106 A 
ATOM      8  C6  UNL     1     143.300 127.822 103.025  0.00  0.00    +0.146 A 
ATOM      9  N4  UNL     1     143.338 126.500 103.295  0.00  0.00    -0.219 NA
ATOM     10  C14 UNL     1     142.460 125.687 102.676  0.00  0.00    +0.224 A 
ATOM     11  N5  UNL     1     141.514 126.014 101.785  0.00  0.00    -0.233 NA
ATOM     12  C15 UNL     1     141.473 127.339 101.525  0.00  0.00    +0.101 A 
ATOM     13  C16 UNL     1     140.612 128.062 100.650  0.00  0.00    +0.029 A 
ATOM     14  C17 UNL     1     139.560 127.696  99.787  0.00  0.00    +0.050 A 
ATOM     15  H3  UNL     1     142.466 130.345 101.925  0.00  0.00    +0.166 HD
ENDROOT
BRANCH   8  16
ATOM     16  N2  UNL     1     144.174 128.716 103.633  0.00  0.00    -0.327 N 
ATOM     17  H4  UNL     1     144.065 129.665 103.270  0.00  0.00    +0.148 HD
BRANCH  16  18
ATOM     18  C7  UNL     1     145.574 128.320 103.627  0.00  0.00    +0.104 C 
BRANCH  18  19
ATOM     19  C8  UNL     1     146.172 128.555 102.234  0.00  0.00    +0.034 C 
BRANCH  19  20
ATOM     20  C9  UNL     1     146.048 130.013 101.750  0.00  0.00    +0.086 C 
BRANCH  20  21
ATOM     21  N3  UNL     1     144.904 130.254 100.843  0.00  0.00    -0.298 NA
ATOM     22  C10 UNL     1     144.978 129.380  99.647  0.00  0.00    +0.112 C 
ATOM     23  C11 UNL     1     146.051 129.794  98.626  0.00  0.00    +0.175 C 
ATOM     24  O1  UNL     1     145.863 131.149  98.204  0.00  0.00    -0.377 OA
ATOM     25  C12 UNL     1     145.900 132.040  99.326  0.00  0.00    +0.175 C 
ATOM     26  C13 UNL     1     144.838 131.662 100.374  0.00  0.00    +0.112 C 
ENDBRANCH  20  21
ENDBRANCH  19  20
ENDBRANCH  18  19
ENDBRANCH  16  18
ENDBRANCH   8  16
TORSDOF 5
ENDMDL
MODEL 3
REMARK VINA RESULT:    -4.238      4.454      6.761
REMARK INTER + INTRA:          -6.707
REMARK INTER:                  -6.144
REMARK INTRA:                  -0.562
REMARK UNBOUND:                -1.230
REMARK  Name = /home/vital/Documents/PhD_2021/Malaria_codes/data/pdb_ligands_mmv/ligand_16.pdb
REMARK  5 active torsions:
REMARK  status: ('A' for Active; 'I' for Inactive)
REMARK    1  A    between atoms: C6_8  and  N2_9
REMARK    2  A    between atoms: N2_9  and  C7_10
REMARK    3  A    between atoms: C7_10  and  C8_11
REMARK    4  A    between atoms: C8_11  and  C9_12
REMARK    5  A    between atoms: C9_12  and  N3_13
REMARK                            x       y       z     vdW  Elec       q    Type
REMARK                         _______ _______ _______ _____ _____    ______ ____
ROOT
ATOM      1  F1  UNL     1     138.114 128.606 101.023  0.00  0.00    -0.205 F 
ATOM      2  C1  UNL     1     139.279 128.887 100.423  0.00  0.00    +0.124 A 
ATOM      3  C2  UNL     1     140.111 127.840 100.040  0.00  0.00    +0.040 A 
ATOM      4  C3  UNL     1     141.333 128.094  99.412  0.00  0.00    +0.029 A 
ATOM      5  C4  UNL     1     141.676 129.434  99.191  0.00  0.00    +0.049 A 
ATOM      6  N1  UNL     1     142.795 129.981  98.602  0.00  0.00    -0.350 N 
ATOM      7  C5  UNL     1     142.723 131.353  98.599  0.00  0.00    +0.106 A 
ATOM      8  C6  UNL     1     143.596 132.327  98.133  0.00  0.00    +0.146 A 
ATOM      9  N4  UNL     1     143.199 133.610  98.270  0.00  0.00    -0.219 NA
ATOM     10  C14 UNL     1     142.009 133.862  98.848  0.00  0.00    +0.224 A 
ATOM     11  N5  UNL     1     141.122 132.983  99.335  0.00  0.00    -0.233 NA
ATOM     12  C15 UNL     1     141.518 131.700  99.187  0.00  0.00    +0.101 A 
ATOM     13  C16 UNL     1     140.853 130.499  99.568  0.00  0.00    +0.029 A 
ATOM     14  C17 UNL     1     139.625 130.217 100.199  0.00  0.00    +0.050 A 
ATOM     15  H3  UNL     1     143.564 129.453  98.216  0.00  0.00    +0.166 HD
ENDROOT
BRANCH   8  16
ATOM     16  N2  UNL     1     144.810 131.998  97.541  0.00  0.00    -0.327 N 
ATOM     17  H4  UNL     1     145.600 132.182  98.162  0.00  0.00    +0.148 HD
BRANCH  16  18
ATOM     18  C7  UNL     1     145.041 132.580  96.227  0.00  0.00    +0.104 C 
BRANCH  18  19
ATOM     19  C8  UNL     1     144.497 131.642  95.143  0.00  0.00    +0.034 C 
BRANCH  19  20
ATOM     20  C9  UNL     1     143.611 132.354  94.104  0.00  0.00    +0.086 C 
BRANCH  20  21
ATOM     21  N3  UNL     1     142.308 131.693  93.864  0.00  0.00    -0.298 NA
ATOM     22  C10 UNL     1     142.489 130.396  93.168  0.00  0.00    +0.112 C 
ATOM     23  C11 UNL     1     142.854 130.521  91.680  0.00  0.00    +0.175 C 
ATOM     24  O1  UNL     1     141.880 131.298  90.975  0.00  0.00    -0.377 OA
ATOM     25  C12 UNL     1     141.760 132.604  91.550  0.00  0.00    +0.175 C 
ATOM     26  C13 UNL     1     141.392 132.526  93.042  0.00  0.00    +0.112 C 
ENDBRANCH  20  21
ENDBRANCH  19  20
ENDBRANCH  18  19
ENDBRANCH  16  18
ENDBRANCH   8  16
TORSDOF 5
ENDMDL
MODEL 4
REMARK VINA RESULT:    -4.206      3.479      5.444
REMARK INTER + INTRA:          -6.666
REMARK INTER:                  -5.483
REMARK INTRA:                  -1.183
REMARK UNBOUND:                -1.230
REMARK  Name = /home/vital/Documents/PhD_2021/Malaria_codes/data/pdb_ligands_mmv/ligand_16.pdb
REMARK  5 active torsions:
REMARK  status: ('A' for Active; 'I' for Inactive)
REMARK    1  A    between atoms: C6_8  and  N2_9
REMARK    2  A    between atoms: N2_9  and  C7_10
REMARK    3  A    between atoms: C7_10  and  C8_11
REMARK    4  A    between atoms: C8_11  and  C9_12
REMARK    5  A    between atoms: C9_12  and  N3_13
REMARK                            x       y       z     vdW  Elec       q    Type
REMARK                         _______ _______ _______ _____ _____    ______ ____
ROOT
ATOM      1  F1  UNL     1     137.521 128.076  98.132  0.00  0.00    -0.205 F 
ATOM      2  C1  UNL     1     138.496 128.367  99.004  0.00  0.00    +0.124 A 
ATOM      3  C2  UNL     1     138.169 128.567 100.341  0.00  0.00    +0.040 A 
ATOM      4  C3  UNL     1     139.159 128.872 101.279  0.00  0.00    +0.029 A 
ATOM      5  C4  UNL     1     140.478 128.965 100.815  0.00  0.00    +0.049 A 
ATOM      6  N1  UNL     1     141.643 129.243 101.495  0.00  0.00    -0.350 N 
ATOM      7  C5  UNL     1     142.718 129.240 100.641  0.00  0.00    +0.106 A 
ATOM      8  C6  UNL     1     144.072 129.470 100.851  0.00  0.00    +0.146 A 
ATOM      9  N4  UNL     1     144.877 129.365  99.774  0.00  0.00    -0.219 NA
ATOM     10  C14 UNL     1     144.329 129.059  98.582  0.00  0.00    +0.224 A 
ATOM     11  N5  UNL     1     143.039 128.839  98.296  0.00  0.00    -0.233 NA
ATOM     12  C15 UNL     1     142.236 128.935  99.378  0.00  0.00    +0.101 A 
ATOM     13  C16 UNL     1     140.825 128.766  99.476  0.00  0.00    +0.029 A 
ATOM     14  C17 UNL     1     139.809 128.459  98.549  0.00  0.00    +0.050 A 
ATOM     15  H3  UNL     1     141.707 129.419 102.487  0.00  0.00    +0.166 HD
ENDROOT
BRANCH   8  16
ATOM     16  N2  UNL     1     144.574 129.778 102.110  0.00  0.00    -0.327 N 
ATOM     17  H4  UNL     1     145.105 130.651 102.108  0.00  0.00    +0.148 HD
BRANCH  16  18
ATOM     18  C7  UNL     1     145.331 128.717 102.757  0.00  0.00    +0.104 C 
BRANCH  18  19
ATOM     19  C8  UNL     1     144.497 128.102 103.888  0.00  0.00    +0.034 C 
BRANCH  19  20
ATOM     20  C9  UNL     1     143.746 126.823 103.470  0.00  0.00    +0.086 C 
BRANCH  20  21
ATOM     21  N3  UNL     1     142.275 126.975 103.417  0.00  0.00    -0.298 NA
ATOM     22  C10 UNL     1     141.699 127.076 104.781  0.00  0.00    +0.112 C 
ATOM     23  C11 UNL     1     141.671 125.748 105.556  0.00  0.00    +0.175 C 
ATOM     24  O1  UNL     1     140.965 124.740 104.824  0.00  0.00    -0.377 OA
ATOM     25  C12 UNL     1     141.564 124.533 103.540  0.00  0.00    +0.175 C 
ATOM     26  C13 UNL     1     141.611 125.839 102.727  0.00  0.00    +0.112 C 
ENDBRANCH  20  21
ENDBRANCH  19  20
ENDBRANCH  18  19
ENDBRANCH  16  18
ENDBRANCH   8  16
TORSDOF 5
ENDMDL
MODEL 5
REMARK VINA RESULT:    -4.140      4.032      6.248
REMARK INTER + INTRA:          -6.581
REMARK INTER:                  -5.326
REMARK INTRA:                  -1.255
REMARK UNBOUND:                -1.230
REMARK  Name = /home/vital/Documents/PhD_2021/Malaria_codes/data/pdb_ligands_mmv/ligand_16.pdb
REMARK  5 active torsions:
REMARK  status: ('A' for Active; 'I' for Inactive)
REMARK    1  A    between atoms: C6_8  and  N2_9
REMARK    2  A    between atoms: N2_9  and  C7_10
REMARK    3  A    between atoms: C7_10  and  C8_11
REMARK    4  A    between atoms: C8_11  and  C9_12
REMARK    5  A    between atoms: C9_12  and  N3_13
REMARK                            x       y       z     vdW  Elec       q    Type
REMARK                         _______ _______ _______ _____ _____    ______ ____
ROOT
ATOM      1  F1  UNL     1     137.784 128.650 101.139  0.00  0.00    -0.205 F 
ATOM      2  C1  UNL     1     138.879 128.823 100.388  0.00  0.00    +0.124 A 
ATOM      3  C2  UNL     1     139.441 127.723  99.749  0.00  0.00    +0.040 A 
ATOM      4  C3  UNL     1     140.584 127.865  98.957  0.00  0.00    +0.029 A 
ATOM      5  C4  UNL     1     141.129 129.150  98.839  0.00  0.00    +0.049 A 
ATOM      6  N1  UNL     1     142.229 129.589  98.137  0.00  0.00    -0.350 N 
ATOM      7  C5  UNL     1     142.410 130.940  98.307  0.00  0.00    +0.106 A 
ATOM      8  C6  UNL     1     143.367 131.818  97.817  0.00  0.00    +0.146 A 
ATOM      9  N4  UNL     1     143.235 133.114  98.169  0.00  0.00    -0.219 NA
ATOM     10  C14 UNL     1     142.208 133.469  98.966  0.00  0.00    +0.224 A 
ATOM     11  N5  UNL     1     141.257 132.683  99.490  0.00  0.00    -0.233 NA
ATOM     12  C15 UNL     1     141.387 131.388  99.128  0.00  0.00    +0.101 A 
ATOM     13  C16 UNL     1     140.578 130.267  99.473  0.00  0.00    +0.029 A 
ATOM     14  C17 UNL     1     139.425 130.099 100.266  0.00  0.00    +0.050 A 
ATOM     15  H3  UNL     1     142.825 129.005  97.568  0.00  0.00    +0.166 HD
ENDROOT
BRANCH   8  16
ATOM     16  N2  UNL     1     144.401 131.387  96.994  0.00  0.00    -0.327 N 
ATOM     17  H4  UNL     1     145.317 131.526  97.425  0.00  0.00    +0.148 HD
BRANCH  16  18
ATOM     18  C7  UNL     1     144.383 131.919  95.639  0.00  0.00    +0.104 C 
BRANCH  18  19
ATOM     19  C8  UNL     1     144.543 130.774  94.631  0.00  0.00    +0.034 C 
BRANCH  19  20
ATOM     20  C9  UNL     1     143.277 129.911  94.477  0.00  0.00    +0.086 C 
BRANCH  20  21
ATOM     21  N3  UNL     1     143.204 128.768  95.415  0.00  0.00    -0.298 NA
ATOM     22  C10 UNL     1     144.472 127.999  95.417  0.00  0.00    +0.112 C 
ATOM     23  C11 UNL     1     144.689 127.133  94.165  0.00  0.00    +0.175 C 
ATOM     24  O1  UNL     1     143.595 126.231  93.967  0.00  0.00    -0.377 OA
ATOM     25  C12 UNL     1     142.362 126.949  93.845  0.00  0.00    +0.175 C 
ATOM     26  C13 UNL     1     142.102 127.829  95.081  0.00  0.00    +0.112 C 
ENDBRANCH  20  21
ENDBRANCH  19  20
ENDBRANCH  18  19
ENDBRANCH  16  18
ENDBRANCH   8  16
TORSDOF 5
ENDMDL
MODEL 6
REMARK VINA RESULT:    -4.139      3.498      5.958
REMARK INTER + INTRA:          -6.579
REMARK INTER:                  -5.619
REMARK INTRA:                  -0.960
REMARK UNBOUND:                -1.230
REMARK  Name = /home/vital/Documents/PhD_2021/Malaria_codes/data/pdb_ligands_mmv/ligand_16.pdb
REMARK  5 active torsions:
REMARK  status: ('A' for Active; 'I' for Inactive)
REMARK    1  A    between atoms: C6_8  and  N2_9
REMARK    2  A    between atoms: N2_9  and  C7_10
REMARK    3  A    between atoms: C7_10  and  C8_11
REMARK    4  A    between atoms: C8_11  and  C9_12
REMARK    5  A    between atoms: C9_12  and  N3_13
REMARK                            x       y       z     vdW  Elec       q    Type
REMARK                         _______ _______ _______ _____ _____    ______ ____
ROOT
ATOM      1  F1  UNL     1     138.039 128.601 101.017  0.00  0.00    -0.205 F 
ATOM      2  C1  UNL     1     139.325 128.942 100.860  0.00  0.00    +0.124 A 
ATOM      3  C2  UNL     1     140.313 128.027 101.205  0.00  0.00    +0.040 A 
ATOM      4  C3  UNL     1     141.666 128.347 101.054  0.00  0.00    +0.029 A 
ATOM      5  C4  UNL     1     141.973 129.616 100.547  0.00  0.00    +0.049 A 
ATOM      6  N1  UNL     1     143.194 130.200 100.291  0.00  0.00    -0.350 N 
ATOM      7  C5  UNL     1     143.032 131.473  99.801  0.00  0.00    +0.106 A 
ATOM      8  C6  UNL     1     143.948 132.441  99.411  0.00  0.00    +0.146 A 
ATOM      9  N4  UNL     1     143.441 133.601  98.944  0.00  0.00    -0.219 NA
ATOM     10  C14 UNL     1     142.103 133.749  98.894  0.00  0.00    +0.224 A 
ATOM     11  N5  UNL     1     141.158 132.873  99.263  0.00  0.00    -0.233 NA
ATOM     12  C15 UNL     1     141.670 131.710  99.721  0.00  0.00    +0.101 A 
ATOM     13  C16 UNL     1     140.994 130.549 100.194  0.00  0.00    +0.029 A 
ATOM     14  C17 UNL     1     139.637 130.202 100.355  0.00  0.00    +0.050 A 
ATOM     15  H3  UNL     1     144.090 129.758 100.436  0.00  0.00    +0.166 HD
ENDROOT
BRANCH   8  16
ATOM     16  N2  UNL     1     145.319 132.222  99.485  0.00  0.00    -0.327 N 
ATOM     17  H4  UNL     1     145.776 132.866 100.133  0.00  0.00    +0.148 HD
BRANCH  16  18
ATOM     18  C7  UNL     1     146.016 132.197  98.207  0.00  0.00    +0.104 C 
BRANCH  18  19
ATOM     19  C8  UNL     1     145.995 130.775  97.634  0.00  0.00    +0.034 C 
BRANCH  19  20
ATOM     20  C9  UNL     1     145.253 130.667  96.288  0.00  0.00    +0.086 C 
BRANCH  20  21
ATOM     21  N3  UNL     1     143.783 130.556  96.415  0.00  0.00    -0.298 NA
ATOM     22  C10 UNL     1     143.274 129.359  95.702  0.00  0.00    +0.112 C 
ATOM     23  C11 UNL     1     143.270 129.489  94.170  0.00  0.00    +0.175 C 
ATOM     24  O1  UNL     1     142.519 130.635  93.754  0.00  0.00    -0.377 OA
ATOM     25  C12 UNL     1     143.053 131.830  94.334  0.00  0.00    +0.175 C 
ATOM     26  C13 UNL     1     143.074 131.744  95.871  0.00  0.00    +0.112 C 
ENDBRANCH  20  21
ENDBRANCH  19  20
ENDBRANCH  18  19
ENDBRANCH  16  18
ENDBRANCH   8  16
TORSDOF 5
ENDMDL
MODEL 7
REMARK VINA RESULT:    -4.101      3.542      5.260
REMARK INTER + INTRA:          -6.529
REMARK INTER:                  -5.243
REMARK INTRA:                  -1.287
REMARK UNBOUND:                -1.230
REMARK  Name = /home/vital/Documents/PhD_2021/Malaria_codes/data/pdb_ligands_mmv/ligand_16.pdb
REMARK  5 active torsions:
REMARK  status: ('A' for Active; 'I' for Inactive)
REMARK    1  A    between atoms: C6_8  and  N2_9
REMARK    2  A    between atoms: N2_9  and  C7_10
REMARK    3  A    between atoms: C7_10  and  C8_11
REMARK    4  A    between atoms: C8_11  and  C9_12
REMARK    5  A    between atoms: C9_12  and  N3_13
REMARK                            x       y       z     vdW  Elec       q    Type
REMARK                         _______ _______ _______ _____ _____    ______ ____
ROOT
ATOM      1  F1  UNL     1     138.321 128.593  97.537  0.00  0.00    -0.205 F 
ATOM      2  C1  UNL     1     139.018 128.609  98.681  0.00  0.00    +0.124 A 
ATOM      3  C2  UNL     1     138.333 128.584  99.891  0.00  0.00    +0.040 A 
ATOM      4  C3  UNL     1     139.027 128.599 101.104  0.00  0.00    +0.029 A 
ATOM      5  C4  UNL     1     140.426 128.641 101.044  0.00  0.00    +0.049 A 
ATOM      6  N1  UNL     1     141.360 128.661 102.056  0.00  0.00    -0.350 N 
ATOM      7  C5  UNL     1     142.633 128.710 101.544  0.00  0.00    +0.106 A 
ATOM      8  C6  UNL     1     143.879 128.752 102.155  0.00  0.00    +0.146 A 
ATOM      9  N4  UNL     1     144.953 128.771 101.339  0.00  0.00    -0.219 NA
ATOM     10  C14 UNL     1     144.755 128.757 100.006  0.00  0.00    +0.224 A 
ATOM     11  N5  UNL     1     143.591 128.732  99.342  0.00  0.00    -0.233 NA
ATOM     12  C15 UNL     1     142.518 128.703 100.163  0.00  0.00    +0.101 A 
ATOM     13  C16 UNL     1     141.132 128.666  99.838  0.00  0.00    +0.029 A 
ATOM     14  C17 UNL     1     140.410 128.649  98.628  0.00  0.00    +0.050 A 
ATOM     15  H3  UNL     1     141.146 128.638 103.043  0.00  0.00    +0.166 HD
ENDROOT
BRANCH   8  16
ATOM     16  N2  UNL     1     144.014 128.761 103.539  0.00  0.00    -0.327 N 
ATOM     17  H4  UNL     1     144.171 129.703 103.903  0.00  0.00    +0.148 HD
BRANCH  16  18
ATOM     18  C7  UNL     1     144.997 127.832 104.075  0.00  0.00    +0.104 C 
BRANCH  18  19
ATOM     19  C8  UNL     1     144.477 126.395 103.945  0.00  0.00    +0.034 C 
BRANCH  19  20
ATOM     20  C9  UNL     1     143.178 126.139 104.734  0.00  0.00    +0.086 C 
BRANCH  20  21
ATOM     21  N3  UNL     1     141.954 126.138 103.902  0.00  0.00    -0.298 NA
ATOM     22  C10 UNL     1     140.775 125.700 104.689  0.00  0.00    +0.112 C 
ATOM     23  C11 UNL     1     140.738 124.192 104.987  0.00  0.00    +0.175 C 
ATOM     24  O1  UNL     1     140.805 123.427 103.778  0.00  0.00    -0.377 OA
ATOM     25  C12 UNL     1     141.994 123.741 103.044  0.00  0.00    +0.175 C 
ATOM     26  C13 UNL     1     142.070 125.244 102.721  0.00  0.00    +0.112 C 
ENDBRANCH  20  21
ENDBRANCH  19  20
ENDBRANCH  18  19
ENDBRANCH  16  18
ENDBRANCH   8  16
TORSDOF 5
ENDMDL
MODEL 8
REMARK VINA RESULT:    -4.035      3.304      6.264
REMARK INTER + INTRA:          -6.445
REMARK INTER:                  -5.430
REMARK INTRA:                  -1.014
REMARK UNBOUND:                -1.230
REMARK  Name = /home/vital/Documents/PhD_2021/Malaria_codes/data/pdb_ligands_mmv/ligand_16.pdb
REMARK  5 active torsions:
REMARK  status: ('A' for Active; 'I' for Inactive)
REMARK    1  A    between atoms: C6_8  and  N2_9
REMARK    2  A    between atoms: N2_9  and  C7_10
REMARK    3  A    between atoms: C7_10  and  C8_11
REMARK    4  A    between atoms: C8_11  and  C9_12
REMARK    5  A    between atoms: C9_12  and  N3_13
REMARK                            x       y       z     vdW  Elec       q    Type
REMARK                         _______ _______ _______ _____ _____    ______ ____
ROOT
ATOM      1  F1  UNL     1     137.826 128.604 101.087  0.00  0.00    -0.205 F 
ATOM      2  C1  UNL     1     139.133 128.851 100.924  0.00  0.00    +0.124 A 
ATOM      3  C2  UNL     1     140.052 127.853 101.230  0.00  0.00    +0.040 A 
ATOM      4  C3  UNL     1     141.423 128.074 101.072  0.00  0.00    +0.029 A 
ATOM      5  C4  UNL     1     141.821 129.331 100.597  0.00  0.00    +0.049 A 
ATOM      6  N1  UNL     1     143.080 129.828 100.343  0.00  0.00    -0.350 N 
ATOM      7  C5  UNL     1     143.011 131.123  99.891  0.00  0.00    +0.106 A 
ATOM      8  C6  UNL     1     143.994 132.030  99.517  0.00  0.00    +0.146 A 
ATOM      9  N4  UNL     1     143.571 133.238  99.089  0.00  0.00    -0.219 NA
ATOM     10  C14 UNL     1     142.248 133.489  99.060  0.00  0.00    +0.224 A 
ATOM     11  N5  UNL     1     141.243 132.676  99.416  0.00  0.00    -0.233 NA
ATOM     12  C15 UNL     1     141.670 131.465  99.834  0.00  0.00    +0.101 A 
ATOM     13  C16 UNL     1     140.912 130.345 100.283  0.00  0.00    +0.029 A 
ATOM     14  C17 UNL     1     139.535 130.098 100.450  0.00  0.00    +0.050 A 
ATOM     15  H3  UNL     1     143.942 129.315 100.465  0.00  0.00    +0.166 HD
ENDROOT
BRANCH   8  16
ATOM     16  N2  UNL     1     145.345 131.706  99.568  0.00  0.00    -0.327 N 
ATOM     17  H4  UNL     1     145.551 130.844  99.059  0.00  0.00    +0.148 HD
BRANCH  16  18
ATOM     18  C7  UNL     1     145.927 131.668 100.901  0.00  0.00    +0.104 C 
BRANCH  18  19
ATOM     19  C8  UNL     1     146.902 130.489 101.007  0.00  0.00    +0.034 C 
BRANCH  19  20
ATOM     20  C9  UNL     1     146.600 129.547 102.188  0.00  0.00    +0.086 C 
BRANCH  20  21
ATOM     21  N3  UNL     1     145.368 128.743 102.022  0.00  0.00    -0.298 NA
ATOM     22  C10 UNL     1     144.679 128.549 103.321  0.00  0.00    +0.112 C 
ATOM     23  C11 UNL     1     145.370 127.548 104.261  0.00  0.00    +0.175 C 
ATOM     24  O1  UNL     1     145.536 126.275 103.625  0.00  0.00    -0.377 OA
ATOM     25  C12 UNL     1     146.299 126.406 102.420  0.00  0.00    +0.175 C 
ATOM     26  C13 UNL     1     145.640 127.400 101.447  0.00  0.00    +0.112 C 
ENDBRANCH  20  21
ENDBRANCH  19  20
ENDBRANCH  18  19
ENDBRANCH  16  18
ENDBRANCH   8  16
TORSDOF 5
ENDMDL
MODEL 9
REMARK VINA RESULT:    -3.964      3.037      5.621
REMARK INTER + INTRA:          -6.353
REMARK INTER:                  -5.025
REMARK INTRA:                  -1.328
REMARK UNBOUND:                -1.230
REMARK  Name = /home/vital/Documents/PhD_2021/Malaria_codes/data/pdb_ligands_mmv/ligand_16.pdb
REMARK  5 active torsions:
REMARK  status: ('A' for Active; 'I' for Inactive)
REMARK    1  A    between atoms: C6_8  and  N2_9
REMARK    2  A    between atoms: N2_9  and  C7_10
REMARK    3  A    between atoms: C7_10  and  C8_11
REMARK    4  A    between atoms: C8_11  and  C9_12
REMARK    5  A    between atoms: C9_12  and  N3_13
REMARK                            x       y       z     vdW  Elec       q    Type
REMARK                         _______ _______ _______ _____ _____    ______ ____
ROOT
ATOM      1  F1  UNL     1     138.081 127.650  98.496  0.00  0.00    -0.205 F 
ATOM      2  C1  UNL     1     139.120 128.310  99.027  0.00  0.00    +0.124 A 
ATOM      3  C2  UNL     1     139.127 129.700  98.990  0.00  0.00    +0.040 A 
ATOM      4  C3  UNL     1     140.193 130.422  99.534  0.00  0.00    +0.029 A 
ATOM      5  C4  UNL     1     141.238 129.689 100.110  0.00  0.00    +0.049 A 
ATOM      6  N1  UNL     1     142.399 130.119 100.715  0.00  0.00    -0.350 N 
ATOM      7  C5  UNL     1     143.153 129.052 101.137  0.00  0.00    +0.106 A 
ATOM      8  C6  UNL     1     144.382 128.979 101.780  0.00  0.00    +0.146 A 
ATOM      9  N4  UNL     1     144.838 127.744 102.076  0.00  0.00    -0.219 NA
ATOM     10  C14 UNL     1     144.092 126.677 101.728  0.00  0.00    +0.224 A 
ATOM     11  N5  UNL     1     142.911 126.663 101.096  0.00  0.00    -0.233 NA
ATOM     12  C15 UNL     1     142.453 127.902 100.810  0.00  0.00    +0.101 A 
ATOM     13  C16 UNL     1     141.249 128.292 100.157  0.00  0.00    +0.029 A 
ATOM     14  C17 UNL     1     140.162 127.586  99.602  0.00  0.00    +0.050 A 
ATOM     15  H3  UNL     1     142.663 131.085 100.842  0.00  0.00    +0.166 HD
ENDROOT
BRANCH   8  16
ATOM     16  N2  UNL     1     145.099 130.122 102.115  0.00  0.00    -0.327 N 
ATOM     17  H4  UNL     1     144.626 130.974 101.812  0.00  0.00    +0.148 HD
BRANCH  16  18
ATOM     18  C7  UNL     1     146.492 130.129 101.694  0.00  0.00    +0.104 C 
BRANCH  18  19
ATOM     19  C8  UNL     1     146.586 130.555 100.224  0.00  0.00    +0.034 C 
BRANCH  19  20
ATOM     20  C9  UNL     1     145.862 131.881  99.922  0.00  0.00    +0.086 C 
BRANCH  20  21
ATOM     21  N3  UNL     1     144.540 131.716  99.279  0.00  0.00    -0.298 NA
ATOM     22  C10 UNL     1     144.655 130.967  98.004  0.00  0.00    +0.112 C 
ATOM     23  C11 UNL     1     145.269 131.776  96.849  0.00  0.00    +0.175 C 
ATOM     24  O1  UNL     1     144.532 132.982  96.618  0.00  0.00    -0.377 OA
ATOM     25  C12 UNL     1     144.496 133.789  97.801  0.00  0.00    +0.175 C 
ATOM     26  C13 UNL     1     143.885 133.018  98.984  0.00  0.00    +0.112 C 
ENDBRANCH  20  21
ENDBRANCH  19  20
ENDBRANCH  18  19
ENDBRANCH  16  18
ENDBRANCH   8  16
TORSDOF 5
ENDMDL
