MODEL 1
REMARK VINA RESULT:    -4.238      0.000      0.000
REMARK INTER + INTRA:          -5.061
REMARK INTER:                  -4.733
REMARK INTRA:                  -0.328
REMARK UNBOUND:                -0.328
REMARK  Name = /home/vital/Documents/PhD_2021/Malaria_codes/data/pdb_ligands_mmv/ligand_195.pdb
REMARK  3 active torsions:
REMARK  status: ('A' for Active; 'I' for Inactive)
REMARK    1  A    between atoms: C1_1  and  C2_2
REMARK    2  A    between atoms: C5_5  and  N1_6
REMARK    3  A    between atoms: N2_9  and  C7_10
REMARK                            x       y       z     vdW  Elec       q    Type
REMARK                         _______ _______ _______ _____ _____    ______ ____
ROOT
ATOM      1  N1  UNL     1     143.235 132.886  95.294  0.00  0.00    -0.269 N 
ATOM      2  C6  UNL     1     142.918 131.978  96.296  0.00  0.00    +0.308 C 
ATOM      3  O1  UNL     1     142.653 130.797  96.115  0.00  0.00    -0.252 OA
ATOM      4  N2  UNL     1     142.946 132.606  97.534  0.00  0.00    -0.269 N 
ATOM      5  H6  UNL     1     143.673 133.741  95.599  0.00  0.00    +0.156 HD
ATOM      6  H7  UNL     1     142.918 133.613  97.514  0.00  0.00    +0.156 HD
ENDROOT
BRANCH   1  11
ATOM      7  C1  UNL     1     142.857 132.007  89.643  0.00  0.00    +0.047 C 
ATOM      8  C2  UNL     1     142.987 132.212  91.120  0.00  0.00    -0.015 A 
ATOM      9  C3  UNL     1     144.241 132.287  91.732  0.00  0.00    +0.008 A 
ATOM     10  C4  UNL     1     144.349 132.508  93.111  0.00  0.00    +0.024 A 
ATOM     11  C5  UNL     1     143.207 132.671  93.900  0.00  0.00    +0.038 A 
ATOM     12  C13 UNL     1     141.952 132.602  93.287  0.00  0.00    +0.062 A 
ATOM     13  C14 UNL     1     141.854 132.382  91.915  0.00  0.00    +0.128 A 
ATOM     14  F1  UNL     1     140.635 132.333  91.357  0.00  0.00    -0.205 F 
ENDBRANCH   1  11
BRANCH   4  15
ATOM     15  C7  UNL     1     142.793 132.007  98.802  0.00  0.00    +0.036 A 
ATOM     16  C8  UNL     1     143.949 131.868  99.585  0.00  0.00    +0.023 A 
ATOM     17  C9  UNL     1     143.891 131.276 100.850  0.00  0.00    +0.003 A 
ATOM     18  C10 UNL     1     142.673 130.811 101.342  0.00  0.00    +0.020 A 
ATOM     19  C11 UNL     1     141.525 130.938 100.564  0.00  0.00    +0.043 A 
ATOM     20 CL1  UNL     1     140.024 130.352 101.173  0.00  0.00    -0.083 Cl
ATOM     21  C12 UNL     1     141.579 131.530  99.300  0.00  0.00    +0.043 A 
ENDBRANCH   4  15
TORSDOF 2
ENDMDL
MODEL 2
REMARK VINA RESULT:    -3.718      7.996     12.197
REMARK INTER + INTRA:          -4.481
REMARK INTER:                  -4.126
REMARK INTRA:                  -0.355
REMARK UNBOUND:                -0.328
REMARK  Name = /home/vital/Documents/PhD_2021/Malaria_codes/data/pdb_ligands_mmv/ligand_195.pdb
REMARK  3 active torsions:
REMARK  status: ('A' for Active; 'I' for Inactive)
REMARK    1  A    between atoms: C1_1  and  C2_2
REMARK    2  A    between atoms: C5_5  and  N1_6
REMARK    3  A    between atoms: N2_9  and  C7_10
REMARK                            x       y       z     vdW  Elec       q    Type
REMARK                         _______ _______ _______ _____ _____    ______ ____
ROOT
ATOM      1  N1  UNL     1     140.845 125.390 103.987  0.00  0.00    -0.269 N 
ATOM      2  C6  UNL     1     141.165 126.738 103.893  0.00  0.00    +0.308 C 
ATOM      3  O1  UNL     1     141.058 127.550 104.801  0.00  0.00    -0.252 OA
ATOM      4  N2  UNL     1     141.624 127.030 102.615  0.00  0.00    -0.269 N 
ATOM      5  H6  UNL     1     141.216 124.799 103.259  0.00  0.00    +0.156 HD
ATOM      6  H7  UNL     1     141.415 126.344 101.907  0.00  0.00    +0.156 HD
ENDROOT
BRANCH   1  11
ATOM      7  C1  UNL     1     138.175 122.694 108.283  0.00  0.00    +0.047 C 
ATOM      8  C2  UNL     1     138.894 123.419 107.187  0.00  0.00    -0.015 A 
ATOM      9  C3  UNL     1     140.248 123.741 107.301  0.00  0.00    +0.008 A 
ATOM     10  C4  UNL     1     140.915 124.394 106.257  0.00  0.00    +0.024 A 
ATOM     11  C5  UNL     1     140.244 124.724 105.076  0.00  0.00    +0.038 A 
ATOM     12  C13 UNL     1     138.890 124.397 104.960  0.00  0.00    +0.062 A 
ATOM     13  C14 UNL     1     138.234 123.747 106.004  0.00  0.00    +0.128 A 
ATOM     14  F1  UNL     1     136.938 123.437 105.854  0.00  0.00    -0.205 F 
ENDBRANCH   1  11
BRANCH   4  15
ATOM     15  C7  UNL     1     142.152 128.254 102.154  0.00  0.00    +0.036 A 
ATOM     16  C8  UNL     1     143.484 128.542 102.490  0.00  0.00    +0.023 A 
ATOM     17  C9  UNL     1     144.084 129.736 102.083  0.00  0.00    +0.003 A 
ATOM     18  C10 UNL     1     143.353 130.660 101.339  0.00  0.00    +0.020 A 
ATOM     19  C11 UNL     1     142.028 130.384 101.011  0.00  0.00    +0.043 A 
ATOM     20 CL1  UNL     1     141.126 131.534 100.100  0.00  0.00    -0.083 Cl
ATOM     21  C12 UNL     1     141.425 129.190 101.415  0.00  0.00    +0.043 A 
ENDBRANCH   4  15
TORSDOF 2
ENDMDL
MODEL 3
REMARK VINA RESULT:    -3.605      7.090      9.728
REMARK INTER + INTRA:          -4.355
REMARK INTER:                  -4.026
REMARK INTRA:                  -0.329
REMARK UNBOUND:                -0.328
REMARK  Name = /home/vital/Documents/PhD_2021/Malaria_codes/data/pdb_ligands_mmv/ligand_195.pdb
REMARK  3 active torsions:
REMARK  status: ('A' for Active; 'I' for Inactive)
REMARK    1  A    between atoms: C1_1  and  C2_2
REMARK    2  A    between atoms: C5_5  and  N1_6
REMARK    3  A    between atoms: N2_9  and  C7_10
REMARK                            x       y       z     vdW  Elec       q    Type
REMARK                         _______ _______ _______ _____ _____    ______ ____
ROOT
ATOM      1  N1  UNL     1     141.242 126.950 102.666  0.00  0.00    -0.269 N 
ATOM      2  C6  UNL     1     141.176 126.786 104.043  0.00  0.00    +0.308 C 
ATOM      3  O1  UNL     1     141.112 127.698 104.856  0.00  0.00    -0.252 OA
ATOM      4  N2  UNL     1     141.194 125.435 104.363  0.00  0.00    -0.269 N 
ATOM      5  H6  UNL     1     141.035 126.131 102.115  0.00  0.00    +0.156 HD
ATOM      6  H7  UNL     1     141.510 124.817 103.632  0.00  0.00    +0.156 HD
ENDROOT
BRANCH   1  11
ATOM      7  C1  UNL     1     141.468 131.831  99.669  0.00  0.00    +0.047 C 
ATOM      8  C2  UNL     1     141.447 130.548 100.441  0.00  0.00    -0.015 A 
ATOM      9  C3  UNL     1     142.569 130.112 101.149  0.00  0.00    +0.008 A 
ATOM     10  C4  UNL     1     142.527 128.924 101.890  0.00  0.00    +0.024 A 
ATOM     11  C5  UNL     1     141.358 128.161 101.950  0.00  0.00    +0.038 A 
ATOM     12  C13 UNL     1     140.233 128.600 101.247  0.00  0.00    +0.062 A 
ATOM     13  C14 UNL     1     140.284 129.782 100.511  0.00  0.00    +0.128 A 
ATOM     14  F1  UNL     1     139.182 130.181  99.858  0.00  0.00    -0.205 F 
ENDBRANCH   1  11
BRANCH   4  15
ATOM     15  C7  UNL     1     141.032 124.854 105.638  0.00  0.00    +0.036 A 
ATOM     16  C8  UNL     1     142.134 124.902 106.505  0.00  0.00    +0.023 A 
ATOM     17  C9  UNL     1     142.064 124.343 107.784  0.00  0.00    +0.003 A 
ATOM     18  C10 UNL     1     140.890 123.723 108.206  0.00  0.00    +0.020 A 
ATOM     19  C11 UNL     1     139.796 123.665 107.346  0.00  0.00    +0.043 A 
ATOM     20 CL1  UNL     1     138.351 122.889 107.869  0.00  0.00    -0.083 Cl
ATOM     21  C12 UNL     1     139.862 124.224 106.067  0.00  0.00    +0.043 A 
ENDBRANCH   4  15
TORSDOF 2
ENDMDL
MODEL 4
REMARK VINA RESULT:    -3.571      7.469      9.907
REMARK INTER + INTRA:          -4.317
REMARK INTER:                  -3.993
REMARK INTRA:                  -0.324
REMARK UNBOUND:                -0.328
REMARK  Name = /home/vital/Documents/PhD_2021/Malaria_codes/data/pdb_ligands_mmv/ligand_195.pdb
REMARK  3 active torsions:
REMARK  status: ('A' for Active; 'I' for Inactive)
REMARK    1  A    between atoms: C1_1  and  C2_2
REMARK    2  A    between atoms: C5_5  and  N1_6
REMARK    3  A    between atoms: N2_9  and  C7_10
REMARK                            x       y       z     vdW  Elec       q    Type
REMARK                         _______ _______ _______ _____ _____    ______ ____
ROOT
ATOM      1  N1  UNL     1     138.540 129.825  89.439  0.00  0.00    -0.269 N 
ATOM      2  C6  UNL     1     138.743 128.490  89.119  0.00  0.00    +0.308 C 
ATOM      3  O1  UNL     1     139.824 127.991  88.840  0.00  0.00    -0.252 OA
ATOM      4  N2  UNL     1     137.537 127.802  89.161  0.00  0.00    -0.269 N 
ATOM      5  H6  UNL     1     137.663 130.041  89.889  0.00  0.00    +0.156 HD
ATOM      6  H7  UNL     1     136.707 128.373  89.144  0.00  0.00    +0.156 HD
ENDROOT
BRANCH   1  11
ATOM      7  C1  UNL     1     142.431 134.032  89.541  0.00  0.00    +0.047 C 
ATOM      8  C2  UNL     1     141.392 132.956  89.490  0.00  0.00    -0.015 A 
ATOM      9  C3  UNL     1     140.687 132.686  88.314  0.00  0.00    +0.008 A 
ATOM     10  C4  UNL     1     139.737 131.657  88.273  0.00  0.00    +0.024 A 
ATOM     11  C5  UNL     1     139.487 130.871  89.401  0.00  0.00    +0.038 A 
ATOM     12  C13 UNL     1     140.197 131.136  90.575  0.00  0.00    +0.062 A 
ATOM     13  C14 UNL     1     141.139 132.162  90.608  0.00  0.00    +0.128 A 
ATOM     14  F1  UNL     1     141.810 132.383  91.748  0.00  0.00    -0.205 F 
ENDBRANCH   1  11
BRANCH   4  15
ATOM     15  C7  UNL     1     137.337 126.414  89.009  0.00  0.00    +0.036 A 
ATOM     16  C8  UNL     1     136.548 125.998  87.926  0.00  0.00    +0.023 A 
ATOM     17  C9  UNL     1     136.291 124.642  87.706  0.00  0.00    +0.003 A 
ATOM     18  C10 UNL     1     136.816 123.687  88.573  0.00  0.00    +0.020 A 
ATOM     19  C11 UNL     1     137.592 124.096  89.656  0.00  0.00    +0.043 A 
ATOM     20 CL1  UNL     1     138.231 122.912  90.732  0.00  0.00    -0.083 Cl
ATOM     21  C12 UNL     1     137.852 125.450  89.878  0.00  0.00    +0.043 A 
ENDBRANCH   4  15
TORSDOF 2
ENDMDL
MODEL 5
REMARK VINA RESULT:    -3.491      7.536      9.992
REMARK INTER + INTRA:          -4.228
REMARK INTER:                  -3.937
REMARK INTRA:                  -0.291
REMARK UNBOUND:                -0.328
REMARK  Name = /home/vital/Documents/PhD_2021/Malaria_codes/data/pdb_ligands_mmv/ligand_195.pdb
REMARK  3 active torsions:
REMARK  status: ('A' for Active; 'I' for Inactive)
REMARK    1  A    between atoms: C1_1  and  C2_2
REMARK    2  A    between atoms: C5_5  and  N1_6
REMARK    3  A    between atoms: N2_9  and  C7_10
REMARK                            x       y       z     vdW  Elec       q    Type
REMARK                         _______ _______ _______ _____ _____    ______ ____
ROOT
ATOM      1  N1  UNL     1     138.497 129.781  89.476  0.00  0.00    -0.269 N 
ATOM      2  C6  UNL     1     138.697 128.440  89.175  0.00  0.00    +0.308 C 
ATOM      3  O1  UNL     1     139.787 127.918  88.988  0.00  0.00    -0.252 OA
ATOM      4  N2  UNL     1     137.478 127.778  89.118  0.00  0.00    -0.269 N 
ATOM      5  H6  UNL     1     137.591 130.016  89.852  0.00  0.00    +0.156 HD
ATOM      6  H7  UNL     1     136.664 128.366  89.031  0.00  0.00    +0.156 HD
ENDROOT
BRANCH   1  11
ATOM      7  C1  UNL     1     142.366 134.008  89.385  0.00  0.00    +0.047 C 
ATOM      8  C2  UNL     1     141.381 132.881  89.429  0.00  0.00    -0.015 A 
ATOM      9  C3  UNL     1     141.265 132.068  90.559  0.00  0.00    +0.008 A 
ATOM     10  C4  UNL     1     140.319 131.034  90.597  0.00  0.00    +0.024 A 
ATOM     11  C5  UNL     1     139.466 130.806  89.515  0.00  0.00    +0.038 A 
ATOM     12  C13 UNL     1     139.578 131.624  88.388  0.00  0.00    +0.062 A 
ATOM     13  C14 UNL     1     140.521 132.650  88.357  0.00  0.00    +0.128 A 
ATOM     14  F1  UNL     1     140.594 133.423  87.264  0.00  0.00    -0.205 F 
ENDBRANCH   1  11
BRANCH   4  15
ATOM     15  C7  UNL     1     137.262 126.394  88.952  0.00  0.00    +0.036 A 
ATOM     16  C8  UNL     1     136.453 125.999  87.875  0.00  0.00    +0.023 A 
ATOM     17  C9  UNL     1     136.179 124.649  87.642  0.00  0.00    +0.003 A 
ATOM     18  C10 UNL     1     136.708 123.678  88.490  0.00  0.00    +0.020 A 
ATOM     19  C11 UNL     1     137.503 124.065  89.566  0.00  0.00    +0.043 A 
ATOM     20 CL1  UNL     1     138.146 122.862  90.617  0.00  0.00    -0.083 Cl
ATOM     21  C12 UNL     1     137.781 125.414  89.801  0.00  0.00    +0.043 A 
ENDBRANCH   4  15
TORSDOF 2
ENDMDL
MODEL 6
REMARK VINA RESULT:    -3.479      7.874     10.644
REMARK INTER + INTRA:          -4.213
REMARK INTER:                  -3.866
REMARK INTRA:                  -0.348
REMARK UNBOUND:                -0.328
REMARK  Name = /home/vital/Documents/PhD_2021/Malaria_codes/data/pdb_ligands_mmv/ligand_195.pdb
REMARK  3 active torsions:
REMARK  status: ('A' for Active; 'I' for Inactive)
REMARK    1  A    between atoms: C1_1  and  C2_2
REMARK    2  A    between atoms: C5_5  and  N1_6
REMARK    3  A    between atoms: N2_9  and  C7_10
REMARK                            x       y       z     vdW  Elec       q    Type
REMARK                         _______ _______ _______ _____ _____    ______ ____
ROOT
ATOM      1  N1  UNL     1     137.442 127.781  89.079  0.00  0.00    -0.269 N 
ATOM      2  C6  UNL     1     138.631 128.479  88.918  0.00  0.00    +0.308 C 
ATOM      3  O1  UNL     1     139.673 128.001  88.491  0.00  0.00    -0.252 OA
ATOM      4  N2  UNL     1     138.465 129.800  89.314  0.00  0.00    -0.269 N 
ATOM      5  H6  UNL     1     136.613 128.345  89.192  0.00  0.00    +0.156 HD
ATOM      6  H7  UNL     1     137.653 129.988  89.880  0.00  0.00    +0.156 HD
ENDROOT
BRANCH   1  11
ATOM      7  C1  UNL     1     136.709 122.120  88.556  0.00  0.00    +0.047 C 
ATOM      8  C2  UNL     1     136.904 123.602  88.653  0.00  0.00    -0.015 A 
ATOM      9  C3  UNL     1     136.374 124.465  87.691  0.00  0.00    +0.008 A 
ATOM     10  C4  UNL     1     136.540 125.851  87.809  0.00  0.00    +0.024 A 
ATOM     11  C5  UNL     1     137.226 126.398  88.897  0.00  0.00    +0.038 A 
ATOM     12  C13 UNL     1     137.751 125.535  89.863  0.00  0.00    +0.062 A 
ATOM     13  C14 UNL     1     137.581 124.157  89.737  0.00  0.00    +0.128 A 
ATOM     14  F1  UNL     1     138.088 123.358  90.688  0.00  0.00    -0.205 F 
ENDBRANCH   1  11
BRANCH   4  15
ATOM     15  C7  UNL     1     139.398 130.851  89.200  0.00  0.00    +0.036 A 
ATOM     16  C8  UNL     1     139.513 131.469  87.945  0.00  0.00    +0.023 A 
ATOM     17  C9  UNL     1     140.419 132.512  87.740  0.00  0.00    +0.003 A 
ATOM     18  C10 UNL     1     141.226 132.945  88.790  0.00  0.00    +0.020 A 
ATOM     19  C11 UNL     1     141.124 132.329  90.035  0.00  0.00    +0.043 A 
ATOM     20 CL1  UNL     1     142.132 132.860  91.326  0.00  0.00    -0.083 Cl
ATOM     21  C12 UNL     1     140.218 131.286  90.244  0.00  0.00    +0.043 A 
ENDBRANCH   4  15
TORSDOF 2
ENDMDL
MODEL 7
REMARK VINA RESULT:    -3.461      6.841      9.480
REMARK INTER + INTRA:          -4.194
REMARK INTER:                  -3.848
REMARK INTRA:                  -0.347
REMARK UNBOUND:                -0.328
REMARK  Name = /home/vital/Documents/PhD_2021/Malaria_codes/data/pdb_ligands_mmv/ligand_195.pdb
REMARK  3 active torsions:
REMARK  status: ('A' for Active; 'I' for Inactive)
REMARK    1  A    between atoms: C1_1  and  C2_2
REMARK    2  A    between atoms: C5_5  and  N1_6
REMARK    3  A    between atoms: N2_9  and  C7_10
REMARK                            x       y       z     vdW  Elec       q    Type
REMARK                         _______ _______ _______ _____ _____    ______ ____
ROOT
ATOM      1  N1  UNL     1     141.255 127.159 102.287  0.00  0.00    -0.269 N 
ATOM      2  C6  UNL     1     141.203 126.923 103.654  0.00  0.00    +0.308 C 
ATOM      3  O1  UNL     1     141.159 127.790 104.515  0.00  0.00    -0.252 OA
ATOM      4  N2  UNL     1     141.209 125.556 103.901  0.00  0.00    -0.269 N 
ATOM      5  H6  UNL     1     141.032 126.373 101.696  0.00  0.00    +0.156 HD
ATOM      6  H7  UNL     1     141.510 124.974 103.135  0.00  0.00    +0.156 HD
ENDROOT
BRANCH   1  11
ATOM      7  C1  UNL     1     141.512 132.180  99.535  0.00  0.00    +0.047 C 
ATOM      8  C2  UNL     1     141.483 130.863 100.245  0.00  0.00    -0.015 A 
ATOM      9  C3  UNL     1     142.577 130.422 100.994  0.00  0.00    +0.008 A 
ATOM     10  C4  UNL     1     142.526 129.200 101.677  0.00  0.00    +0.024 A 
ATOM     11  C5  UNL     1     141.378 128.405 101.635  0.00  0.00    +0.038 A 
ATOM     12  C13 UNL     1     140.281 128.849 100.890  0.00  0.00    +0.062 A 
ATOM     13  C14 UNL     1     140.340 130.066 100.214  0.00  0.00    +0.128 A 
ATOM     14  F1  UNL     1     139.266 130.467  99.518  0.00  0.00    -0.205 F 
ENDBRANCH   1  11
BRANCH   4  15
ATOM     15  C7  UNL     1     141.054 124.910 105.146  0.00  0.00    +0.036 A 
ATOM     16  C8  UNL     1     139.780 124.410 105.450  0.00  0.00    +0.023 A 
ATOM     17  C9  UNL     1     139.535 123.765 106.665  0.00  0.00    +0.003 A 
ATOM     18  C10 UNL     1     140.564 123.619 107.593  0.00  0.00    +0.020 A 
ATOM     19  C11 UNL     1     141.829 124.123 107.299  0.00  0.00    +0.043 A 
ATOM     20 CL1  UNL     1     143.095 123.950 108.453  0.00  0.00    -0.083 Cl
ATOM     21  C12 UNL     1     142.078 124.768 106.085  0.00  0.00    +0.043 A 
ENDBRANCH   4  15
TORSDOF 2
ENDMDL
MODEL 8
REMARK VINA RESULT:    -3.431      7.657     11.809
REMARK INTER + INTRA:          -4.161
REMARK INTER:                  -4.058
REMARK INTRA:                  -0.102
REMARK UNBOUND:                -0.328
REMARK  Name = /home/vital/Documents/PhD_2021/Malaria_codes/data/pdb_ligands_mmv/ligand_195.pdb
REMARK  3 active torsions:
REMARK  status: ('A' for Active; 'I' for Inactive)
REMARK    1  A    between atoms: C1_1  and  C2_2
REMARK    2  A    between atoms: C5_5  and  N1_6
REMARK    3  A    between atoms: N2_9  and  C7_10
REMARK                            x       y       z     vdW  Elec       q    Type
REMARK                         _______ _______ _______ _____ _____    ______ ____
ROOT
ATOM      1  N1  UNL     1     142.313 126.883 103.858  0.00  0.00    -0.269 N 
ATOM      2  C6  UNL     1     141.244 127.088 102.996  0.00  0.00    +0.308 C 
ATOM      3  O1  UNL     1     140.111 126.660 103.170  0.00  0.00    -0.252 OA
ATOM      4  N2  UNL     1     141.648 127.850 101.908  0.00  0.00    -0.269 N 
ATOM      5  H6  UNL     1     143.105 127.494 103.728  0.00  0.00    +0.156 HD
ATOM      6  H7  UNL     1     142.643 127.909 101.761  0.00  0.00    +0.156 HD
ENDROOT
BRANCH   1  11
ATOM      7  C1  UNL     1     142.668 123.496 108.468  0.00  0.00    +0.047 C 
ATOM      8  C2  UNL     1     142.536 124.373 107.262  0.00  0.00    -0.015 A 
ATOM      9  C3  UNL     1     141.401 125.163 107.063  0.00  0.00    +0.008 A 
ATOM     10  C4  UNL     1     141.303 126.000 105.944  0.00  0.00    +0.024 A 
ATOM     11  C5  UNL     1     142.343 126.072 105.013  0.00  0.00    +0.038 A 
ATOM     12  C13 UNL     1     143.481 125.287 105.215  0.00  0.00    +0.062 A 
ATOM     13  C14 UNL     1     143.570 124.456 106.330  0.00  0.00    +0.128 A 
ATOM     14  F1  UNL     1     144.681 123.724 106.500  0.00  0.00    -0.205 F 
ENDBRANCH   1  11
BRANCH   4  15
ATOM     15  C7  UNL     1     140.837 128.366 100.875  0.00  0.00    +0.036 A 
ATOM     16  C8  UNL     1     140.629 129.753 100.861  0.00  0.00    +0.023 A 
ATOM     17  C9  UNL     1     139.831 130.348  99.879  0.00  0.00    +0.003 A 
ATOM     18  C10 UNL     1     139.228 129.557  98.904  0.00  0.00    +0.020 A 
ATOM     19  C11 UNL     1     139.424 128.178  98.920  0.00  0.00    +0.043 A 
ATOM     20 CL1  UNL     1     138.667 127.204  97.718  0.00  0.00    -0.083 Cl
ATOM     21  C12 UNL     1     140.222 127.580  99.899  0.00  0.00    +0.043 A 
ENDBRANCH   4  15
TORSDOF 2
ENDMDL
MODEL 9
REMARK VINA RESULT:    -3.340      7.865     12.225
REMARK INTER + INTRA:          -4.059
REMARK INTER:                  -3.692
REMARK INTRA:                  -0.366
REMARK UNBOUND:                -0.328
REMARK  Name = /home/vital/Documents/PhD_2021/Malaria_codes/data/pdb_ligands_mmv/ligand_195.pdb
REMARK  3 active torsions:
REMARK  status: ('A' for Active; 'I' for Inactive)
REMARK    1  A    between atoms: C1_1  and  C2_2
REMARK    2  A    between atoms: C5_5  and  N1_6
REMARK    3  A    between atoms: N2_9  and  C7_10
REMARK                            x       y       z     vdW  Elec       q    Type
REMARK                         _______ _______ _______ _____ _____    ______ ____
ROOT
ATOM      1  N1  UNL     1     141.739 125.603 103.939  0.00  0.00    -0.269 N 
ATOM      2  C6  UNL     1     141.415 126.930 103.690  0.00  0.00    +0.308 C 
ATOM      3  O1  UNL     1     141.150 127.761 104.548  0.00  0.00    -0.252 OA
ATOM      4  N2  UNL     1     141.435 127.176 102.323  0.00  0.00    -0.269 N 
ATOM      5  H6  UNL     1     142.177 125.107 103.178  0.00  0.00    +0.156 HD
ATOM      6  H7  UNL     1     141.408 126.361 101.731  0.00  0.00    +0.156 HD
ENDROOT
BRANCH   1  11
ATOM      7  C1  UNL     1     141.399 122.873 108.968  0.00  0.00    +0.047 C 
ATOM      8  C2  UNL     1     141.517 123.609 107.669  0.00  0.00    -0.015 A 
ATOM      9  C3  UNL     1     142.761 124.012 107.177  0.00  0.00    +0.008 A 
ATOM     10  C4  UNL     1     142.860 124.675 105.947  0.00  0.00    +0.024 A 
ATOM     11  C5  UNL     1     141.720 124.933 105.181  0.00  0.00    +0.038 A 
ATOM     12  C13 UNL     1     140.476 124.524 105.670  0.00  0.00    +0.062 A 
ATOM     13  C14 UNL     1     140.387 123.866 106.895  0.00  0.00    +0.128 A 
ATOM     14  F1  UNL     1     139.178 123.478 107.329  0.00  0.00    -0.205 F 
ENDBRANCH   1  11
BRANCH   4  15
ATOM     15  C7  UNL     1     141.273 128.418 101.674  0.00  0.00    +0.036 A 
ATOM     16  C8  UNL     1     140.015 128.687 101.116  0.00  0.00    +0.023 A 
ATOM     17  C9  UNL     1     139.769 129.888 100.446  0.00  0.00    +0.003 A 
ATOM     18  C10 UNL     1     140.785 130.833 100.324  0.00  0.00    +0.020 A 
ATOM     19  C11 UNL     1     142.040 130.567 100.868  0.00  0.00    +0.043 A 
ATOM     20 CL1  UNL     1     143.296 131.734 100.704  0.00  0.00    -0.083 Cl
ATOM     21  C12 UNL     1     142.289 129.368 101.539  0.00  0.00    +0.043 A 
ENDBRANCH   4  15
TORSDOF 2
ENDMDL
