MODEL 1
REMARK VINA RESULT:    -5.238      0.000      0.000
REMARK INTER + INTRA:          -7.409
REMARK INTER:                  -6.769
REMARK INTRA:                  -0.640
REMARK UNBOUND:                -0.640
REMARK  Name = /home/vital/Documents/PhD_2021/Malaria_codes/data/pdb_ligands_mmv/ligand_126.pdb
REMARK  8 active torsions:
REMARK  status: ('A' for Active; 'I' for Inactive)
REMARK    1  A    between atoms: C1_1  and  C2_2
REMARK    2  A    between atoms: C2_2  and  O1_3
REMARK    3  A    between atoms: O1_3  and  C3_4
REMARK    4  A    between atoms: C6_7  and  C9_10
REMARK    5  A    between atoms: C11_14  and  C12_16
REMARK    6  A    between atoms: C16_20  and  S1_22
REMARK    7  A    between atoms: S1_22  and  C18_25
REMARK    8  A    between atoms: C19_27  and  C20_28
REMARK                            x       y       z     vdW  Elec       q    Type
REMARK                         _______ _______ _______ _____ _____    ______ ____
ROOT
ATOM      1  C9  UNL     1     141.907 126.084 104.714  0.00  0.00    +0.083 A 
ATOM      2  N1  UNL     1     141.439 127.053 103.839  0.00  0.00    -0.224 NA
ATOM      3  C10 UNL     1     142.450 127.689 103.298  0.00  0.00    +0.165 A 
ATOM      4  N2  UNL     1     142.237 128.717 102.417  0.00  0.00    -0.261 N 
ATOM      5  C11 UNL     1     143.188 129.429 101.729  0.00  0.00    +0.250 C 
ATOM      6  O2  UNL     1     144.401 129.259 101.723  0.00  0.00    -0.270 OA
ATOM      7  S2  UNL     1     143.996 127.174 103.779  0.00  0.00    -0.057 S 
ATOM      8  C19 UNL     1     143.288 125.975 104.786  0.00  0.00    +0.016 A 
ATOM      9  C20 UNL     1     144.158 125.036 105.547  0.00  0.00    +0.054 C 
ATOM     10  H10 UNL     1     141.255 128.878 102.247  0.00  0.00    +0.157 HD
ENDROOT
BRANCH   1  14
ATOM     11  C3  UNL     1     139.102 123.622 106.795  0.00  0.00    +0.121 A 
ATOM     12  C4  UNL     1     139.954 124.473 107.505  0.00  0.00    +0.046 A 
ATOM     13  C5  UNL     1     140.875 125.285 106.837  0.00  0.00    +0.013 A 
ATOM     14  C6  UNL     1     140.965 125.248 105.442  0.00  0.00    +0.001 A 
ATOM     15  C7  UNL     1     140.103 124.403 104.733  0.00  0.00    +0.013 A 
ATOM     16  C8  UNL     1     139.182 123.590 105.404  0.00  0.00    +0.046 A 
BRANCH  11  17
ATOM     17  O1  UNL     1     138.260 122.884 107.579  0.00  0.00    -0.492 OA
BRANCH  17  19
ATOM     18  C1  UNL     1     138.065 122.493 109.964  0.00  0.00    +0.048 C 
ATOM     19  C2  UNL     1     138.803 122.157 108.680  0.00  0.00    +0.225 C 
ENDBRANCH  17  19
ENDBRANCH  11  17
ENDBRANCH   1  14
BRANCH   5  20
ATOM     20  C12 UNL     1     142.644 130.518 100.870  0.00  0.00    +0.039 A 
ATOM     21  C13 UNL     1     141.266 130.761 100.771  0.00  0.00    +0.013 A 
ATOM     22  C14 UNL     1     140.795 131.801  99.965  0.00  0.00    +0.003 A 
ATOM     23  C15 UNL     1     141.694 132.610  99.268  0.00  0.00    +0.027 A 
ATOM     24  C16 UNL     1     143.066 132.380  99.392  0.00  0.00    +0.089 A 
ATOM     25  C17 UNL     1     143.550 131.334 100.182  0.00  0.00    +0.040 A 
BRANCH  24  26
ATOM     26  S1  UNL     1     144.223 133.398  98.508  0.00  0.00    -0.006 S 
ATOM     27  O3  UNL     1     143.663 134.735  98.464  0.00  0.00    -0.170 OA
ATOM     28  O4  UNL     1     145.538 133.160  99.074  0.00  0.00    -0.170 OA
ATOM     29  C18 UNL     1     144.207 132.722  96.868  0.00  0.00    +0.200 C 
ENDBRANCH  24  26
ENDBRANCH   5  20
TORSDOF 5
ENDMDL
MODEL 2
REMARK VINA RESULT:    -5.212     13.079     15.453
REMARK INTER + INTRA:          -7.376
REMARK INTER:                  -6.695
REMARK INTRA:                  -0.680
REMARK UNBOUND:                -0.640
REMARK  Name = /home/vital/Documents/PhD_2021/Malaria_codes/data/pdb_ligands_mmv/ligand_126.pdb
REMARK  8 active torsions:
REMARK  status: ('A' for Active; 'I' for Inactive)
REMARK    1  A    between atoms: C1_1  and  C2_2
REMARK    2  A    between atoms: C2_2  and  O1_3
REMARK    3  A    between atoms: O1_3  and  C3_4
REMARK    4  A    between atoms: C6_7  and  C9_10
REMARK    5  A    between atoms: C11_14  and  C12_16
REMARK    6  A    between atoms: C16_20  and  S1_22
REMARK    7  A    between atoms: S1_22  and  C18_25
REMARK    8  A    between atoms: C19_27  and  C20_28
REMARK                            x       y       z     vdW  Elec       q    Type
REMARK                         _______ _______ _______ _____ _____    ______ ____
ROOT
ATOM      1  C9  UNL     1     135.996 125.148  88.729  0.00  0.00    +0.083 A 
ATOM      2  N1  UNL     1     136.349 126.476  88.920  0.00  0.00    -0.224 NA
ATOM      3  C10 UNL     1     137.655 126.593  88.918  0.00  0.00    +0.165 A 
ATOM      4  N2  UNL     1     138.246 127.813  89.120  0.00  0.00    -0.261 N 
ATOM      5  C11 UNL     1     139.588 128.100  89.082  0.00  0.00    +0.250 C 
ATOM      6  O2  UNL     1     140.514 127.345  88.814  0.00  0.00    -0.270 OA
ATOM      7  S2  UNL     1     138.530 125.158  88.679  0.00  0.00    -0.057 S 
ATOM      8  C19 UNL     1     137.060 124.279  88.539  0.00  0.00    +0.016 A 
ATOM      9  C20 UNL     1     137.092 122.819  88.250  0.00  0.00    +0.054 C 
ATOM     10  H10 UNL     1     137.568 128.552  89.238  0.00  0.00    +0.157 HD
ENDROOT
BRANCH   1  14
ATOM     11  C3  UNL     1     131.872 124.040  88.575  0.00  0.00    +0.121 A 
ATOM     12  C4  UNL     1     132.451 124.432  89.786  0.00  0.00    +0.046 A 
ATOM     13  C5  UNL     1     133.798 124.799  89.850  0.00  0.00    +0.013 A 
ATOM     14  C6  UNL     1     134.592 124.767  88.700  0.00  0.00    +0.001 A 
ATOM     15  C7  UNL     1     134.008 124.385  87.487  0.00  0.00    +0.013 A 
ATOM     16  C8  UNL     1     132.658 124.017  87.425  0.00  0.00    +0.046 A 
BRANCH  11  17
ATOM     17  O1  UNL     1     130.550 123.705  88.664  0.00  0.00    -0.492 OA
BRANCH  17  19
ATOM     18  C1  UNL     1     129.406 125.705  87.906  0.00  0.00    +0.048 C 
ATOM     19  C2  UNL     1     129.607 124.709  89.036  0.00  0.00    +0.225 C 
ENDBRANCH  17  19
ENDBRANCH  11  17
ENDBRANCH   1  14
BRANCH   5  20
ATOM     20  C12 UNL     1     139.925 129.520  89.381  0.00  0.00    +0.039 A 
ATOM     21  C13 UNL     1     139.574 130.561  88.510  0.00  0.00    +0.013 A 
ATOM     22  C14 UNL     1     139.896 131.882  88.832  0.00  0.00    +0.003 A 
ATOM     23  C15 UNL     1     140.555 132.172  90.027  0.00  0.00    +0.027 A 
ATOM     24  C16 UNL     1     140.879 131.133  90.904  0.00  0.00    +0.089 A 
ATOM     25  C17 UNL     1     140.576 129.807  90.587  0.00  0.00    +0.040 A 
BRANCH  24  26
ATOM     26  S1  UNL     1     141.722 131.485  92.428  0.00  0.00    -0.006 S 
ATOM     27  O3  UNL     1     141.256 132.781  92.880  0.00  0.00    -0.170 OA
ATOM     28  O4  UNL     1     141.601 130.313  93.275  0.00  0.00    -0.170 OA
ATOM     29  C18 UNL     1     143.421 131.630  91.941  0.00  0.00    +0.200 C 
ENDBRANCH  24  26
ENDBRANCH   5  20
TORSDOF 5
ENDMDL
MODEL 3
REMARK VINA RESULT:    -5.016      1.615      2.046
REMARK INTER + INTRA:          -7.122
REMARK INTER:                  -6.385
REMARK INTRA:                  -0.737
REMARK UNBOUND:                -0.640
REMARK  Name = /home/vital/Documents/PhD_2021/Malaria_codes/data/pdb_ligands_mmv/ligand_126.pdb
REMARK  8 active torsions:
REMARK  status: ('A' for Active; 'I' for Inactive)
REMARK    1  A    between atoms: C1_1  and  C2_2
REMARK    2  A    between atoms: C2_2  and  O1_3
REMARK    3  A    between atoms: O1_3  and  C3_4
REMARK    4  A    between atoms: C6_7  and  C9_10
REMARK    5  A    between atoms: C11_14  and  C12_16
REMARK    6  A    between atoms: C16_20  and  S1_22
REMARK    7  A    between atoms: S1_22  and  C18_25
REMARK    8  A    between atoms: C19_27  and  C20_28
REMARK                            x       y       z     vdW  Elec       q    Type
REMARK                         _______ _______ _______ _____ _____    ______ ____
ROOT
ATOM      1  C9  UNL     1     142.227 125.502 105.599  0.00  0.00    +0.083 A 
ATOM      2  N1  UNL     1     141.491 126.270 104.709  0.00  0.00    -0.224 NA
ATOM      3  C10 UNL     1     142.298 126.893 103.886  0.00  0.00    +0.165 A 
ATOM      4  N2  UNL     1     141.801 127.739 102.928  0.00  0.00    -0.261 N 
ATOM      5  C11 UNL     1     142.512 128.408 101.963  0.00  0.00    +0.250 C 
ATOM      6  O2  UNL     1     143.714 128.345 101.732  0.00  0.00    -0.270 OA
ATOM      7  S2  UNL     1     143.956 126.601 104.106  0.00  0.00    -0.057 S 
ATOM      8  C19 UNL     1     143.599 125.527 105.399  0.00  0.00    +0.016 A 
ATOM      9  C20 UNL     1     144.704 124.807 106.092  0.00  0.00    +0.054 C 
ATOM     10  H10 UNL     1     140.792 127.784 102.944  0.00  0.00    +0.157 HD
ENDROOT
BRANCH   1  14
ATOM     11  C3  UNL     1     140.251 123.248 108.644  0.00  0.00    +0.121 A 
ATOM     12  C4  UNL     1     140.564 122.653 107.419  0.00  0.00    +0.046 A 
ATOM     13  C5  UNL     1     141.212 123.377 106.414  0.00  0.00    +0.013 A 
ATOM     14  C6  UNL     1     141.547 124.719 106.619  0.00  0.00    +0.001 A 
ATOM     15  C7  UNL     1     141.242 125.311 107.851  0.00  0.00    +0.013 A 
ATOM     16  C8  UNL     1     140.592 124.583 108.855  0.00  0.00    +0.046 A 
BRANCH  11  17
ATOM     17  O1  UNL     1     139.614 122.421 109.526  0.00  0.00    -0.492 OA
BRANCH  17  19
ATOM     18  C1  UNL     1     137.374 121.653 109.002  0.00  0.00    +0.048 C 
ATOM     19  C2  UNL     1     138.227 122.631 109.790  0.00  0.00    +0.225 C 
ENDBRANCH  17  19
ENDBRANCH  11  17
ENDBRANCH   1  14
BRANCH   5  20
ATOM     20  C12 UNL     1     141.691 129.289 101.087  0.00  0.00    +0.039 A 
ATOM     21  C13 UNL     1     140.295 129.168 101.021  0.00  0.00    +0.013 A 
ATOM     22  C14 UNL     1     139.556 130.022 100.197  0.00  0.00    +0.003 A 
ATOM     23  C15 UNL     1     140.203 131.007  99.450  0.00  0.00    +0.027 A 
ATOM     24  C16 UNL     1     141.591 131.141  99.541  0.00  0.00    +0.089 A 
ATOM     25  C17 UNL     1     142.342 130.283 100.348  0.00  0.00    +0.040 A 
BRANCH  24  26
ATOM     26  S1  UNL     1     142.430 132.387  98.593  0.00  0.00    -0.006 S 
ATOM     27  O3  UNL     1     142.451 131.929  97.217  0.00  0.00    -0.170 OA
ATOM     28  O4  UNL     1     141.847 133.669  98.942  0.00  0.00    -0.170 OA
ATOM     29  C18 UNL     1     144.086 132.352  99.229  0.00  0.00    +0.200 C 
ENDBRANCH  24  26
ENDBRANCH   5  20
TORSDOF 5
ENDMDL
MODEL 4
REMARK VINA RESULT:    -5.008     13.229     15.725
REMARK INTER + INTRA:          -7.112
REMARK INTER:                  -6.395
REMARK INTRA:                  -0.717
REMARK UNBOUND:                -0.640
REMARK  Name = /home/vital/Documents/PhD_2021/Malaria_codes/data/pdb_ligands_mmv/ligand_126.pdb
REMARK  8 active torsions:
REMARK  status: ('A' for Active; 'I' for Inactive)
REMARK    1  A    between atoms: C1_1  and  C2_2
REMARK    2  A    between atoms: C2_2  and  O1_3
REMARK    3  A    between atoms: O1_3  and  C3_4
REMARK    4  A    between atoms: C6_7  and  C9_10
REMARK    5  A    between atoms: C11_14  and  C12_16
REMARK    6  A    between atoms: C16_20  and  S1_22
REMARK    7  A    between atoms: S1_22  and  C18_25
REMARK    8  A    between atoms: C19_27  and  C20_28
REMARK                            x       y       z     vdW  Elec       q    Type
REMARK                         _______ _______ _______ _____ _____    ______ ____
ROOT
ATOM      1  C9  UNL     1     136.344 125.017  88.772  0.00  0.00    +0.083 A 
ATOM      2  N1  UNL     1     136.716 126.342  88.597  0.00  0.00    -0.224 NA
ATOM      3  C10 UNL     1     137.881 126.554  89.158  0.00  0.00    +0.165 A 
ATOM      4  N2  UNL     1     138.446 127.803  89.141  0.00  0.00    -0.261 N 
ATOM      5  C11 UNL     1     139.678 128.162  89.629  0.00  0.00    +0.250 C 
ATOM      6  O2  UNL     1     140.534 127.439  90.124  0.00  0.00    -0.270 OA
ATOM      7  S2  UNL     1     138.603 125.211  89.907  0.00  0.00    -0.057 S 
ATOM      8  C19 UNL     1     137.273 124.230  89.437  0.00  0.00    +0.016 A 
ATOM      9  C20 UNL     1     137.271 122.776  89.763  0.00  0.00    +0.054 C 
ATOM     10  H10 UNL     1     137.876 128.474  88.647  0.00  0.00    +0.157 HD
ENDROOT
BRANCH   1  14
ATOM     11  C3  UNL     1     132.601 123.606  87.270  0.00  0.00    +0.121 A 
ATOM     12  C4  UNL     1     133.721 123.657  86.434  0.00  0.00    +0.046 A 
ATOM     13  C5  UNL     1     134.952 124.114  86.913  0.00  0.00    +0.013 A 
ATOM     14  C6  UNL     1     135.077 124.541  88.238  0.00  0.00    +0.001 A 
ATOM     15  C7  UNL     1     133.957 124.479  89.076  0.00  0.00    +0.013 A 
ATOM     16  C8  UNL     1     132.725 124.021  88.594  0.00  0.00    +0.046 A 
BRANCH  11  17
ATOM     17  O1  UNL     1     131.467 123.144  86.664  0.00  0.00    -0.492 OA
BRANCH  17  19
ATOM     18  C1  UNL     1     131.146 121.018  85.541  0.00  0.00    +0.048 C 
ATOM     19  C2  UNL     1     131.091 121.780  86.854  0.00  0.00    +0.225 C 
ENDBRANCH  17  19
ENDBRANCH  11  17
ENDBRANCH   1  14
BRANCH   5  20
ATOM     20  C12 UNL     1     139.997 129.611  89.498  0.00  0.00    +0.039 A 
ATOM     21  C13 UNL     1     139.655 130.342  88.351  0.00  0.00    +0.013 A 
ATOM     22  C14 UNL     1     139.958 131.704  88.272  0.00  0.00    +0.003 A 
ATOM     23  C15 UNL     1     140.590 132.344  89.338  0.00  0.00    +0.027 A 
ATOM     24  C16 UNL     1     140.905 131.618  90.489  0.00  0.00    +0.089 A 
ATOM     25  C17 UNL     1     140.621 130.252  90.575  0.00  0.00    +0.040 A 
BRANCH  24  26
ATOM     26  S1  UNL     1     141.713 132.417  91.854  0.00  0.00    -0.006 S 
ATOM     27  O3  UNL     1     142.318 133.629  91.337  0.00  0.00    -0.170 OA
ATOM     28  O4  UNL     1     140.768 132.468  92.954  0.00  0.00    -0.170 OA
ATOM     29  C18 UNL     1     143.003 131.284  92.298  0.00  0.00    +0.200 C 
ENDBRANCH  24  26
ENDBRANCH   5  20
TORSDOF 5
ENDMDL
MODEL 5
REMARK VINA RESULT:    -4.746      6.549      9.317
REMARK INTER + INTRA:          -6.773
REMARK INTER:                  -6.011
REMARK INTRA:                  -0.762
REMARK UNBOUND:                -0.640
REMARK  Name = /home/vital/Documents/PhD_2021/Malaria_codes/data/pdb_ligands_mmv/ligand_126.pdb
REMARK  8 active torsions:
REMARK  status: ('A' for Active; 'I' for Inactive)
REMARK    1  A    between atoms: C1_1  and  C2_2
REMARK    2  A    between atoms: C2_2  and  O1_3
REMARK    3  A    between atoms: O1_3  and  C3_4
REMARK    4  A    between atoms: C6_7  and  C9_10
REMARK    5  A    between atoms: C11_14  and  C12_16
REMARK    6  A    between atoms: C16_20  and  S1_22
REMARK    7  A    between atoms: S1_22  and  C18_25
REMARK    8  A    between atoms: C19_27  and  C20_28
REMARK                            x       y       z     vdW  Elec       q    Type
REMARK                         _______ _______ _______ _____ _____    ______ ____
ROOT
ATOM      1  C9  UNL     1     143.547 131.610  97.980  0.00  0.00    +0.083 A 
ATOM      2  N1  UNL     1     143.481 132.074  96.675  0.00  0.00    -0.224 NA
ATOM      3  C10 UNL     1     144.537 132.805  96.409  0.00  0.00    +0.165 A 
ATOM      4  N2  UNL     1     144.682 133.400  95.183  0.00  0.00    -0.261 N 
ATOM      5  C11 UNL     1     145.754 134.136  94.741  0.00  0.00    +0.250 C 
ATOM      6  O2  UNL     1     146.805 134.363  95.326  0.00  0.00    -0.270 OA
ATOM      7  S2  UNL     1     145.662 132.972  97.669  0.00  0.00    -0.057 S 
ATOM      8  C19 UNL     1     144.693 131.969  98.673  0.00  0.00    +0.016 A 
ATOM      9  C20 UNL     1     145.155 131.626 100.047  0.00  0.00    +0.054 C 
ATOM     10  H10 UNL     1     143.918 133.185  94.560  0.00  0.00    +0.157 HD
ENDROOT
BRANCH   1  14
ATOM     11  C3  UNL     1     140.383 129.220  99.572  0.00  0.00    +0.121 A 
ATOM     12  C4  UNL     1     141.525 128.613  99.044  0.00  0.00    +0.046 A 
ATOM     13  C5  UNL     1     142.569 129.383  98.521  0.00  0.00    +0.013 A 
ATOM     14  C6  UNL     1     142.478 130.778  98.510  0.00  0.00    +0.001 A 
ATOM     15  C7  UNL     1     141.337 131.384  99.050  0.00  0.00    +0.013 A 
ATOM     16  C8  UNL     1     140.293 130.611  99.572  0.00  0.00    +0.046 A 
BRANCH  11  17
ATOM     17  O1  UNL     1     139.445 128.344 100.042  0.00  0.00    -0.492 OA
BRANCH  17  19
ATOM     18  C1  UNL     1     138.193 128.158  97.973  0.00  0.00    +0.048 C 
ATOM     19  C2  UNL     1     138.135 128.368  99.476  0.00  0.00    +0.225 C 
ENDBRANCH  17  19
ENDBRANCH  11  17
ENDBRANCH   1  14
BRANCH   5  20
ATOM     20  C12 UNL     1     145.600 134.688  93.366  0.00  0.00    +0.039 A 
ATOM     21  C13 UNL     1     146.336 135.800  92.931  0.00  0.00    +0.013 A 
ATOM     22  C14 UNL     1     146.174 136.281  91.629  0.00  0.00    +0.003 A 
ATOM     23  C15 UNL     1     145.292 135.649  90.753  0.00  0.00    +0.027 A 
ATOM     24  C16 UNL     1     144.582 134.525  91.182  0.00  0.00    +0.089 A 
ATOM     25  C17 UNL     1     144.722 134.043  92.487  0.00  0.00    +0.040 A 
BRANCH  24  26
ATOM     26  S1  UNL     1     143.451 133.710  90.080  0.00  0.00    -0.006 S 
ATOM     27  O3  UNL     1     142.229 134.490  90.075  0.00  0.00    -0.170 OA
ATOM     28  O4  UNL     1     144.164 133.433  88.847  0.00  0.00    -0.170 OA
ATOM     29  C18 UNL     1     143.131 132.160  90.882  0.00  0.00    +0.200 C 
ENDBRANCH  24  26
ENDBRANCH   5  20
TORSDOF 5
ENDMDL
MODEL 6
REMARK VINA RESULT:    -4.728      2.590     10.706
REMARK INTER + INTRA:          -6.750
REMARK INTER:                  -5.975
REMARK INTRA:                  -0.776
REMARK UNBOUND:                -0.640
REMARK  Name = /home/vital/Documents/PhD_2021/Malaria_codes/data/pdb_ligands_mmv/ligand_126.pdb
REMARK  8 active torsions:
REMARK  status: ('A' for Active; 'I' for Inactive)
REMARK    1  A    between atoms: C1_1  and  C2_2
REMARK    2  A    between atoms: C2_2  and  O1_3
REMARK    3  A    between atoms: O1_3  and  C3_4
REMARK    4  A    between atoms: C6_7  and  C9_10
REMARK    5  A    between atoms: C11_14  and  C12_16
REMARK    6  A    between atoms: C16_20  and  S1_22
REMARK    7  A    between atoms: S1_22  and  C18_25
REMARK    8  A    between atoms: C19_27  and  C20_28
REMARK                            x       y       z     vdW  Elec       q    Type
REMARK                         _______ _______ _______ _____ _____    ______ ____
ROOT
ATOM      1  C9  UNL     1     142.392 128.222 102.145  0.00  0.00    +0.083 A 
ATOM      2  N1  UNL     1     141.287 127.506 102.583  0.00  0.00    -0.224 NA
ATOM      3  C10 UNL     1     141.617 126.766 103.613  0.00  0.00    +0.165 A 
ATOM      4  N2  UNL     1     140.694 125.944 104.205  0.00  0.00    -0.261 N 
ATOM      5  C11 UNL     1     140.874 125.164 105.321  0.00  0.00    +0.250 C 
ATOM      6  O2  UNL     1     141.866 125.086 106.035  0.00  0.00    -0.270 OA
ATOM      7  S2  UNL     1     143.232 126.883 104.126  0.00  0.00    -0.057 S 
ATOM      8  C19 UNL     1     143.544 128.039 102.894  0.00  0.00    +0.016 A 
ATOM      9  C20 UNL     1     144.893 128.660 102.783  0.00  0.00    +0.054 C 
ATOM     10  H10 UNL     1     139.786 126.010 103.769  0.00  0.00    +0.157 HD
ENDROOT
BRANCH   1  14
ATOM     11  C3  UNL     1     141.996 130.881  98.823  0.00  0.00    +0.121 A 
ATOM     12  C4  UNL     1     142.463 129.578  98.630  0.00  0.00    +0.046 A 
ATOM     13  C5  UNL     1     142.596 128.697  99.707  0.00  0.00    +0.013 A 
ATOM     14  C6  UNL     1     142.272 129.114 101.001  0.00  0.00    +0.001 A 
ATOM     15  C7  UNL     1     141.794 130.416 101.191  0.00  0.00    +0.013 A 
ATOM     16  C8  UNL     1     141.663 131.297 100.111  0.00  0.00    +0.046 A 
BRANCH  11  17
ATOM     17  O1  UNL     1     141.924 131.629  97.682  0.00  0.00    -0.492 OA
BRANCH  17  19
ATOM     18  C1  UNL     1     143.962 132.838  97.163  0.00  0.00    +0.048 C 
ATOM     19  C2  UNL     1     143.054 131.672  96.812  0.00  0.00    +0.225 C 
ENDBRANCH  17  19
ENDBRANCH  11  17
ENDBRANCH   1  14
BRANCH   5  20
ATOM     20  C12 UNL     1     139.689 124.346 105.702  0.00  0.00    +0.039 A 
ATOM     21  C13 UNL     1     138.713 123.979 104.764  0.00  0.00    +0.013 A 
ATOM     22  C14 UNL     1     137.623 123.198 105.156  0.00  0.00    +0.003 A 
ATOM     23  C15 UNL     1     137.508 122.769 106.479  0.00  0.00    +0.027 A 
ATOM     24  C16 UNL     1     138.497 123.114 107.403  0.00  0.00    +0.089 A 
ATOM     25  C17 UNL     1     139.585 123.907 107.027  0.00  0.00    +0.040 A 
BRANCH  24  26
ATOM     26  S1  UNL     1     138.365 122.579 109.092  0.00  0.00    -0.006 S 
ATOM     27  O3  UNL     1     138.279 123.774 109.909  0.00  0.00    -0.170 OA
ATOM     28  O4  UNL     1     137.331 121.562 109.149  0.00  0.00    -0.170 OA
ATOM     29  C18 UNL     1     139.922 121.788 109.403  0.00  0.00    +0.200 C 
ENDBRANCH  24  26
ENDBRANCH   5  20
TORSDOF 5
ENDMDL
MODEL 7
REMARK VINA RESULT:    -4.550     15.616     19.394
REMARK INTER + INTRA:          -6.520
REMARK INTER:                  -5.779
REMARK INTRA:                  -0.742
REMARK UNBOUND:                -0.640
REMARK  Name = /home/vital/Documents/PhD_2021/Malaria_codes/data/pdb_ligands_mmv/ligand_126.pdb
REMARK  8 active torsions:
REMARK  status: ('A' for Active; 'I' for Inactive)
REMARK    1  A    between atoms: C1_1  and  C2_2
REMARK    2  A    between atoms: C2_2  and  O1_3
REMARK    3  A    between atoms: O1_3  and  C3_4
REMARK    4  A    between atoms: C6_7  and  C9_10
REMARK    5  A    between atoms: C11_14  and  C12_16
REMARK    6  A    between atoms: C16_20  and  S1_22
REMARK    7  A    between atoms: S1_22  and  C18_25
REMARK    8  A    between atoms: C19_27  and  C20_28
REMARK                            x       y       z     vdW  Elec       q    Type
REMARK                         _______ _______ _______ _____ _____    ______ ____
ROOT
ATOM      1  C9  UNL     1     138.029 126.752  86.692  0.00  0.00    +0.083 A 
ATOM      2  N1  UNL     1     136.798 126.172  86.965  0.00  0.00    -0.224 NA
ATOM      3  C10 UNL     1     136.680 125.049  86.299  0.00  0.00    +0.165 A 
ATOM      4  N2  UNL     1     135.531 124.305  86.385  0.00  0.00    -0.261 N 
ATOM      5  C11 UNL     1     135.287 123.087  85.801  0.00  0.00    +0.250 C 
ATOM      6  O2  UNL     1     136.054 122.402  85.136  0.00  0.00    -0.270 OA
ATOM      7  S2  UNL     1     138.007 124.612  85.334  0.00  0.00    -0.057 S 
ATOM      8  C19 UNL     1     138.848 126.020  85.845  0.00  0.00    +0.016 A 
ATOM      9  C20 UNL     1     140.237 126.270  85.369  0.00  0.00    +0.054 C 
ATOM     10  H10 UNL     1     134.854 124.718  87.010  0.00  0.00    +0.157 HD
ENDROOT
BRANCH   1  14
ATOM     11  C3  UNL     1     139.097 130.434  88.579  0.00  0.00    +0.121 A 
ATOM     12  C4  UNL     1     138.354 130.439  87.395  0.00  0.00    +0.046 A 
ATOM     13  C5  UNL     1     137.996 129.243  86.768  0.00  0.00    +0.013 A 
ATOM     14  C6  UNL     1     138.389 128.017  87.314  0.00  0.00    +0.001 A 
ATOM     15  C7  UNL     1     139.124 128.013  88.506  0.00  0.00    +0.013 A 
ATOM     16  C8  UNL     1     139.481 129.214  89.132  0.00  0.00    +0.046 A 
BRANCH  11  17
ATOM     17  O1  UNL     1     139.377 131.676  89.075  0.00  0.00    -0.492 OA
BRANCH  17  19
ATOM     18  C1  UNL     1     141.148 132.415  90.559  0.00  0.00    +0.048 C 
ATOM     19  C2  UNL     1     140.737 132.106  89.130  0.00  0.00    +0.225 C 
ENDBRANCH  17  19
ENDBRANCH  11  17
ENDBRANCH   1  14
BRANCH   5  20
ATOM     20  C12 UNL     1     133.922 122.545  86.048  0.00  0.00    +0.039 A 
ATOM     21  C13 UNL     1     133.308 121.655  85.154  0.00  0.00    +0.013 A 
ATOM     22  C14 UNL     1     132.031 121.157  85.428  0.00  0.00    +0.003 A 
ATOM     23  C15 UNL     1     131.369 121.531  86.597  0.00  0.00    +0.027 A 
ATOM     24  C16 UNL     1     131.996 122.396  87.498  0.00  0.00    +0.089 A 
ATOM     25  C17 UNL     1     133.266 122.914  87.228  0.00  0.00    +0.040 A 
BRANCH  24  26
ATOM     26  S1  UNL     1     131.165 122.886  88.990  0.00  0.00    -0.006 S 
ATOM     27  O3  UNL     1     130.222 121.833  89.313  0.00  0.00    -0.170 OA
ATOM     28  O4  UNL     1     132.180 123.296  89.942  0.00  0.00    -0.170 OA
ATOM     29  C18 UNL     1     130.257 124.332  88.507  0.00  0.00    +0.200 C 
ENDBRANCH  24  26
ENDBRANCH   5  20
TORSDOF 5
ENDMDL
MODEL 8
REMARK VINA RESULT:    -4.417     15.453     17.773
REMARK INTER + INTRA:          -6.348
REMARK INTER:                  -5.598
REMARK INTRA:                  -0.751
REMARK UNBOUND:                -0.640
REMARK  Name = /home/vital/Documents/PhD_2021/Malaria_codes/data/pdb_ligands_mmv/ligand_126.pdb
REMARK  8 active torsions:
REMARK  status: ('A' for Active; 'I' for Inactive)
REMARK    1  A    between atoms: C1_1  and  C2_2
REMARK    2  A    between atoms: C2_2  and  O1_3
REMARK    3  A    between atoms: O1_3  and  C3_4
REMARK    4  A    between atoms: C6_7  and  C9_10
REMARK    5  A    between atoms: C11_14  and  C12_16
REMARK    6  A    between atoms: C16_20  and  S1_22
REMARK    7  A    between atoms: S1_22  and  C18_25
REMARK    8  A    between atoms: C19_27  and  C20_28
REMARK                            x       y       z     vdW  Elec       q    Type
REMARK                         _______ _______ _______ _____ _____    ______ ____
ROOT
ATOM      1  C9  UNL     1     139.003 124.136  88.713  0.00  0.00    +0.083 A 
ATOM      2  N1  UNL     1     137.650 123.831  88.687  0.00  0.00    -0.224 NA
ATOM      3  C10 UNL     1     137.370 123.145  87.606  0.00  0.00    +0.165 A 
ATOM      4  N2  UNL     1     136.083 122.752  87.343  0.00  0.00    -0.261 N 
ATOM      5  C11 UNL     1     135.649 121.982  86.293  0.00  0.00    +0.250 C 
ATOM      6  O2  UNL     1     136.323 121.453  85.417  0.00  0.00    -0.270 OA
ATOM      7  S2  UNL     1     138.678 122.813  86.575  0.00  0.00    -0.057 S 
ATOM      8  C19 UNL     1     139.739 123.627  87.653  0.00  0.00    +0.016 A 
ATOM      9  C20 UNL     1     141.198 123.684  87.358  0.00  0.00    +0.054 C 
ATOM     10  H10 UNL     1     135.441 123.034  88.070  0.00  0.00    +0.157 HD
ENDROOT
BRANCH   1  14
ATOM     11  C3  UNL     1     140.592 126.341  92.009  0.00  0.00    +0.121 A 
ATOM     12  C4  UNL     1     140.440 126.953  90.762  0.00  0.00    +0.046 A 
ATOM     13  C5  UNL     1     139.919 126.244  89.675  0.00  0.00    +0.013 A 
ATOM     14  C6  UNL     1     139.554 124.903  89.820  0.00  0.00    +0.001 A 
ATOM     15  C7  UNL     1     139.698 124.295  91.073  0.00  0.00    +0.013 A 
ATOM     16  C8  UNL     1     140.220 125.007  92.160  0.00  0.00    +0.046 A 
BRANCH  11  17
ATOM     17  O1  UNL     1     141.118 127.154  92.975  0.00  0.00    -0.492 OA
BRANCH  17  19
ATOM     18  C1  UNL     1     140.857 126.817  95.363  0.00  0.00    +0.048 C 
ATOM     19  C2  UNL     1     140.317 127.484  94.109  0.00  0.00    +0.225 C 
ENDBRANCH  17  19
ENDBRANCH  11  17
ENDBRANCH   1  14
BRANCH   5  20
ATOM     20  C12 UNL     1     134.178 121.755  86.257  0.00  0.00    +0.039 A 
ATOM     21  C13 UNL     1     133.552 121.142  85.162  0.00  0.00    +0.013 A 
ATOM     22  C14 UNL     1     132.170 120.934  85.172  0.00  0.00    +0.003 A 
ATOM     23  C15 UNL     1     131.410 121.322  86.276  0.00  0.00    +0.027 A 
ATOM     24  C16 UNL     1     132.043 121.908  87.376  0.00  0.00    +0.089 A 
ATOM     25  C17 UNL     1     133.421 122.136  87.372  0.00  0.00    +0.040 A 
BRANCH  24  26
ATOM     26  S1  UNL     1     131.090 122.411  88.788  0.00  0.00    -0.006 S 
ATOM     27  O3  UNL     1     130.673 123.779  88.551  0.00  0.00    -0.170 OA
ATOM     28  O4  UNL     1     130.114 121.370  89.051  0.00  0.00    -0.170 OA
ATOM     29  C18 UNL     1     132.269 122.398  90.114  0.00  0.00    +0.200 C 
ENDBRANCH  24  26
ENDBRANCH   5  20
TORSDOF 5
ENDMDL
MODEL 9
REMARK VINA RESULT:    -4.328     15.483     18.968
REMARK INTER + INTRA:          -6.233
REMARK INTER:                  -5.485
REMARK INTRA:                  -0.748
REMARK UNBOUND:                -0.640
REMARK  Name = /home/vital/Documents/PhD_2021/Malaria_codes/data/pdb_ligands_mmv/ligand_126.pdb
REMARK  8 active torsions:
REMARK  status: ('A' for Active; 'I' for Inactive)
REMARK    1  A    between atoms: C1_1  and  C2_2
REMARK    2  A    between atoms: C2_2  and  O1_3
REMARK    3  A    between atoms: O1_3  and  C3_4
REMARK    4  A    between atoms: C6_7  and  C9_10
REMARK    5  A    between atoms: C11_14  and  C12_16
REMARK    6  A    between atoms: C16_20  and  S1_22
REMARK    7  A    between atoms: S1_22  and  C18_25
REMARK    8  A    between atoms: C19_27  and  C20_28
REMARK                            x       y       z     vdW  Elec       q    Type
REMARK                         _______ _______ _______ _____ _____    ______ ____
ROOT
ATOM      1  C9  UNL     1     138.748 125.647  87.254  0.00  0.00    +0.083 A 
ATOM      2  N1  UNL     1     137.433 125.251  87.451  0.00  0.00    -0.224 NA
ATOM      3  C10 UNL     1     137.154 124.234  86.672  0.00  0.00    +0.165 A 
ATOM      4  N2  UNL     1     135.899 123.683  86.668  0.00  0.00    -0.261 N 
ATOM      5  C11 UNL     1     135.478 122.585  85.959  0.00  0.00    +0.250 C 
ATOM      6  O2  UNL     1     136.143 121.854  85.236  0.00  0.00    -0.270 OA
ATOM      7  S2  UNL     1     138.420 123.685  85.682  0.00  0.00    -0.057 S 
ATOM      8  C19 UNL     1     139.462 124.880  86.345  0.00  0.00    +0.016 A 
ATOM      9  C20 UNL     1     140.885 124.947  85.913  0.00  0.00    +0.054 C 
ATOM     10  H10 UNL     1     135.280 124.135  87.324  0.00  0.00    +0.157 HD
ENDROOT
BRANCH   1  14
ATOM     11  C3  UNL     1     140.334 128.901  89.523  0.00  0.00    +0.121 A 
ATOM     12  C4  UNL     1     139.737 129.135  88.281  0.00  0.00    +0.046 A 
ATOM     13  C5  UNL     1     139.212 128.080  87.528  0.00  0.00    +0.013 A 
ATOM     14  C6  UNL     1     139.289 126.768  88.006  0.00  0.00    +0.001 A 
ATOM     15  C7  UNL     1     139.878 126.538  89.256  0.00  0.00    +0.013 A 
ATOM     16  C8  UNL     1     140.403 127.596  90.007  0.00  0.00    +0.046 A 
BRANCH  11  17
ATOM     17  O1  UNL     1     140.807 130.025  90.141  0.00  0.00    -0.492 OA
BRANCH  17  19
ATOM     18  C1  UNL     1     141.443 132.363  90.039  0.00  0.00    +0.048 C 
ATOM     19  C2  UNL     1     140.436 131.303  89.627  0.00  0.00    +0.225 C 
ENDBRANCH  17  19
ENDBRANCH  11  17
ENDBRANCH   1  14
BRANCH   5  20
ATOM     20  C12 UNL     1     134.037 122.250  86.133  0.00  0.00    +0.039 A 
ATOM     21  C13 UNL     1     133.304 121.600  85.130  0.00  0.00    +0.013 A 
ATOM     22  C14 UNL     1     131.957 121.290  85.337  0.00  0.00    +0.003 A 
ATOM     23  C15 UNL     1     131.341 121.613  86.546  0.00  0.00    +0.027 A 
ATOM     24  C16 UNL     1     132.083 122.237  87.553  0.00  0.00    +0.089 A 
ATOM     25  C17 UNL     1     133.427 122.566  87.353  0.00  0.00    +0.040 A 
BRANCH  24  26
ATOM     26  S1  UNL     1     131.313 122.659  89.097  0.00  0.00    -0.006 S 
ATOM     27  O3  UNL     1     130.329 121.631  89.373  0.00  0.00    -0.170 OA
ATOM     28  O4  UNL     1     132.369 122.953  90.047  0.00  0.00    -0.170 OA
ATOM     29  C18 UNL     1     130.465 124.176  88.740  0.00  0.00    +0.200 C 
ENDBRANCH  24  26
ENDBRANCH   5  20
TORSDOF 5
ENDMDL
