MODEL 1
REMARK VINA RESULT:    -3.428      0.000      0.000
REMARK INTER + INTRA:          -7.444
REMARK INTER:                  -4.631
REMARK INTRA:                  -2.813
REMARK UNBOUND:                -2.813
REMARK  Name = /home/vital/Documents/PhD_2021/Malaria_codes/data/pdb_ligands_mmv/ligand_146.pdb
REMARK  9 active torsions:
REMARK  status: ('A' for Active; 'I' for Inactive)
REMARK    1  A    between atoms: C1_1  and  C2_2
REMARK    2  A    between atoms: C2_2  and  C3_3
REMARK    3  A    between atoms: C2_2  and  C4_4
REMARK    4  A    between atoms: C7_7  and  C8_8
REMARK    5  A    between atoms: C8_8  and  N1_9
REMARK    6  A    between atoms: C9_10  and  C10_11
REMARK    7  A    between atoms: C10_11  and  C11_12
REMARK    8  A    between atoms: C11_12  and  N2_13
REMARK    9  A    between atoms: C12_14  and  C13_16
REMARK                            x       y       z     vdW  Elec       q    Type
REMARK                         _______ _______ _______ _____ _____    ______ ____
ROOT
ATOM      1  N1  UNL     1     140.715 128.066 101.288  0.00  0.00    -0.323 N 
ATOM      2  C9  UNL     1     140.546 127.272 100.171  0.00  0.00    +0.113 A 
ATOM      3  N3  UNL     1     141.169 126.119 100.314  0.00  0.00    -0.232 NA
ATOM      4  C14 UNL     1     141.759 126.163 101.550  0.00  0.00    +0.089 A 
ATOM      5  C15 UNL     1     142.542 125.195 102.196  0.00  0.00    +0.030 A 
ATOM      6  C16 UNL     1     143.050 125.476 103.470  0.00  0.00    +0.002 A 
ATOM      7  C17 UNL     1     142.785 126.698 104.088  0.00  0.00    +0.002 A 
ATOM      8  C18 UNL     1     142.006 127.676 103.458  0.00  0.00    +0.028 A 
ATOM      9  C19 UNL     1     141.504 127.376 102.184  0.00  0.00    +0.069 A 
ENDROOT
BRANCH   1  10
ATOM     10  C8  UNL     1     140.219 129.425 101.469  0.00  0.00    +0.158 C 
BRANCH  10  14
ATOM     11  C4  UNL     1     142.618 132.419  99.434  0.00  0.00    -0.045 A 
ATOM     12  C5  UNL     1     141.256 132.281  99.139  0.00  0.00    +0.004 A 
ATOM     13  C6  UNL     1     140.476 131.315  99.784  0.00  0.00    +0.005 A 
ATOM     14  C7  UNL     1     141.043 130.457 100.735  0.00  0.00    -0.028 A 
ATOM     15  C20 UNL     1     142.403 130.604 101.040  0.00  0.00    +0.005 A 
ATOM     16  C21 UNL     1     143.181 131.569 100.394  0.00  0.00    +0.004 A 
BRANCH  11  18
ATOM     17  C1  UNL     1     143.966 132.962  97.372  0.00  0.00    +0.012 C 
ATOM     18  C2  UNL     1     143.444 133.473  98.717  0.00  0.00    +0.013 C 
ATOM     19  C3  UNL     1     142.659 134.774  98.538  0.00  0.00    +0.012 C 
ENDBRANCH  11  18
ENDBRANCH  10  14
ENDBRANCH   1  10
BRANCH   2  20
ATOM     20  C10 UNL     1     139.783 127.675  98.954  0.00  0.00    +0.093 C 
BRANCH  20  21
ATOM     21  C11 UNL     1     140.610 127.434  97.690  0.00  0.00    +0.112 C 
BRANCH  21  22
ATOM     22  N2  UNL     1     142.032 127.621  97.915  0.00  0.00    -0.315 N 
ATOM     23  C12 UNL     1     142.671 128.777  97.532  0.00  0.00    +0.210 C 
ATOM     24  O1  UNL     1     142.098 129.720  96.993  0.00  0.00    -0.276 OA
ATOM     25  C13 UNL     1     144.150 128.781  97.801  0.00  0.00    +0.109 C 
ATOM     26  H16 UNL     1     142.572 126.840  98.264  0.00  0.00    +0.149 HD
ENDBRANCH  21  22
ENDBRANCH  20  21
ENDBRANCH   2  20
TORSDOF 6
ENDMDL
MODEL 2
REMARK VINA RESULT:    -3.397      2.521      4.453
REMARK INTER + INTRA:          -7.401
REMARK INTER:                  -4.416
REMARK INTRA:                  -2.985
REMARK UNBOUND:                -2.813
REMARK  Name = /home/vital/Documents/PhD_2021/Malaria_codes/data/pdb_ligands_mmv/ligand_146.pdb
REMARK  9 active torsions:
REMARK  status: ('A' for Active; 'I' for Inactive)
REMARK    1  A    between atoms: C1_1  and  C2_2
REMARK    2  A    between atoms: C2_2  and  C3_3
REMARK    3  A    between atoms: C2_2  and  C4_4
REMARK    4  A    between atoms: C7_7  and  C8_8
REMARK    5  A    between atoms: C8_8  and  N1_9
REMARK    6  A    between atoms: C9_10  and  C10_11
REMARK    7  A    between atoms: C10_11  and  C11_12
REMARK    8  A    between atoms: C11_12  and  N2_13
REMARK    9  A    between atoms: C12_14  and  C13_16
REMARK                            x       y       z     vdW  Elec       q    Type
REMARK                         _______ _______ _______ _____ _____    ______ ____
ROOT
ATOM      1  N1  UNL     1     142.126 131.315 100.326  0.00  0.00    -0.323 N 
ATOM      2  C9  UNL     1     143.098 130.827 101.177  0.00  0.00    +0.113 A 
ATOM      3  N3  UNL     1     142.746 129.658 101.674  0.00  0.00    -0.232 NA
ATOM      4  C14 UNL     1     141.516 129.379 101.138  0.00  0.00    +0.089 A 
ATOM      5  C15 UNL     1     140.694 128.259 101.336  0.00  0.00    +0.030 A 
ATOM      6  C16 UNL     1     139.459 128.202 100.679  0.00  0.00    +0.002 A 
ATOM      7  C17 UNL     1     139.051 129.240  99.842  0.00  0.00    +0.002 A 
ATOM      8  C18 UNL     1     139.858 130.365  99.632  0.00  0.00    +0.028 A 
ATOM      9  C19 UNL     1     141.091 130.403 100.296  0.00  0.00    +0.069 A 
ENDROOT
BRANCH   1  10
ATOM     10  C8  UNL     1     142.141 132.601  99.638  0.00  0.00    +0.158 C 
BRANCH  10  14
ATOM     11  C4  UNL     1     144.591 132.665  96.052  0.00  0.00    -0.045 A 
ATOM     12  C5  UNL     1     143.506 131.785  96.155  0.00  0.00    +0.004 A 
ATOM     13  C6  UNL     1     142.715 131.752  97.308  0.00  0.00    +0.005 A 
ATOM     14  C7  UNL     1     142.995 132.593  98.392  0.00  0.00    -0.028 A 
ATOM     15  C20 UNL     1     144.072 133.484  98.284  0.00  0.00    +0.005 A 
ATOM     16  C21 UNL     1     144.863 133.515  97.132  0.00  0.00    +0.004 A 
BRANCH  11  18
ATOM     17  C1  UNL     1     145.938 131.278  94.432  0.00  0.00    +0.012 C 
ATOM     18  C2  UNL     1     145.436 132.679  94.791  0.00  0.00    +0.013 C 
ATOM     19  C3  UNL     1     144.681 133.304  93.617  0.00  0.00    +0.012 C 
ENDBRANCH  11  18
ENDBRANCH  10  14
ENDBRANCH   1  10
BRANCH   2  20
ATOM     20  C10 UNL     1     144.366 131.540 101.509  0.00  0.00    +0.093 C 
BRANCH  20  21
ATOM     21  C11 UNL     1     145.563 130.857 100.846  0.00  0.00    +0.112 C 
BRANCH  21  22
ATOM     22  N2  UNL     1     145.160 129.818  99.915  0.00  0.00    -0.315 N 
ATOM     23  C12 UNL     1     145.688 129.749  98.647  0.00  0.00    +0.210 C 
ATOM     24  O1  UNL     1     146.528 130.536  98.221  0.00  0.00    -0.276 OA
ATOM     25  C13 UNL     1     145.123 128.638  97.806  0.00  0.00    +0.109 C 
ATOM     26  H16 UNL     1     144.400 129.203 100.178  0.00  0.00    +0.149 HD
ENDBRANCH  21  22
ENDBRANCH  20  21
ENDBRANCH   2  20
TORSDOF 6
ENDMDL
MODEL 3
REMARK VINA RESULT:    -3.373      2.996      6.357
REMARK INTER + INTRA:          -7.369
REMARK INTER:                  -4.426
REMARK INTRA:                  -2.943
REMARK UNBOUND:                -2.813
REMARK  Name = /home/vital/Documents/PhD_2021/Malaria_codes/data/pdb_ligands_mmv/ligand_146.pdb
REMARK  9 active torsions:
REMARK  status: ('A' for Active; 'I' for Inactive)
REMARK    1  A    between atoms: C1_1  and  C2_2
REMARK    2  A    between atoms: C2_2  and  C3_3
REMARK    3  A    between atoms: C2_2  and  C4_4
REMARK    4  A    between atoms: C7_7  and  C8_8
REMARK    5  A    between atoms: C8_8  and  N1_9
REMARK    6  A    between atoms: C9_10  and  C10_11
REMARK    7  A    between atoms: C10_11  and  C11_12
REMARK    8  A    between atoms: C11_12  and  N2_13
REMARK    9  A    between atoms: C12_14  and  C13_16
REMARK                            x       y       z     vdW  Elec       q    Type
REMARK                         _______ _______ _______ _____ _____    ______ ____
ROOT
ATOM      1  N1  UNL     1     141.807 128.549  99.768  0.00  0.00    -0.323 N 
ATOM      2  C9  UNL     1     142.731 127.946  98.937  0.00  0.00    +0.113 A 
ATOM      3  N3  UNL     1     142.141 127.404  97.891  0.00  0.00    -0.232 NA
ATOM      4  C14 UNL     1     140.802 127.656  98.044  0.00  0.00    +0.089 A 
ATOM      5  C15 UNL     1     139.730 127.298  97.213  0.00  0.00    +0.030 A 
ATOM      6  C16 UNL     1     138.432 127.663  97.589  0.00  0.00    +0.002 A 
ATOM      7  C17 UNL     1     138.206 128.368  98.772  0.00  0.00    +0.002 A 
ATOM      8  C18 UNL     1     139.263 128.733  99.613  0.00  0.00    +0.028 A 
ATOM      9  C19 UNL     1     140.556 128.362  99.218  0.00  0.00    +0.069 A 
ENDROOT
BRANCH   1  10
ATOM     10  C8  UNL     1     142.082 129.200 101.044  0.00  0.00    +0.158 C 
BRANCH  10  14
ATOM     11  C4  UNL     1     142.297 126.426 104.380  0.00  0.00    -0.045 A 
ATOM     12  C5  UNL     1     143.371 127.279 104.095  0.00  0.00    +0.004 A 
ATOM     13  C6  UNL     1     143.314 128.171 103.019  0.00  0.00    +0.005 A 
ATOM     14  C7  UNL     1     142.183 128.226 102.194  0.00  0.00    -0.028 A 
ATOM     15  C20 UNL     1     141.102 127.382 102.487  0.00  0.00    +0.005 A 
ATOM     16  C21 UNL     1     141.161 126.490 103.562  0.00  0.00    +0.004 A 
BRANCH  11  18
ATOM     17  C1  UNL     1     141.163 125.576 106.467  0.00  0.00    +0.012 C 
ATOM     18  C2  UNL     1     142.385 125.464 105.551  0.00  0.00    +0.013 C 
ATOM     19  C3  UNL     1     142.581 124.022 105.078  0.00  0.00    +0.012 C 
ENDBRANCH  11  18
ENDBRANCH  10  14
ENDBRANCH   1  10
BRANCH   2  20
ATOM     20  C10 UNL     1     144.199 127.894  99.202  0.00  0.00    +0.093 C 
BRANCH  20  21
ATOM     21  C11 UNL     1     144.631 126.478  99.584  0.00  0.00    +0.112 C 
BRANCH  21  22
ATOM     22  N2  UNL     1     143.500 125.585  99.768  0.00  0.00    -0.315 N 
ATOM     23  C12 UNL     1     143.405 124.769 100.872  0.00  0.00    +0.210 C 
ATOM     24  O1  UNL     1     144.244 124.743 101.767  0.00  0.00    -0.276 OA
ATOM     25  C13 UNL     1     142.193 123.879 100.875  0.00  0.00    +0.109 C 
ATOM     26  H16 UNL     1     142.831 125.493  99.015  0.00  0.00    +0.149 HD
ENDBRANCH  21  22
ENDBRANCH  20  21
ENDBRANCH   2  20
TORSDOF 6
ENDMDL
MODEL 4
REMARK VINA RESULT:    -3.343      1.799      4.451
REMARK INTER + INTRA:          -7.329
REMARK INTER:                  -4.331
REMARK INTRA:                  -2.998
REMARK UNBOUND:                -2.813
REMARK  Name = /home/vital/Documents/PhD_2021/Malaria_codes/data/pdb_ligands_mmv/ligand_146.pdb
REMARK  9 active torsions:
REMARK  status: ('A' for Active; 'I' for Inactive)
REMARK    1  A    between atoms: C1_1  and  C2_2
REMARK    2  A    between atoms: C2_2  and  C3_3
REMARK    3  A    between atoms: C2_2  and  C4_4
REMARK    4  A    between atoms: C7_7  and  C8_8
REMARK    5  A    between atoms: C8_8  and  N1_9
REMARK    6  A    between atoms: C9_10  and  C10_11
REMARK    7  A    between atoms: C10_11  and  C11_12
REMARK    8  A    between atoms: C11_12  and  N2_13
REMARK    9  A    between atoms: C12_14  and  C13_16
REMARK                            x       y       z     vdW  Elec       q    Type
REMARK                         _______ _______ _______ _____ _____    ______ ____
ROOT
ATOM      1  N1  UNL     1     141.413 128.721 101.413  0.00  0.00    -0.323 N 
ATOM      2  C9  UNL     1     141.874 130.007 101.211  0.00  0.00    +0.113 A 
ATOM      3  N3  UNL     1     143.014 130.203 101.844  0.00  0.00    -0.232 NA
ATOM      4  C14 UNL     1     143.301 129.021 102.474  0.00  0.00    +0.089 A 
ATOM      5  C15 UNL     1     144.399 128.688 103.282  0.00  0.00    +0.030 A 
ATOM      6  C16 UNL     1     144.469 127.402 103.831  0.00  0.00    +0.002 A 
ATOM      7  C17 UNL     1     143.465 126.466 103.581  0.00  0.00    +0.002 A 
ATOM      8  C18 UNL     1     142.363 126.781 102.777  0.00  0.00    +0.028 A 
ATOM      9  C19 UNL     1     142.311 128.072 102.235  0.00  0.00    +0.069 A 
ENDROOT
BRANCH   1  10
ATOM     10  C8  UNL     1     140.161 128.160 100.918  0.00  0.00    +0.158 C 
BRANCH  10  14
ATOM     11  C4  UNL     1     140.538 126.706  96.843  0.00  0.00    -0.045 A 
ATOM     12  C5  UNL     1     139.609 127.705  97.157  0.00  0.00    +0.004 A 
ATOM     13  C6  UNL     1     139.475 128.176  98.467  0.00  0.00    +0.005 A 
ATOM     14  C7  UNL     1     140.263 127.651  99.499  0.00  0.00    -0.028 A 
ATOM     15  C20 UNL     1     141.202 126.660  99.183  0.00  0.00    +0.005 A 
ATOM     16  C21 UNL     1     141.334 126.189  97.874  0.00  0.00    +0.004 A 
BRANCH  11  18
ATOM     17  C1  UNL     1     140.825 127.367  94.426  0.00  0.00    +0.012 C 
ATOM     18  C2  UNL     1     140.661 126.209  95.414  0.00  0.00    +0.013 C 
ATOM     19  C3  UNL     1     141.803 125.201  95.267  0.00  0.00    +0.012 C 
ENDBRANCH  11  18
ENDBRANCH  10  14
ENDBRANCH   1  10
BRANCH   2  20
ATOM     20  C10 UNL     1     141.164 131.044 100.406  0.00  0.00    +0.093 C 
BRANCH  20  21
ATOM     21  C11 UNL     1     141.916 131.330  99.106  0.00  0.00    +0.112 C 
BRANCH  21  22
ATOM     22  N2  UNL     1     142.975 130.368  98.856  0.00  0.00    -0.315 N 
ATOM     23  C12 UNL     1     143.082 129.719  97.648  0.00  0.00    +0.210 C 
ATOM     24  O1  UNL     1     142.315 129.908  96.709  0.00  0.00    -0.276 OA
ATOM     25  C13 UNL     1     144.208 128.725  97.582  0.00  0.00    +0.109 C 
ATOM     26  H16 UNL     1     143.574 130.099  99.626  0.00  0.00    +0.149 HD
ENDBRANCH  21  22
ENDBRANCH  20  21
ENDBRANCH   2  20
TORSDOF 6
ENDMDL
MODEL 5
REMARK VINA RESULT:    -3.287      2.877      6.158
REMARK INTER + INTRA:          -7.253
REMARK INTER:                  -4.232
REMARK INTRA:                  -3.021
REMARK UNBOUND:                -2.813
REMARK  Name = /home/vital/Documents/PhD_2021/Malaria_codes/data/pdb_ligands_mmv/ligand_146.pdb
REMARK  9 active torsions:
REMARK  status: ('A' for Active; 'I' for Inactive)
REMARK    1  A    between atoms: C1_1  and  C2_2
REMARK    2  A    between atoms: C2_2  and  C3_3
REMARK    3  A    between atoms: C2_2  and  C4_4
REMARK    4  A    between atoms: C7_7  and  C8_8
REMARK    5  A    between atoms: C8_8  and  N1_9
REMARK    6  A    between atoms: C9_10  and  C10_11
REMARK    7  A    between atoms: C10_11  and  C11_12
REMARK    8  A    between atoms: C11_12  and  N2_13
REMARK    9  A    between atoms: C12_14  and  C13_16
REMARK                            x       y       z     vdW  Elec       q    Type
REMARK                         _______ _______ _______ _____ _____    ______ ____
ROOT
ATOM      1  N1  UNL     1     141.792 128.770  99.719  0.00  0.00    -0.323 N 
ATOM      2  C9  UNL     1     142.731 128.232  98.861  0.00  0.00    +0.113 A 
ATOM      3  N3  UNL     1     142.150 127.670  97.820  0.00  0.00    -0.232 NA
ATOM      4  C14 UNL     1     140.803 127.842  98.005  0.00  0.00    +0.089 A 
ATOM      5  C15 UNL     1     139.735 127.433  97.192  0.00  0.00    +0.030 A 
ATOM      6  C16 UNL     1     138.427 127.718  97.600  0.00  0.00    +0.002 A 
ATOM      7  C17 UNL     1     138.187 128.395  98.796  0.00  0.00    +0.002 A 
ATOM      8  C18 UNL     1     139.240 128.810  99.620  0.00  0.00    +0.028 A 
ATOM      9  C19 UNL     1     140.543 128.519  99.193  0.00  0.00    +0.069 A 
ENDROOT
BRANCH   1  10
ATOM     10  C8  UNL     1     142.057 129.421 100.997  0.00  0.00    +0.158 C 
BRANCH  10  14
ATOM     11  C4  UNL     1     142.668 126.579 104.225  0.00  0.00    -0.045 A 
ATOM     12  C5  UNL     1     141.464 126.593 103.510  0.00  0.00    +0.004 A 
ATOM     13  C6  UNL     1     141.255 127.509 102.473  0.00  0.00    +0.005 A 
ATOM     14  C7  UNL     1     142.244 128.441 102.131  0.00  0.00    -0.028 A 
ATOM     15  C20 UNL     1     143.454 128.418 102.838  0.00  0.00    +0.005 A 
ATOM     16  C21 UNL     1     143.661 127.504 103.875  0.00  0.00    +0.004 A 
BRANCH  11  18
ATOM     17  C1  UNL     1     142.019 124.322 105.144  0.00  0.00    +0.012 C 
ATOM     18  C2  UNL     1     142.869 125.579 105.348  0.00  0.00    +0.013 C 
ATOM     19  C3  UNL     1     144.346 125.215 105.518  0.00  0.00    +0.012 C 
ENDBRANCH  11  18
ENDBRANCH  10  14
ENDBRANCH   1  10
BRANCH   2  20
ATOM     20  C10 UNL     1     144.205 128.262  99.094  0.00  0.00    +0.093 C 
BRANCH  20  21
ATOM     21  C11 UNL     1     144.722 126.874  99.476  0.00  0.00    +0.112 C 
BRANCH  21  22
ATOM     22  N2  UNL     1     143.646 125.917  99.666  0.00  0.00    -0.315 N 
ATOM     23  C12 UNL     1     143.657 125.028 100.716  0.00  0.00    +0.210 C 
ATOM     24  O1  UNL     1     144.550 124.985 101.556  0.00  0.00    -0.276 OA
ATOM     25  C13 UNL     1     142.489 124.081 100.731  0.00  0.00    +0.109 C 
ATOM     26  H16 UNL     1     142.936 125.840  98.949  0.00  0.00    +0.149 HD
ENDBRANCH  21  22
ENDBRANCH  20  21
ENDBRANCH   2  20
TORSDOF 6
ENDMDL
MODEL 6
REMARK VINA RESULT:    -3.154      1.640      2.917
REMARK INTER + INTRA:          -7.074
REMARK INTER:                  -4.213
REMARK INTRA:                  -2.860
REMARK UNBOUND:                -2.813
REMARK  Name = /home/vital/Documents/PhD_2021/Malaria_codes/data/pdb_ligands_mmv/ligand_146.pdb
REMARK  9 active torsions:
REMARK  status: ('A' for Active; 'I' for Inactive)
REMARK    1  A    between atoms: C1_1  and  C2_2
REMARK    2  A    between atoms: C2_2  and  C3_3
REMARK    3  A    between atoms: C2_2  and  C4_4
REMARK    4  A    between atoms: C7_7  and  C8_8
REMARK    5  A    between atoms: C8_8  and  N1_9
REMARK    6  A    between atoms: C9_10  and  C10_11
REMARK    7  A    between atoms: C10_11  and  C11_12
REMARK    8  A    between atoms: C11_12  and  N2_13
REMARK    9  A    between atoms: C12_14  and  C13_16
REMARK                            x       y       z     vdW  Elec       q    Type
REMARK                         _______ _______ _______ _____ _____    ______ ____
ROOT
ATOM      1  N1  UNL     1     141.805 129.480 101.642  0.00  0.00    -0.323 N 
ATOM      2  C9  UNL     1     140.528 129.011 101.403  0.00  0.00    +0.113 A 
ATOM      3  N3  UNL     1     140.336 127.848 101.992  0.00  0.00    -0.232 NA
ATOM      4  C14 UNL     1     141.514 127.550 102.626  0.00  0.00    +0.089 A 
ATOM      5  C15 UNL     1     141.848 126.428 103.400  0.00  0.00    +0.030 A 
ATOM      6  C16 UNL     1     143.135 126.340 103.943  0.00  0.00    +0.002 A 
ATOM      7  C17 UNL     1     144.072 127.350 103.720  0.00  0.00    +0.002 A 
ATOM      8  C18 UNL     1     143.756 128.477 102.951  0.00  0.00    +0.028 A 
ATOM      9  C19 UNL     1     142.462 128.548 102.418  0.00  0.00    +0.069 A 
ENDROOT
BRANCH   1  10
ATOM     10  C8  UNL     1     142.394 130.704 101.109  0.00  0.00    +0.158 C 
BRANCH  10  14
ATOM     11  C4  UNL     1     143.615 130.306  96.960  0.00  0.00    -0.045 A 
ATOM     12  C5  UNL     1     144.095 129.417  97.929  0.00  0.00    +0.004 A 
ATOM     13  C6  UNL     1     143.713 129.540  99.269  0.00  0.00    +0.005 A 
ATOM     14  C7  UNL     1     142.847 130.564  99.675  0.00  0.00    -0.028 A 
ATOM     15  C20 UNL     1     142.356 131.446  98.702  0.00  0.00    +0.005 A 
ATOM     16  C21 UNL     1     142.740 131.323  97.364  0.00  0.00    +0.004 A 
BRANCH  11  18
ATOM     17  C1  UNL     1     143.148 129.175  94.754  0.00  0.00    +0.012 C 
ATOM     18  C2  UNL     1     144.048 130.153  95.513  0.00  0.00    +0.013 C 
ATOM     19  C3  UNL     1     144.107 131.506  94.800  0.00  0.00    +0.012 C 
ENDBRANCH  11  18
ENDBRANCH  10  14
ENDBRANCH   1  10
BRANCH   2  20
ATOM     20  C10 UNL     1     139.511 129.715 100.569  0.00  0.00    +0.093 C 
BRANCH  20  21
ATOM     21  C11 UNL     1     139.058 128.833  99.405  0.00  0.00    +0.112 C 
BRANCH  21  22
ATOM     22  N2  UNL     1     139.970 127.729  99.162  0.00  0.00    -0.315 N 
ATOM     23  C12 UNL     1     140.652 127.613  97.974  0.00  0.00    +0.210 C 
ATOM     24  O1  UNL     1     140.552 128.421  97.055  0.00  0.00    -0.276 OA
ATOM     25  C13 UNL     1     141.516 126.385  97.877  0.00  0.00    +0.109 C 
ATOM     26  H16 UNL     1     140.015 126.982  99.843  0.00  0.00    +0.149 HD
ENDBRANCH  21  22
ENDBRANCH  20  21
ENDBRANCH   2  20
TORSDOF 6
ENDMDL
MODEL 7
REMARK VINA RESULT:    -3.058      3.703      7.477
REMARK INTER + INTRA:          -6.943
REMARK INTER:                  -4.188
REMARK INTRA:                  -2.755
REMARK UNBOUND:                -2.813
REMARK  Name = /home/vital/Documents/PhD_2021/Malaria_codes/data/pdb_ligands_mmv/ligand_146.pdb
REMARK  9 active torsions:
REMARK  status: ('A' for Active; 'I' for Inactive)
REMARK    1  A    between atoms: C1_1  and  C2_2
REMARK    2  A    between atoms: C2_2  and  C3_3
REMARK    3  A    between atoms: C2_2  and  C4_4
REMARK    4  A    between atoms: C7_7  and  C8_8
REMARK    5  A    between atoms: C8_8  and  N1_9
REMARK    6  A    between atoms: C9_10  and  C10_11
REMARK    7  A    between atoms: C10_11  and  C11_12
REMARK    8  A    between atoms: C11_12  and  N2_13
REMARK    9  A    between atoms: C12_14  and  C13_16
REMARK                            x       y       z     vdW  Elec       q    Type
REMARK                         _______ _______ _______ _____ _____    ______ ____
ROOT
ATOM      1  N1  UNL     1     142.303 127.302 101.618  0.00  0.00    -0.323 N 
ATOM      2  C9  UNL     1     142.620 126.221 100.818  0.00  0.00    +0.113 A 
ATOM      3  N3  UNL     1     141.771 126.110  99.817  0.00  0.00    -0.232 NA
ATOM      4  C14 UNL     1     140.878 127.139  99.968  0.00  0.00    +0.089 A 
ATOM      5  C15 UNL     1     139.772 127.480  99.174  0.00  0.00    +0.030 A 
ATOM      6  C16 UNL     1     138.991 128.583  99.539  0.00  0.00    +0.002 A 
ATOM      7  C17 UNL     1     139.305 129.331 100.675  0.00  0.00    +0.002 A 
ATOM      8  C18 UNL     1     140.404 129.006 101.478  0.00  0.00    +0.028 A 
ATOM      9  C19 UNL     1     141.175 127.900 101.095  0.00  0.00    +0.069 A 
ENDROOT
BRANCH   1  10
ATOM     10  C8  UNL     1     142.982 127.703 102.844  0.00  0.00    +0.158 C 
BRANCH  10  14
ATOM     11  C4  UNL     1     141.887 125.309 106.298  0.00  0.00    -0.045 A 
ATOM     12  C5  UNL     1     143.176 125.225 105.756  0.00  0.00    +0.004 A 
ATOM     13  C6  UNL     1     143.536 125.988 104.640  0.00  0.00    +0.005 A 
ATOM     14  C7  UNL     1     142.612 126.846 104.032  0.00  0.00    -0.028 A 
ATOM     15  C20 UNL     1     141.326 126.940 104.582  0.00  0.00    +0.005 A 
ATOM     16  C21 UNL     1     140.966 126.177 105.696  0.00  0.00    +0.004 A 
BRANCH  11  18
ATOM     17  C1  UNL     1     141.711 122.974 107.236  0.00  0.00    +0.012 C 
ATOM     18  C2  UNL     1     141.519 124.468 107.507  0.00  0.00    +0.013 C 
ATOM     19  C3  UNL     1     142.300 124.901 108.750  0.00  0.00    +0.012 C 
ENDBRANCH  11  18
ENDBRANCH  10  14
ENDBRANCH   1  10
BRANCH   2  20
ATOM     20  C10 UNL     1     143.758 125.289 101.069  0.00  0.00    +0.093 C 
BRANCH  20  21
ATOM     21  C11 UNL     1     143.263 123.846 101.179  0.00  0.00    +0.112 C 
BRANCH  21  22
ATOM     22  N2  UNL     1     141.968 123.754 101.830  0.00  0.00    -0.315 N 
ATOM     23  C12 UNL     1     141.796 123.022 102.982  0.00  0.00    +0.210 C 
ATOM     24  O1  UNL     1     142.706 122.414 103.538  0.00  0.00    -0.276 OA
ATOM     25  C13 UNL     1     140.382 122.999 103.491  0.00  0.00    +0.109 C 
ATOM     26  H16 UNL     1     141.164 124.152 101.363  0.00  0.00    +0.149 HD
ENDBRANCH  21  22
ENDBRANCH  20  21
ENDBRANCH   2  20
TORSDOF 6
ENDMDL
MODEL 8
REMARK VINA RESULT:    -2.974      2.403      3.732
REMARK INTER + INTRA:          -6.830
REMARK INTER:                  -3.827
REMARK INTRA:                  -3.002
REMARK UNBOUND:                -2.813
REMARK  Name = /home/vital/Documents/PhD_2021/Malaria_codes/data/pdb_ligands_mmv/ligand_146.pdb
REMARK  9 active torsions:
REMARK  status: ('A' for Active; 'I' for Inactive)
REMARK    1  A    between atoms: C1_1  and  C2_2
REMARK    2  A    between atoms: C2_2  and  C3_3
REMARK    3  A    between atoms: C2_2  and  C4_4
REMARK    4  A    between atoms: C7_7  and  C8_8
REMARK    5  A    between atoms: C8_8  and  N1_9
REMARK    6  A    between atoms: C9_10  and  C10_11
REMARK    7  A    between atoms: C10_11  and  C11_12
REMARK    8  A    between atoms: C11_12  and  N2_13
REMARK    9  A    between atoms: C12_14  and  C13_16
REMARK                            x       y       z     vdW  Elec       q    Type
REMARK                         _______ _______ _______ _____ _____    ______ ____
ROOT
ATOM      1  N1  UNL     1     141.797 129.009  99.672  0.00  0.00    -0.323 N 
ATOM      2  C9  UNL     1     142.636 127.950  99.383  0.00  0.00    +0.113 A 
ATOM      3  N3  UNL     1     142.006 127.028  98.683  0.00  0.00    -0.232 NA
ATOM      4  C14 UNL     1     140.728 127.493  98.515  0.00  0.00    +0.089 A 
ATOM      5  C15 UNL     1     139.647 126.901  97.844  0.00  0.00    +0.030 A 
ATOM      6  C16 UNL     1     138.419 127.572  97.815  0.00  0.00    +0.002 A 
ATOM      7  C17 UNL     1     138.270 128.809  98.444  0.00  0.00    +0.002 A 
ATOM      8  C18 UNL     1     139.337 129.415  99.117  0.00  0.00    +0.028 A 
ATOM      9  C19 UNL     1     140.559 128.729  99.133  0.00  0.00    +0.069 A 
ENDROOT
BRANCH   1  10
ATOM     10  C8  UNL     1     142.127 130.182 100.472  0.00  0.00    +0.158 C 
BRANCH  10  14
ATOM     11  C4  UNL     1     144.247 133.280  98.287  0.00  0.00    -0.045 A 
ATOM     12  C5  UNL     1     142.920 132.966  97.966  0.00  0.00    +0.004 A 
ATOM     13  C6  UNL     1     142.231 131.966  98.660  0.00  0.00    +0.005 A 
ATOM     14  C7  UNL     1     142.856 131.247  99.686  0.00  0.00    -0.028 A 
ATOM     15  C20 UNL     1     144.180 131.570 100.016  0.00  0.00    +0.005 A 
ATOM     16  C21 UNL     1     144.867 132.569  99.322  0.00  0.00    +0.004 A 
BRANCH  11  18
ATOM     17  C1  UNL     1     146.105 134.985  98.343  0.00  0.00    +0.012 C 
ATOM     18  C2  UNL     1     144.974 134.367  97.516  0.00  0.00    +0.013 C 
ATOM     19  C3  UNL     1     145.500 133.848  96.176  0.00  0.00    +0.012 C 
ENDBRANCH  11  18
ENDBRANCH  10  14
ENDBRANCH   1  10
BRANCH   2  20
ATOM     20  C10 UNL     1     144.058 127.852  99.825  0.00  0.00    +0.093 C 
BRANCH  20  21
ATOM     21  C11 UNL     1     145.008 128.075  98.648  0.00  0.00    +0.112 C 
BRANCH  21  22
ATOM     22  N2  UNL     1     144.319 128.557  97.464  0.00  0.00    -0.315 N 
ATOM     23  C12 UNL     1     144.816 129.604  96.723  0.00  0.00    +0.210 C 
ATOM     24  O1  UNL     1     145.860 130.189  96.995  0.00  0.00    -0.276 OA
ATOM     25  C13 UNL     1     143.950 129.999  95.559  0.00  0.00    +0.109 C 
ATOM     26  H16 UNL     1     143.406 128.178  97.250  0.00  0.00    +0.149 HD
ENDBRANCH  21  22
ENDBRANCH  20  21
ENDBRANCH   2  20
TORSDOF 6
ENDMDL
MODEL 9
REMARK VINA RESULT:    -2.841      4.516      7.129
REMARK INTER + INTRA:          -6.651
REMARK INTER:                  -4.196
REMARK INTRA:                  -2.454
REMARK UNBOUND:                -2.813
REMARK  Name = /home/vital/Documents/PhD_2021/Malaria_codes/data/pdb_ligands_mmv/ligand_146.pdb
REMARK  9 active torsions:
REMARK  status: ('A' for Active; 'I' for Inactive)
REMARK    1  A    between atoms: C1_1  and  C2_2
REMARK    2  A    between atoms: C2_2  and  C3_3
REMARK    3  A    between atoms: C2_2  and  C4_4
REMARK    4  A    between atoms: C7_7  and  C8_8
REMARK    5  A    between atoms: C8_8  and  N1_9
REMARK    6  A    between atoms: C9_10  and  C10_11
REMARK    7  A    between atoms: C10_11  and  C11_12
REMARK    8  A    between atoms: C11_12  and  N2_13
REMARK    9  A    between atoms: C12_14  and  C13_16
REMARK                            x       y       z     vdW  Elec       q    Type
REMARK                         _______ _______ _______ _____ _____    ______ ____
ROOT
ATOM      1  N1  UNL     1     143.921 131.698  96.151  0.00  0.00    -0.323 N 
ATOM      2  C9  UNL     1     144.174 130.340  96.123  0.00  0.00    +0.113 A 
ATOM      3  N3  UNL     1     143.653 129.742  97.175  0.00  0.00    -0.232 NA
ATOM      4  C14 UNL     1     143.050 130.732  97.908  0.00  0.00    +0.089 A 
ATOM      5  C15 UNL     1     142.348 130.639  99.120  0.00  0.00    +0.030 A 
ATOM      6  C16 UNL     1     141.825 131.805  99.689  0.00  0.00    +0.002 A 
ATOM      7  C17 UNL     1     141.998 133.041  99.065  0.00  0.00    +0.002 A 
ATOM      8  C18 UNL     1     142.695 133.153  97.856  0.00  0.00    +0.028 A 
ATOM      9  C19 UNL     1     143.210 131.974  97.300  0.00  0.00    +0.069 A 
ENDROOT
BRANCH   1  10
ATOM     10  C8  UNL     1     144.388 132.687  95.186  0.00  0.00    +0.158 C 
BRANCH  10  14
ATOM     11  C4  UNL     1     142.076 132.578  91.511  0.00  0.00    -0.045 A 
ATOM     12  C5  UNL     1     143.476 132.615  91.468  0.00  0.00    +0.004 A 
ATOM     13  C6  UNL     1     144.229 132.657  92.647  0.00  0.00    +0.005 A 
ATOM     14  C7  UNL     1     143.600 132.672  93.898  0.00  0.00    -0.028 A 
ATOM     15  C20 UNL     1     142.199 132.622  93.941  0.00  0.00    +0.005 A 
ATOM     16  C21 UNL     1     141.448 132.581  92.763  0.00  0.00    +0.004 A 
BRANCH  11  18
ATOM     17  C1  UNL     1     141.690 133.665  89.268  0.00  0.00    +0.012 C 
ATOM     18  C2  UNL     1     141.282 132.537  90.218  0.00  0.00    +0.013 C 
ATOM     19  C3  UNL     1     141.401 131.175  89.530  0.00  0.00    +0.012 C 
ENDBRANCH  11  18
ENDBRANCH  10  14
ENDBRANCH   1  10
BRANCH   2  20
ATOM     20  C10 UNL     1     144.954 129.647  95.056  0.00  0.00    +0.093 C 
BRANCH  20  21
ATOM     21  C11 UNL     1     144.260 128.352  94.632  0.00  0.00    +0.112 C 
BRANCH  21  22
ATOM     22  N2  UNL     1     142.854 128.551  94.328  0.00  0.00    -0.315 N 
ATOM     23  C12 UNL     1     142.418 128.719  93.035  0.00  0.00    +0.210 C 
ATOM     24  O1  UNL     1     143.166 128.703  92.062  0.00  0.00    -0.276 OA
ATOM     25  C13 UNL     1     140.939 128.959  92.910  0.00  0.00    +0.109 C 
ATOM     26  H16 UNL     1     142.207 128.673  95.097  0.00  0.00    +0.149 HD
ENDBRANCH  21  22
ENDBRANCH  20  21
ENDBRANCH   2  20
TORSDOF 6
ENDMDL
