MODEL 1
REMARK VINA RESULT:    -5.120      0.000      0.000
REMARK INTER + INTRA:          -7.744
REMARK INTER:                  -6.616
REMARK INTRA:                  -1.128
REMARK UNBOUND:                -1.128
REMARK  Name = /home/vital/Documents/PhD_2021/Malaria_codes/data/pdb_ligands_mmv/ligand_107.pdb
REMARK  6 active torsions:
REMARK  status: ('A' for Active; 'I' for Inactive)
REMARK    1  A    between atoms: C1_1  and  O1_2
REMARK    2  A    between atoms: O1_2  and  C2_3
REMARK    3  A    between atoms: C5_6  and  C8_9
REMARK    4  A    between atoms: N1_11  and  C9_12
REMARK    5  A    between atoms: C14_18  and  C15_19
REMARK    6  A    between atoms: N2_21  and  C16_22
REMARK                            x       y       z     vdW  Elec       q    Type
REMARK                         _______ _______ _______ _____ _____    ______ ____
ROOT
ATOM      1  C9  UNL     1     142.710 126.764 103.361  0.00  0.00    +0.046 A 
ATOM      2  C10 UNL     1     143.920 126.751 104.067  0.00  0.00    +0.025 A 
ATOM      3  C11 UNL     1     144.967 127.611 103.714  0.00  0.00    +0.022 A 
ATOM      4  C12 UNL     1     144.816 128.488 102.648  0.00  0.00    +0.042 A 
ATOM      5 CL1  UNL     1     146.112 129.527 102.203  0.00  0.00    -0.084 Cl
ATOM      6  C13 UNL     1     143.621 128.535 101.938  0.00  0.00    +0.035 A 
ATOM      7  C14 UNL     1     142.555 127.695 102.306  0.00  0.00    +0.060 A 
ENDROOT
BRANCH   1  10
ATOM      8  C8  UNL     1     140.778 125.907 104.737  0.00  0.00    +0.248 C 
ATOM      9  O2  UNL     1     140.773 126.737 105.641  0.00  0.00    -0.270 OA
ATOM     10  N1  UNL     1     141.646 125.876 103.663  0.00  0.00    -0.281 N 
ATOM     11  H8  UNL     1     141.599 125.061 103.050  0.00  0.00    +0.155 HD
BRANCH   8  15
ATOM     12  C2  UNL     1     137.977 122.638 104.850  0.00  0.00    +0.120 A 
ATOM     13  C3  UNL     1     137.564 123.919 105.229  0.00  0.00    +0.046 A 
ATOM     14  C4  UNL     1     138.455 124.997 105.202  0.00  0.00    +0.016 A 
ATOM     15  C5  UNL     1     139.776 124.801 104.784  0.00  0.00    +0.037 A 
ATOM     16  C6  UNL     1     140.192 123.514 104.418  0.00  0.00    +0.016 A 
ATOM     17  C7  UNL     1     139.297 122.438 104.447  0.00  0.00    +0.046 A 
BRANCH  12  19
ATOM     18  C1  UNL     1     136.463 121.412 106.212  0.00  0.00    +0.277 C 
ATOM     19  O1  UNL     1     137.003 121.681 104.924  0.00  0.00    -0.495 OA
ENDBRANCH  12  19
ENDBRANCH   8  15
ENDBRANCH   1  10
BRANCH   7  20
ATOM     20  C15 UNL     1     141.256 127.796 101.566  0.00  0.00    +0.250 C 
ATOM     21  O3  UNL     1     140.234 128.008 102.211  0.00  0.00    -0.270 OA
ATOM     22  N2  UNL     1     141.346 127.709 100.188  0.00  0.00    -0.281 N 
ATOM     23  H12 UNL     1     142.273 127.710  99.780  0.00  0.00    +0.155 HD
BRANCH  22  24
ATOM     24  C16 UNL     1     140.278 127.729  99.263  0.00  0.00    +0.037 A 
ATOM     25  C17 UNL     1     140.049 126.567  98.522  0.00  0.00    +0.043 A 
ATOM     26  C18 UNL     1     139.005 126.555  97.611  0.00  0.00    +0.112 A 
ATOM     27  N3  UNL     1     138.187 127.604  97.396  0.00  0.00    -0.263 NA
ATOM     28  C19 UNL     1     138.424 128.712  98.128  0.00  0.00    +0.112 A 
ATOM     29  C20 UNL     1     139.443 128.822  99.062  0.00  0.00    +0.043 A 
ENDBRANCH  22  24
ENDBRANCH   7  20
TORSDOF 5
ENDMDL
MODEL 2
REMARK VINA RESULT:    -4.737      4.988      6.955
REMARK INTER + INTRA:          -7.249
REMARK INTER:                  -6.055
REMARK INTRA:                  -1.194
REMARK UNBOUND:                -1.128
REMARK  Name = /home/vital/Documents/PhD_2021/Malaria_codes/data/pdb_ligands_mmv/ligand_107.pdb
REMARK  6 active torsions:
REMARK  status: ('A' for Active; 'I' for Inactive)
REMARK    1  A    between atoms: C1_1  and  O1_2
REMARK    2  A    between atoms: O1_2  and  C2_3
REMARK    3  A    between atoms: C5_6  and  C8_9
REMARK    4  A    between atoms: N1_11  and  C9_12
REMARK    5  A    between atoms: C14_18  and  C15_19
REMARK    6  A    between atoms: N2_21  and  C16_22
REMARK                            x       y       z     vdW  Elec       q    Type
REMARK                         _______ _______ _______ _____ _____    ______ ____
ROOT
ATOM      1  C9  UNL     1     145.923 131.598 100.746  0.00  0.00    +0.046 A 
ATOM      2  C10 UNL     1     146.999 132.227 100.108  0.00  0.00    +0.025 A 
ATOM      3  C11 UNL     1     146.794 133.044  98.990  0.00  0.00    +0.022 A 
ATOM      4  C12 UNL     1     145.510 133.235  98.496  0.00  0.00    +0.042 A 
ATOM      5 CL1  UNL     1     145.263 134.221  97.108  0.00  0.00    -0.084 Cl
ATOM      6  C13 UNL     1     144.420 132.637  99.118  0.00  0.00    +0.035 A 
ATOM      7  C14 UNL     1     144.615 131.839 100.259  0.00  0.00    +0.060 A 
ENDROOT
BRANCH   1  10
ATOM      8  C8  UNL     1     146.316 129.366 101.852  0.00  0.00    +0.248 C 
ATOM      9  O2  UNL     1     146.401 128.646 100.862  0.00  0.00    -0.270 OA
ATOM     10  N1  UNL     1     146.100 130.730 101.854  0.00  0.00    -0.281 N 
ATOM     11  H8  UNL     1     145.942 131.176 102.759  0.00  0.00    +0.155 HD
BRANCH   8  15
ATOM     12  C2  UNL     1     146.598 127.443 105.696  0.00  0.00    +0.120 A 
ATOM     13  C3  UNL     1     147.273 128.646 105.470  0.00  0.00    +0.046 A 
ATOM     14  C4  UNL     1     147.199 129.289 104.231  0.00  0.00    +0.016 A 
ATOM     15  C5  UNL     1     146.433 128.733 103.200  0.00  0.00    +0.037 A 
ATOM     16  C6  UNL     1     145.768 127.520 103.423  0.00  0.00    +0.016 A 
ATOM     17  C7  UNL     1     145.847 126.879 104.665  0.00  0.00    +0.046 A 
BRANCH  12  19
ATOM     18  C1  UNL     1     146.041 125.735 107.253  0.00  0.00    +0.277 C 
ATOM     19  O1  UNL     1     146.758 126.926 106.952  0.00  0.00    -0.495 OA
ENDBRANCH  12  19
ENDBRANCH   8  15
ENDBRANCH   1  10
BRANCH   7  20
ATOM     20  C15 UNL     1     143.425 131.246 100.950  0.00  0.00    +0.250 C 
ATOM     21  O3  UNL     1     143.302 131.429 102.157  0.00  0.00    -0.270 OA
ATOM     22  N2  UNL     1     142.523 130.593 100.128  0.00  0.00    -0.281 N 
ATOM     23  H12 UNL     1     142.663 130.668  99.128  0.00  0.00    +0.155 HD
BRANCH  22  24
ATOM     24  C16 UNL     1     141.350 129.912 100.525  0.00  0.00    +0.037 A 
ATOM     25  C17 UNL     1     140.231 130.688 100.833  0.00  0.00    +0.043 A 
ATOM     26  C18 UNL     1     139.065 130.049 101.219  0.00  0.00    +0.112 A 
ATOM     27  N3  UNL     1     138.942 128.710 101.316  0.00  0.00    -0.263 NA
ATOM     28  C19 UNL     1     140.034 127.981 101.008  0.00  0.00    +0.112 A 
ATOM     29  C20 UNL     1     141.245 128.528 100.612  0.00  0.00    +0.043 A 
ENDBRANCH  22  24
ENDBRANCH   7  20
TORSDOF 5
ENDMDL
MODEL 3
REMARK VINA RESULT:    -4.630      4.216      8.128
REMARK INTER + INTRA:          -7.110
REMARK INTER:                  -5.986
REMARK INTRA:                  -1.124
REMARK UNBOUND:                -1.128
REMARK  Name = /home/vital/Documents/PhD_2021/Malaria_codes/data/pdb_ligands_mmv/ligand_107.pdb
REMARK  6 active torsions:
REMARK  status: ('A' for Active; 'I' for Inactive)
REMARK    1  A    between atoms: C1_1  and  O1_2
REMARK    2  A    between atoms: O1_2  and  C2_3
REMARK    3  A    between atoms: C5_6  and  C8_9
REMARK    4  A    between atoms: N1_11  and  C9_12
REMARK    5  A    between atoms: C14_18  and  C15_19
REMARK    6  A    between atoms: N2_21  and  C16_22
REMARK                            x       y       z     vdW  Elec       q    Type
REMARK                         _______ _______ _______ _____ _____    ______ ____
ROOT
ATOM      1  C9  UNL     1     144.028 128.655 102.027  0.00  0.00    +0.046 A 
ATOM      2  C10 UNL     1     144.770 128.570 103.212  0.00  0.00    +0.025 A 
ATOM      3  C11 UNL     1     144.509 127.567 104.153  0.00  0.00    +0.022 A 
ATOM      4  C12 UNL     1     143.498 126.642 103.921  0.00  0.00    +0.042 A 
ATOM      5 CL1  UNL     1     143.164 125.425 105.089  0.00  0.00    -0.084 Cl
ATOM      6  C13 UNL     1     142.755 126.692 102.746  0.00  0.00    +0.035 A 
ATOM      7  C14 UNL     1     143.032 127.678 101.783  0.00  0.00    +0.060 A 
ENDROOT
BRANCH   1  10
ATOM      8  C8  UNL     1     143.792 130.990 101.105  0.00  0.00    +0.248 C 
ATOM      9  O2  UNL     1     143.124 131.507 101.994  0.00  0.00    -0.270 OA
ATOM     10  N1  UNL     1     144.237 129.683 101.073  0.00  0.00    -0.281 N 
ATOM     11  H8  UNL     1     144.690 129.366 100.215  0.00  0.00    +0.155 HD
BRANCH   8  15
ATOM     12  C2  UNL     1     144.969 133.347  97.697  0.00  0.00    +0.120 A 
ATOM     13  C3  UNL     1     143.618 133.256  98.046  0.00  0.00    +0.046 A 
ATOM     14  C4  UNL     1     143.210 132.497  99.147  0.00  0.00    +0.016 A 
ATOM     15  C5  UNL     1     144.161 131.822  99.921  0.00  0.00    +0.037 A 
ATOM     16  C6  UNL     1     145.513 131.902  99.562  0.00  0.00    +0.016 A 
ATOM     17  C7  UNL     1     145.916 132.663  98.458  0.00  0.00    +0.046 A 
BRANCH  12  19
ATOM     18  C1  UNL     1     145.981 135.308  96.815  0.00  0.00    +0.277 C 
ATOM     19  O1  UNL     1     145.223 134.123  96.601  0.00  0.00    -0.495 OA
ENDBRANCH  12  19
ENDBRANCH   8  15
ENDBRANCH   1  10
BRANCH   7  20
ATOM     20  C15 UNL     1     142.260 127.684 100.499  0.00  0.00    +0.250 C 
ATOM     21  O3  UNL     1     142.875 127.850  99.450  0.00  0.00    -0.270 OA
ATOM     22  N2  UNL     1     140.905 127.427 100.617  0.00  0.00    -0.281 N 
ATOM     23  H12 UNL     1     140.563 127.135 101.525  0.00  0.00    +0.155 HD
BRANCH  22  24
ATOM     24  C16 UNL     1     139.947 127.418  99.578  0.00  0.00    +0.037 A 
ATOM     25  C17 UNL     1     138.947 128.392  99.619  0.00  0.00    +0.043 A 
ATOM     26  C18 UNL     1     137.997 128.412  98.611  0.00  0.00    +0.112 A 
ATOM     27  N3  UNL     1     137.981 127.543  97.581  0.00  0.00    -0.263 NA
ATOM     28  C19 UNL     1     138.960 126.616  97.559  0.00  0.00    +0.112 A 
ATOM     29  C20 UNL     1     139.953 126.514  98.521  0.00  0.00    +0.043 A 
ENDBRANCH  22  24
ENDBRANCH   7  20
TORSDOF 5
ENDMDL
MODEL 4
REMARK VINA RESULT:    -4.539      3.686      7.193
REMARK INTER + INTRA:          -6.993
REMARK INTER:                  -5.621
REMARK INTRA:                  -1.372
REMARK UNBOUND:                -1.128
REMARK  Name = /home/vital/Documents/PhD_2021/Malaria_codes/data/pdb_ligands_mmv/ligand_107.pdb
REMARK  6 active torsions:
REMARK  status: ('A' for Active; 'I' for Inactive)
REMARK    1  A    between atoms: C1_1  and  O1_2
REMARK    2  A    between atoms: O1_2  and  C2_3
REMARK    3  A    between atoms: C5_6  and  C8_9
REMARK    4  A    between atoms: N1_11  and  C9_12
REMARK    5  A    between atoms: C14_18  and  C15_19
REMARK    6  A    between atoms: N2_21  and  C16_22
REMARK                            x       y       z     vdW  Elec       q    Type
REMARK                         _______ _______ _______ _____ _____    ______ ____
ROOT
ATOM      1  C9  UNL     1     142.130 127.442 102.868  0.00  0.00    +0.046 A 
ATOM      2  C10 UNL     1     142.019 127.446 104.264  0.00  0.00    +0.025 A 
ATOM      3  C11 UNL     1     141.880 126.249 104.978  0.00  0.00    +0.022 A 
ATOM      4  C12 UNL     1     141.843 125.037 104.301  0.00  0.00    +0.042 A 
ATOM      5 CL1  UNL     1     141.648 123.570 105.177  0.00  0.00    -0.084 Cl
ATOM      6  C13 UNL     1     141.966 125.000 102.916  0.00  0.00    +0.035 A 
ATOM      7  C14 UNL     1     142.137 126.196 102.195  0.00  0.00    +0.060 A 
ENDROOT
BRANCH   1  10
ATOM      8  C8  UNL     1     141.274 129.230 101.310  0.00  0.00    +0.248 C 
ATOM      9  O2  UNL     1     140.136 128.817 101.111  0.00  0.00    -0.270 OA
ATOM     10  N1  UNL     1     142.229 128.637 102.112  0.00  0.00    -0.281 N 
ATOM     11  H8  UNL     1     143.168 129.039 102.093  0.00  0.00    +0.155 HD
BRANCH   8  15
ATOM     12  C2  UNL     1     142.630 132.799  99.317  0.00  0.00    +0.120 A 
ATOM     13  C3  UNL     1     141.260 132.544  99.428  0.00  0.00    +0.046 A 
ATOM     14  C4  UNL     1     140.794 131.392 100.070  0.00  0.00    +0.016 A 
ATOM     15  C5  UNL     1     141.704 130.482 100.618  0.00  0.00    +0.037 A 
ATOM     16  C6  UNL     1     143.078 130.731 100.493  0.00  0.00    +0.016 A 
ATOM     17  C7  UNL     1     143.539 131.886  99.849  0.00  0.00    +0.046 A 
BRANCH  12  19
ATOM     18  C1  UNL     1     144.325 134.250  98.497  0.00  0.00    +0.277 C 
ATOM     19  O1  UNL     1     142.942 133.962  98.668  0.00  0.00    -0.495 OA
ENDBRANCH  12  19
ENDBRANCH   8  15
ENDBRANCH   1  10
BRANCH   7  20
ATOM     20  C15 UNL     1     142.323 126.135 100.710  0.00  0.00    +0.250 C 
ATOM     21  O3  UNL     1     143.463 126.217 100.262  0.00  0.00    -0.270 OA
ATOM     22  N2  UNL     1     141.172 125.916  99.973  0.00  0.00    -0.281 N 
ATOM     23  H12 UNL     1     140.327 125.693 100.484  0.00  0.00    +0.155 HD
BRANCH  22  24
ATOM     24  C16 UNL     1     141.061 125.861  98.565  0.00  0.00    +0.037 A 
ATOM     25  C17 UNL     1     140.718 127.040  97.902  0.00  0.00    +0.043 A 
ATOM     26  C18 UNL     1     140.608 127.018  96.522  0.00  0.00    +0.112 A 
ATOM     27  N3  UNL     1     140.815 125.918  95.772  0.00  0.00    -0.263 NA
ATOM     28  C19 UNL     1     141.152 124.792  96.434  0.00  0.00    +0.112 A 
ATOM     29  C20 UNL     1     141.286 124.714  97.812  0.00  0.00    +0.043 A 
ENDBRANCH  22  24
ENDBRANCH   7  20
TORSDOF 5
ENDMDL
MODEL 5
REMARK VINA RESULT:    -4.504      1.026      1.539
REMARK INTER + INTRA:          -6.949
REMARK INTER:                  -5.805
REMARK INTRA:                  -1.143
REMARK UNBOUND:                -1.128
REMARK  Name = /home/vital/Documents/PhD_2021/Malaria_codes/data/pdb_ligands_mmv/ligand_107.pdb
REMARK  6 active torsions:
REMARK  status: ('A' for Active; 'I' for Inactive)
REMARK    1  A    between atoms: C1_1  and  O1_2
REMARK    2  A    between atoms: O1_2  and  C2_3
REMARK    3  A    between atoms: C5_6  and  C8_9
REMARK    4  A    between atoms: N1_11  and  C9_12
REMARK    5  A    between atoms: C14_18  and  C15_19
REMARK    6  A    between atoms: N2_21  and  C16_22
REMARK                            x       y       z     vdW  Elec       q    Type
REMARK                         _______ _______ _______ _____ _____    ______ ____
ROOT
ATOM      1  C9  UNL     1     143.255 126.950 103.226  0.00  0.00    +0.046 A 
ATOM      2  C10 UNL     1     144.265 127.393 104.089  0.00  0.00    +0.025 A 
ATOM      3  C11 UNL     1     145.260 128.270 103.640  0.00  0.00    +0.022 A 
ATOM      4  C12 UNL     1     145.258 128.706 102.322  0.00  0.00    +0.042 A 
ATOM      5 CL1  UNL     1     146.495 129.765 101.767  0.00  0.00    -0.084 Cl
ATOM      6  C13 UNL     1     144.259 128.296 101.446  0.00  0.00    +0.035 A 
ATOM      7  C14 UNL     1     143.239 127.440 101.898  0.00  0.00    +0.060 A 
ENDROOT
BRANCH   1  10
ATOM      8  C8  UNL     1     141.266 126.198 104.582  0.00  0.00    +0.248 C 
ATOM      9  O2  UNL     1     141.065 127.208 105.250  0.00  0.00    -0.270 OA
ATOM     10  N1  UNL     1     142.258 126.029 103.636  0.00  0.00    -0.281 N 
ATOM     11  H8  UNL     1     142.370 125.094 103.240  0.00  0.00    +0.155 HD
BRANCH   8  15
ATOM     12  C2  UNL     1     138.622 122.855 105.206  0.00  0.00    +0.120 A 
ATOM     13  C3  UNL     1     140.000 122.641 105.099  0.00  0.00    +0.046 A 
ATOM     14  C4  UNL     1     140.879 123.709 104.895  0.00  0.00    +0.016 A 
ATOM     15  C5  UNL     1     140.383 125.014 104.805  0.00  0.00    +0.037 A 
ATOM     16  C6  UNL     1     139.001 125.226 104.897  0.00  0.00    +0.016 A 
ATOM     17  C7  UNL     1     138.124 124.153 105.101  0.00  0.00    +0.046 A 
BRANCH  12  19
ATOM     18  C1  UNL     1     138.119 121.005 106.610  0.00  0.00    +0.277 C 
ATOM     19  O1  UNL     1     137.883 121.722 105.405  0.00  0.00    -0.495 OA
ENDBRANCH  12  19
ENDBRANCH   8  15
ENDBRANCH   1  10
BRANCH   7  20
ATOM     20  C15 UNL     1     142.141 127.050 100.957  0.00  0.00    +0.250 C 
ATOM     21  O3  UNL     1     141.862 125.860 100.848  0.00  0.00    -0.270 OA
ATOM     22  N2  UNL     1     141.484 128.101 100.339  0.00  0.00    -0.281 N 
ATOM     23  H12 UNL     1     141.703 129.038 100.654  0.00  0.00    +0.155 HD
BRANCH  22  24
ATOM     24  C16 UNL     1     140.449 128.011  99.381  0.00  0.00    +0.037 A 
ATOM     25  C17 UNL     1     139.162 128.361  99.792  0.00  0.00    +0.043 A 
ATOM     26  C18 UNL     1     138.128 128.289  98.873  0.00  0.00    +0.112 A 
ATOM     27  N3  UNL     1     138.290 127.899  97.593  0.00  0.00    -0.263 NA
ATOM     28  C19 UNL     1     139.543 127.572  97.217  0.00  0.00    +0.112 A 
ATOM     29  C20 UNL     1     140.642 127.611  98.062  0.00  0.00    +0.043 A 
ENDBRANCH  22  24
ENDBRANCH   7  20
TORSDOF 5
ENDMDL
MODEL 6
REMARK VINA RESULT:    -4.487      4.108      7.120
REMARK INTER + INTRA:          -6.927
REMARK INTER:                  -5.631
REMARK INTRA:                  -1.296
REMARK UNBOUND:                -1.128
REMARK  Name = /home/vital/Documents/PhD_2021/Malaria_codes/data/pdb_ligands_mmv/ligand_107.pdb
REMARK  6 active torsions:
REMARK  status: ('A' for Active; 'I' for Inactive)
REMARK    1  A    between atoms: C1_1  and  O1_2
REMARK    2  A    between atoms: O1_2  and  C2_3
REMARK    3  A    between atoms: C5_6  and  C8_9
REMARK    4  A    between atoms: N1_11  and  C9_12
REMARK    5  A    between atoms: C14_18  and  C15_19
REMARK    6  A    between atoms: N2_21  and  C16_22
REMARK                            x       y       z     vdW  Elec       q    Type
REMARK                         _______ _______ _______ _____ _____    ______ ____
ROOT
ATOM      1  C9  UNL     1     137.721 122.248 105.745  0.00  0.00    +0.046 A 
ATOM      2  C10 UNL     1     137.246 121.362 106.719  0.00  0.00    +0.025 A 
ATOM      3  C11 UNL     1     137.544 121.555 108.073  0.00  0.00    +0.022 A 
ATOM      4  C12 UNL     1     138.326 122.633 108.465  0.00  0.00    +0.042 A 
ATOM      5 CL1  UNL     1     138.711 122.855 110.127  0.00  0.00    -0.084 Cl
ATOM      6  C13 UNL     1     138.800 123.539 107.522  0.00  0.00    +0.035 A 
ATOM      7  C14 UNL     1     138.479 123.368 106.164  0.00  0.00    +0.060 A 
ENDROOT
BRANCH   1  10
ATOM      8  C8  UNL     1     138.265 121.421 103.425  0.00  0.00    +0.248 C 
ATOM      9  O2  UNL     1     139.350 120.887 103.635  0.00  0.00    -0.270 OA
ATOM     10  N1  UNL     1     137.474 122.057 104.361  0.00  0.00    -0.281 N 
ATOM     11  H8  UNL     1     136.649 122.551 104.016  0.00  0.00    +0.155 HD
BRANCH   8  15
ATOM     12  C2  UNL     1     136.617 121.446  99.446  0.00  0.00    +0.120 A 
ATOM     13  C3  UNL     1     137.987 121.234  99.629  0.00  0.00    +0.046 A 
ATOM     14  C4  UNL     1     138.546 121.223 100.911  0.00  0.00    +0.016 A 
ATOM     15  C5  UNL     1     137.731 121.416 102.030  0.00  0.00    +0.037 A 
ATOM     16  C6  UNL     1     136.360 121.642 101.845  0.00  0.00    +0.016 A 
ATOM     17  C7  UNL     1     135.804 121.654 100.560  0.00  0.00    +0.046 A 
BRANCH  12  19
ATOM     18  C1  UNL     1     137.205 121.648  97.152  0.00  0.00    +0.277 C 
ATOM     19  O1  UNL     1     136.207 121.430  98.142  0.00  0.00    -0.495 OA
ENDBRANCH  12  19
ENDBRANCH   8  15
ENDBRANCH   1  10
BRANCH   7  20
ATOM     20  C15 UNL     1     138.951 124.382 105.167  0.00  0.00    +0.250 C 
ATOM     21  O3  UNL     1     138.113 125.073 104.598  0.00  0.00    -0.270 OA
ATOM     22  N2  UNL     1     140.325 124.492 105.033  0.00  0.00    -0.281 N 
ATOM     23  H12 UNL     1     140.900 123.982 105.692  0.00  0.00    +0.155 HD
BRANCH  22  24
ATOM     24  C16 UNL     1     141.028 125.331 104.139  0.00  0.00    +0.037 A 
ATOM     25  C17 UNL     1     141.508 126.543 104.640  0.00  0.00    +0.043 A 
ATOM     26  C18 UNL     1     142.205 127.384 103.789  0.00  0.00    +0.112 A 
ATOM     27  N3  UNL     1     142.454 127.101 102.495  0.00  0.00    -0.263 NA
ATOM     28  C19 UNL     1     141.986 125.922 102.036  0.00  0.00    +0.112 A 
ATOM     29  C20 UNL     1     141.277 125.015 102.808  0.00  0.00    +0.043 A 
ENDBRANCH  22  24
ENDBRANCH   7  20
TORSDOF 5
ENDMDL
MODEL 7
REMARK VINA RESULT:    -4.350      2.881      4.151
REMARK INTER + INTRA:          -6.749
REMARK INTER:                  -5.472
REMARK INTRA:                  -1.277
REMARK UNBOUND:                -1.128
REMARK  Name = /home/vital/Documents/PhD_2021/Malaria_codes/data/pdb_ligands_mmv/ligand_107.pdb
REMARK  6 active torsions:
REMARK  status: ('A' for Active; 'I' for Inactive)
REMARK    1  A    between atoms: C1_1  and  O1_2
REMARK    2  A    between atoms: O1_2  and  C2_3
REMARK    3  A    between atoms: C5_6  and  C8_9
REMARK    4  A    between atoms: N1_11  and  C9_12
REMARK    5  A    between atoms: C14_18  and  C15_19
REMARK    6  A    between atoms: N2_21  and  C16_22
REMARK                            x       y       z     vdW  Elec       q    Type
REMARK                         _______ _______ _______ _____ _____    ______ ____
ROOT
ATOM      1  C9  UNL     1     141.770 129.506 100.723  0.00  0.00    +0.046 A 
ATOM      2  C10 UNL     1     141.711 130.872 101.025  0.00  0.00    +0.025 A 
ATOM      3  C11 UNL     1     141.951 131.837 100.040  0.00  0.00    +0.022 A 
ATOM      4  C12 UNL     1     142.259 131.445  98.744  0.00  0.00    +0.042 A 
ATOM      5 CL1  UNL     1     142.577 132.633  97.541  0.00  0.00    -0.084 Cl
ATOM      6  C13 UNL     1     142.310 130.096  98.410  0.00  0.00    +0.035 A 
ATOM      7  C14 UNL     1     142.040 129.121  99.387  0.00  0.00    +0.060 A 
ENDROOT
BRANCH   1  10
ATOM      8  C8  UNL     1     142.419 128.126 102.732  0.00  0.00    +0.248 C 
ATOM      9  O2  UNL     1     143.516 128.614 102.984  0.00  0.00    -0.270 OA
ATOM     10  N1  UNL     1     141.575 128.502 101.706  0.00  0.00    -0.281 N 
ATOM     11  H8  UNL     1     140.743 127.929 101.554  0.00  0.00    +0.155 HD
BRANCH   8  15
ATOM     12  C2  UNL     1     141.022 124.812 105.101  0.00  0.00    +0.120 A 
ATOM     13  C3  UNL     1     141.299 126.037 105.716  0.00  0.00    +0.046 A 
ATOM     14  C4  UNL     1     141.755 127.128 104.969  0.00  0.00    +0.016 A 
ATOM     15  C5  UNL     1     141.930 127.003 103.587  0.00  0.00    +0.037 A 
ATOM     16  C6  UNL     1     141.666 125.770 102.974  0.00  0.00    +0.016 A 
ATOM     17  C7  UNL     1     141.210 124.681 103.726  0.00  0.00    +0.046 A 
BRANCH  12  19
ATOM     18  C1  UNL     1     139.786 124.252 107.053  0.00  0.00    +0.277 C 
ATOM     19  O1  UNL     1     140.583 123.834 105.951  0.00  0.00    -0.495 OA
ENDBRANCH  12  19
ENDBRANCH   8  15
ENDBRANCH   1  10
BRANCH   7  20
ATOM     20  C15 UNL     1     142.045 127.675  98.998  0.00  0.00    +0.250 C 
ATOM     21  O3  UNL     1     142.887 126.939  99.504  0.00  0.00    -0.270 OA
ATOM     22  N2  UNL     1     141.032 127.284  98.140  0.00  0.00    -0.281 N 
ATOM     23  H12 UNL     1     140.304 127.959  97.940  0.00  0.00    +0.155 HD
BRANCH  22  24
ATOM     24  C16 UNL     1     140.834 125.998  97.587  0.00  0.00    +0.037 A 
ATOM     25  C17 UNL     1     141.434 125.731  96.354  0.00  0.00    +0.043 A 
ATOM     26  C18 UNL     1     141.262 124.478  95.790  0.00  0.00    +0.112 A 
ATOM     27  N3  UNL     1     140.548 123.490  96.364  0.00  0.00    -0.263 NA
ATOM     28  C19 UNL     1     139.985 123.769  97.557  0.00  0.00    +0.112 A 
ATOM     29  C20 UNL     1     140.097 124.992  98.201  0.00  0.00    +0.043 A 
ENDBRANCH  22  24
ENDBRANCH   7  20
TORSDOF 5
ENDMDL
MODEL 8
REMARK VINA RESULT:    -4.310      1.681      2.503
REMARK INTER + INTRA:          -6.698
REMARK INTER:                  -5.591
REMARK INTRA:                  -1.107
REMARK UNBOUND:                -1.128
REMARK  Name = /home/vital/Documents/PhD_2021/Malaria_codes/data/pdb_ligands_mmv/ligand_107.pdb
REMARK  6 active torsions:
REMARK  status: ('A' for Active; 'I' for Inactive)
REMARK    1  A    between atoms: C1_1  and  O1_2
REMARK    2  A    between atoms: O1_2  and  C2_3
REMARK    3  A    between atoms: C5_6  and  C8_9
REMARK    4  A    between atoms: N1_11  and  C9_12
REMARK    5  A    between atoms: C14_18  and  C15_19
REMARK    6  A    between atoms: N2_21  and  C16_22
REMARK                            x       y       z     vdW  Elec       q    Type
REMARK                         _______ _______ _______ _____ _____    ______ ____
ROOT
ATOM      1  C9  UNL     1     143.552 125.944 104.469  0.00  0.00    +0.046 A 
ATOM      2  C10 UNL     1     144.688 125.497 105.156  0.00  0.00    +0.025 A 
ATOM      3  C11 UNL     1     145.854 126.270 105.195  0.00  0.00    +0.022 A 
ATOM      4  C12 UNL     1     145.897 127.496 104.543  0.00  0.00    +0.042 A 
ATOM      5 CL1  UNL     1     147.339 128.433 104.574  0.00  0.00    -0.084 Cl
ATOM      6  C13 UNL     1     144.780 127.973 103.866  0.00  0.00    +0.035 A 
ATOM      7  C14 UNL     1     143.596 127.216 103.848  0.00  0.00    +0.060 A 
ENDROOT
BRANCH   1  10
ATOM      8  C8  UNL     1     141.388 124.971 105.324  0.00  0.00    +0.248 C 
ATOM      9  O2  UNL     1     141.364 125.454 106.452  0.00  0.00    -0.270 OA
ATOM     10  N1  UNL     1     142.369 125.167 104.373  0.00  0.00    -0.281 N 
ATOM     11  H8  UNL     1     142.308 124.611 103.519  0.00  0.00    +0.155 HD
BRANCH   8  15
ATOM     12  C2  UNL     1     138.092 122.440 104.192  0.00  0.00    +0.120 A 
ATOM     13  C3  UNL     1     139.395 122.090 103.823  0.00  0.00    +0.046 A 
ATOM     14  C4  UNL     1     140.482 122.896 104.177  0.00  0.00    +0.016 A 
ATOM     15  C5  UNL     1     140.273 124.064 104.919  0.00  0.00    +0.037 A 
ATOM     16  C6  UNL     1     138.965 124.421 105.276  0.00  0.00    +0.016 A 
ATOM     17  C7  UNL     1     137.880 123.611 104.917  0.00  0.00    +0.046 A 
BRANCH  12  19
ATOM     18  C1  UNL     1     136.829 121.542 102.390  0.00  0.00    +0.277 C 
ATOM     19  O1  UNL     1     137.129 121.561 103.780  0.00  0.00    -0.495 OA
ENDBRANCH  12  19
ENDBRANCH   8  15
ENDBRANCH   1  10
BRANCH   7  20
ATOM     20  C15 UNL     1     142.384 127.769 103.161  0.00  0.00    +0.250 C 
ATOM     21  O3  UNL     1     141.318 127.765 103.768  0.00  0.00    -0.270 OA
ATOM     22  N2  UNL     1     142.605 128.307 101.905  0.00  0.00    -0.281 N 
ATOM     23  H12 UNL     1     143.566 128.401 101.599  0.00  0.00    +0.155 HD
BRANCH  22  24
ATOM     24  C16 UNL     1     141.636 128.849 101.030  0.00  0.00    +0.037 A 
ATOM     25  C17 UNL     1     141.500 130.239 101.005  0.00  0.00    +0.043 A 
ATOM     26  C18 UNL     1     140.563 130.799 100.154  0.00  0.00    +0.112 A 
ATOM     27  N3  UNL     1     139.768 130.080  99.338  0.00  0.00    -0.263 NA
ATOM     28  C19 UNL     1     139.922 128.740  99.374  0.00  0.00    +0.112 A 
ATOM     29  C20 UNL     1     140.830 128.086 100.192  0.00  0.00    +0.043 A 
ENDBRANCH  22  24
ENDBRANCH   7  20
TORSDOF 5
ENDMDL
MODEL 9
REMARK VINA RESULT:    -4.130      3.642      5.845
REMARK INTER + INTRA:          -6.465
REMARK INTER:                  -5.144
REMARK INTRA:                  -1.321
REMARK UNBOUND:                -1.128
REMARK  Name = /home/vital/Documents/PhD_2021/Malaria_codes/data/pdb_ligands_mmv/ligand_107.pdb
REMARK  6 active torsions:
REMARK  status: ('A' for Active; 'I' for Inactive)
REMARK    1  A    between atoms: C1_1  and  O1_2
REMARK    2  A    between atoms: O1_2  and  C2_3
REMARK    3  A    between atoms: C5_6  and  C8_9
REMARK    4  A    between atoms: N1_11  and  C9_12
REMARK    5  A    between atoms: C14_18  and  C15_19
REMARK    6  A    between atoms: N2_21  and  C16_22
REMARK                            x       y       z     vdW  Elec       q    Type
REMARK                         _______ _______ _______ _____ _____    ______ ____
ROOT
ATOM      1  C9  UNL     1     141.308 125.676  98.337  0.00  0.00    +0.046 A 
ATOM      2  C10 UNL     1     141.459 124.415  97.746  0.00  0.00    +0.025 A 
ATOM      3  C11 UNL     1     141.401 124.261  96.356  0.00  0.00    +0.022 A 
ATOM      4  C12 UNL     1     141.183 125.366  95.543  0.00  0.00    +0.042 A 
ATOM      5 CL1  UNL     1     141.087 125.170  93.837  0.00  0.00    -0.084 Cl
ATOM      6  C13 UNL     1     141.043 126.633  96.100  0.00  0.00    +0.035 A 
ATOM      7  C14 UNL     1     141.132 126.800  97.493  0.00  0.00    +0.060 A 
ENDROOT
BRANCH   1  10
ATOM      8  C8  UNL     1     142.371 126.240 100.553  0.00  0.00    +0.248 C 
ATOM      9  O2  UNL     1     143.513 126.496 100.186  0.00  0.00    -0.270 OA
ATOM     10  N1  UNL     1     141.318 125.862  99.743  0.00  0.00    -0.281 N 
ATOM     11  H8  UNL     1     140.454 125.575 100.205  0.00  0.00    +0.155 HD
BRANCH   8  15
ATOM     12  C2  UNL     1     141.521 126.578 104.762  0.00  0.00    +0.120 A 
ATOM     13  C3  UNL     1     141.055 125.471 104.046  0.00  0.00    +0.046 A 
ATOM     14  C4  UNL     1     141.316 125.339 102.679  0.00  0.00    +0.016 A 
ATOM     15  C5  UNL     1     142.061 126.318 102.013  0.00  0.00    +0.037 A 
ATOM     16  C6  UNL     1     142.516 127.434 102.728  0.00  0.00    +0.016 A 
ATOM     17  C7  UNL     1     142.250 127.563 104.097  0.00  0.00    +0.046 A 
BRANCH  12  19
ATOM     18  C1  UNL     1     141.391 125.361 106.799  0.00  0.00    +0.277 C 
ATOM     19  O1  UNL     1     141.193 126.578 106.090  0.00  0.00    -0.495 OA
ENDBRANCH  12  19
ENDBRANCH   8  15
ENDBRANCH   1  10
BRANCH   7  20
ATOM     20  C15 UNL     1     141.034 128.178  98.073  0.00  0.00    +0.250 C 
ATOM     21  O3  UNL     1     139.919 128.635  98.302  0.00  0.00    -0.270 OA
ATOM     22  N2  UNL     1     142.241 128.789  98.364  0.00  0.00    -0.281 N 
ATOM     23  H12 UNL     1     143.080 128.227  98.285  0.00  0.00    +0.155 HD
BRANCH  22  24
ATOM     24  C16 UNL     1     142.433 130.094  98.872  0.00  0.00    +0.037 A 
ATOM     25  C17 UNL     1     142.728 130.217 100.231  0.00  0.00    +0.043 A 
ATOM     26  C18 UNL     1     142.927 131.483 100.756  0.00  0.00    +0.112 A 
ATOM     27  N3  UNL     1     142.854 132.615 100.028  0.00  0.00    -0.263 NA
ATOM     28  C19 UNL     1     142.574 132.471  98.717  0.00  0.00    +0.112 A 
ATOM     29  C20 UNL     1     142.358 131.248  98.100  0.00  0.00    +0.043 A 
ENDBRANCH  22  24
ENDBRANCH   7  20
TORSDOF 5
ENDMDL
