MODEL 1
REMARK VINA RESULT:    -2.879      0.000      0.000
REMARK INTER + INTRA:          -6.985
REMARK INTER:                  -4.646
REMARK INTRA:                  -2.339
REMARK UNBOUND:                -2.339
REMARK  Name = /home/vital/Documents/PhD_2021/Malaria_codes/data/pdb_ligands_mmv/ligand_262.pdb
REMARK  13 active torsions:
REMARK  status: ('A' for Active; 'I' for Inactive)
REMARK    1  A    between atoms: C1_1  and  C2_2
REMARK    2  A    between atoms: C5_5  and  O1_6
REMARK    3  A    between atoms: O1_6  and  C6_7
REMARK    4  A    between atoms: C6_7  and  C7_8
REMARK    5  A    between atoms: C7_8  and  C8_9
REMARK    6  A    between atoms: C8_9  and  C9_10
REMARK    7  A    between atoms: C9_10  and  C10_11
REMARK    8  A    between atoms: C10_11  and  C11_12
REMARK    9  A    between atoms: C11_12  and  N1_13
REMARK   10  A    between atoms: N1_13  and  C12_14
REMARK   11  A    between atoms: C12_14  and  C13_15
REMARK   12  A    between atoms: C13_15  and  O2_16
REMARK   13  A    between atoms: C14_17  and  C15_18
REMARK                            x       y       z     vdW  Elec       q    Type
REMARK                         _______ _______ _______ _____ _____    ______ ____
ROOT
ATOM      1  C7  UNL     1     145.464 131.500 100.138  0.00  0.00    +0.041 C 
ENDROOT
BRANCH   1   2
ATOM      2  C6  UNL     1     144.609 130.817 101.203  0.00  0.00    +0.229 C 
BRANCH   2   3
ATOM      3  O1  UNL     1     143.314 131.419 101.266  0.00  0.00    -0.492 OA
BRANCH   3   8
ATOM      4  C1  UNL     1     138.657 128.559  99.696  0.00  0.00    +0.044 C 
ATOM      5  C2  UNL     1     139.905 129.279 100.108  0.00  0.00    -0.050 A 
ATOM      6  C3  UNL     1     140.747 128.740 101.085  0.00  0.00    +0.007 A 
ATOM      7  C4  UNL     1     141.894 129.427 101.494  0.00  0.00    +0.046 A 
ATOM      8  C5  UNL     1     142.214 130.669 100.942  0.00  0.00    +0.123 A 
ATOM      9  C14 UNL     1     141.371 131.224  99.961  0.00  0.00    -0.009 A 
ATOM     10  C15 UNL     1     141.687 132.559  99.345  0.00  0.00    +0.047 C 
ATOM     11  C16 UNL     1     140.220 130.527  99.560  0.00  0.00    +0.010 A 
ENDBRANCH   3   8
ENDBRANCH   2   3
ENDBRANCH   1   2
BRANCH   1  12
ATOM     12  C8  UNL     1     145.404 130.812  98.772  0.00  0.00    +0.003 C 
BRANCH  12  13
ATOM     13  C9  UNL     1     145.045 129.328  98.865  0.00  0.00    +0.001 C 
BRANCH  13  14
ATOM     14  C10 UNL     1     144.297 128.773  97.645  0.00  0.00    +0.015 C 
BRANCH  14  15
ATOM     15  C11 UNL     1     143.387 129.771  96.918  0.00  0.00    +0.081 C 
BRANCH  15  16
ATOM     16  N1  UNL     1     142.107 129.166  96.546  0.00  0.00    -0.314 NA
ATOM     17  H18 UNL     1     142.093 129.024  95.537  0.00  0.00    +0.122 HD
BRANCH  16  18
ATOM     18  C12 UNL     1     141.889 127.863  97.198  0.00  0.00    +0.108 C 
BRANCH  18  19
ATOM     19  C13 UNL     1     140.634 127.109  96.736  0.00  0.00    +0.171 C 
BRANCH  19  20
ATOM     20  O2  UNL     1     139.730 127.986  96.069  0.00  0.00    -0.394 OA
ATOM     21  H23 UNL     1     140.029 128.043  95.145  0.00  0.00    +0.209 HD
ENDBRANCH  19  20
ENDBRANCH  18  19
ENDBRANCH  16  18
ENDBRANCH  15  16
ENDBRANCH  14  15
ENDBRANCH  13  14
ENDBRANCH  12  13
ENDBRANCH   1  12
TORSDOF 11
ENDMDL
MODEL 2
REMARK VINA RESULT:    -2.847      2.052      4.559
REMARK INTER + INTRA:          -6.934
REMARK INTER:                  -4.582
REMARK INTRA:                  -2.352
REMARK UNBOUND:                -2.339
REMARK  Name = /home/vital/Documents/PhD_2021/Malaria_codes/data/pdb_ligands_mmv/ligand_262.pdb
REMARK  13 active torsions:
REMARK  status: ('A' for Active; 'I' for Inactive)
REMARK    1  A    between atoms: C1_1  and  C2_2
REMARK    2  A    between atoms: C5_5  and  O1_6
REMARK    3  A    between atoms: O1_6  and  C6_7
REMARK    4  A    between atoms: C6_7  and  C7_8
REMARK    5  A    between atoms: C7_8  and  C8_9
REMARK    6  A    between atoms: C8_9  and  C9_10
REMARK    7  A    between atoms: C9_10  and  C10_11
REMARK    8  A    between atoms: C10_11  and  C11_12
REMARK    9  A    between atoms: C11_12  and  N1_13
REMARK   10  A    between atoms: N1_13  and  C12_14
REMARK   11  A    between atoms: C12_14  and  C13_15
REMARK   12  A    between atoms: C13_15  and  O2_16
REMARK   13  A    between atoms: C14_17  and  C15_18
REMARK                            x       y       z     vdW  Elec       q    Type
REMARK                         _______ _______ _______ _____ _____    ______ ____
ROOT
ATOM      1  C7  UNL     1     138.993 128.474 100.654  0.00  0.00    +0.041 C 
ENDROOT
BRANCH   1   2
ATOM      2  C6  UNL     1     139.315 129.895 101.113  0.00  0.00    +0.229 C 
BRANCH   2   3
ATOM      3  O1  UNL     1     140.704 130.015 101.427  0.00  0.00    -0.492 OA
BRANCH   3   8
ATOM      4  C1  UNL     1     144.228 133.379  98.496  0.00  0.00    +0.044 C 
ATOM      5  C2  UNL     1     143.279 132.485  99.235  0.00  0.00    -0.050 A 
ATOM      6  C3  UNL     1     141.902 132.570  99.012  0.00  0.00    +0.007 A 
ATOM      7  C4  UNL     1     141.014 131.759  99.724  0.00  0.00    +0.046 A 
ATOM      8  C5  UNL     1     141.485 130.857 100.681  0.00  0.00    +0.123 A 
ATOM      9  C14 UNL     1     142.869 130.767 100.918  0.00  0.00    -0.009 A 
ATOM     10  C15 UNL     1     143.411 129.806 101.940  0.00  0.00    +0.047 C 
ATOM     11  C16 UNL     1     143.752 131.588 100.199  0.00  0.00    +0.010 A 
ENDBRANCH   3   8
ENDBRANCH   2   3
ENDBRANCH   1   2
BRANCH   1  12
ATOM     12  C8  UNL     1     138.597 128.383  99.179  0.00  0.00    +0.003 C 
BRANCH  12  13
ATOM     13  C9  UNL     1     139.801 128.263  98.243  0.00  0.00    +0.001 C 
BRANCH  13  14
ATOM     14  C10 UNL     1     140.839 127.215  98.668  0.00  0.00    +0.015 C 
BRANCH  14  15
ATOM     15  C11 UNL     1     142.305 127.648  98.544  0.00  0.00    +0.081 C 
BRANCH  15  16
ATOM     16  N1  UNL     1     142.431 128.962  97.910  0.00  0.00    -0.314 NA
ATOM     17  H18 UNL     1     142.637 129.654  98.630  0.00  0.00    +0.122 HD
BRANCH  16  18
ATOM     18  C12 UNL     1     143.509 129.003  96.907  0.00  0.00    +0.108 C 
BRANCH  18  19
ATOM     19  C13 UNL     1     143.466 130.210  95.959  0.00  0.00    +0.171 C 
BRANCH  19  20
ATOM     20  O2  UNL     1     144.696 130.930  95.994  0.00  0.00    -0.394 OA
ATOM     21  H23 UNL     1     144.821 131.221  96.913  0.00  0.00    +0.209 HD
ENDBRANCH  19  20
ENDBRANCH  18  19
ENDBRANCH  16  18
ENDBRANCH  15  16
ENDBRANCH  14  15
ENDBRANCH  13  14
ENDBRANCH  12  13
ENDBRANCH   1  12
TORSDOF 11
ENDMDL
MODEL 3
REMARK VINA RESULT:    -2.831      2.676      4.753
REMARK INTER + INTRA:          -6.907
REMARK INTER:                  -4.849
REMARK INTRA:                  -2.058
REMARK UNBOUND:                -2.339
REMARK  Name = /home/vital/Documents/PhD_2021/Malaria_codes/data/pdb_ligands_mmv/ligand_262.pdb
REMARK  13 active torsions:
REMARK  status: ('A' for Active; 'I' for Inactive)
REMARK    1  A    between atoms: C1_1  and  C2_2
REMARK    2  A    between atoms: C5_5  and  O1_6
REMARK    3  A    between atoms: O1_6  and  C6_7
REMARK    4  A    between atoms: C6_7  and  C7_8
REMARK    5  A    between atoms: C7_8  and  C8_9
REMARK    6  A    between atoms: C8_9  and  C9_10
REMARK    7  A    between atoms: C9_10  and  C10_11
REMARK    8  A    between atoms: C10_11  and  C11_12
REMARK    9  A    between atoms: C11_12  and  N1_13
REMARK   10  A    between atoms: N1_13  and  C12_14
REMARK   11  A    between atoms: C12_14  and  C13_15
REMARK   12  A    between atoms: C13_15  and  O2_16
REMARK   13  A    between atoms: C14_17  and  C15_18
REMARK                            x       y       z     vdW  Elec       q    Type
REMARK                         _______ _______ _______ _____ _____    ______ ____
ROOT
ATOM      1  C7  UNL     1     143.341 126.901 103.993  0.00  0.00    +0.041 C 
ENDROOT
BRANCH   1   2
ATOM      2  C6  UNL     1     142.157 127.665 103.403  0.00  0.00    +0.229 C 
BRANCH   2   3
ATOM      3  O1  UNL     1     142.392 127.965 102.027  0.00  0.00    -0.492 OA
BRANCH   3   8
ATOM      4  C1  UNL     1     138.124 128.133  98.275  0.00  0.00    +0.044 C 
ATOM      5  C2  UNL     1     139.222 128.087  99.293  0.00  0.00    -0.050 A 
ATOM      6  C3  UNL     1     139.162 128.884 100.439  0.00  0.00    +0.007 A 
ATOM      7  C4  UNL     1     140.202 128.866 101.374  0.00  0.00    +0.046 A 
ATOM      8  C5  UNL     1     141.326 128.061 101.173  0.00  0.00    +0.123 A 
ATOM      9  C14 UNL     1     141.399 127.259 100.019  0.00  0.00    -0.009 A 
ATOM     10  C15 UNL     1     142.594 126.380  99.772  0.00  0.00    +0.047 C 
ATOM     11  C16 UNL     1     140.351 127.286  99.086  0.00  0.00    +0.010 A 
ENDBRANCH   3   8
ENDBRANCH   2   3
ENDBRANCH   1   2
BRANCH   1  12
ATOM     12  C8  UNL     1     144.617 127.009 103.155  0.00  0.00    +0.003 C 
BRANCH  12  13
ATOM     13  C9  UNL     1     145.563 128.107 103.645  0.00  0.00    +0.001 C 
BRANCH  13  14
ATOM     14  C10 UNL     1     145.969 129.128 102.573  0.00  0.00    +0.015 C 
BRANCH  14  15
ATOM     15  C11 UNL     1     145.744 128.686 101.121  0.00  0.00    +0.081 C 
BRANCH  15  16
ATOM     16  N1  UNL     1     144.507 129.242 100.571  0.00  0.00    -0.314 NA
ATOM     17  H18 UNL     1     143.741 129.031 101.210  0.00  0.00    +0.122 HD
BRANCH  16  18
ATOM     18  C12 UNL     1     144.574 130.704 100.399  0.00  0.00    +0.108 C 
BRANCH  18  19
ATOM     19  C13 UNL     1     143.373 131.478 100.961  0.00  0.00    +0.171 C 
BRANCH  19  20
ATOM     20  O2  UNL     1     143.509 131.679 102.366  0.00  0.00    -0.394 OA
ATOM     21  H23 UNL     1     144.162 131.030 102.677  0.00  0.00    +0.209 HD
ENDBRANCH  19  20
ENDBRANCH  18  19
ENDBRANCH  16  18
ENDBRANCH  15  16
ENDBRANCH  14  15
ENDBRANCH  13  14
ENDBRANCH  12  13
ENDBRANCH   1  12
TORSDOF 11
ENDMDL
MODEL 4
REMARK VINA RESULT:    -2.777      1.779      5.028
REMARK INTER + INTRA:          -6.820
REMARK INTER:                  -4.574
REMARK INTRA:                  -2.246
REMARK UNBOUND:                -2.339
REMARK  Name = /home/vital/Documents/PhD_2021/Malaria_codes/data/pdb_ligands_mmv/ligand_262.pdb
REMARK  13 active torsions:
REMARK  status: ('A' for Active; 'I' for Inactive)
REMARK    1  A    between atoms: C1_1  and  C2_2
REMARK    2  A    between atoms: C5_5  and  O1_6
REMARK    3  A    between atoms: O1_6  and  C6_7
REMARK    4  A    between atoms: C6_7  and  C7_8
REMARK    5  A    between atoms: C7_8  and  C8_9
REMARK    6  A    between atoms: C8_9  and  C9_10
REMARK    7  A    between atoms: C9_10  and  C10_11
REMARK    8  A    between atoms: C10_11  and  C11_12
REMARK    9  A    between atoms: C11_12  and  N1_13
REMARK   10  A    between atoms: N1_13  and  C12_14
REMARK   11  A    between atoms: C12_14  and  C13_15
REMARK   12  A    between atoms: C13_15  and  O2_16
REMARK   13  A    between atoms: C14_17  and  C15_18
REMARK                            x       y       z     vdW  Elec       q    Type
REMARK                         _______ _______ _______ _____ _____    ______ ____
ROOT
ATOM      1  C7  UNL     1     142.606 126.414  96.154  0.00  0.00    +0.041 C 
ENDROOT
BRANCH   1   2
ATOM      2  C6  UNL     1     141.096 126.180  96.163  0.00  0.00    +0.229 C 
BRANCH   2   3
ATOM      3  O1  UNL     1     140.656 125.815  97.473  0.00  0.00    -0.492 OA
BRANCH   3   8
ATOM      4  C1  UNL     1     138.948 129.735 101.220  0.00  0.00    +0.044 C 
ATOM      5  C2  UNL     1     139.400 128.730 100.205  0.00  0.00    -0.050 A 
ATOM      6  C3  UNL     1     138.839 128.711  98.925  0.00  0.00    +0.007 A 
ATOM      7  C4  UNL     1     139.237 127.753  97.987  0.00  0.00    +0.046 A 
ATOM      8  C5  UNL     1     140.193 126.790  98.316  0.00  0.00    +0.123 A 
ATOM      9  C14 UNL     1     140.761 126.796  99.604  0.00  0.00    -0.009 A 
ATOM     10  C15 UNL     1     141.794 125.774  99.991  0.00  0.00    +0.047 C 
ATOM     11  C16 UNL     1     140.352 127.760 100.539  0.00  0.00    +0.010 A 
ENDBRANCH   3   8
ENDBRANCH   2   3
ENDBRANCH   1   2
BRANCH   1  12
ATOM     12  C8  UNL     1     143.002 127.831  95.732  0.00  0.00    +0.003 C 
BRANCH  12  13
ATOM     13  C9  UNL     1     142.987 128.828  96.893  0.00  0.00    +0.001 C 
BRANCH  13  14
ATOM     14  C10 UNL     1     144.022 128.546  97.990  0.00  0.00    +0.015 C 
BRANCH  14  15
ATOM     15  C11 UNL     1     143.838 129.338  99.291  0.00  0.00    +0.081 C 
BRANCH  15  16
ATOM     16  N1  UNL     1     142.850 130.407  99.140  0.00  0.00    -0.314 NA
ATOM     17  H18 UNL     1     142.014 130.021  98.702  0.00  0.00    +0.122 HD
BRANCH  16  18
ATOM     18  C12 UNL     1     142.461 131.003 100.430  0.00  0.00    +0.108 C 
BRANCH  18  19
ATOM     19  C13 UNL     1     143.405 130.689 101.600  0.00  0.00    +0.171 C 
BRANCH  19  20
ATOM     20  O2  UNL     1     143.653 131.855 102.382  0.00  0.00    -0.394 OA
ATOM     21  H23 UNL     1     143.964 132.541 101.767  0.00  0.00    +0.209 HD
ENDBRANCH  19  20
ENDBRANCH  18  19
ENDBRANCH  16  18
ENDBRANCH  15  16
ENDBRANCH  14  15
ENDBRANCH  13  14
ENDBRANCH  12  13
ENDBRANCH   1  12
TORSDOF 11
ENDMDL
MODEL 5
REMARK VINA RESULT:    -2.745      2.594      5.721
REMARK INTER + INTRA:          -6.769
REMARK INTER:                  -4.250
REMARK INTRA:                  -2.519
REMARK UNBOUND:                -2.339
REMARK  Name = /home/vital/Documents/PhD_2021/Malaria_codes/data/pdb_ligands_mmv/ligand_262.pdb
REMARK  13 active torsions:
REMARK  status: ('A' for Active; 'I' for Inactive)
REMARK    1  A    between atoms: C1_1  and  C2_2
REMARK    2  A    between atoms: C5_5  and  O1_6
REMARK    3  A    between atoms: O1_6  and  C6_7
REMARK    4  A    between atoms: C6_7  and  C7_8
REMARK    5  A    between atoms: C7_8  and  C8_9
REMARK    6  A    between atoms: C8_9  and  C9_10
REMARK    7  A    between atoms: C9_10  and  C10_11
REMARK    8  A    between atoms: C10_11  and  C11_12
REMARK    9  A    between atoms: C11_12  and  N1_13
REMARK   10  A    between atoms: N1_13  and  C12_14
REMARK   11  A    between atoms: C12_14  and  C13_15
REMARK   12  A    between atoms: C13_15  and  O2_16
REMARK   13  A    between atoms: C14_17  and  C15_18
REMARK                            x       y       z     vdW  Elec       q    Type
REMARK                         _______ _______ _______ _____ _____    ______ ____
ROOT
ATOM      1  C7  UNL     1     140.364 126.306  97.339  0.00  0.00    +0.041 C 
ENDROOT
BRANCH   1   2
ATOM      2  C6  UNL     1     140.567 125.500  98.621  0.00  0.00    +0.229 C 
BRANCH   2   3
ATOM      3  O1  UNL     1     141.951 125.461  98.972  0.00  0.00    -0.492 OA
BRANCH   3   8
ATOM      4  C1  UNL     1     143.888 128.186 103.571  0.00  0.00    +0.044 C 
ATOM      5  C2  UNL     1     143.340 127.473 102.373  0.00  0.00    -0.050 A 
ATOM      6  C3  UNL     1     142.350 126.498 102.517  0.00  0.00    +0.007 A 
ATOM      7  C4  UNL     1     141.862 125.808 101.403  0.00  0.00    +0.046 A 
ATOM      8  C5  UNL     1     142.364 126.073 100.126  0.00  0.00    +0.123 A 
ATOM      9  C14 UNL     1     143.365 127.049  99.970  0.00  0.00    -0.009 A 
ATOM     10  C15 UNL     1     143.927 127.360  98.610  0.00  0.00    +0.047 C 
ATOM     11  C16 UNL     1     143.850 127.733 101.095  0.00  0.00    +0.010 A 
ENDBRANCH   3   8
ENDBRANCH   2   3
ENDBRANCH   1   2
BRANCH   1  12
ATOM     12  C8  UNL     1     139.738 127.683  97.575  0.00  0.00    +0.003 C 
BRANCH  12  13
ATOM     13  C9  UNL     1     139.412 127.947  99.047  0.00  0.00    +0.001 C 
BRANCH  13  14
ATOM     14  C10 UNL     1     139.989 129.256  99.605  0.00  0.00    +0.015 C 
BRANCH  14  15
ATOM     15  C11 UNL     1     140.037 129.358 101.134  0.00  0.00    +0.081 C 
BRANCH  15  16
ATOM     16  N1  UNL     1     141.095 130.263 101.584  0.00  0.00    -0.314 NA
ATOM     17  H18 UNL     1     141.750 129.740 102.164  0.00  0.00    +0.122 HD
BRANCH  16  18
ATOM     18  C12 UNL     1     141.844 130.856 100.463  0.00  0.00    +0.108 C 
BRANCH  18  19
ATOM     19  C13 UNL     1     143.204 131.462 100.840  0.00  0.00    +0.171 C 
BRANCH  19  20
ATOM     20  O2  UNL     1     143.340 131.567 102.255  0.00  0.00    -0.394 OA
ATOM     21  H23 UNL     1     143.098 132.479 102.491  0.00  0.00    +0.209 HD
ENDBRANCH  19  20
ENDBRANCH  18  19
ENDBRANCH  16  18
ENDBRANCH  15  16
ENDBRANCH  14  15
ENDBRANCH  13  14
ENDBRANCH  12  13
ENDBRANCH   1  12
TORSDOF 11
ENDMDL
MODEL 6
REMARK VINA RESULT:    -2.666      1.725      2.269
REMARK INTER + INTRA:          -6.642
REMARK INTER:                  -4.427
REMARK INTRA:                  -2.215
REMARK UNBOUND:                -2.339
REMARK  Name = /home/vital/Documents/PhD_2021/Malaria_codes/data/pdb_ligands_mmv/ligand_262.pdb
REMARK  13 active torsions:
REMARK  status: ('A' for Active; 'I' for Inactive)
REMARK    1  A    between atoms: C1_1  and  C2_2
REMARK    2  A    between atoms: C5_5  and  O1_6
REMARK    3  A    between atoms: O1_6  and  C6_7
REMARK    4  A    between atoms: C6_7  and  C7_8
REMARK    5  A    between atoms: C7_8  and  C8_9
REMARK    6  A    between atoms: C8_9  and  C9_10
REMARK    7  A    between atoms: C9_10  and  C10_11
REMARK    8  A    between atoms: C10_11  and  C11_12
REMARK    9  A    between atoms: C11_12  and  N1_13
REMARK   10  A    between atoms: N1_13  and  C12_14
REMARK   11  A    between atoms: C12_14  and  C13_15
REMARK   12  A    between atoms: C13_15  and  O2_16
REMARK   13  A    between atoms: C14_17  and  C15_18
REMARK                            x       y       z     vdW  Elec       q    Type
REMARK                         _______ _______ _______ _____ _____    ______ ____
ROOT
ATOM      1  C7  UNL     1     146.018 130.701  99.886  0.00  0.00    +0.041 C 
ENDROOT
BRANCH   1   2
ATOM      2  C6  UNL     1     145.403 131.153 101.209  0.00  0.00    +0.229 C 
BRANCH   2   3
ATOM      3  O1  UNL     1     144.215 131.911 100.974  0.00  0.00    -0.492 OA
BRANCH   3   8
ATOM      4  C1  UNL     1     139.235 129.411  99.846  0.00  0.00    +0.044 C 
ATOM      5  C2  UNL     1     140.565 130.034 100.144  0.00  0.00    -0.050 A 
ATOM      6  C3  UNL     1     141.400 129.492 101.124  0.00  0.00    +0.007 A 
ATOM      7  C4  UNL     1     142.627 130.092 101.425  0.00  0.00    +0.046 A 
ATOM      8  C5  UNL     1     143.034 131.251 100.760  0.00  0.00    +0.123 A 
ATOM      9  C14 UNL     1     142.199 131.809  99.775  0.00  0.00    -0.009 A 
ATOM     10  C15 UNL     1     142.606 133.055  99.039  0.00  0.00    +0.047 C 
ATOM     11  C16 UNL     1     140.968 131.200  99.483  0.00  0.00    +0.010 A 
ENDBRANCH   3   8
ENDBRANCH   2   3
ENDBRANCH   1   2
BRANCH   1  12
ATOM     12  C8  UNL     1     146.157 129.181  99.765  0.00  0.00    +0.003 C 
BRANCH  12  13
ATOM     13  C9  UNL     1     145.087 128.553  98.870  0.00  0.00    +0.001 C 
BRANCH  13  14
ATOM     14  C10 UNL     1     144.554 129.475  97.764  0.00  0.00    +0.015 C 
BRANCH  14  15
ATOM     15  C11 UNL     1     143.255 129.017  97.090  0.00  0.00    +0.081 C 
BRANCH  15  16
ATOM     16  N1  UNL     1     142.591 130.118  96.391  0.00  0.00    -0.314 NA
ATOM     17  H18 UNL     1     142.368 130.848  97.066  0.00  0.00    +0.122 HD
BRANCH  16  18
ATOM     18  C12 UNL     1     143.435 130.707  95.336  0.00  0.00    +0.108 C 
BRANCH  18  19
ATOM     19  C13 UNL     1     143.390 132.239  95.251  0.00  0.00    +0.171 C 
BRANCH  19  20
ATOM     20  O2  UNL     1     142.109 132.688  94.817  0.00  0.00    -0.394 OA
ATOM     21  H23 UNL     1     141.609 132.919  95.618  0.00  0.00    +0.209 HD
ENDBRANCH  19  20
ENDBRANCH  18  19
ENDBRANCH  16  18
ENDBRANCH  15  16
ENDBRANCH  14  15
ENDBRANCH  13  14
ENDBRANCH  12  13
ENDBRANCH   1  12
TORSDOF 11
ENDMDL
MODEL 7
REMARK VINA RESULT:    -2.637      2.024      4.618
REMARK INTER + INTRA:          -6.595
REMARK INTER:                  -4.517
REMARK INTRA:                  -2.078
REMARK UNBOUND:                -2.339
REMARK  Name = /home/vital/Documents/PhD_2021/Malaria_codes/data/pdb_ligands_mmv/ligand_262.pdb
REMARK  13 active torsions:
REMARK  status: ('A' for Active; 'I' for Inactive)
REMARK    1  A    between atoms: C1_1  and  C2_2
REMARK    2  A    between atoms: C5_5  and  O1_6
REMARK    3  A    between atoms: O1_6  and  C6_7
REMARK    4  A    between atoms: C6_7  and  C7_8
REMARK    5  A    between atoms: C7_8  and  C8_9
REMARK    6  A    between atoms: C8_9  and  C9_10
REMARK    7  A    between atoms: C9_10  and  C10_11
REMARK    8  A    between atoms: C10_11  and  C11_12
REMARK    9  A    between atoms: C11_12  and  N1_13
REMARK   10  A    between atoms: N1_13  and  C12_14
REMARK   11  A    between atoms: C12_14  and  C13_15
REMARK   12  A    between atoms: C13_15  and  O2_16
REMARK   13  A    between atoms: C14_17  and  C15_18
REMARK                            x       y       z     vdW  Elec       q    Type
REMARK                         _______ _______ _______ _____ _____    ______ ____
ROOT
ATOM      1  C7  UNL     1     138.910 127.163  98.039  0.00  0.00    +0.041 C 
ENDROOT
BRANCH   1   2
ATOM      2  C6  UNL     1     138.275 128.421  98.629  0.00  0.00    +0.229 C 
BRANCH   2   3
ATOM      3  O1  UNL     1     138.712 128.617  99.975  0.00  0.00    -0.492 OA
BRANCH   3   8
ATOM      4  C1  UNL     1     143.494 131.462 101.143  0.00  0.00    +0.044 C 
ATOM      5  C2  UNL     1     142.237 130.724 100.797  0.00  0.00    -0.050 A 
ATOM      6  C3  UNL     1     141.258 131.321  99.998  0.00  0.00    +0.007 A 
ATOM      7  C4  UNL     1     140.071 130.645  99.701  0.00  0.00    +0.046 A 
ATOM      8  C5  UNL     1     139.834 129.366 100.209  0.00  0.00    +0.123 A 
ATOM      9  C14 UNL     1     140.810 128.757 101.020  0.00  0.00    -0.009 A 
ATOM     10  C15 UNL     1     140.589 127.380 101.583  0.00  0.00    +0.047 C 
ATOM     11  C16 UNL     1     141.998 129.445 101.313  0.00  0.00    +0.010 A 
ENDBRANCH   3   8
ENDBRANCH   2   3
ENDBRANCH   1   2
BRANCH   1  12
ATOM     12  C8  UNL     1     139.873 127.449  96.884  0.00  0.00    +0.003 C 
BRANCH  12  13
ATOM     13  C9  UNL     1     141.332 127.145  97.233  0.00  0.00    +0.001 C 
BRANCH  13  14
ATOM     14  C10 UNL     1     142.217 128.386  97.417  0.00  0.00    +0.015 C 
BRANCH  14  15
ATOM     15  C11 UNL     1     143.573 128.342  96.703  0.00  0.00    +0.081 C 
BRANCH  15  16
ATOM     16  N1  UNL     1     143.927 129.642  96.132  0.00  0.00    -0.314 NA
ATOM     17  H18 UNL     1     143.348 129.807  95.309  0.00  0.00    +0.122 HD
BRANCH  16  18
ATOM     18  C12 UNL     1     143.711 130.751  97.078  0.00  0.00    +0.108 C 
BRANCH  18  19
ATOM     19  C13 UNL     1     143.218 132.059  96.442  0.00  0.00    +0.171 C 
BRANCH  19  20
ATOM     20  O2  UNL     1     142.369 131.794  95.328  0.00  0.00    -0.394 OA
ATOM     21  H23 UNL     1     141.958 130.928  95.490  0.00  0.00    +0.209 HD
ENDBRANCH  19  20
ENDBRANCH  18  19
ENDBRANCH  16  18
ENDBRANCH  15  16
ENDBRANCH  14  15
ENDBRANCH  13  14
ENDBRANCH  12  13
ENDBRANCH   1  12
TORSDOF 11
ENDMDL
MODEL 8
REMARK VINA RESULT:    -2.541      2.014      4.446
REMARK INTER + INTRA:          -6.440
REMARK INTER:                  -3.964
REMARK INTRA:                  -2.477
REMARK UNBOUND:                -2.339
REMARK  Name = /home/vital/Documents/PhD_2021/Malaria_codes/data/pdb_ligands_mmv/ligand_262.pdb
REMARK  13 active torsions:
REMARK  status: ('A' for Active; 'I' for Inactive)
REMARK    1  A    between atoms: C1_1  and  C2_2
REMARK    2  A    between atoms: C5_5  and  O1_6
REMARK    3  A    between atoms: O1_6  and  C6_7
REMARK    4  A    between atoms: C6_7  and  C7_8
REMARK    5  A    between atoms: C7_8  and  C8_9
REMARK    6  A    between atoms: C8_9  and  C9_10
REMARK    7  A    between atoms: C9_10  and  C10_11
REMARK    8  A    between atoms: C10_11  and  C11_12
REMARK    9  A    between atoms: C11_12  and  N1_13
REMARK   10  A    between atoms: N1_13  and  C12_14
REMARK   11  A    between atoms: C12_14  and  C13_15
REMARK   12  A    between atoms: C13_15  and  O2_16
REMARK   13  A    between atoms: C14_17  and  C15_18
REMARK                            x       y       z     vdW  Elec       q    Type
REMARK                         _______ _______ _______ _____ _____    ______ ____
ROOT
ATOM      1  C7  UNL     1     138.667 128.684  98.353  0.00  0.00    +0.041 C 
ENDROOT
BRANCH   1   2
ATOM      2  C6  UNL     1     138.410 128.665  99.859  0.00  0.00    +0.229 C 
BRANCH   2   3
ATOM      3  O1  UNL     1     139.148 129.705 100.504  0.00  0.00    -0.492 OA
BRANCH   3   8
ATOM      4  C1  UNL     1     144.443 128.869 102.399  0.00  0.00    +0.044 C 
ATOM      5  C2  UNL     1     143.034 129.077 101.935  0.00  0.00    -0.050 A 
ATOM      6  C3  UNL     1     142.056 128.108 102.175  0.00  0.00    +0.007 A 
ATOM      7  C4  UNL     1     140.748 128.286 101.714  0.00  0.00    +0.046 A 
ATOM      8  C5  UNL     1     140.398 129.430 100.993  0.00  0.00    +0.123 A 
ATOM      9  C14 UNL     1     141.375 130.410 100.741  0.00  0.00    -0.009 A 
ATOM     10  C15 UNL     1     141.033 131.655  99.969  0.00  0.00    +0.047 C 
ATOM     11  C16 UNL     1     142.686 130.220 101.206  0.00  0.00    +0.010 A 
ENDBRANCH   3   8
ENDBRANCH   2   3
ENDBRANCH   1   2
BRANCH   1  12
ATOM     12  C8  UNL     1     138.856 127.290  97.749  0.00  0.00    +0.003 C 
BRANCH  12  13
ATOM     13  C9  UNL     1     140.273 126.745  97.934  0.00  0.00    +0.001 C 
BRANCH  13  14
ATOM     14  C10 UNL     1     141.391 127.744  97.603  0.00  0.00    +0.015 C 
BRANCH  14  15
ATOM     15  C11 UNL     1     142.711 127.532  98.356  0.00  0.00    +0.081 C 
BRANCH  15  16
ATOM     16  N1  UNL     1     143.690 128.573  98.037  0.00  0.00    -0.314 NA
ATOM     17  H18 UNL     1     144.521 128.131  97.645  0.00  0.00    +0.122 HD
BRANCH  16  18
ATOM     18  C12 UNL     1     143.179 129.545  97.055  0.00  0.00    +0.108 C 
BRANCH  18  19
ATOM     19  C13 UNL     1     143.647 130.992  97.272  0.00  0.00    +0.171 C 
BRANCH  19  20
ATOM     20  O2  UNL     1     144.578 131.070  98.348  0.00  0.00    -0.394 OA
ATOM     21  H23 UNL     1     144.508 130.232  98.837  0.00  0.00    +0.209 HD
ENDBRANCH  19  20
ENDBRANCH  18  19
ENDBRANCH  16  18
ENDBRANCH  15  16
ENDBRANCH  14  15
ENDBRANCH  13  14
ENDBRANCH  12  13
ENDBRANCH   1  12
TORSDOF 11
ENDMDL
MODEL 9
REMARK VINA RESULT:    -2.383      1.302      2.178
REMARK INTER + INTRA:          -6.184
REMARK INTER:                  -3.708
REMARK INTRA:                  -2.476
REMARK UNBOUND:                -2.339
REMARK  Name = /home/vital/Documents/PhD_2021/Malaria_codes/data/pdb_ligands_mmv/ligand_262.pdb
REMARK  13 active torsions:
REMARK  status: ('A' for Active; 'I' for Inactive)
REMARK    1  A    between atoms: C1_1  and  C2_2
REMARK    2  A    between atoms: C5_5  and  O1_6
REMARK    3  A    between atoms: O1_6  and  C6_7
REMARK    4  A    between atoms: C6_7  and  C7_8
REMARK    5  A    between atoms: C7_8  and  C8_9
REMARK    6  A    between atoms: C8_9  and  C9_10
REMARK    7  A    between atoms: C9_10  and  C10_11
REMARK    8  A    between atoms: C10_11  and  C11_12
REMARK    9  A    between atoms: C11_12  and  N1_13
REMARK   10  A    between atoms: N1_13  and  C12_14
REMARK   11  A    between atoms: C12_14  and  C13_15
REMARK   12  A    between atoms: C13_15  and  O2_16
REMARK   13  A    between atoms: C14_17  and  C15_18
REMARK                            x       y       z     vdW  Elec       q    Type
REMARK                         _______ _______ _______ _____ _____    ______ ____
ROOT
ATOM      1  C7  UNL     1     145.142 130.471 100.432  0.00  0.00    +0.041 C 
ENDROOT
BRANCH   1   2
ATOM      2  C6  UNL     1     144.052 131.412 100.945  0.00  0.00    +0.229 C 
BRANCH   2   3
ATOM      3  O1  UNL     1     143.090 130.688 101.715  0.00  0.00    -0.492 OA
BRANCH   3   8
ATOM      4  C1  UNL     1     138.433 128.465  99.328  0.00  0.00    +0.044 C 
ATOM      5  C2  UNL     1     139.641 129.084  99.964  0.00  0.00    -0.050 A 
ATOM      6  C3  UNL     1     140.009 130.397  99.661  0.00  0.00    +0.007 A 
ATOM      7  C4  UNL     1     141.153 130.965 100.229  0.00  0.00    +0.046 A 
ATOM      8  C5  UNL     1     141.957 130.226 101.100  0.00  0.00    +0.123 A 
ATOM      9  C14 UNL     1     141.598 128.901 101.409  0.00  0.00    -0.009 A 
ATOM     10  C15 UNL     1     142.439 128.077 102.344  0.00  0.00    +0.047 C 
ATOM     11  C16 UNL     1     140.449 128.340 100.831  0.00  0.00    +0.010 A 
ENDBRANCH   3   8
ENDBRANCH   2   3
ENDBRANCH   1   2
BRANCH   1  12
ATOM     12  C8  UNL     1     145.186 130.361  98.906  0.00  0.00    +0.003 C 
BRANCH  12  13
ATOM     13  C9  UNL     1     144.364 129.188  98.368  0.00  0.00    +0.001 C 
BRANCH  13  14
ATOM     14  C10 UNL     1     144.637 127.845  99.060  0.00  0.00    +0.015 C 
BRANCH  14  15
ATOM     15  C11 UNL     1     143.847 126.648  98.515  0.00  0.00    +0.081 C 
BRANCH  15  16
ATOM     16  N1  UNL     1     142.404 126.837  98.667  0.00  0.00    -0.314 NA
ATOM     17  H18 UNL     1     142.207 127.836  98.713  0.00  0.00    +0.122 HD
BRANCH  16  18
ATOM     18  C12 UNL     1     141.639 126.268  97.543  0.00  0.00    +0.108 C 
BRANCH  18  19
ATOM     19  C13 UNL     1     141.307 127.259  96.418  0.00  0.00    +0.171 C 
BRANCH  19  20
ATOM     20  O2  UNL     1     141.279 128.597  96.909  0.00  0.00    -0.394 OA
ATOM     21  H23 UNL     1     141.057 129.166  96.153  0.00  0.00    +0.209 HD
ENDBRANCH  19  20
ENDBRANCH  18  19
ENDBRANCH  16  18
ENDBRANCH  15  16
ENDBRANCH  14  15
ENDBRANCH  13  14
ENDBRANCH  12  13
ENDBRANCH   1  12
TORSDOF 11
ENDMDL
