MODEL 1
REMARK VINA RESULT:    -4.842      0.000      0.000
REMARK INTER + INTRA:          -6.710
REMARK INTER:                  -5.974
REMARK INTRA:                  -0.735
REMARK UNBOUND:                -0.735
REMARK  Name = /home/vital/Documents/PhD_2021/Malaria_codes/data/pdb_ligands_mmv/ligand_22.pdb
REMARK  5 active torsions:
REMARK  status: ('A' for Active; 'I' for Inactive)
REMARK    1  A    between atoms: C1_1  and  C2_2
REMARK    2  A    between atoms: N1_5  and  C5_6
REMARK    3  A    between atoms: C5_6  and  C6_7
REMARK    4  A    between atoms: C9_10  and  N2_11
REMARK    5  A    between atoms: C10_12  and  C11_14
REMARK                            x       y       z     vdW  Elec       q    Type
REMARK                         _______ _______ _______ _____ _____    ______ ____
ROOT
ATOM      1  N2  UNL     1     138.149 126.738  89.794  0.00  0.00    -0.280 N 
ATOM      2  C10 UNL     1     139.248 126.033  90.254  0.00  0.00    +0.265 C 
ATOM      3  O1  UNL     1     139.508 124.870  89.972  0.00  0.00    -0.268 OA
ATOM      4  H13 UNL     1     138.155 127.736  89.940  0.00  0.00    +0.155 HD
ENDROOT
BRANCH   2   5
ATOM      5  C11 UNL     1     140.130 126.818  91.102  0.00  0.00    +0.103 A 
ATOM      6  C12 UNL     1     141.086 126.347  91.992  0.00  0.00    +0.041 A 
ATOM      7  C13 UNL     1     141.717 127.457  92.616  0.00  0.00    +0.003 A 
ATOM      8  C14 UNL     1     142.745 127.603  93.568  0.00  0.00    +0.011 A 
ATOM      9  C15 UNL     1     143.129 128.890  93.978  0.00  0.00    +0.011 A 
ATOM     10  C16 UNL     1     142.499 130.029  93.453  0.00  0.00    +0.002 A 
ATOM     11  C17 UNL     1     142.831 131.340  93.819  0.00  0.00    +0.011 A 
ATOM     12  C18 UNL     1     142.147 132.412  93.243  0.00  0.00    +0.020 A 
ATOM     13  C19 UNL     1     141.149 132.147  92.314  0.00  0.00    +0.111 A 
ATOM     14  N3  UNL     1     140.788 130.906  91.922  0.00  0.00    -0.253 NA
ATOM     15  C20 UNL     1     141.472 129.890  92.504  0.00  0.00    +0.095 A 
ATOM     16  C21 UNL     1     141.108 128.600  92.108  0.00  0.00    +0.073 A 
ATOM     17  N4  UNL     1     140.143 128.189  91.220  0.00  0.00    -0.349 N 
ATOM     18  H20 UNL     1     139.518 128.840  90.763  0.00  0.00    +0.166 HD
ENDBRANCH   2   5
BRANCH   1  22
ATOM     19  C6  UNL     1     134.966 125.396  87.342  0.00  0.00    -0.033 A 
ATOM     20  C7  UNL     1     135.062 124.939  88.662  0.00  0.00    +0.007 A 
ATOM     21  C8  UNL     1     136.105 125.365  89.493  0.00  0.00    +0.023 A 
ATOM     22  C9  UNL     1     137.074 126.250  89.019  0.00  0.00    +0.034 A 
ATOM     23  C22 UNL     1     136.979 126.710  87.700  0.00  0.00    +0.023 A 
ATOM     24  C23 UNL     1     135.939 126.284  86.869  0.00  0.00    +0.007 A 
BRANCH  19  25
ATOM     25  C5  UNL     1     133.845 124.926  86.439  0.00  0.00    +0.119 C 
BRANCH  25  30
ATOM     26  C1  UNL     1     132.011 121.195  88.860  0.00  0.00    +0.007 C 
ATOM     27  C2  UNL     1     131.126 121.912  87.837  0.00  0.00    -0.012 C 
ATOM     28  C3  UNL     1     130.903 123.386  88.222  0.00  0.00    +0.018 C 
ATOM     29  C4  UNL     1     131.656 124.378  87.325  0.00  0.00    +0.085 C 
ATOM     30  N1  UNL     1     133.005 123.886  87.051  0.00  0.00    -0.298 NA
ATOM     31  C24 UNL     1     132.984 122.651  86.247  0.00  0.00    +0.085 C 
ATOM     32  C25 UNL     1     131.709 121.812  86.425  0.00  0.00    +0.018 C 
ENDBRANCH  25  30
ENDBRANCH  19  25
ENDBRANCH   1  22
TORSDOF 4
ENDMDL
MODEL 2
REMARK VINA RESULT:    -4.600     12.194     15.571
REMARK INTER + INTRA:          -6.411
REMARK INTER:                  -5.645
REMARK INTRA:                  -0.766
REMARK UNBOUND:                -0.735
REMARK  Name = /home/vital/Documents/PhD_2021/Malaria_codes/data/pdb_ligands_mmv/ligand_22.pdb
REMARK  5 active torsions:
REMARK  status: ('A' for Active; 'I' for Inactive)
REMARK    1  A    between atoms: C1_1  and  C2_2
REMARK    2  A    between atoms: N1_5  and  C5_6
REMARK    3  A    between atoms: C5_6  and  C6_7
REMARK    4  A    between atoms: C9_10  and  N2_11
REMARK    5  A    between atoms: C10_12  and  C11_14
REMARK                            x       y       z     vdW  Elec       q    Type
REMARK                         _______ _______ _______ _____ _____    ______ ____
ROOT
ATOM      1  N2  UNL     1     142.159 129.215 102.236  0.00  0.00    -0.280 N 
ATOM      2  C10 UNL     1     142.581 127.901 102.115  0.00  0.00    +0.265 C 
ATOM      3  O1  UNL     1     143.256 127.460 101.194  0.00  0.00    -0.268 OA
ATOM      4  H13 UNL     1     141.781 129.491 103.130  0.00  0.00    +0.155 HD
ENDROOT
BRANCH   2   5
ATOM      5  C11 UNL     1     142.180 127.057 103.228  0.00  0.00    +0.103 A 
ATOM      6  C12 UNL     1     142.981 126.578 104.257  0.00  0.00    +0.041 A 
ATOM      7  C13 UNL     1     142.184 125.787 105.128  0.00  0.00    +0.003 A 
ATOM      8  C14 UNL     1     142.429 125.074 106.318  0.00  0.00    +0.011 A 
ATOM      9  C15 UNL     1     141.379 124.375 106.933  0.00  0.00    +0.011 A 
ATOM     10  C16 UNL     1     140.090 124.377 106.375  0.00  0.00    +0.002 A 
ATOM     11  C17 UNL     1     138.999 123.700 106.936  0.00  0.00    +0.011 A 
ATOM     12  C18 UNL     1     137.754 123.758 106.307  0.00  0.00    +0.020 A 
ATOM     13  C19 UNL     1     137.630 124.493 105.135  0.00  0.00    +0.111 A 
ATOM     14  N3  UNL     1     138.645 125.166 104.551  0.00  0.00    -0.253 NA
ATOM     15  C20 UNL     1     139.839 125.085 105.187  0.00  0.00    +0.095 A 
ATOM     16  C21 UNL     1     140.899 125.776 104.593  0.00  0.00    +0.073 A 
ATOM     17  N4  UNL     1     140.929 126.524 103.441  0.00  0.00    -0.349 N 
ATOM     18  H20 UNL     1     140.124 126.615 102.837  0.00  0.00    +0.166 HD
ENDBRANCH   2   5
BRANCH   1  22
ATOM     19  C6  UNL     1     142.797 132.387  99.503  0.00  0.00    -0.033 A 
ATOM     20  C7  UNL     1     141.530 131.799  99.596  0.00  0.00    +0.007 A 
ATOM     21  C8  UNL     1     141.292 130.747 100.489  0.00  0.00    +0.023 A 
ATOM     22  C9  UNL     1     142.318 130.261 101.302  0.00  0.00    +0.034 A 
ATOM     23  C22 UNL     1     143.585 130.848 101.211  0.00  0.00    +0.023 A 
ATOM     24  C23 UNL     1     143.824 131.897 100.318  0.00  0.00    +0.007 A 
BRANCH  19  25
ATOM     25  C5  UNL     1     143.058 133.516  98.528  0.00  0.00    +0.119 C 
BRANCH  25  30
ATOM     26  C1  UNL     1     147.338 132.539  96.561  0.00  0.00    +0.007 C 
ATOM     27  C2  UNL     1     146.236 133.114  95.669  0.00  0.00    -0.012 C 
ATOM     28  C3  UNL     1     145.019 132.173  95.603  0.00  0.00    +0.018 C 
ATOM     29  C4  UNL     1     143.795 132.693  96.371  0.00  0.00    +0.085 C 
ATOM     30  N1  UNL     1     144.210 133.269  97.648  0.00  0.00    -0.298 NA
ATOM     31  C24 UNL     1     145.031 134.478  97.462  0.00  0.00    +0.085 C 
ATOM     32  C25 UNL     1     145.807 134.508  96.136  0.00  0.00    +0.018 C 
ENDBRANCH  25  30
ENDBRANCH  19  25
ENDBRANCH   1  22
TORSDOF 4
ENDMDL
MODEL 3
REMARK VINA RESULT:    -4.493      2.873      3.849
REMARK INTER + INTRA:          -6.279
REMARK INTER:                  -5.493
REMARK INTRA:                  -0.786
REMARK UNBOUND:                -0.735
REMARK  Name = /home/vital/Documents/PhD_2021/Malaria_codes/data/pdb_ligands_mmv/ligand_22.pdb
REMARK  5 active torsions:
REMARK  status: ('A' for Active; 'I' for Inactive)
REMARK    1  A    between atoms: C1_1  and  C2_2
REMARK    2  A    between atoms: N1_5  and  C5_6
REMARK    3  A    between atoms: C5_6  and  C6_7
REMARK    4  A    between atoms: C9_10  and  N2_11
REMARK    5  A    between atoms: C10_12  and  C11_14
REMARK                            x       y       z     vdW  Elec       q    Type
REMARK                         _______ _______ _______ _____ _____    ______ ____
ROOT
ATOM      1  N2  UNL     1     137.876 127.588  89.150  0.00  0.00    -0.280 N 
ATOM      2  C10 UNL     1     138.672 128.218  88.208  0.00  0.00    +0.265 C 
ATOM      3  O1  UNL     1     138.776 127.883  87.035  0.00  0.00    -0.268 OA
ATOM      4  H13 UNL     1     137.729 128.076  90.020  0.00  0.00    +0.155 HD
ENDROOT
BRANCH   2   5
ATOM      5  C11 UNL     1     139.375 129.381  88.724  0.00  0.00    +0.103 A 
ATOM      6  C12 UNL     1     139.893 129.558  90.000  0.00  0.00    +0.041 A 
ATOM      7  C13 UNL     1     140.495 130.843  90.075  0.00  0.00    +0.003 A 
ATOM      8  C14 UNL     1     141.179 131.557  91.080  0.00  0.00    +0.011 A 
ATOM      9  C15 UNL     1     141.653 132.850  90.807  0.00  0.00    +0.011 A 
ATOM     10  C16 UNL     1     141.451 133.439  89.548  0.00  0.00    +0.002 A 
ATOM     11  C17 UNL     1     141.895 134.724  89.210  0.00  0.00    +0.011 A 
ATOM     12  C18 UNL     1     141.646 135.226  87.932  0.00  0.00    +0.020 A 
ATOM     13  C19 UNL     1     140.961 134.431  87.022  0.00  0.00    +0.111 A 
ATOM     14  N3  UNL     1     140.512 133.187  87.292  0.00  0.00    -0.253 NA
ATOM     15  C20 UNL     1     140.769 132.732  88.543  0.00  0.00    +0.095 A 
ATOM     16  C21 UNL     1     140.308 131.445  88.835  0.00  0.00    +0.073 A 
ATOM     17  N4  UNL     1     139.612 130.558  88.050  0.00  0.00    -0.349 N 
ATOM     18  H20 UNL     1     139.301 130.793  87.117  0.00  0.00    +0.166 HD
ENDBRANCH   2   5
BRANCH   1  22
ATOM     19  C6  UNL     1     135.763 123.937  88.767  0.00  0.00    -0.033 A 
ATOM     20  C7  UNL     1     135.338 125.061  88.048  0.00  0.00    +0.007 A 
ATOM     21  C8  UNL     1     136.017 126.281  88.158  0.00  0.00    +0.023 A 
ATOM     22  C9  UNL     1     137.130 126.401  88.992  0.00  0.00    +0.034 A 
ATOM     23  C22 UNL     1     137.558 125.278  89.710  0.00  0.00    +0.023 A 
ATOM     24  C23 UNL     1     136.880 124.060  89.602  0.00  0.00    +0.007 A 
BRANCH  19  25
ATOM     25  C5  UNL     1     135.022 122.621  88.657  0.00  0.00    +0.119 C 
BRANCH  25  30
ATOM     26  C1  UNL     1     130.525 124.032  89.622  0.00  0.00    +0.007 C 
ATOM     27  C2  UNL     1     130.781 122.552  89.325  0.00  0.00    -0.012 C 
ATOM     28  C3  UNL     1     131.339 122.354  87.903  0.00  0.00    +0.018 C 
ATOM     29  C4  UNL     1     132.824 121.967  87.872  0.00  0.00    +0.085 C 
ATOM     30  N1  UNL     1     133.570 122.755  88.851  0.00  0.00    -0.298 NA
ATOM     31  C24 UNL     1     133.167 122.437  90.232  0.00  0.00    +0.085 C 
ATOM     32  C25 UNL     1     131.723 121.928  90.358  0.00  0.00    +0.018 C 
ENDBRANCH  25  30
ENDBRANCH  19  25
ENDBRANCH   1  22
TORSDOF 4
ENDMDL
MODEL 4
REMARK VINA RESULT:    -4.256      2.561      3.657
REMARK INTER + INTRA:          -5.986
REMARK INTER:                  -5.300
REMARK INTRA:                  -0.686
REMARK UNBOUND:                -0.735
REMARK  Name = /home/vital/Documents/PhD_2021/Malaria_codes/data/pdb_ligands_mmv/ligand_22.pdb
REMARK  5 active torsions:
REMARK  status: ('A' for Active; 'I' for Inactive)
REMARK    1  A    between atoms: C1_1  and  C2_2
REMARK    2  A    between atoms: N1_5  and  C5_6
REMARK    3  A    between atoms: C5_6  and  C6_7
REMARK    4  A    between atoms: C9_10  and  N2_11
REMARK    5  A    between atoms: C10_12  and  C11_14
REMARK                            x       y       z     vdW  Elec       q    Type
REMARK                         _______ _______ _______ _____ _____    ______ ____
ROOT
ATOM      1  N2  UNL     1     137.760 127.397  88.294  0.00  0.00    -0.280 N 
ATOM      2  C10 UNL     1     137.409 128.625  87.761  0.00  0.00    +0.265 C 
ATOM      3  O1  UNL     1     136.404 128.845  87.096  0.00  0.00    -0.268 OA
ATOM      4  H13 UNL     1     138.500 127.392  88.979  0.00  0.00    +0.155 HD
ENDROOT
BRANCH   2   5
ATOM      5  C11 UNL     1     138.340 129.691  88.094  0.00  0.00    +0.103 A 
ATOM      6  C12 UNL     1     138.825 130.684  87.252  0.00  0.00    +0.041 A 
ATOM      7  C13 UNL     1     139.713 131.514  87.988  0.00  0.00    +0.003 A 
ATOM      8  C14 UNL     1     140.475 132.659  87.684  0.00  0.00    +0.011 A 
ATOM      9  C15 UNL     1     141.273 133.243  88.681  0.00  0.00    +0.011 A 
ATOM     10  C16 UNL     1     141.322 132.696  89.973  0.00  0.00    +0.002 A 
ATOM     11  C17 UNL     1     142.097 133.226  91.013  0.00  0.00    +0.011 A 
ATOM     12  C18 UNL     1     142.083 132.612  92.266  0.00  0.00    +0.020 A 
ATOM     13  C19 UNL     1     141.292 131.485  92.451  0.00  0.00    +0.111 A 
ATOM     14  N3  UNL     1     140.524 130.933  91.487  0.00  0.00    -0.253 NA
ATOM     15  C20 UNL     1     140.564 131.553  90.282  0.00  0.00    +0.095 A 
ATOM     16  C21 UNL     1     139.775 130.991  89.275  0.00  0.00    +0.073 A 
ATOM     17  N4  UNL     1     138.962 129.884  89.307  0.00  0.00    -0.349 N 
ATOM     18  H20 UNL     1     138.888 129.292  90.123  0.00  0.00    +0.166 HD
ENDBRANCH   2   5
BRANCH   1  22
ATOM     19  C6  UNL     1     135.872 123.681  87.534  0.00  0.00    -0.033 A 
ATOM     20  C7  UNL     1     135.667 124.323  88.761  0.00  0.00    +0.007 A 
ATOM     21  C8  UNL     1     136.281 125.551  89.039  0.00  0.00    +0.023 A 
ATOM     22  C9  UNL     1     137.114 126.156  88.098  0.00  0.00    +0.034 A 
ATOM     23  C22 UNL     1     137.320 125.518  86.870  0.00  0.00    +0.023 A 
ATOM     24  C23 UNL     1     136.709 124.291  86.592  0.00  0.00    +0.007 A 
BRANCH  19  25
ATOM     25  C5  UNL     1     135.218 122.348  87.238  0.00  0.00    +0.119 C 
BRANCH  25  30
ATOM     26  C1  UNL     1     131.098 122.672  89.700  0.00  0.00    +0.007 C 
ATOM     27  C2  UNL     1     131.219 121.602  88.611  0.00  0.00    -0.012 C 
ATOM     28  C3  UNL     1     131.451 122.235  87.226  0.00  0.00    +0.018 C 
ATOM     29  C4  UNL     1     132.877 122.041  86.691  0.00  0.00    +0.085 C 
ATOM     30  N1  UNL     1     133.849 122.244  87.764  0.00  0.00    -0.298 NA
ATOM     31  C24 UNL     1     133.736 121.210  88.807  0.00  0.00    +0.085 C 
ATOM     32  C25 UNL     1     132.331 120.601  88.933  0.00  0.00    +0.018 C 
ENDBRANCH  25  30
ENDBRANCH  19  25
ENDBRANCH   1  22
TORSDOF 4
ENDMDL
MODEL 5
REMARK VINA RESULT:    -4.215     17.195     21.105
REMARK INTER + INTRA:          -5.936
REMARK INTER:                  -5.209
REMARK INTRA:                  -0.728
REMARK UNBOUND:                -0.735
REMARK  Name = /home/vital/Documents/PhD_2021/Malaria_codes/data/pdb_ligands_mmv/ligand_22.pdb
REMARK  5 active torsions:
REMARK  status: ('A' for Active; 'I' for Inactive)
REMARK    1  A    between atoms: C1_1  and  C2_2
REMARK    2  A    between atoms: N1_5  and  C5_6
REMARK    3  A    between atoms: C5_6  and  C6_7
REMARK    4  A    between atoms: C9_10  and  N2_11
REMARK    5  A    between atoms: C10_12  and  C11_14
REMARK                            x       y       z     vdW  Elec       q    Type
REMARK                         _______ _______ _______ _____ _____    ______ ____
ROOT
ATOM      1  N2  UNL     1     141.708 142.350 102.941  0.00  0.00    -0.280 N 
ATOM      2  C10 UNL     1     140.753 142.309 103.943  0.00  0.00    +0.265 C 
ATOM      3  O1  UNL     1     139.617 142.757 103.854  0.00  0.00    -0.268 OA
ATOM      4  H13 UNL     1     142.528 141.778 103.070  0.00  0.00    +0.155 HD
ENDROOT
BRANCH   2   5
ATOM      5  C11 UNL     1     141.204 141.631 105.148  0.00  0.00    +0.103 A 
ATOM      6  C12 UNL     1     140.467 141.367 106.295  0.00  0.00    +0.041 A 
ATOM      7  C13 UNL     1     141.298 140.689 107.227  0.00  0.00    +0.003 A 
ATOM      8  C14 UNL     1     141.110 140.166 108.522  0.00  0.00    +0.011 A 
ATOM      9  C15 UNL     1     142.182 139.541 109.178  0.00  0.00    +0.011 A 
ATOM     10  C16 UNL     1     143.439 139.436 108.560  0.00  0.00    +0.002 A 
ATOM     11  C17 UNL     1     144.551 138.829 109.157  0.00  0.00    +0.011 A 
ATOM     12  C18 UNL     1     145.762 138.773 108.465  0.00  0.00    +0.020 A 
ATOM     13  C19 UNL     1     145.831 139.323 107.192  0.00  0.00    +0.111 A 
ATOM     14  N3  UNL     1     144.793 139.919 106.567  0.00  0.00    -0.253 NA
ATOM     15  C20 UNL     1     143.634 139.957 107.269  0.00  0.00    +0.095 A 
ATOM     16  C21 UNL     1     142.551 140.572 106.634  0.00  0.00    +0.073 A 
ATOM     17  N4  UNL     1     142.476 141.166 105.397  0.00  0.00    -0.349 N 
ATOM     18  H20 UNL     1     143.282 141.263 104.795  0.00  0.00    +0.166 HD
ENDBRANCH   2   5
BRANCH   1  22
ATOM     19  C6  UNL     1     141.475 144.125  99.102  0.00  0.00    -0.033 A 
ATOM     20  C7  UNL     1     141.389 144.932 100.243  0.00  0.00    +0.007 A 
ATOM     21  C8  UNL     1     141.461 144.371 101.524  0.00  0.00    +0.023 A 
ATOM     22  C9  UNL     1     141.614 142.993 101.688  0.00  0.00    +0.034 A 
ATOM     23  C22 UNL     1     141.702 142.185 100.548  0.00  0.00    +0.023 A 
ATOM     24  C23 UNL     1     141.629 142.744  99.269  0.00  0.00    +0.007 A 
BRANCH  19  25
ATOM     25  C5  UNL     1     141.385 144.730  97.717  0.00  0.00    +0.119 C 
BRANCH  25  30
ATOM     26  C1  UNL     1     141.593 140.892  94.824  0.00  0.00    +0.007 C 
ATOM     27  C2  UNL     1     140.899 142.157  94.314  0.00  0.00    -0.012 C 
ATOM     28  C3  UNL     1     139.681 142.518  95.186  0.00  0.00    +0.018 C 
ATOM     29  C4  UNL     1     139.900 143.755  96.068  0.00  0.00    +0.085 C 
ATOM     30  N1  UNL     1     141.239 143.725  96.653  0.00  0.00    -0.298 NA
ATOM     31  C24 UNL     1     142.288 143.853  95.626  0.00  0.00    +0.085 C 
ATOM     32  C25 UNL     1     141.870 143.338  94.240  0.00  0.00    +0.018 C 
ENDBRANCH  25  30
ENDBRANCH  19  25
ENDBRANCH   1  22
TORSDOF 4
ENDMDL
MODEL 6
REMARK VINA RESULT:    -4.154      1.641      2.802
REMARK INTER + INTRA:          -5.860
REMARK INTER:                  -5.261
REMARK INTRA:                  -0.599
REMARK UNBOUND:                -0.735
REMARK  Name = /home/vital/Documents/PhD_2021/Malaria_codes/data/pdb_ligands_mmv/ligand_22.pdb
REMARK  5 active torsions:
REMARK  status: ('A' for Active; 'I' for Inactive)
REMARK    1  A    between atoms: C1_1  and  C2_2
REMARK    2  A    between atoms: N1_5  and  C5_6
REMARK    3  A    between atoms: C5_6  and  C6_7
REMARK    4  A    between atoms: C9_10  and  N2_11
REMARK    5  A    between atoms: C10_12  and  C11_14
REMARK                            x       y       z     vdW  Elec       q    Type
REMARK                         _______ _______ _______ _____ _____    ______ ____
ROOT
ATOM      1  N2  UNL     1     138.356 126.755  89.881  0.00  0.00    -0.280 N 
ATOM      2  C10 UNL     1     139.703 126.974  89.643  0.00  0.00    +0.265 C 
ATOM      3  O1  UNL     1     140.465 126.174  89.115  0.00  0.00    -0.268 OA
ATOM      4  H13 UNL     1     137.803 127.558  90.138  0.00  0.00    +0.155 HD
ENDROOT
BRANCH   2   5
ATOM      5  C11 UNL     1     140.157 128.295  90.044  0.00  0.00    +0.103 A 
ATOM      6  C12 UNL     1     140.071 129.476  89.318  0.00  0.00    +0.041 A 
ATOM      7  C13 UNL     1     140.640 130.528  90.085  0.00  0.00    +0.003 A 
ATOM      8  C14 UNL     1     140.820 131.911  89.886  0.00  0.00    +0.011 A 
ATOM      9  C15 UNL     1     141.446 132.677  90.882  0.00  0.00    +0.011 A 
ATOM     10  C16 UNL     1     141.897 132.080  92.070  0.00  0.00    +0.002 A 
ATOM     11  C17 UNL     1     142.531 132.783  93.103  0.00  0.00    +0.011 A 
ATOM     12  C18 UNL     1     142.947 132.102  94.248  0.00  0.00    +0.020 A 
ATOM     13  C19 UNL     1     142.717 130.735  94.335  0.00  0.00    +0.111 A 
ATOM     14  N3  UNL     1     142.110 130.007  93.373  0.00  0.00    -0.253 NA
ATOM     15  C20 UNL     1     141.722 130.700  92.274  0.00  0.00    +0.095 A 
ATOM     16  C21 UNL     1     141.094 129.958  91.270  0.00  0.00    +0.073 A 
ATOM     17  N4  UNL     1     140.814 128.614  91.211  0.00  0.00    -0.349 N 
ATOM     18  H20 UNL     1     141.105 127.970  91.935  0.00  0.00    +0.166 HD
ENDBRANCH   2   5
BRANCH   1  22
ATOM     19  C6  UNL     1     136.026 123.280  89.222  0.00  0.00    -0.033 A 
ATOM     20  C7  UNL     1     137.286 123.164  89.821  0.00  0.00    +0.007 A 
ATOM     21  C8  UNL     1     138.078 124.296  90.049  0.00  0.00    +0.023 A 
ATOM     22  C9  UNL     1     137.628 125.564  89.676  0.00  0.00    +0.034 A 
ATOM     23  C22 UNL     1     136.367 125.682  89.079  0.00  0.00    +0.023 A 
ATOM     24  C23 UNL     1     135.576 124.552  88.851  0.00  0.00    +0.007 A 
BRANCH  19  25
ATOM     25  C5  UNL     1     135.175 122.054  88.966  0.00  0.00    +0.119 C 
BRANCH  25  30
ATOM     26  C1  UNL     1     131.072 124.021  87.403  0.00  0.00    +0.007 C 
ATOM     27  C2  UNL     1     131.280 122.516  87.217  0.00  0.00    -0.012 C 
ATOM     28  C3  UNL     1     132.497 122.225  86.319  0.00  0.00    +0.018 C 
ATOM     29  C4  UNL     1     133.704 121.658  87.080  0.00  0.00    +0.085 C 
ATOM     30  N1  UNL     1     133.878 122.368  88.346  0.00  0.00    -0.298 NA
ATOM     31  C24 UNL     1     132.754 122.127  89.268  0.00  0.00    +0.085 C 
ATOM     32  C25 UNL     1     131.428 121.801  88.562  0.00  0.00    +0.018 C 
ENDBRANCH  25  30
ENDBRANCH  19  25
ENDBRANCH   1  22
TORSDOF 4
ENDMDL
MODEL 7
REMARK VINA RESULT:    -4.135      2.417     10.831
REMARK INTER + INTRA:          -5.837
REMARK INTER:                  -5.640
REMARK INTRA:                  -0.197
REMARK UNBOUND:                -0.735
REMARK  Name = /home/vital/Documents/PhD_2021/Malaria_codes/data/pdb_ligands_mmv/ligand_22.pdb
REMARK  5 active torsions:
REMARK  status: ('A' for Active; 'I' for Inactive)
REMARK    1  A    between atoms: C1_1  and  C2_2
REMARK    2  A    between atoms: N1_5  and  C5_6
REMARK    3  A    between atoms: C5_6  and  C6_7
REMARK    4  A    between atoms: C9_10  and  N2_11
REMARK    5  A    between atoms: C10_12  and  C11_14
REMARK                            x       y       z     vdW  Elec       q    Type
REMARK                         _______ _______ _______ _____ _____    ______ ____
ROOT
ATOM      1  N2  UNL     1     138.045 127.425  89.260  0.00  0.00    -0.280 N 
ATOM      2  C10 UNL     1     136.979 127.146  88.422  0.00  0.00    +0.265 C 
ATOM      3  O1  UNL     1     136.608 127.852  87.492  0.00  0.00    -0.268 OA
ATOM      4  H13 UNL     1     138.365 126.676  89.854  0.00  0.00    +0.155 HD
ENDROOT
BRANCH   2   5
ATOM      5  C11 UNL     1     136.327 125.879  88.712  0.00  0.00    +0.103 A 
ATOM      6  C12 UNL     1     136.920 124.629  88.823  0.00  0.00    +0.041 A 
ATOM      7  C13 UNL     1     135.914 123.668  89.112  0.00  0.00    +0.003 A 
ATOM      8  C14 UNL     1     135.911 122.278  89.343  0.00  0.00    +0.011 A 
ATOM      9  C15 UNL     1     134.697 121.623  89.604  0.00  0.00    +0.011 A 
ATOM     10  C16 UNL     1     133.488 122.337  89.633  0.00  0.00    +0.002 A 
ATOM     11  C17 UNL     1     132.242 121.747  89.884  0.00  0.00    +0.011 A 
ATOM     12  C18 UNL     1     131.093 122.538  89.891  0.00  0.00    +0.020 A 
ATOM     13  C19 UNL     1     131.216 123.900  89.649  0.00  0.00    +0.111 A 
ATOM     14  N3  UNL     1     132.389 124.523  89.403  0.00  0.00    -0.253 NA
ATOM     15  C20 UNL     1     133.484 123.723  89.401  0.00  0.00    +0.095 A 
ATOM     16  C21 UNL     1     134.705 124.355  89.147  0.00  0.00    +0.073 A 
ATOM     17  N4  UNL     1     134.975 125.675  88.880  0.00  0.00    -0.349 N 
ATOM     18  H20 UNL     1     134.245 126.368  88.789  0.00  0.00    +0.166 HD
ENDBRANCH   2   5
BRANCH   1  22
ATOM     19  C6  UNL     1     140.544 130.841  89.426  0.00  0.00    -0.033 A 
ATOM     20  C7  UNL     1     139.194 130.988  89.087  0.00  0.00    +0.007 A 
ATOM     21  C8  UNL     1     138.346 129.876  89.022  0.00  0.00    +0.023 A 
ATOM     22  C9  UNL     1     138.833 128.595  89.290  0.00  0.00    +0.034 A 
ATOM     23  C22 UNL     1     140.183 128.446  89.631  0.00  0.00    +0.023 A 
ATOM     24  C23 UNL     1     141.031 129.556  89.695  0.00  0.00    +0.007 A 
BRANCH  19  25
ATOM     25  C5  UNL     1     141.464 132.043  89.485  0.00  0.00    +0.119 C 
BRANCH  25  30
ATOM     26  C1  UNL     1     143.852 131.360  93.605  0.00  0.00    +0.007 C 
ATOM     27  C2  UNL     1     143.320 132.760  93.290  0.00  0.00    -0.012 C 
ATOM     28  C3  UNL     1     143.954 133.326  92.005  0.00  0.00    +0.018 C 
ATOM     29  C4  UNL     1     142.990 133.378  90.812  0.00  0.00    +0.085 C 
ATOM     30  N1  UNL     1     142.189 132.157  90.759  0.00  0.00    -0.298 NA
ATOM     31  C24 UNL     1     141.286 132.044  91.918  0.00  0.00    +0.085 C 
ATOM     32  C25 UNL     1     141.793 132.766  93.176  0.00  0.00    +0.018 C 
ENDBRANCH  25  30
ENDBRANCH  19  25
ENDBRANCH   1  22
TORSDOF 4
ENDMDL
MODEL 8
REMARK VINA RESULT:    -4.123      9.662     11.563
REMARK INTER + INTRA:          -5.823
REMARK INTER:                  -5.363
REMARK INTRA:                  -0.460
REMARK UNBOUND:                -0.735
REMARK  Name = /home/vital/Documents/PhD_2021/Malaria_codes/data/pdb_ligands_mmv/ligand_22.pdb
REMARK  5 active torsions:
REMARK  status: ('A' for Active; 'I' for Inactive)
REMARK    1  A    between atoms: C1_1  and  C2_2
REMARK    2  A    between atoms: N1_5  and  C5_6
REMARK    3  A    between atoms: C5_6  and  C6_7
REMARK    4  A    between atoms: C9_10  and  N2_11
REMARK    5  A    between atoms: C10_12  and  C11_14
REMARK                            x       y       z     vdW  Elec       q    Type
REMARK                         _______ _______ _______ _____ _____    ______ ____
ROOT
ATOM      1  N2  UNL     1     143.127 132.603  94.598  0.00  0.00    -0.280 N 
ATOM      2  C10 UNL     1     144.065 132.049  95.451  0.00  0.00    +0.265 C 
ATOM      3  O1  UNL     1     145.238 131.837  95.168  0.00  0.00    -0.268 OA
ATOM      4  H13 UNL     1     142.257 132.904  95.011  0.00  0.00    +0.155 HD
ENDROOT
BRANCH   2   5
ATOM      5  C11 UNL     1     143.547 131.759  96.778  0.00  0.00    +0.103 A 
ATOM      6  C12 UNL     1     144.114 132.098  98.000  0.00  0.00    +0.041 A 
ATOM      7  C13 UNL     1     143.277 131.618  99.043  0.00  0.00    +0.003 A 
ATOM      8  C14 UNL     1     143.321 131.671 100.450  0.00  0.00    +0.011 A 
ATOM      9  C15 UNL     1     142.297 131.067 101.196  0.00  0.00    +0.011 A 
ATOM     10  C16 UNL     1     141.233 130.410 100.557  0.00  0.00    +0.002 A 
ATOM     11  C17 UNL     1     140.181 129.785 101.240  0.00  0.00    +0.011 A 
ATOM     12  C18 UNL     1     139.167 129.155 100.518  0.00  0.00    +0.020 A 
ATOM     13  C19 UNL     1     139.228 129.165  99.130  0.00  0.00    +0.111 A 
ATOM     14  N3  UNL     1     140.215 129.751  98.420  0.00  0.00    -0.253 NA
ATOM     15  C20 UNL     1     141.184 130.352  99.153  0.00  0.00    +0.095 A 
ATOM     16  C21 UNL     1     142.213 130.962  98.430  0.00  0.00    +0.073 A 
ATOM     17  N4  UNL     1     142.410 131.040  97.073  0.00  0.00    -0.349 N 
ATOM     18  H20 UNL     1     141.798 130.582  96.412  0.00  0.00    +0.166 HD
ENDBRANCH   2   5
BRANCH   1  22
ATOM     19  C6  UNL     1     143.467 133.473  90.466  0.00  0.00    -0.033 A 
ATOM     20  C7  UNL     1     144.485 133.867  91.342  0.00  0.00    +0.007 A 
ATOM     21  C8  UNL     1     144.397 133.594  92.713  0.00  0.00    +0.023 A 
ATOM     22  C9  UNL     1     143.287 132.928  93.234  0.00  0.00    +0.034 A 
ATOM     23  C22 UNL     1     142.268 132.531  92.360  0.00  0.00    +0.023 A 
ATOM     24  C23 UNL     1     142.355 132.804  90.991  0.00  0.00    +0.007 A 
BRANCH  19  25
ATOM     25  C5  UNL     1     143.556 133.778  88.986  0.00  0.00    +0.119 C 
BRANCH  25  30
ATOM     26  C1  UNL     1     140.794 137.706  88.685  0.00  0.00    +0.007 C 
ATOM     27  C2  UNL     1     141.524 137.225  87.429  0.00  0.00    -0.012 C 
ATOM     28  C3  UNL     1     143.052 137.255  87.621  0.00  0.00    +0.018 C 
ATOM     29  C4  UNL     1     143.684 135.863  87.755  0.00  0.00    +0.085 C 
ATOM     30  N1  UNL     1     142.852 135.012  88.605  0.00  0.00    -0.298 NA
ATOM     31  C24 UNL     1     141.545 134.732  87.986  0.00  0.00    +0.085 C 
ATOM     32  C25 UNL     1     141.066 135.824  87.017  0.00  0.00    +0.018 C 
ENDBRANCH  25  30
ENDBRANCH  19  25
ENDBRANCH   1  22
TORSDOF 4
ENDMDL
MODEL 9
REMARK VINA RESULT:    -4.043      9.507     11.638
REMARK INTER + INTRA:          -5.724
REMARK INTER:                  -5.079
REMARK INTRA:                  -0.645
REMARK UNBOUND:                -0.735
REMARK  Name = /home/vital/Documents/PhD_2021/Malaria_codes/data/pdb_ligands_mmv/ligand_22.pdb
REMARK  5 active torsions:
REMARK  status: ('A' for Active; 'I' for Inactive)
REMARK    1  A    between atoms: C1_1  and  C2_2
REMARK    2  A    between atoms: N1_5  and  C5_6
REMARK    3  A    between atoms: C5_6  and  C6_7
REMARK    4  A    between atoms: C9_10  and  N2_11
REMARK    5  A    between atoms: C10_12  and  C11_14
REMARK                            x       y       z     vdW  Elec       q    Type
REMARK                         _______ _______ _______ _____ _____    ______ ____
ROOT
ATOM      1  N2  UNL     1     143.315 132.099  94.205  0.00  0.00    -0.280 N 
ATOM      2  C10 UNL     1     142.380 131.961  93.194  0.00  0.00    +0.265 C 
ATOM      3  O1  UNL     1     141.278 131.442  93.318  0.00  0.00    -0.268 OA
ATOM      4  H13 UNL     1     144.094 132.714  94.024  0.00  0.00    +0.155 HD
ENDROOT
BRANCH   2   5
ATOM      5  C11 UNL     1     142.802 132.539  91.928  0.00  0.00    +0.103 A 
ATOM      6  C12 UNL     1     143.889 132.164  91.149  0.00  0.00    +0.041 A 
ATOM      7  C13 UNL     1     143.935 132.994  89.997  0.00  0.00    +0.003 A 
ATOM      8  C14 UNL     1     144.777 133.077  88.870  0.00  0.00    +0.011 A 
ATOM      9  C15 UNL     1     144.528 134.052  87.891  0.00  0.00    +0.011 A 
ATOM     10  C16 UNL     1     143.454 134.946  88.025  0.00  0.00    +0.002 A 
ATOM     11  C17 UNL     1     143.150 135.944  87.089  0.00  0.00    +0.011 A 
ATOM     12  C18 UNL     1     142.062 136.789  87.309  0.00  0.00    +0.020 A 
ATOM     13  C19 UNL     1     141.301 136.615  88.458  0.00  0.00    +0.111 A 
ATOM     14  N3  UNL     1     141.545 135.671  89.392  0.00  0.00    -0.253 NA
ATOM     15  C20 UNL     1     142.611 134.871  89.148  0.00  0.00    +0.095 A 
ATOM     16  C21 UNL     1     142.876 133.890  90.108  0.00  0.00    +0.073 A 
ATOM     17  N4  UNL     1     142.226 133.612  91.286  0.00  0.00    -0.349 N 
ATOM     18  H20 UNL     1     141.454 134.171  91.622  0.00  0.00    +0.166 HD
ENDBRANCH   2   5
BRANCH   1  22
ATOM     19  C6  UNL     1     143.107 130.736  98.210  0.00  0.00    -0.033 A 
ATOM     20  C7  UNL     1     143.337 129.818  97.179  0.00  0.00    +0.007 A 
ATOM     21  C8  UNL     1     143.409 130.241  95.846  0.00  0.00    +0.023 A 
ATOM     22  C9  UNL     1     143.245 131.589  95.519  0.00  0.00    +0.034 A 
ATOM     23  C22 UNL     1     143.017 132.509  96.549  0.00  0.00    +0.023 A 
ATOM     24  C23 UNL     1     142.944 132.087  97.880  0.00  0.00    +0.007 A 
BRANCH  19  25
ATOM     25  C5  UNL     1     143.018 130.277  99.651  0.00  0.00    +0.119 C 
BRANCH  25  30
ATOM     26  C1  UNL     1     138.595 128.386  99.707  0.00  0.00    +0.007 C 
ATOM     27  C2  UNL     1     139.292 128.661 101.042  0.00  0.00    -0.012 C 
ATOM     28  C3  UNL     1     140.586 127.838 101.181  0.00  0.00    +0.018 C 
ATOM     29  C4  UNL     1     141.866 128.678 101.061  0.00  0.00    +0.085 C 
ATOM     30  N1  UNL     1     141.728 129.654  99.982  0.00  0.00    -0.298 NA
ATOM     31  C24 UNL     1     140.692 130.659 100.283  0.00  0.00    +0.085 C 
ATOM     32  C25 UNL     1     139.587 130.153 101.223  0.00  0.00    +0.018 C 
ENDBRANCH  25  30
ENDBRANCH  19  25
ENDBRANCH   1  22
TORSDOF 4
ENDMDL
