MODEL 1
REMARK VINA RESULT:    -5.523      0.000      0.000
REMARK INTER + INTRA:          -7.011
REMARK INTER:                  -6.492
REMARK INTRA:                  -0.519
REMARK UNBOUND:                -0.519
REMARK  Name = /home/vital/Documents/PhD_2021/Malaria_codes/data/pdb_ligands_mmv/ligand_164.pdb
REMARK  3 active torsions:
REMARK  status: ('A' for Active; 'I' for Inactive)
REMARK    1  A    between atoms: C3_4  and  N1_5
REMARK    2  A    between atoms: C4_6  and  C5_8
REMARK    3  A    between atoms: C11_16  and  N2_17
REMARK                            x       y       z     vdW  Elec       q    Type
REMARK                         _______ _______ _______ _____ _____    ______ ____
ROOT
ATOM      1 CL1  UNL     1     128.343 131.864  89.121  0.00  0.00    -0.082 Cl
ATOM      2  C1  UNL     1     128.470 131.039  87.598  0.00  0.00    +0.064 A 
ATOM      3  C2  UNL     1     129.080 129.773  87.638  0.00  0.00    +0.045 A 
ATOM      4  C3  UNL     1     129.305 129.047  86.469  0.00  0.00    +0.035 A 
ATOM      5  C9  UNL     1     128.918 129.610  85.258  0.00  0.00    +0.025 A 
ATOM      6  C10 UNL     1     128.309 130.874  85.218  0.00  0.00    +0.026 A 
ATOM      7  C11 UNL     1     128.054 131.624  86.381  0.00  0.00    +0.048 A 
ENDROOT
BRANCH   7   8
ATOM      8  N2  UNL     1     127.428 132.873  86.302  0.00  0.00    -0.329 N 
ATOM      9  C12 UNL     1     125.960 132.899  86.428  0.00  0.00    +0.105 C 
ATOM     10  C13 UNL     1     125.332 133.799  85.365  0.00  0.00    +0.019 C 
ATOM     11  C14 UNL     1     125.878 135.224  85.429  0.00  0.00    +0.003 C 
ATOM     12  C15 UNL     1     127.349 135.274  85.845  0.00  0.00    +0.019 C 
ATOM     13  C16 UNL     1     128.062 133.959  85.545  0.00  0.00    +0.105 C 
ENDBRANCH   7   8
BRANCH   4  14
ATOM     14  N1  UNL     1     129.918 127.789  86.596  0.00  0.00    -0.279 N 
ATOM     15  C4  UNL     1     129.405 126.635  87.164  0.00  0.00    +0.284 C 
ATOM     16  O1  UNL     1     128.294 126.521  87.667  0.00  0.00    -0.266 OA
ATOM     17  H2  UNL     1     130.861 127.695  86.230  0.00  0.00    +0.155 HD
BRANCH  15  18
ATOM     18  C5  UNL     1     130.340 125.524  87.110  0.00  0.00    +0.191 A 
ATOM     19  O2  UNL     1     131.420 125.593  86.267  0.00  0.00    -0.444 OA
ATOM     20  C6  UNL     1     132.119 124.436  86.415  0.00  0.00    +0.171 A 
ATOM     21 BR1  UNL     1     133.715 124.022  85.466  0.00  0.00    -0.008 Br
ATOM     22  C7  UNL     1     131.509 123.621  87.340  0.00  0.00    +0.058 A 
ATOM     23  C8  UNL     1     130.364 124.320  87.789  0.00  0.00    +0.056 A 
ENDBRANCH  15  18
ENDBRANCH   4  14
TORSDOF 3
ENDMDL
MODEL 2
REMARK VINA RESULT:    -4.668     18.102     19.745
REMARK INTER + INTRA:          -6.005
REMARK INTER:                  -5.451
REMARK INTRA:                  -0.554
REMARK UNBOUND:                -0.519
REMARK  Name = /home/vital/Documents/PhD_2021/Malaria_codes/data/pdb_ligands_mmv/ligand_164.pdb
REMARK  3 active torsions:
REMARK  status: ('A' for Active; 'I' for Inactive)
REMARK    1  A    between atoms: C3_4  and  N1_5
REMARK    2  A    between atoms: C4_6  and  C5_8
REMARK    3  A    between atoms: C11_16  and  N2_17
REMARK                            x       y       z     vdW  Elec       q    Type
REMARK                         _______ _______ _______ _____ _____    ______ ____
ROOT
ATOM      1 CL1  UNL     1     142.697 128.912  98.024  0.00  0.00    -0.082 Cl
ATOM      2  C1  UNL     1     142.417 130.594  98.352  0.00  0.00    +0.064 A 
ATOM      3  C2  UNL     1     143.214 131.498  97.629  0.00  0.00    +0.045 A 
ATOM      4  C3  UNL     1     143.132 132.871  97.860  0.00  0.00    +0.035 A 
ATOM      5  C9  UNL     1     142.247 133.326  98.830  0.00  0.00    +0.025 A 
ATOM      6  C10 UNL     1     141.451 132.423  99.552  0.00  0.00    +0.026 A 
ATOM      7  C11 UNL     1     141.498 131.035  99.331  0.00  0.00    +0.048 A 
ENDROOT
BRANCH   7   8
ATOM      8  N2  UNL     1     140.676 130.167 100.059  0.00  0.00    -0.329 N 
ATOM      9  C12 UNL     1     141.320 129.341 101.096  0.00  0.00    +0.105 C 
ATOM     10  C13 UNL     1     140.838 127.893 101.025  0.00  0.00    +0.019 C 
ATOM     11  C14 UNL     1     139.319 127.791 101.158  0.00  0.00    +0.003 C 
ATOM     12  C15 UNL     1     138.590 128.978 100.524  0.00  0.00    +0.019 C 
ATOM     13  C16 UNL     1     139.443 129.653  99.453  0.00  0.00    +0.105 C 
ENDBRANCH   7   8
BRANCH   4  14
ATOM     14  N1  UNL     1     143.963 133.707  97.092  0.00  0.00    -0.279 N 
ATOM     15  C4  UNL     1     145.261 134.109  97.359  0.00  0.00    +0.284 C 
ATOM     16  O1  UNL     1     145.918 133.793  98.344  0.00  0.00    -0.266 OA
ATOM     17  H2  UNL     1     143.578 134.072  96.227  0.00  0.00    +0.155 HD
BRANCH  15  18
ATOM     18  C5  UNL     1     145.798 134.978  96.326  0.00  0.00    +0.191 A 
ATOM     19  O2  UNL     1     145.666 134.619  95.008  0.00  0.00    -0.444 OA
ATOM     20  C6  UNL     1     146.250 135.598  94.266  0.00  0.00    +0.171 A 
ATOM     21 BR1  UNL     1     146.343 135.587  92.366  0.00  0.00    -0.008 Br
ATOM     22  C7  UNL     1     146.757 136.582  95.081  0.00  0.00    +0.058 A 
ATOM     23  C8  UNL     1     146.466 136.185  96.408  0.00  0.00    +0.056 A 
ENDBRANCH  15  18
ENDBRANCH   4  14
TORSDOF 3
ENDMDL
MODEL 3
REMARK VINA RESULT:    -4.447      8.686     10.632
REMARK INTER + INTRA:          -5.746
REMARK INTER:                  -5.164
REMARK INTRA:                  -0.583
REMARK UNBOUND:                -0.519
REMARK  Name = /home/vital/Documents/PhD_2021/Malaria_codes/data/pdb_ligands_mmv/ligand_164.pdb
REMARK  3 active torsions:
REMARK  status: ('A' for Active; 'I' for Inactive)
REMARK    1  A    between atoms: C3_4  and  N1_5
REMARK    2  A    between atoms: C4_6  and  C5_8
REMARK    3  A    between atoms: C11_16  and  N2_17
REMARK                            x       y       z     vdW  Elec       q    Type
REMARK                         _______ _______ _______ _____ _____    ______ ____
ROOT
ATOM      1 CL1  UNL     1     133.285 124.336  89.647  0.00  0.00    -0.082 Cl
ATOM      2  C1  UNL     1     134.528 124.674  88.482  0.00  0.00    +0.064 A 
ATOM      3  C2  UNL     1     135.451 125.670  88.845  0.00  0.00    +0.045 A 
ATOM      4  C3  UNL     1     136.450 126.080  87.961  0.00  0.00    +0.035 A 
ATOM      5  C9  UNL     1     136.506 125.485  86.706  0.00  0.00    +0.025 A 
ATOM      6  C10 UNL     1     135.584 124.491  86.344  0.00  0.00    +0.026 A 
ATOM      7  C11 UNL     1     134.576 124.044  87.218  0.00  0.00    +0.048 A 
ENDROOT
BRANCH   7   8
ATOM      8  N2  UNL     1     133.686 123.037  86.826  0.00  0.00    -0.329 N 
ATOM      9  C12 UNL     1     134.269 121.748  86.412  0.00  0.00    +0.105 C 
ATOM     10  C13 UNL     1     133.615 121.235  85.130  0.00  0.00    +0.019 C 
ATOM     11  C14 UNL     1     132.101 121.089  85.281  0.00  0.00    +0.003 C 
ATOM     12  C15 UNL     1     131.494 122.155  86.195  0.00  0.00    +0.019 C 
ATOM     13  C16 UNL     1     132.377 123.398  86.271  0.00  0.00    +0.105 C 
ENDBRANCH   7   8
BRANCH   4  14
ATOM     14  N1  UNL     1     137.334 127.080  88.403  0.00  0.00    -0.279 N 
ATOM     15  C4  UNL     1     137.386 128.411  88.024  0.00  0.00    +0.284 C 
ATOM     16  O1  UNL     1     136.645 128.951  87.210  0.00  0.00    -0.266 OA
ATOM     17  H2  UNL     1     138.031 126.810  89.090  0.00  0.00    +0.155 HD
BRANCH  15  18
ATOM     18  C5  UNL     1     138.442 129.142  88.703  0.00  0.00    +0.191 A 
ATOM     19  O2  UNL     1     139.487 128.451  89.264  0.00  0.00    -0.444 OA
ATOM     20  C6  UNL     1     140.318 129.369  89.825  0.00  0.00    +0.171 A 
ATOM     21 BR1  UNL     1     141.928 128.934  90.741  0.00  0.00    -0.008 Br
ATOM     22  C7  UNL     1     139.830 130.640  89.636  0.00  0.00    +0.058 A 
ATOM     23  C8  UNL     1     138.622 130.496  88.912  0.00  0.00    +0.056 A 
ENDBRANCH  15  18
ENDBRANCH   4  14
TORSDOF 3
ENDMDL
MODEL 4
REMARK VINA RESULT:    -4.444      8.637     10.616
REMARK INTER + INTRA:          -5.743
REMARK INTER:                  -5.158
REMARK INTRA:                  -0.585
REMARK UNBOUND:                -0.519
REMARK  Name = /home/vital/Documents/PhD_2021/Malaria_codes/data/pdb_ligands_mmv/ligand_164.pdb
REMARK  3 active torsions:
REMARK  status: ('A' for Active; 'I' for Inactive)
REMARK    1  A    between atoms: C3_4  and  N1_5
REMARK    2  A    between atoms: C4_6  and  C5_8
REMARK    3  A    between atoms: C11_16  and  N2_17
REMARK                            x       y       z     vdW  Elec       q    Type
REMARK                         _______ _______ _______ _____ _____    ______ ____
ROOT
ATOM      1 CL1  UNL     1     133.343 124.399  89.882  0.00  0.00    -0.082 Cl
ATOM      2  C1  UNL     1     134.534 124.637  88.640  0.00  0.00    +0.064 A 
ATOM      3  C2  UNL     1     135.544 125.569  88.933  0.00  0.00    +0.045 A 
ATOM      4  C3  UNL     1     136.513 125.899  87.985  0.00  0.00    +0.035 A 
ATOM      5  C9  UNL     1     136.452 125.288  86.738  0.00  0.00    +0.025 A 
ATOM      6  C10 UNL     1     135.444 124.357  86.447  0.00  0.00    +0.026 A 
ATOM      7  C11 UNL     1     134.462 123.991  87.385  0.00  0.00    +0.048 A 
ENDROOT
BRANCH   7   8
ATOM      8  N2  UNL     1     133.482 123.045  87.063  0.00  0.00    -0.329 N 
ATOM      9  C12 UNL     1     133.949 121.728  86.593  0.00  0.00    +0.105 C 
ATOM     10  C13 UNL     1     133.160 121.270  85.367  0.00  0.00    +0.019 C 
ATOM     11  C14 UNL     1     131.659 121.214  85.643  0.00  0.00    +0.003 C 
ATOM     12  C15 UNL     1     131.196 122.305  86.611  0.00  0.00    +0.019 C 
ATOM     13  C16 UNL     1     132.156 123.491  86.621  0.00  0.00    +0.105 C 
ENDBRANCH   7   8
BRANCH   4  14
ATOM     14  N1  UNL     1     137.489 126.840  88.358  0.00  0.00    -0.279 N 
ATOM     15  C4  UNL     1     137.531 128.195  88.075  0.00  0.00    +0.284 C 
ATOM     16  O1  UNL     1     136.696 128.814  87.428  0.00  0.00    -0.266 OA
ATOM     17  H2  UNL     1     138.272 126.500  88.908  0.00  0.00    +0.155 HD
BRANCH  15  18
ATOM     18  C5  UNL     1     138.704 128.845  88.635  0.00  0.00    +0.191 A 
ATOM     19  O2  UNL     1     138.817 130.210  88.559  0.00  0.00    -0.444 OA
ATOM     20  C6  UNL     1     139.994 130.548  89.152  0.00  0.00    +0.171 A 
ATOM     21 BR1  UNL     1     140.635 132.331  89.315  0.00  0.00    -0.008 Br
ATOM     22  C7  UNL     1     140.641 129.425  89.610  0.00  0.00    +0.058 A 
ATOM     23  C8  UNL     1     139.812 128.327  89.279  0.00  0.00    +0.056 A 
ENDBRANCH  15  18
ENDBRANCH   4  14
TORSDOF 3
ENDMDL
MODEL 5
REMARK VINA RESULT:    -4.240     18.893     19.954
REMARK INTER + INTRA:          -5.503
REMARK INTER:                  -4.947
REMARK INTRA:                  -0.556
REMARK UNBOUND:                -0.519
REMARK  Name = /home/vital/Documents/PhD_2021/Malaria_codes/data/pdb_ligands_mmv/ligand_164.pdb
REMARK  3 active torsions:
REMARK  status: ('A' for Active; 'I' for Inactive)
REMARK    1  A    between atoms: C3_4  and  N1_5
REMARK    2  A    between atoms: C4_6  and  C5_8
REMARK    3  A    between atoms: C11_16  and  N2_17
REMARK                            x       y       z     vdW  Elec       q    Type
REMARK                         _______ _______ _______ _____ _____    ______ ____
ROOT
ATOM      1 CL1  UNL     1     139.621 130.644  99.264  0.00  0.00    -0.082 Cl
ATOM      2  C1  UNL     1     140.956 129.761  99.938  0.00  0.00    +0.064 A 
ATOM      3  C2  UNL     1     140.619 128.624 100.692  0.00  0.00    +0.045 A 
ATOM      4  C3  UNL     1     141.601 127.878 101.344  0.00  0.00    +0.035 A 
ATOM      5  C9  UNL     1     142.924 128.290 101.236  0.00  0.00    +0.025 A 
ATOM      6  C10 UNL     1     143.260 129.425 100.483  0.00  0.00    +0.026 A 
ATOM      7  C11 UNL     1     142.296 130.189  99.801  0.00  0.00    +0.048 A 
ENDROOT
BRANCH   7   8
ATOM      8  N2  UNL     1     142.674 131.305  99.045  0.00  0.00    -0.329 N 
ATOM      9  C12 UNL     1     143.344 131.049  97.757  0.00  0.00    +0.105 C 
ATOM     10  C13 UNL     1     144.563 131.953  97.582  0.00  0.00    +0.019 C 
ATOM     11  C14 UNL     1     144.195 133.433  97.685  0.00  0.00    +0.003 C 
ATOM     12  C15 UNL     1     143.062 133.692  98.680  0.00  0.00    +0.019 C 
ATOM     13  C16 UNL     1     142.962 132.577  99.717  0.00  0.00    +0.105 C 
ENDBRANCH   7   8
BRANCH   4  14
ATOM     14  N1  UNL     1     141.179 126.754 102.076  0.00  0.00    -0.279 N 
ATOM     15  C4  UNL     1     141.158 126.580 103.450  0.00  0.00    +0.284 C 
ATOM     16  O1  UNL     1     141.519 127.407 104.279  0.00  0.00    -0.266 OA
ATOM     17  H2  UNL     1     140.842 125.956 101.545  0.00  0.00    +0.155 HD
BRANCH  15  18
ATOM     18  C5  UNL     1     140.650 125.275 103.839  0.00  0.00    +0.191 A 
ATOM     19  O2  UNL     1     139.532 125.197 104.630  0.00  0.00    -0.444 OA
ATOM     20  C6  UNL     1     139.281 123.877 104.839  0.00  0.00    +0.171 A 
ATOM     21 BR1  UNL     1     137.832 123.216 105.879  0.00  0.00    -0.008 Br
ATOM     22  C7  UNL     1     140.216 123.101 104.195  0.00  0.00    +0.058 A 
ATOM     23  C8  UNL     1     141.099 124.001 103.550  0.00  0.00    +0.056 A 
ENDBRANCH  15  18
ENDBRANCH   4  14
TORSDOF 3
ENDMDL
MODEL 6
REMARK VINA RESULT:    -4.155     20.149     21.736
REMARK INTER + INTRA:          -5.403
REMARK INTER:                  -4.828
REMARK INTRA:                  -0.575
REMARK UNBOUND:                -0.519
REMARK  Name = /home/vital/Documents/PhD_2021/Malaria_codes/data/pdb_ligands_mmv/ligand_164.pdb
REMARK  3 active torsions:
REMARK  status: ('A' for Active; 'I' for Inactive)
REMARK    1  A    between atoms: C3_4  and  N1_5
REMARK    2  A    between atoms: C4_6  and  C5_8
REMARK    3  A    between atoms: C11_16  and  N2_17
REMARK                            x       y       z     vdW  Elec       q    Type
REMARK                         _______ _______ _______ _____ _____    ______ ____
ROOT
ATOM      1 CL1  UNL     1     140.371 127.600 100.345  0.00  0.00    -0.082 Cl
ATOM      2  C1  UNL     1     141.518 127.765 101.639  0.00  0.00    +0.064 A 
ATOM      3  C2  UNL     1     141.349 126.885 102.722  0.00  0.00    +0.045 A 
ATOM      4  C3  UNL     1     142.163 126.973 103.852  0.00  0.00    +0.035 A 
ATOM      5  C9  UNL     1     143.143 127.958 103.885  0.00  0.00    +0.025 A 
ATOM      6  C10 UNL     1     143.311 128.836 102.804  0.00  0.00    +0.026 A 
ATOM      7  C11 UNL     1     142.518 128.764 101.644  0.00  0.00    +0.048 A 
ENDROOT
BRANCH   7   8
ATOM      8  N2  UNL     1     142.728 129.647 100.578  0.00  0.00    -0.329 N 
ATOM      9  C12 UNL     1     141.838 130.818 100.490  0.00  0.00    +0.105 C 
ATOM     10  C13 UNL     1     141.340 131.025  99.061  0.00  0.00    +0.019 C 
ATOM     11  C14 UNL     1     142.494 131.182  98.072  0.00  0.00    +0.003 C 
ATOM     12  C15 UNL     1     143.713 130.339  98.450  0.00  0.00    +0.019 C 
ATOM     13  C16 UNL     1     143.325 129.155  99.332  0.00  0.00    +0.105 C 
ENDBRANCH   7   8
BRANCH   4  14
ATOM     14  N1  UNL     1     141.929 126.054 104.890  0.00  0.00    -0.279 N 
ATOM     15  C4  UNL     1     141.075 126.178 105.972  0.00  0.00    +0.284 C 
ATOM     16  O1  UNL     1     140.361 127.145 106.211  0.00  0.00    -0.266 OA
ATOM     17  H2  UNL     1     142.444 125.180 104.858  0.00  0.00    +0.155 HD
BRANCH  15  18
ATOM     18  C5  UNL     1     141.101 125.012 106.840  0.00  0.00    +0.191 A 
ATOM     19  O2  UNL     1     139.971 124.246 106.971  0.00  0.00    -0.444 OA
ATOM     20  C6  UNL     1     140.271 123.235 107.830  0.00  0.00    +0.171 A 
ATOM     21 BR1  UNL     1     139.043 121.881 108.358  0.00  0.00    -0.008 Br
ATOM     22  C7  UNL     1     141.575 123.334 108.254  0.00  0.00    +0.058 A 
ATOM     23  C8  UNL     1     142.111 124.478 107.617  0.00  0.00    +0.056 A 
ENDBRANCH  15  18
ENDBRANCH   4  14
TORSDOF 3
ENDMDL
MODEL 7
REMARK VINA RESULT:    -4.033     20.506     22.185
REMARK INTER + INTRA:          -5.259
REMARK INTER:                  -4.724
REMARK INTRA:                  -0.535
REMARK UNBOUND:                -0.519
REMARK  Name = /home/vital/Documents/PhD_2021/Malaria_codes/data/pdb_ligands_mmv/ligand_164.pdb
REMARK  3 active torsions:
REMARK  status: ('A' for Active; 'I' for Inactive)
REMARK    1  A    between atoms: C3_4  and  N1_5
REMARK    2  A    between atoms: C4_6  and  C5_8
REMARK    3  A    between atoms: C11_16  and  N2_17
REMARK                            x       y       z     vdW  Elec       q    Type
REMARK                         _______ _______ _______ _____ _____    ______ ____
ROOT
ATOM      1 CL1  UNL     1     143.075 130.269  99.937  0.00  0.00    -0.082 Cl
ATOM      2  C1  UNL     1     142.683 129.041 101.102  0.00  0.00    +0.064 A 
ATOM      3  C2  UNL     1     143.560 128.932 102.193  0.00  0.00    +0.045 A 
ATOM      4  C3  UNL     1     143.391 127.935 103.154  0.00  0.00    +0.035 A 
ATOM      5  C9  UNL     1     142.334 127.045 103.002  0.00  0.00    +0.025 A 
ATOM      6  C10 UNL     1     141.457 127.154 101.912  0.00  0.00    +0.026 A 
ATOM      7  C11 UNL     1     141.592 128.158 100.935  0.00  0.00    +0.048 A 
ENDROOT
BRANCH   7   8
ATOM      8  N2  UNL     1     140.686 128.245  99.872  0.00  0.00    -0.329 N 
ATOM      9  C12 UNL     1     139.570 129.198 100.016  0.00  0.00    +0.105 C 
ATOM     10  C13 UNL     1     138.248 128.566  99.584  0.00  0.00    +0.019 C 
ATOM     11  C14 UNL     1     138.303 128.054  98.146  0.00  0.00    +0.003 C 
ATOM     12  C15 UNL     1     139.684 127.517  97.763  0.00  0.00    +0.019 C 
ATOM     13  C16 UNL     1     140.480 127.089  98.993  0.00  0.00    +0.105 C 
ENDBRANCH   7   8
BRANCH   4  14
ATOM     14  N1  UNL     1     144.312 127.896 104.215  0.00  0.00    -0.279 N 
ATOM     15  C4  UNL     1     145.621 127.445 104.202  0.00  0.00    +0.284 C 
ATOM     16  O1  UNL     1     146.209 126.988 103.228  0.00  0.00    -0.266 OA
ATOM     17  H2  UNL     1     143.994 128.239 105.116  0.00  0.00    +0.155 HD
BRANCH  15  18
ATOM     18  C5  UNL     1     146.265 127.564 105.499  0.00  0.00    +0.191 A 
ATOM     19  O2  UNL     1     146.299 126.477 106.336  0.00  0.00    -0.444 OA
ATOM     20  C6  UNL     1     146.951 126.862 107.466  0.00  0.00    +0.171 A 
ATOM     21 BR1  UNL     1     147.271 125.724 108.956  0.00  0.00    -0.008 Br
ATOM     22  C7  UNL     1     147.340 128.178 107.373  0.00  0.00    +0.058 A 
ATOM     23  C8  UNL     1     146.899 128.632 106.106  0.00  0.00    +0.056 A 
ENDBRANCH  15  18
ENDBRANCH   4  14
TORSDOF 3
ENDMDL
MODEL 8
REMARK VINA RESULT:    -3.961      8.981     10.886
REMARK INTER + INTRA:          -5.175
REMARK INTER:                  -4.583
REMARK INTRA:                  -0.592
REMARK UNBOUND:                -0.519
REMARK  Name = /home/vital/Documents/PhD_2021/Malaria_codes/data/pdb_ligands_mmv/ligand_164.pdb
REMARK  3 active torsions:
REMARK  status: ('A' for Active; 'I' for Inactive)
REMARK    1  A    between atoms: C3_4  and  N1_5
REMARK    2  A    between atoms: C4_6  and  C5_8
REMARK    3  A    between atoms: C11_16  and  N2_17
REMARK                            x       y       z     vdW  Elec       q    Type
REMARK                         _______ _______ _______ _____ _____    ______ ____
ROOT
ATOM      1 CL1  UNL     1     133.189 124.333  90.123  0.00  0.00    -0.082 Cl
ATOM      2  C1  UNL     1     134.395 124.555  88.893  0.00  0.00    +0.064 A 
ATOM      3  C2  UNL     1     135.379 125.519  89.169  0.00  0.00    +0.045 A 
ATOM      4  C3  UNL     1     136.357 125.838  88.226  0.00  0.00    +0.035 A 
ATOM      5  C9  UNL     1     136.330 125.183  87.001  0.00  0.00    +0.025 A 
ATOM      6  C10 UNL     1     135.347 124.220  86.725  0.00  0.00    +0.026 A 
ATOM      7  C11 UNL     1     134.358 123.865  87.660  0.00  0.00    +0.048 A 
ENDROOT
BRANCH   7   8
ATOM      8  N2  UNL     1     133.405 122.886  87.355  0.00  0.00    -0.329 N 
ATOM      9  C12 UNL     1     133.901 121.522  87.097  0.00  0.00    +0.105 C 
ATOM     10  C13 UNL     1     133.236 120.919  85.861  0.00  0.00    +0.019 C 
ATOM     11  C14 UNL     1     131.713 120.897  85.986  0.00  0.00    +0.003 C 
ATOM     12  C15 UNL     1     131.168 122.096  86.763  0.00  0.00    +0.019 C 
ATOM     13  C16 UNL     1     132.137 123.275  86.729  0.00  0.00    +0.105 C 
ENDBRANCH   7   8
BRANCH   4  14
ATOM     14  N1  UNL     1     137.306 126.813  88.583  0.00  0.00    -0.279 N 
ATOM     15  C4  UNL     1     138.620 126.630  88.979  0.00  0.00    +0.284 C 
ATOM     16  O1  UNL     1     139.188 125.550  89.090  0.00  0.00    -0.266 OA
ATOM     17  H2  UNL     1     137.006 127.782  88.551  0.00  0.00    +0.155 HD
BRANCH  15  18
ATOM     18  C5  UNL     1     139.295 127.884  89.266  0.00  0.00    +0.191 A 
ATOM     19  O2  UNL     1     140.333 127.900  90.162  0.00  0.00    -0.444 OA
ATOM     20  C6  UNL     1     140.775 129.184  90.241  0.00  0.00    +0.171 A 
ATOM     21 BR1  UNL     1     142.211 129.755  91.351  0.00  0.00    -0.008 Br
ATOM     22  C7  UNL     1     140.041 129.997  89.410  0.00  0.00    +0.058 A 
ATOM     23  C8  UNL     1     139.087 129.162  88.781  0.00  0.00    +0.056 A 
ENDBRANCH  15  18
ENDBRANCH   4  14
TORSDOF 3
ENDMDL
MODEL 9
REMARK VINA RESULT:    -3.754      9.123     10.936
REMARK INTER + INTRA:          -4.932
REMARK INTER:                  -4.381
REMARK INTRA:                  -0.551
REMARK UNBOUND:                -0.519
REMARK  Name = /home/vital/Documents/PhD_2021/Malaria_codes/data/pdb_ligands_mmv/ligand_164.pdb
REMARK  3 active torsions:
REMARK  status: ('A' for Active; 'I' for Inactive)
REMARK    1  A    between atoms: C3_4  and  N1_5
REMARK    2  A    between atoms: C4_6  and  C5_8
REMARK    3  A    between atoms: C11_16  and  N2_17
REMARK                            x       y       z     vdW  Elec       q    Type
REMARK                         _______ _______ _______ _____ _____    ______ ____
ROOT
ATOM      1 CL1  UNL     1     134.061 124.952  85.254  0.00  0.00    -0.082 Cl
ATOM      2  C1  UNL     1     134.781 124.669  86.809  0.00  0.00    +0.064 A 
ATOM      3  C2  UNL     1     135.729 125.619  87.226  0.00  0.00    +0.045 A 
ATOM      4  C3  UNL     1     136.428 125.458  88.422  0.00  0.00    +0.035 A 
ATOM      5  C9  UNL     1     136.170 124.329  89.192  0.00  0.00    +0.025 A 
ATOM      6  C10 UNL     1     135.223 123.381  88.775  0.00  0.00    +0.026 A 
ATOM      7  C11 UNL     1     134.490 123.522  87.583  0.00  0.00    +0.048 A 
ENDROOT
BRANCH   7   8
ATOM      8  N2  UNL     1     133.541 122.564  87.210  0.00  0.00    -0.329 N 
ATOM      9  C12 UNL     1     133.943 121.582  86.186  0.00  0.00    +0.105 C 
ATOM     10  C13 UNL     1     132.849 121.404  85.135  0.00  0.00    +0.019 C 
ATOM     11  C14 UNL     1     131.521 120.980  85.759  0.00  0.00    +0.003 C 
ATOM     12  C15 UNL     1     131.298 121.591  87.144  0.00  0.00    +0.019 C 
ATOM     13  C16 UNL     1     132.111 122.869  87.331  0.00  0.00    +0.105 C 
ENDBRANCH   7   8
BRANCH   4  14
ATOM     14  N1  UNL     1     137.358 126.455  88.767  0.00  0.00    -0.279 N 
ATOM     15  C4  UNL     1     138.740 126.369  88.797  0.00  0.00    +0.284 C 
ATOM     16  O1  UNL     1     139.399 125.373  88.522  0.00  0.00    -0.266 OA
ATOM     17  H2  UNL     1     136.987 127.362  89.030  0.00  0.00    +0.155 HD
BRANCH  15  18
ATOM     18  C5  UNL     1     139.367 127.615  89.204  0.00  0.00    +0.191 A 
ATOM     19  O2  UNL     1     138.963 128.792  88.625  0.00  0.00    -0.444 OA
ATOM     20  C6  UNL     1     139.705 129.787  89.182  0.00  0.00    +0.171 A 
ATOM     21 BR1  UNL     1     139.540 131.626  88.726  0.00  0.00    -0.008 Br
ATOM     22  C7  UNL     1     140.579 129.273  90.110  0.00  0.00    +0.058 A 
ATOM     23  C8  UNL     1     140.363 127.875  90.126  0.00  0.00    +0.056 A 
ENDBRANCH  15  18
ENDBRANCH   4  14
TORSDOF 3
ENDMDL
