MODEL 1
REMARK VINA RESULT:    -3.751      0.000      0.000
REMARK INTER + INTRA:          -7.898
REMARK INTER:                  -5.286
REMARK INTRA:                  -2.612
REMARK UNBOUND:                -2.612
REMARK  Name = /home/vital/Documents/PhD_2021/Malaria_codes/data/pdb_ligands_mmv/ligand_143.pdb
REMARK  10 active torsions:
REMARK  status: ('A' for Active; 'I' for Inactive)
REMARK    1  A    between atoms: C1_1  and  O1_2
REMARK    2  A    between atoms: O1_2  and  C2_3
REMARK    3  A    between atoms: C7_8  and  C8_9
REMARK    4  A    between atoms: C8_9  and  N1_10
REMARK    5  A    between atoms: C9_11  and  C10_13
REMARK    6  A    between atoms: C11_14  and  C23_28
REMARK    7  A    between atoms: N2_15  and  C12_16
REMARK    8  A    between atoms: C12_16  and  C13_17
REMARK    9  A    between atoms: C13_17  and  C14_18
REMARK   10  A    between atoms: C13_17  and  C15_19
REMARK                            x       y       z     vdW  Elec       q    Type
REMARK                         _______ _______ _______ _____ _____    ______ ____
ROOT
ATOM      1  C10 UNL     1     140.761 128.619 101.242  0.00  0.00    +0.131 C 
ATOM      2  C11 UNL     1     142.089 128.525 102.026  0.00  0.00    +0.129 C 
ATOM      3  N2  UNL     1     142.369 127.136 102.435  0.00  0.00    -0.289 N 
ATOM      4  C16 UNL     1     142.060 126.062 101.594  0.00  0.00    +0.247 C 
ATOM      5  O3  UNL     1     142.289 124.891 101.880  0.00  0.00    -0.270 OA
ATOM      6  C17 UNL     1     141.352 126.363 100.315  0.00  0.00    +0.041 A 
ATOM      7  C18 UNL     1     141.293 125.370  99.328  0.00  0.00    +0.013 A 
ATOM      8  C19 UNL     1     140.579 125.590  98.152  0.00  0.00    +0.001 A 
ATOM      9  C20 UNL     1     139.900 126.792  97.968  0.00  0.00    +0.000 A 
ATOM     10  C21 UNL     1     139.946 127.783  98.952  0.00  0.00    +0.005 A 
ATOM     11  C22 UNL     1     140.698 127.594 100.123  0.00  0.00    -0.021 A 
ENDROOT
BRANCH   2  12
ATOM     12  C23 UNL     1     143.295 129.148 101.331  0.00  0.00    +0.011 A 
ATOM     13  C24 UNL     1     144.079 128.548 100.357  0.00  0.00    +0.013 A 
ATOM     14  C25 UNL     1     145.170 129.364  99.941  0.00  0.00    +0.008 A 
ATOM     15  C26 UNL     1     145.188 130.571 100.599  0.00  0.00    +0.045 A 
ATOM     16  S1  UNL     1     143.903 130.710 101.712  0.00  0.00    -0.100 S 
ENDBRANCH   2  12
BRANCH   1  18
ATOM     17  N1  UNL     1     141.241 130.634  99.911  0.00  0.00    -0.311 N 
ATOM     18  C9  UNL     1     140.444 130.065 100.869  0.00  0.00    +0.223 C 
ATOM     19  O2  UNL     1     139.550 130.687 101.439  0.00  0.00    -0.275 OA
ATOM     20  H10 UNL     1     141.889 130.053  99.387  0.00  0.00    +0.149 HD
BRANCH  17  21
ATOM     21  C8  UNL     1     141.031 131.964  99.387  0.00  0.00    +0.143 C 
BRANCH  21  27
ATOM     22  C2  UNL     1     142.811 131.623  97.593  0.00  0.00    +0.125 A 
ATOM     23  C3  UNL     1     143.923 132.092  96.886  0.00  0.00    +0.046 A 
ATOM     24  C4  UNL     1     144.458 133.352  97.166  0.00  0.00    +0.004 A 
ATOM     25  C5  UNL     1     143.889 134.151  98.151  0.00  0.00    +0.001 A 
ATOM     26  C6  UNL     1     142.780 133.693  98.862  0.00  0.00    +0.009 A 
ATOM     27  C7  UNL     1     142.229 132.430  98.593  0.00  0.00    +0.011 A 
BRANCH  22  29
ATOM     28  C1  UNL     1     142.993 129.397  96.748  0.00  0.00    +0.277 C 
ATOM     29  O1  UNL     1     142.222 130.400  97.398  0.00  0.00    -0.495 OA
ENDBRANCH  22  29
ENDBRANCH  21  27
ENDBRANCH  17  21
ENDBRANCH   1  18
BRANCH   3  30
ATOM     30  C12 UNL     1     142.770 126.851 103.816  0.00  0.00    +0.111 C 
BRANCH  30  31
ATOM     31  C13 UNL     1     144.254 126.523 104.086  0.00  0.00    +0.000 C 
ATOM     32  C14 UNL     1     144.460 125.499 105.198  0.00  0.00    +0.009 C 
ATOM     33  C15 UNL     1     145.125 127.754 104.325  0.00  0.00    +0.009 C 
ENDBRANCH  30  31
ENDBRANCH   3  30
TORSDOF 7
ENDMDL
MODEL 2
REMARK VINA RESULT:    -3.671      2.773      5.199
REMARK INTER + INTRA:          -7.785
REMARK INTER:                  -5.436
REMARK INTRA:                  -2.349
REMARK UNBOUND:                -2.612
REMARK  Name = /home/vital/Documents/PhD_2021/Malaria_codes/data/pdb_ligands_mmv/ligand_143.pdb
REMARK  10 active torsions:
REMARK  status: ('A' for Active; 'I' for Inactive)
REMARK    1  A    between atoms: C1_1  and  O1_2
REMARK    2  A    between atoms: O1_2  and  C2_3
REMARK    3  A    between atoms: C7_8  and  C8_9
REMARK    4  A    between atoms: C8_9  and  N1_10
REMARK    5  A    between atoms: C9_11  and  C10_13
REMARK    6  A    between atoms: C11_14  and  C23_28
REMARK    7  A    between atoms: N2_15  and  C12_16
REMARK    8  A    between atoms: C12_16  and  C13_17
REMARK    9  A    between atoms: C13_17  and  C14_18
REMARK   10  A    between atoms: C13_17  and  C15_19
REMARK                            x       y       z     vdW  Elec       q    Type
REMARK                         _______ _______ _______ _____ _____    ______ ____
ROOT
ATOM      1  C10 UNL     1     142.377 127.354 103.112  0.00  0.00    +0.131 C 
ATOM      2  C11 UNL     1     143.311 126.663 102.092  0.00  0.00    +0.129 C 
ATOM      3  N2  UNL     1     144.576 126.247 102.724  0.00  0.00    -0.289 N 
ATOM      4  C16 UNL     1     144.597 125.750 104.031  0.00  0.00    +0.247 C 
ATOM      5  O3  UNL     1     145.621 125.373 104.595  0.00  0.00    -0.270 OA
ATOM      6  C17 UNL     1     143.314 125.745 104.794  0.00  0.00    +0.041 A 
ATOM      7  C18 UNL     1     143.236 124.993 105.974  0.00  0.00    +0.013 A 
ATOM      8  C19 UNL     1     142.079 125.023 106.750  0.00  0.00    +0.001 A 
ATOM      9  C20 UNL     1     141.006 125.822 106.362  0.00  0.00    +0.000 A 
ATOM     10  C21 UNL     1     141.081 126.582 105.193  0.00  0.00    +0.005 A 
ATOM     11  C22 UNL     1     142.223 126.529 104.377  0.00  0.00    -0.021 A 
ENDROOT
BRANCH   2  12
ATOM     12  C23 UNL     1     142.679 125.514 101.314  0.00  0.00    +0.011 A 
ATOM     13  C24 UNL     1     142.488 125.462  99.940  0.00  0.00    +0.013 A 
ATOM     14  C25 UNL     1     141.819 124.279  99.517  0.00  0.00    +0.008 A 
ATOM     15  C26 UNL     1     141.525 123.450 100.573  0.00  0.00    +0.045 A 
ATOM     16  S1  UNL     1     142.046 124.101 102.060  0.00  0.00    -0.100 S 
ENDBRANCH   2  12
BRANCH   1  18
ATOM     17  N1  UNL     1     141.154 129.048 101.809  0.00  0.00    -0.311 N 
ATOM     18  C9  UNL     1     141.092 127.835 102.442  0.00  0.00    +0.223 C 
ATOM     19  O2  UNL     1     140.054 127.180 102.516  0.00  0.00    -0.275 OA
ATOM     20  H10 UNL     1     142.054 129.498 101.673  0.00  0.00    +0.149 HD
BRANCH  17  21
ATOM     21  C8  UNL     1     140.055 129.613 101.060  0.00  0.00    +0.143 C 
BRANCH  21  27
ATOM     22  C2  UNL     1     140.955 128.650  98.878  0.00  0.00    +0.125 A 
ATOM     23  C3  UNL     1     140.735 127.986  97.666  0.00  0.00    +0.046 A 
ATOM     24  C4  UNL     1     139.450 127.569  97.311  0.00  0.00    +0.004 A 
ATOM     25  C5  UNL     1     138.376 127.808  98.162  0.00  0.00    +0.001 A 
ATOM     26  C6  UNL     1     138.583 128.469  99.372  0.00  0.00    +0.009 A 
ATOM     27  C7  UNL     1     139.869 128.895  99.744  0.00  0.00    +0.011 A 
BRANCH  22  29
ATOM     28  C1  UNL     1     143.244 129.101  98.370  0.00  0.00    +0.277 C 
ATOM     29  O1  UNL     1     142.174 129.107  99.308  0.00  0.00    -0.495 OA
ENDBRANCH  22  29
ENDBRANCH  21  27
ENDBRANCH  17  21
ENDBRANCH   1  18
BRANCH   3  30
ATOM     30  C12 UNL     1     145.852 126.557 102.072  0.00  0.00    +0.111 C 
BRANCH  30  31
ATOM     31  C13 UNL     1     145.850 127.611 100.944  0.00  0.00    +0.000 C 
ATOM     32  C14 UNL     1     146.418 127.095  99.625  0.00  0.00    +0.009 C 
ATOM     33  C15 UNL     1     146.514 128.931 101.331  0.00  0.00    +0.009 C 
ENDBRANCH  30  31
ENDBRANCH   3  30
TORSDOF 7
ENDMDL
MODEL 3
REMARK VINA RESULT:    -3.075      2.322      6.823
REMARK INTER + INTRA:          -6.946
REMARK INTER:                  -4.888
REMARK INTRA:                  -2.058
REMARK UNBOUND:                -2.612
REMARK  Name = /home/vital/Documents/PhD_2021/Malaria_codes/data/pdb_ligands_mmv/ligand_143.pdb
REMARK  10 active torsions:
REMARK  status: ('A' for Active; 'I' for Inactive)
REMARK    1  A    between atoms: C1_1  and  O1_2
REMARK    2  A    between atoms: O1_2  and  C2_3
REMARK    3  A    between atoms: C7_8  and  C8_9
REMARK    4  A    between atoms: C8_9  and  N1_10
REMARK    5  A    between atoms: C9_11  and  C10_13
REMARK    6  A    between atoms: C11_14  and  C23_28
REMARK    7  A    between atoms: N2_15  and  C12_16
REMARK    8  A    between atoms: C12_16  and  C13_17
REMARK    9  A    between atoms: C13_17  and  C14_18
REMARK   10  A    between atoms: C13_17  and  C15_19
REMARK                            x       y       z     vdW  Elec       q    Type
REMARK                         _______ _______ _______ _____ _____    ______ ____
ROOT
ATOM      1  C10 UNL     1     142.476 127.826  99.410  0.00  0.00    +0.131 C 
ATOM      2  C11 UNL     1     142.811 128.538 100.741  0.00  0.00    +0.129 C 
ATOM      3  N2  UNL     1     142.324 129.930 100.738  0.00  0.00    -0.289 N 
ATOM      4  C16 UNL     1     141.107 130.266 100.136  0.00  0.00    +0.247 C 
ATOM      5  O3  UNL     1     140.650 131.405 100.123  0.00  0.00    -0.270 OA
ATOM      6  C17 UNL     1     140.367 129.187  99.417  0.00  0.00    +0.041 A 
ATOM      7  C18 UNL     1     139.028 129.408  99.066  0.00  0.00    +0.013 A 
ATOM      8  C19 UNL     1     138.329 128.454  98.330  0.00  0.00    +0.001 A 
ATOM      9  C20 UNL     1     138.970 127.287  97.922  0.00  0.00    +0.000 A 
ATOM     10  C21 UNL     1     140.307 127.064  98.259  0.00  0.00    +0.005 A 
ATOM     11  C22 UNL     1     141.013 127.996  99.038  0.00  0.00    -0.021 A 
ENDROOT
BRANCH   2  12
ATOM     12  C23 UNL     1     142.362 127.800 101.998  0.00  0.00    +0.011 A 
ATOM     13  C24 UNL     1     141.139 127.175 102.187  0.00  0.00    +0.013 A 
ATOM     14  C25 UNL     1     140.994 126.620 103.491  0.00  0.00    +0.008 A 
ATOM     15  C26 UNL     1     142.113 126.827 104.263  0.00  0.00    +0.045 A 
ATOM     16  S1  UNL     1     143.320 127.687 103.421  0.00  0.00    -0.100 S 
ENDBRANCH   2  12
BRANCH   1  18
ATOM     17  N1  UNL     1     142.110 125.393  99.487  0.00  0.00    -0.311 N 
ATOM     18  C9  UNL     1     143.030 126.404  99.393  0.00  0.00    +0.223 C 
ATOM     19  O2  UNL     1     144.240 126.194  99.344  0.00  0.00    -0.275 OA
ATOM     20  H10 UNL     1     141.121 125.605  99.409  0.00  0.00    +0.149 HD
BRANCH  17  21
ATOM     21  C8  UNL     1     142.456 123.992  99.408  0.00  0.00    +0.143 C 
BRANCH  21  27
ATOM     22  C2  UNL     1     142.320 123.415 101.888  0.00  0.00    +0.125 A 
ATOM     23  C3  UNL     1     141.749 122.675 102.929  0.00  0.00    +0.046 A 
ATOM     24  C4  UNL     1     140.738 121.748 102.666  0.00  0.00    +0.004 A 
ATOM     25  C5  UNL     1     140.288 121.553 101.364  0.00  0.00    +0.001 A 
ATOM     26  C6  UNL     1     140.850 122.285 100.318  0.00  0.00    +0.009 A 
ATOM     27  C7  UNL     1     141.867 123.221 100.566  0.00  0.00    +0.011 A 
BRANCH  22  29
ATOM     28  C1  UNL     1     144.451 123.954 102.820  0.00  0.00    +0.277 C 
ATOM     29  O1  UNL     1     143.322 124.338 102.044  0.00  0.00    -0.495 OA
ENDBRANCH  22  29
ENDBRANCH  21  27
ENDBRANCH  17  21
ENDBRANCH   1  18
BRANCH   3  30
ATOM     30  C12 UNL     1     143.214 131.012 101.169  0.00  0.00    +0.111 C 
BRANCH  30  31
ATOM     31  C13 UNL     1     144.558 131.182 100.431  0.00  0.00    +0.000 C 
ATOM     32  C14 UNL     1     145.743 131.408 101.364  0.00  0.00    +0.009 C 
ATOM     33  C15 UNL     1     144.532 132.244  99.334  0.00  0.00    +0.009 C 
ENDBRANCH  30  31
ENDBRANCH   3  30
TORSDOF 7
ENDMDL
MODEL 4
REMARK VINA RESULT:    -3.066      2.153      6.711
REMARK INTER + INTRA:          -6.932
REMARK INTER:                  -4.734
REMARK INTRA:                  -2.198
REMARK UNBOUND:                -2.612
REMARK  Name = /home/vital/Documents/PhD_2021/Malaria_codes/data/pdb_ligands_mmv/ligand_143.pdb
REMARK  10 active torsions:
REMARK  status: ('A' for Active; 'I' for Inactive)
REMARK    1  A    between atoms: C1_1  and  O1_2
REMARK    2  A    between atoms: O1_2  and  C2_3
REMARK    3  A    between atoms: C7_8  and  C8_9
REMARK    4  A    between atoms: C8_9  and  N1_10
REMARK    5  A    between atoms: C9_11  and  C10_13
REMARK    6  A    between atoms: C11_14  and  C23_28
REMARK    7  A    between atoms: N2_15  and  C12_16
REMARK    8  A    between atoms: C12_16  and  C13_17
REMARK    9  A    between atoms: C13_17  and  C14_18
REMARK   10  A    between atoms: C13_17  and  C15_19
REMARK                            x       y       z     vdW  Elec       q    Type
REMARK                         _______ _______ _______ _____ _____    ______ ____
ROOT
ATOM      1  C10 UNL     1     142.677 126.841  98.583  0.00  0.00    +0.131 C 
ATOM      2  C11 UNL     1     142.232 128.246  99.050  0.00  0.00    +0.129 C 
ATOM      3  N2  UNL     1     142.558 129.270  98.041  0.00  0.00    -0.289 N 
ATOM      4  C16 UNL     1     142.440 128.997  96.674  0.00  0.00    +0.247 C 
ATOM      5  O3  UNL     1     142.681 129.820  95.796  0.00  0.00    -0.270 OA
ATOM      6  C17 UNL     1     142.067 127.608  96.273  0.00  0.00    +0.041 A 
ATOM      7  C18 UNL     1     141.655 127.377  94.954  0.00  0.00    +0.013 A 
ATOM      8  C19 UNL     1     141.369 126.082  94.525  0.00  0.00    +0.001 A 
ATOM      9  C20 UNL     1     141.518 125.012  95.404  0.00  0.00    +0.000 A 
ATOM     10  C21 UNL     1     141.938 125.234  96.717  0.00  0.00    +0.005 A 
ATOM     11  C22 UNL     1     142.187 126.537  97.178  0.00  0.00    -0.021 A 
ENDROOT
BRANCH   2  12
ATOM     12  C23 UNL     1     140.776 128.349  99.491  0.00  0.00    +0.011 A 
ATOM     13  C24 UNL     1     139.667 128.346  98.657  0.00  0.00    +0.013 A 
ATOM     14  C25 UNL     1     138.442 128.515  99.363  0.00  0.00    +0.008 A 
ATOM     15  C26 UNL     1     138.642 128.633 100.718  0.00  0.00    +0.045 A 
ATOM     16  S1  UNL     1     140.295 128.548 101.129  0.00  0.00    -0.100 S 
ENDBRANCH   2  12
BRANCH   1  18
ATOM     17  N1  UNL     1     143.371 125.594 100.590  0.00  0.00    -0.311 N 
ATOM     18  C9  UNL     1     142.390 125.790  99.654  0.00  0.00    +0.223 C 
ATOM     19  O2  UNL     1     141.352 125.133  99.636  0.00  0.00    -0.275 OA
ATOM     20  H10 UNL     1     144.157 126.234 100.636  0.00  0.00    +0.149 HD
BRANCH  17  21
ATOM     21  C8  UNL     1     143.231 124.696 101.714  0.00  0.00    +0.143 C 
BRANCH  21  27
ATOM     22  C2  UNL     1     142.863 126.649 103.313  0.00  0.00    +0.125 A 
ATOM     23  C3  UNL     1     142.160 127.227 104.375  0.00  0.00    +0.046 A 
ATOM     24  C4  UNL     1     141.105 126.542 104.982  0.00  0.00    +0.004 A 
ATOM     25  C5  UNL     1     140.742 125.276 104.533  0.00  0.00    +0.001 A 
ATOM     26  C6  UNL     1     141.435 124.689 103.475  0.00  0.00    +0.009 A 
ATOM     27  C7  UNL     1     142.499 125.365 102.854  0.00  0.00    +0.011 A 
BRANCH  22  29
ATOM     28  C1  UNL     1     143.950 128.658 102.618  0.00  0.00    +0.277 C 
ATOM     29  O1  UNL     1     143.917 127.236 102.662  0.00  0.00    -0.495 OA
ENDBRANCH  22  29
ENDBRANCH  21  27
ENDBRANCH  17  21
ENDBRANCH   1  18
BRANCH   3  30
ATOM     30  C12 UNL     1     143.220 130.512  98.452  0.00  0.00    +0.111 C 
BRANCH  30  31
ATOM     31  C13 UNL     1     142.402 131.819  98.400  0.00  0.00    +0.000 C 
ATOM     32  C14 UNL     1     143.225 133.038  97.994  0.00  0.00    +0.009 C 
ATOM     33  C15 UNL     1     141.615 132.108  99.676  0.00  0.00    +0.009 C 
ENDBRANCH  30  31
ENDBRANCH   3  30
TORSDOF 7
ENDMDL
MODEL 5
REMARK VINA RESULT:    -3.050      2.142      2.797
REMARK INTER + INTRA:          -6.910
REMARK INTER:                  -4.536
REMARK INTRA:                  -2.374
REMARK UNBOUND:                -2.612
REMARK  Name = /home/vital/Documents/PhD_2021/Malaria_codes/data/pdb_ligands_mmv/ligand_143.pdb
REMARK  10 active torsions:
REMARK  status: ('A' for Active; 'I' for Inactive)
REMARK    1  A    between atoms: C1_1  and  O1_2
REMARK    2  A    between atoms: O1_2  and  C2_3
REMARK    3  A    between atoms: C7_8  and  C8_9
REMARK    4  A    between atoms: C8_9  and  N1_10
REMARK    5  A    between atoms: C9_11  and  C10_13
REMARK    6  A    between atoms: C11_14  and  C23_28
REMARK    7  A    between atoms: N2_15  and  C12_16
REMARK    8  A    between atoms: C12_16  and  C13_17
REMARK    9  A    between atoms: C13_17  and  C14_18
REMARK   10  A    between atoms: C13_17  and  C15_19
REMARK                            x       y       z     vdW  Elec       q    Type
REMARK                         _______ _______ _______ _____ _____    ______ ____
ROOT
ATOM      1  C10 UNL     1     142.895 129.858 101.728  0.00  0.00    +0.131 C 
ATOM      2  C11 UNL     1     143.509 128.548 102.274  0.00  0.00    +0.129 C 
ATOM      3  N2  UNL     1     142.490 127.724 102.951  0.00  0.00    -0.289 N 
ATOM      4  C16 UNL     1     141.184 127.647 102.458  0.00  0.00    +0.247 C 
ATOM      5  O3  UNL     1     140.305 126.961 102.973  0.00  0.00    -0.270 OA
ATOM      6  C17 UNL     1     140.832 128.499 101.284  0.00  0.00    +0.041 A 
ATOM      7  C18 UNL     1     139.645 128.232 100.590  0.00  0.00    +0.013 A 
ATOM      8  C19 UNL     1     139.249 129.052  99.535  0.00  0.00    +0.001 A 
ATOM      9  C20 UNL     1     140.024 130.154  99.186  0.00  0.00    +0.000 A 
ATOM     10  C21 UNL     1     141.204 130.433  99.879  0.00  0.00    +0.005 A 
ATOM     11  C22 UNL     1     141.640 129.591 100.916  0.00  0.00    -0.021 A 
ENDROOT
BRANCH   2  12
ATOM     12  C23 UNL     1     144.293 127.728 101.254  0.00  0.00    +0.011 A 
ATOM     13  C24 UNL     1     143.755 126.863 100.313  0.00  0.00    +0.013 A 
ATOM     14  C25 UNL     1     144.748 126.197  99.539  0.00  0.00    +0.008 A 
ATOM     15  C26 UNL     1     146.019 126.577  99.900  0.00  0.00    +0.045 A 
ATOM     16  S1  UNL     1     146.009 127.719 101.166  0.00  0.00    -0.100 S 
ENDBRANCH   2  12
BRANCH   1  18
ATOM     17  N1  UNL     1     144.372 130.365  99.824  0.00  0.00    -0.311 N 
ATOM     18  C9  UNL     1     143.962 130.735 101.078  0.00  0.00    +0.223 C 
ATOM     19  O2  UNL     1     144.450 131.691 101.678  0.00  0.00    -0.275 OA
ATOM     20  H10 UNL     1     143.863 129.644  99.322  0.00  0.00    +0.149 HD
BRANCH  17  21
ATOM     21  C8  UNL     1     145.314 131.127  99.037  0.00  0.00    +0.143 C 
BRANCH  21  27
ATOM     22  C2  UNL     1     143.984 130.531  96.944  0.00  0.00    +0.125 A 
ATOM     23  C3  UNL     1     143.476 130.887  95.691  0.00  0.00    +0.046 A 
ATOM     24  C4  UNL     1     143.711 132.162  95.169  0.00  0.00    +0.004 A 
ATOM     25  C5  UNL     1     144.454 133.088  95.892  0.00  0.00    +0.001 A 
ATOM     26  C6  UNL     1     144.966 132.744  97.142  0.00  0.00    +0.009 A 
ATOM     27  C7  UNL     1     144.738 131.467  97.682  0.00  0.00    +0.011 A 
BRANCH  22  29
ATOM     28  C1  UNL     1     142.836 128.438  96.977  0.00  0.00    +0.277 C 
ATOM     29  O1  UNL     1     143.817 129.304  97.534  0.00  0.00    -0.495 OA
ENDBRANCH  22  29
ENDBRANCH  21  27
ENDBRANCH  17  21
ENDBRANCH   1  18
BRANCH   3  30
ATOM     30  C12 UNL     1     142.776 127.154 104.271  0.00  0.00    +0.111 C 
BRANCH  30  31
ATOM     31  C13 UNL     1     143.197 125.671 104.343  0.00  0.00    +0.000 C 
ATOM     32  C14 UNL     1     142.471 124.882 105.428  0.00  0.00    +0.009 C 
ATOM     33  C15 UNL     1     144.705 125.460 104.448  0.00  0.00    +0.009 C 
ENDBRANCH  30  31
ENDBRANCH   3  30
TORSDOF 7
ENDMDL
MODEL 6
REMARK VINA RESULT:    -3.035      2.069      2.994
REMARK INTER + INTRA:          -6.888
REMARK INTER:                  -4.242
REMARK INTRA:                  -2.646
REMARK UNBOUND:                -2.612
REMARK  Name = /home/vital/Documents/PhD_2021/Malaria_codes/data/pdb_ligands_mmv/ligand_143.pdb
REMARK  10 active torsions:
REMARK  status: ('A' for Active; 'I' for Inactive)
REMARK    1  A    between atoms: C1_1  and  O1_2
REMARK    2  A    between atoms: O1_2  and  C2_3
REMARK    3  A    between atoms: C7_8  and  C8_9
REMARK    4  A    between atoms: C8_9  and  N1_10
REMARK    5  A    between atoms: C9_11  and  C10_13
REMARK    6  A    between atoms: C11_14  and  C23_28
REMARK    7  A    between atoms: N2_15  and  C12_16
REMARK    8  A    between atoms: C12_16  and  C13_17
REMARK    9  A    between atoms: C13_17  and  C14_18
REMARK   10  A    between atoms: C13_17  and  C15_19
REMARK                            x       y       z     vdW  Elec       q    Type
REMARK                         _______ _______ _______ _____ _____    ______ ____
ROOT
ATOM      1  C10 UNL     1     142.518 130.665 100.643  0.00  0.00    +0.131 C 
ATOM      2  C11 UNL     1     143.657 129.710 101.067  0.00  0.00    +0.129 C 
ATOM      3  N2  UNL     1     143.226 128.821 102.164  0.00  0.00    -0.289 N 
ATOM      4  C16 UNL     1     141.927 128.306 102.203  0.00  0.00    +0.247 C 
ATOM      5  O3  UNL     1     141.526 127.549 103.083  0.00  0.00    -0.270 OA
ATOM      6  C17 UNL     1     140.967 128.760 101.155  0.00  0.00    +0.041 A 
ATOM      7  C18 UNL     1     139.770 128.051 100.987  0.00  0.00    +0.013 A 
ATOM      8  C19 UNL     1     138.818 128.489 100.068  0.00  0.00    +0.001 A 
ATOM      9  C20 UNL     1     139.048 129.649  99.332  0.00  0.00    +0.000 A 
ATOM     10  C21 UNL     1     140.234 130.366  99.502  0.00  0.00    +0.005 A 
ATOM     11  C22 UNL     1     141.223 129.914 100.391  0.00  0.00    -0.021 A 
ENDROOT
BRANCH   2  12
ATOM     12  C23 UNL     1     144.291 128.915  99.931  0.00  0.00    +0.011 A 
ATOM     13  C24 UNL     1     143.817 127.722  99.403  0.00  0.00    +0.013 A 
ATOM     14  C25 UNL     1     144.660 127.192  98.385  0.00  0.00    +0.008 A 
ATOM     15  C26 UNL     1     145.751 127.995  98.152  0.00  0.00    +0.045 A 
ATOM     16  S1  UNL     1     145.757 129.371  99.159  0.00  0.00    -0.100 S 
ENDBRANCH   2  12
BRANCH   1  18
ATOM     17  N1  UNL     1     142.758 131.222  98.257  0.00  0.00    -0.311 N 
ATOM     18  C9  UNL     1     142.984 131.621  99.547  0.00  0.00    +0.223 C 
ATOM     19  O2  UNL     1     143.569 132.667  99.824  0.00  0.00    -0.275 OA
ATOM     20  H10 UNL     1     142.172 130.413  98.076  0.00  0.00    +0.149 HD
BRANCH  17  21
ATOM     21  C8  UNL     1     143.063 132.040  97.105  0.00  0.00    +0.143 C 
BRANCH  21  27
ATOM     22  C2  UNL     1     143.517 129.987  95.663  0.00  0.00    +0.125 A 
ATOM     23  C3  UNL     1     144.318 129.312  94.735  0.00  0.00    +0.046 A 
ATOM     24  C4  UNL     1     145.484 129.905  94.244  0.00  0.00    +0.004 A 
ATOM     25  C5  UNL     1     145.858 131.174  94.673  0.00  0.00    +0.001 A 
ATOM     26  C6  UNL     1     145.068 131.856  95.597  0.00  0.00    +0.009 A 
ATOM     27  C7  UNL     1     143.892 131.274  96.101  0.00  0.00    +0.011 A 
BRANCH  22  29
ATOM     28  C1  UNL     1     142.037 128.131  95.920  0.00  0.00    +0.277 C 
ATOM     29  O1  UNL     1     142.364 129.485  96.210  0.00  0.00    -0.495 OA
ENDBRANCH  22  29
ENDBRANCH  21  27
ENDBRANCH  17  21
ENDBRANCH   1  18
BRANCH   3  30
ATOM     30  C12 UNL     1     144.086 128.648 103.339  0.00  0.00    +0.111 C 
BRANCH  30  31
ATOM     31  C13 UNL     1     145.134 127.516 103.309  0.00  0.00    +0.000 C 
ATOM     32  C14 UNL     1     145.060 126.584 104.514  0.00  0.00    +0.009 C 
ATOM     33  C15 UNL     1     146.565 128.004 103.097  0.00  0.00    +0.009 C 
ENDBRANCH  30  31
ENDBRANCH   3  30
TORSDOF 7
ENDMDL
MODEL 7
REMARK VINA RESULT:    -3.022      2.592      7.477
REMARK INTER + INTRA:          -6.870
REMARK INTER:                  -4.327
REMARK INTRA:                  -2.543
REMARK UNBOUND:                -2.612
REMARK  Name = /home/vital/Documents/PhD_2021/Malaria_codes/data/pdb_ligands_mmv/ligand_143.pdb
REMARK  10 active torsions:
REMARK  status: ('A' for Active; 'I' for Inactive)
REMARK    1  A    between atoms: C1_1  and  O1_2
REMARK    2  A    between atoms: O1_2  and  C2_3
REMARK    3  A    between atoms: C7_8  and  C8_9
REMARK    4  A    between atoms: C8_9  and  N1_10
REMARK    5  A    between atoms: C9_11  and  C10_13
REMARK    6  A    between atoms: C11_14  and  C23_28
REMARK    7  A    between atoms: N2_15  and  C12_16
REMARK    8  A    between atoms: C12_16  and  C13_17
REMARK    9  A    between atoms: C13_17  and  C14_18
REMARK   10  A    between atoms: C13_17  and  C15_19
REMARK                            x       y       z     vdW  Elec       q    Type
REMARK                         _______ _______ _______ _____ _____    ______ ____
ROOT
ATOM      1  C10 UNL     1     141.924 127.465 103.271  0.00  0.00    +0.131 C 
ATOM      2  C11 UNL     1     141.588 128.030 101.872  0.00  0.00    +0.129 C 
ATOM      3  N2  UNL     1     142.243 129.334 101.653  0.00  0.00    -0.289 N 
ATOM      4  C16 UNL     1     143.531 129.582 102.138  0.00  0.00    +0.247 C 
ATOM      5  O3  UNL     1     144.126 130.641 101.966  0.00  0.00    -0.270 OA
ATOM      6  C17 UNL     1     144.180 128.520 102.963  0.00  0.00    +0.041 A 
ATOM      7  C18 UNL     1     145.556 128.606 103.209  0.00  0.00    +0.013 A 
ATOM      8  C19 UNL     1     146.181 127.674 104.035  0.00  0.00    +0.001 A 
ATOM      9  C20 UNL     1     145.430 126.668 104.637  0.00  0.00    +0.000 A 
ATOM     10  C21 UNL     1     144.055 126.582 104.404  0.00  0.00    +0.005 A 
ATOM     11  C22 UNL     1     143.418 127.487 103.539  0.00  0.00    -0.021 A 
ENDROOT
BRANCH   2  12
ATOM     12  C23 UNL     1     141.853 127.079 100.710  0.00  0.00    +0.011 A 
ATOM     13  C24 UNL     1     140.892 126.487  99.902  0.00  0.00    +0.013 A 
ATOM     14  C25 UNL     1     141.449 125.601  98.936  0.00  0.00    +0.008 A 
ATOM     15  C26 UNL     1     142.820 125.544  99.021  0.00  0.00    +0.045 A 
ATOM     16  S1  UNL     1     143.424 126.546 100.262  0.00  0.00    -0.100 S 
ENDBRANCH   2  12
BRANCH   1  18
ATOM     17  N1  UNL     1     141.804 125.018 103.023  0.00  0.00    -0.311 N 
ATOM     18  C9  UNL     1     141.199 126.144 103.517  0.00  0.00    +0.223 C 
ATOM     19  O2  UNL     1     140.111 126.113 104.088  0.00  0.00    -0.275 OA
ATOM     20  H10 UNL     1     142.752 125.074 102.663  0.00  0.00    +0.149 HD
BRANCH  17  21
ATOM     21  C8  UNL     1     141.295 123.682 103.235  0.00  0.00    +0.143 C 
BRANCH  21  27
ATOM     22  C2  UNL     1     142.976 122.707 101.584  0.00  0.00    +0.125 A 
ATOM     23  C3  UNL     1     143.265 121.856 100.512  0.00  0.00    +0.046 A 
ATOM     24  C4  UNL     1     142.259 121.077  99.936  0.00  0.00    +0.004 A 
ATOM     25  C5  UNL     1     140.959 121.141 100.424  0.00  0.00    +0.001 A 
ATOM     26  C6  UNL     1     140.658 121.985 101.492  0.00  0.00    +0.009 A 
ATOM     27  C7  UNL     1     141.658 122.775 102.084  0.00  0.00    +0.011 A 
BRANCH  22  29
ATOM     28  C1  UNL     1     145.253 123.384 101.820  0.00  0.00    +0.277 C 
ATOM     29  O1  UNL     1     143.891 123.516 102.208  0.00  0.00    -0.495 OA
ENDBRANCH  22  29
ENDBRANCH  21  27
ENDBRANCH  17  21
ENDBRANCH   1  18
BRANCH   3  30
ATOM     30  C12 UNL     1     141.467 130.457 101.119  0.00  0.00    +0.111 C 
BRANCH  30  31
ATOM     31  C13 UNL     1     141.229 130.512  99.596  0.00  0.00    +0.000 C 
ATOM     32  C14 UNL     1     141.708 131.808  98.949  0.00  0.00    +0.009 C 
ATOM     33  C15 UNL     1     139.789 130.211  99.184  0.00  0.00    +0.009 C 
ENDBRANCH  30  31
ENDBRANCH   3  30
TORSDOF 7
ENDMDL
MODEL 8
REMARK VINA RESULT:    -2.975      2.308      6.438
REMARK INTER + INTRA:          -6.805
REMARK INTER:                  -4.911
REMARK INTRA:                  -1.894
REMARK UNBOUND:                -2.612
REMARK  Name = /home/vital/Documents/PhD_2021/Malaria_codes/data/pdb_ligands_mmv/ligand_143.pdb
REMARK  10 active torsions:
REMARK  status: ('A' for Active; 'I' for Inactive)
REMARK    1  A    between atoms: C1_1  and  O1_2
REMARK    2  A    between atoms: O1_2  and  C2_3
REMARK    3  A    between atoms: C7_8  and  C8_9
REMARK    4  A    between atoms: C8_9  and  N1_10
REMARK    5  A    between atoms: C9_11  and  C10_13
REMARK    6  A    between atoms: C11_14  and  C23_28
REMARK    7  A    between atoms: N2_15  and  C12_16
REMARK    8  A    between atoms: C12_16  and  C13_17
REMARK    9  A    between atoms: C13_17  and  C14_18
REMARK   10  A    between atoms: C13_17  and  C15_19
REMARK                            x       y       z     vdW  Elec       q    Type
REMARK                         _______ _______ _______ _____ _____    ______ ____
ROOT
ATOM      1  C10 UNL     1     142.684 127.985  99.513  0.00  0.00    +0.131 C 
ATOM      2  C11 UNL     1     143.140 128.637 100.838  0.00  0.00    +0.129 C 
ATOM      3  N2  UNL     1     142.686 130.038 100.927  0.00  0.00    -0.289 N 
ATOM      4  C16 UNL     1     141.433 130.420 100.439  0.00  0.00    +0.247 C 
ATOM      5  O3  UNL     1     141.002 131.567 100.505  0.00  0.00    -0.270 OA
ATOM      6  C17 UNL     1     140.613 129.385  99.742  0.00  0.00    +0.041 A 
ATOM      7  C18 UNL     1     139.257 129.646  99.509  0.00  0.00    +0.013 A 
ATOM      8  C19 UNL     1     138.479 128.735  98.797  0.00  0.00    +0.001 A 
ATOM      9  C20 UNL     1     139.059 127.573  98.295  0.00  0.00    +0.000 A 
ATOM     10  C21 UNL     1     140.413 127.311  98.514  0.00  0.00    +0.005 A 
ATOM     11  C22 UNL     1     141.200 128.198  99.267  0.00  0.00    -0.021 A 
ENDROOT
BRANCH   2  12
ATOM     12  C23 UNL     1     142.778 127.860 102.099  0.00  0.00    +0.011 A 
ATOM     13  C24 UNL     1     141.496 127.624 102.575  0.00  0.00    +0.013 A 
ATOM     14  C25 UNL     1     141.484 126.914 103.809  0.00  0.00    +0.008 A 
ATOM     15  C26 UNL     1     142.754 126.615 104.242  0.00  0.00    +0.045 A 
ATOM     16  S1  UNL     1     143.947 127.195 103.169  0.00  0.00    -0.100 S 
ENDBRANCH   2  12
BRANCH   1  18
ATOM     17  N1  UNL     1     142.369 125.567  99.854  0.00  0.00    -0.311 N 
ATOM     18  C9  UNL     1     143.203 126.554  99.398  0.00  0.00    +0.223 C 
ATOM     19  O2  UNL     1     144.327 126.320  98.960  0.00  0.00    -0.275 OA
ATOM     20  H10 UNL     1     141.410 125.793 100.098  0.00  0.00    +0.149 HD
BRANCH  17  21
ATOM     21  C8  UNL     1     142.671 124.158  99.748  0.00  0.00    +0.143 C 
BRANCH  21  27
ATOM     22  C2  UNL     1     141.097 123.590  97.823  0.00  0.00    +0.125 A 
ATOM     23  C3  UNL     1     140.009 122.867  97.323  0.00  0.00    +0.046 A 
ATOM     24  C4  UNL     1     139.328 121.959  98.138  0.00  0.00    +0.004 A 
ATOM     25  C5  UNL     1     139.727 121.765  99.456  0.00  0.00    +0.001 A 
ATOM     26  C6  UNL     1     140.810 122.480  99.966  0.00  0.00    +0.009 A 
ATOM     27  C7  UNL     1     141.506 123.397  99.160  0.00  0.00    +0.011 A 
BRANCH  22  29
ATOM     28  C1  UNL     1     141.436 124.735  95.756  0.00  0.00    +0.277 C 
ATOM     29  O1  UNL     1     141.820 124.508  97.107  0.00  0.00    -0.495 OA
ENDBRANCH  22  29
ENDBRANCH  21  27
ENDBRANCH  17  21
ENDBRANCH   1  18
BRANCH   3  30
ATOM     30  C12 UNL     1     143.632 131.085 101.326  0.00  0.00    +0.111 C 
BRANCH  30  31
ATOM     31  C13 UNL     1     144.978 131.168 100.574  0.00  0.00    +0.000 C 
ATOM     32  C14 UNL     1     146.161 131.504 101.477  0.00  0.00    +0.009 C 
ATOM     33  C15 UNL     1     144.952 132.095  99.361  0.00  0.00    +0.009 C 
ENDBRANCH  30  31
ENDBRANCH   3  30
TORSDOF 7
ENDMDL
MODEL 9
REMARK VINA RESULT:    -2.835      2.162      6.406
REMARK INTER + INTRA:          -6.607
REMARK INTER:                  -4.432
REMARK INTRA:                  -2.175
REMARK UNBOUND:                -2.612
REMARK  Name = /home/vital/Documents/PhD_2021/Malaria_codes/data/pdb_ligands_mmv/ligand_143.pdb
REMARK  10 active torsions:
REMARK  status: ('A' for Active; 'I' for Inactive)
REMARK    1  A    between atoms: C1_1  and  O1_2
REMARK    2  A    between atoms: O1_2  and  C2_3
REMARK    3  A    between atoms: C7_8  and  C8_9
REMARK    4  A    between atoms: C8_9  and  N1_10
REMARK    5  A    between atoms: C9_11  and  C10_13
REMARK    6  A    between atoms: C11_14  and  C23_28
REMARK    7  A    between atoms: N2_15  and  C12_16
REMARK    8  A    between atoms: C12_16  and  C13_17
REMARK    9  A    between atoms: C13_17  and  C14_18
REMARK   10  A    between atoms: C13_17  and  C15_19
REMARK                            x       y       z     vdW  Elec       q    Type
REMARK                         _______ _______ _______ _____ _____    ______ ____
ROOT
ATOM      1  C10 UNL     1     142.556 127.954  99.331  0.00  0.00    +0.131 C 
ATOM      2  C11 UNL     1     142.905 128.744 100.613  0.00  0.00    +0.129 C 
ATOM      3  N2  UNL     1     142.373 130.119 100.552  0.00  0.00    -0.289 N 
ATOM      4  C16 UNL     1     141.130 130.384  99.970  0.00  0.00    +0.247 C 
ATOM      5  O3  UNL     1     140.636 131.506  99.911  0.00  0.00    -0.270 OA
ATOM      6  C17 UNL     1     140.405 129.247  99.329  0.00  0.00    +0.041 A 
ATOM      7  C18 UNL     1     139.051 129.408  99.008  0.00  0.00    +0.013 A 
ATOM      8  C19 UNL     1     138.362 128.395  98.344  0.00  0.00    +0.001 A 
ATOM      9  C20 UNL     1     139.030 127.228  97.978  0.00  0.00    +0.000 A 
ATOM     10  C21 UNL     1     140.382 127.065  98.286  0.00  0.00    +0.005 A 
ATOM     11  C22 UNL     1     141.079 128.058  98.994  0.00  0.00    -0.021 A 
ENDROOT
BRANCH   2  12
ATOM     12  C23 UNL     1     142.516 128.061 101.919  0.00  0.00    +0.011 A 
ATOM     13  C24 UNL     1     143.290 127.994 103.069  0.00  0.00    +0.013 A 
ATOM     14  C25 UNL     1     142.676 127.237 104.108  0.00  0.00    +0.008 A 
ATOM     15  C26 UNL     1     141.446 126.752 103.731  0.00  0.00    +0.045 A 
ATOM     16  S1  UNL     1     141.043 127.203 102.136  0.00  0.00    -0.100 S 
ENDBRANCH   2  12
BRANCH   1  18
ATOM     17  N1  UNL     1     144.393 126.434  99.949  0.00  0.00    -0.311 N 
ATOM     18  C9  UNL     1     143.156 126.550  99.372  0.00  0.00    +0.223 C 
ATOM     19  O2  UNL     1     142.569 125.594  98.869  0.00  0.00    -0.275 OA
ATOM     20  H10 UNL     1     144.788 127.223 100.452  0.00  0.00    +0.149 HD
BRANCH  17  21
ATOM     21  C8  UNL     1     145.068 125.171 100.139  0.00  0.00    +0.143 C 
BRANCH  21  27
ATOM     22  C2  UNL     1     144.028 123.891 102.084  0.00  0.00    +0.125 A 
ATOM     23  C3  UNL     1     144.030 123.532 103.436  0.00  0.00    +0.046 A 
ATOM     24  C4  UNL     1     145.018 124.019 104.295  0.00  0.00    +0.004 A 
ATOM     25  C5  UNL     1     146.009 124.866 103.813  0.00  0.00    +0.001 A 
ATOM     26  C6  UNL     1     146.017 125.232 102.467  0.00  0.00    +0.009 A 
ATOM     27  C7  UNL     1     145.031 124.750 101.590  0.00  0.00    +0.011 A 
BRANCH  22  29
ATOM     28  C1  UNL     1     141.743 123.399 101.596  0.00  0.00    +0.277 C 
ATOM     29  O1  UNL     1     143.097 123.474 101.167  0.00  0.00    -0.495 OA
ENDBRANCH  22  29
ENDBRANCH  21  27
ENDBRANCH  17  21
ENDBRANCH   1  18
BRANCH   3  30
ATOM     30  C12 UNL     1     143.240 131.249 100.900  0.00  0.00    +0.111 C 
BRANCH  30  31
ATOM     31  C13 UNL     1     144.654 131.294 100.284  0.00  0.00    +0.000 C 
ATOM     32  C14 UNL     1     145.767 131.424 101.320  0.00  0.00    +0.009 C 
ATOM     33  C15 UNL     1     144.818 132.344  99.189  0.00  0.00    +0.009 C 
ENDBRANCH  30  31
ENDBRANCH   3  30
TORSDOF 7
ENDMDL
