MODEL 1
REMARK VINA RESULT:    -3.310      0.000      0.000
REMARK INTER + INTRA:          -3.552
REMARK INTER:                  -3.697
REMARK INTRA:                   0.145
REMARK UNBOUND:                 0.145
REMARK  Name = /home/vital/Documents/PhD_2021/Malaria_codes/data/pdb_ligands_mmv/ligand_220.pdb
REMARK  6 active torsions:
REMARK  status: ('A' for Active; 'I' for Inactive)
REMARK    1  A    between atoms: C1_1  and  N1_2
REMARK    2  A    between atoms: N1_2  and  C2_3
REMARK    3  A    between atoms: N1_2  and  C3_4
REMARK    4  A    between atoms: C6_7  and  N2_10
REMARK    5  A    between atoms: C11_15  and  C12_16
REMARK    6  A    between atoms: C11_15  and  C13_17
REMARK                            x       y       z     vdW  Elec       q    Type
REMARK                         _______ _______ _______ _____ _____    ______ ____
ROOT
ATOM      1  N2  UNL     1     142.057 129.622 100.739  0.00  0.00    -0.248 N 
ATOM      2  C9  UNL     1     142.748 130.717 101.192  0.00  0.00    +0.189 C 
ATOM      3  N3  UNL     1     142.538 131.938 100.823  0.00  0.00    -0.185 NA
ATOM      4  C10 UNL     1     141.591 132.158  99.879  0.00  0.00    +0.213 C 
ATOM      5  N4  UNL     1     140.744 131.291  99.459  0.00  0.00    -0.226 NA
ATOM      6  C11 UNL     1     140.797 129.946 100.042  0.00  0.00    +0.131 C 
ATOM      7  C12 UNL     1     140.557 129.001  98.848  0.00  0.00    +0.058 C 
ATOM      8  C13 UNL     1     139.589 129.867 100.998  0.00  0.00    +0.058 C 
ATOM      9  N5  UNL     1     141.535 133.414  99.371  0.00  0.00    -0.328 N 
ATOM     10  N6  UNL     1     143.761 130.500 102.075  0.00  0.00    -0.331 N 
ATOM     11  H17 UNL     1     141.893 134.099 100.021  0.00  0.00    +0.145 HD
ATOM     12  H18 UNL     1     140.621 133.627  98.995  0.00  0.00    +0.145 HD
ATOM     13  H19 UNL     1     144.279 129.646 101.899  0.00  0.00    +0.145 HD
ATOM     14  H20 UNL     1     144.367 131.308 102.146  0.00  0.00    +0.145 HD
ENDROOT
BRANCH   1  18
ATOM     15  C3  UNL     1     142.413 125.753 102.556  0.00  0.00    +0.029 A 
ATOM     16  C4  UNL     1     141.687 126.793 103.159  0.00  0.00    +0.025 A 
ATOM     17  C5  UNL     1     141.559 128.060 102.568  0.00  0.00    +0.025 A 
ATOM     18  C6  UNL     1     142.156 128.348 101.339  0.00  0.00    +0.039 A 
ATOM     19  C7  UNL     1     142.911 127.340 100.741  0.00  0.00    +0.025 A 
ATOM     20  C8  UNL     1     143.035 126.074 101.337  0.00  0.00    +0.025 A 
BRANCH  15  22
ATOM     21  C1  UNL     1     143.856 123.831 103.103  0.00  0.00    +0.129 C 
ATOM     22  N1  UNL     1     142.553 124.494 103.153  0.00  0.00    -0.336 N 
ATOM     23  C2  UNL     1     141.395 123.603 103.205  0.00  0.00    +0.129 C 
ENDBRANCH  15  22
ENDBRANCH   1  18
TORSDOF 2
ENDMDL
MODEL 2
REMARK VINA RESULT:    -3.302      2.323      6.186
REMARK INTER + INTRA:          -3.543
REMARK INTER:                  -3.691
REMARK INTRA:                   0.148
REMARK UNBOUND:                 0.145
REMARK  Name = /home/vital/Documents/PhD_2021/Malaria_codes/data/pdb_ligands_mmv/ligand_220.pdb
REMARK  6 active torsions:
REMARK  status: ('A' for Active; 'I' for Inactive)
REMARK    1  A    between atoms: C1_1  and  N1_2
REMARK    2  A    between atoms: N1_2  and  C2_3
REMARK    3  A    between atoms: N1_2  and  C3_4
REMARK    4  A    between atoms: C6_7  and  N2_10
REMARK    5  A    between atoms: C11_15  and  C12_16
REMARK    6  A    between atoms: C11_15  and  C13_17
REMARK                            x       y       z     vdW  Elec       q    Type
REMARK                         _______ _______ _______ _____ _____    ______ ____
ROOT
ATOM      1  N2  UNL     1     142.010 129.234 101.533  0.00  0.00    -0.248 N 
ATOM      2  C9  UNL     1     142.918 128.862 102.491  0.00  0.00    +0.189 C 
ATOM      3  N3  UNL     1     142.731 127.943 103.382  0.00  0.00    -0.185 NA
ATOM      4  C10 UNL     1     141.527 127.324 103.406  0.00  0.00    +0.213 C 
ATOM      5  N4  UNL     1     140.621 127.423 102.502  0.00  0.00    -0.226 NA
ATOM      6  C11 UNL     1     140.903 128.276 101.343  0.00  0.00    +0.131 C 
ATOM      7  C12 UNL     1     139.572 129.003 101.069  0.00  0.00    +0.058 C 
ATOM      8  C13 UNL     1     141.194 127.303 100.181  0.00  0.00    +0.058 C 
ATOM      9  N5  UNL     1     141.292 126.516 104.468  0.00  0.00    -0.328 N 
ATOM     10  N6  UNL     1     144.100 129.538 102.533  0.00  0.00    -0.331 N 
ATOM     11  H17 UNL     1     142.150 126.159 104.866  0.00  0.00    +0.145 HD
ATOM     12  H18 UNL     1     140.599 125.811 104.260  0.00  0.00    +0.145 HD
ATOM     13  H19 UNL     1     144.013 130.523 102.311  0.00  0.00    +0.145 HD
ATOM     14  H20 UNL     1     144.581 129.383 103.410  0.00  0.00    +0.145 HD
ENDROOT
BRANCH   1  18
ATOM     15  C3  UNL     1     143.035 131.799  98.251  0.00  0.00    +0.029 A 
ATOM     16  C4  UNL     1     143.425 130.450  98.289  0.00  0.00    +0.025 A 
ATOM     17  C5  UNL     1     143.088 129.601  99.356  0.00  0.00    +0.025 A 
ATOM     18  C6  UNL     1     142.341 130.065 100.440  0.00  0.00    +0.039 A 
ATOM     19  C7  UNL     1     141.974 131.411 100.438  0.00  0.00    +0.025 A 
ATOM     20  C8  UNL     1     142.314 132.255  99.369  0.00  0.00    +0.025 A 
BRANCH  15  22
ATOM     21  C1  UNL     1     143.385 132.117  95.832  0.00  0.00    +0.129 C 
ATOM     22  N1  UNL     1     143.384 132.649  97.195  0.00  0.00    -0.336 N 
ATOM     23  C2  UNL     1     144.326 133.739  97.444  0.00  0.00    +0.129 C 
ENDBRANCH  15  22
ENDBRANCH   1  18
TORSDOF 2
ENDMDL
MODEL 3
REMARK VINA RESULT:    -3.183     13.394     15.496
REMARK INTER + INTRA:          -3.410
REMARK INTER:                  -3.558
REMARK INTRA:                   0.148
REMARK UNBOUND:                 0.145
REMARK  Name = /home/vital/Documents/PhD_2021/Malaria_codes/data/pdb_ligands_mmv/ligand_220.pdb
REMARK  6 active torsions:
REMARK  status: ('A' for Active; 'I' for Inactive)
REMARK    1  A    between atoms: C1_1  and  N1_2
REMARK    2  A    between atoms: N1_2  and  C2_3
REMARK    3  A    between atoms: N1_2  and  C3_4
REMARK    4  A    between atoms: C6_7  and  N2_10
REMARK    5  A    between atoms: C11_15  and  C12_16
REMARK    6  A    between atoms: C11_15  and  C13_17
REMARK                            x       y       z     vdW  Elec       q    Type
REMARK                         _______ _______ _______ _____ _____    ______ ____
ROOT
ATOM      1  N2  UNL     1     133.682 124.678  88.554  0.00  0.00    -0.248 N 
ATOM      2  C9  UNL     1     132.591 124.401  89.338  0.00  0.00    +0.189 C 
ATOM      3  N3  UNL     1     131.364 124.381  88.931  0.00  0.00    -0.185 NA
ATOM      4  C10 UNL     1     131.123 124.701  87.637  0.00  0.00    +0.213 C 
ATOM      5  N4  UNL     1     132.015 124.831  86.724  0.00  0.00    -0.226 NA
ATOM      6  C11 UNL     1     133.416 124.618  87.103  0.00  0.00    +0.131 C 
ATOM      7  C12 UNL     1     134.189 125.714  86.344  0.00  0.00    +0.058 C 
ATOM      8  C13 UNL     1     133.792 123.239  86.519  0.00  0.00    +0.058 C 
ATOM      9  N5  UNL     1     129.822 124.866  87.295  0.00  0.00    -0.328 N 
ATOM     10  N6  UNL     1     132.812 124.164  90.661  0.00  0.00    -0.331 N 
ATOM     11  H17 UNL     1     129.204 124.343  87.901  0.00  0.00    +0.145 HD
ATOM     12  H18 UNL     1     129.670 124.716  86.308  0.00  0.00    +0.145 HD
ATOM     13  H19 UNL     1     133.557 124.726  91.056  0.00  0.00    +0.145 HD
ATOM     14  H20 UNL     1     131.954 124.232  91.195  0.00  0.00    +0.145 HD
ENDROOT
BRANCH   1  18
ATOM     15  C3  UNL     1     137.708 124.040  89.888  0.00  0.00    +0.029 A 
ATOM     16  C4  UNL     1     136.864 122.973  89.539  0.00  0.00    +0.025 A 
ATOM     17  C5  UNL     1     135.547 123.173  89.095  0.00  0.00    +0.025 A 
ATOM     18  C6  UNL     1     135.010 124.457  88.978  0.00  0.00    +0.039 A 
ATOM     19  C7  UNL     1     135.821 125.527  89.353  0.00  0.00    +0.025 A 
ATOM     20  C8  UNL     1     137.138 125.321  89.796  0.00  0.00    +0.025 A 
BRANCH  15  22
ATOM     21  C1  UNL     1     139.469 122.474  90.610  0.00  0.00    +0.129 C 
ATOM     22  N1  UNL     1     139.016 123.839  90.345  0.00  0.00    -0.336 N 
ATOM     23  C2  UNL     1     139.652 124.881  91.151  0.00  0.00    +0.129 C 
ENDBRANCH  15  22
ENDBRANCH   1  18
TORSDOF 2
ENDMDL
MODEL 4
REMARK VINA RESULT:    -3.153      0.749      0.847
REMARK INTER + INTRA:          -3.376
REMARK INTER:                  -3.527
REMARK INTRA:                   0.150
REMARK UNBOUND:                 0.145
REMARK  Name = /home/vital/Documents/PhD_2021/Malaria_codes/data/pdb_ligands_mmv/ligand_220.pdb
REMARK  6 active torsions:
REMARK  status: ('A' for Active; 'I' for Inactive)
REMARK    1  A    between atoms: C1_1  and  N1_2
REMARK    2  A    between atoms: N1_2  and  C2_3
REMARK    3  A    between atoms: N1_2  and  C3_4
REMARK    4  A    between atoms: C6_7  and  N2_10
REMARK    5  A    between atoms: C11_15  and  C12_16
REMARK    6  A    between atoms: C11_15  and  C13_17
REMARK                            x       y       z     vdW  Elec       q    Type
REMARK                         _______ _______ _______ _____ _____    ______ ____
ROOT
ATOM      1  N2  UNL     1     141.723 129.334 100.644  0.00  0.00    -0.248 N 
ATOM      2  C9  UNL     1     142.513 130.363 101.091  0.00  0.00    +0.189 C 
ATOM      3  N3  UNL     1     142.364 131.609 100.780  0.00  0.00    -0.185 NA
ATOM      4  C10 UNL     1     141.379 131.927  99.906  0.00  0.00    +0.213 C 
ATOM      5  N4  UNL     1     140.451 131.135  99.509  0.00  0.00    -0.226 NA
ATOM      6  C11 UNL     1     140.448 129.767 100.040  0.00  0.00    +0.131 C 
ATOM      7  C12 UNL     1     140.073 128.888  98.830  0.00  0.00    +0.058 C 
ATOM      8  C13 UNL     1     139.298 129.729 101.067  0.00  0.00    +0.058 C 
ATOM      9  N5  UNL     1     141.377 133.203  99.448  0.00  0.00    -0.328 N 
ATOM     10  N6  UNL     1     143.561 130.045 101.901  0.00  0.00    -0.331 N 
ATOM     11  H17 UNL     1     141.820 133.837 100.098  0.00  0.00    +0.145 HD
ATOM     12  H18 UNL     1     140.460 133.490  99.137  0.00  0.00    +0.145 HD
ATOM     13  H19 UNL     1     144.007 129.166 101.663  0.00  0.00    +0.145 HD
ATOM     14  H20 UNL     1     144.223 130.808 101.962  0.00  0.00    +0.145 HD
ENDROOT
BRANCH   1  18
ATOM     15  C3  UNL     1     141.925 125.381 102.297  0.00  0.00    +0.029 A 
ATOM     16  C4  UNL     1     141.312 126.442 102.983  0.00  0.00    +0.025 A 
ATOM     17  C5  UNL     1     141.235 127.738 102.447  0.00  0.00    +0.025 A 
ATOM     18  C6  UNL     1     141.771 128.033 101.192  0.00  0.00    +0.039 A 
ATOM     19  C7  UNL     1     142.415 127.001 100.510  0.00  0.00    +0.025 A 
ATOM     20  C8  UNL     1     142.489 125.708 101.052  0.00  0.00    +0.025 A 
BRANCH  15  22
ATOM     21  C1  UNL     1     141.436 122.973 102.096  0.00  0.00    +0.129 C 
ATOM     22  N1  UNL     1     142.015 124.093 102.839  0.00  0.00    -0.336 N 
ATOM     23  C2  UNL     1     142.042 123.936 104.292  0.00  0.00    +0.129 C 
ENDBRANCH  15  22
ENDBRANCH   1  18
TORSDOF 2
ENDMDL
MODEL 5
REMARK VINA RESULT:    -3.092      8.761     11.246
REMARK INTER + INTRA:          -3.309
REMARK INTER:                  -3.467
REMARK INTRA:                   0.158
REMARK UNBOUND:                 0.145
REMARK  Name = /home/vital/Documents/PhD_2021/Malaria_codes/data/pdb_ligands_mmv/ligand_220.pdb
REMARK  6 active torsions:
REMARK  status: ('A' for Active; 'I' for Inactive)
REMARK    1  A    between atoms: C1_1  and  N1_2
REMARK    2  A    between atoms: N1_2  and  C2_3
REMARK    3  A    between atoms: N1_2  and  C3_4
REMARK    4  A    between atoms: C6_7  and  N2_10
REMARK    5  A    between atoms: C11_15  and  C12_16
REMARK    6  A    between atoms: C11_15  and  C13_17
REMARK                            x       y       z     vdW  Elec       q    Type
REMARK                         _______ _______ _______ _____ _____    ______ ____
ROOT
ATOM      1  N2  UNL     1     140.791 131.789  90.460  0.00  0.00    -0.248 N 
ATOM      2  C9  UNL     1     139.790 130.878  90.235  0.00  0.00    +0.189 C 
ATOM      3  N3  UNL     1     139.132 130.748  89.129  0.00  0.00    -0.185 NA
ATOM      4  C10 UNL     1     139.418 131.606  88.121  0.00  0.00    +0.213 C 
ATOM      5  N4  UNL     1     140.418 132.410  88.088  0.00  0.00    -0.226 NA
ATOM      6  C11 UNL     1     141.333 132.408  89.235  0.00  0.00    +0.131 C 
ATOM      7  C12 UNL     1     141.670 133.895  89.458  0.00  0.00    +0.058 C 
ATOM      8  C13 UNL     1     142.599 131.672  88.746  0.00  0.00    +0.058 C 
ATOM      9  N5  UNL     1     138.581 131.576  87.055  0.00  0.00    -0.328 N 
ATOM     10  N6  UNL     1     139.433 130.069  91.270  0.00  0.00    -0.331 N 
ATOM     11  H17 UNL     1     138.127 130.677  86.958  0.00  0.00    +0.145 HD
ATOM     12  H18 UNL     1     139.027 131.915  86.215  0.00  0.00    +0.145 HD
ATOM     13  H19 UNL     1     139.473 130.524  92.175  0.00  0.00    +0.145 HD
ATOM     14  H20 UNL     1     138.536 129.629  91.101  0.00  0.00    +0.145 HD
ENDROOT
BRANCH   1  18
ATOM     15  C3  UNL     1     143.316 131.633  93.924  0.00  0.00    +0.029 A 
ATOM     16  C4  UNL     1     143.505 130.776  92.827  0.00  0.00    +0.025 A 
ATOM     17  C5  UNL     1     142.688 130.824  91.686  0.00  0.00    +0.025 A 
ATOM     18  C6  UNL     1     141.637 131.738  91.589  0.00  0.00    +0.039 A 
ATOM     19  C7  UNL     1     141.411 132.575  92.681  0.00  0.00    +0.025 A 
ATOM     20  C8  UNL     1     142.232 132.521  93.820  0.00  0.00    +0.025 A 
BRANCH  15  22
ATOM     21  C1  UNL     1     143.506 131.223  96.346  0.00  0.00    +0.129 C 
ATOM     22  N1  UNL     1     144.122 131.574  95.067  0.00  0.00    -0.336 N 
ATOM     23  C2  UNL     1     145.296 132.441  95.152  0.00  0.00    +0.129 C 
ENDBRANCH  15  22
ENDBRANCH   1  18
TORSDOF 2
ENDMDL
MODEL 6
REMARK VINA RESULT:    -2.964     10.386     12.499
REMARK INTER + INTRA:          -3.165
REMARK INTER:                  -3.345
REMARK INTRA:                   0.180
REMARK UNBOUND:                 0.145
REMARK  Name = /home/vital/Documents/PhD_2021/Malaria_codes/data/pdb_ligands_mmv/ligand_220.pdb
REMARK  6 active torsions:
REMARK  status: ('A' for Active; 'I' for Inactive)
REMARK    1  A    between atoms: C1_1  and  N1_2
REMARK    2  A    between atoms: N1_2  and  C2_3
REMARK    3  A    between atoms: N1_2  and  C3_4
REMARK    4  A    between atoms: C6_7  and  N2_10
REMARK    5  A    between atoms: C11_15  and  C12_16
REMARK    6  A    between atoms: C11_15  and  C13_17
REMARK                            x       y       z     vdW  Elec       q    Type
REMARK                         _______ _______ _______ _____ _____    ______ ____
ROOT
ATOM      1  N2  UNL     1     141.427 131.428  90.510  0.00  0.00    -0.248 N 
ATOM      2  C9  UNL     1     141.295 131.830  91.815  0.00  0.00    +0.189 C 
ATOM      3  N3  UNL     1     142.081 132.655  92.426  0.00  0.00    -0.185 NA
ATOM      4  C10 UNL     1     143.150 133.130  91.744  0.00  0.00    +0.213 C 
ATOM      5  N4  UNL     1     143.349 132.994  90.483  0.00  0.00    -0.226 NA
ATOM      6  C11 UNL     1     142.340 132.265  89.707  0.00  0.00    +0.131 C 
ATOM      7  C12 UNL     1     143.160 131.413  88.719  0.00  0.00    +0.058 C 
ATOM      8  C13 UNL     1     141.568 133.346  88.922  0.00  0.00    +0.058 C 
ATOM      9  N5  UNL     1     144.059 133.827  92.469  0.00  0.00    -0.328 N 
ATOM     10  N6  UNL     1     140.274 131.292  92.538  0.00  0.00    -0.331 N 
ATOM     11  H17 UNL     1     143.644 134.249  93.288  0.00  0.00    +0.145 HD
ATOM     12  H18 UNL     1     144.594 134.462  91.893  0.00  0.00    +0.145 HD
ATOM     13  H19 UNL     1     140.083 130.322  92.313  0.00  0.00    +0.145 HD
ATOM     14  H20 UNL     1     140.410 131.437  93.531  0.00  0.00    +0.145 HD
ENDROOT
BRANCH   1  18
ATOM     15  C3  UNL     1     138.364 129.243  88.449  0.00  0.00    +0.029 A 
ATOM     16  C4  UNL     1     138.314 130.640  88.589  0.00  0.00    +0.025 A 
ATOM     17  C5  UNL     1     139.315 131.364  89.256  0.00  0.00    +0.025 A 
ATOM     18  C6  UNL     1     140.420 130.721  89.817  0.00  0.00    +0.039 A 
ATOM     19  C7  UNL     1     140.471 129.331  89.719  0.00  0.00    +0.025 A 
ATOM     20  C8  UNL     1     139.466 128.612  89.051  0.00  0.00    +0.025 A 
BRANCH  15  22
ATOM     21  C1  UNL     1     137.108 127.137  88.203  0.00  0.00    +0.129 C 
ATOM     22  N1  UNL     1     137.358 128.520  87.797  0.00  0.00    -0.336 N 
ATOM     23  C2  UNL     1     137.053 128.831  86.402  0.00  0.00    +0.129 C 
ENDBRANCH  15  22
ENDBRANCH   1  18
TORSDOF 2
ENDMDL
MODEL 7
REMARK VINA RESULT:    -2.819      8.275      9.599
REMARK INTER + INTRA:          -3.004
REMARK INTER:                  -3.170
REMARK INTRA:                   0.166
REMARK UNBOUND:                 0.145
REMARK  Name = /home/vital/Documents/PhD_2021/Malaria_codes/data/pdb_ligands_mmv/ligand_220.pdb
REMARK  6 active torsions:
REMARK  status: ('A' for Active; 'I' for Inactive)
REMARK    1  A    between atoms: C1_1  and  N1_2
REMARK    2  A    between atoms: N1_2  and  C2_3
REMARK    3  A    between atoms: N1_2  and  C3_4
REMARK    4  A    between atoms: C6_7  and  N2_10
REMARK    5  A    between atoms: C11_15  and  C12_16
REMARK    6  A    between atoms: C11_15  and  C13_17
REMARK                            x       y       z     vdW  Elec       q    Type
REMARK                         _______ _______ _______ _____ _____    ______ ____
ROOT
ATOM      1  N2  UNL     1     142.197 130.211  92.934  0.00  0.00    -0.248 N 
ATOM      2  C9  UNL     1     141.627 131.445  92.751  0.00  0.00    +0.189 C 
ATOM      3  N3  UNL     1     142.207 132.577  92.981  0.00  0.00    -0.185 NA
ATOM      4  C10 UNL     1     143.463 132.552  93.484  0.00  0.00    +0.213 C 
ATOM      5  N4  UNL     1     144.210 131.511  93.571  0.00  0.00    -0.226 NA
ATOM      6  C11 UNL     1     143.665 130.238  93.088  0.00  0.00    +0.131 C 
ATOM      7  C12 UNL     1     144.141 129.200  94.123  0.00  0.00    +0.058 C 
ATOM      8  C13 UNL     1     144.376 129.973  91.744  0.00  0.00    +0.058 C 
ATOM      9  N5  UNL     1     143.965 133.741  93.900  0.00  0.00    -0.328 N 
ATOM     10  N6  UNL     1     140.333 131.482  92.328  0.00  0.00    -0.331 N 
ATOM     11  H17 UNL     1     143.535 134.519  93.418  0.00  0.00    +0.145 HD
ATOM     12  H18 UNL     1     144.975 133.747  93.893  0.00  0.00    +0.145 HD
ATOM     13  H19 UNL     1     139.758 130.740  92.711  0.00  0.00    +0.145 HD
ATOM     14  H20 UNL     1     139.925 132.398  92.474  0.00  0.00    +0.145 HD
ENDROOT
BRANCH   1  18
ATOM     15  C3  UNL     1     140.396 126.593  91.496  0.00  0.00    +0.029 A 
ATOM     16  C4  UNL     1     140.920 127.560  90.623  0.00  0.00    +0.025 A 
ATOM     17  C5  UNL     1     141.518 128.744  91.084  0.00  0.00    +0.025 A 
ATOM     18  C6  UNL     1     141.619 129.017  92.450  0.00  0.00    +0.039 A 
ATOM     19  C7  UNL     1     141.073 128.086  93.333  0.00  0.00    +0.025 A 
ATOM     20  C8  UNL     1     140.477 126.903  92.865  0.00  0.00    +0.025 A 
BRANCH  15  22
ATOM     21  C1  UNL     1     138.563 125.526  90.240  0.00  0.00    +0.129 C 
ATOM     22  N1  UNL     1     139.787 125.420  91.035  0.00  0.00    -0.336 N 
ATOM     23  C2  UNL     1     139.921 124.195  91.822  0.00  0.00    +0.129 C 
ENDBRANCH  15  22
ENDBRANCH   1  18
TORSDOF 2
ENDMDL
MODEL 8
REMARK VINA RESULT:    -2.789      2.650      3.868
REMARK INTER + INTRA:          -2.971
REMARK INTER:                  -3.120
REMARK INTRA:                   0.150
REMARK UNBOUND:                 0.145
REMARK  Name = /home/vital/Documents/PhD_2021/Malaria_codes/data/pdb_ligands_mmv/ligand_220.pdb
REMARK  6 active torsions:
REMARK  status: ('A' for Active; 'I' for Inactive)
REMARK    1  A    between atoms: C1_1  and  N1_2
REMARK    2  A    between atoms: N1_2  and  C2_3
REMARK    3  A    between atoms: N1_2  and  C3_4
REMARK    4  A    between atoms: C6_7  and  N2_10
REMARK    5  A    between atoms: C11_15  and  C12_16
REMARK    6  A    between atoms: C11_15  and  C13_17
REMARK                            x       y       z     vdW  Elec       q    Type
REMARK                         _______ _______ _______ _____ _____    ______ ____
ROOT
ATOM      1  N2  UNL     1     140.711 127.981 100.432  0.00  0.00    -0.248 N 
ATOM      2  C9  UNL     1     140.570 127.057  99.428  0.00  0.00    +0.189 C 
ATOM      3  N3  UNL     1     139.792 127.179  98.403  0.00  0.00    -0.185 NA
ATOM      4  C10 UNL     1     139.016 128.287  98.329  0.00  0.00    +0.213 C 
ATOM      5  N4  UNL     1     139.124 129.323  99.080  0.00  0.00    -0.226 NA
ATOM      6  C11 UNL     1     140.171 129.316 100.107  0.00  0.00    +0.131 C 
ATOM      7  C12 UNL     1     139.506 129.967 101.336  0.00  0.00    +0.058 C 
ATOM      8  C13 UNL     1     141.273 130.254  99.573  0.00  0.00    +0.058 C 
ATOM      9  N5  UNL     1     138.072 128.291  97.357  0.00  0.00    -0.328 N 
ATOM     10  N6  UNL     1     141.280 125.899  99.536  0.00  0.00    -0.331 N 
ATOM     11  H17 UNL     1     138.327 127.694  96.582  0.00  0.00    +0.145 HD
ATOM     12  H18 UNL     1     137.805 129.230  97.095  0.00  0.00    +0.145 HD
ATOM     13  H19 UNL     1     141.368 125.563 100.489  0.00  0.00    +0.145 HD
ATOM     14  H20 UNL     1     140.921 125.188  98.910  0.00  0.00    +0.145 HD
ENDROOT
BRANCH   1  18
ATOM     15  C3  UNL     1     143.817 127.732 103.380  0.00  0.00    +0.029 A 
ATOM     16  C4  UNL     1     144.069 128.177 102.072  0.00  0.00    +0.025 A 
ATOM     17  C5  UNL     1     143.057 128.269 101.102  0.00  0.00    +0.025 A 
ATOM     18  C6  UNL     1     141.739 127.917 101.398  0.00  0.00    +0.039 A 
ATOM     19  C7  UNL     1     141.475 127.439 102.681  0.00  0.00    +0.025 A 
ATOM     20  C8  UNL     1     142.491 127.350 103.647  0.00  0.00    +0.025 A 
BRANCH  15  22
ATOM     21  C1  UNL     1     145.980 128.525 104.256  0.00  0.00    +0.129 C 
ATOM     22  N1  UNL     1     144.829 127.627 104.342  0.00  0.00    -0.336 N 
ATOM     23  C2  UNL     1     145.092 126.325 104.954  0.00  0.00    +0.129 C 
ENDBRANCH  15  22
ENDBRANCH   1  18
TORSDOF 2
ENDMDL
MODEL 9
REMARK VINA RESULT:    -2.757      4.635      8.778
REMARK INTER + INTRA:          -2.935
REMARK INTER:                  -3.079
REMARK INTRA:                   0.144
REMARK UNBOUND:                 0.145
REMARK  Name = /home/vital/Documents/PhD_2021/Malaria_codes/data/pdb_ligands_mmv/ligand_220.pdb
REMARK  6 active torsions:
REMARK  status: ('A' for Active; 'I' for Inactive)
REMARK    1  A    between atoms: C1_1  and  N1_2
REMARK    2  A    between atoms: N1_2  and  C2_3
REMARK    3  A    between atoms: N1_2  and  C3_4
REMARK    4  A    between atoms: C6_7  and  N2_10
REMARK    5  A    between atoms: C11_15  and  C12_16
REMARK    6  A    between atoms: C11_15  and  C13_17
REMARK                            x       y       z     vdW  Elec       q    Type
REMARK                         _______ _______ _______ _____ _____    ______ ____
ROOT
ATOM      1  N2  UNL     1     138.928 123.532 106.477  0.00  0.00    -0.248 N 
ATOM      2  C9  UNL     1     139.104 122.727 107.573  0.00  0.00    +0.189 C 
ATOM      3  N3  UNL     1     138.224 121.905 108.045  0.00  0.00    -0.185 NA
ATOM      4  C10 UNL     1     137.013 121.862 107.442  0.00  0.00    +0.213 C 
ATOM      5  N4  UNL     1     136.719 122.417 106.322  0.00  0.00    -0.226 NA
ATOM      6  C11 UNL     1     137.776 123.162 105.631  0.00  0.00    +0.131 C 
ATOM      7  C12 UNL     1     137.064 124.410 105.074  0.00  0.00    +0.058 C 
ATOM      8  C13 UNL     1     138.209 122.262 104.455  0.00  0.00    +0.058 C 
ATOM      9  N5  UNL     1     136.054 121.146 108.077  0.00  0.00    -0.328 N 
ATOM     10  N6  UNL     1     140.287 122.824 108.241  0.00  0.00    -0.331 N 
ATOM     11  H17 UNL     1     136.450 120.423 108.662  0.00  0.00    +0.145 HD
ATOM     12  H18 UNL     1     135.337 120.827 107.441  0.00  0.00    +0.145 HD
ATOM     13  H19 UNL     1     140.659 123.767 108.274  0.00  0.00    +0.145 HD
ATOM     14  H20 UNL     1     140.225 122.403 109.160  0.00  0.00    +0.145 HD
ENDROOT
BRANCH   1  18
ATOM     15  C3  UNL     1     142.157 125.682 104.647  0.00  0.00    +0.029 A 
ATOM     16  C4  UNL     1     142.018 124.291 104.508  0.00  0.00    +0.025 A 
ATOM     17  C5  UNL     1     140.960 123.580 105.098  0.00  0.00    +0.025 A 
ATOM     18  C6  UNL     1     139.987 124.232 105.858  0.00  0.00    +0.039 A 
ATOM     19  C7  UNL     1     140.127 125.608 106.037  0.00  0.00    +0.025 A 
ATOM     20  C8  UNL     1     141.187 126.313 105.444  0.00  0.00    +0.025 A 
BRANCH  15  22
ATOM     21  C1  UNL     1     144.574 126.164 104.580  0.00  0.00    +0.129 C 
ATOM     22  N1  UNL     1     143.220 126.388 104.071  0.00  0.00    -0.336 N 
ATOM     23  C2  UNL     1     142.970 127.717 103.516  0.00  0.00    +0.129 C 
ENDBRANCH  15  22
ENDBRANCH   1  18
TORSDOF 2
ENDMDL
