MODEL 1
REMARK VINA RESULT:    -8.052      0.000      0.000
REMARK INTER + INTRA:         -12.887
REMARK INTER:                 -11.347
REMARK INTRA:                  -1.540
REMARK UNBOUND:                -1.540
REMARK  Name = /home/vital/Documents/PhD_2021/Malaria_codes/data/pdb_ligands_mmv/ligand_342.pdb
REMARK  7 active torsions:
REMARK  status: ('A' for Active; 'I' for Inactive)
REMARK    1  A    between atoms: C1_1  and  C2_2
REMARK    2  A    between atoms: C3_5  and  C4_6
REMARK    3  A    between atoms: C4_6  and  C5_7
REMARK    4  A    between atoms: C15_18  and  N3_19
REMARK    5  A    between atoms: N4_24  and  C20_25
REMARK    6  A    between atoms: C20_25  and  C21_26
REMARK    7  A    between atoms: C20_25  and  C27_32
REMARK                            x       y       z     vdW  Elec       q    Type
REMARK                         _______ _______ _______ _____ _____    ______ ____
ROOT
ATOM      1  N3  UNL     1       6.296   0.192 -30.700  0.00  0.00    -0.297 N 
ATOM      2  C16 UNL     1       6.274  -0.375 -29.339  0.00  0.00    +0.123 C 
ATOM      3  C17 UNL     1       4.906  -0.997 -28.978  0.00  0.00    +0.104 C 
ATOM      4  C18 UNL     1       5.622  -0.611 -31.744  0.00  0.00    +0.123 C 
ATOM      5  C19 UNL     1       4.288  -1.214 -31.256  0.00  0.00    +0.104 C 
ATOM      6  N4  UNL     1       4.351  -1.952 -29.970  0.00  0.00    -0.289 NA
ENDROOT
BRANCH   1  11
ATOM      7  C1  UNL     1       7.584   2.087 -31.859  0.00  0.00    +0.201 A 
ATOM      8  N2  UNL     1       8.925   2.409 -31.895  0.00  0.00    -0.200 NA
ATOM      9  C3  UNL     1       9.484   1.453 -31.182  0.00  0.00    +0.203 A 
ATOM     10  O1  UNL     1       8.602   0.557 -30.648  0.00  0.00    -0.424 OA
ATOM     11  C15 UNL     1       7.363   0.956 -31.089  0.00  0.00    +0.227 A 
BRANCH   7  12
ATOM     12  C2  UNL     1       6.631   2.896 -32.542  0.00  0.00    +0.124 C 
ATOM     13  N1  UNL     1       5.876   3.577 -33.106  0.00  0.00    -0.189 NA
ENDBRANCH   7  12
BRANCH   9  14
ATOM     14  C4  UNL     1      10.923   1.245 -30.863  0.00  0.00    +0.131 C 
BRANCH  14  15
ATOM     15  C5  UNL     1      11.426   2.148 -29.752  0.00  0.00    -0.031 A 
ATOM     16  C6  UNL     1      11.828   3.453 -30.097  0.00  0.00    +0.005 A 
ATOM     17  C7  UNL     1      12.296   4.333 -29.130  0.00  0.00    +0.001 A 
ATOM     18  C8  UNL     1      12.366   3.928 -27.801  0.00  0.00    +0.008 A 
ATOM     19  C9  UNL     1      11.966   2.640 -27.418  0.00  0.00    -0.018 A 
ATOM     20  C10 UNL     1      12.041   2.256 -26.068  0.00  0.00    +0.008 A 
ATOM     21  C11 UNL     1      11.642   0.986 -25.659  0.00  0.00    +0.001 A 
ATOM     22  C12 UNL     1      11.161   0.082 -26.595  0.00  0.00    +0.001 A 
ATOM     23  C13 UNL     1      11.082   0.448 -27.941  0.00  0.00    +0.009 A 
ATOM     24  C14 UNL     1      11.483   1.728 -28.391  0.00  0.00    -0.014 A 
ENDBRANCH  14  15
ENDBRANCH   9  14
ENDBRANCH   1  11
BRANCH   6  25
ATOM     25  C20 UNL     1       5.155  -3.208 -30.066  0.00  0.00    +0.117 C 
BRANCH  25  26
ATOM     26  C21 UNL     1       5.333  -3.917 -28.716  0.00  0.00    -0.026 A 
ATOM     27  C22 UNL     1       4.232  -4.341 -27.953  0.00  0.00    +0.005 A 
ATOM     28  C23 UNL     1       4.416  -4.994 -26.733  0.00  0.00    +0.000 A 
ATOM     29  C24 UNL     1       5.703  -5.236 -26.260  0.00  0.00    +0.000 A 
ATOM     30  C25 UNL     1       6.807  -4.829 -27.006  0.00  0.00    +0.000 A 
ATOM     31  C26 UNL     1       6.625  -4.178 -28.227  0.00  0.00    +0.005 A 
ENDBRANCH  25  26
BRANCH  25  32
ATOM     32  C27 UNL     1       4.610  -4.203 -31.099  0.00  0.00    -0.026 A 
ATOM     33  C28 UNL     1       3.309  -4.728 -31.008  0.00  0.00    +0.005 A 
ATOM     34  C29 UNL     1       2.839  -5.642 -31.953  0.00  0.00    +0.000 A 
ATOM     35  C30 UNL     1       3.664  -6.052 -32.997  0.00  0.00    +0.000 A 
ATOM     36  C31 UNL     1       4.959  -5.550 -33.099  0.00  0.00    +0.000 A 
ATOM     37  C32 UNL     1       5.431  -4.634 -32.155  0.00  0.00    +0.005 A 
ENDBRANCH  25  32
ENDBRANCH   6  25
TORSDOF 7
ENDMDL
MODEL 2
REMARK VINA RESULT:    -8.046      4.130      9.475
REMARK INTER + INTRA:         -12.878
REMARK INTER:                 -11.475
REMARK INTRA:                  -1.403
REMARK UNBOUND:                -1.540
REMARK  Name = /home/vital/Documents/PhD_2021/Malaria_codes/data/pdb_ligands_mmv/ligand_342.pdb
REMARK  7 active torsions:
REMARK  status: ('A' for Active; 'I' for Inactive)
REMARK    1  A    between atoms: C1_1  and  C2_2
REMARK    2  A    between atoms: C3_5  and  C4_6
REMARK    3  A    between atoms: C4_6  and  C5_7
REMARK    4  A    between atoms: C15_18  and  N3_19
REMARK    5  A    between atoms: N4_24  and  C20_25
REMARK    6  A    between atoms: C20_25  and  C21_26
REMARK    7  A    between atoms: C20_25  and  C27_32
REMARK                            x       y       z     vdW  Elec       q    Type
REMARK                         _______ _______ _______ _____ _____    ______ ____
ROOT
ATOM      1  N3  UNL     1       4.991  -4.125 -28.694  0.00  0.00    -0.297 N 
ATOM      2  C16 UNL     1       4.077  -4.386 -27.566  0.00  0.00    +0.123 C 
ATOM      3  C17 UNL     1       4.715  -5.285 -26.483  0.00  0.00    +0.104 C 
ATOM      4  C18 UNL     1       6.399  -3.852 -28.333  0.00  0.00    +0.123 C 
ATOM      5  C19 UNL     1       6.914  -4.783 -27.215  0.00  0.00    +0.104 C 
ATOM      6  N4  UNL     1       6.057  -4.865 -26.006  0.00  0.00    -0.289 NA
ENDROOT
BRANCH   1  11
ATOM      7  C1  UNL     1       3.883  -2.328 -30.155  0.00  0.00    +0.201 A 
ATOM      8  N2  UNL     1       3.616  -2.267 -31.507  0.00  0.00    -0.200 NA
ATOM      9  C3  UNL     1       4.047  -3.430 -31.952  0.00  0.00    +0.203 A 
ATOM     10  O1  UNL     1       4.614  -4.225 -30.997  0.00  0.00    -0.424 OA
ATOM     11  C15 UNL     1       4.506  -3.520 -29.822  0.00  0.00    +0.227 A 
BRANCH   7  12
ATOM     12  C2  UNL     1       3.541  -1.237 -29.304  0.00  0.00    +0.124 C 
ATOM     13  N1  UNL     1       3.269  -0.365 -28.586  0.00  0.00    -0.189 NA
ENDBRANCH   7  12
BRANCH   9  14
ATOM     14  C4  UNL     1       4.024  -3.966 -33.340  0.00  0.00    +0.131 C 
BRANCH  14  15
ATOM     15  C5  UNL     1       2.632  -4.349 -33.810  0.00  0.00    -0.031 A 
ATOM     16  C6  UNL     1       1.846  -3.351 -34.418  0.00  0.00    +0.005 A 
ATOM     17  C7  UNL     1       0.565  -3.633 -34.874  0.00  0.00    +0.001 A 
ATOM     18  C8  UNL     1       0.047  -4.917 -34.735  0.00  0.00    +0.008 A 
ATOM     19  C9  UNL     1       0.803  -5.939 -34.143  0.00  0.00    -0.018 A 
ATOM     20  C10 UNL     1       0.261  -7.229 -34.020  0.00  0.00    +0.008 A 
ATOM     21  C11 UNL     1       0.993  -8.264 -33.444  0.00  0.00    +0.001 A 
ATOM     22  C12 UNL     1       2.279  -8.023 -32.985  0.00  0.00    +0.001 A 
ATOM     23  C13 UNL     1       2.833  -6.745 -33.099  0.00  0.00    +0.009 A 
ATOM     24  C14 UNL     1       2.115  -5.670 -33.674  0.00  0.00    -0.014 A 
ENDBRANCH  14  15
ENDBRANCH   9  14
ENDBRANCH   1  11
BRANCH   6  25
ATOM     25  C20 UNL     1       6.015  -3.581 -25.242  0.00  0.00    +0.117 C 
BRANCH  25  26
ATOM     26  C21 UNL     1       5.420  -3.734 -23.835  0.00  0.00    -0.026 A 
ATOM     27  C22 UNL     1       4.647  -2.719 -23.246  0.00  0.00    +0.005 A 
ATOM     28  C23 UNL     1       4.106  -2.882 -21.969  0.00  0.00    +0.000 A 
ATOM     29  C24 UNL     1       4.326  -4.063 -21.265  0.00  0.00    +0.000 A 
ATOM     30  C25 UNL     1       5.084  -5.083 -21.835  0.00  0.00    +0.000 A 
ATOM     31  C26 UNL     1       5.624  -4.922 -23.113  0.00  0.00    +0.005 A 
ENDBRANCH  25  26
BRANCH  25  32
ATOM     32  C27 UNL     1       7.378  -2.882 -25.148  0.00  0.00    -0.026 A 
ATOM     33  C28 UNL     1       8.472  -3.477 -24.497  0.00  0.00    +0.005 A 
ATOM     34  C29 UNL     1       9.700  -2.817 -24.414  0.00  0.00    +0.000 A 
ATOM     35  C30 UNL     1       9.849  -1.550 -24.972  0.00  0.00    +0.000 A 
ATOM     36  C31 UNL     1       8.773  -0.940 -25.613  0.00  0.00    +0.000 A 
ATOM     37  C32 UNL     1       7.545  -1.601 -25.699  0.00  0.00    +0.005 A 
ENDBRANCH  25  32
ENDBRANCH   6  25
TORSDOF 7
ENDMDL
MODEL 3
REMARK VINA RESULT:    -7.868     12.815     16.952
REMARK INTER + INTRA:         -12.628
REMARK INTER:                 -12.072
REMARK INTRA:                  -0.556
REMARK UNBOUND:                -1.540
REMARK  Name = /home/vital/Documents/PhD_2021/Malaria_codes/data/pdb_ligands_mmv/ligand_342.pdb
REMARK  7 active torsions:
REMARK  status: ('A' for Active; 'I' for Inactive)
REMARK    1  A    between atoms: C1_1  and  C2_2
REMARK    2  A    between atoms: C3_5  and  C4_6
REMARK    3  A    between atoms: C4_6  and  C5_7
REMARK    4  A    between atoms: C15_18  and  N3_19
REMARK    5  A    between atoms: N4_24  and  C20_25
REMARK    6  A    between atoms: C20_25  and  C21_26
REMARK    7  A    between atoms: C20_25  and  C27_32
REMARK                            x       y       z     vdW  Elec       q    Type
REMARK                         _______ _______ _______ _____ _____    ______ ____
ROOT
ATOM      1  N3  UNL     1      -2.080   4.357 -19.613  0.00  0.00    -0.297 N 
ATOM      2  C16 UNL     1      -1.465   5.454 -20.384  0.00  0.00    +0.123 C 
ATOM      3  C17 UNL     1      -1.376   6.768 -19.576  0.00  0.00    +0.104 C 
ATOM      4  C18 UNL     1      -1.665   4.253 -18.197  0.00  0.00    +0.123 C 
ATOM      5  C19 UNL     1      -1.572   5.630 -17.506  0.00  0.00    +0.104 C 
ATOM      6  N4  UNL     1      -0.773   6.654 -18.224  0.00  0.00    -0.289 NA
ENDROOT
BRANCH   1  11
ATOM      7  C1  UNL     1      -2.139   2.579 -21.465  0.00  0.00    +0.201 A 
ATOM      8  N2  UNL     1      -2.785   1.365 -21.564  0.00  0.00    -0.200 NA
ATOM      9  C3  UNL     1      -3.462   1.291 -20.435  0.00  0.00    +0.203 A 
ATOM     10  O1  UNL     1      -3.268   2.346 -19.590  0.00  0.00    -0.424 OA
ATOM     11  C15 UNL     1      -2.415   3.195 -20.254  0.00  0.00    +0.227 A 
BRANCH   7  12
ATOM     12  C2  UNL     1      -1.299   3.036 -22.522  0.00  0.00    +0.124 C 
ATOM     13  N1  UNL     1      -0.632   3.434 -23.386  0.00  0.00    -0.189 NA
ENDBRANCH   7  12
BRANCH   9  14
ATOM     14  C4  UNL     1      -4.367   0.210 -19.958  0.00  0.00    +0.131 C 
BRANCH  14  15
ATOM     15  C5  UNL     1      -4.181  -1.098 -20.704  0.00  0.00    -0.031 A 
ATOM     16  C6  UNL     1      -3.300  -2.049 -20.154  0.00  0.00    +0.005 A 
ATOM     17  C7  UNL     1      -3.086  -3.269 -20.783  0.00  0.00    +0.001 A 
ATOM     18  C8  UNL     1      -3.750  -3.562 -21.970  0.00  0.00    +0.008 A 
ATOM     19  C9  UNL     1      -4.641  -2.645 -22.543  0.00  0.00    -0.018 A 
ATOM     20  C10 UNL     1      -5.305  -2.966 -23.739  0.00  0.00    +0.008 A 
ATOM     21  C11 UNL     1      -6.202  -2.077 -24.325  0.00  0.00    +0.001 A 
ATOM     22  C12 UNL     1      -6.448  -0.853 -23.722  0.00  0.00    +0.001 A 
ATOM     23  C13 UNL     1      -5.796  -0.516 -22.533  0.00  0.00    +0.009 A 
ATOM     24  C14 UNL     1      -4.875  -1.394 -21.913  0.00  0.00    -0.014 A 
ENDBRANCH  14  15
ENDBRANCH   9  14
ENDBRANCH   1  11
BRANCH   6  25
ATOM     25  C20 UNL     1       0.682   6.318 -18.274  0.00  0.00    +0.117 C 
BRANCH  25  26
ATOM     26  C21 UNL     1       1.573   7.529 -18.582  0.00  0.00    -0.026 A 
ATOM     27  C22 UNL     1       1.978   8.423 -17.577  0.00  0.00    +0.005 A 
ATOM     28  C23 UNL     1       2.798   9.512 -17.877  0.00  0.00    +0.000 A 
ATOM     29  C24 UNL     1       3.227   9.722 -19.185  0.00  0.00    +0.000 A 
ATOM     30  C25 UNL     1       2.842   8.843 -20.193  0.00  0.00    +0.000 A 
ATOM     31  C26 UNL     1       2.023   7.752 -19.895  0.00  0.00    +0.005 A 
ENDBRANCH  25  26
BRANCH  25  32
ATOM     32  C27 UNL     1       1.190   5.617 -17.007  0.00  0.00    -0.026 A 
ATOM     33  C28 UNL     1       0.929   6.127 -15.723  0.00  0.00    +0.005 A 
ATOM     34  C29 UNL     1       1.412   5.479 -14.584  0.00  0.00    +0.000 A 
ATOM     35  C30 UNL     1       2.171   4.319 -14.712  0.00  0.00    +0.000 A 
ATOM     36  C31 UNL     1       2.448   3.804 -15.976  0.00  0.00    +0.000 A 
ATOM     37  C32 UNL     1       1.964   4.449 -17.116  0.00  0.00    +0.005 A 
ENDBRANCH  25  32
ENDBRANCH   6  25
TORSDOF 7
ENDMDL
MODEL 4
REMARK VINA RESULT:    -7.810      4.345      9.572
REMARK INTER + INTRA:         -12.547
REMARK INTER:                 -11.245
REMARK INTRA:                  -1.301
REMARK UNBOUND:                -1.540
REMARK  Name = /home/vital/Documents/PhD_2021/Malaria_codes/data/pdb_ligands_mmv/ligand_342.pdb
REMARK  7 active torsions:
REMARK  status: ('A' for Active; 'I' for Inactive)
REMARK    1  A    between atoms: C1_1  and  C2_2
REMARK    2  A    between atoms: C3_5  and  C4_6
REMARK    3  A    between atoms: C4_6  and  C5_7
REMARK    4  A    between atoms: C15_18  and  N3_19
REMARK    5  A    between atoms: N4_24  and  C20_25
REMARK    6  A    between atoms: C20_25  and  C21_26
REMARK    7  A    between atoms: C20_25  and  C27_32
REMARK                            x       y       z     vdW  Elec       q    Type
REMARK                         _______ _______ _______ _____ _____    ______ ____
ROOT
ATOM      1  N3  UNL     1       4.713  -4.141 -28.319  0.00  0.00    -0.297 N 
ATOM      2  C16 UNL     1       3.780  -4.288 -27.187  0.00  0.00    +0.123 C 
ATOM      3  C17 UNL     1       4.335  -5.211 -26.078  0.00  0.00    +0.104 C 
ATOM      4  C18 UNL     1       6.140  -3.984 -27.962  0.00  0.00    +0.123 C 
ATOM      5  C19 UNL     1       6.569  -4.927 -26.818  0.00  0.00    +0.104 C 
ATOM      6  N4  UNL     1       5.709  -4.899 -25.609  0.00  0.00    -0.289 NA
ENDROOT
BRANCH   1  11
ATOM      7  C1  UNL     1       3.550  -2.401 -29.807  0.00  0.00    +0.201 A 
ATOM      8  N2  UNL     1       3.433  -2.282 -31.176  0.00  0.00    -0.200 NA
ATOM      9  C3  UNL     1       4.061  -3.349 -31.626  0.00  0.00    +0.203 A 
ATOM     10  O1  UNL     1       4.617  -4.130 -30.653  0.00  0.00    -0.424 OA
ATOM     11  C15 UNL     1       4.283  -3.526 -29.464  0.00  0.00    +0.227 A 
BRANCH   7  12
ATOM     12  C2  UNL     1       2.973  -1.421 -28.948  0.00  0.00    +0.124 C 
ATOM     13  N1  UNL     1       2.505  -0.602 -28.270  0.00  0.00    -0.189 NA
ENDBRANCH   7  12
BRANCH   9  14
ATOM     14  C4  UNL     1       4.267  -3.788 -33.033  0.00  0.00    +0.131 C 
BRANCH  14  15
ATOM     15  C5  UNL     1       3.217  -4.773 -33.513  0.00  0.00    -0.031 A 
ATOM     16  C6  UNL     1       3.421  -6.138 -33.235  0.00  0.00    +0.005 A 
ATOM     17  C7  UNL     1       2.498  -7.093 -33.642  0.00  0.00    +0.001 A 
ATOM     18  C8  UNL     1       1.354  -6.702 -34.329  0.00  0.00    +0.008 A 
ATOM     19  C9  UNL     1       1.111  -5.351 -34.615  0.00  0.00    -0.018 A 
ATOM     20  C10 UNL     1      -0.055  -4.980 -35.305  0.00  0.00    +0.008 A 
ATOM     21  C11 UNL     1      -0.324  -3.645 -35.596  0.00  0.00    +0.001 A 
ATOM     22  C12 UNL     1       0.569  -2.662 -35.198  0.00  0.00    +0.001 A 
ATOM     23  C13 UNL     1       1.735  -3.014 -34.512  0.00  0.00    +0.009 A 
ATOM     24  C14 UNL     1       2.041  -4.361 -34.205  0.00  0.00    -0.014 A 
ENDBRANCH  14  15
ENDBRANCH   9  14
ENDBRANCH   1  11
BRANCH   6  25
ATOM     25  C20 UNL     1       5.781  -3.596 -24.880  0.00  0.00    +0.117 C 
BRANCH  25  26
ATOM     26  C21 UNL     1       5.239  -3.674 -23.447  0.00  0.00    -0.026 A 
ATOM     27  C22 UNL     1       5.344  -4.846 -22.679  0.00  0.00    +0.005 A 
ATOM     28  C23 UNL     1       4.854  -4.892 -21.373  0.00  0.00    +0.000 A 
ATOM     29  C24 UNL     1       4.256  -3.766 -20.813  0.00  0.00    +0.000 A 
ATOM     30  C25 UNL     1       4.150  -2.592 -21.556  0.00  0.00    +0.000 A 
ATOM     31  C26 UNL     1       4.641  -2.544 -22.862  0.00  0.00    +0.005 A 
ENDBRANCH  25  26
BRANCH  25  32
ATOM     32  C27 UNL     1       7.189  -2.985 -24.863  0.00  0.00    -0.026 A 
ATOM     33  C28 UNL     1       8.282  -3.658 -24.290  0.00  0.00    +0.005 A 
ATOM     34  C29 UNL     1       9.552  -3.076 -24.275  0.00  0.00    +0.000 A 
ATOM     35  C30 UNL     1       9.746  -1.811 -24.824  0.00  0.00    +0.000 A 
ATOM     36  C31 UNL     1       8.672  -1.125 -25.388  0.00  0.00    +0.000 A 
ATOM     37  C32 UNL     1       7.402  -1.706 -25.406  0.00  0.00    +0.005 A 
ENDBRANCH  25  32
ENDBRANCH   6  25
TORSDOF 7
ENDMDL
MODEL 5
REMARK VINA RESULT:    -7.654      4.453      7.110
REMARK INTER + INTRA:         -12.327
REMARK INTER:                 -11.277
REMARK INTRA:                  -1.050
REMARK UNBOUND:                -1.540
REMARK  Name = /home/vital/Documents/PhD_2021/Malaria_codes/data/pdb_ligands_mmv/ligand_342.pdb
REMARK  7 active torsions:
REMARK  status: ('A' for Active; 'I' for Inactive)
REMARK    1  A    between atoms: C1_1  and  C2_2
REMARK    2  A    between atoms: C3_5  and  C4_6
REMARK    3  A    between atoms: C4_6  and  C5_7
REMARK    4  A    between atoms: C15_18  and  N3_19
REMARK    5  A    between atoms: N4_24  and  C20_25
REMARK    6  A    between atoms: C20_25  and  C21_26
REMARK    7  A    between atoms: C20_25  and  C27_32
REMARK                            x       y       z     vdW  Elec       q    Type
REMARK                         _______ _______ _______ _____ _____    ______ ____
ROOT
ATOM      1  N3  UNL     1       3.260  -4.057 -29.419  0.00  0.00    -0.297 N 
ATOM      2  C16 UNL     1       2.528  -5.325 -29.596  0.00  0.00    +0.123 C 
ATOM      3  C17 UNL     1       1.028  -5.106 -29.894  0.00  0.00    +0.104 C 
ATOM      4  C18 UNL     1       2.910  -2.973 -30.363  0.00  0.00    +0.123 C 
ATOM      5  C19 UNL     1       1.390  -2.877 -30.615  0.00  0.00    +0.104 C 
ATOM      6  N4  UNL     1       0.721  -4.148 -30.986  0.00  0.00    -0.289 NA
ENDROOT
BRANCH   1  11
ATOM      7  C1  UNL     1       5.774  -3.548 -29.296  0.00  0.00    +0.201 A 
ATOM      8  N2  UNL     1       6.757  -3.942 -28.413  0.00  0.00    -0.200 NA
ATOM      9  C3  UNL     1       6.114  -4.733 -27.579  0.00  0.00    +0.203 A 
ATOM     10  O1  UNL     1       4.776  -4.848 -27.828  0.00  0.00    -0.424 OA
ATOM     11  C15 UNL     1       4.545  -4.087 -28.949  0.00  0.00    +0.227 A 
BRANCH   7  12
ATOM     12  C2  UNL     1       6.087  -2.677 -30.380  0.00  0.00    +0.124 C 
ATOM     13  N1  UNL     1       6.361  -1.989 -31.275  0.00  0.00    -0.189 NA
ENDBRANCH   7  12
BRANCH   9  14
ATOM     14  C4  UNL     1       6.641  -5.479 -26.404  0.00  0.00    +0.131 C 
BRANCH  14  15
ATOM     15  C5  UNL     1       6.476  -4.727 -25.095  0.00  0.00    -0.031 A 
ATOM     16  C6  UNL     1       5.353  -5.031 -24.301  0.00  0.00    +0.005 A 
ATOM     17  C7  UNL     1       5.141  -4.383 -23.090  0.00  0.00    +0.001 A 
ATOM     18  C8  UNL     1       6.048  -3.424 -22.650  0.00  0.00    +0.008 A 
ATOM     19  C9  UNL     1       7.182  -3.102 -23.409  0.00  0.00    -0.018 A 
ATOM     20  C10 UNL     1       8.086  -2.134 -22.940  0.00  0.00    +0.008 A 
ATOM     21  C11 UNL     1       9.224  -1.801 -23.670  0.00  0.00    +0.001 A 
ATOM     22  C12 UNL     1       9.474  -2.432 -24.879  0.00  0.00    +0.001 A 
ATOM     23  C13 UNL     1       8.584  -3.396 -25.361  0.00  0.00    +0.009 A 
ATOM     24  C14 UNL     1       7.416  -3.755 -24.647  0.00  0.00    -0.014 A 
ENDBRANCH  14  15
ENDBRANCH   9  14
ENDBRANCH   1  11
BRANCH   6  25
ATOM     25  C20 UNL     1       1.149  -4.654 -32.326  0.00  0.00    +0.117 C 
BRANCH  25  26
ATOM     26  C21 UNL     1       0.916  -6.160 -32.507  0.00  0.00    -0.026 A 
ATOM     27  C22 UNL     1      -0.373  -6.718 -32.475  0.00  0.00    +0.005 A 
ATOM     28  C23 UNL     1      -0.563  -8.089 -32.653  0.00  0.00    +0.000 A 
ATOM     29  C24 UNL     1       0.531  -8.922 -32.870  0.00  0.00    +0.000 A 
ATOM     30  C25 UNL     1       1.816  -8.387 -32.912  0.00  0.00    +0.000 A 
ATOM     31  C26 UNL     1       2.008  -7.015 -32.736  0.00  0.00    +0.005 A 
ENDBRANCH  25  26
BRANCH  25  32
ATOM     32  C27 UNL     1       0.513  -3.893 -33.497  0.00  0.00    -0.026 A 
ATOM     33  C28 UNL     1      -0.745  -3.275 -33.382  0.00  0.00    +0.005 A 
ATOM     34  C29 UNL     1      -1.310  -2.598 -34.465  0.00  0.00    +0.000 A 
ATOM     35  C30 UNL     1      -0.632  -2.537 -35.680  0.00  0.00    +0.000 A 
ATOM     36  C31 UNL     1       0.611  -3.151 -35.815  0.00  0.00    +0.000 A 
ATOM     37  C32 UNL     1       1.179  -3.827 -34.732  0.00  0.00    +0.005 A 
ENDBRANCH  25  32
ENDBRANCH   6  25
TORSDOF 7
ENDMDL
MODEL 6
REMARK VINA RESULT:    -7.555     13.340     17.240
REMARK INTER + INTRA:         -12.187
REMARK INTER:                 -11.032
REMARK INTRA:                  -1.155
REMARK UNBOUND:                -1.540
REMARK  Name = /home/vital/Documents/PhD_2021/Malaria_codes/data/pdb_ligands_mmv/ligand_342.pdb
REMARK  7 active torsions:
REMARK  status: ('A' for Active; 'I' for Inactive)
REMARK    1  A    between atoms: C1_1  and  C2_2
REMARK    2  A    between atoms: C3_5  and  C4_6
REMARK    3  A    between atoms: C4_6  and  C5_7
REMARK    4  A    between atoms: C15_18  and  N3_19
REMARK    5  A    between atoms: N4_24  and  C20_25
REMARK    6  A    between atoms: C20_25  and  C21_26
REMARK    7  A    between atoms: C20_25  and  C27_32
REMARK                            x       y       z     vdW  Elec       q    Type
REMARK                         _______ _______ _______ _____ _____    ______ ____
ROOT
ATOM      1  N3  UNL     1       0.386   4.112 -19.209  0.00  0.00    -0.297 N 
ATOM      2  C16 UNL     1       1.035   3.441 -18.067  0.00  0.00    +0.123 C 
ATOM      3  C17 UNL     1       2.535   3.793 -17.948  0.00  0.00    +0.104 C 
ATOM      4  C18 UNL     1       0.768   5.524 -19.429  0.00  0.00    +0.123 C 
ATOM      5  C19 UNL     1       2.282   5.762 -19.244  0.00  0.00    +0.104 C 
ATOM      6  N4  UNL     1       2.861   5.241 -17.981  0.00  0.00    -0.289 NA
ENDROOT
BRANCH   1  11
ATOM      7  C1  UNL     1      -2.175   3.952 -19.114  0.00  0.00    +0.201 A 
ATOM      8  N2  UNL     1      -3.093   3.303 -19.912  0.00  0.00    -0.200 NA
ATOM      9  C3  UNL     1      -2.339   2.691 -20.803  0.00  0.00    +0.203 A 
ATOM     10  O1  UNL     1      -1.001   2.930 -20.670  0.00  0.00    -0.424 OA
ATOM     11  C15 UNL     1      -0.882   3.743 -19.568  0.00  0.00    +0.227 A 
BRANCH   7  12
ATOM     12  C2  UNL     1      -2.611   4.730 -18.002  0.00  0.00    +0.124 C 
ATOM     13  N1  UNL     1      -2.950   5.345 -17.077  0.00  0.00    -0.189 NA
ENDBRANCH   7  12
BRANCH   9  14
ATOM     14  C4  UNL     1      -2.752   1.816 -21.934  0.00  0.00    +0.131 C 
BRANCH  14  15
ATOM     15  C5  UNL     1      -3.305   0.476 -21.482  0.00  0.00    -0.031 A 
ATOM     16  C6  UNL     1      -2.627  -0.199 -20.448  0.00  0.00    +0.005 A 
ATOM     17  C7  UNL     1      -3.079  -1.428 -19.984  0.00  0.00    +0.001 A 
ATOM     18  C8  UNL     1      -4.218  -2.001 -20.540  0.00  0.00    +0.008 A 
ATOM     19  C9  UNL     1      -4.924  -1.355 -21.564  0.00  0.00    -0.018 A 
ATOM     20  C10 UNL     1      -6.075  -1.952 -22.106  0.00  0.00    +0.008 A 
ATOM     21  C11 UNL     1      -6.800  -1.328 -23.118  0.00  0.00    +0.001 A 
ATOM     22  C12 UNL     1      -6.385  -0.096 -23.601  0.00  0.00    +0.001 A 
ATOM     23  C13 UNL     1      -5.241   0.511 -23.075  0.00  0.00    +0.009 A 
ATOM     24  C14 UNL     1      -4.479  -0.098 -22.050  0.00  0.00    -0.014 A 
ENDBRANCH  14  15
ENDBRANCH   9  14
ENDBRANCH   1  11
BRANCH   6  25
ATOM     25  C20 UNL     1       2.360   5.967 -16.774  0.00  0.00    +0.117 C 
BRANCH  25  26
ATOM     26  C21 UNL     1       2.688   5.251 -15.457  0.00  0.00    -0.026 A 
ATOM     27  C22 UNL     1       3.945   4.665 -15.227  0.00  0.00    +0.005 A 
ATOM     28  C23 UNL     1       4.226   4.028 -14.017  0.00  0.00    +0.000 A 
ATOM     29  C24 UNL     1       3.257   3.971 -13.018  0.00  0.00    +0.000 A 
ATOM     30  C25 UNL     1       2.009   4.552 -13.225  0.00  0.00    +0.000 A 
ATOM     31  C26 UNL     1       1.726   5.191 -14.434  0.00  0.00    +0.005 A 
ENDBRANCH  25  26
BRANCH  25  32
ATOM     32  C27 UNL     1       2.836   7.424 -16.698  0.00  0.00    -0.026 A 
ATOM     33  C28 UNL     1       1.994   8.497 -17.038  0.00  0.00    +0.005 A 
ATOM     34  C29 UNL     1       2.453   9.815 -16.972  0.00  0.00    +0.000 A 
ATOM     35  C30 UNL     1       3.762  10.078 -16.574  0.00  0.00    +0.000 A 
ATOM     36  C31 UNL     1       4.613   9.026 -16.243  0.00  0.00    +0.000 A 
ATOM     37  C32 UNL     1       4.155   7.708 -16.306  0.00  0.00    +0.005 A 
ENDBRANCH  25  32
ENDBRANCH   6  25
TORSDOF 7
ENDMDL
MODEL 7
REMARK VINA RESULT:    -7.544      4.029     10.156
REMARK INTER + INTRA:         -12.171
REMARK INTER:                 -10.937
REMARK INTRA:                  -1.234
REMARK UNBOUND:                -1.540
REMARK  Name = /home/vital/Documents/PhD_2021/Malaria_codes/data/pdb_ligands_mmv/ligand_342.pdb
REMARK  7 active torsions:
REMARK  status: ('A' for Active; 'I' for Inactive)
REMARK    1  A    between atoms: C1_1  and  C2_2
REMARK    2  A    between atoms: C3_5  and  C4_6
REMARK    3  A    between atoms: C4_6  and  C5_7
REMARK    4  A    between atoms: C15_18  and  N3_19
REMARK    5  A    between atoms: N4_24  and  C20_25
REMARK    6  A    between atoms: C20_25  and  C21_26
REMARK    7  A    between atoms: C20_25  and  C27_32
REMARK                            x       y       z     vdW  Elec       q    Type
REMARK                         _______ _______ _______ _____ _____    ______ ____
ROOT
ATOM      1  N3  UNL     1       4.582  -4.541 -28.189  0.00  0.00    -0.297 N 
ATOM      2  C16 UNL     1       3.792  -4.698 -26.953  0.00  0.00    +0.123 C 
ATOM      3  C17 UNL     1       4.550  -5.488 -25.862  0.00  0.00    +0.104 C 
ATOM      4  C18 UNL     1       6.015  -4.229 -28.002  0.00  0.00    +0.123 C 
ATOM      5  C19 UNL     1       6.655  -5.047 -26.861  0.00  0.00    +0.104 C 
ATOM      6  N4  UNL     1       5.927  -5.018 -25.568  0.00  0.00    -0.289 NA
ENDROOT
BRANCH   1  11
ATOM      7  C1  UNL     1       4.183  -3.023 -30.221  0.00  0.00    +0.201 A 
ATOM      8  N2  UNL     1       3.201  -3.009 -31.189  0.00  0.00    -0.200 NA
ATOM      9  C3  UNL     1       2.406  -3.996 -30.827  0.00  0.00    +0.203 A 
ATOM     10  O1  UNL     1       2.823  -4.679 -29.720  0.00  0.00    -0.424 OA
ATOM     11  C15 UNL     1       3.974  -4.048 -29.312  0.00  0.00    +0.227 A 
BRANCH   7  12
ATOM     12  C2  UNL     1       5.244  -2.072 -30.258  0.00  0.00    +0.124 C 
ATOM     13  N1  UNL     1       6.122  -1.314 -30.312  0.00  0.00    -0.189 NA
ENDBRANCH   7  12
BRANCH   9  14
ATOM     14  C4  UNL     1       1.155  -4.474 -31.475  0.00  0.00    +0.131 C 
BRANCH  14  15
ATOM     15  C5  UNL     1       1.324  -5.798 -32.198  0.00  0.00    -0.031 A 
ATOM     16  C6  UNL     1       2.327  -5.886 -33.182  0.00  0.00    +0.005 A 
ATOM     17  C7  UNL     1       2.538  -7.068 -33.880  0.00  0.00    +0.001 A 
ATOM     18  C8  UNL     1       1.754  -8.184 -33.605  0.00  0.00    +0.008 A 
ATOM     19  C9  UNL     1       0.752  -8.137 -32.626  0.00  0.00    -0.018 A 
ATOM     20  C10 UNL     1      -0.023  -9.279 -32.362  0.00  0.00    +0.008 A 
ATOM     21  C11 UNL     1      -1.019  -9.263 -31.389  0.00  0.00    +0.001 A 
ATOM     22  C12 UNL     1      -1.254  -8.104 -30.665  0.00  0.00    +0.001 A 
ATOM     23  C13 UNL     1      -0.493  -6.958 -30.917  0.00  0.00    +0.009 A 
ATOM     24  C14 UNL     1       0.523  -6.939 -31.901  0.00  0.00    -0.014 A 
ENDBRANCH  14  15
ENDBRANCH   9  14
ENDBRANCH   1  11
BRANCH   6  25
ATOM     25  C20 UNL     1       5.946  -3.668 -24.927  0.00  0.00    +0.117 C 
BRANCH  25  26
ATOM     26  C21 UNL     1       5.387  -3.669 -23.497  0.00  0.00    -0.026 A 
ATOM     27  C22 UNL     1       5.603  -4.746 -22.620  0.00  0.00    +0.005 A 
ATOM     28  C23 UNL     1       5.096  -4.721 -21.320  0.00  0.00    +0.000 A 
ATOM     29  C24 UNL     1       4.370  -3.619 -20.876  0.00  0.00    +0.000 A 
ATOM     30  C25 UNL     1       4.151  -2.540 -21.728  0.00  0.00    +0.000 A 
ATOM     31  C26 UNL     1       4.659  -2.561 -23.029  0.00  0.00    +0.005 A 
ENDBRANCH  25  26
BRANCH  25  32
ATOM     32  C27 UNL     1       7.331  -3.008 -24.935  0.00  0.00    -0.026 A 
ATOM     33  C28 UNL     1       8.446  -3.618 -24.336  0.00  0.00    +0.005 A 
ATOM     34  C29 UNL     1       9.695  -2.993 -24.346  0.00  0.00    +0.000 A 
ATOM     35  C30 UNL     1       9.845  -1.745 -24.945  0.00  0.00    +0.000 A 
ATOM     36  C31 UNL     1       8.749  -1.120 -25.535  0.00  0.00    +0.000 A 
ATOM     37  C32 UNL     1       7.500  -1.745 -25.529  0.00  0.00    +0.005 A 
ENDBRANCH  25  32
ENDBRANCH   6  25
TORSDOF 7
ENDMDL
MODEL 8
REMARK VINA RESULT:    -7.463      4.444      7.078
REMARK INTER + INTRA:         -12.057
REMARK INTER:                 -10.915
REMARK INTRA:                  -1.142
REMARK UNBOUND:                -1.540
REMARK  Name = /home/vital/Documents/PhD_2021/Malaria_codes/data/pdb_ligands_mmv/ligand_342.pdb
REMARK  7 active torsions:
REMARK  status: ('A' for Active; 'I' for Inactive)
REMARK    1  A    between atoms: C1_1  and  C2_2
REMARK    2  A    between atoms: C3_5  and  C4_6
REMARK    3  A    between atoms: C4_6  and  C5_7
REMARK    4  A    between atoms: C15_18  and  N3_19
REMARK    5  A    between atoms: N4_24  and  C20_25
REMARK    6  A    between atoms: C20_25  and  C21_26
REMARK    7  A    between atoms: C20_25  and  C27_32
REMARK                            x       y       z     vdW  Elec       q    Type
REMARK                         _______ _______ _______ _____ _____    ______ ____
ROOT
ATOM      1  N3  UNL     1       3.220  -3.908 -29.399  0.00  0.00    -0.297 N 
ATOM      2  C16 UNL     1       2.700  -5.230 -29.795  0.00  0.00    +0.123 C 
ATOM      3  C17 UNL     1       1.170  -5.222 -30.017  0.00  0.00    +0.104 C 
ATOM      4  C18 UNL     1       2.648  -2.749 -30.116  0.00  0.00    +0.123 C 
ATOM      5  C19 UNL     1       1.122  -2.870 -30.315  0.00  0.00    +0.104 C 
ATOM      6  N4  UNL     1       0.654  -4.149 -30.904  0.00  0.00    -0.289 NA
ENDROOT
BRANCH   1  11
ATOM      7  C1  UNL     1       5.651  -3.086 -29.311  0.00  0.00    +0.201 A 
ATOM      8  N2  UNL     1       6.709  -3.406 -28.487  0.00  0.00    -0.200 NA
ATOM      9  C3  UNL     1       6.204  -4.329 -27.693  0.00  0.00    +0.203 A 
ATOM     10  O1  UNL     1       4.883  -4.600 -27.911  0.00  0.00    -0.424 OA
ATOM     11  C15 UNL     1       4.515  -3.802 -28.968  0.00  0.00    +0.227 A 
BRANCH   7  12
ATOM     12  C2  UNL     1       5.810  -2.111 -30.339  0.00  0.00    +0.124 C 
ATOM     13  N1  UNL     1       5.960  -1.301 -31.158  0.00  0.00    -0.189 NA
ENDBRANCH   7  12
BRANCH   9  14
ATOM     14  C4  UNL     1       6.865  -5.076 -26.589  0.00  0.00    +0.131 C 
BRANCH  14  15
ATOM     15  C5  UNL     1       7.390  -4.174 -25.487  0.00  0.00    -0.031 A 
ATOM     16  C6  UNL     1       8.633  -3.543 -25.690  0.00  0.00    +0.005 A 
ATOM     17  C7  UNL     1       9.171  -2.702 -24.724  0.00  0.00    +0.001 A 
ATOM     18  C8  UNL     1       8.476  -2.473 -23.541  0.00  0.00    +0.008 A 
ATOM     19  C9  UNL     1       7.232  -3.076 -23.307  0.00  0.00    -0.018 A 
ATOM     20  C10 UNL     1       6.547  -2.824 -22.106  0.00  0.00    +0.008 A 
ATOM     21  C11 UNL     1       5.306  -3.403 -21.852  0.00  0.00    +0.001 A 
ATOM     22  C12 UNL     1       4.733  -4.241 -22.796  0.00  0.00    +0.001 A 
ATOM     23  C13 UNL     1       5.402  -4.503 -23.995  0.00  0.00    +0.009 A 
ATOM     24  C14 UNL     1       6.665  -3.936 -24.283  0.00  0.00    -0.014 A 
ENDBRANCH  14  15
ENDBRANCH   9  14
ENDBRANCH   1  11
BRANCH   6  25
ATOM     25  C20 UNL     1       1.090  -4.323 -32.323  0.00  0.00    +0.117 C 
BRANCH  25  26
ATOM     26  C21 UNL     1       0.908  -5.757 -32.841  0.00  0.00    -0.026 A 
ATOM     27  C22 UNL     1      -0.356  -6.367 -32.898  0.00  0.00    +0.005 A 
ATOM     28  C23 UNL     1      -0.500  -7.668 -33.383  0.00  0.00    +0.000 A 
ATOM     29  C24 UNL     1       0.616  -8.376 -33.821  0.00  0.00    +0.000 A 
ATOM     30  C25 UNL     1       1.876  -7.785 -33.780  0.00  0.00    +0.000 A 
ATOM     31  C26 UNL     1       2.022  -6.483 -33.297  0.00  0.00    +0.005 A 
ENDBRANCH  25  26
BRANCH  25  32
ATOM     32  C27 UNL     1       0.419  -3.340 -33.292  0.00  0.00    -0.026 A 
ATOM     33  C28 UNL     1      -0.905  -2.906 -33.108  0.00  0.00    +0.005 A 
ATOM     34  C29 UNL     1      -1.499  -2.020 -34.010  0.00  0.00    +0.000 A 
ATOM     35  C30 UNL     1      -0.782  -1.563 -35.113  0.00  0.00    +0.000 A 
ATOM     36  C31 UNL     1       0.528  -1.989 -35.316  0.00  0.00    +0.000 A 
ATOM     37  C32 UNL     1       1.125  -2.873 -34.414  0.00  0.00    +0.005 A 
ENDBRANCH  25  32
ENDBRANCH   6  25
TORSDOF 7
ENDMDL
MODEL 9
REMARK VINA RESULT:    -7.384     11.425     14.794
REMARK INTER + INTRA:         -11.946
REMARK INTER:                 -10.656
REMARK INTRA:                  -1.290
REMARK UNBOUND:                -1.540
REMARK  Name = /home/vital/Documents/PhD_2021/Malaria_codes/data/pdb_ligands_mmv/ligand_342.pdb
REMARK  7 active torsions:
REMARK  status: ('A' for Active; 'I' for Inactive)
REMARK    1  A    between atoms: C1_1  and  C2_2
REMARK    2  A    between atoms: C3_5  and  C4_6
REMARK    3  A    between atoms: C4_6  and  C5_7
REMARK    4  A    between atoms: C15_18  and  N3_19
REMARK    5  A    between atoms: N4_24  and  C20_25
REMARK    6  A    between atoms: C20_25  and  C21_26
REMARK    7  A    between atoms: C20_25  and  C27_32
REMARK                            x       y       z     vdW  Elec       q    Type
REMARK                         _______ _______ _______ _____ _____    ______ ____
ROOT
ATOM      1  N3  UNL     1       3.886   2.388 -17.104  0.00  0.00    -0.297 N 
ATOM      2  C16 UNL     1       2.427   2.181 -17.050  0.00  0.00    +0.123 C 
ATOM      3  C17 UNL     1       1.719   3.200 -16.128  0.00  0.00    +0.104 C 
ATOM      4  C18 UNL     1       4.335   3.795 -17.182  0.00  0.00    +0.123 C 
ATOM      5  C19 UNL     1       3.530   4.725 -16.250  0.00  0.00    +0.104 C 
ATOM      6  N4  UNL     1       2.054   4.627 -16.368  0.00  0.00    -0.289 NA
ENDROOT
BRANCH   1  11
ATOM      7  C1  UNL     1       5.833   0.744 -17.423  0.00  0.00    +0.201 A 
ATOM      8  N2  UNL     1       6.166  -0.109 -18.454  0.00  0.00    -0.200 NA
ATOM      9  C3  UNL     1       5.227   0.120 -19.350  0.00  0.00    +0.203 A 
ATOM     10  O1  UNL     1       4.283   1.027 -18.961  0.00  0.00    -0.424 OA
ATOM     11  C15 UNL     1       4.672   1.446 -17.710  0.00  0.00    +0.227 A 
BRANCH   7  12
ATOM     12  C2  UNL     1       6.636   0.800 -16.248  0.00  0.00    +0.124 C 
ATOM     13  N1  UNL     1       7.283   0.816 -15.282  0.00  0.00    -0.189 NA
ENDBRANCH   7  12
BRANCH   9  14
ATOM     14  C4  UNL     1       5.049  -0.494 -20.694  0.00  0.00    +0.131 C 
BRANCH  14  15
ATOM     15  C5  UNL     1       4.697  -1.969 -20.636  0.00  0.00    -0.031 A 
ATOM     16  C6  UNL     1       3.816  -2.395 -19.623  0.00  0.00    +0.005 A 
ATOM     17  C7  UNL     1       3.449  -3.730 -19.513  0.00  0.00    +0.001 A 
ATOM     18  C8  UNL     1       3.952  -4.662 -20.415  0.00  0.00    +0.008 A 
ATOM     19  C9  UNL     1       4.823  -4.275 -21.442  0.00  0.00    -0.018 A 
ATOM     20  C10 UNL     1       5.312  -5.234 -22.345  0.00  0.00    +0.008 A 
ATOM     21  C11 UNL     1       6.173  -4.875 -23.379  0.00  0.00    +0.001 A 
ATOM     22  C12 UNL     1       6.555  -3.550 -23.526  0.00  0.00    +0.001 A 
ATOM     23  C13 UNL     1       6.078  -2.584 -22.636  0.00  0.00    +0.009 A 
ATOM     24  C14 UNL     1       5.207  -2.915 -21.572  0.00  0.00    -0.014 A 
ENDBRANCH  14  15
ENDBRANCH   9  14
ENDBRANCH   1  11
BRANCH   6  25
ATOM     25  C20 UNL     1       1.547   5.119 -17.685  0.00  0.00    +0.117 C 
BRANCH  25  26
ATOM     26  C21 UNL     1       0.037   4.916 -17.867  0.00  0.00    -0.026 A 
ATOM     27  C22 UNL     1      -0.483   4.142 -18.919  0.00  0.00    +0.005 A 
ATOM     28  C23 UNL     1      -1.860   3.961 -19.059  0.00  0.00    +0.000 A 
ATOM     29  C24 UNL     1      -2.737   4.546 -18.149  0.00  0.00    +0.000 A 
ATOM     30  C25 UNL     1      -2.240   5.309 -17.096  0.00  0.00    +0.000 A 
ATOM     31  C26 UNL     1      -0.863   5.491 -16.953  0.00  0.00    +0.005 A 
ENDBRANCH  25  26
BRANCH  25  32
ATOM     32  C27 UNL     1       1.904   6.585 -17.966  0.00  0.00    -0.026 A 
ATOM     33  C28 UNL     1       2.163   7.047 -19.268  0.00  0.00    +0.005 A 
ATOM     34  C29 UNL     1       2.498   8.384 -19.499  0.00  0.00    +0.000 A 
ATOM     35  C30 UNL     1       2.588   9.274 -18.432  0.00  0.00    +0.000 A 
ATOM     36  C31 UNL     1       2.343   8.832 -17.134  0.00  0.00    +0.000 A 
ATOM     37  C32 UNL     1       2.006   7.496 -16.901  0.00  0.00    +0.005 A 
ENDBRANCH  25  32
ENDBRANCH   6  25
TORSDOF 7
ENDMDL
