MODEL 1
REMARK VINA RESULT:    -7.554      0.000      0.000
REMARK INTER + INTRA:         -10.317
REMARK INTER:                  -9.320
REMARK INTRA:                  -0.997
REMARK UNBOUND:                -0.997
REMARK  Name = /home/vital/Documents/PhD_2021/Malaria_codes/data/pdb_ligands_mmv/ligand_370.pdb
REMARK  5 active torsions:
REMARK  status: ('A' for Active; 'I' for Inactive)
REMARK    1  A    between atoms: C3_4  and  C4_5
REMARK    2  A    between atoms: C7_8  and  O1_9
REMARK    3  A    between atoms: O1_9  and  C8_10
REMARK    4  A    between atoms: C11_14  and  N3_15
REMARK    5  A    between atoms: C14_19  and  C15_21
REMARK                            x       y       z     vdW  Elec       q    Type
REMARK                         _______ _______ _______ _____ _____    ______ ____
ROOT
ATOM      1  C1  UNL     1       6.987  -2.512 -24.239  0.00  0.00    +0.051 A 
ATOM      2  C2  UNL     1       7.890  -1.645 -23.646  0.00  0.00    +0.114 A 
ATOM      3  N1  UNL     1       8.774  -0.853 -24.270  0.00  0.00    -0.220 NA
ATOM      4  C3  UNL     1       8.731  -0.960 -25.602  0.00  0.00    +0.163 A 
ATOM      5  N2  UNL     1       7.895  -1.754 -26.300  0.00  0.00    -0.212 NA
ATOM      6  C11 UNL     1       7.007  -2.540 -25.649  0.00  0.00    +0.134 A 
ATOM      7  S1  UNL     1       7.793  -1.643 -21.944  0.00  0.00    -0.073 S 
ATOM      8  C23 UNL     1       6.558  -2.810 -21.957  0.00  0.00    -0.004 A 
ATOM      9  C24 UNL     1       5.966  -3.345 -20.690  0.00  0.00    +0.043 C 
ATOM     10  C25 UNL     1       4.664  -4.106 -20.986  0.00  0.00    +0.005 C 
ATOM     11  C26 UNL     1       4.816  -5.033 -22.200  0.00  0.00    +0.005 C 
ATOM     12  C27 UNL     1       5.156  -4.248 -23.477  0.00  0.00    +0.037 C 
ATOM     13  C28 UNL     1       6.219  -3.214 -23.236  0.00  0.00    -0.025 A 
ENDROOT
BRANCH   6  14
ATOM     14  N3  UNL     1       6.114  -3.339 -26.393  0.00  0.00    -0.312 N 
ATOM     15  C12 UNL     1       5.165  -2.448 -27.103  0.00  0.00    +0.125 C 
ATOM     16  C13 UNL     1       4.478  -3.175 -28.273  0.00  0.00    +0.126 C 
ATOM     17  N4  UNL     1       5.439  -3.702 -29.252  0.00  0.00    -0.298 N 
ATOM     18  C14 UNL     1       5.115  -4.170 -30.518  0.00  0.00    +0.219 C 
ATOM     19  O2  UNL     1       5.962  -4.685 -31.250  0.00  0.00    -0.275 OA
ATOM     20  C21 UNL     1       6.811  -3.886 -28.755  0.00  0.00    +0.126 C 
ATOM     21  C22 UNL     1       6.834  -4.295 -27.273  0.00  0.00    +0.125 C 
BRANCH  18  22
ATOM     22  C15 UNL     1       3.670  -3.979 -30.998  0.00  0.00    +0.075 C 
ATOM     23  C16 UNL     1       3.069  -5.305 -31.504  0.00  0.00    +0.013 C 
ATOM     24  C17 UNL     1       1.852  -5.060 -32.386  0.00  0.00    +0.001 C 
ATOM     25  C18 UNL     1       2.213  -4.267 -33.642  0.00  0.00    +0.000 C 
ATOM     26  C19 UNL     1       3.463  -3.404 -33.476  0.00  0.00    +0.001 C 
ATOM     27  C20 UNL     1       3.600  -2.861 -32.058  0.00  0.00    +0.013 C 
ENDBRANCH  18  22
ENDBRANCH   6  14
BRANCH   4  28
ATOM     28  C4  UNL     1       9.677  -0.127 -26.380  0.00  0.00    +0.019 A 
ATOM     29  C5  UNL     1      11.047  -0.073 -26.061  0.00  0.00    +0.015 A 
ATOM     30  C6  UNL     1      11.950   0.711 -26.795  0.00  0.00    +0.046 A 
ATOM     31  C7  UNL     1      11.502   1.469 -27.874  0.00  0.00    +0.120 A 
ATOM     32  C9  UNL     1      10.149   1.432 -28.208  0.00  0.00    +0.046 A 
ATOM     33  C10 UNL     1       9.251   0.648 -27.475  0.00  0.00    +0.015 A 
BRANCH  31  34
ATOM     34  O1  UNL     1      12.269   2.272 -28.669  0.00  0.00    -0.495 OA
ATOM     35  C8  UNL     1      11.896   2.363 -30.039  0.00  0.00    +0.277 C 
ENDBRANCH  31  34
ENDBRANCH   4  28
TORSDOF 4
ENDMDL
MODEL 2
REMARK VINA RESULT:    -7.543      5.950      9.616
REMARK INTER + INTRA:         -10.303
REMARK INTER:                  -9.318
REMARK INTRA:                  -0.985
REMARK UNBOUND:                -0.997
REMARK  Name = /home/vital/Documents/PhD_2021/Malaria_codes/data/pdb_ligands_mmv/ligand_370.pdb
REMARK  5 active torsions:
REMARK  status: ('A' for Active; 'I' for Inactive)
REMARK    1  A    between atoms: C3_4  and  C4_5
REMARK    2  A    between atoms: C7_8  and  O1_9
REMARK    3  A    between atoms: O1_9  and  C8_10
REMARK    4  A    between atoms: C11_14  and  N3_15
REMARK    5  A    between atoms: C14_19  and  C15_21
REMARK                            x       y       z     vdW  Elec       q    Type
REMARK                         _______ _______ _______ _____ _____    ______ ____
ROOT
ATOM      1  C1  UNL     1       3.428  -4.770 -25.874  0.00  0.00    +0.051 A 
ATOM      2  C2  UNL     1       4.160  -5.029 -27.021  0.00  0.00    +0.114 A 
ATOM      3  N1  UNL     1       3.675  -5.338 -28.233  0.00  0.00    -0.220 NA
ATOM      4  C3  UNL     1       2.339  -5.388 -28.271  0.00  0.00    +0.163 A 
ATOM      5  N2  UNL     1       1.514  -5.145 -27.232  0.00  0.00    -0.212 NA
ATOM      6  C11 UNL     1       2.027  -4.829 -26.020  0.00  0.00    +0.134 A 
ATOM      7  S1  UNL     1       5.843  -4.915 -26.778  0.00  0.00    -0.073 S 
ATOM      8  C23 UNL     1       5.637  -4.534 -25.136  0.00  0.00    -0.004 A 
ATOM      9  C24 UNL     1       6.805  -4.313 -24.225  0.00  0.00    +0.043 C 
ATOM     10  C25 UNL     1       6.346  -3.658 -22.913  0.00  0.00    +0.005 C 
ATOM     11  C26 UNL     1       5.075  -4.321 -22.365  0.00  0.00    +0.005 C 
ATOM     12  C27 UNL     1       3.898  -4.193 -23.346  0.00  0.00    +0.037 C 
ATOM     13  C28 UNL     1       4.307  -4.500 -24.758  0.00  0.00    -0.025 A 
ENDROOT
BRANCH   6  14
ATOM     14  N3  UNL     1       1.151  -4.543 -24.951  0.00  0.00    -0.312 N 
ATOM     15  C12 UNL     1       0.509  -3.231 -25.208  0.00  0.00    +0.125 C 
ATOM     16  C13 UNL     1      -0.770  -3.058 -24.370  0.00  0.00    +0.126 C 
ATOM     17  N4  UNL     1      -1.759  -4.114 -24.624  0.00  0.00    -0.298 N 
ATOM     18  C14 UNL     1      -3.086  -4.083 -24.217  0.00  0.00    +0.219 C 
ATOM     19  O2  UNL     1      -3.834  -5.048 -24.385  0.00  0.00    -0.275 OA
ATOM     20  C21 UNL     1      -1.224  -5.354 -25.210  0.00  0.00    +0.126 C 
ATOM     21  C22 UNL     1       0.198  -5.657 -24.709  0.00  0.00    +0.125 C 
BRANCH  18  22
ATOM     22  C15 UNL     1      -3.607  -2.781 -23.593  0.00  0.00    +0.075 C 
ATOM     23  C16 UNL     1      -3.940  -2.972 -22.100  0.00  0.00    +0.013 C 
ATOM     24  C17 UNL     1      -4.863  -1.871 -21.595  0.00  0.00    +0.001 C 
ATOM     25  C18 UNL     1      -6.209  -1.882 -22.321  0.00  0.00    +0.000 C 
ATOM     26  C19 UNL     1      -6.142  -2.511 -23.712  0.00  0.00    +0.001 C 
ATOM     27  C20 UNL     1      -4.807  -2.242 -24.398  0.00  0.00    +0.013 C 
ENDBRANCH  18  22
ENDBRANCH   6  14
BRANCH   4  28
ATOM     28  C4  UNL     1       1.709  -5.728 -29.567  0.00  0.00    +0.019 A 
ATOM     29  C5  UNL     1       0.565  -6.546 -29.638  0.00  0.00    +0.015 A 
ATOM     30  C6  UNL     1      -0.039  -6.871 -30.863  0.00  0.00    +0.046 A 
ATOM     31  C7  UNL     1       0.489  -6.384 -32.055  0.00  0.00    +0.120 A 
ATOM     32  C9  UNL     1       1.623  -5.573 -32.009  0.00  0.00    +0.046 A 
ATOM     33  C10 UNL     1       2.223  -5.250 -30.786  0.00  0.00    +0.015 A 
BRANCH  31  34
ATOM     34  O1  UNL     1       0.004  -6.621 -33.309  0.00  0.00    -0.495 OA
ATOM     35  C8  UNL     1       0.791  -6.160 -34.400  0.00  0.00    +0.277 C 
ENDBRANCH  31  34
ENDBRANCH   4  28
TORSDOF 4
ENDMDL
MODEL 3
REMARK VINA RESULT:    -7.533      6.098      9.106
REMARK INTER + INTRA:         -10.291
REMARK INTER:                  -9.316
REMARK INTRA:                  -0.975
REMARK UNBOUND:                -0.997
REMARK  Name = /home/vital/Documents/PhD_2021/Malaria_codes/data/pdb_ligands_mmv/ligand_370.pdb
REMARK  5 active torsions:
REMARK  status: ('A' for Active; 'I' for Inactive)
REMARK    1  A    between atoms: C3_4  and  C4_5
REMARK    2  A    between atoms: C7_8  and  O1_9
REMARK    3  A    between atoms: O1_9  and  C8_10
REMARK    4  A    between atoms: C11_14  and  N3_15
REMARK    5  A    between atoms: C14_19  and  C15_21
REMARK                            x       y       z     vdW  Elec       q    Type
REMARK                         _______ _______ _______ _____ _____    ______ ____
ROOT
ATOM      1  C1  UNL     1       4.504  -0.811 -18.968  0.00  0.00    +0.051 A 
ATOM      2  C2  UNL     1       5.834  -0.936 -19.337  0.00  0.00    +0.114 A 
ATOM      3  N1  UNL     1       6.323  -1.671 -20.347  0.00  0.00    -0.220 NA
ATOM      4  C3  UNL     1       5.379  -2.330 -21.027  0.00  0.00    +0.163 A 
ATOM      5  N2  UNL     1       4.055  -2.284 -20.778  0.00  0.00    -0.212 NA
ATOM      6  C11 UNL     1       3.584  -1.530 -19.757  0.00  0.00    +0.134 A 
ATOM      7  S1  UNL     1       6.887  -0.022 -18.358  0.00  0.00    -0.073 S 
ATOM      8  C23 UNL     1       5.599   0.549 -17.408  0.00  0.00    -0.004 A 
ATOM      9  C24 UNL     1       5.823   1.457 -16.239  0.00  0.00    +0.043 C 
ATOM     10  C25 UNL     1       4.496   2.083 -15.784  0.00  0.00    +0.005 C 
ATOM     11  C26 UNL     1       3.371   1.042 -15.727  0.00  0.00    +0.005 C 
ATOM     12  C27 UNL     1       3.102   0.417 -17.105  0.00  0.00    +0.037 C 
ATOM     13  C28 UNL     1       4.375   0.049 -17.814  0.00  0.00    -0.025 A 
ENDROOT
BRANCH   6  14
ATOM     14  N3  UNL     1       2.193  -1.464 -19.531  0.00  0.00    -0.312 N 
ATOM     15  C12 UNL     1       1.566  -0.739 -20.663  0.00  0.00    +0.125 C 
ATOM     16  C13 UNL     1       0.055  -1.019 -20.742  0.00  0.00    +0.126 C 
ATOM     17  N4  UNL     1      -0.247  -2.450 -20.885  0.00  0.00    -0.298 N 
ATOM     18  C14 UNL     1      -1.484  -2.976 -21.235  0.00  0.00    +0.219 C 
ATOM     19  O2  UNL     1      -1.687  -4.191 -21.244  0.00  0.00    -0.275 OA
ATOM     20  C21 UNL     1       0.821  -3.367 -20.456  0.00  0.00    +0.126 C 
ATOM     21  C22 UNL     1       1.614  -2.806 -19.265  0.00  0.00    +0.125 C 
BRANCH  18  22
ATOM     22  C15 UNL     1      -2.580  -1.989 -21.659  0.00  0.00    +0.075 C 
ATOM     23  C16 UNL     1      -3.701  -1.912 -20.603  0.00  0.00    +0.013 C 
ATOM     24  C17 UNL     1      -4.975  -1.323 -21.192  0.00  0.00    +0.001 C 
ATOM     25  C18 UNL     1      -5.533  -2.192 -22.320  0.00  0.00    +0.000 C 
ATOM     26  C19 UNL     1      -4.471  -3.051 -23.005  0.00  0.00    +0.001 C 
ATOM     27  C20 UNL     1      -3.116  -2.353 -23.059  0.00  0.00    +0.013 C 
ENDBRANCH  18  22
ENDBRANCH   6  14
BRANCH   4  28
ATOM     28  C4  UNL     1       5.823  -3.176 -22.159  0.00  0.00    +0.019 A 
ATOM     29  C5  UNL     1       6.791  -2.728 -23.078  0.00  0.00    +0.015 A 
ATOM     30  C6  UNL     1       7.220  -3.524 -24.151  0.00  0.00    +0.046 A 
ATOM     31  C7  UNL     1       6.686  -4.797 -24.335  0.00  0.00    +0.120 A 
ATOM     32  C9  UNL     1       5.724  -5.261 -23.438  0.00  0.00    +0.046 A 
ATOM     33  C10 UNL     1       5.300  -4.465 -22.368  0.00  0.00    +0.015 A 
BRANCH  31  34
ATOM     34  O1  UNL     1       7.011  -5.672 -25.332  0.00  0.00    -0.495 OA
ATOM     35  C8  UNL     1       6.200  -5.643 -26.501  0.00  0.00    +0.277 C 
ENDBRANCH  31  34
ENDBRANCH   4  28
TORSDOF 4
ENDMDL
MODEL 4
REMARK VINA RESULT:    -7.227      3.791      5.680
REMARK INTER + INTRA:          -9.913
REMARK INTER:                  -9.021
REMARK INTRA:                  -0.892
REMARK UNBOUND:                -0.997
REMARK  Name = /home/vital/Documents/PhD_2021/Malaria_codes/data/pdb_ligands_mmv/ligand_370.pdb
REMARK  5 active torsions:
REMARK  status: ('A' for Active; 'I' for Inactive)
REMARK    1  A    between atoms: C3_4  and  C4_5
REMARK    2  A    between atoms: C7_8  and  O1_9
REMARK    3  A    between atoms: O1_9  and  C8_10
REMARK    4  A    between atoms: C11_14  and  N3_15
REMARK    5  A    between atoms: C14_19  and  C15_21
REMARK                            x       y       z     vdW  Elec       q    Type
REMARK                         _______ _______ _______ _____ _____    ______ ____
ROOT
ATOM      1  C1  UNL     1       5.923  -2.536 -28.688  0.00  0.00    +0.051 A 
ATOM      2  C2  UNL     1       6.307  -1.222 -28.477  0.00  0.00    +0.114 A 
ATOM      3  N1  UNL     1       6.153  -0.193 -29.322  0.00  0.00    -0.220 NA
ATOM      4  C3  UNL     1       5.563  -0.537 -30.473  0.00  0.00    +0.163 A 
ATOM      5  N2  UNL     1       5.132  -1.773 -30.795  0.00  0.00    -0.212 NA
ATOM      6  C11 UNL     1       5.293  -2.796 -29.922  0.00  0.00    +0.134 A 
ATOM      7  S1  UNL     1       7.037  -0.976 -26.957  0.00  0.00    -0.073 S 
ATOM      8  C23 UNL     1       6.874  -2.618 -26.550  0.00  0.00    -0.004 A 
ATOM      9  C24 UNL     1       7.377  -3.162 -25.249  0.00  0.00    +0.043 C 
ATOM     10  C25 UNL     1       6.803  -4.565 -24.996  0.00  0.00    +0.005 C 
ATOM     11  C26 UNL     1       6.870  -5.437 -26.256  0.00  0.00    +0.005 C 
ATOM     12  C27 UNL     1       6.050  -4.837 -27.409  0.00  0.00    +0.037 C 
ATOM     13  C28 UNL     1       6.281  -3.360 -27.555  0.00  0.00    -0.025 A 
ENDROOT
BRANCH   6  14
ATOM     14  N3  UNL     1       4.806  -4.076 -30.258  0.00  0.00    -0.312 N 
ATOM     15  C12 UNL     1       3.389  -4.167 -29.829  0.00  0.00    +0.125 C 
ATOM     16  C13 UNL     1       2.655  -5.311 -30.551  0.00  0.00    +0.126 C 
ATOM     17  N4  UNL     1       2.687  -5.168 -32.013  0.00  0.00    -0.298 N 
ATOM     18  C14 UNL     1       1.905  -5.890 -32.905  0.00  0.00    +0.219 C 
ATOM     19  O2  UNL     1       2.054  -5.782 -34.124  0.00  0.00    -0.275 OA
ATOM     20  C21 UNL     1       3.755  -4.304 -32.541  0.00  0.00    +0.126 C 
ATOM     21  C22 UNL     1       5.034  -4.392 -31.692  0.00  0.00    +0.125 C 
BRANCH  18  22
ATOM     22  C15 UNL     1       0.812  -6.795 -32.320  0.00  0.00    +0.075 C 
ATOM     23  C16 UNL     1       1.118  -8.282 -32.586  0.00  0.00    +0.013 C 
ATOM     24  C17 UNL     1      -0.133  -9.138 -32.436  0.00  0.00    +0.001 C 
ATOM     25  C18 UNL     1      -1.209  -8.751 -33.452  0.00  0.00    +0.000 C 
ATOM     26  C19 UNL     1      -1.090  -7.309 -33.942  0.00  0.00    +0.001 C 
ATOM     27  C20 UNL     1      -0.573  -6.375 -32.853  0.00  0.00    +0.013 C 
ENDBRANCH  18  22
ENDBRANCH   6  14
BRANCH   4  28
ATOM     28  C4  UNL     1       5.354   0.532 -31.475  0.00  0.00    +0.019 A 
ATOM     29  C5  UNL     1       6.264   0.743 -32.528  0.00  0.00    +0.015 A 
ATOM     30  C6  UNL     1       6.072   1.753 -33.484  0.00  0.00    +0.046 A 
ATOM     31  C7  UNL     1       4.958   2.584 -33.409  0.00  0.00    +0.120 A 
ATOM     32  C9  UNL     1       4.044   2.395 -32.374  0.00  0.00    +0.046 A 
ATOM     33  C10 UNL     1       4.237   1.386 -31.423  0.00  0.00    +0.015 A 
BRANCH  31  34
ATOM     34  O1  UNL     1       4.651   3.601 -34.268  0.00  0.00    -0.495 OA
ATOM     35  C8  UNL     1       5.611   4.643 -34.399  0.00  0.00    +0.277 C 
ENDBRANCH  31  34
ENDBRANCH   4  28
TORSDOF 4
ENDMDL
MODEL 5
REMARK VINA RESULT:    -7.207      7.395     10.633
REMARK INTER + INTRA:          -9.889
REMARK INTER:                  -8.843
REMARK INTRA:                  -1.046
REMARK UNBOUND:                -0.997
REMARK  Name = /home/vital/Documents/PhD_2021/Malaria_codes/data/pdb_ligands_mmv/ligand_370.pdb
REMARK  5 active torsions:
REMARK  status: ('A' for Active; 'I' for Inactive)
REMARK    1  A    between atoms: C3_4  and  C4_5
REMARK    2  A    between atoms: C7_8  and  O1_9
REMARK    3  A    between atoms: O1_9  and  C8_10
REMARK    4  A    between atoms: C11_14  and  N3_15
REMARK    5  A    between atoms: C14_19  and  C15_21
REMARK                            x       y       z     vdW  Elec       q    Type
REMARK                         _______ _______ _______ _____ _____    ______ ____
ROOT
ATOM      1  C1  UNL     1      -1.141  -1.237 -20.928  0.00  0.00    +0.051 A 
ATOM      2  C2  UNL     1      -1.830  -0.316 -20.157  0.00  0.00    +0.114 A 
ATOM      3  N1  UNL     1      -1.300   0.623 -19.360  0.00  0.00    -0.220 NA
ATOM      4  C3  UNL     1       0.038   0.615 -19.349  0.00  0.00    +0.163 A 
ATOM      5  N2  UNL     1       0.823  -0.219 -20.061  0.00  0.00    -0.212 NA
ATOM      6  C11 UNL     1       0.265  -1.154 -20.864  0.00  0.00    +0.134 A 
ATOM      7  S1  UNL     1      -3.522  -0.457 -20.302  0.00  0.00    -0.073 S 
ATOM      8  C23 UNL     1      -3.378  -1.760 -21.383  0.00  0.00    -0.004 A 
ATOM      9  C24 UNL     1      -4.578  -2.458 -21.942  0.00  0.00    +0.043 C 
ATOM     10  C25 UNL     1      -4.178  -3.346 -23.130  0.00  0.00    +0.005 C 
ATOM     11  C26 UNL     1      -2.906  -4.151 -22.831  0.00  0.00    +0.005 C 
ATOM     12  C27 UNL     1      -1.704  -3.235 -22.553  0.00  0.00    +0.037 C 
ATOM     13  C28 UNL     1      -2.060  -2.102 -21.633  0.00  0.00    -0.025 A 
ENDROOT
BRANCH   6  14
ATOM     14  N3  UNL     1       1.099  -1.996 -21.630  0.00  0.00    -0.312 N 
ATOM     15  C12 UNL     1       1.988  -1.147 -22.461  0.00  0.00    +0.125 C 
ATOM     16  C13 UNL     1       3.213  -1.934 -22.958  0.00  0.00    +0.126 C 
ATOM     17  N4  UNL     1       4.008  -2.496 -21.857  0.00  0.00    -0.298 N 
ATOM     18  C14 UNL     1       5.286  -3.024 -21.981  0.00  0.00    +0.219 C 
ATOM     19  O2  UNL     1       5.854  -3.563 -21.029  0.00  0.00    -0.275 OA
ATOM     20  C21 UNL     1       3.298  -2.643 -20.576  0.00  0.00    +0.126 C 
ATOM     21  C22 UNL     1       1.813  -2.983 -20.780  0.00  0.00    +0.125 C 
BRANCH  18  22
ATOM     22  C15 UNL     1       5.990  -2.869 -23.336  0.00  0.00    +0.075 C 
ATOM     23  C16 UNL     1       6.670  -4.185 -23.765  0.00  0.00    +0.013 C 
ATOM     24  C17 UNL     1       7.727  -3.937 -24.832  0.00  0.00    +0.001 C 
ATOM     25  C18 UNL     1       8.854  -3.041 -24.316  0.00  0.00    +0.000 C 
ATOM     26  C19 UNL     1       8.427  -2.133 -23.164  0.00  0.00    +0.001 C 
ATOM     27  C20 UNL     1       6.976  -1.684 -23.295  0.00  0.00    +0.013 C 
ENDBRANCH  18  22
ENDBRANCH   6  14
BRANCH   4  28
ATOM     28  C4  UNL     1       0.716   1.613 -18.492  0.00  0.00    +0.019 A 
ATOM     29  C5  UNL     1       1.868   1.286 -17.750  0.00  0.00    +0.015 A 
ATOM     30  C6  UNL     1       2.517   2.228 -16.937  0.00  0.00    +0.046 A 
ATOM     31  C7  UNL     1       2.029   3.527 -16.842  0.00  0.00    +0.120 A 
ATOM     32  C9  UNL     1       0.889   3.873 -17.567  0.00  0.00    +0.046 A 
ATOM     33  C10 UNL     1       0.243   2.933 -18.378  0.00  0.00    +0.015 A 
BRANCH  31  34
ATOM     34  O1  UNL     1       2.561   4.537 -16.092  0.00  0.00    -0.495 OA
ATOM     35  C8  UNL     1       1.642   5.443 -15.492  0.00  0.00    +0.277 C 
ENDBRANCH  31  34
ENDBRANCH   4  28
TORSDOF 4
ENDMDL
MODEL 6
REMARK VINA RESULT:    -7.112      3.827      9.697
REMARK INTER + INTRA:          -9.772
REMARK INTER:                  -8.779
REMARK INTRA:                  -0.993
REMARK UNBOUND:                -0.997
REMARK  Name = /home/vital/Documents/PhD_2021/Malaria_codes/data/pdb_ligands_mmv/ligand_370.pdb
REMARK  5 active torsions:
REMARK  status: ('A' for Active; 'I' for Inactive)
REMARK    1  A    between atoms: C3_4  and  C4_5
REMARK    2  A    between atoms: C7_8  and  O1_9
REMARK    3  A    between atoms: O1_9  and  C8_10
REMARK    4  A    between atoms: C11_14  and  N3_15
REMARK    5  A    between atoms: C14_19  and  C15_21
REMARK                            x       y       z     vdW  Elec       q    Type
REMARK                         _______ _______ _______ _____ _____    ______ ____
ROOT
ATOM      1  C1  UNL     1       3.896  -4.154 -29.032  0.00  0.00    +0.051 A 
ATOM      2  C2  UNL     1       2.567  -4.512 -28.879  0.00  0.00    +0.114 A 
ATOM      3  N1  UNL     1       1.863  -4.522 -27.737  0.00  0.00    -0.220 NA
ATOM      4  C3  UNL     1       2.577  -4.142 -26.672  0.00  0.00    +0.163 A 
ATOM      5  N2  UNL     1       3.870  -3.760 -26.689  0.00  0.00    -0.212 NA
ATOM      6  C11 UNL     1       4.558  -3.751 -27.855  0.00  0.00    +0.134 A 
ATOM      7  S1  UNL     1       1.824  -4.963 -30.345  0.00  0.00    -0.073 S 
ATOM      8  C23 UNL     1       3.260  -4.710 -31.216  0.00  0.00    -0.004 A 
ATOM      9  C24 UNL     1       3.345  -4.967 -32.689  0.00  0.00    +0.043 C 
ATOM     10  C25 UNL     1       4.622  -4.340 -33.270  0.00  0.00    +0.005 C 
ATOM     11  C26 UNL     1       5.842  -4.619 -32.383  0.00  0.00    +0.005 C 
ATOM     12  C27 UNL     1       5.672  -4.023 -30.976  0.00  0.00    +0.037 C 
ATOM     13  C28 UNL     1       4.306  -4.295 -30.411  0.00  0.00    -0.025 A 
ENDROOT
BRANCH   6  14
ATOM     14  N3  UNL     1       5.900  -3.315 -27.863  0.00  0.00    -0.312 N 
ATOM     15  C12 UNL     1       5.914  -1.836 -27.750  0.00  0.00    +0.125 C 
ATOM     16  C13 UNL     1       7.288  -1.321 -27.288  0.00  0.00    +0.126 C 
ATOM     17  N4  UNL     1       7.698  -1.887 -25.996  0.00  0.00    -0.298 N 
ATOM     18  C14 UNL     1       8.749  -1.423 -25.216  0.00  0.00    +0.219 C 
ATOM     19  O2  UNL     1       9.094  -2.007 -24.187  0.00  0.00    -0.275 OA
ATOM     20  C21 UNL     1       7.028  -3.140 -25.613  0.00  0.00    +0.126 C 
ATOM     21  C22 UNL     1       6.712  -4.017 -26.836  0.00  0.00    +0.125 C 
BRANCH  18  22
ATOM     22  C15 UNL     1       9.438  -0.123 -25.653  0.00  0.00    +0.075 C 
ATOM     23  C16 UNL     1      10.966  -0.308 -25.754  0.00  0.00    +0.013 C 
ATOM     24  C17 UNL     1      11.687   1.033 -25.730  0.00  0.00    +0.001 C 
ATOM     25  C18 UNL     1      11.449   1.780 -24.417  0.00  0.00    +0.000 C 
ATOM     26  C19 UNL     1      10.151   1.380 -23.718  0.00  0.00    +0.001 C 
ATOM     27  C20 UNL     1       9.048   1.035 -24.712  0.00  0.00    +0.013 C 
ENDBRANCH  18  22
ENDBRANCH   6  14
BRANCH   4  28
ATOM     28  C4  UNL     1       1.887  -4.128 -25.362  0.00  0.00    +0.019 A 
ATOM     29  C5  UNL     1       0.631  -4.740 -25.184  0.00  0.00    +0.015 A 
ATOM     30  C6  UNL     1      -0.028  -4.734 -23.945  0.00  0.00    +0.046 A 
ATOM     31  C7  UNL     1       0.554  -4.109 -22.846  0.00  0.00    +0.120 A 
ATOM     32  C9  UNL     1       1.796  -3.494 -22.999  0.00  0.00    +0.046 A 
ATOM     33  C10 UNL     1       2.452  -3.503 -24.236  0.00  0.00    +0.015 A 
BRANCH  31  34
ATOM     34  O1  UNL     1       0.024  -4.028 -21.589  0.00  0.00    -0.495 OA
ATOM     35  C8  UNL     1      -1.394  -4.073 -21.487  0.00  0.00    +0.277 C 
ENDBRANCH  31  34
ENDBRANCH   4  28
TORSDOF 4
ENDMDL
MODEL 7
REMARK VINA RESULT:    -7.080      5.754      9.801
REMARK INTER + INTRA:          -9.732
REMARK INTER:                  -8.797
REMARK INTRA:                  -0.935
REMARK UNBOUND:                -0.997
REMARK  Name = /home/vital/Documents/PhD_2021/Malaria_codes/data/pdb_ligands_mmv/ligand_370.pdb
REMARK  5 active torsions:
REMARK  status: ('A' for Active; 'I' for Inactive)
REMARK    1  A    between atoms: C3_4  and  C4_5
REMARK    2  A    between atoms: C7_8  and  O1_9
REMARK    3  A    between atoms: O1_9  and  C8_10
REMARK    4  A    between atoms: C11_14  and  N3_15
REMARK    5  A    between atoms: C14_19  and  C15_21
REMARK                            x       y       z     vdW  Elec       q    Type
REMARK                         _______ _______ _______ _____ _____    ______ ____
ROOT
ATOM      1  C1  UNL     1       0.961  -6.768 -31.362  0.00  0.00    +0.051 A 
ATOM      2  C2  UNL     1       1.953  -6.631 -32.320  0.00  0.00    +0.114 A 
ATOM      3  N1  UNL     1       2.914  -5.697 -32.355  0.00  0.00    -0.220 NA
ATOM      4  C3  UNL     1       2.853  -4.836 -31.333  0.00  0.00    +0.163 A 
ATOM      5  N2  UNL     1       1.950  -4.868 -30.333  0.00  0.00    -0.212 NA
ATOM      6  C11 UNL     1       0.992  -5.824 -30.316  0.00  0.00    +0.134 A 
ATOM      7  S1  UNL     1       1.871  -7.819 -33.539  0.00  0.00    -0.073 S 
ATOM      8  C23 UNL     1       0.503  -8.534 -32.830  0.00  0.00    -0.004 A 
ATOM      9  C24 UNL     1      -0.179  -9.716 -33.446  0.00  0.00    +0.043 C 
ATOM     10  C25 UNL     1      -1.149 -10.359 -32.443  0.00  0.00    +0.005 C 
ATOM     11  C26 UNL     1      -1.985  -9.302 -31.710  0.00  0.00    +0.005 C 
ATOM     12  C27 UNL     1      -1.103  -8.339 -30.899  0.00  0.00    +0.037 C 
ATOM     13  C28 UNL     1       0.095  -7.880 -31.681  0.00  0.00    -0.025 A 
ENDROOT
BRANCH   6  14
ATOM     14  N3  UNL     1       0.075  -5.865 -29.244  0.00  0.00    -0.312 N 
ATOM     15  C12 UNL     1       0.761  -6.437 -28.060  0.00  0.00    +0.125 C 
ATOM     16  C13 UNL     1       0.014  -6.096 -26.759  0.00  0.00    +0.126 C 
ATOM     17  N4  UNL     1      -0.132  -4.648 -26.554  0.00  0.00    -0.298 N 
ATOM     18  C14 UNL     1      -0.525  -4.043 -25.368  0.00  0.00    +0.219 C 
ATOM     19  O2  UNL     1      -0.716  -2.828 -25.298  0.00  0.00    -0.275 OA
ATOM     20  C21 UNL     1      -0.005  -3.823 -27.766  0.00  0.00    +0.126 C 
ATOM     21  C22 UNL     1      -0.556  -4.541 -29.009  0.00  0.00    +0.125 C 
BRANCH  18  22
ATOM     22  C15 UNL     1      -0.665  -4.936 -24.128  0.00  0.00    +0.075 C 
ATOM     23  C16 UNL     1      -2.145  -5.258 -23.836  0.00  0.00    +0.013 C 
ATOM     24  C17 UNL     1      -2.334  -5.731 -22.402  0.00  0.00    +0.001 C 
ATOM     25  C18 UNL     1      -1.942  -4.652 -21.392  0.00  0.00    +0.000 C 
ATOM     26  C19 UNL     1      -0.931  -3.647 -21.941  0.00  0.00    +0.001 C 
ATOM     27  C20 UNL     1       0.045  -4.292 -22.920  0.00  0.00    +0.013 C 
ENDBRANCH  18  22
ENDBRANCH   6  14
BRANCH   4  28
ATOM     28  C4  UNL     1       3.872  -3.763 -31.288  0.00  0.00    +0.019 A 
ATOM     29  C5  UNL     1       4.837  -3.704 -30.264  0.00  0.00    +0.015 A 
ATOM     30  C6  UNL     1       5.807  -2.691 -30.217  0.00  0.00    +0.046 A 
ATOM     31  C7  UNL     1       5.837  -1.703 -31.197  0.00  0.00    +0.120 A 
ATOM     32  C9  UNL     1       4.890  -1.740 -32.220  0.00  0.00    +0.046 A 
ATOM     33  C10 UNL     1       3.924  -2.752 -32.266  0.00  0.00    +0.015 A 
BRANCH  31  34
ATOM     34  O1  UNL     1       6.721  -0.665 -31.270  0.00  0.00    -0.495 OA
ATOM     35  C8  UNL     1       6.413   0.376 -32.190  0.00  0.00    +0.277 C 
ENDBRANCH  31  34
ENDBRANCH   4  28
TORSDOF 4
ENDMDL
MODEL 8
REMARK VINA RESULT:    -7.049      1.875      2.340
REMARK INTER + INTRA:          -9.694
REMARK INTER:                  -8.733
REMARK INTRA:                  -0.962
REMARK UNBOUND:                -0.997
REMARK  Name = /home/vital/Documents/PhD_2021/Malaria_codes/data/pdb_ligands_mmv/ligand_370.pdb
REMARK  5 active torsions:
REMARK  status: ('A' for Active; 'I' for Inactive)
REMARK    1  A    between atoms: C3_4  and  C4_5
REMARK    2  A    between atoms: C7_8  and  O1_9
REMARK    3  A    between atoms: O1_9  and  C8_10
REMARK    4  A    between atoms: C11_14  and  N3_15
REMARK    5  A    between atoms: C14_19  and  C15_21
REMARK                            x       y       z     vdW  Elec       q    Type
REMARK                         _______ _______ _______ _____ _____    ______ ____
ROOT
ATOM      1  C1  UNL     1       6.160  -1.871 -22.551  0.00  0.00    +0.051 A 
ATOM      2  C2  UNL     1       6.960  -1.081 -21.741  0.00  0.00    +0.114 A 
ATOM      3  N1  UNL     1       8.045  -0.386 -22.113  0.00  0.00    -0.220 NA
ATOM      4  C3  UNL     1       8.335  -0.514 -23.412  0.00  0.00    +0.163 A 
ATOM      5  N2  UNL     1       7.633  -1.240 -24.305  0.00  0.00    -0.212 NA
ATOM      6  C11 UNL     1       6.537  -1.927 -23.908  0.00  0.00    +0.134 A 
ATOM      7  S1  UNL     1       6.432  -1.038 -20.121  0.00  0.00    -0.073 S 
ATOM      8  C23 UNL     1       5.136  -2.085 -20.456  0.00  0.00    -0.004 A 
ATOM      9  C24 UNL     1       4.191  -2.538 -19.387  0.00  0.00    +0.043 C 
ATOM     10  C25 UNL     1       2.942  -3.180 -20.011  0.00  0.00    +0.005 C 
ATOM     11  C26 UNL     1       3.311  -4.139 -21.150  0.00  0.00    +0.005 C 
ATOM     12  C27 UNL     1       4.039  -3.413 -22.293  0.00  0.00    +0.037 C 
ATOM     13  C28 UNL     1       5.098  -2.479 -21.781  0.00  0.00    -0.025 A 
ENDROOT
BRANCH   6  14
ATOM     14  N3  UNL     1       5.793  -2.654 -24.861  0.00  0.00    -0.312 N 
ATOM     15  C12 UNL     1       5.228  -1.697 -25.844  0.00  0.00    +0.125 C 
ATOM     16  C13 UNL     1       4.812  -2.408 -27.144  0.00  0.00    +0.126 C 
ATOM     17  N4  UNL     1       5.928  -3.121 -27.780  0.00  0.00    -0.298 N 
ATOM     18  C14 UNL     1       5.921  -3.628 -29.073  0.00  0.00    +0.219 C 
ATOM     19  O2  UNL     1       6.860  -4.298 -29.507  0.00  0.00    -0.275 OA
ATOM     20  C21 UNL     1       7.057  -3.446 -26.895  0.00  0.00    +0.126 C 
ATOM     21  C22 UNL     1       6.592  -3.752 -25.462  0.00  0.00    +0.125 C 
BRANCH  18  22
ATOM     22  C15 UNL     1       4.719  -3.286 -29.964  0.00  0.00    +0.075 C 
ATOM     23  C16 UNL     1       3.682  -4.427 -29.966  0.00  0.00    +0.013 C 
ATOM     24  C17 UNL     1       2.744  -4.317 -31.161  0.00  0.00    +0.001 C 
ATOM     25  C18 UNL     1       3.497  -4.443 -32.486  0.00  0.00    +0.000 C 
ATOM     26  C19 UNL     1       4.969  -4.046 -32.387  0.00  0.00    +0.001 C 
ATOM     27  C20 UNL     1       5.192  -2.919 -31.385  0.00  0.00    +0.013 C 
ENDBRANCH  18  22
ENDBRANCH   6  14
BRANCH   4  28
ATOM     28  C4  UNL     1       9.522   0.212 -23.917  0.00  0.00    +0.019 A 
ATOM     29  C5  UNL     1      10.313  -0.303 -24.962  0.00  0.00    +0.015 A 
ATOM     30  C6  UNL     1      11.438   0.380 -25.447  0.00  0.00    +0.046 A 
ATOM     31  C7  UNL     1      11.805   1.604 -24.896  0.00  0.00    +0.120 A 
ATOM     32  C9  UNL     1      11.039   2.134 -23.859  0.00  0.00    +0.046 A 
ATOM     33  C10 UNL     1       9.916   1.450 -23.377  0.00  0.00    +0.015 A 
BRANCH  31  34
ATOM     34  O1  UNL     1      12.872   2.371 -25.271  0.00  0.00    -0.495 OA
ATOM     35  C8  UNL     1      12.582   3.663 -25.791  0.00  0.00    +0.277 C 
ENDBRANCH  31  34
ENDBRANCH   4  28
TORSDOF 4
ENDMDL
MODEL 9
REMARK VINA RESULT:    -7.035      4.438      8.941
REMARK INTER + INTRA:          -9.677
REMARK INTER:                  -8.742
REMARK INTRA:                  -0.935
REMARK UNBOUND:                -0.997
REMARK  Name = /home/vital/Documents/PhD_2021/Malaria_codes/data/pdb_ligands_mmv/ligand_370.pdb
REMARK  5 active torsions:
REMARK  status: ('A' for Active; 'I' for Inactive)
REMARK    1  A    between atoms: C3_4  and  C4_5
REMARK    2  A    between atoms: C7_8  and  O1_9
REMARK    3  A    between atoms: O1_9  and  C8_10
REMARK    4  A    between atoms: C11_14  and  N3_15
REMARK    5  A    between atoms: C14_19  and  C15_21
REMARK                            x       y       z     vdW  Elec       q    Type
REMARK                         _______ _______ _______ _____ _____    ______ ____
ROOT
ATOM      1  C1  UNL     1       2.663  -4.154 -31.614  0.00  0.00    +0.051 A 
ATOM      2  C2  UNL     1       2.476  -5.129 -30.647  0.00  0.00    +0.114 A 
ATOM      3  N1  UNL     1       3.138  -5.249 -29.487  0.00  0.00    -0.220 NA
ATOM      4  C3  UNL     1       4.065  -4.301 -29.306  0.00  0.00    +0.163 A 
ATOM      5  N2  UNL     1       4.335  -3.295 -30.162  0.00  0.00    -0.212 NA
ATOM      6  C11 UNL     1       3.649  -3.190 -31.324  0.00  0.00    +0.134 A 
ATOM      7  S1  UNL     1       1.253  -6.244 -31.052  0.00  0.00    -0.073 S 
ATOM      8  C23 UNL     1       0.955  -5.467 -32.533  0.00  0.00    -0.004 A 
ATOM      9  C24 UNL     1      -0.067  -5.977 -33.501  0.00  0.00    +0.043 C 
ATOM     10  C25 UNL     1      -0.370  -4.917 -34.570  0.00  0.00    +0.005 C 
ATOM     11  C26 UNL     1       0.914  -4.266 -35.101  0.00  0.00    +0.005 C 
ATOM     12  C27 UNL     1       1.690  -3.546 -33.987  0.00  0.00    +0.037 C 
ATOM     13  C28 UNL     1       1.777  -4.373 -32.736  0.00  0.00    -0.025 A 
ENDROOT
BRANCH   6  14
ATOM     14  N3  UNL     1       3.919  -2.111 -32.192  0.00  0.00    -0.312 N 
ATOM     15  C12 UNL     1       3.252  -0.899 -31.657  0.00  0.00    +0.125 C 
ATOM     16  C13 UNL     1       3.857   0.384 -32.253  0.00  0.00    +0.126 C 
ATOM     17  N4  UNL     1       5.300   0.499 -31.999  0.00  0.00    -0.298 N 
ATOM     18  C14 UNL     1       6.057   1.649 -32.185  0.00  0.00    +0.219 C 
ATOM     19  O2  UNL     1       7.280   1.644 -32.040  0.00  0.00    -0.275 OA
ATOM     20  C21 UNL     1       5.989  -0.762 -31.683  0.00  0.00    +0.126 C 
ATOM     21  C22 UNL     1       5.376  -1.954 -32.437  0.00  0.00    +0.125 C 
BRANCH  18  22
ATOM     22  C15 UNL     1       5.308   2.943 -32.532  0.00  0.00    +0.075 C 
ATOM     23  C16 UNL     1       5.354   3.226 -34.046  0.00  0.00    +0.013 C 
ATOM     24  C17 UNL     1       5.037   4.685 -34.345  0.00  0.00    +0.001 C 
ATOM     25  C18 UNL     1       6.066   5.627 -33.720  0.00  0.00    +0.000 C 
ATOM     26  C19 UNL     1       6.773   5.032 -32.503  0.00  0.00    +0.001 C 
ATOM     27  C20 UNL     1       5.856   4.119 -31.698  0.00  0.00    +0.013 C 
ENDBRANCH  18  22
ENDBRANCH   6  14
BRANCH   4  28
ATOM     28  C4  UNL     1       4.854  -4.354 -28.055  0.00  0.00    +0.019 A 
ATOM     29  C5  UNL     1       6.242  -4.112 -28.048  0.00  0.00    +0.015 A 
ATOM     30  C6  UNL     1       6.996  -4.158 -26.866  0.00  0.00    +0.046 A 
ATOM     31  C7  UNL     1       6.380  -4.450 -25.652  0.00  0.00    +0.120 A 
ATOM     32  C9  UNL     1       5.007  -4.694 -25.635  0.00  0.00    +0.046 A 
ATOM     33  C10 UNL     1       4.256  -4.647 -26.816  0.00  0.00    +0.015 A 
BRANCH  31  34
ATOM     34  O1  UNL     1       6.992  -4.527 -24.434  0.00  0.00    -0.495 OA
ATOM     35  C8  UNL     1       6.375  -5.357 -23.457  0.00  0.00    +0.277 C 
ENDBRANCH  31  34
ENDBRANCH   4  28
TORSDOF 4
ENDMDL
