MODEL 1
REMARK VINA RESULT:    -8.273      0.000      0.000
REMARK INTER + INTRA:         -11.765
REMARK INTER:                 -10.691
REMARK INTRA:                  -1.075
REMARK UNBOUND:                -1.075
REMARK  Name = /home/vital/Documents/PhD_2021/Malaria_codes/data/pdb_ligands_mmv/ligand_294.pdb
REMARK  7 active torsions:
REMARK  status: ('A' for Active; 'I' for Inactive)
REMARK    1  A    between atoms: C1_1  and  C2_2
REMARK    2  A    between atoms: C5_5  and  C6_6
REMARK    3  A    between atoms: C7_7  and  C8_8
REMARK    4  A    between atoms: C8_8  and  N1_9
REMARK    5  A    between atoms: C18_21  and  C21_24
REMARK    6  A    between atoms: N4_26  and  C22_27
REMARK    7  A    between atoms: C22_27  and  C23_28
REMARK                            x       y       z     vdW  Elec       q    Type
REMARK                         _______ _______ _______ _____ _____    ______ ____
ROOT
ATOM      1  N1  UNL     1       2.099  -5.779 -33.193  0.00  0.00    -0.307 N 
ATOM      2  C9  UNL     1       3.018  -4.782 -32.914  0.00  0.00    +0.200 A 
ATOM      3  N2  UNL     1       2.827  -3.741 -33.694  0.00  0.00    -0.214 NA
ATOM      4  C10 UNL     1       1.675  -3.998 -34.381  0.00  0.00    +0.091 A 
ATOM      5  C11 UNL     1       0.999  -3.187 -35.303  0.00  0.00    +0.030 A 
ATOM      6  C12 UNL     1      -0.182  -3.663 -35.881  0.00  0.00    +0.002 A 
ATOM      7  C13 UNL     1      -0.688  -4.918 -35.536  0.00  0.00    +0.002 A 
ATOM      8  C14 UNL     1      -0.028  -5.738 -34.616  0.00  0.00    +0.028 A 
ATOM      9  C15 UNL     1       1.163  -5.252 -34.059  0.00  0.00    +0.070 A 
ATOM     10  N3  UNL     1       4.000  -4.925 -31.974  0.00  0.00    -0.301 N 
ATOM     11  C16 UNL     1       3.557  -5.080 -30.578  0.00  0.00    +0.108 C 
ATOM     12  C17 UNL     1       4.002  -3.918 -29.697  0.00  0.00    +0.032 C 
ATOM     13  C18 UNL     1       5.522  -3.699 -29.738  0.00  0.00    +0.078 C 
ATOM     14  C19 UNL     1       6.160  -4.205 -31.036  0.00  0.00    +0.032 C 
ATOM     15  C20 UNL     1       5.175  -4.055 -32.187  0.00  0.00    +0.108 C 
ENDROOT
BRANCH  13  16
ATOM     16  C21 UNL     1       6.190  -4.256 -28.487  0.00  0.00    +0.216 C 
ATOM     17  O1  UNL     1       7.364  -3.990 -28.236  0.00  0.00    -0.276 OA
ATOM     18  N4  UNL     1       5.381  -4.992 -27.656  0.00  0.00    -0.310 N 
ATOM     19  H24 UNL     1       4.510  -5.346 -28.019  0.00  0.00    +0.149 HD
BRANCH  18  20
ATOM     20  C22 UNL     1       5.931  -5.693 -26.516  0.00  0.00    +0.146 C 
BRANCH  20  21
ATOM     21  C23 UNL     1       5.889  -4.773 -25.333  0.00  0.00    +0.007 A 
ATOM     22  C24 UNL     1       6.882  -4.555 -24.397  0.00  0.00    +0.013 A 
ATOM     23  C25 UNL     1       6.492  -3.613 -23.401  0.00  0.00    +0.008 A 
ATOM     24  C26 UNL     1       5.208  -3.149 -23.604  0.00  0.00    +0.045 A 
ATOM     25  S1  UNL     1       4.486  -3.849 -24.989  0.00  0.00    -0.100 S 
ENDBRANCH  20  21
ENDBRANCH  18  20
ENDBRANCH  13  16
BRANCH   1  26
ATOM     26  C8  UNL     1       2.170  -7.138 -32.680  0.00  0.00    +0.160 C 
BRANCH  26  33
ATOM     27  C1  UNL     1      -0.427  -6.610 -28.416  0.00  0.00    +0.044 C 
ATOM     28  C2  UNL     1      -0.275  -7.269 -29.754  0.00  0.00    -0.050 A 
ATOM     29  C3  UNL     1      -1.202  -8.215 -30.189  0.00  0.00    +0.003 A 
ATOM     30  C4  UNL     1      -1.041  -8.840 -31.428  0.00  0.00    +0.004 A 
ATOM     31  C5  UNL     1       0.051  -8.540 -32.257  0.00  0.00    -0.046 A 
ATOM     32  C6  UNL     1       0.143  -9.233 -33.590  0.00  0.00    +0.044 C 
ATOM     33  C7  UNL     1       0.985  -7.569 -31.839  0.00  0.00    -0.025 A 
ATOM     34  C27 UNL     1       0.821  -6.972 -30.572  0.00  0.00    +0.009 A 
ENDBRANCH  26  33
ENDBRANCH   1  26
TORSDOF 5
ENDMDL
MODEL 2
REMARK VINA RESULT:    -8.055     13.903     18.280
REMARK INTER + INTRA:         -11.484
REMARK INTER:                 -10.212
REMARK INTRA:                  -1.273
REMARK UNBOUND:                -1.075
REMARK  Name = /home/vital/Documents/PhD_2021/Malaria_codes/data/pdb_ligands_mmv/ligand_294.pdb
REMARK  7 active torsions:
REMARK  status: ('A' for Active; 'I' for Inactive)
REMARK    1  A    between atoms: C1_1  and  C2_2
REMARK    2  A    between atoms: C5_5  and  C6_6
REMARK    3  A    between atoms: C7_7  and  C8_8
REMARK    4  A    between atoms: C8_8  and  N1_9
REMARK    5  A    between atoms: C18_21  and  C21_24
REMARK    6  A    between atoms: N4_26  and  C22_27
REMARK    7  A    between atoms: C22_27  and  C23_28
REMARK                            x       y       z     vdW  Elec       q    Type
REMARK                         _______ _______ _______ _____ _____    ______ ____
ROOT
ATOM      1  N1  UNL     1       0.497   5.323 -17.214  0.00  0.00    -0.307 N 
ATOM      2  C9  UNL     1       0.436   4.171 -17.979  0.00  0.00    +0.200 A 
ATOM      3  N2  UNL     1       1.123   3.201 -17.417  0.00  0.00    -0.214 NA
ATOM      4  C10 UNL     1       1.506   3.677 -16.196  0.00  0.00    +0.091 A 
ATOM      5  C11 UNL     1       2.215   3.024 -15.177  0.00  0.00    +0.030 A 
ATOM      6  C12 UNL     1       2.489   3.718 -13.995  0.00  0.00    +0.002 A 
ATOM      7  C13 UNL     1       2.054   5.034 -13.824  0.00  0.00    +0.002 A 
ATOM      8  C14 UNL     1       1.344   5.698 -14.828  0.00  0.00    +0.028 A 
ATOM      9  C15 UNL     1       1.091   4.994 -16.013  0.00  0.00    +0.070 A 
ATOM     10  N3  UNL     1      -0.227   4.112 -19.173  0.00  0.00    -0.301 N 
ATOM     11  C16 UNL     1      -1.686   4.308 -19.126  0.00  0.00    +0.108 C 
ATOM     12  C17 UNL     1      -2.452   3.063 -19.560  0.00  0.00    +0.032 C 
ATOM     13  C18 UNL     1      -2.038   2.577 -20.958  0.00  0.00    +0.078 C 
ATOM     14  C19 UNL     1      -0.612   2.994 -21.334  0.00  0.00    +0.032 C 
ATOM     15  C20 UNL     1       0.254   3.052 -20.082  0.00  0.00    +0.108 C 
ENDROOT
BRANCH  13  16
ATOM     16  C21 UNL     1      -3.071   2.973 -22.005  0.00  0.00    +0.216 C 
ATOM     17  O1  UNL     1      -3.957   2.189 -22.336  0.00  0.00    -0.276 OA
ATOM     18  N4  UNL     1      -2.978   4.261 -22.476  0.00  0.00    -0.310 N 
ATOM     19  H24 UNL     1      -2.120   4.768 -22.330  0.00  0.00    +0.149 HD
BRANCH  18  20
ATOM     20  C22 UNL     1      -3.806   4.709 -23.575  0.00  0.00    +0.146 C 
BRANCH  20  21
ATOM     21  C23 UNL     1      -4.113   6.163 -23.369  0.00  0.00    +0.007 A 
ATOM     22  C24 UNL     1      -3.733   6.965 -22.309  0.00  0.00    +0.013 A 
ATOM     23  C25 UNL     1      -4.210   8.301 -22.441  0.00  0.00    +0.008 A 
ATOM     24  C26 UNL     1      -4.949   8.474 -23.594  0.00  0.00    +0.045 A 
ATOM     25  S1  UNL     1      -5.059   7.030 -24.506  0.00  0.00    -0.100 S 
ENDBRANCH  20  21
ENDBRANCH  18  20
ENDBRANCH  13  16
BRANCH   1  26
ATOM     26  C8  UNL     1       0.045   6.634 -17.653  0.00  0.00    +0.160 C 
BRANCH  26  33
ATOM     27  C1  UNL     1       3.505  10.105 -16.565  0.00  0.00    +0.044 C 
ATOM     28  C2  UNL     1       2.838   9.234 -17.585  0.00  0.00    -0.050 A 
ATOM     29  C3  UNL     1       3.234   9.272 -18.921  0.00  0.00    +0.003 A 
ATOM     30  C4  UNL     1       2.593   8.471 -19.869  0.00  0.00    +0.004 A 
ATOM     31  C5  UNL     1       1.536   7.620 -19.507  0.00  0.00    -0.046 A 
ATOM     32  C6  UNL     1       0.911   6.768 -20.578  0.00  0.00    +0.044 C 
ATOM     33  C7  UNL     1       1.140   7.555 -18.155  0.00  0.00    -0.025 A 
ATOM     34  C27 UNL     1       1.779   8.393 -17.219  0.00  0.00    +0.009 A 
ENDBRANCH  26  33
ENDBRANCH   1  26
TORSDOF 5
ENDMDL
MODEL 3
REMARK VINA RESULT:    -7.899      2.975      8.376
REMARK INTER + INTRA:         -11.283
REMARK INTER:                  -9.849
REMARK INTRA:                  -1.434
REMARK UNBOUND:                -1.075
REMARK  Name = /home/vital/Documents/PhD_2021/Malaria_codes/data/pdb_ligands_mmv/ligand_294.pdb
REMARK  7 active torsions:
REMARK  status: ('A' for Active; 'I' for Inactive)
REMARK    1  A    between atoms: C1_1  and  C2_2
REMARK    2  A    between atoms: C5_5  and  C6_6
REMARK    3  A    between atoms: C7_7  and  C8_8
REMARK    4  A    between atoms: C8_8  and  N1_9
REMARK    5  A    between atoms: C18_21  and  C21_24
REMARK    6  A    between atoms: N4_26  and  C22_27
REMARK    7  A    between atoms: C22_27  and  C23_28
REMARK                            x       y       z     vdW  Elec       q    Type
REMARK                         _______ _______ _______ _____ _____    ______ ____
ROOT
ATOM      1  N1  UNL     1       6.372  -3.804 -26.762  0.00  0.00    -0.307 N 
ATOM      2  C9  UNL     1       6.241  -2.946 -27.840  0.00  0.00    +0.200 A 
ATOM      3  N2  UNL     1       6.991  -1.878 -27.680  0.00  0.00    -0.214 NA
ATOM      4  C10 UNL     1       7.739  -2.115 -26.562  0.00  0.00    +0.091 A 
ATOM      5  C11 UNL     1       8.736  -1.317 -25.983  0.00  0.00    +0.030 A 
ATOM      6  C12 UNL     1       9.380  -1.774 -24.829  0.00  0.00    +0.002 A 
ATOM      7  C13 UNL     1       9.046  -3.008 -24.269  0.00  0.00    +0.002 A 
ATOM      8  C14 UNL     1       8.056  -3.817 -24.835  0.00  0.00    +0.028 A 
ATOM      9  C15 UNL     1       7.410  -3.337 -25.982  0.00  0.00    +0.070 A 
ATOM     10  N3  UNL     1       5.398  -3.198 -28.886  0.00  0.00    -0.301 N 
ATOM     11  C16 UNL     1       5.705  -4.382 -29.707  0.00  0.00    +0.108 C 
ATOM     12  C17 UNL     1       6.071  -4.014 -31.141  0.00  0.00    +0.032 C 
ATOM     13  C18 UNL     1       4.982  -3.174 -31.827  0.00  0.00    +0.078 C 
ATOM     14  C19 UNL     1       4.127  -2.382 -30.832  0.00  0.00    +0.032 C 
ATOM     15  C20 UNL     1       4.971  -1.992 -29.625  0.00  0.00    +0.108 C 
ENDROOT
BRANCH  13  16
ATOM     16  C21 UNL     1       4.153  -4.024 -32.781  0.00  0.00    +0.216 C 
ATOM     17  O1  UNL     1       3.459  -3.495 -33.647  0.00  0.00    -0.276 OA
ATOM     18  N4  UNL     1       4.299  -5.384 -32.648  0.00  0.00    -0.310 N 
ATOM     19  H24 UNL     1       4.704  -5.746 -31.800  0.00  0.00    +0.149 HD
BRANCH  18  20
ATOM     20  C22 UNL     1       3.459  -6.296 -33.394  0.00  0.00    +0.146 C 
BRANCH  20  21
ATOM     21  C23 UNL     1       2.396  -6.817 -32.472  0.00  0.00    +0.007 A 
ATOM     22  C24 UNL     1       1.967  -6.264 -31.280  0.00  0.00    +0.013 A 
ATOM     23  C25 UNL     1       0.941  -7.036 -30.663  0.00  0.00    +0.008 A 
ATOM     24  C26 UNL     1       0.626  -8.160 -31.400  0.00  0.00    +0.045 A 
ATOM     25  S1  UNL     1       1.566  -8.275 -32.826  0.00  0.00    -0.100 S 
ENDBRANCH  20  21
ENDBRANCH  18  20
ENDBRANCH  13  16
BRANCH   1  26
ATOM     26  C8  UNL     1       5.519  -4.955 -26.511  0.00  0.00    +0.160 C 
BRANCH  26  33
ATOM     27  C1  UNL     1       3.707  -3.763 -21.984  0.00  0.00    +0.044 C 
ATOM     28  C2  UNL     1       3.452  -4.071 -23.428  0.00  0.00    -0.050 A 
ATOM     29  C3  UNL     1       2.154  -4.075 -23.936  0.00  0.00    +0.003 A 
ATOM     30  C4  UNL     1       1.924  -4.383 -25.279  0.00  0.00    +0.004 A 
ATOM     31  C5  UNL     1       2.983  -4.700 -26.144  0.00  0.00    -0.046 A 
ATOM     32  C6  UNL     1       2.661  -4.995 -27.584  0.00  0.00    +0.044 C 
ATOM     33  C7  UNL     1       4.304  -4.677 -25.649  0.00  0.00    -0.025 A 
ATOM     34  C27 UNL     1       4.512  -4.394 -24.284  0.00  0.00    +0.009 A 
ENDBRANCH  26  33
ENDBRANCH   1  26
TORSDOF 5
ENDMDL
MODEL 4
REMARK VINA RESULT:    -7.747     15.872     18.482
REMARK INTER + INTRA:         -11.086
REMARK INTER:                  -9.814
REMARK INTRA:                  -1.273
REMARK UNBOUND:                -1.075
REMARK  Name = /home/vital/Documents/PhD_2021/Malaria_codes/data/pdb_ligands_mmv/ligand_294.pdb
REMARK  7 active torsions:
REMARK  status: ('A' for Active; 'I' for Inactive)
REMARK    1  A    between atoms: C1_1  and  C2_2
REMARK    2  A    between atoms: C5_5  and  C6_6
REMARK    3  A    between atoms: C7_7  and  C8_8
REMARK    4  A    between atoms: C8_8  and  N1_9
REMARK    5  A    between atoms: C18_21  and  C21_24
REMARK    6  A    between atoms: N4_26  and  C22_27
REMARK    7  A    between atoms: C22_27  and  C23_28
REMARK                            x       y       z     vdW  Elec       q    Type
REMARK                         _______ _______ _______ _____ _____    ______ ____
ROOT
ATOM      1  N1  UNL     1       1.457   6.228 -19.111  0.00  0.00    -0.307 N 
ATOM      2  C9  UNL     1       0.810   5.893 -17.934  0.00  0.00    +0.200 A 
ATOM      3  N2  UNL     1      -0.494   5.884 -18.105  0.00  0.00    -0.214 NA
ATOM      4  C10 UNL     1      -0.694   6.062 -19.445  0.00  0.00    +0.091 A 
ATOM      5  C11 UNL     1      -1.898   6.078 -20.162  0.00  0.00    +0.030 A 
ATOM      6  C12 UNL     1      -1.856   6.270 -21.546  0.00  0.00    +0.002 A 
ATOM      7  C13 UNL     1      -0.637   6.431 -22.206  0.00  0.00    +0.002 A 
ATOM      8  C14 UNL     1       0.574   6.414 -21.506  0.00  0.00    +0.028 A 
ATOM      9  C15 UNL     1       0.513   6.236 -20.118  0.00  0.00    +0.070 A 
ATOM     10  N3  UNL     1       1.478   5.654 -16.767  0.00  0.00    -0.301 N 
ATOM     11  C16 UNL     1       2.379   4.487 -16.751  0.00  0.00    +0.108 C 
ATOM     12  C17 UNL     1       1.921   3.416 -15.767  0.00  0.00    +0.032 C 
ATOM     13  C18 UNL     1       1.753   3.963 -14.340  0.00  0.00    +0.078 C 
ATOM     14  C19 UNL     1       1.461   5.466 -14.311  0.00  0.00    +0.032 C 
ATOM     15  C20 UNL     1       0.667   5.861 -15.550  0.00  0.00    +0.108 C 
ENDROOT
BRANCH  13  16
ATOM     16  C21 UNL     1       2.931   3.567 -13.459  0.00  0.00    +0.216 C 
ATOM     17  O1  UNL     1       2.748   3.189 -12.304  0.00  0.00    -0.276 OA
ATOM     18  N4  UNL     1       4.165   3.594 -14.065  0.00  0.00    -0.310 N 
ATOM     19  H24 UNL     1       4.269   4.108 -14.925  0.00  0.00    +0.149 HD
BRANCH  18  20
ATOM     20  C22 UNL     1       5.372   3.381 -13.297  0.00  0.00    +0.146 C 
BRANCH  20  21
ATOM     21  C23 UNL     1       5.992   4.718 -13.018  0.00  0.00    +0.007 A 
ATOM     22  C24 UNL     1       5.407   5.810 -12.405  0.00  0.00    +0.013 A 
ATOM     23  C25 UNL     1       6.294   6.921 -12.312  0.00  0.00    +0.008 A 
ATOM     24  C26 UNL     1       7.527   6.644 -12.867  0.00  0.00    +0.045 A 
ATOM     25  S1  UNL     1       7.606   5.053 -13.492  0.00  0.00    -0.100 S 
ENDBRANCH  20  21
ENDBRANCH  18  20
ENDBRANCH  13  16
BRANCH   1  26
ATOM     26  C8  UNL     1       2.871   6.550 -19.217  0.00  0.00    +0.160 C 
BRANCH  26  33
ATOM     27  C1  UNL     1       3.438  10.729 -16.492  0.00  0.00    +0.044 C 
ATOM     28  C2  UNL     1       3.488  10.051 -17.828  0.00  0.00    -0.050 A 
ATOM     29  C3  UNL     1       3.836  10.763 -18.975  0.00  0.00    +0.003 A 
ATOM     30  C4  UNL     1       3.859  10.128 -20.219  0.00  0.00    +0.004 A 
ATOM     31  C5  UNL     1       3.528   8.769 -20.347  0.00  0.00    -0.046 A 
ATOM     32  C6  UNL     1       3.601   8.147 -21.715  0.00  0.00    +0.044 C 
ATOM     33  C7  UNL     1       3.195   8.031 -19.192  0.00  0.00    -0.025 A 
ATOM     34  C27 UNL     1       3.148   8.698 -17.951  0.00  0.00    +0.009 A 
ENDBRANCH  26  33
ENDBRANCH   1  26
TORSDOF 5
ENDMDL
MODEL 5
REMARK VINA RESULT:    -7.692      1.289      1.377
REMARK INTER + INTRA:         -11.015
REMARK INTER:                 -10.002
REMARK INTRA:                  -1.014
REMARK UNBOUND:                -1.075
REMARK  Name = /home/vital/Documents/PhD_2021/Malaria_codes/data/pdb_ligands_mmv/ligand_294.pdb
REMARK  7 active torsions:
REMARK  status: ('A' for Active; 'I' for Inactive)
REMARK    1  A    between atoms: C1_1  and  C2_2
REMARK    2  A    between atoms: C5_5  and  C6_6
REMARK    3  A    between atoms: C7_7  and  C8_8
REMARK    4  A    between atoms: C8_8  and  N1_9
REMARK    5  A    between atoms: C18_21  and  C21_24
REMARK    6  A    between atoms: N4_26  and  C22_27
REMARK    7  A    between atoms: C22_27  and  C23_28
REMARK                            x       y       z     vdW  Elec       q    Type
REMARK                         _______ _______ _______ _____ _____    ______ ____
ROOT
ATOM      1  N1  UNL     1       1.957  -5.446 -33.061  0.00  0.00    -0.307 N 
ATOM      2  C9  UNL     1       2.749  -4.485 -32.457  0.00  0.00    +0.200 A 
ATOM      3  N2  UNL     1       2.644  -3.333 -33.082  0.00  0.00    -0.214 NA
ATOM      4  C10 UNL     1       1.654  -3.503 -34.008  0.00  0.00    +0.091 A 
ATOM      5  C11 UNL     1       1.111  -2.567 -34.900  0.00  0.00    +0.030 A 
ATOM      6  C12 UNL     1       0.085  -2.972 -35.760  0.00  0.00    +0.002 A 
ATOM      7  C13 UNL     1      -0.400  -4.280 -35.723  0.00  0.00    +0.002 A 
ATOM      8  C14 UNL     1       0.128  -5.224 -34.837  0.00  0.00    +0.028 A 
ATOM      9  C15 UNL     1       1.166  -4.807 -33.993  0.00  0.00    +0.070 A 
ATOM     10  N3  UNL     1       3.550  -4.756 -31.383  0.00  0.00    -0.301 N 
ATOM     11  C16 UNL     1       2.868  -5.156 -30.139  0.00  0.00    +0.108 C 
ATOM     12  C17 UNL     1       3.076  -4.146 -29.015  0.00  0.00    +0.032 C 
ATOM     13  C18 UNL     1       4.563  -3.882 -28.731  0.00  0.00    +0.078 C 
ATOM     14  C19 UNL     1       5.456  -4.145 -29.948  0.00  0.00    +0.032 C 
ATOM     15  C20 UNL     1       4.690  -3.831 -31.226  0.00  0.00    +0.108 C 
ENDROOT
BRANCH  13  16
ATOM     16  C21 UNL     1       5.023  -4.622 -27.482  0.00  0.00    +0.216 C 
ATOM     17  O1  UNL     1       4.213  -5.219 -26.775  0.00  0.00    -0.276 OA
ATOM     18  N4  UNL     1       6.379  -4.630 -27.259  0.00  0.00    -0.310 N 
ATOM     19  H24 UNL     1       6.952  -3.957 -27.742  0.00  0.00    +0.149 HD
BRANCH  18  20
ATOM     20  C22 UNL     1       6.925  -5.172 -26.034  0.00  0.00    +0.146 C 
BRANCH  20  21
ATOM     21  C23 UNL     1       7.447  -4.034 -25.208  0.00  0.00    +0.007 A 
ATOM     22  C24 UNL     1       8.671  -3.402 -25.318  0.00  0.00    +0.013 A 
ATOM     23  C25 UNL     1       8.832  -2.361 -24.359  0.00  0.00    +0.008 A 
ATOM     24  C26 UNL     1       7.727  -2.237 -23.540  0.00  0.00    +0.045 A 
ATOM     25  S1  UNL     1       6.509  -3.374 -23.933  0.00  0.00    -0.100 S 
ENDBRANCH  20  21
ENDBRANCH  18  20
ENDBRANCH  13  16
BRANCH   1  26
ATOM     26  C8  UNL     1       2.013  -6.869 -32.768  0.00  0.00    +0.160 C 
BRANCH  26  33
ATOM     27  C1  UNL     1      -1.076  -6.993 -28.812  0.00  0.00    +0.044 C 
ATOM     28  C2  UNL     1      -0.743  -7.463 -30.196  0.00  0.00    -0.050 A 
ATOM     29  C3  UNL     1      -1.571  -8.369 -30.858  0.00  0.00    +0.003 A 
ATOM     30  C4  UNL     1      -1.241  -8.817 -32.139  0.00  0.00    +0.004 A 
ATOM     31  C5  UNL     1      -0.076  -8.377 -32.786  0.00  0.00    -0.046 A 
ATOM     32  C6  UNL     1       0.200  -8.883 -34.176  0.00  0.00    +0.044 C 
ATOM     33  C7  UNL     1       0.759  -7.443 -32.137  0.00  0.00    -0.025 A 
ATOM     34  C27 UNL     1       0.425  -7.027 -30.832  0.00  0.00    +0.009 A 
ENDBRANCH  26  33
ENDBRANCH   1  26
TORSDOF 5
ENDMDL
MODEL 6
REMARK VINA RESULT:    -7.649     12.458     17.747
REMARK INTER + INTRA:         -10.960
REMARK INTER:                  -9.891
REMARK INTRA:                  -1.069
REMARK UNBOUND:                -1.075
REMARK  Name = /home/vital/Documents/PhD_2021/Malaria_codes/data/pdb_ligands_mmv/ligand_294.pdb
REMARK  7 active torsions:
REMARK  status: ('A' for Active; 'I' for Inactive)
REMARK    1  A    between atoms: C1_1  and  C2_2
REMARK    2  A    between atoms: C5_5  and  C6_6
REMARK    3  A    between atoms: C7_7  and  C8_8
REMARK    4  A    between atoms: C8_8  and  N1_9
REMARK    5  A    between atoms: C18_21  and  C21_24
REMARK    6  A    between atoms: N4_26  and  C22_27
REMARK    7  A    between atoms: C22_27  and  C23_28
REMARK                            x       y       z     vdW  Elec       q    Type
REMARK                         _______ _______ _______ _____ _____    ______ ____
ROOT
ATOM      1  N1  UNL     1       0.945   5.721 -16.804  0.00  0.00    -0.307 N 
ATOM      2  C9  UNL     1       0.156   5.792 -17.939  0.00  0.00    +0.200 A 
ATOM      3  N2  UNL     1       0.484   6.835 -18.670  0.00  0.00    -0.214 NA
ATOM      4  C10 UNL     1       1.601   7.360 -18.087  0.00  0.00    +0.091 A 
ATOM      5  C11 UNL     1       2.383   8.447 -18.501  0.00  0.00    +0.030 A 
ATOM      6  C12 UNL     1       3.502   8.802 -17.740  0.00  0.00    +0.002 A 
ATOM      7  C13 UNL     1       3.843   8.079 -16.596  0.00  0.00    +0.002 A 
ATOM      8  C14 UNL     1       3.075   6.990 -16.171  0.00  0.00    +0.028 A 
ATOM      9  C15 UNL     1       1.949   6.658 -16.936  0.00  0.00    +0.070 A 
ATOM     10  N3  UNL     1      -0.846   4.900 -18.199  0.00  0.00    -0.301 N 
ATOM     11  C16 UNL     1      -0.441   3.500 -18.417  0.00  0.00    +0.108 C 
ATOM     12  C17 UNL     1      -0.746   3.024 -19.833  0.00  0.00    +0.032 C 
ATOM     13  C18 UNL     1      -2.226   3.199 -20.205  0.00  0.00    +0.078 C 
ATOM     14  C19 UNL     1      -2.909   4.318 -19.412  0.00  0.00    +0.032 C 
ATOM     15  C20 UNL     1      -1.900   5.415 -19.096  0.00  0.00    +0.108 C 
ENDROOT
BRANCH  13  16
ATOM     16  C21 UNL     1      -2.972   1.873 -20.129  0.00  0.00    +0.216 C 
ATOM     17  O1  UNL     1      -4.028   1.786 -19.505  0.00  0.00    -0.276 OA
ATOM     18  N4  UNL     1      -2.426   0.839 -20.851  0.00  0.00    -0.310 N 
ATOM     19  H24 UNL     1      -1.469   0.915 -21.155  0.00  0.00    +0.149 HD
BRANCH  18  20
ATOM     20  C22 UNL     1      -2.957  -0.502 -20.743  0.00  0.00    +0.146 C 
BRANCH  20  21
ATOM     21  C23 UNL     1      -4.098  -0.634 -21.707  0.00  0.00    +0.007 A 
ATOM     22  C24 UNL     1      -5.373  -1.104 -21.449  0.00  0.00    +0.013 A 
ATOM     23  C25 UNL     1      -6.199  -1.096 -22.610  0.00  0.00    +0.008 A 
ATOM     24  C26 UNL     1      -5.525  -0.629 -23.721  0.00  0.00    +0.045 A 
ATOM     25  S1  UNL     1      -3.907  -0.204 -23.356  0.00  0.00    -0.100 S 
ENDBRANCH  20  21
ENDBRANCH  18  20
ENDBRANCH  13  16
BRANCH   1  26
ATOM     26  C8  UNL     1       0.699   4.834 -15.678  0.00  0.00    +0.160 C 
BRANCH  26  33
ATOM     27  C1  UNL     1       3.487   0.866 -16.980  0.00  0.00    +0.044 C 
ATOM     28  C2  UNL     1       3.204   1.974 -16.010  0.00  0.00    -0.050 A 
ATOM     29  C3  UNL     1       3.982   2.132 -14.865  0.00  0.00    +0.003 A 
ATOM     30  C4  UNL     1       3.698   3.154 -13.956  0.00  0.00    +0.004 A 
ATOM     31  C5  UNL     1       2.627   4.037 -14.167  0.00  0.00    -0.046 A 
ATOM     32  C6  UNL     1       2.398   5.130 -13.158  0.00  0.00    +0.044 C 
ATOM     33  C7  UNL     1       1.845   3.903 -15.333  0.00  0.00    -0.025 A 
ATOM     34  C27 UNL     1       2.129   2.846 -16.222  0.00  0.00    +0.009 A 
ENDBRANCH  26  33
ENDBRANCH   1  26
TORSDOF 5
ENDMDL
MODEL 7
REMARK VINA RESULT:    -7.644      3.090      5.778
REMARK INTER + INTRA:         -10.953
REMARK INTER:                  -9.685
REMARK INTRA:                  -1.268
REMARK UNBOUND:                -1.075
REMARK  Name = /home/vital/Documents/PhD_2021/Malaria_codes/data/pdb_ligands_mmv/ligand_294.pdb
REMARK  7 active torsions:
REMARK  status: ('A' for Active; 'I' for Inactive)
REMARK    1  A    between atoms: C1_1  and  C2_2
REMARK    2  A    between atoms: C5_5  and  C6_6
REMARK    3  A    between atoms: C7_7  and  C8_8
REMARK    4  A    between atoms: C8_8  and  N1_9
REMARK    5  A    between atoms: C18_21  and  C21_24
REMARK    6  A    between atoms: N4_26  and  C22_27
REMARK    7  A    between atoms: C22_27  and  C23_28
REMARK                            x       y       z     vdW  Elec       q    Type
REMARK                         _______ _______ _______ _____ _____    ______ ____
ROOT
ATOM      1  N1  UNL     1       2.184  -5.207 -32.853  0.00  0.00    -0.307 N 
ATOM      2  C9  UNL     1       2.293  -5.015 -31.486  0.00  0.00    +0.200 A 
ATOM      3  N2  UNL     1       1.597  -5.918 -30.831  0.00  0.00    -0.214 NA
ATOM      4  C10 UNL     1       1.157  -6.803 -31.774  0.00  0.00    +0.091 A 
ATOM      5  C11 UNL     1       0.417  -7.980 -31.601  0.00  0.00    +0.030 A 
ATOM      6  C12 UNL     1       0.085  -8.740 -32.727  0.00  0.00    +0.002 A 
ATOM      7  C13 UNL     1       0.493  -8.341 -34.000  0.00  0.00    +0.002 A 
ATOM      8  C14 UNL     1       1.235  -7.171 -34.190  0.00  0.00    +0.028 A 
ATOM      9  C15 UNL     1       1.546  -6.414 -33.053  0.00  0.00    +0.070 A 
ATOM     10  N3  UNL     1       3.005  -3.983 -30.940  0.00  0.00    -0.301 N 
ATOM     11  C16 UNL     1       4.458  -3.987 -31.181  0.00  0.00    +0.108 C 
ATOM     12  C17 UNL     1       5.258  -4.155 -29.894  0.00  0.00    +0.032 C 
ATOM     13  C18 UNL     1       4.909  -3.090 -28.842  0.00  0.00    +0.078 C 
ATOM     14  C19 UNL     1       3.494  -2.528 -29.015  0.00  0.00    +0.032 C 
ATOM     15  C20 UNL     1       2.576  -3.605 -29.578  0.00  0.00    +0.108 C 
ENDROOT
BRANCH  13  16
ATOM     16  C21 UNL     1       5.978  -2.008 -28.782  0.00  0.00    +0.216 C 
ATOM     17  O1  UNL     1       6.966  -2.145 -28.063  0.00  0.00    -0.276 OA
ATOM     18  N4  UNL     1       5.791  -0.937 -29.623  0.00  0.00    -0.310 N 
ATOM     19  H24 UNL     1       4.876  -0.785 -30.015  0.00  0.00    +0.149 HD
BRANCH  18  20
ATOM     20  C22 UNL     1       6.657   0.221 -29.552  0.00  0.00    +0.146 C 
BRANCH  20  21
ATOM     21  C23 UNL     1       6.992   0.641 -30.952  0.00  0.00    +0.007 A 
ATOM     22  C24 UNL     1       6.418   0.197 -32.129  0.00  0.00    +0.013 A 
ATOM     23  C25 UNL     1       6.993   0.812 -33.279  0.00  0.00    +0.008 A 
ATOM     24  C26 UNL     1       7.996   1.699 -32.943  0.00  0.00    +0.045 A 
ATOM     25  S1  UNL     1       8.235   1.784 -31.251  0.00  0.00    -0.100 S 
ENDBRANCH  20  21
ENDBRANCH  18  20
ENDBRANCH  13  16
BRANCH   1  26
ATOM     26  C8  UNL     1       2.636  -4.261 -33.861  0.00  0.00    +0.160 C 
BRANCH  26  33
ATOM     27  C1  UNL     1       0.876   0.216 -32.424  0.00  0.00    +0.044 C 
ATOM     28  C2  UNL     1       0.865  -0.911 -33.413  0.00  0.00    -0.050 A 
ATOM     29  C3  UNL     1       0.030  -0.870 -34.528  0.00  0.00    +0.003 A 
ATOM     30  C4  UNL     1       0.011  -1.933 -35.433  0.00  0.00    +0.004 A 
ATOM     31  C5  UNL     1       0.821  -3.065 -35.242  0.00  0.00    -0.046 A 
ATOM     32  C6  UNL     1       0.766  -4.159 -36.273  0.00  0.00    +0.044 C 
ATOM     33  C7  UNL     1       1.687  -3.109 -34.130  0.00  0.00    -0.025 A 
ATOM     34  C27 UNL     1       1.669  -2.040 -33.212  0.00  0.00    +0.009 A 
ENDBRANCH  26  33
ENDBRANCH   1  26
TORSDOF 5
ENDMDL
MODEL 8
REMARK VINA RESULT:    -7.529      3.646      9.205
REMARK INTER + INTRA:         -10.804
REMARK INTER:                  -9.625
REMARK INTRA:                  -1.179
REMARK UNBOUND:                -1.075
REMARK  Name = /home/vital/Documents/PhD_2021/Malaria_codes/data/pdb_ligands_mmv/ligand_294.pdb
REMARK  7 active torsions:
REMARK  status: ('A' for Active; 'I' for Inactive)
REMARK    1  A    between atoms: C1_1  and  C2_2
REMARK    2  A    between atoms: C5_5  and  C6_6
REMARK    3  A    between atoms: C7_7  and  C8_8
REMARK    4  A    between atoms: C8_8  and  N1_9
REMARK    5  A    between atoms: C18_21  and  C21_24
REMARK    6  A    between atoms: N4_26  and  C22_27
REMARK    7  A    between atoms: C22_27  and  C23_28
REMARK                            x       y       z     vdW  Elec       q    Type
REMARK                         _______ _______ _______ _____ _____    ______ ____
ROOT
ATOM      1  N1  UNL     1       6.725  -3.217 -26.993  0.00  0.00    -0.307 N 
ATOM      2  C9  UNL     1       6.403  -2.394 -28.058  0.00  0.00    +0.200 A 
ATOM      3  N2  UNL     1       7.060  -1.258 -27.985  0.00  0.00    -0.214 NA
ATOM      4  C10 UNL     1       7.937  -1.402 -26.948  0.00  0.00    +0.091 A 
ATOM      5  C11 UNL     1       8.907  -0.504 -26.482  0.00  0.00    +0.030 A 
ATOM      6  C12 UNL     1       9.706  -0.878 -25.397  0.00  0.00    +0.002 A 
ATOM      7  C13 UNL     1       9.551  -2.127 -24.795  0.00  0.00    +0.002 A 
ATOM      8  C14 UNL     1       8.591  -3.036 -25.250  0.00  0.00    +0.028 A 
ATOM      9  C15 UNL     1       7.788  -2.640 -26.328  0.00  0.00    +0.070 A 
ATOM     10  N3  UNL     1       5.486  -2.743 -29.010  0.00  0.00    -0.301 N 
ATOM     11  C16 UNL     1       5.819  -3.908 -29.848  0.00  0.00    +0.108 C 
ATOM     12  C17 UNL     1       6.000  -3.533 -31.315  0.00  0.00    +0.032 C 
ATOM     13  C18 UNL     1       4.772  -2.812 -31.892  0.00  0.00    +0.078 C 
ATOM     14  C19 UNL     1       3.951  -2.087 -30.820  0.00  0.00    +0.032 C 
ATOM     15  C20 UNL     1       4.872  -1.597 -29.710  0.00  0.00    +0.108 C 
ENDROOT
BRANCH  13  16
ATOM     16  C21 UNL     1       3.935  -3.753 -32.749  0.00  0.00    +0.216 C 
ATOM     17  O1  UNL     1       4.465  -4.676 -33.363  0.00  0.00    -0.276 OA
ATOM     18  N4  UNL     1       2.578  -3.539 -32.718  0.00  0.00    -0.310 N 
ATOM     19  H24 UNL     1       2.235  -2.655 -32.377  0.00  0.00    +0.149 HD
BRANCH  18  20
ATOM     20  C22 UNL     1       1.692  -4.270 -33.599  0.00  0.00    +0.146 C 
BRANCH  20  21
ATOM     21  C23 UNL     1       1.004  -3.285 -34.496  0.00  0.00    +0.007 A 
ATOM     22  C24 UNL     1       0.814  -1.933 -34.278  0.00  0.00    +0.013 A 
ATOM     23  C25 UNL     1       0.108  -1.305 -35.345  0.00  0.00    +0.008 A 
ATOM     24  C26 UNL     1      -0.227  -2.201 -36.340  0.00  0.00    +0.045 A 
ATOM     25  S1  UNL     1       0.311  -3.786 -35.982  0.00  0.00    -0.100 S 
ENDBRANCH  20  21
ENDBRANCH  18  20
ENDBRANCH  13  16
BRANCH   1  26
ATOM     26  C8  UNL     1       6.017  -4.439 -26.645  0.00  0.00    +0.160 C 
BRANCH  26  33
ATOM     27  C1  UNL     1       5.078  -4.079 -21.727  0.00  0.00    +0.044 C 
ATOM     28  C2  UNL     1       4.562  -4.095 -23.134  0.00  0.00    -0.050 A 
ATOM     29  C3  UNL     1       3.200  -3.958 -23.394  0.00  0.00    +0.003 A 
ATOM     30  C4  UNL     1       2.726  -3.995 -24.708  0.00  0.00    +0.004 A 
ATOM     31  C5  UNL     1       3.601  -4.174 -25.791  0.00  0.00    -0.046 A 
ATOM     32  C6  UNL     1       3.022  -4.176 -27.180  0.00  0.00    +0.044 C 
ATOM     33  C7  UNL     1       4.985  -4.291 -25.544  0.00  0.00    -0.025 A 
ATOM     34  C27 UNL     1       5.439  -4.283 -24.210  0.00  0.00    +0.009 A 
ENDBRANCH  26  33
ENDBRANCH   1  26
TORSDOF 5
ENDMDL
MODEL 9
REMARK VINA RESULT:    -7.305      4.598      7.449
REMARK INTER + INTRA:         -10.515
REMARK INTER:                  -9.394
REMARK INTRA:                  -1.122
REMARK UNBOUND:                -1.075
REMARK  Name = /home/vital/Documents/PhD_2021/Malaria_codes/data/pdb_ligands_mmv/ligand_294.pdb
REMARK  7 active torsions:
REMARK  status: ('A' for Active; 'I' for Inactive)
REMARK    1  A    between atoms: C1_1  and  C2_2
REMARK    2  A    between atoms: C5_5  and  C6_6
REMARK    3  A    between atoms: C7_7  and  C8_8
REMARK    4  A    between atoms: C8_8  and  N1_9
REMARK    5  A    between atoms: C18_21  and  C21_24
REMARK    6  A    between atoms: N4_26  and  C22_27
REMARK    7  A    between atoms: C22_27  and  C23_28
REMARK                            x       y       z     vdW  Elec       q    Type
REMARK                         _______ _______ _______ _____ _____    ______ ____
ROOT
ATOM      1  N1  UNL     1       1.259  -5.441 -30.343  0.00  0.00    -0.307 N 
ATOM      2  C9  UNL     1       0.260  -6.070 -29.620  0.00  0.00    +0.200 A 
ATOM      3  N2  UNL     1      -0.109  -7.186 -30.209  0.00  0.00    -0.214 NA
ATOM      4  C10 UNL     1       0.766  -7.367 -31.242  0.00  0.00    +0.091 A 
ATOM      5  C11 UNL     1       0.847  -8.431 -32.151  0.00  0.00    +0.030 A 
ATOM      6  C12 UNL     1       1.844  -8.404 -33.132  0.00  0.00    +0.002 A 
ATOM      7  C13 UNL     1       2.750  -7.345 -33.198  0.00  0.00    +0.002 A 
ATOM      8  C14 UNL     1       2.684  -6.278 -32.296  0.00  0.00    +0.028 A 
ATOM      9  C15 UNL     1       1.670  -6.313 -31.330  0.00  0.00    +0.070 A 
ATOM     10  N3  UNL     1      -0.269  -5.540 -28.476  0.00  0.00    -0.301 N 
ATOM     11  C16 UNL     1       0.646  -5.403 -27.330  0.00  0.00    +0.108 C 
ATOM     12  C17 UNL     1       0.235  -6.281 -26.153  0.00  0.00    +0.032 C 
ATOM     13  C18 UNL     1      -1.209  -6.015 -25.699  0.00  0.00    +0.078 C 
ATOM     14  C19 UNL     1      -2.091  -5.457 -26.821  0.00  0.00    +0.032 C 
ATOM     15  C20 UNL     1      -1.632  -6.015 -28.162  0.00  0.00    +0.108 C 
ENDROOT
BRANCH  13  16
ATOM     16  C21 UNL     1      -1.239  -5.164 -24.436  0.00  0.00    +0.216 C 
ATOM     17  O1  UNL     1      -0.261  -5.111 -23.695  0.00  0.00    -0.276 OA
ATOM     18  N4  UNL     1      -2.383  -4.428 -24.241  0.00  0.00    -0.310 N 
ATOM     19  H24 UNL     1      -3.212  -4.676 -24.757  0.00  0.00    +0.149 HD
BRANCH  18  20
ATOM     20  C22 UNL     1      -2.593  -3.696 -23.011  0.00  0.00    +0.146 C 
BRANCH  20  21
ATOM     21  C23 UNL     1      -3.988  -3.144 -23.025  0.00  0.00    +0.007 A 
ATOM     22  C24 UNL     1      -4.626  -2.436 -22.024  0.00  0.00    +0.013 A 
ATOM     23  C25 UNL     1      -5.957  -2.074 -22.380  0.00  0.00    +0.008 A 
ATOM     24  C26 UNL     1      -6.296  -2.527 -23.639  0.00  0.00    +0.045 A 
ATOM     25  S1  UNL     1      -5.011  -3.381 -24.380  0.00  0.00    -0.100 S 
ENDBRANCH  20  21
ENDBRANCH  18  20
ENDBRANCH  13  16
BRANCH   1  26
ATOM     26  C8  UNL     1       1.730  -4.087 -30.099  0.00  0.00    +0.160 C 
BRANCH  26  33
ATOM     27  C1  UNL     1       5.476  -5.112 -26.918  0.00  0.00    +0.044 C 
ATOM     28  C2  UNL     1       5.020  -4.507 -28.212  0.00  0.00    -0.050 A 
ATOM     29  C3  UNL     1       5.930  -3.891 -29.069  0.00  0.00    +0.003 A 
ATOM     30  C4  UNL     1       5.492  -3.312 -30.262  0.00  0.00    +0.004 A 
ATOM     31  C5  UNL     1       4.136  -3.329 -30.624  0.00  0.00    -0.046 A 
ATOM     32  C6  UNL     1       3.743  -2.709 -31.937  0.00  0.00    +0.044 C 
ATOM     33  C7  UNL     1       3.207  -3.970 -29.777  0.00  0.00    -0.025 A 
ATOM     34  C27 UNL     1       3.665  -4.521 -28.563  0.00  0.00    +0.009 A 
ENDBRANCH  26  33
ENDBRANCH   1  26
TORSDOF 5
ENDMDL
