MODEL 1
REMARK VINA RESULT:    -7.145      0.000      0.000
REMARK INTER + INTRA:          -8.766
REMARK INTER:                  -8.189
REMARK INTRA:                  -0.577
REMARK UNBOUND:                -0.577
REMARK  Name = /home/vital/Documents/PhD_2021/Malaria_codes/data/pdb_ligands_mmv/ligand_34.pdb
REMARK  3 active torsions:
REMARK  status: ('A' for Active; 'I' for Inactive)
REMARK    1  A    between atoms: C4_4  and  C5_5
REMARK    2  A    between atoms: C5_5  and  O1_6
REMARK    3  A    between atoms: C6_9  and  C7_10
REMARK                            x       y       z     vdW  Elec       q    Type
REMARK                         _______ _______ _______ _____ _____    ______ ____
ROOT
ATOM      1  C1  UNL     1       1.015  -4.514 -32.513  0.00  0.00    +0.042 A 
ATOM      2  C2  UNL     1       0.783  -4.893 -33.819  0.00  0.00    -0.015 A 
ATOM      3  C3  UNL     1       0.872  -6.316 -34.224  0.00  0.00    +0.067 C 
ATOM      4  C4  UNL     1       1.724  -7.090 -33.197  0.00  0.00    +0.168 C 
ATOM      5  N1  UNL     1       1.375  -6.832 -31.762  0.00  0.00    -0.292 NA
ATOM      6  C6  UNL     1       1.367  -5.403 -31.358  0.00  0.00    +0.133 C 
ATOM      7  C13 UNL     1       0.466  -3.731 -34.569  0.00  0.00    +0.003 A 
ATOM      8  C14 UNL     1       0.505  -2.655 -33.681  0.00  0.00    +0.047 A 
ATOM      9  C15 UNL     1       0.239  -1.339 -34.078  0.00  0.00    +0.026 A 
ATOM     10  C16 UNL     1      -0.075  -1.118 -35.423  0.00  0.00    +0.002 A 
ATOM     11  C17 UNL     1      -0.122  -2.174 -36.331  0.00  0.00    +0.001 A 
ATOM     12  C18 UNL     1       0.145  -3.484 -35.919  0.00  0.00    +0.010 A 
ATOM     13  N2  UNL     1       0.830  -3.157 -32.440  0.00  0.00    -0.356 N 
ATOM     14  H5  UNL     1       0.427  -7.191 -31.628  0.00  0.00    +0.124 HD
ATOM     15  H14 UNL     1       0.914  -2.598 -31.601  0.00  0.00    +0.166 HD
ENDROOT
BRANCH   6  16
ATOM     16  C7  UNL     1       2.631  -4.966 -30.614  0.00  0.00    -0.006 A 
ATOM     17  C8  UNL     1       3.766  -4.499 -31.307  0.00  0.00    +0.008 A 
ATOM     18  C9  UNL     1       4.918  -4.084 -30.633  0.00  0.00    +0.020 A 
ATOM     19  C10 UNL     1       4.960  -4.124 -29.246  0.00  0.00    +0.042 A 
ATOM     20 CL1  UNL     1       6.376  -3.613 -28.416  0.00  0.00    -0.083 Cl
ATOM     21  C11 UNL     1       3.860  -4.575 -28.527  0.00  0.00    +0.040 A 
ATOM     22  C12 UNL     1       2.707  -4.990 -29.204  0.00  0.00    +0.047 A 
ATOM     23 CL2  UNL     1       1.386  -5.516 -28.212  0.00  0.00    -0.083 Cl
ENDBRANCH   6  16
BRANCH   4  24
ATOM     24  C5  UNL     1       1.536  -8.577 -33.486  0.00  0.00    +0.322 C 
ATOM     25  O2  UNL     1       0.905  -9.067 -34.410  0.00  0.00    -0.249 OA
BRANCH  24  26
ATOM     26  O1  UNL     1       2.194  -9.371 -32.616  0.00  0.00    -0.480 OA
ATOM     27  H4  UNL     1       3.117  -9.365 -32.946  0.00  0.00    +0.295 HD
ENDBRANCH  24  26
ENDBRANCH   4  24
TORSDOF 3
ENDMDL
MODEL 2
REMARK VINA RESULT:    -6.904     15.536     17.722
REMARK INTER + INTRA:          -8.489
REMARK INTER:                  -7.951
REMARK INTRA:                  -0.538
REMARK UNBOUND:                -0.577
REMARK  Name = /home/vital/Documents/PhD_2021/Malaria_codes/data/pdb_ligands_mmv/ligand_34.pdb
REMARK  3 active torsions:
REMARK  status: ('A' for Active; 'I' for Inactive)
REMARK    1  A    between atoms: C4_4  and  C5_5
REMARK    2  A    between atoms: C5_5  and  O1_6
REMARK    3  A    between atoms: C6_9  and  C7_10
REMARK                            x       y       z     vdW  Elec       q    Type
REMARK                         _______ _______ _______ _____ _____    ______ ____
ROOT
ATOM      1  C1  UNL     1       1.854   3.130 -17.273  0.00  0.00    +0.042 A 
ATOM      2  C2  UNL     1       1.163   3.782 -16.273  0.00  0.00    -0.015 A 
ATOM      3  C3  UNL     1       1.708   3.862 -14.898  0.00  0.00    +0.067 C 
ATOM      4  C4  UNL     1       2.748   2.740 -14.692  0.00  0.00    +0.168 C 
ATOM      5  N1  UNL     1       3.753   2.597 -15.795  0.00  0.00    -0.292 NA
ATOM      6  C6  UNL     1       3.182   2.442 -17.158  0.00  0.00    +0.133 C 
ATOM      7  C13 UNL     1      -0.037   4.300 -16.829  0.00  0.00    +0.003 A 
ATOM      8  C14 UNL     1      -0.038   3.950 -18.180  0.00  0.00    +0.047 A 
ATOM      9  C15 UNL     1      -1.079   4.301 -19.049  0.00  0.00    +0.026 A 
ATOM     10  C16 UNL     1      -2.148   5.030 -18.518  0.00  0.00    +0.002 A 
ATOM     11  C17 UNL     1      -2.172   5.394 -17.174  0.00  0.00    +0.001 A 
ATOM     12  C18 UNL     1      -1.124   5.036 -16.318  0.00  0.00    +0.010 A 
ATOM     13  N2  UNL     1       1.123   3.251 -18.426  0.00  0.00    -0.356 N 
ATOM     14  H5  UNL     1       4.304   3.458 -15.793  0.00  0.00    +0.124 HD
ATOM     15  H14 UNL     1       1.390   2.886 -19.331  0.00  0.00    +0.166 HD
ENDROOT
BRANCH   6  16
ATOM     16  C7  UNL     1       3.165   0.995 -17.656  0.00  0.00    -0.006 A 
ATOM     17  C8  UNL     1       2.034   0.172 -17.481  0.00  0.00    +0.008 A 
ATOM     18  C9  UNL     1       2.006  -1.146 -17.948  0.00  0.00    +0.020 A 
ATOM     19  C10 UNL     1       3.111  -1.670 -18.606  0.00  0.00    +0.042 A 
ATOM     20 CL1  UNL     1       3.078  -3.290 -19.181  0.00  0.00    -0.083 Cl
ATOM     21  C11 UNL     1       4.243  -0.888 -18.800  0.00  0.00    +0.040 A 
ATOM     22  C12 UNL     1       4.269   0.431 -18.332  0.00  0.00    +0.047 A 
ATOM     23 CL2  UNL     1       5.722   1.324 -18.643  0.00  0.00    -0.083 Cl
ENDBRANCH   6  16
BRANCH   4  24
ATOM     24  C5  UNL     1       3.488   3.045 -13.392  0.00  0.00    +0.322 C 
ATOM     25  O2  UNL     1       4.595   3.549 -13.283  0.00  0.00    -0.249 OA
BRANCH  24  26
ATOM     26  O1  UNL     1       2.770   2.736 -12.292  0.00  0.00    -0.480 OA
ATOM     27  H4  UNL     1       2.721   1.758 -12.312  0.00  0.00    +0.295 HD
ENDBRANCH  24  26
ENDBRANCH   4  24
TORSDOF 3
ENDMDL
MODEL 3
REMARK VINA RESULT:    -6.736     15.877     18.625
REMARK INTER + INTRA:          -8.298
REMARK INTER:                  -7.755
REMARK INTRA:                  -0.543
REMARK UNBOUND:                -0.577
REMARK  Name = /home/vital/Documents/PhD_2021/Malaria_codes/data/pdb_ligands_mmv/ligand_34.pdb
REMARK  3 active torsions:
REMARK  status: ('A' for Active; 'I' for Inactive)
REMARK    1  A    between atoms: C4_4  and  C5_5
REMARK    2  A    between atoms: C5_5  and  O1_6
REMARK    3  A    between atoms: C6_9  and  C7_10
REMARK                            x       y       z     vdW  Elec       q    Type
REMARK                         _______ _______ _______ _____ _____    ______ ____
ROOT
ATOM      1  C1  UNL     1       1.671   2.914 -16.623  0.00  0.00    +0.042 A 
ATOM      2  C2  UNL     1       2.432   1.788 -16.388  0.00  0.00    -0.015 A 
ATOM      3  C3  UNL     1       3.121   1.594 -15.090  0.00  0.00    +0.067 C 
ATOM      4  C4  UNL     1       3.283   2.958 -14.386  0.00  0.00    +0.168 C 
ATOM      5  N1  UNL     1       2.049   3.808 -14.359  0.00  0.00    -0.292 NA
ATOM      6  C6  UNL     1       1.418   4.053 -15.681  0.00  0.00    +0.133 C 
ATOM      7  C13 UNL     1       2.382   0.968 -17.545  0.00  0.00    +0.003 A 
ATOM      8  C14 UNL     1       1.567   1.625 -18.469  0.00  0.00    +0.047 A 
ATOM      9  C15 UNL     1       1.289   1.101 -19.737  0.00  0.00    +0.026 A 
ATOM     10  C16 UNL     1       1.862  -0.132 -20.068  0.00  0.00    +0.002 A 
ATOM     11  C17 UNL     1       2.678  -0.810 -19.165  0.00  0.00    +0.001 A 
ATOM     12  C18 UNL     1       2.946  -0.273 -17.901  0.00  0.00    +0.010 A 
ATOM     13  N2  UNL     1       1.141   2.796 -17.883  0.00  0.00    -0.356 N 
ATOM     14  H5  UNL     1       1.368   3.305 -13.786  0.00  0.00    +0.124 HD
ATOM     15  H14 UNL     1       0.523   3.465 -18.324  0.00  0.00    +0.166 HD
ENDROOT
BRANCH   6  16
ATOM     16  C7  UNL     1       1.749   5.423 -16.276  0.00  0.00    -0.006 A 
ATOM     17  C8  UNL     1       3.041   5.976 -16.169  0.00  0.00    +0.008 A 
ATOM     18  C9  UNL     1       3.355   7.221 -16.724  0.00  0.00    +0.020 A 
ATOM     19  C10 UNL     1       2.381   7.941 -17.404  0.00  0.00    +0.042 A 
ATOM     20 CL1  UNL     1       2.766   9.470 -18.087  0.00  0.00    -0.083 Cl
ATOM     21  C11 UNL     1       1.097   7.426 -17.533  0.00  0.00    +0.040 A 
ATOM     22  C12 UNL     1       0.785   6.180 -16.977  0.00  0.00    +0.047 A 
ATOM     23 CL2  UNL     1      -0.840   5.624 -17.212  0.00  0.00    -0.083 Cl
ENDBRANCH   6  16
BRANCH   4  24
ATOM     24  C5  UNL     1       3.714   2.674 -12.949  0.00  0.00    +0.322 C 
ATOM     25  O2  UNL     1       4.834   2.368 -12.570  0.00  0.00    -0.249 OA
BRANCH  24  26
ATOM     26  O1  UNL     1       2.715   2.834 -12.057  0.00  0.00    -0.480 OA
ATOM     27  H4  UNL     1       2.243   1.975 -12.077  0.00  0.00    +0.295 HD
ENDBRANCH  24  26
ENDBRANCH   4  24
TORSDOF 3
ENDMDL
MODEL 4
REMARK VINA RESULT:    -6.720      3.268      5.638
REMARK INTER + INTRA:          -8.279
REMARK INTER:                  -7.723
REMARK INTRA:                  -0.556
REMARK UNBOUND:                -0.577
REMARK  Name = /home/vital/Documents/PhD_2021/Malaria_codes/data/pdb_ligands_mmv/ligand_34.pdb
REMARK  3 active torsions:
REMARK  status: ('A' for Active; 'I' for Inactive)
REMARK    1  A    between atoms: C4_4  and  C5_5
REMARK    2  A    between atoms: C5_5  and  O1_6
REMARK    3  A    between atoms: C6_9  and  C7_10
REMARK                            x       y       z     vdW  Elec       q    Type
REMARK                         _______ _______ _______ _____ _____    ______ ____
ROOT
ATOM      1  C1  UNL     1       2.238  -4.385 -33.909  0.00  0.00    +0.042 A 
ATOM      2  C2  UNL     1       3.131  -5.142 -33.179  0.00  0.00    -0.015 A 
ATOM      3  C3  UNL     1       2.974  -6.611 -33.073  0.00  0.00    +0.067 C 
ATOM      4  C4  UNL     1       1.514  -6.996 -33.392  0.00  0.00    +0.168 C 
ATOM      5  N1  UNL     1       0.945  -6.357 -34.623  0.00  0.00    -0.292 NA
ATOM      6  C6  UNL     1       1.044  -4.875 -34.672  0.00  0.00    +0.133 C 
ATOM      7  C13 UNL     1       4.113  -4.271 -32.639  0.00  0.00    +0.003 A 
ATOM      8  C14 UNL     1       3.791  -2.983 -33.071  0.00  0.00    +0.047 A 
ATOM      9  C15 UNL     1       4.552  -1.859 -32.728  0.00  0.00    +0.026 A 
ATOM     10  C16 UNL     1       5.675  -2.060 -31.918  0.00  0.00    +0.002 A 
ATOM     11  C17 UNL     1       6.021  -3.334 -31.473  0.00  0.00    +0.001 A 
ATOM     12  C18 UNL     1       5.250  -4.448 -31.826  0.00  0.00    +0.010 A 
ATOM     13  N2  UNL     1       2.657  -3.081 -33.847  0.00  0.00    -0.356 N 
ATOM     14  H5  UNL     1       1.483  -6.723 -35.411  0.00  0.00    +0.124 HD
ATOM     15  H14 UNL     1       2.208  -2.298 -34.304  0.00  0.00    +0.166 HD
ENDROOT
BRANCH   6  16
ATOM     16  C7  UNL     1      -0.255  -4.159 -34.299  0.00  0.00    -0.006 A 
ATOM     17  C8  UNL     1      -1.056  -4.602 -33.227  0.00  0.00    +0.008 A 
ATOM     18  C9  UNL     1      -2.236  -3.943 -32.871  0.00  0.00    +0.020 A 
ATOM     19  C10 UNL     1      -2.643  -2.820 -33.580  0.00  0.00    +0.042 A 
ATOM     20 CL1  UNL     1      -4.093  -2.008 -33.142  0.00  0.00    -0.083 Cl
ATOM     21  C11 UNL     1      -1.878  -2.351 -34.641  0.00  0.00    +0.040 A 
ATOM     22  C12 UNL     1      -0.697  -3.012 -34.996  0.00  0.00    +0.047 A 
ATOM     23 CL2  UNL     1       0.190  -2.334 -36.322  0.00  0.00    -0.083 Cl
ENDBRANCH   6  16
BRANCH   4  24
ATOM     24  C5  UNL     1       1.476  -8.512 -33.566  0.00  0.00    +0.322 C 
ATOM     25  O2  UNL     1       0.892  -9.132 -34.442  0.00  0.00    -0.249 OA
BRANCH  24  26
ATOM     26  O1  UNL     1       2.215  -9.167 -32.648  0.00  0.00    -0.480 OA
ATOM     27  H4  UNL     1       2.781  -8.467 -32.260  0.00  0.00    +0.295 HD
ENDBRANCH  24  26
ENDBRANCH   4  24
TORSDOF 3
ENDMDL
MODEL 5
REMARK VINA RESULT:    -6.534      3.034      4.768
REMARK INTER + INTRA:          -8.066
REMARK INTER:                  -8.044
REMARK INTRA:                  -0.023
REMARK UNBOUND:                -0.577
REMARK  Name = /home/vital/Documents/PhD_2021/Malaria_codes/data/pdb_ligands_mmv/ligand_34.pdb
REMARK  3 active torsions:
REMARK  status: ('A' for Active; 'I' for Inactive)
REMARK    1  A    between atoms: C4_4  and  C5_5
REMARK    2  A    between atoms: C5_5  and  O1_6
REMARK    3  A    between atoms: C6_9  and  C7_10
REMARK                            x       y       z     vdW  Elec       q    Type
REMARK                         _______ _______ _______ _____ _____    ______ ____
ROOT
ATOM      1  C1  UNL     1       1.448  -4.725 -34.413  0.00  0.00    +0.042 A 
ATOM      2  C2  UNL     1       1.896  -3.488 -33.997  0.00  0.00    -0.015 A 
ATOM      3  C3  UNL     1       3.222  -3.337 -33.353  0.00  0.00    +0.067 C 
ATOM      4  C4  UNL     1       3.677  -4.699 -32.788  0.00  0.00    +0.168 C 
ATOM      5  N1  UNL     1       3.526  -5.857 -33.727  0.00  0.00    -0.292 NA
ATOM      6  C6  UNL     1       2.168  -6.036 -34.302  0.00  0.00    +0.133 C 
ATOM      7  C13 UNL     1       0.902  -2.526 -34.314  0.00  0.00    +0.003 A 
ATOM      8  C14 UNL     1      -0.142  -3.215 -34.935  0.00  0.00    +0.047 A 
ATOM      9  C15 UNL     1      -1.302  -2.577 -35.389  0.00  0.00    +0.026 A 
ATOM     10  C16 UNL     1      -1.397  -1.194 -35.201  0.00  0.00    +0.002 A 
ATOM     11  C17 UNL     1      -0.371  -0.481 -34.586  0.00  0.00    +0.001 A 
ATOM     12  C18 UNL     1       0.784  -1.133 -34.138  0.00  0.00    +0.010 A 
ATOM     13  N2  UNL     1       0.218  -4.543 -34.992  0.00  0.00    -0.356 N 
ATOM     14  H5  UNL     1       4.164  -5.679 -34.506  0.00  0.00    +0.124 HD
ATOM     15  H14 UNL     1      -0.348  -5.272 -35.406  0.00  0.00    +0.166 HD
ENDROOT
BRANCH   6  16
ATOM     16  C7  UNL     1       1.347  -7.127 -33.611  0.00  0.00    -0.006 A 
ATOM     17  C8  UNL     1       1.056  -8.345 -34.257  0.00  0.00    +0.008 A 
ATOM     18  C9  UNL     1       0.319  -9.353 -33.626  0.00  0.00    +0.020 A 
ATOM     19  C10 UNL     1      -0.141  -9.164 -32.329  0.00  0.00    +0.042 A 
ATOM     20 CL1  UNL     1      -1.045 -10.402 -31.552  0.00  0.00    -0.083 Cl
ATOM     21  C11 UNL     1       0.129  -7.978 -31.659  0.00  0.00    +0.040 A 
ATOM     22  C12 UNL     1       0.866  -6.970 -32.292  0.00  0.00    +0.047 A 
ATOM     23 CL2  UNL     1       1.162  -5.539 -31.361  0.00  0.00    -0.083 Cl
ENDBRANCH   6  16
BRANCH   4  24
ATOM     24  C5  UNL     1       5.150  -4.561 -32.413  0.00  0.00    +0.322 C 
ATOM     25  O2  UNL     1       5.608  -4.424 -31.289  0.00  0.00    -0.249 OA
BRANCH  24  26
ATOM     26  O1  UNL     1       5.976  -4.649 -33.476  0.00  0.00    -0.480 OA
ATOM     27  H4  UNL     1       6.109  -5.613 -33.591  0.00  0.00    +0.295 HD
ENDBRANCH  24  26
ENDBRANCH   4  24
TORSDOF 3
ENDMDL
MODEL 6
REMARK VINA RESULT:    -6.511     17.665     18.841
REMARK INTER + INTRA:          -8.040
REMARK INTER:                  -8.042
REMARK INTRA:                   0.002
REMARK UNBOUND:                -0.577
REMARK  Name = /home/vital/Documents/PhD_2021/Malaria_codes/data/pdb_ligands_mmv/ligand_34.pdb
REMARK  3 active torsions:
REMARK  status: ('A' for Active; 'I' for Inactive)
REMARK    1  A    between atoms: C4_4  and  C5_5
REMARK    2  A    between atoms: C5_5  and  O1_6
REMARK    3  A    between atoms: C6_9  and  C7_10
REMARK                            x       y       z     vdW  Elec       q    Type
REMARK                         _______ _______ _______ _____ _____    ______ ____
ROOT
ATOM      1  C1  UNL     1       1.273   6.807 -17.209  0.00  0.00    +0.042 A 
ATOM      2  C2  UNL     1       0.754   6.899 -18.484  0.00  0.00    -0.015 A 
ATOM      3  C3  UNL     1      -0.601   6.387 -18.792  0.00  0.00    +0.067 C 
ATOM      4  C4  UNL     1      -1.017   5.358 -17.720  0.00  0.00    +0.168 C 
ATOM      5  N1  UNL     1      -0.778   5.786 -16.304  0.00  0.00    -0.292 NA
ATOM      6  C6  UNL     1       0.609   6.224 -15.998  0.00  0.00    +0.133 C 
ATOM      7  C13 UNL     1       1.717   7.536 -19.310  0.00  0.00    +0.003 A 
ATOM      8  C14 UNL     1       2.814   7.830 -18.497  0.00  0.00    +0.047 A 
ATOM      9  C15 UNL     1       3.962   8.468 -18.981  0.00  0.00    +0.026 A 
ATOM     10  C16 UNL     1       3.988   8.816 -20.336  0.00  0.00    +0.002 A 
ATOM     11  C17 UNL     1       2.907   8.536 -21.170  0.00  0.00    +0.001 A 
ATOM     12  C18 UNL     1       1.766   7.898 -20.671  0.00  0.00    +0.010 A 
ATOM     13  N2  UNL     1       2.515   7.388 -17.227  0.00  0.00    -0.356 N 
ATOM     14  H5  UNL     1      -1.392   6.587 -16.139  0.00  0.00    +0.124 HD
ATOM     15  H14 UNL     1       3.130   7.485 -16.429  0.00  0.00    +0.166 HD
ENDROOT
BRANCH   6  16
ATOM     16  C7  UNL     1       1.449   5.156 -15.295  0.00  0.00    -0.006 A 
ATOM     17  C8  UNL     1       1.848   5.303 -13.952  0.00  0.00    +0.008 A 
ATOM     18  C9  UNL     1       2.603   4.324 -13.299  0.00  0.00    +0.020 A 
ATOM     19  C10 UNL     1       2.974   3.170 -13.976  0.00  0.00    +0.042 A 
ATOM     20 CL1  UNL     1       3.901   1.965 -13.174  0.00  0.00    -0.083 Cl
ATOM     21  C11 UNL     1       2.596   2.987 -15.301  0.00  0.00    +0.040 A 
ATOM     22  C12 UNL     1       1.841   3.969 -15.953  0.00  0.00    +0.047 A 
ATOM     23 CL2  UNL     1       1.407   3.633 -17.597  0.00  0.00    -0.083 Cl
ENDBRANCH   6  16
BRANCH   4  24
ATOM     24  C5  UNL     1      -2.509   5.092 -17.906  0.00  0.00    +0.322 C 
ATOM     25  O2  UNL     1      -3.015   4.229 -18.606  0.00  0.00    -0.249 OA
BRANCH  24  26
ATOM     26  O1  UNL     1      -3.286   5.905 -17.161  0.00  0.00    -0.480 OA
ATOM     27  H4  UNL     1      -2.883   6.790 -17.281  0.00  0.00    +0.295 HD
ENDBRANCH  24  26
ENDBRANCH   4  24
TORSDOF 3
ENDMDL
MODEL 7
REMARK VINA RESULT:    -6.457      3.312      5.809
REMARK INTER + INTRA:          -7.978
REMARK INTER:                  -7.383
REMARK INTRA:                  -0.596
REMARK UNBOUND:                -0.577
REMARK  Name = /home/vital/Documents/PhD_2021/Malaria_codes/data/pdb_ligands_mmv/ligand_34.pdb
REMARK  3 active torsions:
REMARK  status: ('A' for Active; 'I' for Inactive)
REMARK    1  A    between atoms: C4_4  and  C5_5
REMARK    2  A    between atoms: C5_5  and  O1_6
REMARK    3  A    between atoms: C6_9  and  C7_10
REMARK                            x       y       z     vdW  Elec       q    Type
REMARK                         _______ _______ _______ _____ _____    ______ ____
ROOT
ATOM      1  C1  UNL     1       0.726  -4.990 -32.878  0.00  0.00    +0.042 A 
ATOM      2  C2  UNL     1       1.530  -6.080 -33.140  0.00  0.00    -0.015 A 
ATOM      3  C3  UNL     1       3.004  -5.983 -33.021  0.00  0.00    +0.067 C 
ATOM      4  C4  UNL     1       3.431  -4.503 -33.112  0.00  0.00    +0.168 C 
ATOM      5  N1  UNL     1       2.635  -3.561 -32.260  0.00  0.00    -0.292 NA
ATOM      6  C6  UNL     1       1.163  -3.621 -32.452  0.00  0.00    +0.133 C 
ATOM      7  C13 UNL     1       0.696  -7.173 -33.494  0.00  0.00    +0.003 A 
ATOM      8  C14 UNL     1      -0.620  -6.713 -33.425  0.00  0.00    +0.047 A 
ATOM      9  C15 UNL     1      -1.721  -7.530 -33.710  0.00  0.00    +0.026 A 
ATOM     10  C16 UNL     1      -1.466  -8.856 -34.075  0.00  0.00    +0.002 A 
ATOM     11  C17 UNL     1      -0.162  -9.342 -34.151  0.00  0.00    +0.001 A 
ATOM     12  C18 UNL     1       0.927  -8.513 -33.862  0.00  0.00    +0.010 A 
ATOM     13  N2  UNL     1      -0.575  -5.391 -33.040  0.00  0.00    -0.356 N 
ATOM     14  H5  UNL     1       2.826  -3.821 -31.290  0.00  0.00    +0.124 HD
ATOM     15  H14 UNL     1      -1.391  -4.809 -32.896  0.00  0.00    +0.166 HD
ENDROOT
BRANCH   6  16
ATOM     16  C7  UNL     1       0.612  -2.501 -33.337  0.00  0.00    -0.006 A 
ATOM     17  C8  UNL     1       0.595  -2.617 -34.741  0.00  0.00    +0.008 A 
ATOM     18  C9  UNL     1       0.078  -1.604 -35.555  0.00  0.00    +0.020 A 
ATOM     19  C10 UNL     1      -0.438  -0.450 -34.981  0.00  0.00    +0.042 A 
ATOM     20 CL1  UNL     1      -1.074   0.795 -35.980  0.00  0.00    -0.083 Cl
ATOM     21  C11 UNL     1      -0.441  -0.301 -33.599  0.00  0.00    +0.040 A 
ATOM     22  C12 UNL     1       0.076  -1.316 -32.786  0.00  0.00    +0.047 A 
ATOM     23 CL2  UNL     1       0.006  -1.037 -31.077  0.00  0.00    -0.083 Cl
ENDBRANCH   6  16
BRANCH   4  24
ATOM     24  C5  UNL     1       4.895  -4.430 -32.687  0.00  0.00    +0.322 C 
ATOM     25  O2  UNL     1       5.371  -3.701 -31.830  0.00  0.00    -0.249 OA
BRANCH  24  26
ATOM     26  O1  UNL     1       5.678  -5.314 -33.338  0.00  0.00    -0.480 OA
ATOM     27  H4  UNL     1       6.491  -4.804 -33.537  0.00  0.00    +0.295 HD
ENDBRANCH  24  26
ENDBRANCH   4  24
TORSDOF 3
ENDMDL
MODEL 8
REMARK VINA RESULT:    -6.430     16.706     19.009
REMARK INTER + INTRA:          -7.947
REMARK INTER:                  -7.359
REMARK INTRA:                  -0.588
REMARK UNBOUND:                -0.577
REMARK  Name = /home/vital/Documents/PhD_2021/Malaria_codes/data/pdb_ligands_mmv/ligand_34.pdb
REMARK  3 active torsions:
REMARK  status: ('A' for Active; 'I' for Inactive)
REMARK    1  A    between atoms: C4_4  and  C5_5
REMARK    2  A    between atoms: C5_5  and  O1_6
REMARK    3  A    between atoms: C6_9  and  C7_10
REMARK                            x       y       z     vdW  Elec       q    Type
REMARK                         _______ _______ _______ _____ _____    ______ ____
ROOT
ATOM      1  C1  UNL     1       1.704   5.186 -17.657  0.00  0.00    +0.042 A 
ATOM      2  C2  UNL     1       0.881   4.935 -16.579  0.00  0.00    -0.015 A 
ATOM      3  C3  UNL     1      -0.594   4.981 -16.721  0.00  0.00    +0.067 C 
ATOM      4  C4  UNL     1      -0.964   5.815 -17.965  0.00  0.00    +0.168 C 
ATOM      5  N1  UNL     1      -0.191   5.483 -19.204  0.00  0.00    -0.292 NA
ATOM      6  C6  UNL     1       1.288   5.519 -19.059  0.00  0.00    +0.133 C 
ATOM      7  C13 UNL     1       1.698   4.649 -15.454  0.00  0.00    +0.003 A 
ATOM      8  C14 UNL     1       3.022   4.724 -15.889  0.00  0.00    +0.047 A 
ATOM      9  C15 UNL     1       4.110   4.495 -15.037  0.00  0.00    +0.026 A 
ATOM     10  C16 UNL     1       3.833   4.179 -13.703  0.00  0.00    +0.002 A 
ATOM     11  C17 UNL     1       2.521   4.096 -13.242  0.00  0.00    +0.001 A 
ATOM     12  C18 UNL     1       1.444   4.327 -14.106  0.00  0.00    +0.010 A 
ATOM     13  N2  UNL     1       2.998   5.041 -17.229  0.00  0.00    -0.356 N 
ATOM     14  H5  UNL     1      -0.448   4.525 -19.454  0.00  0.00    +0.124 HD
ATOM     15  H14 UNL     1       3.822   5.146 -17.807  0.00  0.00    +0.166 HD
ENDROOT
BRANCH   6  16
ATOM     16  C7  UNL     1       1.928   6.799 -19.599  0.00  0.00    -0.006 A 
ATOM     17  C8  UNL     1       2.046   7.954 -18.800  0.00  0.00    +0.008 A 
ATOM     18  C9  UNL     1       2.644   9.122 -19.282  0.00  0.00    +0.020 A 
ATOM     19  C10 UNL     1       3.143   9.160 -20.577  0.00  0.00    +0.042 A 
ATOM     20 CL1  UNL     1       3.879  10.595 -21.171  0.00  0.00    -0.083 Cl
ATOM     21  C11 UNL     1       3.048   8.040 -21.394  0.00  0.00    +0.040 A 
ATOM     22  C12 UNL     1       2.449   6.872 -20.910  0.00  0.00    +0.047 A 
ATOM     23 CL2  UNL     1       2.400   5.528 -22.003  0.00  0.00    -0.083 Cl
ENDBRANCH   6  16
BRANCH   4  24
ATOM     24  C5  UNL     1      -2.448   5.583 -18.237  0.00  0.00    +0.322 C 
ATOM     25  O2  UNL     1      -2.935   5.039 -19.217  0.00  0.00    -0.249 OA
BRANCH  24  26
ATOM     26  O1  UNL     1      -3.242   6.011 -17.234  0.00  0.00    -0.480 OA
ATOM     27  H4  UNL     1      -4.055   5.474 -17.333  0.00  0.00    +0.295 HD
ENDBRANCH  24  26
ENDBRANCH   4  24
TORSDOF 3
ENDMDL
MODEL 9
REMARK VINA RESULT:    -6.322      2.988      5.805
REMARK INTER + INTRA:          -7.823
REMARK INTER:                  -7.313
REMARK INTRA:                  -0.510
REMARK UNBOUND:                -0.577
REMARK  Name = /home/vital/Documents/PhD_2021/Malaria_codes/data/pdb_ligands_mmv/ligand_34.pdb
REMARK  3 active torsions:
REMARK  status: ('A' for Active; 'I' for Inactive)
REMARK    1  A    between atoms: C4_4  and  C5_5
REMARK    2  A    between atoms: C5_5  and  O1_6
REMARK    3  A    between atoms: C6_9  and  C7_10
REMARK                            x       y       z     vdW  Elec       q    Type
REMARK                         _______ _______ _______ _____ _____    ______ ____
ROOT
ATOM      1  C1  UNL     1       1.372  -6.223 -31.034  0.00  0.00    +0.042 A 
ATOM      2  C2  UNL     1       0.641  -6.941 -30.111  0.00  0.00    -0.015 A 
ATOM      3  C3  UNL     1      -0.005  -8.222 -30.483  0.00  0.00    +0.067 C 
ATOM      4  C4  UNL     1      -0.174  -8.285 -32.015  0.00  0.00    +0.168 C 
ATOM      5  N1  UNL     1       1.043  -7.905 -32.803  0.00  0.00    -0.292 NA
ATOM      6  C6  UNL     1       1.630  -6.582 -32.467  0.00  0.00    +0.133 C 
ATOM      7  C13 UNL     1       0.673  -6.240 -28.877  0.00  0.00    +0.003 A 
ATOM      8  C14 UNL     1       1.447  -5.097 -29.083  0.00  0.00    +0.047 A 
ATOM      9  C15 UNL     1       1.698  -4.163 -28.070  0.00  0.00    +0.026 A 
ATOM     10  C16 UNL     1       1.140  -4.407 -26.811  0.00  0.00    +0.002 A 
ATOM     11  C17 UNL     1       0.366  -5.541 -26.577  0.00  0.00    +0.001 A 
ATOM     12  C18 UNL     1       0.124  -6.466 -27.599  0.00  0.00    +0.010 A 
ATOM     13  N2  UNL     1       1.867  -5.115 -30.395  0.00  0.00    -0.356 N 
ATOM     14  H5  UNL     1       1.752  -8.613 -32.596  0.00  0.00    +0.124 HD
ATOM     15  H14 UNL     1       2.458  -4.409 -30.816  0.00  0.00    +0.166 HD
ENDROOT
BRANCH   6  16
ATOM     16  C7  UNL     1       1.253  -5.474 -33.452  0.00  0.00    -0.006 A 
ATOM     17  C8  UNL     1      -0.031  -5.410 -34.029  0.00  0.00    +0.008 A 
ATOM     18  C9  UNL     1      -0.387  -4.391 -34.917  0.00  0.00    +0.020 A 
ATOM     19  C10 UNL     1       0.536  -3.408 -35.248  0.00  0.00    +0.042 A 
ATOM     20 CL1  UNL     1       0.100  -2.154 -36.339  0.00  0.00    -0.083 Cl
ATOM     21  C11 UNL     1       1.811  -3.435 -34.696  0.00  0.00    +0.040 A 
ATOM     22  C12 UNL     1       2.166  -4.456 -33.807  0.00  0.00    +0.047 A 
ATOM     23 CL2  UNL     1       3.773  -4.385 -33.163  0.00  0.00    -0.083 Cl
ENDBRANCH   6  16
BRANCH   4  24
ATOM     24  C5  UNL     1      -0.556  -9.721 -32.367  0.00  0.00    +0.322 C 
ATOM     25  O2  UNL     1      -0.200 -10.351 -33.352  0.00  0.00    -0.249 OA
BRANCH  24  26
ATOM     26  O1  UNL     1      -1.334 -10.304 -31.432  0.00  0.00    -0.480 OA
ATOM     27  H4  UNL     1      -0.844 -10.158 -30.596  0.00  0.00    +0.295 HD
ENDBRANCH  24  26
ENDBRANCH   4  24
TORSDOF 3
ENDMDL
