MODEL 1
REMARK VINA RESULT:    -7.527      0.000      0.000
REMARK INTER + INTRA:         -12.650
REMARK INTER:                 -10.167
REMARK INTRA:                  -2.483
REMARK UNBOUND:                -2.483
REMARK  Name = /home/vital/Documents/PhD_2021/Malaria_codes/data/pdb_ligands_mmv/ligand_2.pdb
REMARK  7 active torsions:
REMARK  status: ('A' for Active; 'I' for Inactive)
REMARK    1  A    between atoms: C3_3  and  C4_4
REMARK    2  A    between atoms: C7_7  and  C8_8
REMARK    3  A    between atoms: C13_16  and  S1_17
REMARK    4  A    between atoms: S1_17  and  C14_18
REMARK    5  A    between atoms: C14_18  and  C15_19
REMARK    6  A    between atoms: N4_21  and  C16_22
REMARK    7  A    between atoms: C20_27  and  C21_28
REMARK                            x       y       z     vdW  Elec       q    Type
REMARK                         _______ _______ _______ _____ _____    ______ ____
ROOT
ATOM      1  S1  UNL     1      -0.528   3.255 -20.692  0.00  0.00    -0.094 S 
ENDROOT
BRANCH   1  10
ATOM      2  C1  UNL     1      -0.814   4.344 -18.235  0.00  0.00    +0.099 A 
ATOM      3  C2  UNL     1       0.477   4.254 -17.766  0.00  0.00    +0.060 A 
ATOM      4  C3  UNL     1       0.450   4.835 -16.468  0.00  0.00    +0.094 A 
ATOM      5  N1  UNL     1      -0.792   5.254 -16.168  0.00  0.00    -0.166 NA
ATOM      6  N2  UNL     1      -1.549   4.943 -17.240  0.00  0.00    -0.235 N 
ATOM      7  C11 UNL     1      -2.904   5.161 -17.427  0.00  0.00    +0.132 A 
ATOM      8  C12 UNL     1      -3.472   4.778 -18.580  0.00  0.00    +0.132 A 
ATOM      9  N3  UNL     1      -2.782   4.163 -19.609  0.00  0.00    -0.245 NA
ATOM     10  C13 UNL     1      -1.503   3.975 -19.440  0.00  0.00    +0.123 A 
BRANCH   4  11
ATOM     11  C4  UNL     1       1.564   5.005 -15.525  0.00  0.00    +0.002 A 
ATOM     12  C5  UNL     1       2.872   5.195 -15.998  0.00  0.00    +0.010 A 
ATOM     13  C6  UNL     1       3.943   5.356 -15.112  0.00  0.00    +0.004 A 
ATOM     14  C7  UNL     1       3.727   5.342 -13.731  0.00  0.00    -0.050 A 
ATOM     15  C8  UNL     1       4.876   5.490 -12.778  0.00  0.00    +0.044 C 
ATOM     16  C9  UNL     1       2.430   5.138 -13.252  0.00  0.00    +0.004 A 
ATOM     17  C10 UNL     1       1.358   4.977 -14.139  0.00  0.00    +0.010 A 
ENDBRANCH   4  11
ENDBRANCH   1  10
BRANCH   1  18
ATOM     18  C14 UNL     1      -0.585   4.543 -21.966  0.00  0.00    +0.172 C 
BRANCH  18  19
ATOM     19  C15 UNL     1      -0.215   5.894 -21.378  0.00  0.00    +0.227 C 
ATOM     20  O1  UNL     1      -1.055   6.792 -21.317  0.00  0.00    -0.275 OA
ATOM     21  N4  UNL     1       1.098   5.989 -20.951  0.00  0.00    -0.284 N 
ATOM     22  H13 UNL     1       1.643   5.124 -20.945  0.00  0.00    +0.155 HD
BRANCH  21  23
ATOM     23  C16 UNL     1       1.745   7.132 -20.409  0.00  0.00    +0.052 A 
ATOM     24  C17 UNL     1       2.412   8.020 -21.274  0.00  0.00    +0.062 A 
ATOM     25 CL1  UNL     1       2.473   7.749 -22.980  0.00  0.00    -0.082 Cl
ATOM     26  C18 UNL     1       3.058   9.157 -20.782  0.00  0.00    +0.022 A 
ATOM     27  C19 UNL     1       3.046   9.434 -19.416  0.00  0.00    +0.014 A 
ATOM     28  C20 UNL     1       2.377   8.580 -18.533  0.00  0.00    +0.057 A 
ATOM     29  C22 UNL     1       1.737   7.432 -19.040  0.00  0.00    +0.037 A 
BRANCH  28  30
ATOM     30  C21 UNL     1       2.357   8.859 -17.047  0.00  0.00    +0.417 C 
ATOM     31  F1  UNL     1       2.183  10.180 -16.768  0.00  0.00    -0.166 F 
ATOM     32  F2  UNL     1       3.507   8.486 -16.423  0.00  0.00    -0.166 F 
ATOM     33  F3  UNL     1       1.354   8.205 -16.394  0.00  0.00    -0.166 F 
ENDBRANCH  28  30
ENDBRANCH  21  23
ENDBRANCH  18  19
ENDBRANCH   1  18
TORSDOF 6
ENDMDL
MODEL 2
REMARK VINA RESULT:    -6.809     13.504     15.124
REMARK INTER + INTRA:         -11.680
REMARK INTER:                  -9.248
REMARK INTRA:                  -2.432
REMARK UNBOUND:                -2.483
REMARK  Name = /home/vital/Documents/PhD_2021/Malaria_codes/data/pdb_ligands_mmv/ligand_2.pdb
REMARK  7 active torsions:
REMARK  status: ('A' for Active; 'I' for Inactive)
REMARK    1  A    between atoms: C3_3  and  C4_4
REMARK    2  A    between atoms: C7_7  and  C8_8
REMARK    3  A    between atoms: C13_16  and  S1_17
REMARK    4  A    between atoms: S1_17  and  C14_18
REMARK    5  A    between atoms: C14_18  and  C15_19
REMARK    6  A    between atoms: N4_21  and  C16_22
REMARK    7  A    between atoms: C20_27  and  C21_28
REMARK                            x       y       z     vdW  Elec       q    Type
REMARK                         _______ _______ _______ _____ _____    ______ ____
ROOT
ATOM      1  S1  UNL     1       4.325  -1.106 -30.319  0.00  0.00    -0.094 S 
ENDROOT
BRANCH   1  10
ATOM      2  C1  UNL     1       6.685   0.193 -30.535  0.00  0.00    +0.099 A 
ATOM      3  C2  UNL     1       7.146   0.098 -29.243  0.00  0.00    +0.060 A 
ATOM      4  C3  UNL     1       8.419   0.734 -29.246  0.00  0.00    +0.094 A 
ATOM      5  N1  UNL     1       8.711   1.189 -30.477  0.00  0.00    -0.166 NA
ATOM      6  N2  UNL     1       7.651   0.865 -31.246  0.00  0.00    -0.235 N 
ATOM      7  C11 UNL     1       7.458   1.119 -32.594  0.00  0.00    +0.132 A 
ATOM      8  C12 UNL     1       6.325   0.703 -33.178  0.00  0.00    +0.132 A 
ATOM      9  N3  UNL     1       5.317   0.032 -32.510  0.00  0.00    -0.245 NA
ATOM     10  C13 UNL     1       5.508  -0.223 -31.245  0.00  0.00    +0.123 A 
BRANCH   4  11
ATOM     11  C4  UNL     1       9.350   0.908 -28.123  0.00  0.00    +0.002 A 
ATOM     12  C5  UNL     1       8.884   1.349 -26.875  0.00  0.00    +0.010 A 
ATOM     13  C6  UNL     1       9.760   1.521 -25.798  0.00  0.00    +0.004 A 
ATOM     14  C7  UNL     1      11.122   1.244 -25.942  0.00  0.00    -0.050 A 
ATOM     15  C8  UNL     1      12.068   1.449 -24.796  0.00  0.00    +0.044 C 
ATOM     16  C9  UNL     1      11.597   0.818 -27.186  0.00  0.00    +0.004 A 
ATOM     17  C10 UNL     1      10.720   0.646 -28.265  0.00  0.00    +0.010 A 
ENDBRANCH   4  11
ENDBRANCH   1  10
BRANCH   1  18
ATOM     18  C14 UNL     1       4.753  -2.816 -30.744  0.00  0.00    +0.172 C 
BRANCH  18  19
ATOM     19  C15 UNL     1       5.697  -3.404 -29.709  0.00  0.00    +0.227 C 
ATOM     20  O1  UNL     1       6.559  -4.214 -30.050  0.00  0.00    -0.275 OA
ATOM     21  N4  UNL     1       5.480  -2.953 -28.418  0.00  0.00    -0.284 N 
ATOM     22  H13 UNL     1       4.814  -2.184 -28.307  0.00  0.00    +0.155 HD
BRANCH  21  23
ATOM     23  C16 UNL     1       6.163  -3.358 -27.240  0.00  0.00    +0.052 A 
ATOM     24  C17 UNL     1       5.718  -4.496 -26.544  0.00  0.00    +0.062 A 
ATOM     25 CL1  UNL     1       4.353  -5.410 -27.079  0.00  0.00    -0.082 Cl
ATOM     26  C18 UNL     1       6.364  -4.930 -25.383  0.00  0.00    +0.022 A 
ATOM     27  C19 UNL     1       7.472  -4.237 -24.897  0.00  0.00    +0.014 A 
ATOM     28  C20 UNL     1       7.949  -3.111 -25.577  0.00  0.00    +0.057 A 
ATOM     29  C22 UNL     1       7.283  -2.680 -26.741  0.00  0.00    +0.037 A 
BRANCH  28  30
ATOM     30  C21 UNL     1       9.146  -2.343 -25.064  0.00  0.00    +0.417 C 
ATOM     31  F1  UNL     1       9.858  -1.760 -26.067  0.00  0.00    -0.166 F 
ATOM     32  F2  UNL     1      10.022  -3.126 -24.378  0.00  0.00    -0.166 F 
ATOM     33  F3  UNL     1       8.807  -1.334 -24.211  0.00  0.00    -0.166 F 
ENDBRANCH  28  30
ENDBRANCH  21  23
ENDBRANCH  18  19
ENDBRANCH   1  18
TORSDOF 6
ENDMDL
MODEL 3
REMARK VINA RESULT:    -6.659     14.189     16.330
REMARK INTER + INTRA:         -11.477
REMARK INTER:                 -10.080
REMARK INTRA:                  -1.397
REMARK UNBOUND:                -2.483
REMARK  Name = /home/vital/Documents/PhD_2021/Malaria_codes/data/pdb_ligands_mmv/ligand_2.pdb
REMARK  7 active torsions:
REMARK  status: ('A' for Active; 'I' for Inactive)
REMARK    1  A    between atoms: C3_3  and  C4_4
REMARK    2  A    between atoms: C7_7  and  C8_8
REMARK    3  A    between atoms: C13_16  and  S1_17
REMARK    4  A    between atoms: S1_17  and  C14_18
REMARK    5  A    between atoms: C14_18  and  C15_19
REMARK    6  A    between atoms: N4_21  and  C16_22
REMARK    7  A    between atoms: C20_27  and  C21_28
REMARK                            x       y       z     vdW  Elec       q    Type
REMARK                         _______ _______ _______ _____ _____    ______ ____
ROOT
ATOM      1  S1  UNL     1       3.140  -3.835 -32.230  0.00  0.00    -0.094 S 
ENDROOT
BRANCH   1  10
ATOM      2  C1  UNL     1       1.850  -5.890 -31.039  0.00  0.00    +0.099 A 
ATOM      3  C2  UNL     1       1.629  -5.361 -29.789  0.00  0.00    +0.060 A 
ATOM      4  C3  UNL     1       0.917  -6.363 -29.073  0.00  0.00    +0.094 A 
ATOM      5  N1  UNL     1       0.719  -7.441 -29.850  0.00  0.00    -0.166 NA
ATOM      6  N2  UNL     1       1.295  -7.148 -31.034  0.00  0.00    -0.235 N 
ATOM      7  C11 UNL     1       1.371  -7.935 -32.172  0.00  0.00    +0.132 A 
ATOM      8  C12 UNL     1       1.989  -7.450 -33.258  0.00  0.00    +0.132 A 
ATOM      9  N3  UNL     1       2.572  -6.196 -33.315  0.00  0.00    -0.245 NA
ATOM     10  C13 UNL     1       2.484  -5.449 -32.251  0.00  0.00    +0.123 A 
BRANCH   4  11
ATOM     11  C4  UNL     1       0.424  -6.314 -27.690  0.00  0.00    +0.002 A 
ATOM     12  C5  UNL     1      -0.918  -6.000 -27.425  0.00  0.00    +0.010 A 
ATOM     13  C6  UNL     1      -1.402  -5.947 -26.113  0.00  0.00    +0.004 A 
ATOM     14  C7  UNL     1      -0.554  -6.220 -25.035  0.00  0.00    -0.050 A 
ATOM     15  C8  UNL     1      -1.063  -6.142 -23.626  0.00  0.00    +0.044 C 
ATOM     16  C9  UNL     1       0.787  -6.519 -25.290  0.00  0.00    +0.004 A 
ATOM     17  C10 UNL     1       1.271  -6.572 -26.603  0.00  0.00    +0.010 A 
ENDBRANCH   4  11
ENDBRANCH   1  10
BRANCH   1  18
ATOM     18  C14 UNL     1       4.881  -4.158 -32.616  0.00  0.00    +0.172 C 
BRANCH  18  19
ATOM     19  C15 UNL     1       5.751  -3.938 -31.391  0.00  0.00    +0.227 C 
ATOM     20  O1  UNL     1       6.958  -4.172 -31.440  0.00  0.00    -0.275 OA
ATOM     21  N4  UNL     1       5.065  -3.478 -30.280  0.00  0.00    -0.284 N 
ATOM     22  H13 UNL     1       4.089  -3.206 -30.423  0.00  0.00    +0.155 HD
BRANCH  21  23
ATOM     23  C16 UNL     1       5.593  -3.231 -28.985  0.00  0.00    +0.052 A 
ATOM     24  C17 UNL     1       5.982  -1.924 -28.638  0.00  0.00    +0.062 A 
ATOM     25 CL1  UNL     1       5.844  -0.611 -29.753  0.00  0.00    -0.082 Cl
ATOM     26  C18 UNL     1       6.504  -1.638 -27.373  0.00  0.00    +0.022 A 
ATOM     27  C19 UNL     1       6.642  -2.652 -26.427  0.00  0.00    +0.014 A 
ATOM     28  C20 UNL     1       6.247  -3.958 -26.736  0.00  0.00    +0.057 A 
ATOM     29  C22 UNL     1       5.731  -4.235 -28.017  0.00  0.00    +0.037 A 
BRANCH  28  30
ATOM     30  C21 UNL     1       6.394  -5.073 -25.725  0.00  0.00    +0.417 C 
ATOM     31  F1  UNL     1       6.792  -6.243 -26.295  0.00  0.00    -0.166 F 
ATOM     32  F2  UNL     1       5.234  -5.345 -25.066  0.00  0.00    -0.166 F 
ATOM     33  F3  UNL     1       7.313  -4.798 -24.755  0.00  0.00    -0.166 F 
ENDBRANCH  28  30
ENDBRANCH  21  23
ENDBRANCH  18  19
ENDBRANCH   1  18
TORSDOF 6
ENDMDL
MODEL 4
REMARK VINA RESULT:    -6.579      5.410      7.670
REMARK INTER + INTRA:         -11.369
REMARK INTER:                  -9.696
REMARK INTRA:                  -1.673
REMARK UNBOUND:                -2.483
REMARK  Name = /home/vital/Documents/PhD_2021/Malaria_codes/data/pdb_ligands_mmv/ligand_2.pdb
REMARK  7 active torsions:
REMARK  status: ('A' for Active; 'I' for Inactive)
REMARK    1  A    between atoms: C3_3  and  C4_4
REMARK    2  A    between atoms: C7_7  and  C8_8
REMARK    3  A    between atoms: C13_16  and  S1_17
REMARK    4  A    between atoms: S1_17  and  C14_18
REMARK    5  A    between atoms: C14_18  and  C15_19
REMARK    6  A    between atoms: N4_21  and  C16_22
REMARK    7  A    between atoms: C20_27  and  C21_28
REMARK                            x       y       z     vdW  Elec       q    Type
REMARK                         _______ _______ _______ _____ _____    ______ ____
ROOT
ATOM      1  S1  UNL     1       0.178   5.297 -18.619  0.00  0.00    -0.094 S 
ENDROOT
BRANCH   1  10
ATOM      2  C1  UNL     1       1.255   3.318 -17.127  0.00  0.00    +0.099 A 
ATOM      3  C2  UNL     1       1.364   2.321 -18.068  0.00  0.00    +0.060 A 
ATOM      4  C3  UNL     1       1.957   1.220 -17.389  0.00  0.00    +0.094 A 
ATOM      5  N1  UNL     1       2.194   1.536 -16.104  0.00  0.00    -0.166 NA
ATOM      6  N2  UNL     1       1.757   2.804 -15.954  0.00  0.00    -0.235 N 
ATOM      7  C11 UNL     1       1.770   3.588 -14.813  0.00  0.00    +0.132 A 
ATOM      8  C12 UNL     1       1.289   4.838 -14.877  0.00  0.00    +0.132 A 
ATOM      9  N3  UNL     1       0.764   5.402 -16.026  0.00  0.00    -0.245 NA
ATOM     10  C13 UNL     1       0.769   4.669 -17.105  0.00  0.00    +0.123 A 
BRANCH   4  11
ATOM     11  C4  UNL     1       2.303  -0.101 -17.930  0.00  0.00    +0.002 A 
ATOM     12  C5  UNL     1       3.567  -0.328 -18.495  0.00  0.00    +0.010 A 
ATOM     13  C6  UNL     1       3.911  -1.581 -19.017  0.00  0.00    +0.004 A 
ATOM     14  C7  UNL     1       3.000  -2.639 -18.971  0.00  0.00    -0.050 A 
ATOM     15  C8  UNL     1       3.356  -3.977 -19.549  0.00  0.00    +0.044 C 
ATOM     16  C9  UNL     1       1.733  -2.418 -18.423  0.00  0.00    +0.004 A 
ATOM     17  C10 UNL     1       1.390  -1.164 -17.902  0.00  0.00    +0.010 A 
ENDBRANCH   4  11
ENDBRANCH   1  10
BRANCH   1  18
ATOM     18  C14 UNL     1      -1.564   5.598 -18.218  0.00  0.00    +0.172 C 
BRANCH  18  19
ATOM     19  C15 UNL     1      -2.445   4.511 -18.808  0.00  0.00    +0.227 C 
ATOM     20  O1  UNL     1      -3.660   4.527 -18.614  0.00  0.00    -0.275 OA
ATOM     21  N4  UNL     1      -1.760   3.557 -19.541  0.00  0.00    -0.284 N 
ATOM     22  H13 UNL     1      -0.771   3.744 -19.726  0.00  0.00    +0.155 HD
BRANCH  21  23
ATOM     23  C16 UNL     1      -2.299   2.401 -20.165  0.00  0.00    +0.052 A 
ATOM     24  C17 UNL     1      -2.745   2.483 -21.497  0.00  0.00    +0.062 A 
ATOM     25 CL1  UNL     1      -2.663   3.959 -22.392  0.00  0.00    -0.082 Cl
ATOM     26  C18 UNL     1      -3.280   1.368 -22.148  0.00  0.00    +0.022 A 
ATOM     27  C19 UNL     1      -3.375   0.146 -21.483  0.00  0.00    +0.014 A 
ATOM     28  C20 UNL     1      -2.924   0.029 -20.164  0.00  0.00    +0.057 A 
ATOM     29  C22 UNL     1      -2.395   1.163 -19.516  0.00  0.00    +0.037 A 
BRANCH  28  30
ATOM     30  C21 UNL     1      -3.022  -1.286 -19.423  0.00  0.00    +0.417 C 
ATOM     31  F1  UNL     1      -2.703  -2.350 -20.209  0.00  0.00    -0.166 F 
ATOM     32  F2  UNL     1      -4.271  -1.528 -18.940  0.00  0.00    -0.166 F 
ATOM     33  F3  UNL     1      -2.189  -1.354 -18.345  0.00  0.00    -0.166 F 
ENDBRANCH  28  30
ENDBRANCH  21  23
ENDBRANCH  18  19
ENDBRANCH   1  18
TORSDOF 6
ENDMDL
MODEL 5
REMARK VINA RESULT:    -6.554      6.747      9.770
REMARK INTER + INTRA:         -11.335
REMARK INTER:                  -8.920
REMARK INTRA:                  -2.415
REMARK UNBOUND:                -2.483
REMARK  Name = /home/vital/Documents/PhD_2021/Malaria_codes/data/pdb_ligands_mmv/ligand_2.pdb
REMARK  7 active torsions:
REMARK  status: ('A' for Active; 'I' for Inactive)
REMARK    1  A    between atoms: C3_3  and  C4_4
REMARK    2  A    between atoms: C7_7  and  C8_8
REMARK    3  A    between atoms: C13_16  and  S1_17
REMARK    4  A    between atoms: S1_17  and  C14_18
REMARK    5  A    between atoms: C14_18  and  C15_19
REMARK    6  A    between atoms: N4_21  and  C16_22
REMARK    7  A    between atoms: C20_27  and  C21_28
REMARK                            x       y       z     vdW  Elec       q    Type
REMARK                         _______ _______ _______ _____ _____    ______ ____
ROOT
ATOM      1  S1  UNL     1       1.304   2.169 -18.305  0.00  0.00    -0.094 S 
ENDROOT
BRANCH   1  10
ATOM      2  C1  UNL     1      -1.122   2.831 -19.297  0.00  0.00    +0.099 A 
ATOM      3  C2  UNL     1      -1.582   1.594 -19.686  0.00  0.00    +0.060 A 
ATOM      4  C3  UNL     1      -2.887   1.822 -20.206  0.00  0.00    +0.094 A 
ATOM      5  N1  UNL     1      -3.198   3.127 -20.135  0.00  0.00    -0.166 NA
ATOM      6  N2  UNL     1      -2.119   3.729 -19.592  0.00  0.00    -0.235 N 
ATOM      7  C11 UNL     1      -1.934   5.074 -19.315  0.00  0.00    +0.132 A 
ATOM      8  C12 UNL     1      -0.778   5.471 -18.764  0.00  0.00    +0.132 A 
ATOM      9  N3  UNL     1       0.262   4.612 -18.456  0.00  0.00    -0.245 NA
ATOM     10  C13 UNL     1       0.079   3.344 -18.700  0.00  0.00    +0.123 A 
BRANCH   4  11
ATOM     11  C4  UNL     1      -3.831   0.838 -20.753  0.00  0.00    +0.002 A 
ATOM     12  C5  UNL     1      -4.245   0.918 -22.092  0.00  0.00    +0.010 A 
ATOM     13  C6  UNL     1      -5.146  -0.011 -22.625  0.00  0.00    +0.004 A 
ATOM     14  C7  UNL     1      -5.643  -1.049 -21.834  0.00  0.00    -0.050 A 
ATOM     15  C8  UNL     1      -6.626  -2.033 -22.395  0.00  0.00    +0.044 C 
ATOM     16  C9  UNL     1      -5.248  -1.128 -20.495  0.00  0.00    +0.004 A 
ATOM     17  C10 UNL     1      -4.346  -0.198 -19.961  0.00  0.00    +0.010 A 
ENDBRANCH   4  11
ENDBRANCH   1  10
BRANCH   1  18
ATOM     18  C14 UNL     1       2.227   2.087 -19.863  0.00  0.00    +0.172 C 
BRANCH  18  19
ATOM     19  C15 UNL     1       1.946   0.779 -20.583  0.00  0.00    +0.227 C 
ATOM     20  O1  UNL     1       2.246   0.651 -21.770  0.00  0.00    -0.275 OA
ATOM     21  N4  UNL     1       1.346  -0.188 -19.795  0.00  0.00    -0.284 N 
ATOM     22  H13 UNL     1       1.275   0.014 -18.794  0.00  0.00    +0.155 HD
BRANCH  21  23
ATOM     23  C16 UNL     1       0.920  -1.482 -20.197  0.00  0.00    +0.052 A 
ATOM     24  C17 UNL     1       1.786  -2.577 -20.024  0.00  0.00    +0.062 A 
ATOM     25 CL1  UNL     1       3.362  -2.387 -19.343  0.00  0.00    -0.082 Cl
ATOM     26  C18 UNL     1       1.403  -3.866 -20.405  0.00  0.00    +0.022 A 
ATOM     27  C19 UNL     1       0.145  -4.088 -20.961  0.00  0.00    +0.014 A 
ATOM     28  C20 UNL     1      -0.746  -3.022 -21.130  0.00  0.00    +0.057 A 
ATOM     29  C22 UNL     1      -0.344  -1.726 -20.751  0.00  0.00    +0.037 A 
BRANCH  28  30
ATOM     30  C21 UNL     1      -2.114  -3.241 -21.736  0.00  0.00    +0.417 C 
ATOM     31  F1  UNL     1      -3.049  -3.569 -20.804  0.00  0.00    -0.166 F 
ATOM     32  F2  UNL     1      -2.129  -4.240 -22.660  0.00  0.00    -0.166 F 
ATOM     33  F3  UNL     1      -2.596  -2.137 -22.378  0.00  0.00    -0.166 F 
ENDBRANCH  28  30
ENDBRANCH  21  23
ENDBRANCH  18  19
ENDBRANCH   1  18
TORSDOF 6
ENDMDL
MODEL 6
REMARK VINA RESULT:    -6.388      7.016     11.049
REMARK INTER + INTRA:         -11.112
REMARK INTER:                  -8.675
REMARK INTRA:                  -2.437
REMARK UNBOUND:                -2.483
REMARK  Name = /home/vital/Documents/PhD_2021/Malaria_codes/data/pdb_ligands_mmv/ligand_2.pdb
REMARK  7 active torsions:
REMARK  status: ('A' for Active; 'I' for Inactive)
REMARK    1  A    between atoms: C3_3  and  C4_4
REMARK    2  A    between atoms: C7_7  and  C8_8
REMARK    3  A    between atoms: C13_16  and  S1_17
REMARK    4  A    between atoms: S1_17  and  C14_18
REMARK    5  A    between atoms: C14_18  and  C15_19
REMARK    6  A    between atoms: N4_21  and  C16_22
REMARK    7  A    between atoms: C20_27  and  C21_28
REMARK                            x       y       z     vdW  Elec       q    Type
REMARK                         _______ _______ _______ _____ _____    ______ ____
ROOT
ATOM      1  S1  UNL     1      -1.096   4.356 -22.437  0.00  0.00    -0.094 S 
ENDROOT
BRANCH   1  10
ATOM      2  C1  UNL     1      -3.636   5.085 -23.004  0.00  0.00    +0.099 A 
ATOM      3  C2  UNL     1      -4.119   3.918 -23.551  0.00  0.00    +0.060 A 
ATOM      4  C3  UNL     1      -5.481   4.182 -23.866  0.00  0.00    +0.094 A 
ATOM      5  N1  UNL     1      -5.804   5.441 -23.526  0.00  0.00    -0.166 NA
ATOM      6  N2  UNL     1      -4.679   5.981 -23.015  0.00  0.00    -0.235 N 
ATOM      7  C11 UNL     1      -4.485   7.263 -22.526  0.00  0.00    +0.132 A 
ATOM      8  C12 UNL     1      -3.278   7.602 -22.052  0.00  0.00    +0.132 A 
ATOM      9  N3  UNL     1      -2.193   6.745 -22.026  0.00  0.00    -0.245 NA
ATOM     10  C13 UNL     1      -2.381   5.533 -22.469  0.00  0.00    +0.123 A 
BRANCH   4  11
ATOM     11  C4  UNL     1      -6.467   3.272 -24.465  0.00  0.00    +0.002 A 
ATOM     12  C5  UNL     1      -6.091   2.394 -25.493  0.00  0.00    +0.010 A 
ATOM     13  C6  UNL     1      -7.020   1.524 -26.075  0.00  0.00    +0.004 A 
ATOM     14  C7  UNL     1      -8.345   1.505 -25.631  0.00  0.00    -0.050 A 
ATOM     15  C8  UNL     1      -9.349   0.590 -26.267  0.00  0.00    +0.044 C 
ATOM     16  C9  UNL     1      -8.731   2.386 -24.617  0.00  0.00    +0.004 A 
ATOM     17  C10 UNL     1      -7.802   3.257 -24.035  0.00  0.00    +0.010 A 
ENDBRANCH   4  11
ENDBRANCH   1  10
BRANCH   1  18
ATOM     18  C14 UNL     1      -1.113   3.867 -20.691  0.00  0.00    +0.172 C 
BRANCH  18  19
ATOM     19  C15 UNL     1      -2.208   2.846 -20.432  0.00  0.00    +0.227 C 
ATOM     20  O1  UNL     1      -3.046   3.048 -19.554  0.00  0.00    -0.275 OA
ATOM     21  N4  UNL     1      -2.149   1.728 -21.247  0.00  0.00    -0.284 N 
ATOM     22  H13 UNL     1      -1.476   1.757 -22.017  0.00  0.00    +0.155 HD
BRANCH  21  23
ATOM     23  C16 UNL     1      -2.997   0.590 -21.207  0.00  0.00    +0.052 A 
ATOM     24  C17 UNL     1      -2.734  -0.432 -20.276  0.00  0.00    +0.062 A 
ATOM     25 CL1  UNL     1      -1.397  -0.342 -19.185  0.00  0.00    -0.082 Cl
ATOM     26  C18 UNL     1      -3.546  -1.567 -20.202  0.00  0.00    +0.022 A 
ATOM     27  C19 UNL     1      -4.641  -1.702 -21.053  0.00  0.00    +0.014 A 
ATOM     28  C20 UNL     1      -4.939  -0.695 -21.978  0.00  0.00    +0.057 A 
ATOM     29  C22 UNL     1      -4.107   0.440 -22.048  0.00  0.00    +0.037 A 
BRANCH  28  30
ATOM     30  C21 UNL     1      -6.119  -0.824 -22.915  0.00  0.00    +0.417 C 
ATOM     31  F1  UNL     1      -6.937  -1.860 -22.580  0.00  0.00    -0.166 F 
ATOM     32  F2  UNL     1      -5.749  -1.032 -24.207  0.00  0.00    -0.166 F 
ATOM     33  F3  UNL     1      -6.911   0.286 -22.932  0.00  0.00    -0.166 F 
ENDBRANCH  28  30
ENDBRANCH  21  23
ENDBRANCH  18  19
ENDBRANCH   1  18
TORSDOF 6
ENDMDL
MODEL 7
REMARK VINA RESULT:    -6.330     13.362     14.473
REMARK INTER + INTRA:         -11.033
REMARK INTER:                  -8.556
REMARK INTRA:                  -2.478
REMARK UNBOUND:                -2.483
REMARK  Name = /home/vital/Documents/PhD_2021/Malaria_codes/data/pdb_ligands_mmv/ligand_2.pdb
REMARK  7 active torsions:
REMARK  status: ('A' for Active; 'I' for Inactive)
REMARK    1  A    between atoms: C3_3  and  C4_4
REMARK    2  A    between atoms: C7_7  and  C8_8
REMARK    3  A    between atoms: C13_16  and  S1_17
REMARK    4  A    between atoms: S1_17  and  C14_18
REMARK    5  A    between atoms: C14_18  and  C15_19
REMARK    6  A    between atoms: N4_21  and  C16_22
REMARK    7  A    between atoms: C20_27  and  C21_28
REMARK                            x       y       z     vdW  Elec       q    Type
REMARK                         _______ _______ _______ _____ _____    ______ ____
ROOT
ATOM      1  S1  UNL     1       6.010   2.155 -29.818  0.00  0.00    -0.094 S 
ENDROOT
BRANCH   1  10
ATOM      2  C1  UNL     1       5.816  -0.540 -29.900  0.00  0.00    +0.099 A 
ATOM      3  C2  UNL     1       6.043  -0.851 -28.579  0.00  0.00    +0.060 A 
ATOM      4  C3  UNL     1       5.934  -2.267 -28.498  0.00  0.00    +0.094 A 
ATOM      5  N1  UNL     1       5.654  -2.784 -29.708  0.00  0.00    -0.166 NA
ATOM      6  N2  UNL     1       5.595  -1.731 -30.549  0.00  0.00    -0.235 N 
ATOM      7  C11 UNL     1       5.342  -1.732 -31.911  0.00  0.00    +0.132 A 
ATOM      8  C12 UNL     1       5.321  -0.565 -32.570  0.00  0.00    +0.132 A 
ATOM      9  N3  UNL     1       5.545   0.661 -31.969  0.00  0.00    -0.245 NA
ATOM     10  C13 UNL     1       5.765   0.663 -30.684  0.00  0.00    +0.123 A 
BRANCH   4  11
ATOM     11  C4  UNL     1       6.079  -3.123 -27.314  0.00  0.00    +0.002 A 
ATOM     12  C5  UNL     1       7.045  -4.141 -27.287  0.00  0.00    +0.010 A 
ATOM     13  C6  UNL     1       7.193  -4.966 -26.166  0.00  0.00    +0.004 A 
ATOM     14  C7  UNL     1       6.385  -4.782 -25.041  0.00  0.00    -0.050 A 
ATOM     15  C8  UNL     1       6.525  -5.679 -23.846  0.00  0.00    +0.044 C 
ATOM     16  C9  UNL     1       5.411  -3.780 -25.065  0.00  0.00    +0.004 A 
ATOM     17  C10 UNL     1       5.262  -2.955 -26.187  0.00  0.00    +0.010 A 
ENDBRANCH   4  11
ENDBRANCH   1  10
BRANCH   1  18
ATOM     18  C14 UNL     1       7.730   2.533 -30.250  0.00  0.00    +0.172 C 
BRANCH  18  19
ATOM     19  C15 UNL     1       8.682   1.594 -29.530  0.00  0.00    +0.227 C 
ATOM     20  O1  UNL     1       9.266   0.709 -30.154  0.00  0.00    -0.275 OA
ATOM     21  N4  UNL     1       8.801   1.835 -28.172  0.00  0.00    -0.284 N 
ATOM     22  H13 UNL     1       8.355   2.684 -27.816  0.00  0.00    +0.155 HD
BRANCH  21  23
ATOM     23  C16 UNL     1       9.569   1.097 -27.232  0.00  0.00    +0.052 A 
ATOM     24  C17 UNL     1      10.924   1.424 -27.043  0.00  0.00    +0.062 A 
ATOM     25 CL1  UNL     1      11.683   2.695 -27.934  0.00  0.00    -0.082 Cl
ATOM     26  C18 UNL     1      11.714   0.724 -26.126  0.00  0.00    +0.022 A 
ATOM     27  C19 UNL     1      11.163  -0.313 -25.375  0.00  0.00    +0.014 A 
ATOM     28  C20 UNL     1       9.814  -0.650 -25.528  0.00  0.00    +0.057 A 
ATOM     29  C22 UNL     1       9.031   0.057 -26.462  0.00  0.00    +0.037 A 
BRANCH  28  30
ATOM     30  C21 UNL     1       9.199  -1.775 -24.727  0.00  0.00    +0.417 C 
ATOM     31  F1  UNL     1       9.622  -1.784 -23.433  0.00  0.00    -0.166 F 
ATOM     32  F2  UNL     1       9.489  -3.005 -25.232  0.00  0.00    -0.166 F 
ATOM     33  F3  UNL     1       7.837  -1.710 -24.674  0.00  0.00    -0.166 F 
ENDBRANCH  28  30
ENDBRANCH  21  23
ENDBRANCH  18  19
ENDBRANCH   1  18
TORSDOF 6
ENDMDL
MODEL 8
REMARK VINA RESULT:    -6.303      1.712      2.502
REMARK INTER + INTRA:         -10.997
REMARK INTER:                  -8.403
REMARK INTRA:                  -2.594
REMARK UNBOUND:                -2.483
REMARK  Name = /home/vital/Documents/PhD_2021/Malaria_codes/data/pdb_ligands_mmv/ligand_2.pdb
REMARK  7 active torsions:
REMARK  status: ('A' for Active; 'I' for Inactive)
REMARK    1  A    between atoms: C3_3  and  C4_4
REMARK    2  A    between atoms: C7_7  and  C8_8
REMARK    3  A    between atoms: C13_16  and  S1_17
REMARK    4  A    between atoms: S1_17  and  C14_18
REMARK    5  A    between atoms: C14_18  and  C15_19
REMARK    6  A    between atoms: N4_21  and  C16_22
REMARK    7  A    between atoms: C20_27  and  C21_28
REMARK                            x       y       z     vdW  Elec       q    Type
REMARK                         _______ _______ _______ _____ _____    ______ ____
ROOT
ATOM      1  S1  UNL     1       0.326   3.745 -23.058  0.00  0.00    -0.094 S 
ENDROOT
BRANCH   1  10
ATOM      2  C1  UNL     1      -0.754   4.669 -20.759  0.00  0.00    +0.099 A 
ATOM      3  C2  UNL     1       0.243   4.354 -19.865  0.00  0.00    +0.060 A 
ATOM      4  C3  UNL     1      -0.213   4.830 -18.604  0.00  0.00    +0.094 A 
ATOM      5  N1  UNL     1      -1.423   5.402 -18.730  0.00  0.00    -0.166 NA
ATOM      6  N2  UNL     1      -1.745   5.290 -20.035  0.00  0.00    -0.235 N 
ATOM      7  C11 UNL     1      -2.895   5.719 -20.677  0.00  0.00    +0.132 A 
ATOM      8  C12 UNL     1      -3.019   5.515 -21.996  0.00  0.00    +0.132 A 
ATOM      9  N3  UNL     1      -2.059   4.887 -22.770  0.00  0.00    -0.245 NA
ATOM     10  C13 UNL     1      -0.969   4.501 -22.169  0.00  0.00    +0.123 A 
BRANCH   4  11
ATOM     11  C4  UNL     1       0.470   4.760 -17.306  0.00  0.00    +0.002 A 
ATOM     12  C5  UNL     1      -0.177   5.193 -16.138  0.00  0.00    +0.010 A 
ATOM     13  C6  UNL     1       0.463   5.134 -14.895  0.00  0.00    +0.004 A 
ATOM     14  C7  UNL     1       1.761   4.628 -14.790  0.00  0.00    -0.050 A 
ATOM     15  C8  UNL     1       2.458   4.584 -13.463  0.00  0.00    +0.044 C 
ATOM     16  C9  UNL     1       2.418   4.207 -15.950  0.00  0.00    +0.004 A 
ATOM     17  C10 UNL     1       1.778   4.267 -17.195  0.00  0.00    +0.010 A 
ENDBRANCH   4  11
ENDBRANCH   1  10
BRANCH   1  18
ATOM     18  C14 UNL     1       1.158   5.192 -23.765  0.00  0.00    +0.172 C 
BRANCH  18  19
ATOM     19  C15 UNL     1       2.043   5.861 -22.727  0.00  0.00    +0.227 C 
ATOM     20  O1  UNL     1       3.092   5.325 -22.372  0.00  0.00    -0.275 OA
ATOM     21  N4  UNL     1       1.555   7.068 -22.255  0.00  0.00    -0.284 N 
ATOM     22  H13 UNL     1       0.737   7.452 -22.736  0.00  0.00    +0.155 HD
BRANCH  21  23
ATOM     23  C16 UNL     1       2.129   7.894 -21.252  0.00  0.00    +0.052 A 
ATOM     24  C17 UNL     1       3.018   8.916 -21.628  0.00  0.00    +0.062 A 
ATOM     25 CL1  UNL     1       3.440   9.188 -23.282  0.00  0.00    -0.082 Cl
ATOM     26  C18 UNL     1       3.602   9.752 -20.672  0.00  0.00    +0.022 A 
ATOM     27  C19 UNL     1       3.304   9.587 -19.321  0.00  0.00    +0.014 A 
ATOM     28  C20 UNL     1       2.410   8.589 -18.917  0.00  0.00    +0.057 A 
ATOM     29  C22 UNL     1       1.835   7.748 -19.889  0.00  0.00    +0.037 A 
BRANCH  28  30
ATOM     30  C21 UNL     1       2.077   8.390 -17.455  0.00  0.00    +0.417 C 
ATOM     31  F1  UNL     1       2.899   7.487 -16.853  0.00  0.00    -0.166 F 
ATOM     32  F2  UNL     1       0.807   7.942 -17.258  0.00  0.00    -0.166 F 
ATOM     33  F3  UNL     1       2.182   9.536 -16.723  0.00  0.00    -0.166 F 
ENDBRANCH  28  30
ENDBRANCH  21  23
ENDBRANCH  18  19
ENDBRANCH   1  18
TORSDOF 6
ENDMDL
MODEL 9
REMARK VINA RESULT:    -6.187     10.630     12.742
REMARK INTER + INTRA:         -10.841
REMARK INTER:                  -8.685
REMARK INTRA:                  -2.156
REMARK UNBOUND:                -2.483
REMARK  Name = /home/vital/Documents/PhD_2021/Malaria_codes/data/pdb_ligands_mmv/ligand_2.pdb
REMARK  7 active torsions:
REMARK  status: ('A' for Active; 'I' for Inactive)
REMARK    1  A    between atoms: C3_3  and  C4_4
REMARK    2  A    between atoms: C7_7  and  C8_8
REMARK    3  A    between atoms: C13_16  and  S1_17
REMARK    4  A    between atoms: S1_17  and  C14_18
REMARK    5  A    between atoms: C14_18  and  C15_19
REMARK    6  A    between atoms: N4_21  and  C16_22
REMARK    7  A    between atoms: C20_27  and  C21_28
REMARK                            x       y       z     vdW  Elec       q    Type
REMARK                         _______ _______ _______ _____ _____    ______ ____
ROOT
ATOM      1  S1  UNL     1      -1.391  -3.331 -24.637  0.00  0.00    -0.094 S 
ENDROOT
BRANCH   1  10
ATOM      2  C1  UNL     1       0.712  -4.677 -25.671  0.00  0.00    +0.099 A 
ATOM      3  C2  UNL     1       1.756  -4.035 -25.047  0.00  0.00    +0.060 A 
ATOM      4  C3  UNL     1       2.933  -4.692 -25.503  0.00  0.00    +0.094 A 
ATOM      5  N1  UNL     1       2.616  -5.679 -26.358  0.00  0.00    -0.166 NA
ATOM      6  N2  UNL     1       1.271  -5.655 -26.459  0.00  0.00    -0.235 N 
ATOM      7  C11 UNL     1       0.452  -6.470 -27.223  0.00  0.00    +0.132 A 
ATOM      8  C12 UNL     1      -0.875  -6.284 -27.178  0.00  0.00    +0.132 A 
ATOM      9  N3  UNL     1      -1.489  -5.310 -26.411  0.00  0.00    -0.245 NA
ATOM     10  C13 UNL     1      -0.719  -4.556 -25.679  0.00  0.00    +0.123 A 
BRANCH   4  11
ATOM     11  C4  UNL     1       4.329  -4.409 -25.142  0.00  0.00    +0.002 A 
ATOM     12  C5  UNL     1       4.627  -3.579 -24.051  0.00  0.00    +0.010 A 
ATOM     13  C6  UNL     1       5.952  -3.299 -23.697  0.00  0.00    +0.004 A 
ATOM     14  C7  UNL     1       7.009  -3.855 -24.421  0.00  0.00    -0.050 A 
ATOM     15  C8  UNL     1       8.431  -3.539 -24.060  0.00  0.00    +0.044 C 
ATOM     16  C9  UNL     1       6.722  -4.672 -25.519  0.00  0.00    +0.004 A 
ATOM     17  C10 UNL     1       5.396  -4.951 -25.873  0.00  0.00    +0.010 A 
ENDBRANCH   4  11
ENDBRANCH   1  10
BRANCH   1  18
ATOM     18  C14 UNL     1      -2.066  -4.344 -23.294  0.00  0.00    +0.172 C 
BRANCH  18  19
ATOM     19  C15 UNL     1      -1.108  -4.378 -22.115  0.00  0.00    +0.227 C 
ATOM     20  O1  UNL     1      -1.281  -5.185 -21.203  0.00  0.00    -0.275 OA
ATOM     21  N4  UNL     1      -0.086  -3.446 -22.185  0.00  0.00    -0.284 N 
ATOM     22  H13 UNL     1       0.006  -2.930 -23.063  0.00  0.00    +0.155 HD
BRANCH  21  23
ATOM     23  C16 UNL     1       0.924  -3.205 -21.216  0.00  0.00    +0.052 A 
ATOM     24  C17 UNL     1       0.701  -2.241 -20.215  0.00  0.00    +0.062 A 
ATOM     25 CL1  UNL     1      -0.768  -1.334 -20.141  0.00  0.00    -0.082 Cl
ATOM     26  C18 UNL     1       1.668  -1.976 -19.241  0.00  0.00    +0.022 A 
ATOM     27  C19 UNL     1       2.875  -2.672 -19.245  0.00  0.00    +0.014 A 
ATOM     28  C20 UNL     1       3.119  -3.649 -20.216  0.00  0.00    +0.057 A 
ATOM     29  C22 UNL     1       2.140  -3.901 -21.197  0.00  0.00    +0.037 A 
BRANCH  28  30
ATOM     30  C21 UNL     1       4.424  -4.412 -20.240  0.00  0.00    +0.417 C 
ATOM     31  F1  UNL     1       4.583  -5.205 -19.145  0.00  0.00    -0.166 F 
ATOM     32  F2  UNL     1       5.513  -3.597 -20.283  0.00  0.00    -0.166 F 
ATOM     33  F3  UNL     1       4.540  -5.239 -21.320  0.00  0.00    -0.166 F 
ENDBRANCH  28  30
ENDBRANCH  21  23
ENDBRANCH  18  19
ENDBRANCH   1  18
TORSDOF 6
ENDMDL
