MODEL 1
REMARK VINA RESULT:    -8.238      0.000      0.000
REMARK INTER + INTRA:         -11.483
REMARK INTER:                 -10.646
REMARK INTRA:                  -0.837
REMARK UNBOUND:                -0.837
REMARK  Name = /home/vital/Documents/PhD_2021/Malaria_codes/data/pdb_ligands_mmv/ligand_292.pdb
REMARK  6 active torsions:
REMARK  status: ('A' for Active; 'I' for Inactive)
REMARK    1  A    between atoms: N1_1  and  C1_2
REMARK    2  A    between atoms: C4_5  and  C7_8
REMARK    3  A    between atoms: C10_12  and  C11_13
REMARK    4  A    between atoms: C11_13  and  C12_14
REMARK    5  A    between atoms: C16_19  and  C19_23
REMARK    6  A    between atoms: C22_26  and  N5_27
REMARK                            x       y       z     vdW  Elec       q    Type
REMARK                         _______ _______ _______ _____ _____    ______ ____
ROOT
ATOM      1  C11 UNL     1       5.017  -4.460 -20.561  0.00  0.00    +0.070 C 
ENDROOT
BRANCH   1   6
ATOM      2  C7  UNL     1      -0.626  -2.552 -20.831  0.00  0.00    +0.139 A 
ATOM      3  N2  UNL     1       0.149  -3.469 -21.386  0.00  0.00    -0.228 NA
ATOM      4  C8  UNL     1       1.389  -3.324 -20.818  0.00  0.00    +0.090 A 
ATOM      5  C9  UNL     1       2.574  -4.037 -21.050  0.00  0.00    +0.033 A 
ATOM      6  C10 UNL     1       3.731  -3.703 -20.320  0.00  0.00    -0.041 A 
ATOM      7  C25 UNL     1       3.684  -2.656 -19.384  0.00  0.00    +0.006 A 
ATOM      8  C26 UNL     1       2.510  -1.932 -19.143  0.00  0.00    +0.028 A 
ATOM      9  C27 UNL     1       1.386  -2.301 -19.883  0.00  0.00    +0.066 A 
ATOM     10  N6  UNL     1       0.099  -1.829 -19.910  0.00  0.00    -0.338 N 
ATOM     11  H22 UNL     1      -0.260  -1.083 -19.336  0.00  0.00    +0.167 HD
BRANCH   2  15
ATOM     12  C1  UNL     1      -4.769  -1.929 -21.808  0.00  0.00    +0.025 A 
ATOM     13  C2  UNL     1      -4.267  -1.497 -20.579  0.00  0.00    +0.023 A 
ATOM     14  C3  UNL     1      -2.916  -1.678 -20.250  0.00  0.00    +0.013 A 
ATOM     15  C4  UNL     1      -2.046  -2.336 -21.129  0.00  0.00    +0.017 A 
ATOM     16  C5  UNL     1      -2.572  -2.813 -22.337  0.00  0.00    +0.013 A 
ATOM     17  C6  UNL     1      -3.921  -2.634 -22.661  0.00  0.00    +0.023 A 
BRANCH  12  18
ATOM     18  N1  UNL     1      -6.139  -1.852 -22.077  0.00  0.00    -0.358 N 
ATOM     19  H1  UNL     1      -6.378  -2.060 -23.043  0.00  0.00    +0.142 HD
ATOM     20  H2  UNL     1      -6.577  -0.998 -21.749  0.00  0.00    +0.142 HD
ENDBRANCH  12  18
ENDBRANCH   2  15
ENDBRANCH   1   6
BRANCH   1  21
ATOM     21  C12 UNL     1       5.637  -4.191 -21.914  0.00  0.00    -0.041 A 
ATOM     22  C13 UNL     1       5.472  -5.107 -22.968  0.00  0.00    +0.006 A 
ATOM     23  C14 UNL     1       6.040  -4.893 -24.230  0.00  0.00    +0.028 A 
ATOM     24  C15 UNL     1       6.780  -3.722 -24.391  0.00  0.00    +0.066 A 
ATOM     25  N3  UNL     1       7.464  -3.198 -25.457  0.00  0.00    -0.338 N 
ATOM     26  C16 UNL     1       8.028  -1.998 -25.081  0.00  0.00    +0.139 A 
ATOM     27  N4  UNL     1       7.742  -1.746 -23.815  0.00  0.00    -0.228 NA
ATOM     28  C17 UNL     1       6.973  -2.795 -23.377  0.00  0.00    +0.090 A 
ATOM     29  C18 UNL     1       6.400  -3.026 -22.118  0.00  0.00    +0.033 A 
ATOM     30  H12 UNL     1       7.555  -3.631 -26.361  0.00  0.00    +0.167 HD
BRANCH  26  31
ATOM     31  C19 UNL     1       8.839  -1.152 -25.964  0.00  0.00    +0.017 A 
ATOM     32  C20 UNL     1       8.313  -0.511 -27.093  0.00  0.00    +0.013 A 
ATOM     33  C21 UNL     1       9.129   0.288 -27.905  0.00  0.00    +0.023 A 
ATOM     34  C22 UNL     1      10.472   0.498 -27.588  0.00  0.00    +0.025 A 
ATOM     35  C23 UNL     1      11.012  -0.182 -26.498  0.00  0.00    +0.023 A 
ATOM     36  C24 UNL     1      10.200  -0.978 -25.681  0.00  0.00    +0.013 A 
BRANCH  34  37
ATOM     37  N5  UNL     1      11.305   1.198 -28.470  0.00  0.00    -0.358 N 
ATOM     38  H16 UNL     1      12.191   1.481 -28.063  0.00  0.00    +0.142 HD
ATOM     39  H17 UNL     1      11.422   0.739 -29.368  0.00  0.00    +0.142 HD
ENDBRANCH  34  37
ENDBRANCH  26  31
ENDBRANCH   1  21
TORSDOF 6
ENDMDL
MODEL 2
REMARK VINA RESULT:    -8.139      0.230     11.155
REMARK INTER + INTRA:         -11.355
REMARK INTER:                 -10.506
REMARK INTRA:                  -0.850
REMARK UNBOUND:                -0.837
REMARK  Name = /home/vital/Documents/PhD_2021/Malaria_codes/data/pdb_ligands_mmv/ligand_292.pdb
REMARK  6 active torsions:
REMARK  status: ('A' for Active; 'I' for Inactive)
REMARK    1  A    between atoms: N1_1  and  C1_2
REMARK    2  A    between atoms: C4_5  and  C7_8
REMARK    3  A    between atoms: C10_12  and  C11_13
REMARK    4  A    between atoms: C11_13  and  C12_14
REMARK    5  A    between atoms: C16_19  and  C19_23
REMARK    6  A    between atoms: C22_26  and  N5_27
REMARK                            x       y       z     vdW  Elec       q    Type
REMARK                         _______ _______ _______ _____ _____    ______ ____
ROOT
ATOM      1  C11 UNL     1       5.086  -4.375 -20.642  0.00  0.00    +0.070 C 
ENDROOT
BRANCH   1   6
ATOM      2  C7  UNL     1       8.283  -1.969 -25.065  0.00  0.00    +0.139 A 
ATOM      3  N2  UNL     1       7.956  -1.710 -23.809  0.00  0.00    -0.228 NA
ATOM      4  C8  UNL     1       7.156  -2.745 -23.396  0.00  0.00    +0.090 A 
ATOM      5  C9  UNL     1       6.536  -2.963 -22.157  0.00  0.00    +0.033 A 
ATOM      6  C10 UNL     1       5.765  -4.127 -21.970  0.00  0.00    -0.041 A 
ATOM      7  C25 UNL     1       5.620  -5.041 -23.028  0.00  0.00    +0.006 A 
ATOM      8  C26 UNL     1       6.230  -4.837 -24.271  0.00  0.00    +0.028 A 
ATOM      9  C27 UNL     1       6.990  -3.675 -24.411  0.00  0.00    +0.066 A 
ATOM     10  N6  UNL     1       7.713  -3.161 -25.456  0.00  0.00    -0.338 N 
ATOM     11  H22 UNL     1       7.821  -3.594 -26.358  0.00  0.00    +0.167 HD
BRANCH   2  15
ATOM     12  C1  UNL     1      10.717   0.462 -27.647  0.00  0.00    +0.025 A 
ATOM     13  C2  UNL     1      11.261  -0.084 -26.482  0.00  0.00    +0.023 A 
ATOM     14  C3  UNL     1      10.487  -0.891 -25.636  0.00  0.00    +0.013 A 
ATOM     15  C4  UNL     1       9.136  -1.134 -25.918  0.00  0.00    +0.017 A 
ATOM     16  C5  UNL     1       8.585  -0.538 -27.060  0.00  0.00    +0.013 A 
ATOM     17  C6  UNL     1       9.360   0.269 -27.900  0.00  0.00    +0.023 A 
BRANCH  12  18
ATOM     18  N1  UNL     1      11.461   1.361 -28.419  0.00  0.00    -0.358 N 
ATOM     19  H1  UNL     1      11.547   1.087 -29.393  0.00  0.00    +0.142 HD
ATOM     20  H2  UNL     1      12.355   1.614 -28.011  0.00  0.00    +0.142 HD
ENDBRANCH  12  18
ENDBRANCH   2  15
ENDBRANCH   1   6
BRANCH   1  21
ATOM     21  C12 UNL     1       3.797  -3.605 -20.465  0.00  0.00    -0.041 A 
ATOM     22  C13 UNL     1       3.761  -2.453 -19.660  0.00  0.00    +0.006 A 
ATOM     23  C14 UNL     1       2.582  -1.722 -19.467  0.00  0.00    +0.028 A 
ATOM     24  C15 UNL     1       1.441  -2.194 -20.116  0.00  0.00    +0.066 A 
ATOM     25  N3  UNL     1       0.146  -1.749 -20.154  0.00  0.00    -0.338 N 
ATOM     26  C16 UNL     1      -0.595  -2.589 -20.957  0.00  0.00    +0.139 A 
ATOM     27  N4  UNL     1       0.176  -3.559 -21.420  0.00  0.00    -0.228 NA
ATOM     28  C17 UNL     1       1.431  -3.329 -20.914  0.00  0.00    +0.090 A 
ATOM     29  C18 UNL     1       2.620  -4.051 -21.094  0.00  0.00    +0.033 A 
ATOM     30  H12 UNL     1      -0.211  -0.949 -19.657  0.00  0.00    +0.167 HD
BRANCH  26  31
ATOM     31  C19 UNL     1      -2.027  -2.426 -21.229  0.00  0.00    +0.017 A 
ATOM     32  C20 UNL     1      -2.868  -1.652 -20.421  0.00  0.00    +0.013 A 
ATOM     33  C21 UNL     1      -4.231  -1.526 -20.722  0.00  0.00    +0.023 A 
ATOM     34  C22 UNL     1      -4.775  -2.134 -21.856  0.00  0.00    +0.025 A 
ATOM     35  C23 UNL     1      -3.952  -2.951 -22.630  0.00  0.00    +0.023 A 
ATOM     36  C24 UNL     1      -2.590  -3.076 -22.335  0.00  0.00    +0.013 A 
BRANCH  34  37
ATOM     37  N5  UNL     1      -6.156  -2.102 -22.080  0.00  0.00    -0.358 N 
ATOM     38  H16 UNL     1      -6.578  -3.020 -22.187  0.00  0.00    +0.142 HD
ATOM     39  H17 UNL     1      -6.662  -1.520 -21.420  0.00  0.00    +0.142 HD
ENDBRANCH  34  37
ENDBRANCH  26  31
ENDBRANCH   1  21
TORSDOF 6
ENDMDL
MODEL 3
REMARK VINA RESULT:    -7.804      5.100     10.301
REMARK INTER + INTRA:         -10.922
REMARK INTER:                 -10.072
REMARK INTRA:                  -0.850
REMARK UNBOUND:                -0.837
REMARK  Name = /home/vital/Documents/PhD_2021/Malaria_codes/data/pdb_ligands_mmv/ligand_292.pdb
REMARK  6 active torsions:
REMARK  status: ('A' for Active; 'I' for Inactive)
REMARK    1  A    between atoms: N1_1  and  C1_2
REMARK    2  A    between atoms: C4_5  and  C7_8
REMARK    3  A    between atoms: C10_12  and  C11_13
REMARK    4  A    between atoms: C11_13  and  C12_14
REMARK    5  A    between atoms: C16_19  and  C19_23
REMARK    6  A    between atoms: C22_26  and  N5_27
REMARK                            x       y       z     vdW  Elec       q    Type
REMARK                         _______ _______ _______ _____ _____    ______ ____
ROOT
ATOM      1  C11 UNL     1      -5.852  -2.442 -22.406  0.00  0.00    +0.070 C 
ENDROOT
BRANCH   1   6
ATOM      2  C7  UNL     1      -8.114   2.124 -25.504  0.00  0.00    +0.139 A 
ATOM      3  N2  UNL     1      -8.160   1.623 -24.281  0.00  0.00    -0.228 NA
ATOM      4  C8  UNL     1      -7.357   0.511 -24.287  0.00  0.00    +0.090 A 
ATOM      5  C9  UNL     1      -7.058  -0.389 -23.254  0.00  0.00    +0.033 A 
ATOM      6  C10 UNL     1      -6.181  -1.461 -23.509  0.00  0.00    -0.041 A 
ATOM      7  C25 UNL     1      -5.632  -1.619 -24.792  0.00  0.00    +0.006 A 
ATOM      8  C26 UNL     1      -5.923  -0.731 -25.836  0.00  0.00    +0.028 A 
ATOM      9  C27 UNL     1      -6.790   0.320 -25.538  0.00  0.00    +0.066 A 
ATOM     10  N6  UNL     1      -7.285   1.355 -26.290  0.00  0.00    -0.338 N 
ATOM     11  H22 UNL     1      -7.064   1.530 -27.256  0.00  0.00    +0.167 HD
BRANCH   2  15
ATOM     12  C1  UNL     1     -10.147   5.627 -26.954  0.00  0.00    +0.025 A 
ATOM     13  C2  UNL     1      -9.839   5.508 -25.598  0.00  0.00    +0.023 A 
ATOM     14  C3  UNL     1      -9.164   4.380 -25.109  0.00  0.00    +0.013 A 
ATOM     15  C4  UNL     1      -8.819   3.326 -25.965  0.00  0.00    +0.017 A 
ATOM     16  C5  UNL     1      -9.180   3.431 -27.315  0.00  0.00    +0.013 A 
ATOM     17  C6  UNL     1      -9.857   4.556 -27.798  0.00  0.00    +0.023 A 
BRANCH  12  18
ATOM     18  N1  UNL     1     -10.925   6.697 -27.410  0.00  0.00    -0.358 N 
ATOM     19  H1  UNL     1     -11.820   6.781 -26.937  0.00  0.00    +0.142 HD
ATOM     20  H2  UNL     1     -11.018   6.739 -28.419  0.00  0.00    +0.142 HD
ENDBRANCH  12  18
ENDBRANCH   2  15
ENDBRANCH   1   6
BRANCH   1  21
ATOM     21  C12 UNL     1      -4.507  -2.198 -21.757  0.00  0.00    -0.041 A 
ATOM     22  C13 UNL     1      -4.334  -1.132 -20.857  0.00  0.00    +0.006 A 
ATOM     23  C14 UNL     1      -3.101  -0.874 -20.246  0.00  0.00    +0.028 A 
ATOM     24  C15 UNL     1      -2.049  -1.729 -20.575  0.00  0.00    +0.066 A 
ATOM     25  N3  UNL     1      -0.737  -1.777 -20.183  0.00  0.00    -0.338 N 
ATOM     26  C16 UNL     1      -0.119  -2.837 -20.812  0.00  0.00    +0.139 A 
ATOM     27  N4  UNL     1      -0.984  -3.455 -21.599  0.00  0.00    -0.228 NA
ATOM     28  C17 UNL     1      -2.175  -2.789 -21.462  0.00  0.00    +0.090 A 
ATOM     29  C18 UNL     1      -3.417  -3.032 -22.068  0.00  0.00    +0.033 A 
ATOM     30  H12 UNL     1      -0.292  -1.129 -19.554  0.00  0.00    +0.167 HD
BRANCH  26  31
ATOM     31  C19 UNL     1       1.293  -3.195 -20.637  0.00  0.00    +0.017 A 
ATOM     32  C20 UNL     1       2.091  -3.666 -21.687  0.00  0.00    +0.013 A 
ATOM     33  C21 UNL     1       3.436  -3.995 -21.469  0.00  0.00    +0.023 A 
ATOM     34  C22 UNL     1       4.023  -3.822 -20.215  0.00  0.00    +0.025 A 
ATOM     35  C23 UNL     1       3.218  -3.406 -19.155  0.00  0.00    +0.023 A 
ATOM     36  C24 UNL     1       1.875  -3.073 -19.369  0.00  0.00    +0.013 A 
BRANCH  34  37
ATOM     37  N5  UNL     1       5.330  -4.266 -19.980  0.00  0.00    -0.358 N 
ATOM     38  H16 UNL     1       5.383  -5.199 -19.584  0.00  0.00    +0.142 HD
ATOM     39  H17 UNL     1       5.948  -4.149 -20.777  0.00  0.00    +0.142 HD
ENDBRANCH  34  37
ENDBRANCH  26  31
ENDBRANCH   1  21
TORSDOF 6
ENDMDL
MODEL 4
REMARK VINA RESULT:    -7.782      9.080     13.301
REMARK INTER + INTRA:         -10.893
REMARK INTER:                 -10.242
REMARK INTRA:                  -0.651
REMARK UNBOUND:                -0.837
REMARK  Name = /home/vital/Documents/PhD_2021/Malaria_codes/data/pdb_ligands_mmv/ligand_292.pdb
REMARK  6 active torsions:
REMARK  status: ('A' for Active; 'I' for Inactive)
REMARK    1  A    between atoms: N1_1  and  C1_2
REMARK    2  A    between atoms: C4_5  and  C7_8
REMARK    3  A    between atoms: C10_12  and  C11_13
REMARK    4  A    between atoms: C11_13  and  C12_14
REMARK    5  A    between atoms: C16_19  and  C19_23
REMARK    6  A    between atoms: C22_26  and  N5_27
REMARK                            x       y       z     vdW  Elec       q    Type
REMARK                         _______ _______ _______ _____ _____    ______ ____
ROOT
ATOM      1  C11 UNL     1       5.162  -0.293 -32.290  0.00  0.00    +0.070 C 
ENDROOT
BRANCH   1   6
ATOM      2  C7  UNL     1       9.687   0.994 -28.626  0.00  0.00    +0.139 A 
ATOM      3  N2  UNL     1       8.428   0.594 -28.561  0.00  0.00    -0.228 NA
ATOM      4  C8  UNL     1       7.982   0.504 -29.855  0.00  0.00    +0.090 A 
ATOM      5  C9  UNL     1       6.724   0.132 -30.349  0.00  0.00    +0.033 A 
ATOM      6  C10 UNL     1       6.513   0.103 -31.741  0.00  0.00    -0.041 A 
ATOM      7  C25 UNL     1       7.559   0.460 -32.610  0.00  0.00    +0.006 A 
ATOM      8  C26 UNL     1       8.821   0.837 -32.132  0.00  0.00    +0.028 A 
ATOM      9  C27 UNL     1       8.987   0.845 -30.747  0.00  0.00    +0.066 A 
ATOM     10  N6  UNL     1      10.056   1.150 -29.944  0.00  0.00    -0.338 N 
ATOM     11  H22 UNL     1      10.968   1.429 -30.269  0.00  0.00    +0.167 HD
BRANCH   2  15
ATOM     12  C1  UNL     1      12.245   1.580 -25.218  0.00  0.00    +0.025 A 
ATOM     13  C2  UNL     1      11.992   2.638 -26.094  0.00  0.00    +0.023 A 
ATOM     14  C3  UNL     1      11.150   2.469 -27.201  0.00  0.00    +0.013 A 
ATOM     15  C4  UNL     1      10.574   1.223 -27.480  0.00  0.00    +0.017 A 
ATOM     16  C5  UNL     1      10.876   0.154 -26.625  0.00  0.00    +0.013 A 
ATOM     17  C6  UNL     1      11.721   0.325 -25.523  0.00  0.00    +0.023 A 
BRANCH  12  18
ATOM     18  N1  UNL     1      13.180   1.726 -24.187  0.00  0.00    -0.358 N 
ATOM     19  H1  UNL     1      12.915   2.418 -23.492  0.00  0.00    +0.142 HD
ATOM     20  H2  UNL     1      14.134   1.850 -24.509  0.00  0.00    +0.142 HD
ENDBRANCH  12  18
ENDBRANCH   2  15
ENDBRANCH   1   6
BRANCH   1  21
ATOM     21  C12 UNL     1       4.903  -1.783 -32.254  0.00  0.00    -0.041 A 
ATOM     22  C13 UNL     1       5.958  -2.683 -32.024  0.00  0.00    +0.006 A 
ATOM     23  C14 UNL     1       5.755  -4.068 -31.993  0.00  0.00    +0.028 A 
ATOM     24  C15 UNL     1       4.449  -4.513 -32.203  0.00  0.00    +0.066 A 
ATOM     25  N3  UNL     1       3.892  -5.764 -32.245  0.00  0.00    -0.338 N 
ATOM     26  C16 UNL     1       2.540  -5.646 -32.486  0.00  0.00    +0.139 A 
ATOM     27  N4  UNL     1       2.219  -4.369 -32.614  0.00  0.00    -0.228 NA
ATOM     28  C17 UNL     1       3.381  -3.660 -32.440  0.00  0.00    +0.090 A 
ATOM     29  C18 UNL     1       3.602  -2.275 -32.470  0.00  0.00    +0.033 A 
ATOM     30  H12 UNL     1       4.395  -6.630 -32.137  0.00  0.00    +0.167 HD
BRANCH  26  31
ATOM     31  C19 UNL     1       1.617  -6.780 -32.601  0.00  0.00    +0.017 A 
ATOM     32  C20 UNL     1       0.530  -6.963 -31.738  0.00  0.00    +0.013 A 
ATOM     33  C21 UNL     1      -0.325  -8.063 -31.889  0.00  0.00    +0.023 A 
ATOM     34  C22 UNL     1      -0.140  -8.979 -32.926  0.00  0.00    +0.025 A 
ATOM     35  C23 UNL     1       0.974  -8.831 -33.752  0.00  0.00    +0.023 A 
ATOM     36  C24 UNL     1       1.827  -7.732 -33.608  0.00  0.00    +0.013 A 
BRANCH  34  37
ATOM     37  N5  UNL     1      -0.924 -10.137 -32.994  0.00  0.00    -0.358 N 
ATOM     38  H16 UNL     1      -0.480 -10.907 -33.485  0.00  0.00    +0.142 HD
ATOM     39  H17 UNL     1      -1.309 -10.420 -32.099  0.00  0.00    +0.142 HD
ENDBRANCH  34  37
ENDBRANCH  26  31
ENDBRANCH   1  21
TORSDOF 6
ENDMDL
MODEL 5
REMARK VINA RESULT:    -7.774      5.104     12.951
REMARK INTER + INTRA:         -10.883
REMARK INTER:                 -10.034
REMARK INTRA:                  -0.850
REMARK UNBOUND:                -0.837
REMARK  Name = /home/vital/Documents/PhD_2021/Malaria_codes/data/pdb_ligands_mmv/ligand_292.pdb
REMARK  6 active torsions:
REMARK  status: ('A' for Active; 'I' for Inactive)
REMARK    1  A    between atoms: N1_1  and  C1_2
REMARK    2  A    between atoms: C4_5  and  C7_8
REMARK    3  A    between atoms: C10_12  and  C11_13
REMARK    4  A    between atoms: C11_13  and  C12_14
REMARK    5  A    between atoms: C16_19  and  C19_23
REMARK    6  A    between atoms: C22_26  and  N5_27
REMARK                            x       y       z     vdW  Elec       q    Type
REMARK                         _______ _______ _______ _____ _____    ______ ____
ROOT
ATOM      1  C11 UNL     1      -5.844  -2.438 -22.451  0.00  0.00    +0.070 C 
ENDROOT
BRANCH   1   6
ATOM      2  C7  UNL     1      -0.101  -2.865 -20.902  0.00  0.00    +0.139 A 
ATOM      3  N2  UNL     1      -0.970  -3.462 -21.700  0.00  0.00    -0.228 NA
ATOM      4  C8  UNL     1      -2.163  -2.805 -21.536  0.00  0.00    +0.090 A 
ATOM      5  C9  UNL     1      -3.407  -3.034 -22.139  0.00  0.00    +0.033 A 
ATOM      6  C10 UNL     1      -4.494  -2.201 -21.812  0.00  0.00    -0.041 A 
ATOM      7  C25 UNL     1      -4.319  -1.165 -20.879  0.00  0.00    +0.006 A 
ATOM      8  C26 UNL     1      -3.083  -0.924 -20.265  0.00  0.00    +0.028 A 
ATOM      9  C27 UNL     1      -2.032  -1.769 -20.624  0.00  0.00    +0.066 A 
ATOM     10  N6  UNL     1      -0.718  -1.828 -20.238  0.00  0.00    -0.338 N 
ATOM     11  H22 UNL     1      -0.274  -1.203 -19.584  0.00  0.00    +0.167 HD
BRANCH   2  15
ATOM     12  C1  UNL     1       4.047  -3.872 -20.365  0.00  0.00    +0.025 A 
ATOM     13  C2  UNL     1       3.454  -3.994 -21.623  0.00  0.00    +0.023 A 
ATOM     14  C3  UNL     1       2.108  -3.656 -21.820  0.00  0.00    +0.013 A 
ATOM     15  C4  UNL     1       1.312  -3.228 -20.749  0.00  0.00    +0.017 A 
ATOM     16  C5  UNL     1       1.902  -3.159 -19.480  0.00  0.00    +0.013 A 
ATOM     17  C6  UNL     1       3.245  -3.500 -19.286  0.00  0.00    +0.023 A 
BRANCH  12  18
ATOM     18  N1  UNL     1       5.354  -4.323 -20.154  0.00  0.00    -0.358 N 
ATOM     19  H1  UNL     1       5.835  -3.840 -19.401  0.00  0.00    +0.142 HD
ATOM     20  H2  UNL     1       5.914  -4.375 -20.998  0.00  0.00    +0.142 HD
ENDBRANCH  12  18
ENDBRANCH   2  15
ENDBRANCH   1   6
BRANCH   1  21
ATOM     21  C12 UNL     1      -6.187  -1.439 -23.534  0.00  0.00    -0.041 A 
ATOM     22  C13 UNL     1      -5.641  -1.571 -24.823  0.00  0.00    +0.006 A 
ATOM     23  C14 UNL     1      -5.931  -0.659 -25.846  0.00  0.00    +0.028 A 
ATOM     24  C15 UNL     1      -6.792   0.390 -25.522  0.00  0.00    +0.066 A 
ATOM     25  N3  UNL     1      -7.284   1.443 -26.248  0.00  0.00    -0.338 N 
ATOM     26  C16 UNL     1      -8.110   2.197 -25.442  0.00  0.00    +0.139 A 
ATOM     27  N4  UNL     1      -8.151   1.673 -24.229  0.00  0.00    -0.228 NA
ATOM     28  C17 UNL     1      -7.349   0.559 -24.262  0.00  0.00    +0.090 A 
ATOM     29  C18 UNL     1      -7.046  -0.361 -23.248  0.00  0.00    +0.033 A 
ATOM     30  H12 UNL     1      -7.060   1.643 -27.209  0.00  0.00    +0.167 HD
BRANCH  26  31
ATOM     31  C19 UNL     1      -8.812   3.408 -25.879  0.00  0.00    +0.017 A 
ATOM     32  C20 UNL     1      -9.167   4.438 -24.999  0.00  0.00    +0.013 A 
ATOM     33  C21 UNL     1      -9.837   5.577 -25.465  0.00  0.00    +0.023 A 
ATOM     34  C22 UNL     1     -10.131   5.733 -26.821  0.00  0.00    +0.025 A 
ATOM     35  C23 UNL     1      -9.830   4.685 -27.691  0.00  0.00    +0.023 A 
ATOM     36  C24 UNL     1      -9.157   3.548 -27.230  0.00  0.00    +0.013 A 
BRANCH  34  37
ATOM     37  N5  UNL     1     -10.906   6.814 -27.256  0.00  0.00    -0.358 N 
ATOM     38  H16 UNL     1     -10.397   7.691 -27.309  0.00  0.00    +0.142 HD
ATOM     39  H17 UNL     1     -11.433   6.622 -28.103  0.00  0.00    +0.142 HD
ENDBRANCH  34  37
ENDBRANCH  26  31
ENDBRANCH   1  21
TORSDOF 6
ENDMDL
MODEL 6
REMARK VINA RESULT:    -7.714      6.042     10.947
REMARK INTER + INTRA:         -10.806
REMARK INTER:                  -9.973
REMARK INTRA:                  -0.833
REMARK UNBOUND:                -0.837
REMARK  Name = /home/vital/Documents/PhD_2021/Malaria_codes/data/pdb_ligands_mmv/ligand_292.pdb
REMARK  6 active torsions:
REMARK  status: ('A' for Active; 'I' for Inactive)
REMARK    1  A    between atoms: N1_1  and  C1_2
REMARK    2  A    between atoms: C4_5  and  C7_8
REMARK    3  A    between atoms: C10_12  and  C11_13
REMARK    4  A    between atoms: C11_13  and  C12_14
REMARK    5  A    between atoms: C16_19  and  C19_23
REMARK    6  A    between atoms: C22_26  and  N5_27
REMARK                            x       y       z     vdW  Elec       q    Type
REMARK                         _______ _______ _______ _____ _____    ______ ____
ROOT
ATOM      1  C11 UNL     1       7.835  -4.241 -24.904  0.00  0.00    +0.070 C 
ENDROOT
BRANCH   1   6
ATOM      2  C7  UNL     1      10.698   0.988 -24.756  0.00  0.00    +0.139 A 
ATOM      3  N2  UNL     1      10.621  -0.091 -25.518  0.00  0.00    -0.228 NA
ATOM      4  C8  UNL     1       9.721  -0.930 -24.912  0.00  0.00    +0.090 A 
ATOM      5  C9  UNL     1       9.276  -2.202 -25.298  0.00  0.00    +0.033 A 
ATOM      6  C10 UNL     1       8.322  -2.867 -24.504  0.00  0.00    -0.041 A 
ATOM      7  C25 UNL     1       7.842  -2.253 -23.335  0.00  0.00    +0.006 A 
ATOM      8  C26 UNL     1       8.278  -0.984 -22.933  0.00  0.00    +0.028 A 
ATOM      9  C27 UNL     1       9.218  -0.358 -23.753  0.00  0.00    +0.066 A 
ATOM     10  N6  UNL     1       9.852   0.855 -23.677  0.00  0.00    -0.338 N 
ATOM     11  H22 UNL     1       9.709   1.543 -22.956  0.00  0.00    +0.167 HD
BRANCH   2  15
ATOM     12  C1  UNL     1      13.131   4.429 -25.620  0.00  0.00    +0.025 A 
ATOM     13  C2  UNL     1      13.394   3.651 -24.491  0.00  0.00    +0.023 A 
ATOM     14  C3  UNL     1      12.621   2.518 -24.201  0.00  0.00    +0.013 A 
ATOM     15  C4  UNL     1      11.538   2.162 -25.016  0.00  0.00    +0.017 A 
ATOM     16  C5  UNL     1      11.250   2.979 -26.118  0.00  0.00    +0.013 A 
ATOM     17  C6  UNL     1      12.021   4.111 -26.402  0.00  0.00    +0.023 A 
BRANCH  12  18
ATOM     18  N1  UNL     1      13.830   5.622 -25.834  0.00  0.00    -0.358 N 
ATOM     19  H1  UNL     1      14.006   6.149 -24.984  0.00  0.00    +0.142 HD
ATOM     20  H2  UNL     1      13.442   6.201 -26.572  0.00  0.00    +0.142 HD
ENDBRANCH  12  18
ENDBRANCH   2  15
ENDBRANCH   1   6
BRANCH   1  21
ATOM     21  C12 UNL     1       6.631  -4.217 -25.819  0.00  0.00    -0.041 A 
ATOM     22  C13 UNL     1       5.331  -4.225 -25.285  0.00  0.00    +0.006 A 
ATOM     23  C14 UNL     1       4.195  -4.212 -26.104  0.00  0.00    +0.028 A 
ATOM     24  C15 UNL     1       4.417  -4.191 -27.480  0.00  0.00    +0.066 A 
ATOM     25  N3  UNL     1       3.568  -4.178 -28.556  0.00  0.00    -0.338 N 
ATOM     26  C16 UNL     1       4.313  -4.156 -29.716  0.00  0.00    +0.139 A 
ATOM     27  N4  UNL     1       5.602  -4.170 -29.419  0.00  0.00    -0.228 NA
ATOM     28  C17 UNL     1       5.683  -4.188 -28.049  0.00  0.00    +0.090 A 
ATOM     29  C18 UNL     1       6.810  -4.204 -27.215  0.00  0.00    +0.033 A 
ATOM     30  H12 UNL     1       2.563  -4.201 -28.506  0.00  0.00    +0.167 HD
BRANCH  26  31
ATOM     31  C19 UNL     1       3.742  -4.141 -31.067  0.00  0.00    +0.017 A 
ATOM     32  C20 UNL     1       4.174  -3.256 -32.062  0.00  0.00    +0.013 A 
ATOM     33  C21 UNL     1       3.596  -3.281 -33.339  0.00  0.00    +0.023 A 
ATOM     34  C22 UNL     1       2.609  -4.213 -33.663  0.00  0.00    +0.025 A 
ATOM     35  C23 UNL     1       2.139  -5.058 -32.659  0.00  0.00    +0.023 A 
ATOM     36  C24 UNL     1       2.715  -5.040 -31.383  0.00  0.00    +0.013 A 
BRANCH  34  37
ATOM     37  N5  UNL     1       1.957  -4.150 -34.900  0.00  0.00    -0.358 N 
ATOM     38  H16 UNL     1       2.579  -4.225 -35.698  0.00  0.00    +0.142 HD
ATOM     39  H17 UNL     1       1.160  -4.776 -34.972  0.00  0.00    +0.142 HD
ENDBRANCH  34  37
ENDBRANCH  26  31
ENDBRANCH   1  21
TORSDOF 6
ENDMDL
MODEL 7
REMARK VINA RESULT:    -7.699      6.059      8.257
REMARK INTER + INTRA:         -10.787
REMARK INTER:                  -9.952
REMARK INTRA:                  -0.835
REMARK UNBOUND:                -0.837
REMARK  Name = /home/vital/Documents/PhD_2021/Malaria_codes/data/pdb_ligands_mmv/ligand_292.pdb
REMARK  6 active torsions:
REMARK  status: ('A' for Active; 'I' for Inactive)
REMARK    1  A    between atoms: N1_1  and  C1_2
REMARK    2  A    between atoms: C4_5  and  C7_8
REMARK    3  A    between atoms: C10_12  and  C11_13
REMARK    4  A    between atoms: C11_13  and  C12_14
REMARK    5  A    between atoms: C16_19  and  C19_23
REMARK    6  A    between atoms: C22_26  and  N5_27
REMARK                            x       y       z     vdW  Elec       q    Type
REMARK                         _______ _______ _______ _____ _____    ______ ____
ROOT
ATOM      1  C11 UNL     1       7.920  -4.236 -24.876  0.00  0.00    +0.070 C 
ENDROOT
BRANCH   1   6
ATOM      2  C7  UNL     1       4.366  -4.174 -29.665  0.00  0.00    +0.139 A 
ATOM      3  N2  UNL     1       5.657  -4.181 -29.375  0.00  0.00    -0.228 NA
ATOM      4  C8  UNL     1       5.747  -4.194 -28.007  0.00  0.00    +0.090 A 
ATOM      5  C9  UNL     1       6.879  -4.202 -27.180  0.00  0.00    +0.033 A 
ATOM      6  C10 UNL     1       6.709  -4.231 -25.782  0.00  0.00    -0.041 A 
ATOM      7  C25 UNL     1       5.413  -4.238 -25.240  0.00  0.00    +0.006 A 
ATOM      8  C26 UNL     1       4.272  -4.227 -26.052  0.00  0.00    +0.028 A 
ATOM      9  C27 UNL     1       4.486  -4.206 -27.430  0.00  0.00    +0.066 A 
ATOM     10  N6  UNL     1       3.630  -4.193 -28.501  0.00  0.00    -0.338 N 
ATOM     11  H22 UNL     1       2.625  -4.210 -28.443  0.00  0.00    +0.167 HD
BRANCH   2  15
ATOM     12  C1  UNL     1       2.656  -4.248 -33.611  0.00  0.00    +0.025 A 
ATOM     13  C2  UNL     1       3.555  -3.241 -33.257  0.00  0.00    +0.023 A 
ATOM     14  C3  UNL     1       4.134  -3.208 -31.980  0.00  0.00    +0.013 A 
ATOM     15  C4  UNL     1       3.791  -4.164 -31.015  0.00  0.00    +0.017 A 
ATOM     16  C5  UNL     1       2.848  -5.140 -31.363  0.00  0.00    +0.013 A 
ATOM     17  C6  UNL     1       2.270  -5.167 -32.636  0.00  0.00    +0.023 A 
BRANCH  12  18
ATOM     18  N1  UNL     1       1.995  -4.203 -34.843  0.00  0.00    -0.358 N 
ATOM     19  H1  UNL     1       1.049  -4.571 -34.812  0.00  0.00    +0.142 HD
ATOM     20  H2  UNL     1       2.531  -4.588 -35.614  0.00  0.00    +0.142 HD
ENDBRANCH  12  18
ENDBRANCH   2  15
ENDBRANCH   1   6
BRANCH   1  21
ATOM     21  C12 UNL     1       8.398  -2.853 -24.492  0.00  0.00    -0.041 A 
ATOM     22  C13 UNL     1       7.892  -2.218 -23.344  0.00  0.00    +0.006 A 
ATOM     23  C14 UNL     1       8.306  -0.935 -22.965  0.00  0.00    +0.028 A 
ATOM     24  C15 UNL     1       9.250  -0.316 -23.785  0.00  0.00    +0.066 A 
ATOM     25  N3  UNL     1       9.867   0.906 -23.729  0.00  0.00    -0.338 N 
ATOM     26  C16 UNL     1      10.729   1.024 -24.798  0.00  0.00    +0.139 A 
ATOM     27  N4  UNL     1      10.673  -0.069 -25.539  0.00  0.00    -0.228 NA
ATOM     28  C17 UNL     1       9.771  -0.904 -24.929  0.00  0.00    +0.090 A 
ATOM     29  C18 UNL     1       9.343  -2.188 -25.296  0.00  0.00    +0.033 A 
ATOM     30  H12 UNL     1       9.700   1.612 -23.029  0.00  0.00    +0.167 HD
BRANCH  26  31
ATOM     31  C19 UNL     1      11.559   2.204 -25.066  0.00  0.00    +0.017 A 
ATOM     32  C20 UNL     1      12.563   2.638 -24.192  0.00  0.00    +0.013 A 
ATOM     33  C21 UNL     1      13.330   3.772 -24.493  0.00  0.00    +0.023 A 
ATOM     34  C22 UNL     1      13.142   4.470 -25.688  0.00  0.00    +0.025 A 
ATOM     35  C23 UNL     1      12.107   4.073 -26.533  0.00  0.00    +0.023 A 
ATOM     36  C24 UNL     1      11.341   2.940 -26.238  0.00  0.00    +0.013 A 
BRANCH  34  37
ATOM     37  N5  UNL     1      13.829   5.667 -25.922  0.00  0.00    -0.358 N 
ATOM     38  H16 UNL     1      14.821   5.545 -26.097  0.00  0.00    +0.142 HD
ATOM     39  H17 UNL     1      13.385   6.261 -26.615  0.00  0.00    +0.142 HD
ENDBRANCH  34  37
ENDBRANCH  26  31
ENDBRANCH   1  21
TORSDOF 6
ENDMDL
MODEL 8
REMARK VINA RESULT:    -7.688      8.934     10.435
REMARK INTER + INTRA:         -10.773
REMARK INTER:                 -10.058
REMARK INTRA:                  -0.715
REMARK UNBOUND:                -0.837
REMARK  Name = /home/vital/Documents/PhD_2021/Malaria_codes/data/pdb_ligands_mmv/ligand_292.pdb
REMARK  6 active torsions:
REMARK  status: ('A' for Active; 'I' for Inactive)
REMARK    1  A    between atoms: N1_1  and  C1_2
REMARK    2  A    between atoms: C4_5  and  C7_8
REMARK    3  A    between atoms: C10_12  and  C11_13
REMARK    4  A    between atoms: C11_13  and  C12_14
REMARK    5  A    between atoms: C16_19  and  C19_23
REMARK    6  A    between atoms: C22_26  and  N5_27
REMARK                            x       y       z     vdW  Elec       q    Type
REMARK                         _______ _______ _______ _____ _____    ______ ____
ROOT
ATOM      1  C11 UNL     1       4.751  -0.409 -32.352  0.00  0.00    +0.070 C 
ENDROOT
BRANCH   1   6
ATOM      2  C7  UNL     1       2.449  -5.909 -32.486  0.00  0.00    +0.139 A 
ATOM      3  N2  UNL     1       2.040  -4.653 -32.408  0.00  0.00    -0.228 NA
ATOM      4  C8  UNL     1       3.170  -3.876 -32.429  0.00  0.00    +0.090 A 
ATOM      5  C9  UNL     1       3.303  -2.481 -32.367  0.00  0.00    +0.033 A 
ATOM      6  C10 UNL     1       4.590  -1.911 -32.421  0.00  0.00    -0.041 A 
ATOM      7  C25 UNL     1       5.716  -2.746 -32.521  0.00  0.00    +0.006 A 
ATOM      8  C26 UNL     1       5.600  -4.140 -32.580  0.00  0.00    +0.028 A 
ATOM      9  C27 UNL     1       4.307  -4.662 -32.531  0.00  0.00    +0.066 A 
ATOM     10  N6  UNL     1       3.824  -5.944 -32.566  0.00  0.00    -0.338 N 
ATOM     11  H22 UNL     1       4.385  -6.776 -32.652  0.00  0.00    +0.167 HD
BRANCH   2  15
ATOM     12  C1  UNL     1      -0.083  -9.386 -32.428  0.00  0.00    +0.025 A 
ATOM     13  C2  UNL     1       0.581  -9.023 -33.601  0.00  0.00    +0.023 A 
ATOM     14  C3  UNL     1       1.422  -7.902 -33.635  0.00  0.00    +0.013 A 
ATOM     15  C4  UNL     1       1.583  -7.093 -32.502  0.00  0.00    +0.017 A 
ATOM     16  C5  UNL     1       0.871  -7.435 -31.344  0.00  0.00    +0.013 A 
ATOM     17  C6  UNL     1       0.029  -8.552 -31.315  0.00  0.00    +0.023 A 
BRANCH  12  18
ATOM     18  N1  UNL     1      -1.011 -10.433 -32.436  0.00  0.00    -0.358 N 
ATOM     19  H1  UNL     1      -1.972 -10.127 -32.310  0.00  0.00    +0.142 HD
ATOM     20  H2  UNL     1      -0.769 -11.204 -31.823  0.00  0.00    +0.142 HD
ENDBRANCH  12  18
ENDBRANCH   2  15
ENDBRANCH   1   6
BRANCH   1  21
ATOM     21  C12 UNL     1       6.094   0.035 -31.816  0.00  0.00    -0.041 A 
ATOM     22  C13 UNL     1       7.076   0.541 -32.685  0.00  0.00    +0.006 A 
ATOM     23  C14 UNL     1       8.332   0.953 -32.222  0.00  0.00    +0.028 A 
ATOM     24  C15 UNL     1       8.562   0.835 -30.851  0.00  0.00    +0.066 A 
ATOM     25  N3  UNL     1       9.645   1.128 -30.065  0.00  0.00    -0.338 N 
ATOM     26  C16 UNL     1       9.345   0.820 -28.755  0.00  0.00    +0.139 A 
ATOM     27  N4  UNL     1       8.120   0.330 -28.680  0.00  0.00    -0.228 NA
ATOM     28  C17 UNL     1       7.623   0.335 -29.959  0.00  0.00    +0.090 A 
ATOM     29  C18 UNL     1       6.371  -0.076 -30.440  0.00  0.00    +0.033 A 
ATOM     30  H12 UNL     1      10.525   1.490 -30.395  0.00  0.00    +0.167 HD
BRANCH  26  31
ATOM     31  C19 UNL     1      10.270   0.999 -27.630  0.00  0.00    +0.017 A 
ATOM     32  C20 UNL     1      10.936   2.205 -27.380  0.00  0.00    +0.013 A 
ATOM     33  C21 UNL     1      11.810   2.326 -26.291  0.00  0.00    +0.023 A 
ATOM     34  C22 UNL     1      12.006   1.264 -25.406  0.00  0.00    +0.025 A 
ATOM     35  C23 UNL     1      11.389   0.045 -25.684  0.00  0.00    +0.023 A 
ATOM     36  C24 UNL     1      10.512  -0.079 -26.768  0.00  0.00    +0.013 A 
BRANCH  34  37
ATOM     37  N5  UNL     1      12.970   1.356 -24.396  0.00  0.00    -0.358 N 
ATOM     38  H16 UNL     1      12.585   1.541 -23.475  0.00  0.00    +0.142 HD
ATOM     39  H17 UNL     1      13.629   0.583 -24.390  0.00  0.00    +0.142 HD
ENDBRANCH  34  37
ENDBRANCH  26  31
ENDBRANCH   1  21
TORSDOF 6
ENDMDL
MODEL 9
REMARK VINA RESULT:    -7.348      9.398     13.411
REMARK INTER + INTRA:         -10.332
REMARK INTER:                  -9.470
REMARK INTRA:                  -0.863
REMARK UNBOUND:                -0.837
REMARK  Name = /home/vital/Documents/PhD_2021/Malaria_codes/data/pdb_ligands_mmv/ligand_292.pdb
REMARK  6 active torsions:
REMARK  status: ('A' for Active; 'I' for Inactive)
REMARK    1  A    between atoms: N1_1  and  C1_2
REMARK    2  A    between atoms: C4_5  and  C7_8
REMARK    3  A    between atoms: C10_12  and  C11_13
REMARK    4  A    between atoms: C11_13  and  C12_14
REMARK    5  A    between atoms: C16_19  and  C19_23
REMARK    6  A    between atoms: C22_26  and  N5_27
REMARK                            x       y       z     vdW  Elec       q    Type
REMARK                         _______ _______ _______ _____ _____    ______ ____
ROOT
ATOM      1  C11 UNL     1       2.805  -4.179 -33.435  0.00  0.00    +0.070 C 
ENDROOT
BRANCH   1   6
ATOM      2  C7  UNL     1       4.922  -4.384 -27.864  0.00  0.00    +0.139 A 
ATOM      3  N2  UNL     1       3.763  -4.454 -28.499  0.00  0.00    -0.228 NA
ATOM      4  C8  UNL     1       4.045  -4.324 -29.835  0.00  0.00    +0.090 A 
ATOM      5  C9  UNL     1       3.182  -4.323 -30.940  0.00  0.00    +0.033 A 
ATOM      6  C10 UNL     1       3.722  -4.186 -32.233  0.00  0.00    -0.041 A 
ATOM      7  C25 UNL     1       5.110  -4.039 -32.395  0.00  0.00    +0.006 A 
ATOM      8  C26 UNL     1       5.985  -4.034 -31.301  0.00  0.00    +0.028 A 
ATOM      9  C27 UNL     1       5.408  -4.180 -30.039  0.00  0.00    +0.066 A 
ATOM     10  N6  UNL     1       5.941  -4.222 -28.776  0.00  0.00    -0.338 N 
ATOM     11  H22 UNL     1       6.922  -4.160 -28.555  0.00  0.00    +0.167 HD
BRANCH   2  15
ATOM     12  C1  UNL     1       5.573  -4.706 -23.624  0.00  0.00    +0.025 A 
ATOM     13  C2  UNL     1       4.274  -4.639 -24.129  0.00  0.00    +0.023 A 
ATOM     14  C3  UNL     1       4.041  -4.548 -25.509  0.00  0.00    +0.013 A 
ATOM     15  C4  UNL     1       5.111  -4.481 -26.412  0.00  0.00    +0.017 A 
ATOM     16  C5  UNL     1       6.412  -4.495 -25.892  0.00  0.00    +0.013 A 
ATOM     17  C6  UNL     1       6.639  -4.582 -24.514  0.00  0.00    +0.023 A 
BRANCH  12  18
ATOM     18  N1  UNL     1       5.796  -4.674 -22.243  0.00  0.00    -0.358 N 
ATOM     19  H1  UNL     1       5.956  -5.591 -21.836  0.00  0.00    +0.142 HD
ATOM     20  H2  UNL     1       5.107  -4.139 -21.726  0.00  0.00    +0.142 HD
ENDBRANCH  12  18
ENDBRANCH   2  15
ENDBRANCH   1   6
BRANCH   1  21
ATOM     21  C12 UNL     1       1.982  -5.440 -33.579  0.00  0.00    -0.041 A 
ATOM     22  C13 UNL     1       2.612  -6.687 -33.734  0.00  0.00    +0.006 A 
ATOM     23  C14 UNL     1       1.880  -7.873 -33.878  0.00  0.00    +0.028 A 
ATOM     24  C15 UNL     1       0.490  -7.755 -33.861  0.00  0.00    +0.066 A 
ATOM     25  N3  UNL     1      -0.519  -8.674 -33.976  0.00  0.00    -0.338 N 
ATOM     26  C16 UNL     1      -1.732  -8.023 -33.890  0.00  0.00    +0.139 A 
ATOM     27  N4  UNL     1      -1.532  -6.725 -33.739  0.00  0.00    -0.228 NA
ATOM     28  C17 UNL     1      -0.172  -6.543 -33.717  0.00  0.00    +0.090 A 
ATOM     29  C18 UNL     1       0.576  -5.365 -33.576  0.00  0.00    +0.033 A 
ATOM     30  H12 UNL     1      -0.394  -9.663 -34.121  0.00  0.00    +0.167 HD
BRANCH  26  31
ATOM     31  C19 UNL     1      -3.037  -8.688 -33.975  0.00  0.00    +0.017 A 
ATOM     32  C20 UNL     1      -3.974  -8.392 -34.973  0.00  0.00    +0.013 A 
ATOM     33  C21 UNL     1      -5.208  -9.055 -35.013  0.00  0.00    +0.023 A 
ATOM     34  C22 UNL     1      -5.517 -10.054 -34.087  0.00  0.00    +0.025 A 
ATOM     35  C23 UNL     1      -4.609 -10.311 -33.060  0.00  0.00    +0.023 A 
ATOM     36  C24 UNL     1      -3.374  -9.654 -33.019  0.00  0.00    +0.013 A 
BRANCH  34  37
ATOM     37  N5  UNL     1      -6.795 -10.623 -34.062  0.00  0.00    -0.358 N 
ATOM     38  H16 UNL     1      -6.890 -11.449 -34.645  0.00  0.00    +0.142 HD
ATOM     39  H17 UNL     1      -7.158 -10.768 -33.125  0.00  0.00    +0.142 HD
ENDBRANCH  34  37
ENDBRANCH  26  31
ENDBRANCH   1  21
TORSDOF 6
ENDMDL
