MODEL 1
REMARK VINA RESULT:    -8.025      0.000      0.000
REMARK INTER + INTRA:         -15.079
REMARK INTER:                 -10.371
REMARK INTRA:                  -4.708
REMARK UNBOUND:                -4.708
REMARK  Name = /home/vital/Documents/PhD_2021/Malaria_codes/data/pdb_ligands_mmv/ligand_318.pdb
REMARK  6 active torsions:
REMARK  status: ('A' for Active; 'I' for Inactive)
REMARK    1  A    between atoms: C1_1  and  C2_2
REMARK    2  A    between atoms: C6_6  and  N1_8
REMARK    3  A    between atoms: C12_15  and  C37_45
REMARK    4  A    between atoms: C14_18  and  C31_39
REMARK    5  A    between atoms: C15_19  and  C24_30
REMARK    6  A    between atoms: C16_20  and  C17_21
REMARK                            x       y       z     vdW  Elec       q    Type
REMARK                         _______ _______ _______ _____ _____    ______ ____
ROOT
ATOM      1  N1  UNL     1       4.570  -4.280 -29.076  0.00  0.00    -0.210 N 
ATOM      2  C8  UNL     1       5.724  -4.258 -28.325  0.00  0.00    +0.232 C 
ATOM      3  O1  UNL     1       6.857  -3.951 -28.674  0.00  0.00    -0.274 OA
ATOM      4  C9  UNL     1       5.447  -4.751 -26.937  0.00  0.00    +0.111 C 
ATOM      5  C10 UNL     1       3.975  -5.233 -26.995  0.00  0.00    +0.111 C 
ATOM      6  C11 UNL     1       3.552  -4.927 -28.408  0.00  0.00    +0.232 C 
ATOM      7  O2  UNL     1       2.449  -5.246 -28.826  0.00  0.00    -0.274 OA
ATOM      8  C12 UNL     1       3.233  -4.427 -25.889  0.00  0.00    +0.093 C 
ATOM      9  C13 UNL     1       4.447  -4.324 -24.983  0.00  0.00    +0.164 C 
ATOM     10  O3  UNL     1       4.600  -4.745 -23.847  0.00  0.00    -0.295 OA
ATOM     11  C14 UNL     1       5.495  -3.646 -25.843  0.00  0.00    +0.093 C 
ATOM     12  C15 UNL     1       4.557  -2.478 -26.171  0.00  0.00    -0.017 C 
ATOM     13  C16 UNL     1       3.276  -2.923 -26.203  0.00  0.00    -0.017 C 
ENDROOT
BRANCH  13  14
ATOM     14  C17 UNL     1       2.094  -2.120 -26.526  0.00  0.00    -0.017 A 
ATOM     15  C18 UNL     1       1.452  -1.359 -25.523  0.00  0.00    +0.012 A 
ATOM     16  C19 UNL     1       0.329  -0.579 -25.821  0.00  0.00    +0.050 A 
ATOM     17  C20 UNL     1      -0.118  -0.568 -27.123  0.00  0.00    +0.166 A 
ATOM     18  O4  UNL     1      -1.182   0.135 -27.595  0.00  0.00    -0.453 OA
ATOM     19  C21 UNL     1      -1.148  -0.226 -28.991  0.00  0.00    +0.466 C 
ATOM     20  O5  UNL     1      -0.084  -1.141 -29.322  0.00  0.00    -0.453 OA
ATOM     21  C22 UNL     1       0.507  -1.296 -28.107  0.00  0.00    +0.167 A 
ATOM     22  C23 UNL     1       1.611  -2.079 -27.844  0.00  0.00    +0.057 A 
ENDBRANCH  13  14
BRANCH  12  23
ATOM     23  C24 UNL     1       5.033  -1.102 -26.397  0.00  0.00    -0.017 A 
ATOM     24  C25 UNL     1       4.875  -0.123 -25.386  0.00  0.00    +0.012 A 
ATOM     25  C26 UNL     1       5.326   1.190 -25.560  0.00  0.00    +0.050 A 
ATOM     26  C27 UNL     1       5.937   1.501 -26.751  0.00  0.00    +0.166 A 
ATOM     27  O6  UNL     1       6.439   2.717 -27.097  0.00  0.00    -0.453 OA
ATOM     28  C28 UNL     1       6.958   2.429 -28.413  0.00  0.00    +0.466 C 
ATOM     29  O7  UNL     1       6.738   1.067 -28.833  0.00  0.00    -0.453 OA
ATOM     30  C29 UNL     1       6.110   0.561 -27.737  0.00  0.00    +0.167 A 
ATOM     31  C30 UNL     1       5.678  -0.742 -27.589  0.00  0.00    +0.057 A 
ENDBRANCH  12  23
BRANCH   1  37
ATOM     32  C1  UNL     1       3.829  -0.474 -32.253  0.00  0.00    +0.044 C 
ATOM     33  C2  UNL     1       4.122  -1.925 -32.003  0.00  0.00    -0.049 A 
ATOM     34  C3  UNL     1       4.350  -2.786 -33.075  0.00  0.00    +0.003 A 
ATOM     35  C4  UNL     1       4.634  -4.125 -32.836  0.00  0.00    +0.002 A 
ATOM     36  C5  UNL     1       4.696  -4.610 -31.525  0.00  0.00    +0.024 A 
ATOM     37  C6  UNL     1       4.481  -3.774 -30.416  0.00  0.00    +0.044 A 
ATOM     38  C7  UNL     1       4.206  -2.422 -30.687  0.00  0.00    +0.027 A 
ENDBRANCH   1  37
BRANCH  11  39
ATOM     39  C31 UNL     1       6.794  -3.333 -25.131  0.00  0.00    -0.029 A 
ATOM     40  C32 UNL     1       6.788  -2.728 -23.860  0.00  0.00    +0.005 A 
ATOM     41  C33 UNL     1       7.975  -2.408 -23.198  0.00  0.00    +0.000 A 
ATOM     42  C34 UNL     1       9.200  -2.685 -23.793  0.00  0.00    +0.000 A 
ATOM     43  C35 UNL     1       9.234  -3.283 -25.049  0.00  0.00    +0.000 A 
ATOM     44  C36 UNL     1       8.044  -3.603 -25.711  0.00  0.00    +0.005 A 
ENDBRANCH  11  39
BRANCH   8  45
ATOM     45  C37 UNL     1       1.952  -5.048 -25.364  0.00  0.00    -0.029 A 
ATOM     46  C38 UNL     1       1.187  -4.361 -24.401  0.00  0.00    +0.005 A 
ATOM     47  C39 UNL     1      -0.002  -4.888 -23.885  0.00  0.00    +0.000 A 
ATOM     48  C40 UNL     1      -0.469  -6.118 -24.327  0.00  0.00    +0.000 A 
ATOM     49  C41 UNL     1       0.259  -6.818 -25.281  0.00  0.00    +0.000 A 
ATOM     50  C42 UNL     1       1.451  -6.289 -25.791  0.00  0.00    +0.005 A 
ENDBRANCH   8  45
TORSDOF 5
ENDMDL
MODEL 2
REMARK VINA RESULT:    -7.828      9.586     13.364
REMARK INTER + INTRA:         -14.824
REMARK INTER:                 -10.353
REMARK INTRA:                  -4.471
REMARK UNBOUND:                -4.708
REMARK  Name = /home/vital/Documents/PhD_2021/Malaria_codes/data/pdb_ligands_mmv/ligand_318.pdb
REMARK  6 active torsions:
REMARK  status: ('A' for Active; 'I' for Inactive)
REMARK    1  A    between atoms: C1_1  and  C2_2
REMARK    2  A    between atoms: C6_6  and  N1_8
REMARK    3  A    between atoms: C12_15  and  C37_45
REMARK    4  A    between atoms: C14_18  and  C31_39
REMARK    5  A    between atoms: C15_19  and  C24_30
REMARK    6  A    between atoms: C16_20  and  C17_21
REMARK                            x       y       z     vdW  Elec       q    Type
REMARK                         _______ _______ _______ _____ _____    ______ ____
ROOT
ATOM      1  N1  UNL     1       2.466   5.538 -15.693  0.00  0.00    -0.210 N 
ATOM      2  C8  UNL     1       2.764   6.751 -16.274  0.00  0.00    +0.232 C 
ATOM      3  O1  UNL     1       3.699   7.504 -16.032  0.00  0.00    -0.274 OA
ATOM      4  C9  UNL     1       1.706   7.121 -17.269  0.00  0.00    +0.111 C 
ATOM      5  C10 UNL     1       0.625   6.024 -17.095  0.00  0.00    +0.111 C 
ATOM      6  C11 UNL     1       1.200   5.115 -16.040  0.00  0.00    +0.232 C 
ATOM      7  O2  UNL     1       0.568   4.166 -15.604  0.00  0.00    -0.274 OA
ATOM      8  C12 UNL     1       0.457   5.384 -18.504  0.00  0.00    +0.093 C 
ATOM      9  C13 UNL     1       0.787   6.662 -19.254  0.00  0.00    +0.164 C 
ATOM     10  O3  UNL     1       0.095   7.301 -20.032  0.00  0.00    -0.295 OA
ATOM     11  C14 UNL     1       2.166   7.040 -18.752  0.00  0.00    +0.093 C 
ATOM     12  C15 UNL     1       2.738   5.661 -19.099  0.00  0.00    -0.017 C 
ATOM     13  C16 UNL     1       1.769   4.721 -18.952  0.00  0.00    -0.017 C 
ENDROOT
BRANCH  13  14
ATOM     14  C17 UNL     1       1.934   3.278 -19.144  0.00  0.00    -0.017 A 
ATOM     15  C18 UNL     1       1.956   2.730 -20.446  0.00  0.00    +0.012 A 
ATOM     16  C19 UNL     1       2.124   1.355 -20.645  0.00  0.00    +0.050 A 
ATOM     17  C20 UNL     1       2.280   0.561 -19.531  0.00  0.00    +0.166 A 
ATOM     18  O4  UNL     1       2.463  -0.787 -19.532  0.00  0.00    -0.453 OA
ATOM     19  C21 UNL     1       2.579  -1.047 -18.118  0.00  0.00    +0.466 C 
ATOM     20  O5  UNL     1       2.449   0.137 -17.305  0.00  0.00    -0.453 OA
ATOM     21  C22 UNL     1       2.270   1.087 -18.261  0.00  0.00    +0.167 A 
ATOM     22  C23 UNL     1       2.101   2.436 -18.034  0.00  0.00    +0.057 A 
ENDBRANCH  13  14
BRANCH  12  23
ATOM     23  C24 UNL     1       4.131   5.451 -19.529  0.00  0.00    -0.017 A 
ATOM     24  C25 UNL     1       4.426   5.247 -20.898  0.00  0.00    +0.012 A 
ATOM     25  C26 UNL     1       5.738   5.056 -21.345  0.00  0.00    +0.050 A 
ATOM     26  C27 UNL     1       6.741   5.079 -20.406  0.00  0.00    +0.166 A 
ATOM     27  O6  UNL     1       8.068   4.917 -20.651  0.00  0.00    -0.453 OA
ATOM     28  C28 UNL     1       8.607   5.059 -19.320  0.00  0.00    +0.466 C 
ATOM     29  O7  UNL     1       7.600   5.278 -18.312  0.00  0.00    -0.453 OA
ATOM     30  C29 UNL     1       6.474   5.288 -19.075  0.00  0.00    +0.167 A 
ATOM     31  C30 UNL     1       5.188   5.483 -18.608  0.00  0.00    +0.057 A 
ENDBRANCH  12  23
BRANCH   1  37
ATOM     32  C1  UNL     1       6.503   2.703 -14.799  0.00  0.00    +0.044 C 
ATOM     33  C2  UNL     1       5.311   3.469 -14.301  0.00  0.00    -0.049 A 
ATOM     34  C3  UNL     1       5.061   3.559 -12.933  0.00  0.00    +0.003 A 
ATOM     35  C4  UNL     1       3.965   4.280 -12.478  0.00  0.00    +0.002 A 
ATOM     36  C5  UNL     1       3.113   4.919 -13.387  0.00  0.00    +0.024 A 
ATOM     37  C6  UNL     1       3.335   4.860 -14.773  0.00  0.00    +0.044 A 
ATOM     38  C7  UNL     1       4.457   4.131 -15.205  0.00  0.00    +0.027 A 
ENDBRANCH   1  37
BRANCH  11  39
ATOM     39  C31 UNL     1       2.777   8.250 -19.428  0.00  0.00    -0.029 A 
ATOM     40  C32 UNL     1       3.211   9.353 -18.669  0.00  0.00    +0.005 A 
ATOM     41  C33 UNL     1       3.754  10.488 -19.275  0.00  0.00    +0.000 A 
ATOM     42  C34 UNL     1       3.873  10.548 -20.658  0.00  0.00    +0.000 A 
ATOM     43  C35 UNL     1       3.451   9.472 -21.432  0.00  0.00    +0.000 A 
ATOM     44  C36 UNL     1       2.908   8.335 -20.823  0.00  0.00    +0.005 A 
ENDBRANCH  11  39
BRANCH   8  45
ATOM     45  C37 UNL     1      -0.863   4.681 -18.759  0.00  0.00    -0.029 A 
ATOM     46  C38 UNL     1      -2.017   5.088 -18.060  0.00  0.00    +0.005 A 
ATOM     47  C39 UNL     1      -3.259   4.475 -18.257  0.00  0.00    +0.000 A 
ATOM     48  C40 UNL     1      -3.387   3.439 -19.171  0.00  0.00    +0.000 A 
ATOM     49  C41 UNL     1      -2.270   3.017 -19.881  0.00  0.00    +0.000 A 
ATOM     50  C42 UNL     1      -1.028   3.631 -19.677  0.00  0.00    +0.005 A 
ENDBRANCH   8  45
TORSDOF 5
ENDMDL
MODEL 3
REMARK VINA RESULT:    -7.794      9.068     12.271
REMARK INTER + INTRA:         -14.781
REMARK INTER:                  -9.943
REMARK INTRA:                  -4.838
REMARK UNBOUND:                -4.708
REMARK  Name = /home/vital/Documents/PhD_2021/Malaria_codes/data/pdb_ligands_mmv/ligand_318.pdb
REMARK  6 active torsions:
REMARK  status: ('A' for Active; 'I' for Inactive)
REMARK    1  A    between atoms: C1_1  and  C2_2
REMARK    2  A    between atoms: C6_6  and  N1_8
REMARK    3  A    between atoms: C12_15  and  C37_45
REMARK    4  A    between atoms: C14_18  and  C31_39
REMARK    5  A    between atoms: C15_19  and  C24_30
REMARK    6  A    between atoms: C16_20  and  C17_21
REMARK                            x       y       z     vdW  Elec       q    Type
REMARK                         _______ _______ _______ _____ _____    ______ ____
ROOT
ATOM      1  N1  UNL     1       0.345   3.447 -17.921  0.00  0.00    -0.210 N 
ATOM      2  C8  UNL     1       0.799   2.179 -18.204  0.00  0.00    +0.232 C 
ATOM      3  O1  UNL     1       0.446   1.424 -19.101  0.00  0.00    -0.274 OA
ATOM      4  C9  UNL     1       1.807   1.750 -17.181  0.00  0.00    +0.111 C 
ATOM      5  C10 UNL     1       1.786   2.889 -16.130  0.00  0.00    +0.111 C 
ATOM      6  C11 UNL     1       0.790   3.873 -16.687  0.00  0.00    +0.232 C 
ATOM      7  O2  UNL     1       0.472   4.877 -16.067  0.00  0.00    -0.274 OA
ATOM      8  C12 UNL     1       3.253   3.402 -16.048  0.00  0.00    +0.093 C 
ATOM      9  C13 UNL     1       3.868   2.051 -16.369  0.00  0.00    +0.164 C 
ATOM     10  O3  UNL     1       4.618   1.365 -15.693  0.00  0.00    -0.295 OA
ATOM     11  C14 UNL     1       3.267   1.681 -17.711  0.00  0.00    +0.093 C 
ATOM     12  C15 UNL     1       3.709   3.006 -18.343  0.00  0.00    -0.017 C 
ATOM     13  C16 UNL     1       3.694   3.982 -17.401  0.00  0.00    -0.017 C 
ENDROOT
BRANCH  13  14
ATOM     14  C17 UNL     1       4.008   5.397 -17.622  0.00  0.00    -0.017 A 
ATOM     15  C18 UNL     1       5.345   5.849 -17.562  0.00  0.00    +0.012 A 
ATOM     16  C19 UNL     1       5.660   7.194 -17.782  0.00  0.00    +0.050 A 
ATOM     17  C20 UNL     1       4.625   8.056 -18.072  0.00  0.00    +0.166 A 
ATOM     18  O4  UNL     1       4.743   9.387 -18.323  0.00  0.00    -0.453 OA
ATOM     19  C21 UNL     1       3.366   9.739 -18.571  0.00  0.00    +0.466 C 
ATOM     20  O5  UNL     1       2.458   8.626 -18.450  0.00  0.00    -0.453 OA
ATOM     21  C22 UNL     1       3.323   7.623 -18.143  0.00  0.00    +0.167 A 
ATOM     22  C23 UNL     1       2.981   6.305 -17.925  0.00  0.00    +0.057 A 
ENDBRANCH  13  14
BRANCH  12  23
ATOM     23  C24 UNL     1       4.088   3.135 -19.761  0.00  0.00    -0.017 A 
ATOM     24  C25 UNL     1       5.455   3.182 -20.126  0.00  0.00    +0.012 A 
ATOM     25  C26 UNL     1       5.853   3.292 -21.464  0.00  0.00    +0.050 A 
ATOM     26  C27 UNL     1       4.867   3.348 -22.419  0.00  0.00    +0.166 A 
ATOM     27  O6  UNL     1       5.060   3.452 -23.761  0.00  0.00    -0.453 OA
ATOM     28  C28 UNL     1       3.696   3.443 -24.232  0.00  0.00    +0.466 C 
ATOM     29  O7  UNL     1       2.723   3.357 -23.171  0.00  0.00    -0.453 OA
ATOM     30  C29 UNL     1       3.537   3.291 -22.083  0.00  0.00    +0.167 A 
ATOM     31  C30 UNL     1       3.117   3.179 -20.772  0.00  0.00    +0.057 A 
ENDBRANCH  12  23
BRANCH   1  37
ATOM     32  C1  UNL     1      -0.436   6.594 -21.745  0.00  0.00    +0.044 C 
ATOM     33  C2  UNL     1      -0.968   5.725 -20.642  0.00  0.00    -0.049 A 
ATOM     34  C3  UNL     1      -2.343   5.594 -20.458  0.00  0.00    +0.003 A 
ATOM     35  C4  UNL     1      -2.829   4.778 -19.445  0.00  0.00    +0.002 A 
ATOM     36  C5  UNL     1      -1.944   4.085 -18.611  0.00  0.00    +0.024 A 
ATOM     37  C6  UNL     1      -0.551   4.182 -18.768  0.00  0.00    +0.044 A 
ATOM     38  C7  UNL     1      -0.087   5.007 -19.808  0.00  0.00    +0.027 A 
ENDBRANCH   1  37
BRANCH  11  39
ATOM     39  C31 UNL     1       3.801   0.398 -18.311  0.00  0.00    -0.029 A 
ATOM     40  C32 UNL     1       2.927  -0.651 -18.657  0.00  0.00    +0.005 A 
ATOM     41  C33 UNL     1       3.402  -1.852 -19.188  0.00  0.00    +0.000 A 
ATOM     42  C34 UNL     1       4.765  -2.034 -19.385  0.00  0.00    +0.000 A 
ATOM     43  C35 UNL     1       5.651  -1.015 -19.051  0.00  0.00    +0.000 A 
ATOM     44  C36 UNL     1       5.174   0.188 -18.519  0.00  0.00    +0.005 A 
ENDBRANCH  11  39
BRANCH   8  45
ATOM     45  C37 UNL     1       3.633   4.116 -14.765  0.00  0.00    -0.029 A 
ATOM     46  C38 UNL     1       2.634   4.457 -13.832  0.00  0.00    +0.005 A 
ATOM     47  C39 UNL     1       2.929   5.115 -12.634  0.00  0.00    +0.000 A 
ATOM     48  C40 UNL     1       4.242   5.444 -12.325  0.00  0.00    +0.000 A 
ATOM     49  C41 UNL     1       5.253   5.117 -13.221  0.00  0.00    +0.000 A 
ATOM     50  C42 UNL     1       4.951   4.462 -14.421  0.00  0.00    +0.005 A 
ENDBRANCH   8  45
TORSDOF 5
ENDMDL
MODEL 4
REMARK VINA RESULT:    -7.715      9.561     13.387
REMARK INTER + INTRA:         -14.679
REMARK INTER:                 -10.330
REMARK INTRA:                  -4.349
REMARK UNBOUND:                -4.708
REMARK  Name = /home/vital/Documents/PhD_2021/Malaria_codes/data/pdb_ligands_mmv/ligand_318.pdb
REMARK  6 active torsions:
REMARK  status: ('A' for Active; 'I' for Inactive)
REMARK    1  A    between atoms: C1_1  and  C2_2
REMARK    2  A    between atoms: C6_6  and  N1_8
REMARK    3  A    between atoms: C12_15  and  C37_45
REMARK    4  A    between atoms: C14_18  and  C31_39
REMARK    5  A    between atoms: C15_19  and  C24_30
REMARK    6  A    between atoms: C16_20  and  C17_21
REMARK                            x       y       z     vdW  Elec       q    Type
REMARK                         _______ _______ _______ _____ _____    ______ ____
ROOT
ATOM      1  N1  UNL     1       4.240   3.368 -14.950  0.00  0.00    -0.210 N 
ATOM      2  C8  UNL     1       2.906   3.710 -14.966  0.00  0.00    +0.232 C 
ATOM      3  O1  UNL     1       2.348   4.634 -14.386  0.00  0.00    -0.274 OA
ATOM      4  C9  UNL     1       2.127   2.719 -15.776  0.00  0.00    +0.111 C 
ATOM      5  C10 UNL     1       3.163   1.621 -16.127  0.00  0.00    +0.111 C 
ATOM      6  C11 UNL     1       4.442   2.123 -15.508  0.00  0.00    +0.232 C 
ATOM      7  O2  UNL     1       5.467   1.457 -15.535  0.00  0.00    -0.274 OA
ATOM      8  C12 UNL     1       3.165   1.536 -17.681  0.00  0.00    +0.093 C 
ATOM      9  C13 UNL     1       1.703   1.922 -17.822  0.00  0.00    +0.164 C 
ATOM     10  O3  UNL     1       0.780   1.285 -18.305  0.00  0.00    -0.295 OA
ATOM     11  C14 UNL     1       1.609   3.270 -17.135  0.00  0.00    +0.093 C 
ATOM     12  C15 UNL     1       2.743   3.852 -17.986  0.00  0.00    -0.017 C 
ATOM     13  C16 UNL     1       3.629   2.869 -18.290  0.00  0.00    -0.017 C 
ENDROOT
BRANCH  13  14
ATOM     14  C17 UNL     1       4.871   3.035 -19.049  0.00  0.00    -0.017 A 
ATOM     15  C18 UNL     1       4.880   2.861 -20.451  0.00  0.00    +0.012 A 
ATOM     16  C19 UNL     1       6.056   3.028 -21.189  0.00  0.00    +0.050 A 
ATOM     17  C20 UNL     1       7.198   3.379 -20.504  0.00  0.00    +0.166 A 
ATOM     18  O4  UNL     1       8.424   3.591 -21.054  0.00  0.00    -0.453 OA
ATOM     19  C21 UNL     1       9.191   3.938 -19.883  0.00  0.00    +0.466 C 
ATOM     20  O5  UNL     1       8.421   3.912 -18.665  0.00  0.00    -0.453 OA
ATOM     21  C22 UNL     1       7.197   3.560 -19.142  0.00  0.00    +0.167 A 
ATOM     22  C23 UNL     1       6.055   3.397 -18.387  0.00  0.00    +0.057 A 
ENDBRANCH  13  14
BRANCH  12  23
ATOM     23  C24 UNL     1       2.804   5.267 -18.389  0.00  0.00    -0.017 A 
ATOM     24  C25 UNL     1       2.365   5.656 -19.677  0.00  0.00    +0.012 A 
ATOM     25  C26 UNL     1       2.396   6.993 -20.090  0.00  0.00    +0.050 A 
ATOM     26  C27 UNL     1       2.864   7.925 -19.196  0.00  0.00    +0.166 A 
ATOM     27  O6  UNL     1       2.965   9.263 -19.417  0.00  0.00    -0.453 OA
ATOM     28  C28 UNL     1       3.484   9.708 -18.146  0.00  0.00    +0.466 C 
ATOM     29  O7  UNL     1       3.704   8.635 -17.207  0.00  0.00    -0.453 OA
ATOM     30  C29 UNL     1       3.282   7.567 -17.938  0.00  0.00    +0.167 A 
ATOM     31  C30 UNL     1       3.258   6.256 -17.504  0.00  0.00    +0.057 A 
ENDBRANCH  12  23
BRANCH   1  37
ATOM     32  C1  UNL     1       7.294   7.342 -15.066  0.00  0.00    +0.044 C 
ATOM     33  C2  UNL     1       6.775   6.116 -14.372  0.00  0.00    -0.049 A 
ATOM     34  C3  UNL     1       7.258   5.771 -13.110  0.00  0.00    +0.003 A 
ATOM     35  C4  UNL     1       6.765   4.643 -12.467  0.00  0.00    +0.002 A 
ATOM     36  C5  UNL     1       5.783   3.855 -13.079  0.00  0.00    +0.024 A 
ATOM     37  C6  UNL     1       5.263   4.172 -14.345  0.00  0.00    +0.044 A 
ATOM     38  C7  UNL     1       5.774   5.325 -14.968  0.00  0.00    +0.027 A 
ENDBRANCH   1  37
BRANCH  11  39
ATOM     39  C31 UNL     1       0.249   3.930 -17.221  0.00  0.00    -0.029 A 
ATOM     40  C32 UNL     1      -0.488   3.903 -18.421  0.00  0.00    +0.005 A 
ATOM     41  C33 UNL     1      -1.732   4.529 -18.528  0.00  0.00    +0.000 A 
ATOM     42  C34 UNL     1      -2.270   5.198 -17.436  0.00  0.00    +0.000 A 
ATOM     43  C35 UNL     1      -1.563   5.241 -16.239  0.00  0.00    +0.000 A 
ATOM     44  C36 UNL     1      -0.317   4.614 -16.133  0.00  0.00    +0.005 A 
ENDBRANCH  11  39
BRANCH   8  45
ATOM     45  C37 UNL     1       3.659   0.229 -18.272  0.00  0.00    -0.029 A 
ATOM     46  C38 UNL     1       2.733  -0.773 -18.624  0.00  0.00    +0.005 A 
ATOM     47  C39 UNL     1       3.135  -1.995 -19.173  0.00  0.00    +0.000 A 
ATOM     48  C40 UNL     1       4.481  -2.249 -19.398  0.00  0.00    +0.000 A 
ATOM     49  C41 UNL     1       5.420  -1.279 -19.067  0.00  0.00    +0.000 A 
ATOM     50  C42 UNL     1       5.013  -0.059 -18.513  0.00  0.00    +0.005 A 
ENDBRANCH   8  45
TORSDOF 5
ENDMDL
MODEL 5
REMARK VINA RESULT:    -7.668      4.511      8.973
REMARK INTER + INTRA:         -14.618
REMARK INTER:                 -10.017
REMARK INTRA:                  -4.601
REMARK UNBOUND:                -4.708
REMARK  Name = /home/vital/Documents/PhD_2021/Malaria_codes/data/pdb_ligands_mmv/ligand_318.pdb
REMARK  6 active torsions:
REMARK  status: ('A' for Active; 'I' for Inactive)
REMARK    1  A    between atoms: C1_1  and  C2_2
REMARK    2  A    between atoms: C6_6  and  N1_8
REMARK    3  A    between atoms: C12_15  and  C37_45
REMARK    4  A    between atoms: C14_18  and  C31_39
REMARK    5  A    between atoms: C15_19  and  C24_30
REMARK    6  A    between atoms: C16_20  and  C17_21
REMARK                            x       y       z     vdW  Elec       q    Type
REMARK                         _______ _______ _______ _____ _____    ______ ____
ROOT
ATOM      1  N1  UNL     1       0.925  -5.806 -33.609  0.00  0.00    -0.210 N 
ATOM      2  C8  UNL     1       0.611  -4.746 -34.430  0.00  0.00    +0.232 C 
ATOM      3  O1  UNL     1      -0.223  -4.695 -35.326  0.00  0.00    -0.274 OA
ATOM      4  C9  UNL     1       1.510  -3.583 -34.141  0.00  0.00    +0.111 C 
ATOM      5  C10 UNL     1       2.536  -4.143 -33.122  0.00  0.00    +0.111 C 
ATOM      6  C11 UNL     1       2.088  -5.566 -32.907  0.00  0.00    +0.232 C 
ATOM      7  O2  UNL     1       2.724  -6.334 -32.201  0.00  0.00    -0.274 OA
ATOM      8  C12 UNL     1       2.429  -3.217 -31.876  0.00  0.00    +0.093 C 
ATOM      9  C13 UNL     1       2.059  -1.982 -32.679  0.00  0.00    +0.164 C 
ATOM     10  O3  UNL     1       2.650  -0.918 -32.775  0.00  0.00    -0.295 OA
ATOM     11  C14 UNL     1       0.808  -2.391 -33.431  0.00  0.00    +0.093 C 
ATOM     12  C15 UNL     1       0.103  -2.830 -32.142  0.00  0.00    -0.017 C 
ATOM     13  C16 UNL     1       1.022  -3.303 -31.264  0.00  0.00    -0.017 C 
ENDROOT
BRANCH  13  14
ATOM     14  C17 UNL     1       0.739  -3.859 -29.937  0.00  0.00    -0.017 A 
ATOM     15  C18 UNL     1       0.668  -5.257 -29.750  0.00  0.00    +0.012 A 
ATOM     16  C19 UNL     1       0.411  -5.801 -28.486  0.00  0.00    +0.050 A 
ATOM     17  C20 UNL     1       0.244  -4.928 -27.435  0.00  0.00    +0.166 A 
ATOM     18  O4  UNL     1      -0.003  -5.275 -26.143  0.00  0.00    -0.453 OA
ATOM     19  C21 UNL     1      -0.059  -3.976 -25.519  0.00  0.00    +0.466 C 
ATOM     20  O5  UNL     1       0.138  -2.887 -26.443  0.00  0.00    -0.453 OA
ATOM     21  C22 UNL     1       0.322  -3.567 -27.606  0.00  0.00    +0.167 A 
ATOM     22  C23 UNL     1       0.568  -3.002 -28.839  0.00  0.00    +0.057 A 
ENDBRANCH  13  14
BRANCH  12  23
ATOM     23  C24 UNL     1      -1.353  -2.720 -31.942  0.00  0.00    -0.017 A 
ATOM     24  C25 UNL     1      -1.889  -1.613 -31.241  0.00  0.00    +0.012 A 
ATOM     25  C26 UNL     1      -3.267  -1.469 -31.043  0.00  0.00    +0.050 A 
ATOM     26  C27 UNL     1      -4.091  -2.441 -31.560  0.00  0.00    +0.166 A 
ATOM     27  O6  UNL     1      -5.447  -2.468 -31.469  0.00  0.00    -0.453 OA
ATOM     28  C28 UNL     1      -5.740  -3.679 -32.198  0.00  0.00    +0.466 C 
ATOM     29  O7  UNL     1      -4.564  -4.357 -32.684  0.00  0.00    -0.453 OA
ATOM     30  C29 UNL     1      -3.587  -3.514 -32.253  0.00  0.00    +0.167 A 
ATOM     31  C30 UNL     1      -2.233  -3.677 -32.466  0.00  0.00    +0.057 A 
ENDBRANCH  12  23
BRANCH   1  37
ATOM     32  C1  UNL     1      -3.108  -8.407 -32.161  0.00  0.00    +0.044 C 
ATOM     33  C2  UNL     1      -1.788  -8.338 -32.873  0.00  0.00    -0.049 A 
ATOM     34  C3  UNL     1      -1.294  -9.458 -33.537  0.00  0.00    +0.003 A 
ATOM     35  C4  UNL     1      -0.078  -9.384 -34.206  0.00  0.00    +0.002 A 
ATOM     36  C5  UNL     1       0.648  -8.188 -34.218  0.00  0.00    +0.024 A 
ATOM     37  C6  UNL     1       0.181  -7.032 -33.569  0.00  0.00    +0.044 A 
ATOM     38  C7  UNL     1      -1.057  -7.134 -32.909  0.00  0.00    +0.027 A 
ENDBRANCH   1  37
BRANCH  11  39
ATOM     39  C31 UNL     1       0.169  -1.287 -34.246  0.00  0.00    -0.029 A 
ATOM     40  C32 UNL     1       0.003   0.002 -33.704  0.00  0.00    +0.005 A 
ATOM     41  C33 UNL     1      -0.606   1.027 -34.431  0.00  0.00    +0.000 A 
ATOM     42  C34 UNL     1      -1.067   0.787 -35.720  0.00  0.00    +0.000 A 
ATOM     43  C35 UNL     1      -0.916  -0.478 -36.279  0.00  0.00    +0.000 A 
ATOM     44  C36 UNL     1      -0.305  -1.504 -35.550  0.00  0.00    +0.005 A 
ENDBRANCH  11  39
BRANCH   8  45
ATOM     45  C37 UNL     1       3.643  -3.187 -30.967  0.00  0.00    -0.029 A 
ATOM     46  C38 UNL     1       3.712  -2.244 -29.924  0.00  0.00    +0.005 A 
ATOM     47  C39 UNL     1       4.807  -2.174 -29.056  0.00  0.00    +0.000 A 
ATOM     48  C40 UNL     1       5.867  -3.058 -29.201  0.00  0.00    +0.000 A 
ATOM     49  C41 UNL     1       5.828  -4.005 -30.217  0.00  0.00    +0.000 A 
ATOM     50  C42 UNL     1       4.732  -4.068 -31.085  0.00  0.00    +0.005 A 
ENDBRANCH   8  45
TORSDOF 5
ENDMDL
MODEL 6
REMARK VINA RESULT:    -7.656      5.080      7.463
REMARK INTER + INTRA:         -14.602
REMARK INTER:                 -10.304
REMARK INTRA:                  -4.298
REMARK UNBOUND:                -4.708
REMARK  Name = /home/vital/Documents/PhD_2021/Malaria_codes/data/pdb_ligands_mmv/ligand_318.pdb
REMARK  6 active torsions:
REMARK  status: ('A' for Active; 'I' for Inactive)
REMARK    1  A    between atoms: C1_1  and  C2_2
REMARK    2  A    between atoms: C6_6  and  N1_8
REMARK    3  A    between atoms: C12_15  and  C37_45
REMARK    4  A    between atoms: C14_18  and  C31_39
REMARK    5  A    between atoms: C15_19  and  C24_30
REMARK    6  A    between atoms: C16_20  and  C17_21
REMARK                            x       y       z     vdW  Elec       q    Type
REMARK                         _______ _______ _______ _____ _____    ______ ____
ROOT
ATOM      1  N1  UNL     1      -0.976  -7.562 -32.222  0.00  0.00    -0.210 N 
ATOM      2  C8  UNL     1       0.363  -7.361 -32.473  0.00  0.00    +0.232 C 
ATOM      3  O1  UNL     1       0.961  -7.441 -33.538  0.00  0.00    -0.274 OA
ATOM      4  C9  UNL     1       1.091  -7.077 -31.194  0.00  0.00    +0.111 C 
ATOM      5  C10 UNL     1       0.020  -7.292 -30.094  0.00  0.00    +0.111 C 
ATOM      6  C11 UNL     1      -1.225  -7.641 -30.868  0.00  0.00    +0.232 C 
ATOM      7  O2  UNL     1      -2.263  -7.945 -30.301  0.00  0.00    -0.274 OA
ATOM      8  C12 UNL     1      -0.040  -5.950 -29.308  0.00  0.00    +0.093 C 
ATOM      9  C13 UNL     1       1.424  -5.616 -29.535  0.00  0.00    +0.164 C 
ATOM     10  O3  UNL     1       2.315  -5.457 -28.715  0.00  0.00    -0.295 OA
ATOM     11  C14 UNL     1       1.572  -5.606 -31.043  0.00  0.00    +0.093 C 
ATOM     12  C15 UNL     1       0.419  -4.609 -31.212  0.00  0.00    -0.017 C 
ATOM     13  C16 UNL     1      -0.497  -4.809 -30.231  0.00  0.00    -0.017 C 
ENDROOT
BRANCH  13  14
ATOM     14  C17 UNL     1      -1.762  -4.087 -30.075  0.00  0.00    -0.017 A 
ATOM     15  C18 UNL     1      -1.822  -2.911 -29.294  0.00  0.00    +0.012 A 
ATOM     16  C19 UNL     1      -3.021  -2.205 -29.146  0.00  0.00    +0.050 A 
ATOM     17  C20 UNL     1      -4.133  -2.689 -29.798  0.00  0.00    +0.166 A 
ATOM     18  O4  UNL     1      -5.374  -2.132 -29.776  0.00  0.00    -0.453 OA
ATOM     19  C21 UNL     1      -6.095  -3.043 -30.632  0.00  0.00    +0.466 C 
ATOM     20  O5  UNL     1      -5.284  -4.125 -31.130  0.00  0.00    -0.453 OA
ATOM     21  C22 UNL     1      -4.082  -3.825 -30.568  0.00  0.00    +0.167 A 
ATOM     22  C23 UNL     1      -2.917  -4.545 -30.728  0.00  0.00    +0.057 A 
ENDBRANCH  13  14
BRANCH  12  23
ATOM     23  C24 UNL     1       0.374  -3.604 -32.288  0.00  0.00    -0.017 A 
ATOM     24  C25 UNL     1       0.855  -2.293 -32.052  0.00  0.00    +0.012 A 
ATOM     25  C26 UNL     1       0.839  -1.316 -33.054  0.00  0.00    +0.050 A 
ATOM     26  C27 UNL     1       0.344  -1.673 -34.285  0.00  0.00    +0.166 A 
ATOM     27  O6  UNL     1       0.253  -0.864 -35.374  0.00  0.00    -0.453 OA
ATOM     28  C28 UNL     1      -0.307  -1.777 -36.342  0.00  0.00    +0.466 C 
ATOM     29  O7  UNL     1      -0.558  -3.094 -35.811  0.00  0.00    -0.453 OA
ATOM     30  C29 UNL     1      -0.114  -2.943 -34.534  0.00  0.00    +0.167 A 
ATOM     31  C30 UNL     1      -0.106  -3.927 -33.565  0.00  0.00    +0.057 A 
ENDBRANCH  12  23
BRANCH   1  37
ATOM     32  C1  UNL     1      -4.795  -5.837 -34.974  0.00  0.00    +0.044 C 
ATOM     33  C2  UNL     1      -3.836  -6.936 -34.618  0.00  0.00    -0.049 A 
ATOM     34  C3  UNL     1      -3.869  -8.143 -35.315  0.00  0.00    +0.003 A 
ATOM     35  C4  UNL     1      -2.970  -9.152 -34.990  0.00  0.00    +0.002 A 
ATOM     36  C5  UNL     1      -2.031  -8.959 -33.970  0.00  0.00    +0.024 A 
ATOM     37  C6  UNL     1      -1.959  -7.754 -33.250  0.00  0.00    +0.044 A 
ATOM     38  C7  UNL     1      -2.874  -6.748 -33.607  0.00  0.00    +0.027 A 
ENDBRANCH   1  37
BRANCH  11  39
ATOM     39  C31 UNL     1       2.941  -5.197 -31.543  0.00  0.00    -0.029 A 
ATOM     40  C32 UNL     1       3.599  -4.077 -30.998  0.00  0.00    +0.005 A 
ATOM     41  C33 UNL     1       4.851  -3.668 -31.463  0.00  0.00    +0.000 A 
ATOM     42  C34 UNL     1       5.475  -4.369 -32.487  0.00  0.00    +0.000 A 
ATOM     43  C35 UNL     1       4.847  -5.478 -33.043  0.00  0.00    +0.000 A 
ATOM     44  C36 UNL     1       3.593  -5.887 -32.577  0.00  0.00    +0.005 A 
ENDBRANCH  11  39
BRANCH   8  45
ATOM     45  C37 UNL     1      -0.582  -6.035 -27.894  0.00  0.00    -0.029 A 
ATOM     46  C38 UNL     1       0.310  -6.136 -26.808  0.00  0.00    +0.005 A 
ATOM     47  C39 UNL     1      -0.137  -6.216 -25.485  0.00  0.00    +0.000 A 
ATOM     48  C40 UNL     1      -1.497  -6.186 -25.206  0.00  0.00    +0.000 A 
ATOM     49  C41 UNL     1      -2.403  -6.081 -26.254  0.00  0.00    +0.000 A 
ATOM     50  C42 UNL     1      -1.951  -6.006 -27.577  0.00  0.00    +0.005 A 
ENDBRANCH   8  45
TORSDOF 5
ENDMDL
MODEL 7
REMARK VINA RESULT:    -7.581      4.383      7.615
REMARK INTER + INTRA:         -14.505
REMARK INTER:                  -9.656
REMARK INTRA:                  -4.849
REMARK UNBOUND:                -4.708
REMARK  Name = /home/vital/Documents/PhD_2021/Malaria_codes/data/pdb_ligands_mmv/ligand_318.pdb
REMARK  6 active torsions:
REMARK  status: ('A' for Active; 'I' for Inactive)
REMARK    1  A    between atoms: C1_1  and  C2_2
REMARK    2  A    between atoms: C6_6  and  N1_8
REMARK    3  A    between atoms: C12_15  and  C37_45
REMARK    4  A    between atoms: C14_18  and  C31_39
REMARK    5  A    between atoms: C15_19  and  C24_30
REMARK    6  A    between atoms: C16_20  and  C17_21
REMARK                            x       y       z     vdW  Elec       q    Type
REMARK                         _______ _______ _______ _____ _____    ______ ____
ROOT
ATOM      1  N1  UNL     1       2.459  -5.121 -30.679  0.00  0.00    -0.210 N 
ATOM      2  C8  UNL     1       1.968  -5.356 -29.414  0.00  0.00    +0.232 C 
ATOM      3  O1  UNL     1       2.287  -4.823 -28.359  0.00  0.00    -0.274 OA
ATOM      4  C9  UNL     1       0.965  -6.470 -29.448  0.00  0.00    +0.111 C 
ATOM      5  C10 UNL     1       1.032  -6.993 -30.905  0.00  0.00    +0.111 C 
ATOM      6  C11 UNL     1       2.044  -6.093 -31.565  0.00  0.00    +0.232 C 
ATOM      7  O2  UNL     1       2.398  -6.271 -32.721  0.00  0.00    -0.274 OA
ATOM      8  C12 UNL     1      -0.420  -6.876 -31.454  0.00  0.00    +0.093 C 
ATOM      9  C13 UNL     1      -1.074  -7.110 -30.104  0.00  0.00    +0.164 C 
ATOM     10  O3  UNL     1      -1.831  -8.003 -29.758  0.00  0.00    -0.295 OA
ATOM     11  C14 UNL     1      -0.505  -6.016 -29.222  0.00  0.00    +0.093 C 
ATOM     12  C15 UNL     1      -0.921  -4.919 -30.208  0.00  0.00    -0.017 C 
ATOM     13  C16 UNL     1      -0.867  -5.405 -31.474  0.00  0.00    -0.017 C 
ENDROOT
BRANCH  13  14
ATOM     14  C17 UNL     1      -1.147  -4.652 -32.699  0.00  0.00    -0.017 A 
ATOM     15  C18 UNL     1      -2.471  -4.535 -33.178  0.00  0.00    +0.012 A 
ATOM     16  C19 UNL     1      -2.755  -3.809 -34.340  0.00  0.00    +0.050 A 
ATOM     17  C20 UNL     1      -1.703  -3.202 -34.989  0.00  0.00    +0.166 A 
ATOM     18  O4  UNL     1      -1.790  -2.453 -36.120  0.00  0.00    -0.453 OA
ATOM     19  C21 UNL     1      -0.409  -2.082 -36.307  0.00  0.00    +0.466 C 
ATOM     20  O5  UNL     1       0.472  -2.624 -35.303  0.00  0.00    -0.453 OA
ATOM     21  C22 UNL     1      -0.413  -3.301 -34.524  0.00  0.00    +0.167 A 
ATOM     22  C23 UNL     1      -0.102  -4.015 -33.386  0.00  0.00    +0.057 A 
ENDBRANCH  13  14
BRANCH  12  23
ATOM     23  C24 UNL     1      -1.319  -3.565 -29.786  0.00  0.00    -0.017 A 
ATOM     24  C25 UNL     1      -2.689  -3.212 -29.740  0.00  0.00    +0.012 A 
ATOM     25  C26 UNL     1      -3.106  -1.939 -29.332  0.00  0.00    +0.050 A 
ATOM     26  C27 UNL     1      -2.134  -1.037 -28.969  0.00  0.00    +0.166 A 
ATOM     27  O6  UNL     1      -2.347   0.237 -28.546  0.00  0.00    -0.453 OA
ATOM     28  C28 UNL     1      -0.992   0.669 -28.299  0.00  0.00    +0.466 C 
ATOM     29  O7  UNL     1      -0.004  -0.339 -28.599  0.00  0.00    -0.453 OA
ATOM     30  C29 UNL     1      -0.802  -1.367 -28.997  0.00  0.00    +0.167 A 
ATOM     31  C30 UNL     1      -0.365  -2.616 -29.391  0.00  0.00    +0.057 A 
ENDBRANCH  12  23
BRANCH   1  37
ATOM     32  C1  UNL     1       3.261  -0.397 -32.153  0.00  0.00    +0.044 C 
ATOM     33  C2  UNL     1       3.787  -1.734 -31.719  0.00  0.00    -0.049 A 
ATOM     34  C3  UNL     1       5.160  -1.934 -31.584  0.00  0.00    +0.003 A 
ATOM     35  C4  UNL     1       5.640  -3.170 -31.169  0.00  0.00    +0.002 A 
ATOM     36  C5  UNL     1       4.751  -4.212 -30.883  0.00  0.00    +0.024 A 
ATOM     37  C6  UNL     1       3.360  -4.050 -30.998  0.00  0.00    +0.044 A 
ATOM     38  C7  UNL     1       2.902  -2.786 -31.410  0.00  0.00    +0.027 A 
ENDBRANCH   1  37
BRANCH  11  39
ATOM     39  C31 UNL     1      -1.081  -5.966 -27.823  0.00  0.00    -0.029 A 
ATOM     40  C32 UNL     1      -0.244  -6.092 -26.697  0.00  0.00    +0.005 A 
ATOM     41  C33 UNL     1      -0.759  -6.074 -25.399  0.00  0.00    +0.000 A 
ATOM     42  C34 UNL     1      -2.126  -5.931 -25.195  0.00  0.00    +0.000 A 
ATOM     43  C35 UNL     1      -2.975  -5.806 -26.290  0.00  0.00    +0.000 A 
ATOM     44  C36 UNL     1      -2.458  -5.824 -27.589  0.00  0.00    +0.005 A 
ENDBRANCH  11  39
BRANCH   8  45
ATOM     45  C37 UNL     1      -0.761  -7.780 -32.623  0.00  0.00    -0.029 A 
ATOM     46  C38 UNL     1      -2.106  -7.943 -33.011  0.00  0.00    +0.005 A 
ATOM     47  C39 UNL     1      -2.476  -8.763 -34.082  0.00  0.00    +0.000 A 
ATOM     48  C40 UNL     1      -1.505  -9.441 -34.807  0.00  0.00    +0.000 A 
ATOM     49  C41 UNL     1      -0.169  -9.298 -34.454  0.00  0.00    +0.000 A 
ATOM     50  C42 UNL     1       0.195  -8.479 -33.378  0.00  0.00    +0.005 A 
ENDBRANCH   8  45
TORSDOF 5
ENDMDL
MODEL 8
REMARK VINA RESULT:    -7.334      3.455      6.366
REMARK INTER + INTRA:         -14.186
REMARK INTER:                  -9.462
REMARK INTRA:                  -4.723
REMARK UNBOUND:                -4.708
REMARK  Name = /home/vital/Documents/PhD_2021/Malaria_codes/data/pdb_ligands_mmv/ligand_318.pdb
REMARK  6 active torsions:
REMARK  status: ('A' for Active; 'I' for Inactive)
REMARK    1  A    between atoms: C1_1  and  C2_2
REMARK    2  A    between atoms: C6_6  and  N1_8
REMARK    3  A    between atoms: C12_15  and  C37_45
REMARK    4  A    between atoms: C14_18  and  C31_39
REMARK    5  A    between atoms: C15_19  and  C24_30
REMARK    6  A    between atoms: C16_20  and  C17_21
REMARK                            x       y       z     vdW  Elec       q    Type
REMARK                         _______ _______ _______ _____ _____    ______ ____
ROOT
ATOM      1  N1  UNL     1       3.908  -2.926 -30.913  0.00  0.00    -0.210 N 
ATOM      2  C8  UNL     1       3.778  -3.209 -29.572  0.00  0.00    +0.232 C 
ATOM      3  O1  UNL     1       4.122  -2.532 -28.611  0.00  0.00    -0.274 OA
ATOM      4  C9  UNL     1       3.183  -4.572 -29.386  0.00  0.00    +0.111 C 
ATOM      5  C10 UNL     1       3.115  -5.152 -30.822  0.00  0.00    +0.111 C 
ATOM      6  C11 UNL     1       3.645  -4.038 -31.686  0.00  0.00    +0.232 C 
ATOM      7  O2  UNL     1       3.797  -4.182 -32.890  0.00  0.00    -0.274 OA
ATOM      8  C12 UNL     1       1.618  -5.515 -31.050  0.00  0.00    +0.093 C 
ATOM      9  C13 UNL     1       1.353  -5.840 -29.590  0.00  0.00    +0.164 C 
ATOM     10  O3  UNL     1       0.995  -6.893 -29.087  0.00  0.00    -0.295 OA
ATOM     11  C14 UNL     1       1.722  -4.567 -28.855  0.00  0.00    +0.093 C 
ATOM     12  C15 UNL     1       0.798  -3.717 -29.736  0.00  0.00    -0.017 C 
ATOM     13  C16 UNL     1       0.745  -4.252 -30.982  0.00  0.00    -0.017 C 
ENDROOT
BRANCH  13  14
ATOM     14  C17 UNL     1       0.005  -3.706 -32.123  0.00  0.00    -0.017 A 
ATOM     15  C18 UNL     1      -1.359  -4.023 -32.307  0.00  0.00    +0.012 A 
ATOM     16  C19 UNL     1      -2.080  -3.498 -33.385  0.00  0.00    +0.050 A 
ATOM     17  C20 UNL     1      -1.418  -2.655 -34.250  0.00  0.00    +0.166 A 
ATOM     18  O4  UNL     1      -1.957  -2.049 -35.341  0.00  0.00    -0.453 OA
ATOM     19  C21 UNL     1      -0.823  -1.299 -35.823  0.00  0.00    +0.466 C 
ATOM     20  O5  UNL     1       0.366  -1.482 -35.028  0.00  0.00    -0.453 OA
ATOM     21  C22 UNL     1      -0.094  -2.333 -34.072  0.00  0.00    +0.167 A 
ATOM     22  C23 UNL     1       0.644  -2.839 -33.023  0.00  0.00    +0.057 A 
ENDBRANCH  13  14
BRANCH  12  23
ATOM     23  C24 UNL     1       0.094  -2.519 -29.245  0.00  0.00    -0.017 A 
ATOM     24  C25 UNL     1      -1.273  -2.598 -28.889  0.00  0.00    +0.012 A 
ATOM     25  C26 UNL     1      -1.971  -1.484 -28.407  0.00  0.00    +0.050 A 
ATOM     26  C27 UNL     1      -1.279  -0.303 -28.286  0.00  0.00    +0.166 A 
ATOM     27  O6  UNL     1      -1.786   0.876 -27.836  0.00  0.00    -0.453 OA
ATOM     28  C28 UNL     1      -0.616   1.718 -27.911  0.00  0.00    +0.466 C 
ATOM     29  O7  UNL     1       0.550   1.038 -28.420  0.00  0.00    -0.453 OA
ATOM     30  C29 UNL     1       0.051  -0.212 -28.616  0.00  0.00    +0.167 A 
ATOM     31  C30 UNL     1       0.763  -1.297 -29.089  0.00  0.00    +0.057 A 
ENDBRANCH  12  23
BRANCH   1  37
ATOM     32  C1  UNL     1       7.595   0.101 -32.454  0.00  0.00    +0.044 C 
ATOM     33  C2  UNL     1       6.139  -0.148 -32.185  0.00  0.00    -0.049 A 
ATOM     34  C3  UNL     1       5.198   0.841 -32.466  0.00  0.00    +0.003 A 
ATOM     35  C4  UNL     1       3.851   0.600 -32.227  0.00  0.00    +0.002 A 
ATOM     36  C5  UNL     1       3.436  -0.632 -31.710  0.00  0.00    +0.024 A 
ATOM     37  C6  UNL     1       4.351  -1.659 -31.421  0.00  0.00    +0.044 A 
ATOM     38  C7  UNL     1       5.707  -1.391 -31.682  0.00  0.00    +0.027 A 
ENDBRANCH   1  37
BRANCH  11  39
ATOM     39  C31 UNL     1       1.451  -4.594 -27.366  0.00  0.00    -0.029 A 
ATOM     40  C32 UNL     1       0.233  -5.092 -26.866  0.00  0.00    +0.005 A 
ATOM     41  C33 UNL     1      -0.046  -5.102 -25.498  0.00  0.00    +0.000 A 
ATOM     42  C34 UNL     1       0.889  -4.612 -24.594  0.00  0.00    +0.000 A 
ATOM     43  C35 UNL     1       2.101  -4.114 -25.061  0.00  0.00    +0.000 A 
ATOM     44  C36 UNL     1       2.379  -4.104 -26.432  0.00  0.00    +0.005 A 
ENDBRANCH  11  39
BRANCH   8  45
ATOM     45  C37 UNL     1       1.345  -6.560 -32.115  0.00  0.00    -0.029 A 
ATOM     46  C38 UNL     1       0.113  -7.244 -32.124  0.00  0.00    +0.005 A 
ATOM     47  C39 UNL     1      -0.190  -8.215 -33.084  0.00  0.00    +0.000 A 
ATOM     48  C40 UNL     1       0.731  -8.526 -34.075  0.00  0.00    +0.000 A 
ATOM     49  C41 UNL     1       1.953  -7.866 -34.098  0.00  0.00    +0.000 A 
ATOM     50  C42 UNL     1       2.254  -6.898 -33.132  0.00  0.00    +0.005 A 
ENDBRANCH   8  45
TORSDOF 5
ENDMDL
MODEL 9
REMARK VINA RESULT:    -7.221      3.110      5.971
REMARK INTER + INTRA:         -14.040
REMARK INTER:                  -9.301
REMARK INTRA:                  -4.738
REMARK UNBOUND:                -4.708
REMARK  Name = /home/vital/Documents/PhD_2021/Malaria_codes/data/pdb_ligands_mmv/ligand_318.pdb
REMARK  6 active torsions:
REMARK  status: ('A' for Active; 'I' for Inactive)
REMARK    1  A    between atoms: C1_1  and  C2_2
REMARK    2  A    between atoms: C6_6  and  N1_8
REMARK    3  A    between atoms: C12_15  and  C37_45
REMARK    4  A    between atoms: C14_18  and  C31_39
REMARK    5  A    between atoms: C15_19  and  C24_30
REMARK    6  A    between atoms: C16_20  and  C17_21
REMARK                            x       y       z     vdW  Elec       q    Type
REMARK                         _______ _______ _______ _____ _____    ______ ____
ROOT
ATOM      1  N1  UNL     1       4.312  -2.159 -31.185  0.00  0.00    -0.210 N 
ATOM      2  C8  UNL     1       4.381  -2.485 -29.849  0.00  0.00    +0.232 C 
ATOM      3  O1  UNL     1       4.824  -1.819 -28.922  0.00  0.00    -0.274 OA
ATOM      4  C9  UNL     1       3.877  -3.880 -29.631  0.00  0.00    +0.111 C 
ATOM      5  C10 UNL     1       3.637  -4.422 -31.063  0.00  0.00    +0.111 C 
ATOM      6  C11 UNL     1       3.994  -3.260 -31.952  0.00  0.00    +0.232 C 
ATOM      7  O2  UNL     1       3.984  -3.363 -33.170  0.00  0.00    -0.274 OA
ATOM      8  C12 UNL     1       2.141  -4.851 -31.096  0.00  0.00    +0.093 C 
ATOM      9  C13 UNL     1       2.094  -5.228 -29.626  0.00  0.00    +0.164 C 
ATOM     10  O3  UNL     1       1.855  -6.310 -29.115  0.00  0.00    -0.295 OA
ATOM     11  C14 UNL     1       2.504  -3.959 -28.906  0.00  0.00    +0.093 C 
ATOM     12  C15 UNL     1       1.431  -3.131 -29.622  0.00  0.00    -0.017 C 
ATOM     13  C16 UNL     1       1.231  -3.634 -30.867  0.00  0.00    -0.017 C 
ENDROOT
BRANCH  13  14
ATOM     14  C17 UNL     1       0.318  -3.092 -31.877  0.00  0.00    -0.017 A 
ATOM     15  C18 UNL     1      -1.048  -3.453 -31.872  0.00  0.00    +0.012 A 
ATOM     16  C19 UNL     1      -1.933  -2.934 -32.824  0.00  0.00    +0.050 A 
ATOM     17  C20 UNL     1      -1.429  -2.051 -33.753  0.00  0.00    +0.166 A 
ATOM     18  O4  UNL     1      -2.139  -1.443 -34.740  0.00  0.00    -0.453 OA
ATOM     19  C21 UNL     1      -1.111  -0.644 -35.361  0.00  0.00    +0.466 C 
ATOM     20  O5  UNL     1       0.185  -0.800 -34.749  0.00  0.00    -0.453 OA
ATOM     21  C22 UNL     1      -0.105  -1.686 -33.758  0.00  0.00    +0.167 A 
ATOM     22  C23 UNL     1       0.792  -2.185 -32.838  0.00  0.00    +0.057 A 
ENDBRANCH  13  14
BRANCH  12  23
ATOM     23  C24 UNL     1       0.750  -1.983 -29.000  0.00  0.00    -0.017 A 
ATOM     24  C25 UNL     1      -0.578  -2.117 -28.529  0.00  0.00    +0.012 A 
ATOM     25  C26 UNL     1      -1.252  -1.052 -27.921  0.00  0.00    +0.050 A 
ATOM     26  C27 UNL     1      -0.576   0.138 -27.790  0.00  0.00    +0.166 A 
ATOM     27  O6  UNL     1      -1.064   1.275 -27.227  0.00  0.00    -0.453 OA
ATOM     28  C28 UNL     1       0.077   2.149 -27.353  0.00  0.00    +0.466 C 
ATOM     29  O7  UNL     1       1.206   1.531 -28.004  0.00  0.00    -0.453 OA
ATOM     30  C29 UNL     1       0.716   0.281 -28.230  0.00  0.00    +0.167 A 
ATOM     31  C30 UNL     1       1.406  -0.755 -28.829  0.00  0.00    +0.057 A 
ENDBRANCH  12  23
BRANCH   1  37
ATOM     32  C1  UNL     1       7.572   1.033 -33.262  0.00  0.00    +0.044 C 
ATOM     33  C2  UNL     1       6.202   0.734 -32.726  0.00  0.00    -0.049 A 
ATOM     34  C3  UNL     1       5.207   1.709 -32.768  0.00  0.00    +0.003 A 
ATOM     35  C4  UNL     1       3.938   1.422 -32.282  0.00  0.00    +0.002 A 
ATOM     36  C5  UNL     1       3.653   0.156 -31.757  0.00  0.00    +0.024 A 
ATOM     37  C6  UNL     1       4.625  -0.858 -31.706  0.00  0.00    +0.044 A 
ATOM     38  C7  UNL     1       5.898  -0.542 -32.212  0.00  0.00    +0.027 A 
ENDBRANCH   1  37
BRANCH  11  39
ATOM     39  C31 UNL     1       2.443  -4.041 -27.395  0.00  0.00    -0.029 A 
ATOM     40  C32 UNL     1       3.597  -3.822 -26.617  0.00  0.00    +0.005 A 
ATOM     41  C33 UNL     1       3.567  -3.919 -25.224  0.00  0.00    +0.000 A 
ATOM     42  C34 UNL     1       2.381  -4.237 -24.574  0.00  0.00    +0.000 A 
ATOM     43  C35 UNL     1       1.227  -4.459 -25.319  0.00  0.00    +0.000 A 
ATOM     44  C36 UNL     1       1.258  -4.362 -26.714  0.00  0.00    +0.005 A 
ENDBRANCH  11  39
BRANCH   8  45
ATOM     45  C37 UNL     1       1.770  -5.877 -32.149  0.00  0.00    -0.029 A 
ATOM     46  C38 UNL     1       0.547  -6.570 -32.049  0.00  0.00    +0.005 A 
ATOM     47  C39 UNL     1       0.156  -7.526 -32.993  0.00  0.00    +0.000 A 
ATOM     48  C40 UNL     1       0.975  -7.811 -34.077  0.00  0.00    +0.000 A 
ATOM     49  C41 UNL     1       2.185  -7.141 -34.208  0.00  0.00    +0.000 A 
ATOM     50  C42 UNL     1       2.575  -6.189 -33.258  0.00  0.00    +0.005 A 
ENDBRANCH   8  45
TORSDOF 5
ENDMDL
