MODEL 1
REMARK VINA RESULT:    -5.135      0.000      0.000
REMARK INTER + INTRA:          -5.135
REMARK INTER:                  -5.135
REMARK INTRA:                   0.000
REMARK UNBOUND:                 0.000
REMARK  Name = /home/vital/Documents/PhD_2021/Malaria_codes/scripts/../data/pdbqt_ligands/ligand_302_temp.pdb
REMARK                            x       y       z     vdW  Elec       q    Type
REMARK                         _______ _______ _______ _____ _____    ______ ____
ROOT
ATOM      1  C1  UNL     1      15.178  26.585  29.065  0.00  0.00    -0.063 C 
ATOM      2  C2  UNL     1      16.390  27.432  28.679  0.00  0.00    -0.047 C 
ATOM      3  C3  UNL     1      16.191  28.884  29.115  0.00  0.00    -0.063 C 
ATOM      4  C4  UNL     1      16.738  27.311  27.184  0.00  0.00    -0.051 C 
ATOM      5  C5  UNL     1      15.669  27.835  26.216  0.00  0.00    -0.051 C 
ATOM      6  C6  UNL     1      16.107  27.642  24.760  0.00  0.00    -0.035 C 
ATOM      7  C7  UNL     1      15.135  28.254  23.738  0.00  0.00    +0.021 C 
ATOM      8  C8  UNL     1      13.759  27.587  23.758  0.00  0.00    -0.047 C 
ATOM      9  N1  UNL     1      15.712  28.146  22.406  0.00  0.00    -0.309 N 
ATOM     10  C9  UNL     1      15.408  29.023  21.386  0.00  0.00    +0.250 C 
ATOM     11  O1  UNL     1      14.723  30.028  21.555  0.00  0.00    -0.270 OA
ATOM     12  C10 UNL     1      15.953  28.652  20.085  0.00  0.00    +0.103 A 
ATOM     13  C11 UNL     1      15.878  29.421  18.927  0.00  0.00    +0.112 A 
ATOM     14  N2  UNL     1      15.337  30.646  18.749  0.00  0.00    -0.344 N 
ATOM     15  N3  UNL     1      16.484  28.726  17.901  0.00  0.00    -0.312 N 
ATOM     16  C12 UNL     1      16.628  29.160  16.522  0.00  0.00    +0.030 C 
ATOM     17  C13 UNL     1      15.362  28.967  15.683  0.00  0.00    -0.010 C 
ATOM     18  C14 UNL     1      15.000  27.521  15.446  0.00  0.00    -0.046 A 
ATOM     19  C15 UNL     1      14.011  26.901  16.221  0.00  0.00    -0.059 A 
ATOM     20  C16 UNL     1      13.691  25.559  16.017  0.00  0.00    -0.062 A 
ATOM     21  C17 UNL     1      14.355  24.823  15.037  0.00  0.00    -0.062 A 
ATOM     22  C18 UNL     1      15.343  25.428  14.263  0.00  0.00    -0.062 A 
ATOM     23  C19 UNL     1      15.664  26.772  14.466  0.00  0.00    -0.059 A 
ATOM     24  C20 UNL     1      16.975  27.540  18.384  0.00  0.00    +0.162 A 
ATOM     25  N4  UNL     1      17.647  26.601  17.688  0.00  0.00    -0.226 NA
ATOM     26  C21 UNL     1      17.954  25.524  18.429  0.00  0.00    +0.092 A 
ATOM     27  C22 UNL     1      18.624  24.475  17.814  0.00  0.00    -0.034 A 
ATOM     28  C23 UNL     1      18.980  23.323  18.516  0.00  0.00    -0.060 A 
ATOM     29  C24 UNL     1      18.662  23.217  19.862  0.00  0.00    -0.060 A 
ATOM     30  C25 UNL     1      17.988  24.264  20.495  0.00  0.00    -0.034 A 
ATOM     31  C26 UNL     1      17.624  25.416  19.808  0.00  0.00    +0.090 A 
ATOM     32  N5  UNL     1      16.972  26.378  20.483  0.00  0.00    -0.241 NA
ATOM     33  C27 UNL     1      16.643  27.463  19.728  0.00  0.00    +0.122 A 
ATOM     34  H   UNL     1      16.346  27.415  22.225  0.00  0.00    +0.000 HD
ATOM     35  H   UNL     1      14.913  31.111  19.506  0.00  0.00    +0.000 HD
ATOM     36  H   UNL     1      15.367  31.074  17.863  0.00  0.00    +0.000 HD
ENDROOT
TORSDOF 0
ENDMDL
MODEL 2
REMARK VINA RESULT:    -5.008      3.437      5.583
REMARK INTER + INTRA:          -5.008
REMARK INTER:                  -5.008
REMARK INTRA:                   0.000
REMARK UNBOUND:                 0.000
REMARK  Name = /home/vital/Documents/PhD_2021/Malaria_codes/scripts/../data/pdbqt_ligands/ligand_302_temp.pdb
REMARK                            x       y       z     vdW  Elec       q    Type
REMARK                         _______ _______ _______ _____ _____    ______ ____
ROOT
ATOM      1  C1  UNL     1      23.360  24.578  25.337  0.00  0.00    -0.063 C 
ATOM      2  C2  UNL     1      21.983  24.119  25.817  0.00  0.00    -0.047 C 
ATOM      3  C3  UNL     1      21.937  22.596  25.937  0.00  0.00    -0.063 C 
ATOM      4  C4  UNL     1      20.843  24.673  24.943  0.00  0.00    -0.051 C 
ATOM      5  C5  UNL     1      20.842  24.197  23.484  0.00  0.00    -0.051 C 
ATOM      6  C6  UNL     1      19.684  24.828  22.703  0.00  0.00    -0.035 C 
ATOM      7  C7  UNL     1      19.552  24.300  21.265  0.00  0.00    +0.021 C 
ATOM      8  C8  UNL     1      20.761  24.645  20.395  0.00  0.00    -0.047 C 
ATOM      9  N1  UNL     1      18.345  24.848  20.664  0.00  0.00    -0.309 N 
ATOM     10  C9  UNL     1      17.651  24.207  19.659  0.00  0.00    +0.250 C 
ATOM     11  O1  UNL     1      17.929  23.072  19.280  0.00  0.00    -0.270 OA
ATOM     12  C10 UNL     1      16.569  24.989  19.073  0.00  0.00    +0.103 A 
ATOM     13  C11 UNL     1      15.660  24.531  18.125  0.00  0.00    +0.112 A 
ATOM     14  N2  UNL     1      15.550  23.303  17.572  0.00  0.00    -0.344 N 
ATOM     15  N3  UNL     1      14.808  25.565  17.800  0.00  0.00    -0.312 N 
ATOM     16  C12 UNL     1      13.711  25.523  16.848  0.00  0.00    +0.030 C 
ATOM     17  C13 UNL     1      14.158  25.654  15.390  0.00  0.00    -0.010 C 
ATOM     18  C14 UNL     1      14.727  27.008  15.043  0.00  0.00    -0.046 A 
ATOM     19  C15 UNL     1      16.114  27.202  14.991  0.00  0.00    -0.059 A 
ATOM     20  C16 UNL     1      16.642  28.458  14.692  0.00  0.00    -0.062 A 
ATOM     21  C17 UNL     1      15.789  29.533  14.442  0.00  0.00    -0.062 A 
ATOM     22  C18 UNL     1      14.409  29.352  14.495  0.00  0.00    -0.062 A 
ATOM     23  C19 UNL     1      13.879  28.095  14.794  0.00  0.00    -0.059 A 
ATOM     24  C20 UNL     1      15.132  26.672  18.544  0.00  0.00    +0.162 A 
ATOM     25  N4  UNL     1      14.515  27.870  18.521  0.00  0.00    -0.226 NA
ATOM     26  C21 UNL     1      15.095  28.771  19.330  0.00  0.00    +0.092 A 
ATOM     27  C22 UNL     1      14.565  30.053  19.371  0.00  0.00    -0.034 A 
ATOM     28  C23 UNL     1      15.111  31.044  20.187  0.00  0.00    -0.060 A 
ATOM     29  C24 UNL     1      16.209  30.747  20.981  0.00  0.00    -0.060 A 
ATOM     30  C25 UNL     1      16.754  29.463  20.951  0.00  0.00    -0.034 A 
ATOM     31  C26 UNL     1      16.224  28.466  20.140  0.00  0.00    +0.090 A 
ATOM     32  N5  UNL     1      16.806  27.254  20.161  0.00  0.00    -0.241 NA
ATOM     33  C27 UNL     1      16.230  26.345  19.326  0.00  0.00    +0.122 A 
ATOM     34  H   UNL     1      18.009  25.715  20.988  0.00  0.00    +0.000 HD
ATOM     35  H   UNL     1      16.177  22.590  17.829  0.00  0.00    +0.000 HD
ATOM     36  H   UNL     1      14.842  23.122  16.911  0.00  0.00    +0.000 HD
ENDROOT
TORSDOF 0
ENDMDL
MODEL 3
REMARK VINA RESULT:    -4.776      4.185      6.128
REMARK INTER + INTRA:          -4.776
REMARK INTER:                  -4.776
REMARK INTRA:                   0.000
REMARK UNBOUND:                 0.000
REMARK  Name = /home/vital/Documents/PhD_2021/Malaria_codes/scripts/../data/pdbqt_ligands/ligand_302_temp.pdb
REMARK                            x       y       z     vdW  Elec       q    Type
REMARK                         _______ _______ _______ _____ _____    ______ ____
ROOT
ATOM      1  C1  UNL     1      25.270  24.784  23.262  0.00  0.00    -0.063 C 
ATOM      2  C2  UNL     1      24.032  24.553  24.129  0.00  0.00    -0.047 C 
ATOM      3  C3  UNL     1      23.905  23.076  24.501  0.00  0.00    -0.063 C 
ATOM      4  C4  UNL     1      22.750  25.108  23.480  0.00  0.00    -0.051 C 
ATOM      5  C5  UNL     1      22.339  24.439  22.162  0.00  0.00    -0.051 C 
ATOM      6  C6  UNL     1      21.070  25.084  21.593  0.00  0.00    -0.035 C 
ATOM      7  C7  UNL     1      20.534  24.382  20.334  0.00  0.00    +0.021 C 
ATOM      8  C8  UNL     1      21.501  24.466  19.154  0.00  0.00    -0.047 C 
ATOM      9  N1  UNL     1      19.257  24.976  19.964  0.00  0.00    -0.309 N 
ATOM     10  C9  UNL     1      18.283  24.285  19.275  0.00  0.00    +0.250 C 
ATOM     11  O1  UNL     1      18.368  23.085  19.027  0.00  0.00    -0.270 OA
ATOM     12  C10 UNL     1      17.148  25.097  18.850  0.00  0.00    +0.103 A 
ATOM     13  C11 UNL     1      15.994  24.619  18.238  0.00  0.00    +0.112 A 
ATOM     14  N2  UNL     1      15.654  23.348  17.933  0.00  0.00    -0.344 N 
ATOM     15  N3  UNL     1      15.168  25.689  17.966  0.00  0.00    -0.312 N 
ATOM     16  C12 UNL     1      13.863  25.641  17.329  0.00  0.00    +0.030 C 
ATOM     17  C13 UNL     1      13.928  25.519  15.805  0.00  0.00    -0.010 C 
ATOM     18  C14 UNL     1      14.490  26.740  15.116  0.00  0.00    -0.046 A 
ATOM     19  C15 UNL     1      15.827  26.766  14.699  0.00  0.00    -0.059 A 
ATOM     20  C16 UNL     1      16.352  27.902  14.082  0.00  0.00    -0.062 A 
ATOM     21  C17 UNL     1      15.548  29.021  13.877  0.00  0.00    -0.062 A 
ATOM     22  C18 UNL     1      14.217  29.007  14.291  0.00  0.00    -0.062 A 
ATOM     23  C19 UNL     1      13.690  27.871  14.909  0.00  0.00    -0.059 A 
ATOM     24  C20 UNL     1      15.754  26.843  18.422  0.00  0.00    +0.162 A 
ATOM     25  N4  UNL     1      15.243  28.089  18.356  0.00  0.00    -0.226 NA
ATOM     26  C21 UNL     1      16.078  29.020  18.843  0.00  0.00    +0.092 A 
ATOM     27  C22 UNL     1      15.674  30.348  18.804  0.00  0.00    -0.034 A 
ATOM     28  C23 UNL     1      16.484  31.373  19.293  0.00  0.00    -0.060 A 
ATOM     29  C24 UNL     1      17.723  31.066  19.834  0.00  0.00    -0.060 A 
ATOM     30  C25 UNL     1      18.144  29.736  19.880  0.00  0.00    -0.034 A 
ATOM     31  C26 UNL     1      17.350  28.704  19.394  0.00  0.00    +0.090 A 
ATOM     32  N5  UNL     1      17.826  27.449  19.469  0.00  0.00    -0.241 NA
ATOM     33  C27 UNL     1      16.988  26.505  18.956  0.00  0.00    +0.122 A 
ATOM     34  H   UNL     1      19.082  25.911  20.216  0.00  0.00    +0.000 HD
ATOM     35  H   UNL     1      16.271  22.610  18.142  0.00  0.00    +0.000 HD
ATOM     36  H   UNL     1      14.789  23.159  17.502  0.00  0.00    +0.000 HD
ENDROOT
TORSDOF 0
ENDMDL
MODEL 4
REMARK VINA RESULT:    -4.677      5.036      9.111
REMARK INTER + INTRA:          -4.677
REMARK INTER:                  -4.677
REMARK INTRA:                   0.000
REMARK UNBOUND:                 0.000
REMARK  Name = /home/vital/Documents/PhD_2021/Malaria_codes/scripts/../data/pdbqt_ligands/ligand_302_temp.pdb
REMARK                            x       y       z     vdW  Elec       q    Type
REMARK                         _______ _______ _______ _____ _____    ______ ____
ROOT
ATOM      1  C1  UNL     1      16.434  40.392  14.583  0.00  0.00    -0.063 C 
ATOM      2  C2  UNL     1      15.011  39.939  14.912  0.00  0.00    -0.047 C 
ATOM      3  C3  UNL     1      14.506  40.634  16.176  0.00  0.00    -0.063 C 
ATOM      4  C4  UNL     1      14.888  38.406  14.995  0.00  0.00    -0.051 C 
ATOM      5  C5  UNL     1      15.696  37.742  16.118  0.00  0.00    -0.051 C 
ATOM      6  C6  UNL     1      15.521  36.220  16.092  0.00  0.00    -0.035 C 
ATOM      7  C7  UNL     1      16.207  35.501  17.265  0.00  0.00    +0.021 C 
ATOM      8  C8  UNL     1      17.728  35.657  17.245  0.00  0.00    -0.047 C 
ATOM      9  N1  UNL     1      15.859  34.088  17.229  0.00  0.00    -0.309 N 
ATOM     10  C9  UNL     1      15.833  33.295  18.356  0.00  0.00    +0.250 C 
ATOM     11  O1  UNL     1      15.982  33.745  19.489  0.00  0.00    -0.270 OA
ATOM     12  C10 UNL     1      15.627  31.875  18.095  0.00  0.00    +0.103 A 
ATOM     13  C11 UNL     1      15.456  30.890  19.063  0.00  0.00    +0.112 A 
ATOM     14  N2  UNL     1      15.411  31.013  20.407  0.00  0.00    -0.344 N 
ATOM     15  N3  UNL     1      15.315  29.673  18.429  0.00  0.00    -0.312 N 
ATOM     16  C12 UNL     1      15.118  28.380  19.060  0.00  0.00    +0.030 C 
ATOM     17  C13 UNL     1      16.407  27.759  19.604  0.00  0.00    -0.010 C 
ATOM     18  C14 UNL     1      17.393  27.358  18.534  0.00  0.00    -0.046 A 
ATOM     19  C15 UNL     1      18.480  28.186  18.225  0.00  0.00    -0.059 A 
ATOM     20  C16 UNL     1      19.380  27.827  17.221  0.00  0.00    -0.062 A 
ATOM     21  C17 UNL     1      19.201  26.638  16.516  0.00  0.00    -0.062 A 
ATOM     22  C18 UNL     1      18.121  25.809  16.812  0.00  0.00    -0.062 A 
ATOM     23  C19 UNL     1      17.220  26.167  17.817  0.00  0.00    -0.059 A 
ATOM     24  C20 UNL     1      15.361  29.861  17.070  0.00  0.00    +0.162 A 
ATOM     25  N4  UNL     1      15.240  28.914  16.119  0.00  0.00    -0.226 NA
ATOM     26  C21 UNL     1      15.378  29.402  14.876  0.00  0.00    +0.092 A 
ATOM     27  C22 UNL     1      15.301  28.515  13.811  0.00  0.00    -0.034 A 
ATOM     28  C23 UNL     1      15.431  28.946  12.490  0.00  0.00    -0.060 A 
ATOM     29  C24 UNL     1      15.642  30.292  12.228  0.00  0.00    -0.060 A 
ATOM     30  C25 UNL     1      15.722  31.196  13.289  0.00  0.00    -0.034 A 
ATOM     31  C26 UNL     1      15.597  30.782  14.609  0.00  0.00    +0.090 A 
ATOM     32  N5  UNL     1      15.691  31.710  15.577  0.00  0.00    -0.241 NA
ATOM     33  C27 UNL     1      15.571  31.212  16.840  0.00  0.00    +0.122 A 
ATOM     34  H   UNL     1      15.634  33.681  16.361  0.00  0.00    +0.000 HD
ATOM     35  H   UNL     1      15.515  31.899  20.824  0.00  0.00    +0.000 HD
ATOM     36  H   UNL     1      15.273  30.217  20.971  0.00  0.00    +0.000 HD
ENDROOT
TORSDOF 0
ENDMDL
MODEL 5
REMARK VINA RESULT:    -4.531      4.627      6.483
REMARK INTER + INTRA:          -4.531
REMARK INTER:                  -4.531
REMARK INTRA:                   0.000
REMARK UNBOUND:                 0.000
REMARK  Name = /home/vital/Documents/PhD_2021/Malaria_codes/scripts/../data/pdbqt_ligands/ligand_302_temp.pdb
REMARK                            x       y       z     vdW  Elec       q    Type
REMARK                         _______ _______ _______ _____ _____    ______ ____
ROOT
ATOM      1  C1  UNL     1      15.138  37.828  23.714  0.00  0.00    -0.063 C 
ATOM      2  C2  UNL     1      16.361  38.098  22.839  0.00  0.00    -0.047 C 
ATOM      3  C3  UNL     1      16.177  39.390  22.043  0.00  0.00    -0.063 C 
ATOM      4  C4  UNL     1      16.714  36.900  21.938  0.00  0.00    -0.051 C 
ATOM      5  C5  UNL     1      15.654  36.530  20.891  0.00  0.00    -0.051 C 
ATOM      6  C6  UNL     1      16.096  35.313  20.071  0.00  0.00    -0.035 C 
ATOM      7  C7  UNL     1      15.134  34.962  18.924  0.00  0.00    +0.021 C 
ATOM      8  C8  UNL     1      13.751  34.539  19.420  0.00  0.00    -0.047 C 
ATOM      9  N1  UNL     1      15.715  33.893  18.124  0.00  0.00    -0.309 N 
ATOM     10  C9  UNL     1      15.425  33.716  16.788  0.00  0.00    +0.250 C 
ATOM     11  O1  UNL     1      14.751  34.515  16.143  0.00  0.00    -0.270 OA
ATOM     12  C10 UNL     1      15.971  32.496  16.205  0.00  0.00    +0.103 A 
ATOM     13  C11 UNL     1      15.910  32.144  14.860  0.00  0.00    +0.112 A 
ATOM     14  N2  UNL     1      15.383  32.829  13.821  0.00  0.00    -0.344 N 
ATOM     15  N3  UNL     1      16.511  30.913  14.702  0.00  0.00    -0.312 N 
ATOM     16  C12 UNL     1      16.665  30.172  13.462  0.00  0.00    +0.030 C 
ATOM     17  C13 UNL     1      15.401  29.422  13.035  0.00  0.00    -0.010 C 
ATOM     18  C14 UNL     1      15.023  28.285  13.952  0.00  0.00    -0.046 A 
ATOM     19  C15 UNL     1      14.025  28.456  14.920  0.00  0.00    -0.059 A 
ATOM     20  C16 UNL     1      13.690  27.412  15.783  0.00  0.00    -0.062 A 
ATOM     21  C17 UNL     1      14.350  26.188  15.687  0.00  0.00    -0.062 A 
ATOM     22  C18 UNL     1      15.348  26.008  14.731  0.00  0.00    -0.062 A 
ATOM     23  C19 UNL     1      15.683  27.052  13.867  0.00  0.00    -0.059 A 
ATOM     24  C20 UNL     1      16.987  30.482  15.915  0.00  0.00    +0.162 A 
ATOM     25  N4  UNL     1      17.652  29.335  16.160  0.00  0.00    -0.226 NA
ATOM     26  C21 UNL     1      17.944  29.169  17.460  0.00  0.00    +0.092 A 
ATOM     27  C22 UNL     1      18.604  28.009  17.841  0.00  0.00    -0.034 A 
ATOM     28  C23 UNL     1      18.945  27.766  19.172  0.00  0.00    -0.060 A 
ATOM     29  C24 UNL     1      18.620  28.702  20.143  0.00  0.00    -0.060 A 
ATOM     30  C25 UNL     1      17.956  29.873  19.775  0.00  0.00    -0.034 A 
ATOM     31  C26 UNL     1      17.607  30.128  18.455  0.00  0.00    +0.090 A 
ATOM     32  N5  UNL     1      16.963  31.276  18.178  0.00  0.00    -0.241 NA
ATOM     33  C27 UNL     1      16.649  31.436  16.863  0.00  0.00    +0.122 A 
ATOM     34  H   UNL     1      16.342  33.270  18.557  0.00  0.00    +0.000 HD
ATOM     35  H   UNL     1      14.961  33.705  13.973  0.00  0.00    +0.000 HD
ATOM     36  H   UNL     1      15.421  32.452  12.913  0.00  0.00    +0.000 HD
ENDROOT
TORSDOF 0
ENDMDL
MODEL 6
REMARK VINA RESULT:    -4.432      2.866      4.553
REMARK INTER + INTRA:          -4.432
REMARK INTER:                  -4.432
REMARK INTRA:                   0.000
REMARK UNBOUND:                 0.000
REMARK  Name = /home/vital/Documents/PhD_2021/Malaria_codes/scripts/../data/pdbqt_ligands/ligand_302_temp.pdb
REMARK                            x       y       z     vdW  Elec       q    Type
REMARK                         _______ _______ _______ _____ _____    ______ ____
ROOT
ATOM      1  C1  UNL     1      17.107  26.617  26.520  0.00  0.00    -0.063 C 
ATOM      2  C2  UNL     1      18.026  25.620  25.815  0.00  0.00    -0.047 C 
ATOM      3  C3  UNL     1      19.473  25.810  26.269  0.00  0.00    -0.063 C 
ATOM      4  C4  UNL     1      17.881  25.670  24.282  0.00  0.00    -0.051 C 
ATOM      5  C5  UNL     1      18.292  26.995  23.627  0.00  0.00    -0.051 C 
ATOM      6  C6  UNL     1      18.083  26.943  22.109  0.00  0.00    -0.035 C 
ATOM      7  C7  UNL     1      18.589  28.195  21.375  0.00  0.00    +0.021 C 
ATOM      8  C8  UNL     1      17.825  29.460  21.768  0.00  0.00    -0.047 C 
ATOM      9  N1  UNL     1      18.479  27.984  19.939  0.00  0.00    -0.309 N 
ATOM     10  C9  UNL     1      19.296  28.614  19.025  0.00  0.00    +0.250 C 
ATOM     11  O1  UNL     1      20.255  29.307  19.357  0.00  0.00    -0.270 OA
ATOM     12  C10 UNL     1      18.923  28.405  17.630  0.00  0.00    +0.103 A 
ATOM     13  C11 UNL     1      19.645  28.842  16.524  0.00  0.00    +0.112 A 
ATOM     14  N2  UNL     1      20.822  29.506  16.481  0.00  0.00    -0.344 N 
ATOM     15  N3  UNL     1      18.963  28.476  15.384  0.00  0.00    -0.312 N 
ATOM     16  C12 UNL     1      19.360  28.736  14.010  0.00  0.00    +0.030 C 
ATOM     17  C13 UNL     1      19.047  30.159  13.540  0.00  0.00    -0.010 C 
ATOM     18  C14 UNL     1      17.572  30.456  13.426  0.00  0.00    -0.046 A 
ATOM     19  C15 UNL     1      16.908  31.153  14.445  0.00  0.00    -0.059 A 
ATOM     20  C16 UNL     1      15.540  31.410  14.351  0.00  0.00    -0.062 A 
ATOM     21  C17 UNL     1      14.822  30.972  13.239  0.00  0.00    -0.062 A 
ATOM     22  C18 UNL     1      15.471  30.274  12.223  0.00  0.00    -0.062 A 
ATOM     23  C19 UNL     1      16.840  30.017  12.315  0.00  0.00    -0.059 A 
ATOM     24  C20 UNL     1      17.831  27.783  15.734  0.00  0.00    +0.162 A 
ATOM     25  N4  UNL     1      16.921  27.247  14.897  0.00  0.00    -0.226 NA
ATOM     26  C21 UNL     1      15.895  26.672  15.543  0.00  0.00    +0.092 A 
ATOM     27  C22 UNL     1      14.877  26.107  14.786  0.00  0.00    -0.034 A 
ATOM     28  C23 UNL     1      13.778  25.489  15.383  0.00  0.00    -0.060 A 
ATOM     29  C24 UNL     1      13.695  25.432  16.767  0.00  0.00    -0.060 A 
ATOM     30  C25 UNL     1      14.710  25.995  17.542  0.00  0.00    -0.034 A 
ATOM     31  C26 UNL     1      15.809  26.617  16.962  0.00  0.00    +0.090 A 
ATOM     32  N5  UNL     1      16.744  27.140  17.773  0.00  0.00    -0.241 NA
ATOM     33  C27 UNL     1      17.776  27.742  17.119  0.00  0.00    +0.122 A 
ATOM     34  H   UNL     1      17.790  27.364  19.606  0.00  0.00    +0.000 HD
ATOM     35  H   UNL     1      21.279  29.750  17.317  0.00  0.00    +0.000 HD
ATOM     36  H   UNL     1      21.221  29.744  15.613  0.00  0.00    +0.000 HD
ENDROOT
TORSDOF 0
ENDMDL
MODEL 7
REMARK VINA RESULT:    -4.386      1.933      2.347
REMARK INTER + INTRA:          -4.386
REMARK INTER:                  -4.386
REMARK INTRA:                   0.000
REMARK UNBOUND:                 0.000
REMARK  Name = /home/vital/Documents/PhD_2021/Malaria_codes/scripts/../data/pdbqt_ligands/ligand_302_temp.pdb
REMARK                            x       y       z     vdW  Elec       q    Type
REMARK                         _______ _______ _______ _____ _____    ______ ____
ROOT
ATOM      1  C1  UNL     1      15.690  29.679  27.852  0.00  0.00    -0.063 C 
ATOM      2  C2  UNL     1      16.930  30.400  27.323  0.00  0.00    -0.047 C 
ATOM      3  C3  UNL     1      16.821  31.905  27.568  0.00  0.00    -0.063 C 
ATOM      4  C4  UNL     1      17.218  30.065  25.847  0.00  0.00    -0.051 C 
ATOM      5  C5  UNL     1      16.143  30.516  24.849  0.00  0.00    -0.051 C 
ATOM      6  C6  UNL     1      16.519  30.110  23.420  0.00  0.00    -0.035 C 
ATOM      7  C7  UNL     1      15.543  30.636  22.354  0.00  0.00    +0.021 C 
ATOM      8  C8  UNL     1      14.137  30.055  22.501  0.00  0.00    -0.047 C 
ATOM      9  N1  UNL     1      16.066  30.323  21.032  0.00  0.00    -0.309 N 
ATOM     10  C9  UNL     1      15.772  31.074  19.914  0.00  0.00    +0.250 C 
ATOM     11  O1  UNL     1      15.146  32.130  19.968  0.00  0.00    -0.270 OA
ATOM     12  C10 UNL     1      16.250  30.508  18.658  0.00  0.00    +0.103 A 
ATOM     13  C11 UNL     1      16.174  31.121  17.412  0.00  0.00    +0.112 A 
ATOM     14  N2  UNL     1      15.690  32.341  17.089  0.00  0.00    -0.344 N 
ATOM     15  N3  UNL     1      16.707  30.266  16.470  0.00  0.00    -0.312 N 
ATOM     16  C12 UNL     1      16.823  30.507  15.042  0.00  0.00    +0.030 C 
ATOM     17  C13 UNL     1      15.521  30.276  14.272  0.00  0.00    -0.010 C 
ATOM     18  C14 UNL     1      15.077  28.834  14.239  0.00  0.00    -0.046 A 
ATOM     19  C15 UNL     1      14.086  28.376  15.118  0.00  0.00    -0.059 A 
ATOM     20  C16 UNL     1      13.690  27.039  15.102  0.00  0.00    -0.062 A 
ATOM     21  C17 UNL     1      14.281  26.145  14.210  0.00  0.00    -0.062 A 
ATOM     22  C18 UNL     1      15.270  26.589  13.335  0.00  0.00    -0.062 A 
ATOM     23  C19 UNL     1      15.667  27.927  13.349  0.00  0.00    -0.059 A 
ATOM     24  C20 UNL     1      17.153  29.127  17.092  0.00  0.00    +0.162 A 
ATOM     25  N4  UNL     1      17.752  28.070  16.508  0.00  0.00    -0.226 NA
ATOM     26  C21 UNL     1      18.029  27.084  17.375  0.00  0.00    +0.092 A 
ATOM     27  C22 UNL     1      18.623  25.928  16.886  0.00  0.00    -0.034 A 
ATOM     28  C23 UNL     1      18.944  24.860  17.724  0.00  0.00    -0.060 A 
ATOM     29  C24 UNL     1      18.668  24.949  19.081  0.00  0.00    -0.060 A 
ATOM     30  C25 UNL     1      18.072  26.105  19.588  0.00  0.00    -0.034 A 
ATOM     31  C26 UNL     1      17.743  27.175  18.765  0.00  0.00    +0.090 A 
ATOM     32  N5  UNL     1      17.166  28.253  19.326  0.00  0.00    -0.241 NA
ATOM     33  C27 UNL     1      16.866  29.246  18.443  0.00  0.00    +0.122 A 
ATOM     34  H   UNL     1      16.656  29.541  20.932  0.00  0.00    +0.000 HD
ATOM     35  H   UNL     1      15.318  32.923  17.789  0.00  0.00    +0.000 HD
ATOM     36  H   UNL     1      15.710  32.647  16.153  0.00  0.00    +0.000 HD
ENDROOT
TORSDOF 0
ENDMDL
