MODEL 1
REMARK VINA RESULT:    -4.907      0.000      0.000
REMARK INTER + INTRA:          -4.907
REMARK INTER:                  -4.907
REMARK INTRA:                   0.000
REMARK UNBOUND:                 0.000
REMARK  Name = /home/vital/Documents/PhD_2021/Malaria_codes/scripts/../data/pdbqt_ligands/ligand_195_temp.pdb
REMARK                            x       y       z     vdW  Elec       q    Type
REMARK                         _______ _______ _______ _____ _____    ______ ____
ROOT
ATOM      1  C1  UNL     1      14.144  47.342  24.843  0.00  0.00    -0.031 C 
ATOM      2  C2  UNL     1      13.954  47.265  26.348  0.00  0.00    +0.087 C 
ATOM      3  O1  UNL     1      14.795  46.229  26.844  0.00  0.00    -0.489 OA
ATOM      4  C3  UNL     1      14.768  45.970  28.192  0.00  0.00    +0.162 A 
ATOM      5  C4  UNL     1      13.994  46.674  29.118  0.00  0.00    -0.016 A 
ATOM      6  C5  UNL     1      14.033  46.340  30.475  0.00  0.00    -0.053 A 
ATOM      7  C6  UNL     1      14.843  45.293  30.931  0.00  0.00    -0.024 A 
ATOM      8  C7  UNL     1      14.894  44.970  32.416  0.00  0.00    +0.046 C 
ATOM      9  C8  UNL     1      14.592  43.494  32.694  0.00  0.00    -0.042 C 
ATOM     10  N1  UNL     1      16.190  45.364  32.951  0.00  0.00    -0.305 N 
ATOM     11  C9  UNL     1      16.380  45.555  34.302  0.00  0.00    +0.245 C 
ATOM     12  O2  UNL     1      15.509  45.375  35.145  0.00  0.00    -0.270 OA
ATOM     13  C10 UNL     1      17.723  46.042  34.721  0.00  0.00    +0.038 A 
ATOM     14  C11 UNL     1      17.824  46.778  35.906  0.00  0.00    -0.048 A 
ATOM     15  C12 UNL     1      19.067  47.246  36.343  0.00  0.00    -0.041 A 
ATOM     16  C13 UNL     1      20.219  46.971  35.601  0.00  0.00    +0.058 A 
ATOM     17 CL1  UNL     1      21.723  47.578  36.195  0.00  0.00    -0.082 Cl
ATOM     18  C14 UNL     1      20.132  46.221  34.422  0.00  0.00    +0.071 A 
ATOM     19  C15 UNL     1      21.291  45.904  33.641  0.00  0.00    +0.101 C 
ATOM     20  N2  UNL     1      22.202  45.625  32.978  0.00  0.00    -0.191 NA
ATOM     21  C16 UNL     1      18.880  45.755  33.985  0.00  0.00    -0.031 A 
ATOM     22  C17 UNL     1      15.627  44.591  29.998  0.00  0.00    -0.011 A 
ATOM     23  C18 UNL     1      15.591  44.916  28.636  0.00  0.00    +0.162 A 
ATOM     24  O3  UNL     1      16.328  44.281  27.668  0.00  0.00    -0.489 OA
ATOM     25  C19 UNL     1      17.058  43.115  28.041  0.00  0.00    +0.087 C 
ATOM     26  C20 UNL     1      17.693  42.541  26.787  0.00  0.00    -0.031 C 
ATOM     27  H   UNL     1      16.947  45.495  32.335  0.00  0.00    +0.000 HD
ENDROOT
TORSDOF 0
ENDMDL
MODEL 2
REMARK VINA RESULT:    -4.437     19.999     23.989
REMARK INTER + INTRA:          -4.437
REMARK INTER:                  -4.437
REMARK INTRA:                   0.000
REMARK UNBOUND:                 0.000
REMARK  Name = /home/vital/Documents/PhD_2021/Malaria_codes/scripts/../data/pdbqt_ligands/ligand_195_temp.pdb
REMARK                            x       y       z     vdW  Elec       q    Type
REMARK                         _______ _______ _______ _____ _____    ______ ____
ROOT
ATOM      1  C1  UNL     1      20.196  25.465  22.925  0.00  0.00    -0.031 C 
ATOM      2  C2  UNL     1      19.567  25.249  21.559  0.00  0.00    +0.087 C 
ATOM      3  O1  UNL     1      18.403  26.064  21.478  0.00  0.00    -0.489 OA
ATOM      4  C3  UNL     1      17.661  26.011  20.324  0.00  0.00    +0.162 A 
ATOM      5  C4  UNL     1      17.986  25.235  19.209  0.00  0.00    -0.016 A 
ATOM      6  C5  UNL     1      17.169  25.247  18.074  0.00  0.00    -0.053 A 
ATOM      7  C6  UNL     1      16.010  26.031  18.034  0.00  0.00    -0.024 A 
ATOM      8  C7  UNL     1      15.157  26.053  16.777  0.00  0.00    +0.046 C 
ATOM      9  C8  UNL     1      13.690  25.721  17.072  0.00  0.00    -0.042 C 
ATOM     10  N1  UNL     1      15.294  27.347  16.122  0.00  0.00    -0.305 N 
ATOM     11  C9  UNL     1      14.963  27.518  14.796  0.00  0.00    +0.245 C 
ATOM     12  O2  UNL     1      14.501  26.631  14.089  0.00  0.00    -0.270 OA
ATOM     13  C10 UNL     1      15.230  28.862  14.215  0.00  0.00    +0.038 A 
ATOM     14  C11 UNL     1      15.469  28.957  12.839  0.00  0.00    -0.048 A 
ATOM     15  C12 UNL     1      15.713  30.200  12.249  0.00  0.00    -0.041 A 
ATOM     16  C13 UNL     1      15.709  31.359  13.030  0.00  0.00    +0.058 A 
ATOM     17 CL1  UNL     1      16.019  32.864  12.240  0.00  0.00    -0.082 Cl
ATOM     18  C14 UNL     1      15.455  31.278  14.404  0.00  0.00    +0.071 A 
ATOM     19  C15 UNL     1      15.426  32.444  15.238  0.00  0.00    +0.101 C 
ATOM     20  N2  UNL     1      15.395  33.361  15.949  0.00  0.00    -0.191 NA
ATOM     21  C16 UNL     1      15.212  30.026  14.995  0.00  0.00    -0.031 A 
ATOM     22  C17 UNL     1      15.690  26.817  19.155  0.00  0.00    -0.011 A 
ATOM     23  C18 UNL     1      16.500  26.809  20.298  0.00  0.00    +0.162 A 
ATOM     24  O3  UNL     1      16.255  27.551  21.427  0.00  0.00    -0.489 OA
ATOM     25  C19 UNL     1      15.019  28.255  21.510  0.00  0.00    +0.087 C 
ATOM     26  C20 UNL     1      14.939  28.899  22.882  0.00  0.00    -0.031 C 
ATOM     27  H   UNL     1      15.629  28.115  16.638  0.00  0.00    +0.000 HD
ENDROOT
TORSDOF 0
ENDMDL
MODEL 3
REMARK VINA RESULT:    -4.357     20.865     24.374
REMARK INTER + INTRA:          -4.357
REMARK INTER:                  -4.357
REMARK INTRA:                   0.000
REMARK UNBOUND:                 0.000
REMARK  Name = /home/vital/Documents/PhD_2021/Malaria_codes/scripts/../data/pdbqt_ligands/ligand_195_temp.pdb
REMARK                            x       y       z     vdW  Elec       q    Type
REMARK                         _______ _______ _______ _____ _____    ______ ____
ROOT
ATOM      1  C1  UNL     1      21.861  22.760  19.900  0.00  0.00    -0.031 C 
ATOM      2  C2  UNL     1      20.716  23.024  18.937  0.00  0.00    +0.087 C 
ATOM      3  O1  UNL     1      19.872  24.011  19.520  0.00  0.00    -0.489 OA
ATOM      4  C3  UNL     1      18.752  24.391  18.822  0.00  0.00    +0.162 A 
ATOM      5  C4  UNL     1      18.399  23.899  17.563  0.00  0.00    -0.016 A 
ATOM      6  C5  UNL     1      17.238  24.348  16.927  0.00  0.00    -0.053 A 
ATOM      7  C6  UNL     1      16.406  25.294  17.538  0.00  0.00    -0.024 A 
ATOM      8  C7  UNL     1      15.167  25.791  16.811  0.00  0.00    +0.046 C 
ATOM      9  C8  UNL     1      13.902  25.638  17.661  0.00  0.00    -0.042 C 
ATOM     10  N1  UNL     1      15.372  27.172  16.396  0.00  0.00    -0.305 N 
ATOM     11  C9  UNL     1      14.608  27.743  15.403  0.00  0.00    +0.245 C 
ATOM     12  O2  UNL     1      13.690  27.166  14.833  0.00  0.00    -0.270 OA
ATOM     13  C10 UNL     1      14.969  29.131  15.004  0.00  0.00    +0.038 A 
ATOM     14  C11 UNL     1      14.666  29.550  13.704  0.00  0.00    -0.048 A 
ATOM     15  C12 UNL     1      14.977  30.848  13.290  0.00  0.00    -0.041 A 
ATOM     16  C13 UNL     1      15.584  31.740  14.178  0.00  0.00    +0.058 A 
ATOM     17 CL1  UNL     1      15.943  33.329  13.604  0.00  0.00    -0.082 Cl
ATOM     18  C14 UNL     1      15.876  31.337  15.486  0.00  0.00    +0.071 A 
ATOM     19  C15 UNL     1      16.483  32.226  16.433  0.00  0.00    +0.101 C 
ATOM     20  N2  UNL     1      16.975  32.911  17.231  0.00  0.00    -0.191 NA
ATOM     21  C16 UNL     1      15.564  30.031  15.899  0.00  0.00    -0.031 A 
ATOM     22  C17 UNL     1      16.769  25.793  18.801  0.00  0.00    -0.011 A 
ATOM     23  C18 UNL     1      17.928  25.347  19.449  0.00  0.00    +0.162 A 
ATOM     24  O3  UNL     1      18.348  25.789  20.679  0.00  0.00    -0.489 OA
ATOM     25  C19 UNL     1      17.475  26.639  21.418  0.00  0.00    +0.087 C 
ATOM     26  C20 UNL     1      18.110  26.897  22.772  0.00  0.00    -0.031 C 
ATOM     27  H   UNL     1      16.072  27.708  16.834  0.00  0.00    +0.000 HD
ENDROOT
TORSDOF 0
ENDMDL
MODEL 4
REMARK VINA RESULT:    -4.184     22.326     25.955
REMARK INTER + INTRA:          -4.184
REMARK INTER:                  -4.184
REMARK INTRA:                   0.000
REMARK UNBOUND:                 0.000
REMARK  Name = /home/vital/Documents/PhD_2021/Malaria_codes/scripts/../data/pdbqt_ligands/ligand_195_temp.pdb
REMARK                            x       y       z     vdW  Elec       q    Type
REMARK                         _______ _______ _______ _____ _____    ______ ____
ROOT
ATOM      1  C1  UNL     1      24.293  22.772  20.007  0.00  0.00    -0.031 C 
ATOM      2  C2  UNL     1      23.109  22.613  19.069  0.00  0.00    +0.087 C 
ATOM      3  O1  UNL     1      21.977  23.219  19.685  0.00  0.00    -0.489 OA
ATOM      4  C3  UNL     1      20.781  23.176  19.014  0.00  0.00    +0.162 A 
ATOM      5  C4  UNL     1      20.602  22.605  17.751  0.00  0.00    -0.016 A 
ATOM      6  C5  UNL     1      19.344  22.609  17.142  0.00  0.00    -0.053 A 
ATOM      7  C6  UNL     1      18.239  23.181  17.786  0.00  0.00    -0.024 A 
ATOM      8  C7  UNL     1      16.888  23.203  17.089  0.00  0.00    +0.046 C 
ATOM      9  C8  UNL     1      15.784  22.590  17.957  0.00  0.00    -0.042 C 
ATOM     10  N1  UNL     1      16.569  24.570  16.699  0.00  0.00    -0.305 N 
ATOM     11  C9  UNL     1      15.627  24.837  15.730  0.00  0.00    +0.245 C 
ATOM     12  O2  UNL     1      14.969  23.973  15.163  0.00  0.00    -0.270 OA
ATOM     13  C10 UNL     1      15.451  26.267  15.353  0.00  0.00    +0.038 A 
ATOM     14  C11 UNL     1      14.988  26.563  14.067  0.00  0.00    -0.048 A 
ATOM     15  C12 UNL     1      14.797  27.891  13.674  0.00  0.00    -0.041 A 
ATOM     16  C13 UNL     1      15.059  28.931  14.570  0.00  0.00    +0.058 A 
ATOM     17 CL1  UNL     1      14.804  30.549  14.022  0.00  0.00    -0.082 Cl
ATOM     18  C14 UNL     1      15.506  28.645  15.865  0.00  0.00    +0.071 A 
ATOM     19  C15 UNL     1      15.770  29.682  16.820  0.00  0.00    +0.101 C 
ATOM     20  N2  UNL     1      15.998  30.488  17.622  0.00  0.00    -0.191 NA
ATOM     21  C16 UNL     1      15.699  27.309  16.256  0.00  0.00    -0.031 A 
ATOM     22  C17 UNL     1      18.424  23.761  19.053  0.00  0.00    -0.011 A 
ATOM     23  C18 UNL     1      19.680  23.758  19.673  0.00  0.00    +0.162 A 
ATOM     24  O3  UNL     1      19.938  24.307  20.904  0.00  0.00    -0.489 OA
ATOM     25  C19 UNL     1      18.834  24.772  21.674  0.00  0.00    +0.087 C 
ATOM     26  C20 UNL     1      19.362  25.226  23.023  0.00  0.00    -0.031 C 
ATOM     27  H   UNL     1      17.036  25.318  17.137  0.00  0.00    +0.000 HD
ENDROOT
TORSDOF 0
ENDMDL
MODEL 5
REMARK VINA RESULT:    -4.083      5.549      9.579
REMARK INTER + INTRA:          -4.083
REMARK INTER:                  -4.083
REMARK INTRA:                   0.000
REMARK UNBOUND:                 0.000
REMARK  Name = /home/vital/Documents/PhD_2021/Malaria_codes/scripts/../data/pdbqt_ligands/ligand_195_temp.pdb
REMARK                            x       y       z     vdW  Elec       q    Type
REMARK                         _______ _______ _______ _____ _____    ______ ____
ROOT
ATOM      1  C1  UNL     1      13.812  38.955  27.871  0.00  0.00    -0.031 C 
ATOM      2  C2  UNL     1      13.691  40.001  26.777  0.00  0.00    +0.087 C 
ATOM      3  O1  UNL     1      14.273  41.209  27.258  0.00  0.00    -0.489 OA
ATOM      4  C3  UNL     1      14.256  42.303  26.430  0.00  0.00    +0.162 A 
ATOM      5  C4  UNL     1      13.734  42.308  25.133  0.00  0.00    -0.016 A 
ATOM      6  C5  UNL     1      13.763  43.473  24.361  0.00  0.00    -0.053 A 
ATOM      7  C6  UNL     1      14.309  44.657  24.872  0.00  0.00    -0.024 A 
ATOM      8  C7  UNL     1      14.360  45.902  24.001  0.00  0.00    +0.046 C 
ATOM      9  C8  UNL     1      13.714  47.110  24.688  0.00  0.00    -0.042 C 
ATOM     10  N1  UNL     1      15.740  46.172  23.624  0.00  0.00    -0.305 N 
ATOM     11  C9  UNL     1      16.045  46.977  22.548  0.00  0.00    +0.245 C 
ATOM     12  O2  UNL     1      15.204  47.548  21.865  0.00  0.00    -0.270 OA
ATOM     13  C10 UNL     1      17.488  47.107  22.206  0.00  0.00    +0.038 A 
ATOM     14  C11 UNL     1      17.834  47.394  20.881  0.00  0.00    -0.048 A 
ATOM     15  C12 UNL     1      19.176  47.537  20.518  0.00  0.00    -0.041 A 
ATOM     16  C13 UNL     1      20.181  47.403  21.480  0.00  0.00    +0.058 A 
ATOM     17 CL1  UNL     1      21.819  47.589  20.965  0.00  0.00    -0.082 Cl
ATOM     18  C14 UNL     1      19.845  47.132  22.812  0.00  0.00    +0.071 A 
ATOM     19  C15 UNL     1      20.844  47.004  23.832  0.00  0.00    +0.101 C 
ATOM     20  N2  UNL     1      21.618  46.891  24.689  0.00  0.00    -0.191 NA
ATOM     21  C16 UNL     1      18.495  46.988  23.173  0.00  0.00    -0.031 A 
ATOM     22  C17 UNL     1      14.841  44.647  26.174  0.00  0.00    -0.011 A 
ATOM     23  C18 UNL     1      14.813  43.486  26.956  0.00  0.00    +0.162 A 
ATOM     24  O3  UNL     1      15.314  43.398  28.231  0.00  0.00    -0.489 OA
ATOM     25  C19 UNL     1      15.749  44.598  28.863  0.00  0.00    +0.087 C 
ATOM     26  C20 UNL     1      16.150  44.258  30.287  0.00  0.00    -0.031 C 
ATOM     27  H   UNL     1      16.471  45.772  24.149  0.00  0.00    +0.000 HD
ENDROOT
TORSDOF 0
ENDMDL
MODEL 6
REMARK VINA RESULT:    -4.015     22.260     25.930
REMARK INTER + INTRA:          -4.015
REMARK INTER:                  -4.015
REMARK INTRA:                   0.000
REMARK UNBOUND:                 0.000
REMARK  Name = /home/vital/Documents/PhD_2021/Malaria_codes/scripts/../data/pdbqt_ligands/ligand_195_temp.pdb
REMARK                            x       y       z     vdW  Elec       q    Type
REMARK                         _______ _______ _______ _____ _____    ______ ____
ROOT
ATOM      1  C1  UNL     1      25.971  24.422  18.649  0.00  0.00    -0.031 C 
ATOM      2  C2  UNL     1      24.670  23.930  18.039  0.00  0.00    +0.087 C 
ATOM      3  O1  UNL     1      23.596  24.447  18.817  0.00  0.00    -0.489 OA
ATOM      4  C3  UNL     1      22.317  24.109  18.452  0.00  0.00    +0.162 A 
ATOM      5  C4  UNL     1      21.992  23.316  17.348  0.00  0.00    -0.016 A 
ATOM      6  C5  UNL     1      20.658  23.025  17.051  0.00  0.00    -0.053 A 
ATOM      7  C6  UNL     1      19.622  23.518  17.855  0.00  0.00    -0.024 A 
ATOM      8  C7  UNL     1      18.177  23.216  17.492  0.00  0.00    +0.046 C 
ATOM      9  C8  UNL     1      17.409  22.592  18.662  0.00  0.00    -0.042 C 
ATOM     10  N1  UNL     1      17.534  24.433  17.015  0.00  0.00    -0.305 N 
ATOM     11  C9  UNL     1      16.380  24.387  16.265  0.00  0.00    +0.245 C 
ATOM     12  O2  UNL     1      15.793  23.351  15.980  0.00  0.00    -0.270 OA
ATOM     13  C10 UNL     1      15.866  25.690  15.759  0.00  0.00    +0.038 A 
ATOM     14  C11 UNL     1      15.102  25.694  14.587  0.00  0.00    -0.048 A 
ATOM     15  C12 UNL     1      14.590  26.893  14.083  0.00  0.00    -0.041 A 
ATOM     16  C13 UNL     1      14.830  28.095  14.754  0.00  0.00    +0.058 A 
ATOM     17 CL1  UNL     1      14.170  29.541  14.078  0.00  0.00    -0.082 Cl
ATOM     18  C14 UNL     1      15.580  28.100  15.936  0.00  0.00    +0.071 A 
ATOM     19  C15 UNL     1      15.836  29.309  16.664  0.00  0.00    +0.101 C 
ATOM     20  N2  UNL     1      16.068  30.263  17.283  0.00  0.00    -0.191 NA
ATOM     21  C16 UNL     1      16.095  26.894  16.439  0.00  0.00    -0.031 A 
ATOM     22  C17 UNL     1      19.951  24.322  18.960  0.00  0.00    -0.011 A 
ATOM     23  C18 UNL     1      21.286  24.616  19.267  0.00  0.00    +0.162 A 
ATOM     24  O3  UNL     1      21.685  25.395  20.325  0.00  0.00    -0.489 OA
ATOM     25  C19 UNL     1      20.695  25.805  21.264  0.00  0.00    +0.087 C 
ATOM     26  C20 UNL     1      21.395  26.552  22.385  0.00  0.00    -0.031 C 
ATOM     27  H   UNL     1      17.933  25.306  17.234  0.00  0.00    +0.000 HD
ENDROOT
TORSDOF 0
ENDMDL
MODEL 7
REMARK VINA RESULT:    -3.984      4.774      7.710
REMARK INTER + INTRA:          -3.984
REMARK INTER:                  -3.984
REMARK INTRA:                   0.000
REMARK UNBOUND:                 0.000
REMARK  Name = /home/vital/Documents/PhD_2021/Malaria_codes/scripts/../data/pdbqt_ligands/ligand_195_temp.pdb
REMARK                            x       y       z     vdW  Elec       q    Type
REMARK                         _______ _______ _______ _____ _____    ______ ____
ROOT
ATOM      1  C1  UNL     1      22.842  46.708  20.493  0.00  0.00    -0.031 C 
ATOM      2  C2  UNL     1      21.448  47.007  21.018  0.00  0.00    +0.087 C 
ATOM      3  O1  UNL     1      20.929  45.812  21.592  0.00  0.00    -0.489 OA
ATOM      4  C3  UNL     1      19.661  45.850  22.116  0.00  0.00    +0.162 A 
ATOM      5  C4  UNL     1      18.853  46.990  22.153  0.00  0.00    -0.016 A 
ATOM      6  C5  UNL     1      17.572  46.933  22.710  0.00  0.00    -0.053 A 
ATOM      7  C6  UNL     1      17.073  45.736  23.237  0.00  0.00    -0.024 A 
ATOM      8  C7  UNL     1      15.690  45.708  23.867  0.00  0.00    +0.046 C 
ATOM      9  C8  UNL     1      14.802  44.618  23.257  0.00  0.00    -0.042 C 
ATOM     10  N1  UNL     1      15.820  45.551  25.309  0.00  0.00    -0.305 N 
ATOM     11  C9  UNL     1      14.789  45.880  26.162  0.00  0.00    +0.245 C 
ATOM     12  O2  UNL     1      13.695  46.281  25.785  0.00  0.00    -0.270 OA
ATOM     13  C10 UNL     1      15.071  45.761  27.619  0.00  0.00    +0.038 A 
ATOM     14  C11 UNL     1      14.353  46.573  28.504  0.00  0.00    -0.048 A 
ATOM     15  C12 UNL     1      14.577  46.487  29.880  0.00  0.00    -0.041 A 
ATOM     16  C13 UNL     1      15.514  45.580  30.383  0.00  0.00    +0.058 A 
ATOM     17 CL1  UNL     1      15.744  45.524  32.094  0.00  0.00    -0.082 Cl
ATOM     18  C14 UNL     1      16.226  44.751  29.508  0.00  0.00    +0.071 A 
ATOM     19  C15 UNL     1      17.184  43.796  29.983  0.00  0.00    +0.101 C 
ATOM     20  N2  UNL     1      17.968  43.012  30.324  0.00  0.00    -0.191 NA
ATOM     21  C16 UNL     1      16.000  44.842  28.124  0.00  0.00    -0.031 A 
ATOM     22  C17 UNL     1      17.891  44.593  23.205  0.00  0.00    -0.011 A 
ATOM     23  C18 UNL     1      19.174  44.639  22.645  0.00  0.00    +0.162 A 
ATOM     24  O3  UNL     1      20.031  43.568  22.582  0.00  0.00    -0.489 OA
ATOM     25  C19 UNL     1      19.532  42.289  22.964  0.00  0.00    +0.087 C 
ATOM     26  C20 UNL     1      20.622  41.265  22.703  0.00  0.00    -0.031 C 
ATOM     27  H   UNL     1      16.661  45.202  25.683  0.00  0.00    +0.000 HD
ENDROOT
TORSDOF 0
ENDMDL
MODEL 8
REMARK VINA RESULT:    -3.959      4.849      7.494
REMARK INTER + INTRA:          -3.959
REMARK INTER:                  -3.959
REMARK INTRA:                   0.000
REMARK UNBOUND:                 0.000
REMARK  Name = /home/vital/Documents/PhD_2021/Malaria_codes/scripts/../data/pdbqt_ligands/ligand_195_temp.pdb
REMARK                            x       y       z     vdW  Elec       q    Type
REMARK                         _______ _______ _______ _____ _____    ______ ____
ROOT
ATOM      1  C1  UNL     1      21.094  42.180  21.025  0.00  0.00    -0.031 C 
ATOM      2  C2  UNL     1      20.261  43.276  21.667  0.00  0.00    +0.087 C 
ATOM      3  O1  UNL     1      19.042  42.695  22.117  0.00  0.00    -0.489 OA
ATOM      4  C3  UNL     1      18.121  43.518  22.717  0.00  0.00    +0.162 A 
ATOM      5  C4  UNL     1      18.310  44.883  22.947  0.00  0.00    -0.016 A 
ATOM      6  C5  UNL     1      17.315  45.642  23.569  0.00  0.00    -0.053 A 
ATOM      7  C6  UNL     1      16.110  45.052  23.970  0.00  0.00    -0.024 A 
ATOM      8  C7  UNL     1      15.057  45.891  24.675  0.00  0.00    +0.046 C 
ATOM      9  C8  UNL     1      13.691  45.795  23.988  0.00  0.00    -0.042 C 
ATOM     10  N1  UNL     1      14.984  45.498  26.075  0.00  0.00    -0.305 N 
ATOM     11  C9  UNL     1      14.422  46.324  27.023  0.00  0.00    +0.245 C 
ATOM     12  O2  UNL     1      13.914  47.409  26.767  0.00  0.00    -0.270 OA
ATOM     13  C10 UNL     1      14.484  45.853  28.434  0.00  0.00    +0.038 A 
ATOM     14  C11 UNL     1      14.479  46.809  29.456  0.00  0.00    -0.048 A 
ATOM     15  C12 UNL     1      14.525  46.411  30.794  0.00  0.00    -0.041 A 
ATOM     16  C13 UNL     1      14.566  45.052  31.121  0.00  0.00    +0.058 A 
ATOM     17 CL1  UNL     1      14.624  44.627  32.794  0.00  0.00    -0.082 Cl
ATOM     18  C14 UNL     1      14.556  44.087  30.107  0.00  0.00    +0.071 A 
ATOM     19  C15 UNL     1      14.581  42.684  30.400  0.00  0.00    +0.101 C 
ATOM     20  N2  UNL     1      14.602  41.539  30.590  0.00  0.00    -0.191 NA
ATOM     21  C16 UNL     1      14.511  44.491  28.762  0.00  0.00    -0.031 A 
ATOM     22  C17 UNL     1      15.926  43.676  23.745  0.00  0.00    -0.011 A 
ATOM     23  C18 UNL     1      16.916  42.908  23.119  0.00  0.00    +0.162 A 
ATOM     24  O3  UNL     1      16.810  41.562  22.869  0.00  0.00    -0.489 OA
ATOM     25  C19 UNL     1      15.557  40.932  23.117  0.00  0.00    +0.087 C 
ATOM     26  C20 UNL     1      15.662  39.488  22.664  0.00  0.00    -0.031 C 
ATOM     27  H   UNL     1      15.342  44.624  26.350  0.00  0.00    +0.000 HD
ENDROOT
TORSDOF 0
ENDMDL
MODEL 9
REMARK VINA RESULT:    -3.767     18.936     23.571
REMARK INTER + INTRA:          -3.767
REMARK INTER:                  -3.767
REMARK INTRA:                   0.000
REMARK UNBOUND:                 0.000
REMARK  Name = /home/vital/Documents/PhD_2021/Malaria_codes/scripts/../data/pdbqt_ligands/ligand_195_temp.pdb
REMARK                            x       y       z     vdW  Elec       q    Type
REMARK                         _______ _______ _______ _____ _____    ______ ____
ROOT
ATOM      1  C1  UNL     1      16.354  36.611  18.278  0.00  0.00    -0.031 C 
ATOM      2  C2  UNL     1      15.912  35.581  17.253  0.00  0.00    +0.087 C 
ATOM      3  O1  UNL     1      16.996  34.683  17.038  0.00  0.00    -0.489 OA
ATOM      4  C3  UNL     1      16.821  33.672  16.125  0.00  0.00    +0.162 A 
ATOM      5  C4  UNL     1      15.639  33.443  15.415  0.00  0.00    -0.016 A 
ATOM      6  C5  UNL     1      15.553  32.384  14.506  0.00  0.00    -0.053 A 
ATOM      7  C6  UNL     1      16.646  31.538  14.286  0.00  0.00    -0.024 A 
ATOM      8  C7  UNL     1      16.517  30.373  13.318  0.00  0.00    +0.046 C 
ATOM      9  C8  UNL     1      17.618  30.386  12.253  0.00  0.00    -0.042 C 
ATOM     10  N1  UNL     1      16.505  29.123  14.064  0.00  0.00    -0.305 N 
ATOM     11  C9  UNL     1      16.016  27.961  13.510  0.00  0.00    +0.245 C 
ATOM     12  O2  UNL     1      15.600  27.877  12.361  0.00  0.00    -0.270 OA
ATOM     13  C10 UNL     1      15.974  26.768  14.400  0.00  0.00    +0.038 A 
ATOM     14  C11 UNL     1      15.020  25.778  14.140  0.00  0.00    -0.048 A 
ATOM     15  C12 UNL     1      14.952  24.636  14.943  0.00  0.00    -0.041 A 
ATOM     16  C13 UNL     1      15.846  24.472  16.005  0.00  0.00    +0.058 A 
ATOM     17 CL1  UNL     1      15.708  23.039  16.959  0.00  0.00    -0.082 Cl
ATOM     18  C14 UNL     1      16.814  25.449  16.264  0.00  0.00    +0.071 A 
ATOM     19  C15 UNL     1      17.759  25.311  17.333  0.00  0.00    +0.101 C 
ATOM     20  N2  UNL     1      18.542  25.242  18.187  0.00  0.00    -0.191 NA
ATOM     21  C16 UNL     1      16.878  26.596  15.456  0.00  0.00    -0.031 A 
ATOM     22  C17 UNL     1      17.831  31.767  15.008  0.00  0.00    -0.011 A 
ATOM     23  C18 UNL     1      17.929  32.827  15.918  0.00  0.00    +0.162 A 
ATOM     24  O3  UNL     1      19.048  33.110  16.661  0.00  0.00    -0.489 OA
ATOM     25  C19 UNL     1      20.239  32.382  16.380  0.00  0.00    +0.087 C 
ATOM     26  C20 UNL     1      21.349  32.949  17.246  0.00  0.00    -0.031 C 
ATOM     27  H   UNL     1      16.855  29.107  14.985  0.00  0.00    +0.000 HD
ENDROOT
TORSDOF 0
ENDMDL
