MODEL 1
REMARK VINA RESULT:    -4.853      0.000      0.000
REMARK INTER + INTRA:          -4.853
REMARK INTER:                  -4.853
REMARK INTRA:                   0.000
REMARK UNBOUND:                 0.000
REMARK  Name = /home/vital/Documents/PhD_2021/Malaria_codes/scripts/../data/pdbqt_ligands/ligand_172_temp.pdb
REMARK                            x       y       z     vdW  Elec       q    Type
REMARK                         _______ _______ _______ _____ _____    ______ ____
ROOT
ATOM      1  O   UNL     1      14.720  24.060  14.531  0.00  0.00    -0.394 OA
ATOM      2  C   UNL     1      14.719  25.435  14.162  0.00  0.00    +0.057 C 
ATOM      3  C   UNL     1      15.880  26.175  14.837  0.00  0.00    +0.020 C 
ATOM      4  N   UNL     1      16.060  27.561  14.427  0.00  0.00    -0.301 N 
ATOM      5  C   UNL     1      14.947  28.488  14.646  0.00  0.00    +0.092 C 
ATOM      6  C   UNL     1      14.892  29.011  16.129  0.00  0.00    +0.122 C 
ATOM      7  N   UNL     1      14.565  28.146  17.148  0.00  0.00    -0.293 N 
ATOM      8  C   UNL     1      14.477  28.338  18.497  0.00  0.00    +0.109 C 
ATOM      9  C   UNL     1      14.077  27.373  19.267  0.00  0.00    +0.074 C 
ATOM     10  N   UNL     1      13.970  27.484  20.696  0.00  0.00    -0.346 NA
ATOM     11  C   UNL     1      14.249  28.532  21.444  0.00  0.00    +0.209 C 
ATOM     12 CL   UNL     1      14.057  28.474  23.129  0.00  0.00    -0.046 Cl
ATOM     13  C   UNL     1      14.728  29.687  20.591  0.00  0.00    +0.093 C 
ATOM     14 CL   UNL     1      15.149  31.151  21.390  0.00  0.00    -0.079 Cl
ATOM     15  C   UNL     1      14.824  29.568  19.239  0.00  0.00    -0.008 C 
ATOM     16  N   UNL     1      15.155  30.287  16.238  0.00  0.00    -0.235 N 
ATOM     17  C   UNL     1      15.344  30.778  14.939  0.00  0.00    +0.071 A 
ATOM     18  C   UNL     1      15.611  32.089  14.592  0.00  0.00    -0.036 A 
ATOM     19  C   UNL     1      15.759  32.402  13.237  0.00  0.00    -0.060 A 
ATOM     20  C   UNL     1      15.638  31.404  12.255  0.00  0.00    -0.061 A 
ATOM     21  C   UNL     1      15.370  30.082  12.614  0.00  0.00    -0.055 A 
ATOM     22  C   UNL     1      15.224  29.791  13.961  0.00  0.00    +0.002 A 
ATOM     23  H   UNL     1      13.981  23.607  14.096  0.00  0.00    +0.000 HD
ATOM     24  H   UNL     1      16.261  27.558  13.426  0.00  0.00    +0.000 HD
ATOM     25  H   UNL     1      16.807  27.911  15.025  0.00  0.00    +0.000 HD
ATOM     26  H   UNL     1      14.359  27.229  16.853  0.00  0.00    +0.000 HD
ATOM     27  H   UNL     1      15.209  30.805  17.074  0.00  0.00    +0.000 HD
ENDROOT
TORSDOF 0
ENDMDL
MODEL 2
REMARK VINA RESULT:    -4.478      1.952      1.986
REMARK INTER + INTRA:          -4.478
REMARK INTER:                  -4.478
REMARK INTRA:                   0.000
REMARK UNBOUND:                 0.000
REMARK  Name = /home/vital/Documents/PhD_2021/Malaria_codes/scripts/../data/pdbqt_ligands/ligand_172_temp.pdb
REMARK                            x       y       z     vdW  Elec       q    Type
REMARK                         _______ _______ _______ _____ _____    ______ ____
ROOT
ATOM      1  O   UNL     1      14.768  24.098  14.171  0.00  0.00    -0.394 OA
ATOM      2  C   UNL     1      14.600  25.512  14.151  0.00  0.00    +0.057 C 
ATOM      3  C   UNL     1      15.935  26.217  14.420  0.00  0.00    +0.020 C 
ATOM      4  N   UNL     1      15.912  27.667  14.291  0.00  0.00    -0.301 N 
ATOM      5  C   UNL     1      15.001  28.416  15.158  0.00  0.00    +0.092 C 
ATOM      6  C   UNL     1      15.591  28.628  16.601  0.00  0.00    +0.122 C 
ATOM      7  N   UNL     1      15.742  27.549  17.443  0.00  0.00    -0.293 N 
ATOM      8  C   UNL     1      16.246  27.461  18.709  0.00  0.00    +0.109 C 
ATOM      9  C   UNL     1      16.224  26.328  19.341  0.00  0.00    +0.074 C 
ATOM     10  N   UNL     1      16.746  26.143  20.667  0.00  0.00    -0.346 NA
ATOM     11  C   UNL     1      17.316  27.045  21.439  0.00  0.00    +0.209 C 
ATOM     12 CL   UNL     1      17.873  26.636  22.989  0.00  0.00    -0.046 Cl
ATOM     13  C   UNL     1      17.372  28.388  20.744  0.00  0.00    +0.093 C 
ATOM     14 CL   UNL     1      18.091  29.700  21.593  0.00  0.00    -0.079 Cl
ATOM     15  C   UNL     1      16.874  28.549  19.488  0.00  0.00    -0.008 C 
ATOM     16  N   UNL     1      15.868  29.876  16.869  0.00  0.00    -0.235 N 
ATOM     17  C   UNL     1      15.473  30.631  15.756  0.00  0.00    +0.071 A 
ATOM     18  C   UNL     1      15.557  32.005  15.629  0.00  0.00    -0.036 A 
ATOM     19  C   UNL     1      15.102  32.592  14.445  0.00  0.00    -0.060 A 
ATOM     20  C   UNL     1      14.573  31.802  13.411  0.00  0.00    -0.061 A 
ATOM     21  C   UNL     1      14.492  30.415  13.546  0.00  0.00    -0.055 A 
ATOM     22  C   UNL     1      14.946  29.850  14.728  0.00  0.00    +0.002 A 
ATOM     23  H   UNL     1      13.916  23.669  13.999  0.00  0.00    +0.000 HD
ATOM     24  H   UNL     1      15.660  27.883  13.325  0.00  0.00    +0.000 HD
ATOM     25  H   UNL     1      16.844  27.965  14.579  0.00  0.00    +0.000 HD
ATOM     26  H   UNL     1      15.433  26.693  17.068  0.00  0.00    +0.000 HD
ATOM     27  H   UNL     1      16.277  30.221  17.696  0.00  0.00    +0.000 HD
ENDROOT
TORSDOF 0
ENDMDL
MODEL 3
REMARK VINA RESULT:    -4.095      1.608      1.969
REMARK INTER + INTRA:          -4.095
REMARK INTER:                  -4.095
REMARK INTRA:                   0.000
REMARK UNBOUND:                 0.000
REMARK  Name = /home/vital/Documents/PhD_2021/Malaria_codes/scripts/../data/pdbqt_ligands/ligand_172_temp.pdb
REMARK                            x       y       z     vdW  Elec       q    Type
REMARK                         _______ _______ _______ _____ _____    ______ ____
ROOT
ATOM      1  O   UNL     1      15.846  22.934  17.629  0.00  0.00    -0.394 OA
ATOM      2  C   UNL     1      15.625  23.981  16.689  0.00  0.00    +0.057 C 
ATOM      3  C   UNL     1      16.573  25.156  16.959  0.00  0.00    +0.020 C 
ATOM      4  N   UNL     1      16.532  26.230  15.977  0.00  0.00    -0.301 N 
ATOM      5  C   UNL     1      15.256  26.919  15.772  0.00  0.00    +0.092 C 
ATOM      6  C   UNL     1      14.986  28.012  16.872  0.00  0.00    +0.122 C 
ATOM      7  N   UNL     1      14.740  27.630  18.171  0.00  0.00    -0.293 N 
ATOM      8  C   UNL     1      14.509  28.367  19.296  0.00  0.00    +0.109 C 
ATOM      9  C   UNL     1      14.228  27.775  20.416  0.00  0.00    +0.074 C 
ATOM     10  N   UNL     1      13.987  28.472  21.650  0.00  0.00    -0.346 NA
ATOM     11  C   UNL     1      14.010  29.773  21.855  0.00  0.00    +0.209 C 
ATOM     12 CL   UNL     1      13.695  30.416  23.393  0.00  0.00    -0.046 Cl
ATOM     13  C   UNL     1      14.339  30.512  20.577  0.00  0.00    +0.093 C 
ATOM     14 CL   UNL     1      14.421  32.229  20.642  0.00  0.00    -0.079 Cl
ATOM     15  C   UNL     1      14.565  29.840  19.416  0.00  0.00    -0.008 C 
ATOM     16  N   UNL     1      15.003  29.232  16.404  0.00  0.00    -0.235 N 
ATOM     17  C   UNL     1      15.205  29.136  15.020  0.00  0.00    +0.071 A 
ATOM     18  C   UNL     1      15.257  30.190  14.127  0.00  0.00    -0.036 A 
ATOM     19  C   UNL     1      15.455  29.906  12.773  0.00  0.00    -0.060 A 
ATOM     20  C   UNL     1      15.598  28.579  12.334  0.00  0.00    -0.061 A 
ATOM     21  C   UNL     1      15.546  27.520  13.242  0.00  0.00    -0.055 A 
ATOM     22  C   UNL     1      15.346  27.821  14.580  0.00  0.00    +0.002 A 
ATOM     23  H   UNL     1      15.239  22.200  17.444  0.00  0.00    +0.000 HD
ATOM     24  H   UNL     1      16.811  25.833  15.080  0.00  0.00    +0.000 HD
ATOM     25  H   UNL     1      17.152  26.946  16.354  0.00  0.00    +0.000 HD
ATOM     26  H   UNL     1      14.728  26.655  18.313  0.00  0.00    +0.000 HD
ATOM     27  H   UNL     1      14.894  30.061  16.924  0.00  0.00    +0.000 HD
ENDROOT
TORSDOF 0
ENDMDL
MODEL 4
REMARK VINA RESULT:    -3.852     15.705     18.211
REMARK INTER + INTRA:          -3.852
REMARK INTER:                  -3.852
REMARK INTRA:                   0.000
REMARK UNBOUND:                 0.000
REMARK  Name = /home/vital/Documents/PhD_2021/Malaria_codes/scripts/../data/pdbqt_ligands/ligand_172_temp.pdb
REMARK                            x       y       z     vdW  Elec       q    Type
REMARK                         _______ _______ _______ _____ _____    ______ ____
ROOT
ATOM      1  O   UNL     1      14.952  47.590  22.294  0.00  0.00    -0.394 OA
ATOM      2  C   UNL     1      14.577  47.303  23.638  0.00  0.00    +0.057 C 
ATOM      3  C   UNL     1      15.549  46.294  24.264  0.00  0.00    +0.020 C 
ATOM      4  N   UNL     1      15.344  46.028  25.681  0.00  0.00    -0.301 N 
ATOM      5  C   UNL     1      14.047  45.488  26.094  0.00  0.00    +0.092 C 
ATOM      6  C   UNL     1      13.947  43.935  25.863  0.00  0.00    +0.122 C 
ATOM      7  N   UNL     1      13.913  43.435  24.581  0.00  0.00    -0.293 N 
ATOM      8  C   UNL     1      13.858  42.152  24.118  0.00  0.00    +0.109 C 
ATOM      9  C   UNL     1      13.763  41.924  22.844  0.00  0.00    +0.074 C 
ATOM     10  N   UNL     1      13.716  40.606  22.270  0.00  0.00    -0.346 NA
ATOM     11  C   UNL     1      13.761  39.452  22.903  0.00  0.00    +0.209 C 
ATOM     12 CL   UNL     1      13.690  37.988  22.048  0.00  0.00    -0.046 Cl
ATOM     13  C   UNL     1      13.878  39.664  24.397  0.00  0.00    +0.093 C 
ATOM     14 CL   UNL     1      13.958  38.269  25.399  0.00  0.00    -0.079 Cl
ATOM     15  C   UNL     1      13.922  40.917  24.926  0.00  0.00    -0.008 C 
ATOM     16  N   UNL     1      13.881  43.249  26.973  0.00  0.00    -0.235 N 
ATOM     17  C   UNL     1      13.862  44.175  28.025  0.00  0.00    +0.071 A 
ATOM     18  C   UNL     1      13.764  43.880  29.372  0.00  0.00    -0.036 A 
ATOM     19  C   UNL     1      13.747  44.938  30.286  0.00  0.00    -0.060 A 
ATOM     20  C   UNL     1      13.828  46.269  29.841  0.00  0.00    -0.061 A 
ATOM     21  C   UNL     1      13.927  46.559  28.479  0.00  0.00    -0.055 A 
ATOM     22  C   UNL     1      13.940  45.497  27.588  0.00  0.00    +0.002 A 
ATOM     23  H   UNL     1      14.329  48.228  21.914  0.00  0.00    +0.000 HD
ATOM     24  H   UNL     1      15.480  46.908  26.179  0.00  0.00    +0.000 HD
ATOM     25  H   UNL     1      16.011  45.290  25.902  0.00  0.00    +0.000 HD
ATOM     26  H   UNL     1      13.931  44.122  23.875  0.00  0.00    +0.000 HD
ATOM     27  H   UNL     1      13.850  42.268  27.055  0.00  0.00    +0.000 HD
ENDROOT
TORSDOF 0
ENDMDL
MODEL 5
REMARK VINA RESULT:    -3.771     15.435     17.959
REMARK INTER + INTRA:          -3.771
REMARK INTER:                  -3.771
REMARK INTRA:                   0.000
REMARK UNBOUND:                 0.000
REMARK  Name = /home/vital/Documents/PhD_2021/Malaria_codes/scripts/../data/pdbqt_ligands/ligand_172_temp.pdb
REMARK                            x       y       z     vdW  Elec       q    Type
REMARK                         _______ _______ _______ _____ _____    ______ ____
ROOT
ATOM      1  O   UNL     1      13.691  45.232  22.541  0.00  0.00    -0.394 OA
ATOM      2  C   UNL     1      13.690  45.410  23.954  0.00  0.00    +0.057 C 
ATOM      3  C   UNL     1      14.945  44.783  24.576  0.00  0.00    +0.020 C 
ATOM      4  N   UNL     1      15.120  45.021  26.002  0.00  0.00    -0.301 N 
ATOM      5  C   UNL     1      14.070  44.549  26.908  0.00  0.00    +0.092 C 
ATOM      6  C   UNL     1      14.203  43.013  27.223  0.00  0.00    +0.122 C 
ATOM      7  N   UNL     1      13.967  42.089  26.231  0.00  0.00    -0.293 N 
ATOM      8  C   UNL     1      14.041  40.726  26.237  0.00  0.00    +0.109 C 
ATOM      9  C   UNL     1      13.701  40.050  25.182  0.00  0.00    +0.074 C 
ATOM     10  N   UNL     1      13.763  38.617  25.097  0.00  0.00    -0.346 NA
ATOM     11  C   UNL     1      14.159  37.773  26.028  0.00  0.00    +0.209 C 
ATOM     12 CL   UNL     1      14.159  36.101  25.742  0.00  0.00    -0.046 Cl
ATOM     13  C   UNL     1      14.573  38.513  27.281  0.00  0.00    +0.093 C 
ATOM     14 CL   UNL     1      15.129  37.580  28.615  0.00  0.00    -0.079 Cl
ATOM     15  C   UNL     1      14.509  39.870  27.348  0.00  0.00    -0.008 C 
ATOM     16  N   UNL     1      14.516  42.765  28.467  0.00  0.00    -0.235 N 
ATOM     17  C   UNL     1      14.571  44.000  29.129  0.00  0.00    +0.071 A 
ATOM     18  C   UNL     1      14.837  44.196  30.471  0.00  0.00    -0.036 A 
ATOM     19  C   UNL     1      14.838  45.504  30.964  0.00  0.00    -0.060 A 
ATOM     20  C   UNL     1      14.574  46.590  30.113  0.00  0.00    -0.061 A 
ATOM     21  C   UNL     1      14.307  46.384  28.759  0.00  0.00    -0.055 A 
ATOM     22  C   UNL     1      14.307  45.080  28.288  0.00  0.00    +0.002 A 
ATOM     23  H   UNL     1      12.893  45.634  22.164  0.00  0.00    +0.000 HD
ATOM     24  H   UNL     1      15.205  46.030  26.133  0.00  0.00    +0.000 HD
ATOM     25  H   UNL     1      15.942  44.474  26.254  0.00  0.00    +0.000 HD
ATOM     26  H   UNL     1      13.700  42.478  25.367  0.00  0.00    +0.000 HD
ATOM     27  H   UNL     1      14.682  41.880  28.864  0.00  0.00    +0.000 HD
ENDROOT
TORSDOF 0
ENDMDL
MODEL 6
REMARK VINA RESULT:    -3.764     17.850     20.646
REMARK INTER + INTRA:          -3.764
REMARK INTER:                  -3.764
REMARK INTRA:                   0.000
REMARK UNBOUND:                 0.000
REMARK  Name = /home/vital/Documents/PhD_2021/Malaria_codes/scripts/../data/pdbqt_ligands/ligand_172_temp.pdb
REMARK                            x       y       z     vdW  Elec       q    Type
REMARK                         _______ _______ _______ _____ _____    ______ ____
ROOT
ATOM      1  O   UNL     1      14.800  44.594  35.325  0.00  0.00    -0.394 OA
ATOM      2  C   UNL     1      14.438  43.388  34.658  0.00  0.00    +0.057 C 
ATOM      3  C   UNL     1      15.433  43.076  33.533  0.00  0.00    +0.020 C 
ATOM      4  N   UNL     1      15.241  41.795  32.869  0.00  0.00    -0.301 N 
ATOM      5  C   UNL     1      13.957  41.554  32.206  0.00  0.00    +0.092 C 
ATOM      6  C   UNL     1      13.887  42.220  30.783  0.00  0.00    +0.122 C 
ATOM      7  N   UNL     1      13.856  43.592  30.670  0.00  0.00    -0.293 N 
ATOM      8  C   UNL     1      13.824  44.402  29.572  0.00  0.00    +0.109 C 
ATOM      9  C   UNL     1      13.727  45.689  29.715  0.00  0.00    +0.074 C 
ATOM     10  N   UNL     1      13.703  46.615  28.616  0.00  0.00    -0.346 NA
ATOM     11  C   UNL     1      13.774  46.339  27.331  0.00  0.00    +0.209 C 
ATOM     12 CL   UNL     1      13.727  47.577  26.171  0.00  0.00    -0.046 Cl
ATOM     13  C   UNL     1      13.895  44.847  27.109  0.00  0.00    +0.093 C 
ATOM     14 CL   UNL     1      14.008  44.285  25.487  0.00  0.00    -0.079 Cl
ATOM     15  C   UNL     1      13.917  43.981  28.158  0.00  0.00    -0.008 C 
ATOM     16  N   UNL     1      13.840  41.352  29.807  0.00  0.00    -0.235 N 
ATOM     17  C   UNL     1      13.809  40.080  30.393  0.00  0.00    +0.071 A 
ATOM     18  C   UNL     1      13.724  38.874  29.723  0.00  0.00    -0.036 A 
ATOM     19  C   UNL     1      13.691  37.695  30.475  0.00  0.00    -0.060 A 
ATOM     20  C   UNL     1      13.743  37.741  31.879  0.00  0.00    -0.061 A 
ATOM     21  C   UNL     1      13.829  38.963  32.548  0.00  0.00    -0.055 A 
ATOM     22  C   UNL     1      13.858  40.120  31.786  0.00  0.00    +0.002 A 
ATOM     23  H   UNL     1      14.162  44.776  36.033  0.00  0.00    +0.000 HD
ATOM     24  H   UNL     1      15.362  41.066  33.572  0.00  0.00    +0.000 HD
ATOM     25  H   UNL     1      15.924  41.794  32.111  0.00  0.00    +0.000 HD
ATOM     26  H   UNL     1      13.856  44.071  31.530  0.00  0.00    +0.000 HD
ATOM     27  H   UNL     1      13.830  41.554  28.843  0.00  0.00    +0.000 HD
ENDROOT
TORSDOF 0
ENDMDL
MODEL 7
REMARK VINA RESULT:    -3.755      3.825      5.990
REMARK INTER + INTRA:          -3.755
REMARK INTER:                  -3.755
REMARK INTRA:                   0.000
REMARK UNBOUND:                 0.000
REMARK  Name = /home/vital/Documents/PhD_2021/Malaria_codes/scripts/../data/pdbqt_ligands/ligand_172_temp.pdb
REMARK                            x       y       z     vdW  Elec       q    Type
REMARK                         _______ _______ _______ _____ _____    ______ ____
ROOT
ATOM      1  O   UNL     1      16.931  28.082  21.789  0.00  0.00    -0.394 OA
ATOM      2  C   UNL     1      16.422  27.449  20.619  0.00  0.00    +0.057 C 
ATOM      3  C   UNL     1      17.318  27.748  19.411  0.00  0.00    +0.020 C 
ATOM      4  N   UNL     1      16.971  27.042  18.186  0.00  0.00    -0.301 N 
ATOM      5  C   UNL     1      15.635  27.260  17.627  0.00  0.00    +0.092 C 
ATOM      6  C   UNL     1      15.549  28.594  16.796  0.00  0.00    +0.122 C 
ATOM      7  N   UNL     1      15.639  29.808  17.439  0.00  0.00    -0.293 N 
ATOM      8  C   UNL     1      15.622  31.084  16.955  0.00  0.00    +0.109 C 
ATOM      9  C   UNL     1      15.654  32.091  17.774  0.00  0.00    +0.074 C 
ATOM     10  N   UNL     1      15.655  33.464  17.351  0.00  0.00    -0.346 NA
ATOM     11  C   UNL     1      15.629  33.925  16.117  0.00  0.00    +0.209 C 
ATOM     12 CL   UNL     1      15.633  35.594  15.812  0.00  0.00    -0.046 Cl
ATOM     13  C   UNL     1      15.597  32.787  15.120  0.00  0.00    +0.093 C 
ATOM     14 CL   UNL     1      15.566  33.188  13.448  0.00  0.00    -0.079 Cl
ATOM     15  C   UNL     1      15.596  31.491  15.535  0.00  0.00    -0.008 C 
ATOM     16  N   UNL     1      15.367  28.396  15.517  0.00  0.00    -0.235 N 
ATOM     17  C   UNL     1      15.249  27.012  15.330  0.00  0.00    +0.071 A 
ATOM     18  C   UNL     1      15.014  26.367  14.131  0.00  0.00    -0.036 A 
ATOM     19  C   UNL     1      14.913  24.972  14.134  0.00  0.00    -0.060 A 
ATOM     20  C   UNL     1      15.048  24.248  15.330  0.00  0.00    -0.061 A 
ATOM     21  C   UNL     1      15.285  24.907  16.538  0.00  0.00    -0.055 A 
ATOM     22  C   UNL     1      15.379  26.289  16.516  0.00  0.00    +0.002 A 
ATOM     23  H   UNL     1      16.354  27.882  22.542  0.00  0.00    +0.000 HD
ATOM     24  H   UNL     1      17.063  26.043  18.375  0.00  0.00    +0.000 HD
ATOM     25  H   UNL     1      17.608  27.418  17.484  0.00  0.00    +0.000 HD
ATOM     26  H   UNL     1      15.732  29.744  18.417  0.00  0.00    +0.000 HD
ATOM     27  H   UNL     1      15.321  29.088  14.818  0.00  0.00    +0.000 HD
ENDROOT
TORSDOF 0
ENDMDL
MODEL 8
REMARK VINA RESULT:    -3.507     16.360     18.110
REMARK INTER + INTRA:          -3.507
REMARK INTER:                  -3.507
REMARK INTRA:                   0.000
REMARK UNBOUND:                 0.000
REMARK  Name = /home/vital/Documents/PhD_2021/Malaria_codes/scripts/../data/pdbqt_ligands/ligand_172_temp.pdb
REMARK                            x       y       z     vdW  Elec       q    Type
REMARK                         _______ _______ _______ _____ _____    ______ ____
ROOT
ATOM      1  O   UNL     1      14.292  38.880  24.803  0.00  0.00    -0.394 OA
ATOM      2  C   UNL     1      14.025  40.250  24.519  0.00  0.00    +0.057 C 
ATOM      3  C   UNL     1      15.129  41.145  25.097  0.00  0.00    +0.020 C 
ATOM      4  N   UNL     1      15.033  42.556  24.753  0.00  0.00    -0.301 N 
ATOM      5  C   UNL     1      13.824  43.277  25.156  0.00  0.00    +0.092 C 
ATOM      6  C   UNL     1      13.873  43.724  26.664  0.00  0.00    +0.122 C 
ATOM      7  N   UNL     1      13.818  42.776  27.661  0.00  0.00    -0.293 N 
ATOM      8  C   UNL     1      13.871  42.897  29.019  0.00  0.00    +0.109 C 
ATOM      9  C   UNL     1      13.729  41.848  29.772  0.00  0.00    +0.074 C 
ATOM     10  N   UNL     1      13.786  41.883  31.208  0.00  0.00    -0.346 NA
ATOM     11  C   UNL     1      13.986  42.931  31.979  0.00  0.00    +0.209 C 
ATOM     12 CL   UNL     1      14.018  42.775  33.668  0.00  0.00    -0.046 Cl
ATOM     13  C   UNL     1      14.164  44.183  31.148  0.00  0.00    +0.093 C 
ATOM     14 CL   UNL     1      14.444  45.663  31.978  0.00  0.00    -0.079 Cl
ATOM     15  C   UNL     1      14.108  44.136  29.789  0.00  0.00    -0.008 C 
ATOM     16  N   UNL     1      13.941  45.020  26.818  0.00  0.00    -0.235 N 
ATOM     17  C   UNL     1      13.885  45.587  25.538  0.00  0.00    +0.071 A 
ATOM     18  C   UNL     1      13.894  46.937  25.242  0.00  0.00    -0.036 A 
ATOM     19  C   UNL     1      13.819  47.324  23.900  0.00  0.00    -0.060 A 
ATOM     20  C   UNL     1      13.737  46.361  22.881  0.00  0.00    -0.061 A 
ATOM     21  C   UNL     1      13.729  44.999  23.188  0.00  0.00    -0.055 A 
ATOM     22  C   UNL     1      13.801  44.634  24.523  0.00  0.00    +0.002 A 
ATOM     23  H   UNL     1      13.586  38.330  24.431  0.00  0.00    +0.000 HD
ATOM     24  H   UNL     1      15.105  42.627  23.737  0.00  0.00    +0.000 HD
ATOM     25  H   UNL     1      15.785  43.000  25.279  0.00  0.00    +0.000 HD
ATOM     26  H   UNL     1      13.725  41.850  27.338  0.00  0.00    +0.000 HD
ATOM     27  H   UNL     1      14.016  45.505  27.672  0.00  0.00    +0.000 HD
ENDROOT
TORSDOF 0
ENDMDL
