MODEL 1
REMARK VINA RESULT:    -5.143      0.000      0.000
REMARK INTER + INTRA:          -5.143
REMARK INTER:                  -5.143
REMARK INTRA:                   0.000
REMARK UNBOUND:                 0.000
REMARK  Name = /home/vital/Documents/PhD_2021/Malaria_codes/scripts/../data/pdbqt_ligands/ligand_100_temp.pdb
REMARK                            x       y       z     vdW  Elec       q    Type
REMARK                         _______ _______ _______ _____ _____    ______ ____
ROOT
ATOM      1  C1  UNL     1      14.701  32.562  12.533  0.00  0.00    -0.055 C 
ATOM      2  C2  UNL     1      15.727  31.532  12.996  0.00  0.00    -0.007 C 
ATOM      3  C3  UNL     1      15.162  30.114  12.947  0.00  0.00    -0.077 C 
ATOM      4  C4  UNL     1      14.436  29.584  13.949  0.00  0.00    -0.065 C 
ATOM      5  C5  UNL     1      14.240  28.167  14.161  0.00  0.00    -0.062 C 
ATOM      6  C6  UNL     1      13.853  27.737  15.375  0.00  0.00    -0.034 C 
ATOM      7  C7  UNL     1      13.832  26.362  15.984  0.00  0.00    +0.170 C 
ATOM      8  N1  UNL     1      14.107  25.250  15.094  0.00  0.00    -0.238 NA
ATOM      9  C8  UNL     1      15.243  25.029  14.554  0.00  0.00    +0.113 C 
ATOM     10  N2  UNL     1      16.345  25.829  14.572  0.00  0.00    -0.248 NA
ATOM     11  C9  UNL     1      17.200  25.628  15.518  0.00  0.00    +0.007 C 
ATOM     12  C10 UNL     1      18.539  26.322  15.438  0.00  0.00    -0.017 C 
ATOM     13  C11 UNL     1      18.838  27.252  16.610  0.00  0.00    -0.046 C 
ATOM     14  C12 UNL     1      20.021  28.163  16.242  0.00  0.00    -0.029 C 
ATOM     15  C13 UNL     1      20.455  29.136  17.340  0.00  0.00    +0.048 C 
ATOM     16  O1  UNL     1      19.460  30.084  17.709  0.00  0.00    -0.379 OA
ATOM     17  C14 UNL     1      19.138  31.058  16.702  0.00  0.00    +0.058 C 
ATOM     18  C15 UNL     1      17.646  30.915  16.348  0.00  0.00    +0.026 C 
ATOM     19  C16 UNL     1      16.763  31.620  17.355  0.00  0.00    -0.032 C 
ATOM     20  C17 UNL     1      16.040  30.961  18.215  0.00  0.00    -0.109 C 
ATOM     21  C18 UNL     1      15.385  30.141  18.976  0.00  0.00    +0.032 C 
ATOM     22  N3  UNL     1      14.961  28.954  18.443  0.00  0.00    -0.341 N 
ATOM     23  C19 UNL     1      14.745  27.728  19.201  0.00  0.00    +0.033 C 
ATOM     24  C20 UNL     1      13.916  26.754  18.353  0.00  0.00    +0.066 C 
ATOM     25  O2  UNL     1      14.646  26.400  17.169  0.00  0.00    -0.350 OA
ATOM     26  C21 UNL     1      17.320  31.180  14.895  0.00  0.00    -0.078 C 
ATOM     27  C22 UNL     1      16.245  31.826  14.399  0.00  0.00    -0.081 C 
ATOM     28  H   UNL     1      14.789  28.927  17.474  0.00  0.00    +0.000 HD
ENDROOT
TORSDOF 0
ENDMDL
MODEL 2
REMARK VINA RESULT:    -4.590      1.968      5.018
REMARK INTER + INTRA:          -4.590
REMARK INTER:                  -4.590
REMARK INTRA:                   0.000
REMARK UNBOUND:                 0.000
REMARK  Name = /home/vital/Documents/PhD_2021/Malaria_codes/scripts/../data/pdbqt_ligands/ligand_100_temp.pdb
REMARK                            x       y       z     vdW  Elec       q    Type
REMARK                         _______ _______ _______ _____ _____    ______ ____
ROOT
ATOM      1  C1  UNL     1      21.549  27.381  17.636  0.00  0.00    -0.055 C 
ATOM      2  C2  UNL     1      20.086  27.080  17.949  0.00  0.00    -0.007 C 
ATOM      3  C3  UNL     1      19.385  26.409  16.770  0.00  0.00    -0.077 C 
ATOM      4  C4  UNL     1      18.843  27.104  15.754  0.00  0.00    -0.065 C 
ATOM      5  C5  UNL     1      17.829  26.594  14.858  0.00  0.00    -0.062 C 
ATOM      6  C6  UNL     1      17.084  27.464  14.154  0.00  0.00    -0.034 C 
ATOM      7  C7  UNL     1      15.808  27.282  13.377  0.00  0.00    +0.170 C 
ATOM      8  N1  UNL     1      15.352  25.919  13.181  0.00  0.00    -0.238 NA
ATOM      9  C8  UNL     1      14.927  25.165  14.120  0.00  0.00    +0.113 C 
ATOM     10  N2  UNL     1      14.949  25.408  15.460  0.00  0.00    -0.248 NA
ATOM     11  C9  UNL     1      13.903  25.966  15.972  0.00  0.00    +0.007 C 
ATOM     12  C10 UNL     1      13.786  26.033  17.476  0.00  0.00    -0.017 C 
ATOM     13  C11 UNL     1      13.690  27.449  18.038  0.00  0.00    -0.046 C 
ATOM     14  C12 UNL     1      13.951  27.408  19.553  0.00  0.00    -0.029 C 
ATOM     15  C13 UNL     1      13.858  28.761  20.261  0.00  0.00    +0.048 C 
ATOM     16  O1  UNL     1      14.816  29.717  19.826  0.00  0.00    -0.379 OA
ATOM     17  C14 UNL     1      16.181  29.415  20.161  0.00  0.00    +0.058 C 
ATOM     18  C15 UNL     1      16.985  29.286  18.854  0.00  0.00    +0.026 C 
ATOM     19  C16 UNL     1      17.388  30.640  18.312  0.00  0.00    -0.032 C 
ATOM     20  C17 UNL     1      16.828  31.149  17.251  0.00  0.00    -0.109 C 
ATOM     21  C18 UNL     1      16.172  31.481  16.183  0.00  0.00    +0.032 C 
ATOM     22  N3  UNL     1      15.816  30.496  15.304  0.00  0.00    -0.341 N 
ATOM     23  C19 UNL     1      14.663  30.547  14.414  0.00  0.00    +0.033 C 
ATOM     24  C20 UNL     1      14.816  29.470  13.331  0.00  0.00    +0.066 C 
ATOM     25  O2  UNL     1      14.828  28.170  13.941  0.00  0.00    -0.350 OA
ATOM     26  C21 UNL     1      18.084  28.246  18.896  0.00  0.00    -0.078 C 
ATOM     27  C22 UNL     1      19.316  28.332  18.356  0.00  0.00    -0.081 C 
ATOM     28  H   UNL     1      16.382  29.691  15.269  0.00  0.00    +0.000 HD
ENDROOT
TORSDOF 0
ENDMDL
MODEL 3
REMARK VINA RESULT:    -4.575      1.750      5.667
REMARK INTER + INTRA:          -4.575
REMARK INTER:                  -4.575
REMARK INTRA:                   0.000
REMARK UNBOUND:                 0.000
REMARK  Name = /home/vital/Documents/PhD_2021/Malaria_codes/scripts/../data/pdbqt_ligands/ligand_100_temp.pdb
REMARK                            x       y       z     vdW  Elec       q    Type
REMARK                         _______ _______ _______ _____ _____    ______ ____
ROOT
ATOM      1  C1  UNL     1      15.070  32.557  12.246  0.00  0.00    -0.055 C 
ATOM      2  C2  UNL     1      14.691  31.753  13.487  0.00  0.00    -0.007 C 
ATOM      3  C3  UNL     1      15.359  32.309  14.743  0.00  0.00    -0.077 C 
ATOM      4  C4  UNL     1      16.606  31.968  15.116  0.00  0.00    -0.065 C 
ATOM      5  C5  UNL     1      17.127  32.104  16.458  0.00  0.00    -0.062 C 
ATOM      6  C6  UNL     1      18.208  31.387  16.813  0.00  0.00    -0.034 C 
ATOM      7  C7  UNL     1      18.811  31.094  18.160  0.00  0.00    +0.170 C 
ATOM      8  N1  UNL     1      18.271  31.827  19.289  0.00  0.00    -0.238 NA
ATOM      9  C8  UNL     1      17.089  31.669  19.747  0.00  0.00    +0.113 C 
ATOM     10  N2  UNL     1      16.080  30.927  19.212  0.00  0.00    -0.248 NA
ATOM     11  C9  UNL     1      15.973  29.705  19.614  0.00  0.00    +0.007 C 
ATOM     12  C10 UNL     1      14.736  28.928  19.234  0.00  0.00    -0.017 C 
ATOM     13  C11 UNL     1      15.010  27.670  18.414  0.00  0.00    -0.046 C 
ATOM     14  C12 UNL     1      13.695  27.183  17.782  0.00  0.00    -0.029 C 
ATOM     15  C13 UNL     1      13.812  25.905  16.949  0.00  0.00    +0.048 C 
ATOM     16  O1  UNL     1      14.657  26.022  15.811  0.00  0.00    -0.379 OA
ATOM     17  C14 UNL     1      14.170  26.888  14.772  0.00  0.00    +0.058 C 
ATOM     18  C15 UNL     1      15.186  28.028  14.574  0.00  0.00    +0.026 C 
ATOM     19  C16 UNL     1      16.349  27.595  13.708  0.00  0.00    -0.032 C 
ATOM     20  C17 UNL     1      17.535  27.388  14.206  0.00  0.00    -0.109 C 
ATOM     21  C18 UNL     1      18.637  27.246  14.875  0.00  0.00    +0.032 C 
ATOM     22  N3  UNL     1      18.874  28.086  15.928  0.00  0.00    -0.341 N 
ATOM     23  C19 UNL     1      19.692  27.760  17.089  0.00  0.00    +0.033 C 
ATOM     24  C20 UNL     1      20.037  29.053  17.840  0.00  0.00    +0.066 C 
ATOM     25  O2  UNL     1      18.832  29.666  18.325  0.00  0.00    -0.350 OA
ATOM     26  C21 UNL     1      14.566  29.362  14.217  0.00  0.00    -0.078 C 
ATOM     27  C22 UNL     1      15.031  30.274  13.340  0.00  0.00    -0.081 C 
ATOM     28  H   UNL     1      18.460  28.979  15.899  0.00  0.00    +0.000 HD
ENDROOT
TORSDOF 0
ENDMDL
MODEL 4
REMARK VINA RESULT:    -4.548      1.877      4.845
REMARK INTER + INTRA:          -4.548
REMARK INTER:                  -4.548
REMARK INTRA:                   0.000
REMARK UNBOUND:                 0.000
REMARK  Name = /home/vital/Documents/PhD_2021/Malaria_codes/scripts/../data/pdbqt_ligands/ligand_100_temp.pdb
REMARK                            x       y       z     vdW  Elec       q    Type
REMARK                         _______ _______ _______ _____ _____    ______ ____
ROOT
ATOM      1  C1  UNL     1      15.060  31.143  21.927  0.00  0.00    -0.055 C 
ATOM      2  C2  UNL     1      14.697  30.882  20.468  0.00  0.00    -0.007 C 
ATOM      3  C3  UNL     1      14.334  29.418  20.232  0.00  0.00    -0.077 C 
ATOM      4  C4  UNL     1      15.258  28.470  19.989  0.00  0.00    -0.065 C 
ATOM      5  C5  UNL     1      14.984  27.200  19.354  0.00  0.00    -0.062 C 
ATOM      6  C6  UNL     1      16.002  26.511  18.807  0.00  0.00    -0.034 C 
ATOM      7  C7  UNL     1      16.018  25.341  17.862  0.00  0.00    +0.170 C 
ATOM      8  N1  UNL     1      14.745  24.698  17.598  0.00  0.00    -0.238 NA
ATOM      9  C8  UNL     1      13.787  25.245  16.955  0.00  0.00    +0.113 C 
ATOM     10  N2  UNL     1      13.697  26.537  16.531  0.00  0.00    -0.248 NA
ATOM     11  C9  UNL     1      14.117  26.793  15.338  0.00  0.00    +0.007 C 
ATOM     12  C10 UNL     1      13.817  28.148  14.744  0.00  0.00    -0.017 C 
ATOM     13  C11 UNL     1      15.054  28.959  14.367  0.00  0.00    -0.046 C 
ATOM     14  C12 UNL     1      14.646  30.423  14.135  0.00  0.00    -0.029 C 
ATOM     15  C13 UNL     1      15.786  31.354  13.719  0.00  0.00    +0.048 C 
ATOM     16  O1  UNL     1      16.817  31.489  14.690  0.00  0.00    -0.379 OA
ATOM     17  C14 UNL     1      16.437  32.173  15.896  0.00  0.00    +0.058 C 
ATOM     18  C15 UNL     1      16.627  31.208  17.082  0.00  0.00    +0.026 C 
ATOM     19  C16 UNL     1      18.071  31.154  17.531  0.00  0.00    -0.032 C 
ATOM     20  C17 UNL     1      18.825  30.117  17.300  0.00  0.00    -0.109 C 
ATOM     21  C18 UNL     1      19.408  29.000  16.994  0.00  0.00    +0.032 C 
ATOM     22  N3  UNL     1      18.667  27.851  17.012  0.00  0.00    -0.341 N 
ATOM     23  C19 UNL     1      18.937  26.670  16.201  0.00  0.00    +0.033 C 
ATOM     24  C20 UNL     1      18.155  25.479  16.773  0.00  0.00    +0.066 C 
ATOM     25  O2  UNL     1      16.746  25.742  16.689  0.00  0.00    -0.350 OA
ATOM     26  C21 UNL     1      15.605  31.365  18.186  0.00  0.00    -0.078 C 
ATOM     27  C22 UNL     1      15.815  31.292  19.516  0.00  0.00    -0.081 C 
ATOM     28  H   UNL     1      17.893  27.818  17.620  0.00  0.00    +0.000 HD
ENDROOT
TORSDOF 0
ENDMDL
MODEL 5
REMARK VINA RESULT:    -4.408      2.077      5.957
REMARK INTER + INTRA:          -4.408
REMARK INTER:                  -4.408
REMARK INTRA:                   0.000
REMARK UNBOUND:                 0.000
REMARK  Name = /home/vital/Documents/PhD_2021/Malaria_codes/scripts/../data/pdbqt_ligands/ligand_100_temp.pdb
REMARK                            x       y       z     vdW  Elec       q    Type
REMARK                         _______ _______ _______ _____ _____    ______ ____
ROOT
ATOM      1  C1  UNL     1      21.684  26.649  16.458  0.00  0.00    -0.055 C 
ATOM      2  C2  UNL     1      20.334  26.848  15.776  0.00  0.00    -0.007 C 
ATOM      3  C3  UNL     1      19.956  28.326  15.695  0.00  0.00    -0.077 C 
ATOM      4  C4  UNL     1      19.347  28.977  16.703  0.00  0.00    -0.065 C 
ATOM      5  C5  UNL     1      18.598  30.206  16.553  0.00  0.00    -0.062 C 
ATOM      6  C6  UNL     1      17.718  30.553  17.508  0.00  0.00    -0.034 C 
ATOM      7  C7  UNL     1      16.619  31.580  17.524  0.00  0.00    +0.170 C 
ATOM      8  N1  UNL     1      16.568  32.498  16.402  0.00  0.00    -0.238 NA
ATOM      9  C8  UNL     1      16.275  32.154  15.208  0.00  0.00    +0.113 C 
ATOM     10  N2  UNL     1      16.101  30.893  14.722  0.00  0.00    -0.248 NA
ATOM     11  C9  UNL     1      14.900  30.421  14.731  0.00  0.00    +0.007 C 
ATOM     12  C10 UNL     1      14.625  29.136  13.988  0.00  0.00    -0.017 C 
ATOM     13  C11 UNL     1      14.097  28.002  14.864  0.00  0.00    -0.046 C 
ATOM     14  C12 UNL     1      14.212  26.676  14.094  0.00  0.00    -0.029 C 
ATOM     15  C13 UNL     1      13.691  25.447  14.842  0.00  0.00    +0.048 C 
ATOM     16  O1  UNL     1      14.393  25.150  16.043  0.00  0.00    -0.379 OA
ATOM     17  C14 UNL     1      15.750  24.709  15.867  0.00  0.00    +0.058 C 
ATOM     18  C15 UNL     1      16.681  25.706  16.583  0.00  0.00    +0.026 C 
ATOM     19  C16 UNL     1      16.753  25.432  18.070  0.00  0.00    -0.032 C 
ATOM     20  C17 UNL     1      16.181  26.214  18.940  0.00  0.00    -0.109 C 
ATOM     21  C18 UNL     1      15.565  27.108  19.650  0.00  0.00    +0.032 C 
ATOM     22  N3  UNL     1      15.575  28.405  19.215  0.00  0.00    -0.341 N 
ATOM     23  C19 UNL     1      14.541  29.391  19.507  0.00  0.00    +0.033 C 
ATOM     24  C20 UNL     1      15.083  30.792  19.194  0.00  0.00    +0.066 C 
ATOM     25  O2  UNL     1      15.386  30.892  17.795  0.00  0.00    -0.350 OA
ATOM     26  C21 UNL     1      18.009  25.926  15.893  0.00  0.00    -0.078 C 
ATOM     27  C22 UNL     1      19.219  26.074  16.470  0.00  0.00    -0.081 C 
ATOM     28  H   UNL     1      16.338  28.694  18.664  0.00  0.00    +0.000 HD
ENDROOT
TORSDOF 0
ENDMDL
MODEL 6
REMARK VINA RESULT:    -4.323      2.189      5.787
REMARK INTER + INTRA:          -4.323
REMARK INTER:                  -4.323
REMARK INTRA:                   0.000
REMARK UNBOUND:                 0.000
REMARK  Name = /home/vital/Documents/PhD_2021/Malaria_codes/scripts/../data/pdbqt_ligands/ligand_100_temp.pdb
REMARK                            x       y       z     vdW  Elec       q    Type
REMARK                         _______ _______ _______ _____ _____    ______ ____
ROOT
ATOM      1  C1  UNL     1      13.739  30.052  20.954  0.00  0.00    -0.055 C 
ATOM      2  C2  UNL     1      14.890  29.249  20.356  0.00  0.00    -0.007 C 
ATOM      3  C3  UNL     1      15.813  30.129  19.515  0.00  0.00    -0.077 C 
ATOM      4  C4  UNL     1      15.569  30.411  18.222  0.00  0.00    -0.065 C 
ATOM      5  C5  UNL     1      16.568  30.858  17.276  0.00  0.00    -0.062 C 
ATOM      6  C6  UNL     1      16.323  30.730  15.960  0.00  0.00    -0.034 C 
ATOM      7  C7  UNL     1      17.230  30.831  14.764  0.00  0.00    +0.170 C 
ATOM      8  N1  UNL     1      18.575  31.317  15.004  0.00  0.00    -0.238 NA
ATOM      9  C8  UNL     1      19.461  30.674  15.662  0.00  0.00    +0.113 C 
ATOM     10  N2  UNL     1      19.300  29.523  16.373  0.00  0.00    -0.248 NA
ATOM     11  C9  UNL     1      19.527  28.414  15.752  0.00  0.00    +0.007 C 
ATOM     12  C10 UNL     1      19.596  27.139  16.558  0.00  0.00    -0.017 C 
ATOM     13  C11 UNL     1      18.562  26.088  16.163  0.00  0.00    -0.046 C 
ATOM     14  C12 UNL     1      18.482  25.020  17.267  0.00  0.00    -0.029 C 
ATOM     15  C13 UNL     1      17.501  23.879  16.993  0.00  0.00    +0.048 C 
ATOM     16  O1  UNL     1      16.143  24.287  16.883  0.00  0.00    -0.379 OA
ATOM     17  C14 UNL     1      15.546  24.769  18.099  0.00  0.00    +0.058 C 
ATOM     18  C15 UNL     1      15.107  26.229  17.880  0.00  0.00    +0.026 C 
ATOM     19  C16 UNL     1      13.777  26.309  17.162  0.00  0.00    -0.032 C 
ATOM     20  C17 UNL     1      13.690  26.692  15.919  0.00  0.00    -0.109 C 
ATOM     21  C18 UNL     1      13.801  27.107  14.696  0.00  0.00    +0.032 C 
ATOM     22  N3  UNL     1      14.765  28.032  14.406  0.00  0.00    -0.341 N 
ATOM     23  C19 UNL     1      15.410  28.188  13.108  0.00  0.00    +0.033 C 
ATOM     24  C20 UNL     1      16.125  29.545  13.062  0.00  0.00    +0.066 C 
ATOM     25  O2  UNL     1      17.158  29.581  14.058  0.00  0.00    -0.350 OA
ATOM     26  C21 UNL     1      15.245  27.113  19.100  0.00  0.00    -0.078 C 
ATOM     27  C22 UNL     1      14.398  28.076  19.516  0.00  0.00    -0.081 C 
ATOM     28  H   UNL     1      15.046  28.639  15.129  0.00  0.00    +0.000 HD
ENDROOT
TORSDOF 0
ENDMDL
MODEL 7
REMARK VINA RESULT:    -4.066      2.198      4.449
REMARK INTER + INTRA:          -4.066
REMARK INTER:                  -4.066
REMARK INTRA:                   0.000
REMARK UNBOUND:                 0.000
REMARK  Name = /home/vital/Documents/PhD_2021/Malaria_codes/scripts/../data/pdbqt_ligands/ligand_100_temp.pdb
REMARK                            x       y       z     vdW  Elec       q    Type
REMARK                         _______ _______ _______ _____ _____    ______ ____
ROOT
ATOM      1  C1  UNL     1      14.922  32.858  19.138  0.00  0.00    -0.055 C 
ATOM      2  C2  UNL     1      15.980  31.785  18.901  0.00  0.00    -0.007 C 
ATOM      3  C3  UNL     1      16.389  31.714  17.432  0.00  0.00    -0.077 C 
ATOM      4  C4  UNL     1      15.707  30.996  16.520  0.00  0.00    -0.065 C 
ATOM      5  C5  UNL     1      16.249  30.545  15.257  0.00  0.00    -0.062 C 
ATOM      6  C6  UNL     1      15.648  29.528  14.616  0.00  0.00    -0.034 C 
ATOM      7  C7  UNL     1      16.102  28.666  13.469  0.00  0.00    +0.170 C 
ATOM      8  N1  UNL     1      17.319  29.069  12.792  0.00  0.00    -0.238 NA
ATOM      9  C8  UNL     1      18.480  29.032  13.323  0.00  0.00    +0.113 C 
ATOM     10  N2  UNL     1      18.795  28.763  14.620  0.00  0.00    -0.248 NA
ATOM     11  C9  UNL     1      19.054  27.534  14.918  0.00  0.00    +0.007 C 
ATOM     12  C10 UNL     1      19.638  27.230  16.277  0.00  0.00    -0.017 C 
ATOM     13  C11 UNL     1      18.784  26.301  17.136  0.00  0.00    -0.046 C 
ATOM     14  C12 UNL     1      19.277  26.366  18.592  0.00  0.00    -0.029 C 
ATOM     15  C13 UNL     1      18.528  25.458  19.569  0.00  0.00    +0.048 C 
ATOM     16  O1  UNL     1      17.147  25.766  19.714  0.00  0.00    -0.379 OA
ATOM     17  C14 UNL     1      16.862  27.020  20.356  0.00  0.00    +0.058 C 
ATOM     18  C15 UNL     1      16.074  27.902  19.370  0.00  0.00    +0.026 C 
ATOM     19  C16 UNL     1      14.603  27.544  19.353  0.00  0.00    -0.032 C 
ATOM     20  C17 UNL     1      14.061  26.919  18.346  0.00  0.00    -0.109 C 
ATOM     21  C18 UNL     1      13.701  26.316  17.257  0.00  0.00    +0.032 C 
ATOM     22  N3  UNL     1      14.308  26.670  16.084  0.00  0.00    -0.341 N 
ATOM     23  C19 UNL     1      14.476  25.792  14.932  0.00  0.00    +0.033 C 
ATOM     24  C20 UNL     1      14.833  26.639  13.703  0.00  0.00    +0.066 C 
ATOM     25  O2  UNL     1      16.088  27.301  13.922  0.00  0.00    -0.350 OA
ATOM     26  C21 UNL     1      16.385  29.380  19.467  0.00  0.00    -0.078 C 
ATOM     27  C22 UNL     1      15.519  30.409  19.370  0.00  0.00    -0.081 C 
ATOM     28  H   UNL     1      14.658  27.587  16.011  0.00  0.00    +0.000 HD
ENDROOT
TORSDOF 0
ENDMDL
MODEL 8
REMARK VINA RESULT:    -4.027      2.533      5.800
REMARK INTER + INTRA:          -4.027
REMARK INTER:                  -4.027
REMARK INTRA:                   0.000
REMARK UNBOUND:                 0.000
REMARK  Name = /home/vital/Documents/PhD_2021/Malaria_codes/scripts/../data/pdbqt_ligands/ligand_100_temp.pdb
REMARK                            x       y       z     vdW  Elec       q    Type
REMARK                         _______ _______ _______ _____ _____    ______ ____
ROOT
ATOM      1  C1  UNL     1      14.680  24.599  14.263  0.00  0.00    -0.055 C 
ATOM      2  C2  UNL     1      14.710  25.905  15.052  0.00  0.00    -0.007 C 
ATOM      3  C3  UNL     1      14.490  27.115  14.146  0.00  0.00    -0.077 C 
ATOM      4  C4  UNL     1      15.490  27.706  13.467  0.00  0.00    -0.065 C 
ATOM      5  C5  UNL     1      15.447  29.057  12.953  0.00  0.00    -0.062 C 
ATOM      6  C6  UNL     1      16.601  29.678  12.653  0.00  0.00    -0.034 C 
ATOM      7  C7  UNL     1      16.912  31.123  12.376  0.00  0.00    +0.170 C 
ATOM      8  N1  UNL     1      15.779  32.017  12.226  0.00  0.00    -0.238 NA
ATOM      9  C8  UNL     1      14.988  32.335  13.176  0.00  0.00    +0.113 C 
ATOM     10  N2  UNL     1      14.945  31.817  14.435  0.00  0.00    -0.248 NA
ATOM     11  C9  UNL     1      15.639  32.419  15.342  0.00  0.00    +0.007 C 
ATOM     12  C10 UNL     1      15.432  32.027  16.785  0.00  0.00    -0.017 C 
ATOM     13  C11 UNL     1      16.684  31.496  17.479  0.00  0.00    -0.046 C 
ATOM     14  C12 UNL     1      16.277  30.796  18.786  0.00  0.00    -0.029 C 
ATOM     15  C13 UNL     1      17.438  30.235  19.609  0.00  0.00    +0.048 C 
ATOM     16  O1  UNL     1      18.183  29.217  18.952  0.00  0.00    -0.379 OA
ATOM     17  C14 UNL     1      17.480  27.981  18.741  0.00  0.00    +0.058 C 
ATOM     18  C15 UNL     1      17.412  27.714  17.226  0.00  0.00    +0.026 C 
ATOM     19  C16 UNL     1      18.697  27.104  16.709  0.00  0.00    -0.032 C 
ATOM     20  C17 UNL     1      19.534  27.784  15.978  0.00  0.00    -0.109 C 
ATOM     21  C18 UNL     1      20.229  28.607  15.256  0.00  0.00    +0.032 C 
ATOM     22  N3  UNL     1      19.564  29.509  14.473  0.00  0.00    -0.341 N 
ATOM     23  C19 UNL     1      20.087  30.809  14.069  0.00  0.00    +0.033 C 
ATOM     24  C20 UNL     1      19.245  31.348  12.904  0.00  0.00    +0.066 C 
ATOM     25  O2  UNL     1      17.891  31.549  13.339  0.00  0.00    -0.350 OA
ATOM     26  C21 UNL     1      16.138  27.039  16.767  0.00  0.00    -0.078 C 
ATOM     27  C22 UNL     1      16.009  26.078  15.829  0.00  0.00    -0.081 C 
ATOM     28  H   UNL     1      18.664  29.263  14.158  0.00  0.00    +0.000 HD
ENDROOT
TORSDOF 0
ENDMDL
