MODEL 1
REMARK VINA RESULT:    -4.805      0.000      0.000
REMARK INTER + INTRA:          -4.805
REMARK INTER:                  -4.805
REMARK INTRA:                   0.000
REMARK UNBOUND:                 0.000
REMARK  Name = /home/vital/Documents/PhD_2021/Malaria_codes/scripts/../data/pdbqt_ligands/ligand_268_temp.pdb
REMARK                            x       y       z     vdW  Elec       q    Type
REMARK                         _______ _______ _______ _____ _____    ______ ____
ROOT
ATOM      1  O1  UNL     1      15.625  25.758  19.377  0.00  0.00    -0.266 OA
ATOM      2  C1  UNL     1      15.176  26.850  19.041  0.00  0.00    +0.284 C 
ATOM      3  N1  UNL     1      14.751  27.148  17.755  0.00  0.00    -0.278 N 
ATOM      4  C2  UNL     1      14.742  26.310  16.612  0.00  0.00    +0.054 A 
ATOM      5  C3  UNL     1      15.186  24.984  16.619  0.00  0.00    -0.021 A 
ATOM      6  C4  UNL     1      15.143  24.221  15.447  0.00  0.00    +0.043 A 
ATOM      7 CL1  UNL     1      15.694  22.590  15.467  0.00  0.00    -0.083 Cl
ATOM      8  C5  UNL     1      14.661  24.765  14.257  0.00  0.00    -0.042 A 
ATOM      9  C6  UNL     1      14.216  26.084  14.234  0.00  0.00    -0.040 A 
ATOM     10  C7  UNL     1      14.256  26.849  15.403  0.00  0.00    +0.062 A 
ATOM     11 CL2  UNL     1      13.690  28.485  15.324  0.00  0.00    -0.082 Cl
ATOM     12  C8  UNL     1      15.044  27.957  19.982  0.00  0.00    +0.190 A 
ATOM     13  C9  UNL     1      14.584  29.258  19.875  0.00  0.00    -0.011 A 
ATOM     14  C10 UNL     1      14.712  29.847  21.160  0.00  0.00    -0.015 A 
ATOM     15  C11 UNL     1      15.244  28.882  21.990  0.00  0.00    +0.136 A 
ATOM     16  C12 UNL     1      15.617  28.833  23.403  0.00  0.00    +0.019 A 
ATOM     17  C13 UNL     1      16.151  27.665  23.974  0.00  0.00    -0.051 A 
ATOM     18  C14 UNL     1      16.508  27.620  25.324  0.00  0.00    -0.060 A 
ATOM     19  C15 UNL     1      16.336  28.744  26.127  0.00  0.00    -0.043 A 
ATOM     20  C16 UNL     1      15.807  29.907  25.573  0.00  0.00    +0.042 A 
ATOM     21 CL3  UNL     1      15.593  31.300  26.562  0.00  0.00    -0.084 Cl
ATOM     22  C17 UNL     1      15.450  29.958  24.224  0.00  0.00    -0.033 A 
ATOM     23  O2  UNL     1      15.443  27.738  21.273  0.00  0.00    -0.450 OA
ATOM     24  H   UNL     1      14.411  28.061  17.619  0.00  0.00    +0.000 HD
ENDROOT
TORSDOF 0
ENDMDL
MODEL 2
REMARK VINA RESULT:    -4.510      1.309      1.366
REMARK INTER + INTRA:          -4.510
REMARK INTER:                  -4.510
REMARK INTRA:                   0.000
REMARK UNBOUND:                 0.000
REMARK  Name = /home/vital/Documents/PhD_2021/Malaria_codes/scripts/../data/pdbqt_ligands/ligand_268_temp.pdb
REMARK                            x       y       z     vdW  Elec       q    Type
REMARK                         _______ _______ _______ _____ _____    ______ ____
ROOT
ATOM      1  O1  UNL     1      14.735  26.506  19.177  0.00  0.00    -0.266 OA
ATOM      2  C1  UNL     1      14.621  27.679  18.836  0.00  0.00    +0.284 C 
ATOM      3  N1  UNL     1      14.618  28.103  17.516  0.00  0.00    -0.278 N 
ATOM      4  C2  UNL     1      14.738  27.324  16.338  0.00  0.00    +0.054 A 
ATOM      5  C3  UNL     1      14.886  25.934  16.339  0.00  0.00    -0.021 A 
ATOM      6  C4  UNL     1      14.998  25.236  15.132  0.00  0.00    +0.043 A 
ATOM      7 CL1  UNL     1      15.181  23.524  15.147  0.00  0.00    -0.083 Cl
ATOM      8  C5  UNL     1      14.965  25.909  13.912  0.00  0.00    -0.042 A 
ATOM      9  C6  UNL     1      14.819  27.294  13.894  0.00  0.00    -0.040 A 
ATOM     10  C7  UNL     1      14.706  27.994  15.098  0.00  0.00    +0.062 A 
ATOM     11 CL2  UNL     1      14.525  29.716  15.023  0.00  0.00    -0.082 Cl
ATOM     12  C8  UNL     1      14.476  28.758  19.807  0.00  0.00    +0.190 A 
ATOM     13  C9  UNL     1      14.333  30.131  19.703  0.00  0.00    -0.011 A 
ATOM     14  C10 UNL     1      14.237  30.636  21.026  0.00  0.00    -0.015 A 
ATOM     15  C11 UNL     1      14.326  29.553  21.874  0.00  0.00    +0.136 A 
ATOM     16  C12 UNL     1      14.298  29.379  23.326  0.00  0.00    +0.019 A 
ATOM     17  C13 UNL     1      14.415  28.105  23.908  0.00  0.00    -0.051 A 
ATOM     18  C14 UNL     1      14.389  27.940  25.295  0.00  0.00    -0.060 A 
ATOM     19  C15 UNL     1      14.245  29.049  26.125  0.00  0.00    -0.043 A 
ATOM     20  C16 UNL     1      14.127  30.317  25.560  0.00  0.00    +0.042 A 
ATOM     21 CL3  UNL     1      13.949  31.691  26.582  0.00  0.00    -0.084 Cl
ATOM     22  C17 UNL     1      14.153  30.486  24.175  0.00  0.00    -0.033 A 
ATOM     23  O2  UNL     1      14.469  28.416  21.133  0.00  0.00    -0.450 OA
ATOM     24  H   UNL     1      14.518  29.073  17.379  0.00  0.00    +0.000 HD
ENDROOT
TORSDOF 0
ENDMDL
MODEL 3
REMARK VINA RESULT:    -4.478     19.809     20.149
REMARK INTER + INTRA:          -4.478
REMARK INTER:                  -4.478
REMARK INTRA:                   0.000
REMARK UNBOUND:                 0.000
REMARK  Name = /home/vital/Documents/PhD_2021/Malaria_codes/scripts/../data/pdbqt_ligands/ligand_268_temp.pdb
REMARK                            x       y       z     vdW  Elec       q    Type
REMARK                         _______ _______ _______ _____ _____    ______ ____
ROOT
ATOM      1  O1  UNL     1      18.933  46.700  18.957  0.00  0.00    -0.266 OA
ATOM      2  C1  UNL     1      19.737  46.650  19.884  0.00  0.00    +0.284 C 
ATOM      3  N1  UNL     1      21.112  46.619  19.712  0.00  0.00    -0.278 N 
ATOM      4  C2  UNL     1      21.852  46.635  18.503  0.00  0.00    +0.054 A 
ATOM      5  C3  UNL     1      21.265  46.689  17.235  0.00  0.00    -0.021 A 
ATOM      6  C4  UNL     1      22.065  46.703  16.089  0.00  0.00    +0.043 A 
ATOM      7 CL1  UNL     1      21.331  46.768  14.533  0.00  0.00    -0.083 Cl
ATOM      8  C5  UNL     1      23.456  46.662  16.187  0.00  0.00    -0.042 A 
ATOM      9  C6  UNL     1      24.056  46.608  17.442  0.00  0.00    -0.040 A 
ATOM     10  C7  UNL     1      23.259  46.595  18.590  0.00  0.00    +0.062 A 
ATOM     11 CL2  UNL     1      24.053  46.526  20.129  0.00  0.00    -0.082 Cl
ATOM     12  C8  UNL     1      19.312  46.620  21.279  0.00  0.00    +0.190 A 
ATOM     13  C9  UNL     1      19.984  46.565  22.487  0.00  0.00    -0.011 A 
ATOM     14  C10 UNL     1      18.998  46.561  23.508  0.00  0.00    -0.015 A 
ATOM     15  C11 UNL     1      17.772  46.613  22.878  0.00  0.00    +0.136 A 
ATOM     16  C12 UNL     1      16.383  46.637  23.334  0.00  0.00    +0.019 A 
ATOM     17  C13 UNL     1      15.319  46.694  22.418  0.00  0.00    -0.051 A 
ATOM     18  C14 UNL     1      13.991  46.715  22.854  0.00  0.00    -0.060 A 
ATOM     19  C15 UNL     1      13.706  46.682  24.217  0.00  0.00    -0.043 A 
ATOM     20  C16 UNL     1      14.753  46.626  25.134  0.00  0.00    +0.042 A 
ATOM     21 CL3  UNL     1      14.405  46.585  26.820  0.00  0.00    -0.084 Cl
ATOM     22  C17 UNL     1      16.080  46.604  24.703  0.00  0.00    -0.033 A 
ATOM     23  O2  UNL     1      17.965  46.649  21.528  0.00  0.00    -0.450 OA
ATOM     24  H   UNL     1      21.645  46.580  20.539  0.00  0.00    +0.000 HD
ENDROOT
TORSDOF 0
ENDMDL
MODEL 4
REMARK VINA RESULT:    -4.438     19.608     20.998
REMARK INTER + INTRA:          -4.438
REMARK INTER:                  -4.438
REMARK INTRA:                   0.000
REMARK UNBOUND:                 0.000
REMARK  Name = /home/vital/Documents/PhD_2021/Malaria_codes/scripts/../data/pdbqt_ligands/ligand_268_temp.pdb
REMARK                            x       y       z     vdW  Elec       q    Type
REMARK                         _______ _______ _______ _____ _____    ______ ____
ROOT
ATOM      1  O1  UNL     1      18.887  45.600  24.442  0.00  0.00    -0.266 OA
ATOM      2  C1  UNL     1      18.079  46.224  23.761  0.00  0.00    +0.284 C 
ATOM      3  N1  UNL     1      16.801  46.555  24.187  0.00  0.00    -0.278 N 
ATOM      4  C2  UNL     1      16.182  46.263  25.428  0.00  0.00    +0.054 A 
ATOM      5  C3  UNL     1      16.807  45.558  26.461  0.00  0.00    -0.021 A 
ATOM      6  C4  UNL     1      16.127  45.311  27.658  0.00  0.00    +0.043 A 
ATOM      7 CL1  UNL     1      16.908  44.441  28.922  0.00  0.00    -0.083 Cl
ATOM      8  C5  UNL     1      14.820  45.758  27.843  0.00  0.00    -0.042 A 
ATOM      9  C6  UNL     1      14.182  46.462  26.823  0.00  0.00    -0.040 A 
ATOM     10  C7  UNL     1      14.859  46.711  25.627  0.00  0.00    +0.062 A 
ATOM     11 CL2  UNL     1      14.024  47.590  24.389  0.00  0.00    -0.082 Cl
ATOM     12  C8  UNL     1      18.393  46.686  22.414  0.00  0.00    +0.190 A 
ATOM     13  C9  UNL     1      17.691  47.391  21.451  0.00  0.00    -0.011 A 
ATOM     14  C10 UNL     1      18.553  47.531  20.333  0.00  0.00    -0.015 A 
ATOM     15  C11 UNL     1      19.738  46.908  20.662  0.00  0.00    +0.136 A 
ATOM     16  C12 UNL     1      21.012  46.693  19.976  0.00  0.00    +0.019 A 
ATOM     17  C13 UNL     1      22.063  45.997  20.596  0.00  0.00    -0.051 A 
ATOM     18  C14 UNL     1      23.279  45.791  19.939  0.00  0.00    -0.060 A 
ATOM     19  C15 UNL     1      23.464  46.281  18.648  0.00  0.00    -0.043 A 
ATOM     20  C16 UNL     1      22.430  46.973  18.024  0.00  0.00    +0.042 A 
ATOM     21 CL3  UNL     1      22.654  47.580  16.428  0.00  0.00    -0.084 Cl
ATOM     22  C17 UNL     1      21.213  47.180  18.675  0.00  0.00    -0.033 A 
ATOM     23  O2  UNL     1      19.639  46.397  21.923  0.00  0.00    -0.450 OA
ATOM     24  H   UNL     1      16.254  47.059  23.544  0.00  0.00    +0.000 HD
ENDROOT
TORSDOF 0
ENDMDL
MODEL 5
REMARK VINA RESULT:    -4.412     19.195     20.987
REMARK INTER + INTRA:          -4.412
REMARK INTER:                  -4.412
REMARK INTRA:                   0.000
REMARK UNBOUND:                 0.000
REMARK  Name = /home/vital/Documents/PhD_2021/Malaria_codes/scripts/../data/pdbqt_ligands/ligand_268_temp.pdb
REMARK                            x       y       z     vdW  Elec       q    Type
REMARK                         _______ _______ _______ _____ _____    ______ ____
ROOT
ATOM      1  O1  UNL     1      19.949  45.572  22.392  0.00  0.00    -0.266 OA
ATOM      2  C1  UNL     1      19.188  46.205  21.666  0.00  0.00    +0.284 C 
ATOM      3  N1  UNL     1      17.889  46.540  22.016  0.00  0.00    -0.278 N 
ATOM      4  C2  UNL     1      17.192  46.244  23.214  0.00  0.00    +0.054 A 
ATOM      5  C3  UNL     1      17.750  45.530  24.279  0.00  0.00    -0.021 A 
ATOM      6  C4  UNL     1      16.996  45.279  25.430  0.00  0.00    +0.043 A 
ATOM      7 CL1  UNL     1      17.693  44.398  26.734  0.00  0.00    -0.083 Cl
ATOM      8  C5  UNL     1      15.682  45.733  25.538  0.00  0.00    -0.042 A 
ATOM      9  C6  UNL     1      15.112  46.446  24.485  0.00  0.00    -0.040 A 
ATOM     10  C7  UNL     1      15.863  46.699  23.334  0.00  0.00    +0.062 A 
ATOM     11 CL2  UNL     1      15.110  47.590  22.053  0.00  0.00    -0.082 Cl
ATOM     12  C8  UNL     1      19.587  46.673  20.344  0.00  0.00    +0.190 A 
ATOM     13  C9  UNL     1      18.949  47.387  19.345  0.00  0.00    -0.011 A 
ATOM     14  C10 UNL     1      19.878  47.529  18.282  0.00  0.00    -0.015 A 
ATOM     15  C11 UNL     1      21.038  46.897  18.679  0.00  0.00    +0.136 A 
ATOM     16  C12 UNL     1      22.350  46.679  18.071  0.00  0.00    +0.019 A 
ATOM     17  C13 UNL     1      23.358  45.973  18.749  0.00  0.00    -0.051 A 
ATOM     18  C14 UNL     1      24.611  45.764  18.167  0.00  0.00    -0.060 A 
ATOM     19  C15 UNL     1      24.877  46.260  16.894  0.00  0.00    -0.043 A 
ATOM     20  C16 UNL     1      23.886  46.962  16.211  0.00  0.00    +0.042 A 
ATOM     21 CL3  UNL     1      24.211  47.577  14.636  0.00  0.00    -0.084 Cl
ATOM     22  C17 UNL     1      22.633  47.172  16.788  0.00  0.00    -0.033 A 
ATOM     23  O2  UNL     1      20.859  46.380  19.929  0.00  0.00    -0.450 OA
ATOM     24  H   UNL     1      17.384  47.051  21.343  0.00  0.00    +0.000 HD
ENDROOT
TORSDOF 0
ENDMDL
MODEL 6
REMARK VINA RESULT:    -4.095      6.579      9.933
REMARK INTER + INTRA:          -4.095
REMARK INTER:                  -4.095
REMARK INTRA:                   0.000
REMARK UNBOUND:                 0.000
REMARK  Name = /home/vital/Documents/PhD_2021/Malaria_codes/scripts/../data/pdbqt_ligands/ligand_268_temp.pdb
REMARK                            x       y       z     vdW  Elec       q    Type
REMARK                         _______ _______ _______ _____ _____    ______ ____
ROOT
ATOM      1  O1  UNL     1      15.370  33.348  16.577  0.00  0.00    -0.266 OA
ATOM      2  C1  UNL     1      15.676  33.166  15.402  0.00  0.00    +0.284 C 
ATOM      3  N1  UNL     1      16.119  34.170  14.555  0.00  0.00    -0.278 N 
ATOM      4  C2  UNL     1      16.303  35.546  14.837  0.00  0.00    +0.054 A 
ATOM      5  C3  UNL     1      16.051  36.123  16.086  0.00  0.00    -0.021 A 
ATOM      6  C4  UNL     1      16.259  37.491  16.285  0.00  0.00    +0.043 A 
ATOM      7 CL1  UNL     1      15.944  38.189  17.827  0.00  0.00    -0.083 Cl
ATOM      8  C5  UNL     1      16.719  38.303  15.249  0.00  0.00    -0.042 A 
ATOM      9  C6  UNL     1      16.975  37.744  13.999  0.00  0.00    -0.040 A 
ATOM     10  C7  UNL     1      16.769  36.377  13.797  0.00  0.00    +0.062 A 
ATOM     11 CL2  UNL     1      17.101  35.729  12.224  0.00  0.00    -0.082 Cl
ATOM     12  C8  UNL     1      15.603  31.850  14.778  0.00  0.00    +0.190 A 
ATOM     13  C9  UNL     1      15.881  31.373  13.508  0.00  0.00    -0.011 A 
ATOM     14  C10 UNL     1      15.606  29.980  13.523  0.00  0.00    -0.015 A 
ATOM     15  C11 UNL     1      15.175  29.672  14.795  0.00  0.00    +0.136 A 
ATOM     16  C12 UNL     1      14.742  28.446  15.466  0.00  0.00    +0.019 A 
ATOM     17  C13 UNL     1      14.351  28.455  16.815  0.00  0.00    -0.051 A 
ATOM     18  C14 UNL     1      13.936  27.283  17.454  0.00  0.00    -0.060 A 
ATOM     19  C15 UNL     1      13.907  26.081  16.752  0.00  0.00    -0.043 A 
ATOM     20  C16 UNL     1      14.294  26.060  15.414  0.00  0.00    +0.042 A 
ATOM     21 CL3  UNL     1      14.260  24.575  14.543  0.00  0.00    -0.084 Cl
ATOM     22  C17 UNL     1      14.708  27.227  14.772  0.00  0.00    -0.033 A 
ATOM     23  O2  UNL     1      15.175  30.806  15.554  0.00  0.00    -0.450 OA
ATOM     24  H   UNL     1      16.333  33.889  13.636  0.00  0.00    +0.000 HD
ENDROOT
TORSDOF 0
ENDMDL
MODEL 7
REMARK VINA RESULT:    -4.017     14.254     17.624
REMARK INTER + INTRA:          -4.017
REMARK INTER:                  -4.017
REMARK INTRA:                   0.000
REMARK UNBOUND:                 0.000
REMARK  Name = /home/vital/Documents/PhD_2021/Malaria_codes/scripts/../data/pdbqt_ligands/ligand_268_temp.pdb
REMARK                            x       y       z     vdW  Elec       q    Type
REMARK                         _______ _______ _______ _____ _____    ______ ____
ROOT
ATOM      1  O1  UNL     1      13.832  41.356  29.662  0.00  0.00    -0.266 OA
ATOM      2  C1  UNL     1      13.835  40.770  28.584  0.00  0.00    +0.284 C 
ATOM      3  N1  UNL     1      13.810  39.390  28.455  0.00  0.00    -0.278 N 
ATOM      4  C2  UNL     1      13.782  38.408  29.477  0.00  0.00    +0.054 A 
ATOM      5  C3  UNL     1      13.771  38.709  30.843  0.00  0.00    -0.021 A 
ATOM      6  C4  UNL     1      13.741  37.682  31.790  0.00  0.00    +0.043 A 
ATOM      7 CL1  UNL     1      13.730  38.066  33.469  0.00  0.00    -0.083 Cl
ATOM      8  C5  UNL     1      13.722  36.345  31.395  0.00  0.00    -0.042 A 
ATOM      9  C6  UNL     1      13.732  36.028  30.039  0.00  0.00    -0.040 A 
ATOM     10  C7  UNL     1      13.761  37.052  29.089  0.00  0.00    +0.062 A 
ATOM     11 CL2  UNL     1      13.772  36.607  27.415  0.00  0.00    -0.082 Cl
ATOM     12  C8  UNL     1      13.862  41.485  27.313  0.00  0.00    +0.190 A 
ATOM     13  C9  UNL     1      13.870  41.087  25.987  0.00  0.00    -0.011 A 
ATOM     14  C10 UNL     1      13.900  42.269  25.202  0.00  0.00    -0.015 A 
ATOM     15  C11 UNL     1      13.909  43.331  26.081  0.00  0.00    +0.136 A 
ATOM     16  C12 UNL     1      13.937  44.786  25.936  0.00  0.00    +0.019 A 
ATOM     17  C13 UNL     1      13.939  45.629  27.060  0.00  0.00    -0.051 A 
ATOM     18  C14 UNL     1      13.967  47.019  26.920  0.00  0.00    -0.060 A 
ATOM     19  C15 UNL     1      13.992  47.590  25.650  0.00  0.00    -0.043 A 
ATOM     20  C16 UNL     1      13.989  46.765  24.528  0.00  0.00    +0.042 A 
ATOM     21 CL3  UNL     1      14.019  47.466  22.956  0.00  0.00    -0.084 Cl
ATOM     22  C17 UNL     1      13.962  45.376  24.663  0.00  0.00    -0.033 A 
ATOM     23  O2  UNL     1      13.885  42.854  27.360  0.00  0.00    -0.450 OA
ATOM     24  H   UNL     1      13.814  39.047  27.533  0.00  0.00    +0.000 HD
ENDROOT
TORSDOF 0
ENDMDL
MODEL 8
REMARK VINA RESULT:    -3.872      2.411      9.018
REMARK INTER + INTRA:          -3.872
REMARK INTER:                  -3.872
REMARK INTRA:                   0.000
REMARK UNBOUND:                 0.000
REMARK  Name = /home/vital/Documents/PhD_2021/Malaria_codes/scripts/../data/pdbqt_ligands/ligand_268_temp.pdb
REMARK                            x       y       z     vdW  Elec       q    Type
REMARK                         _______ _______ _______ _____ _____    ______ ____
ROOT
ATOM      1  O1  UNL     1      14.138  27.778  23.061  0.00  0.00    -0.266 OA
ATOM      2  C1  UNL     1      14.548  28.875  22.693  0.00  0.00    +0.284 C 
ATOM      3  N1  UNL     1      14.871  29.909  23.558  0.00  0.00    -0.278 N 
ATOM      4  C2  UNL     1      14.801  29.931  24.973  0.00  0.00    +0.054 A 
ATOM      5  C3  UNL     1      14.373  28.846  25.746  0.00  0.00    -0.021 A 
ATOM      6  C4  UNL     1      14.334  28.947  27.140  0.00  0.00    +0.043 A 
ATOM      7 CL1  UNL     1      13.804  27.605  28.080  0.00  0.00    -0.083 Cl
ATOM      8  C5  UNL     1      14.718  30.122  27.783  0.00  0.00    -0.042 A 
ATOM      9  C6  UNL     1      15.147  31.211  27.029  0.00  0.00    -0.040 A 
ATOM     10  C7  UNL     1      15.188  31.114  25.635  0.00  0.00    +0.062 A 
ATOM     11 CL2  UNL     1      15.729  32.496  24.740  0.00  0.00    -0.082 Cl
ATOM     12  C8  UNL     1      14.740  29.198  21.283  0.00  0.00    +0.190 A 
ATOM     13  C9  UNL     1      15.177  30.323  20.607  0.00  0.00    -0.011 A 
ATOM     14  C10 UNL     1      15.141  30.011  19.223  0.00  0.00    -0.015 A 
ATOM     15  C11 UNL     1      14.684  28.715  19.117  0.00  0.00    +0.136 A 
ATOM     16  C12 UNL     1      14.420  27.804  18.004  0.00  0.00    +0.019 A 
ATOM     17  C13 UNL     1      13.944  26.502  18.226  0.00  0.00    -0.051 A 
ATOM     18  C14 UNL     1      13.691  25.633  17.161  0.00  0.00    -0.060 A 
ATOM     19  C15 UNL     1      13.912  26.055  15.853  0.00  0.00    -0.043 A 
ATOM     20  C16 UNL     1      14.385  27.344  15.619  0.00  0.00    +0.042 A 
ATOM     21 CL3  UNL     1      14.660  27.869  14.003  0.00  0.00    -0.084 Cl
ATOM     22  C17 UNL     1      14.638  28.215  16.680  0.00  0.00    -0.033 A 
ATOM     23  O2  UNL     1      14.442  28.223  20.368  0.00  0.00    -0.450 OA
ATOM     24  H   UNL     1      15.190  30.737  23.133  0.00  0.00    +0.000 HD
ENDROOT
TORSDOF 0
ENDMDL
MODEL 9
REMARK VINA RESULT:    -3.282     13.428     17.051
REMARK INTER + INTRA:          -3.282
REMARK INTER:                  -3.282
REMARK INTRA:                   0.000
REMARK UNBOUND:                 0.000
REMARK  Name = /home/vital/Documents/PhD_2021/Malaria_codes/scripts/../data/pdbqt_ligands/ligand_268_temp.pdb
REMARK                            x       y       z     vdW  Elec       q    Type
REMARK                         _______ _______ _______ _____ _____    ______ ____
ROOT
ATOM      1  O1  UNL     1      13.762  39.432  31.212  0.00  0.00    -0.266 OA
ATOM      2  C1  UNL     1      13.756  39.184  30.010  0.00  0.00    +0.284 C 
ATOM      3  N1  UNL     1      13.737  37.900  29.487  0.00  0.00    -0.278 N 
ATOM      4  C2  UNL     1      13.723  36.664  30.180  0.00  0.00    +0.054 A 
ATOM      5  C3  UNL     1      13.725  36.556  31.575  0.00  0.00    -0.021 A 
ATOM      6  C4  UNL     1      13.710  35.298  32.184  0.00  0.00    +0.043 A 
ATOM      7 CL1  UNL     1      13.714  35.178  33.901  0.00  0.00    -0.083 Cl
ATOM      8  C5  UNL     1      13.692  34.133  31.418  0.00  0.00    -0.042 A 
ATOM      9  C6  UNL     1      13.690  34.223  30.028  0.00  0.00    -0.040 A 
ATOM     10  C7  UNL     1      13.705  35.478  29.416  0.00  0.00    +0.062 A 
ATOM     11 CL2  UNL     1      13.701  35.538  27.685  0.00  0.00    -0.082 Cl
ATOM     12  C8  UNL     1      13.767  40.236  29.001  0.00  0.00    +0.190 A 
ATOM     13  C9  UNL     1      13.763  40.240  27.617  0.00  0.00    -0.011 A 
ATOM     14  C10 UNL     1      13.780  41.599  27.208  0.00  0.00    -0.015 A 
ATOM     15  C11 UNL     1      13.793  42.361  28.357  0.00  0.00    +0.136 A 
ATOM     16  C12 UNL     1      13.813  43.796  28.640  0.00  0.00    +0.019 A 
ATOM     17  C13 UNL     1      13.822  44.277  29.960  0.00  0.00    -0.051 A 
ATOM     18  C14 UNL     1      13.842  45.648  30.229  0.00  0.00    -0.060 A 
ATOM     19  C15 UNL     1      13.851  46.562  29.179  0.00  0.00    -0.043 A 
ATOM     20  C16 UNL     1      13.841  46.098  27.866  0.00  0.00    +0.042 A 
ATOM     21 CL3  UNL     1      13.852  47.225  26.564  0.00  0.00    -0.084 Cl
ATOM     22  C17 UNL     1      13.822  44.729  27.592  0.00  0.00    -0.033 A 
ATOM     23  O2  UNL     1      13.784  41.533  29.442  0.00  0.00    -0.450 OA
ATOM     24  H   UNL     1      13.733  37.839  28.505  0.00  0.00    +0.000 HD
ENDROOT
TORSDOF 0
ENDMDL
