MODEL 1
REMARK VINA RESULT:    -4.469      0.000      0.000
REMARK INTER + INTRA:          -4.469
REMARK INTER:                  -4.469
REMARK INTRA:                   0.000
REMARK UNBOUND:                 0.000
REMARK  Name = /home/vital/Documents/PhD_2021/Malaria_codes/scripts/../data/pdbqt_ligands/ligand_471_temp.pdb
REMARK                            x       y       z     vdW  Elec       q    Type
REMARK                         _______ _______ _______ _____ _____    ______ ____
ROOT
ATOM      1  N   UNL     1      19.169  27.829  13.284  0.00  0.00    -0.281 N 
ATOM      2  N   UNL     1      18.130  28.690  13.156  0.00  0.00    -0.174 N 
ATOM      3  C   UNL     1      18.056  29.644  14.041  0.00  0.00    +0.145 C 
ATOM      4  N   UNL     1      18.992  29.917  15.040  0.00  0.00    -0.325 N 
ATOM      5  C   UNL     1      20.370  30.254  14.668  0.00  0.00    +0.034 C 
ATOM      6  C   UNL     1      21.361  29.586  15.622  0.00  0.00    +0.060 C 
ATOM      7  O   UNL     1      22.681  30.055  15.367  0.00  0.00    -0.393 OA
ATOM      8  C   UNL     1      16.833  30.514  14.006  0.00  0.00    +0.042 A 
ATOM      9  C   UNL     1      17.037  31.905  14.006  0.00  0.00    -0.049 A 
ATOM     10  C   UNL     1      15.949  32.777  13.988  0.00  0.00    -0.061 A 
ATOM     11  C   UNL     1      14.655  32.266  13.963  0.00  0.00    -0.060 A 
ATOM     12  C   UNL     1      14.450  30.885  13.958  0.00  0.00    -0.036 A 
ATOM     13  C   UNL     1      15.525  29.985  13.994  0.00  0.00    +0.074 A 
ATOM     14  N   UNL     1      15.192  28.616  13.978  0.00  0.00    -0.255 NA
ATOM     15  C   UNL     1      15.680  27.864  14.908  0.00  0.00    +0.033 C 
ATOM     16  C   UNL     1      15.466  26.414  14.951  0.00  0.00    -0.006 C 
ATOM     17  C   UNL     1      14.779  25.700  14.043  0.00  0.00    -0.054 C 
ATOM     18  C   UNL     1      14.786  24.311  14.436  0.00  0.00    -0.045 C 
ATOM     19  C   UNL     1      15.489  24.187  15.570  0.00  0.00    +0.041 C 
ATOM     20 CL   UNL     1      15.723  22.755  16.450  0.00  0.00    -0.086 Cl
ATOM     21  C   UNL     1      16.006  25.522  16.028  0.00  0.00    +0.096 C 
ATOM     22 CL   UNL     1      17.781  25.563  16.061  0.00  0.00    -0.111 Cl
ATOM     23  H   UNL     1      19.276  27.089  12.643  0.00  0.00    +0.000 HD
ATOM     24  H   UNL     1      19.816  27.944  14.017  0.00  0.00    +0.000 HD
ATOM     25  H   UNL     1      17.468  28.600  12.433  0.00  0.00    +0.000 HD
ATOM     26  H   UNL     1      18.728  29.883  15.988  0.00  0.00    +0.000 HD
ATOM     27  H   UNL     1      22.931  29.840  14.456  0.00  0.00    +0.000 HD
ENDROOT
TORSDOF 0
ENDMDL
MODEL 2
REMARK VINA RESULT:    -4.262      4.371      5.975
REMARK INTER + INTRA:          -4.262
REMARK INTER:                  -4.262
REMARK INTRA:                   0.000
REMARK UNBOUND:                 0.000
REMARK  Name = /home/vital/Documents/PhD_2021/Malaria_codes/scripts/../data/pdbqt_ligands/ligand_471_temp.pdb
REMARK                            x       y       z     vdW  Elec       q    Type
REMARK                         _______ _______ _______ _____ _____    ______ ____
ROOT
ATOM      1  N   UNL     1      13.858  26.613  17.431  0.00  0.00    -0.281 N 
ATOM      2  N   UNL     1      14.010  27.572  16.486  0.00  0.00    -0.174 N 
ATOM      3  C   UNL     1      14.983  27.400  15.636  0.00  0.00    +0.145 C 
ATOM      4  N   UNL     1      15.813  26.281  15.549  0.00  0.00    -0.325 N 
ATOM      5  C   UNL     1      15.226  24.965  15.275  0.00  0.00    +0.034 C 
ATOM      6  C   UNL     1      15.909  23.888  16.118  0.00  0.00    +0.060 C 
ATOM      7  O   UNL     1      15.462  22.595  15.723  0.00  0.00    -0.393 OA
ATOM      8  C   UNL     1      15.261  28.523  14.680  0.00  0.00    +0.042 A 
ATOM      9  C   UNL     1      15.360  28.192  13.317  0.00  0.00    -0.049 A 
ATOM     10  C   UNL     1      15.630  29.180  12.370  0.00  0.00    -0.061 A 
ATOM     11  C   UNL     1      15.795  30.501  12.777  0.00  0.00    -0.060 A 
ATOM     12  C   UNL     1      15.693  30.832  14.130  0.00  0.00    -0.036 A 
ATOM     13  C   UNL     1      15.440  29.856  15.105  0.00  0.00    +0.074 A 
ATOM     14  N   UNL     1      15.351  30.314  16.435  0.00  0.00    -0.255 NA
ATOM     15  C   UNL     1      16.097  29.741  17.322  0.00  0.00    +0.033 C 
ATOM     16  C   UNL     1      16.036  30.080  18.748  0.00  0.00    -0.006 C 
ATOM     17  C   UNL     1      15.206  30.980  19.301  0.00  0.00    -0.054 C 
ATOM     18  C   UNL     1      15.452  31.034  20.722  0.00  0.00    -0.045 C 
ATOM     19  C   UNL     1      16.418  30.156  21.026  0.00  0.00    +0.041 C 
ATOM     20 CL   UNL     1      17.095  29.905  22.562  0.00  0.00    -0.086 Cl
ATOM     21  C   UNL     1      16.901  29.444  19.794  0.00  0.00    +0.096 C 
ATOM     22 CL   UNL     1      16.608  27.695  19.889  0.00  0.00    -0.111 Cl
ATOM     23  H   UNL     1      13.139  26.690  18.100  0.00  0.00    +0.000 HD
ATOM     24  H   UNL     1      14.465  25.838  17.449  0.00  0.00    +0.000 HD
ATOM     25  H   UNL     1      13.417  28.357  16.444  0.00  0.00    +0.000 HD
ATOM     26  H   UNL     1      16.785  26.375  15.671  0.00  0.00    +0.000 HD
ATOM     27  H   UNL     1      14.503  22.532  15.852  0.00  0.00    +0.000 HD
ENDROOT
TORSDOF 0
ENDMDL
MODEL 3
REMARK VINA RESULT:    -4.251      3.486      6.226
REMARK INTER + INTRA:          -4.251
REMARK INTER:                  -4.251
REMARK INTRA:                   0.000
REMARK UNBOUND:                 0.000
REMARK  Name = /home/vital/Documents/PhD_2021/Malaria_codes/scripts/../data/pdbqt_ligands/ligand_471_temp.pdb
REMARK                            x       y       z     vdW  Elec       q    Type
REMARK                         _______ _______ _______ _____ _____    ______ ____
ROOT
ATOM      1  N   UNL     1      15.602  29.900  17.834  0.00  0.00    -0.281 N 
ATOM      2  N   UNL     1      15.113  28.869  17.103  0.00  0.00    -0.174 N 
ATOM      3  C   UNL     1      15.929  27.877  16.880  0.00  0.00    +0.145 C 
ATOM      4  N   UNL     1      17.216  27.736  17.401  0.00  0.00    -0.325 N 
ATOM      5  C   UNL     1      17.405  27.676  18.854  0.00  0.00    +0.034 C 
ATOM      6  C   UNL     1      18.646  28.469  19.266  0.00  0.00    +0.060 C 
ATOM      7  O   UNL     1      18.926  28.264  20.647  0.00  0.00    -0.393 OA
ATOM      8  C   UNL     1      15.455  26.800  15.949  0.00  0.00    +0.042 A 
ATOM      9  C   UNL     1      15.571  25.472  16.395  0.00  0.00    -0.049 A 
ATOM     10  C   UNL     1      15.164  24.416  15.580  0.00  0.00    -0.061 A 
ATOM     11  C   UNL     1      14.634  24.680  14.320  0.00  0.00    -0.060 A 
ATOM     12  C   UNL     1      14.514  25.999  13.876  0.00  0.00    -0.036 A 
ATOM     13  C   UNL     1      14.932  27.079  14.668  0.00  0.00    +0.074 A 
ATOM     14  N   UNL     1      14.752  28.362  14.114  0.00  0.00    -0.255 NA
ATOM     15  C   UNL     1      15.778  29.147  14.063  0.00  0.00    +0.033 C 
ATOM     16  C   UNL     1      15.696  30.529  13.580  0.00  0.00    -0.006 C 
ATOM     17  C   UNL     1      14.576  31.145  13.167  0.00  0.00    -0.054 C 
ATOM     18  C   UNL     1      14.904  32.492  12.763  0.00  0.00    -0.045 C 
ATOM     19  C   UNL     1      16.216  32.690  12.948  0.00  0.00    +0.041 C 
ATOM     20 CL   UNL     1      17.080  34.098  12.557  0.00  0.00    -0.086 Cl
ATOM     21  C   UNL     1      16.873  31.454  13.494  0.00  0.00    +0.096 C 
ATOM     22 CL   UNL     1      17.579  31.740  15.098  0.00  0.00    -0.111 Cl
ATOM     23  H   UNL     1      15.031  30.676  18.034  0.00  0.00    +0.000 HD
ATOM     24  H   UNL     1      16.529  29.872  18.165  0.00  0.00    +0.000 HD
ATOM     25  H   UNL     1      14.190  28.869  16.759  0.00  0.00    +0.000 HD
ATOM     26  H   UNL     1      17.991  27.676  16.797  0.00  0.00    +0.000 HD
ATOM     27  H   UNL     1      18.172  28.565  21.178  0.00  0.00    +0.000 HD
ENDROOT
TORSDOF 0
ENDMDL
MODEL 4
REMARK VINA RESULT:    -4.093      4.258      6.122
REMARK INTER + INTRA:          -4.093
REMARK INTER:                  -4.093
REMARK INTRA:                   0.000
REMARK UNBOUND:                 0.000
REMARK  Name = /home/vital/Documents/PhD_2021/Malaria_codes/scripts/../data/pdbqt_ligands/ligand_471_temp.pdb
REMARK                            x       y       z     vdW  Elec       q    Type
REMARK                         _______ _______ _______ _____ _____    ______ ____
ROOT
ATOM      1  N   UNL     1      16.989  30.364  16.261  0.00  0.00    -0.281 N 
ATOM      2  N   UNL     1      16.809  29.050  15.984  0.00  0.00    -0.174 N 
ATOM      3  C   UNL     1      15.736  28.742  15.312  0.00  0.00    +0.145 C 
ATOM      4  N   UNL     1      14.814  29.640  14.772  0.00  0.00    -0.325 N 
ATOM      5  C   UNL     1      15.259  30.621  13.776  0.00  0.00    +0.034 C 
ATOM      6  C   UNL     1      14.591  31.975  14.022  0.00  0.00    +0.060 C 
ATOM      7  O   UNL     1      14.886  32.871  12.955  0.00  0.00    -0.393 OA
ATOM      8  C   UNL     1      15.442  27.281  15.127  0.00  0.00    +0.042 A 
ATOM      9  C   UNL     1      15.164  26.845  13.820  0.00  0.00    -0.049 A 
ATOM     10  C   UNL     1      14.869  25.505  13.572  0.00  0.00    -0.061 A 
ATOM     11  C   UNL     1      14.857  24.594  14.624  0.00  0.00    -0.060 A 
ATOM     12  C   UNL     1      15.138  25.024  15.923  0.00  0.00    -0.036 A 
ATOM     13  C   UNL     1      15.420  26.369  16.204  0.00  0.00    +0.074 A 
ATOM     14  N   UNL     1      15.694  26.679  17.551  0.00  0.00    -0.255 NA
ATOM     15  C   UNL     1      15.010  27.626  18.104  0.00  0.00    +0.033 C 
ATOM     16  C   UNL     1      15.258  28.088  19.473  0.00  0.00    -0.006 C 
ATOM     17  C   UNL     1      16.215  27.620  20.292  0.00  0.00    -0.054 C 
ATOM     18  C   UNL     1      16.135  28.319  21.554  0.00  0.00    -0.045 C 
ATOM     19  C   UNL     1      15.143  29.216  21.487  0.00  0.00    +0.041 C 
ATOM     20 CL   UNL     1      14.625  30.231  22.745  0.00  0.00    -0.086 Cl
ATOM     21  C   UNL     1      14.468  29.171  20.144  0.00  0.00    +0.096 C 
ATOM     22 CL   UNL     1      14.630  30.711  19.276  0.00  0.00    -0.111 Cl
ATOM     23  H   UNL     1      17.783  30.657  16.766  0.00  0.00    +0.000 HD
ATOM     24  H   UNL     1      16.327  31.027  15.958  0.00  0.00    +0.000 HD
ATOM     25  H   UNL     1      17.454  28.366  16.275  0.00  0.00    +0.000 HD
ATOM     26  H   UNL     1      13.873  29.616  15.058  0.00  0.00    +0.000 HD
ATOM     27  H   UNL     1      15.845  33.001  12.899  0.00  0.00    +0.000 HD
ENDROOT
TORSDOF 0
ENDMDL
MODEL 5
REMARK VINA RESULT:    -4.037      4.321      5.880
REMARK INTER + INTRA:          -4.037
REMARK INTER:                  -4.037
REMARK INTRA:                   0.000
REMARK UNBOUND:                 0.000
REMARK  Name = /home/vital/Documents/PhD_2021/Malaria_codes/scripts/../data/pdbqt_ligands/ligand_471_temp.pdb
REMARK                            x       y       z     vdW  Elec       q    Type
REMARK                         _______ _______ _______ _____ _____    ______ ____
ROOT
ATOM      1  N   UNL     1      14.470  26.765  17.882  0.00  0.00    -0.281 N 
ATOM      2  N   UNL     1      14.370  27.973  17.275  0.00  0.00    -0.174 N 
ATOM      3  C   UNL     1      14.906  28.073  16.091  0.00  0.00    +0.145 C 
ATOM      4  N   UNL     1      15.481  27.035  15.356  0.00  0.00    -0.325 N 
ATOM      5  C   UNL     1      14.665  25.875  14.982  0.00  0.00    +0.034 C 
ATOM      6  C   UNL     1      15.472  24.584  15.125  0.00  0.00    +0.060 C 
ATOM      7  O   UNL     1      14.739  23.484  14.596  0.00  0.00    -0.393 OA
ATOM      8  C   UNL     1      14.938  29.439  15.470  0.00  0.00    +0.042 A 
ATOM      9  C   UNL     1      14.457  29.554  14.154  0.00  0.00    -0.049 A 
ATOM     10  C   UNL     1      14.467  30.789  13.506  0.00  0.00    -0.061 A 
ATOM     11  C   UNL     1      14.951  31.913  14.168  0.00  0.00    -0.060 A 
ATOM     12  C   UNL     1      15.425  31.801  15.477  0.00  0.00    -0.036 A 
ATOM     13  C   UNL     1      15.443  30.569  16.147  0.00  0.00    +0.074 A 
ATOM     14  N   UNL     1      15.938  30.585  17.466  0.00  0.00    -0.255 NA
ATOM     15  C   UNL     1      16.885  29.759  17.765  0.00  0.00    +0.033 C 
ATOM     16  C   UNL     1      17.427  29.631  19.122  0.00  0.00    -0.006 C 
ATOM     17  C   UNL     1      17.003  30.314  20.198  0.00  0.00    -0.054 C 
ATOM     18  C   UNL     1      17.786  29.917  21.345  0.00  0.00    -0.045 C 
ATOM     19  C   UNL     1      18.668  28.984  20.961  0.00  0.00    +0.041 C 
ATOM     20 CL   UNL     1      19.848  28.259  21.943  0.00  0.00    -0.086 Cl
ATOM     21  C   UNL     1      18.537  28.694  19.492  0.00  0.00    +0.096 C 
ATOM     22 CL   UNL     1      18.074  27.005  19.195  0.00  0.00    -0.111 Cl
ATOM     23  H   UNL     1      14.083  26.631  18.777  0.00  0.00    +0.000 HD
ATOM     24  H   UNL     1      14.928  26.022  17.427  0.00  0.00    +0.000 HD
ATOM     25  H   UNL     1      13.917  28.733  17.706  0.00  0.00    +0.000 HD
ATOM     26  H   UNL     1      16.427  27.082  15.091  0.00  0.00    +0.000 HD
ATOM     27  H   UNL     1      13.905  23.387  15.082  0.00  0.00    +0.000 HD
ENDROOT
TORSDOF 0
ENDMDL
MODEL 6
REMARK VINA RESULT:    -3.958      4.783      5.502
REMARK INTER + INTRA:          -3.958
REMARK INTER:                  -3.958
REMARK INTRA:                   0.000
REMARK UNBOUND:                 0.000
REMARK  Name = /home/vital/Documents/PhD_2021/Malaria_codes/scripts/../data/pdbqt_ligands/ligand_471_temp.pdb
REMARK                            x       y       z     vdW  Elec       q    Type
REMARK                         _______ _______ _______ _____ _____    ______ ____
ROOT
ATOM      1  N   UNL     1      16.476  28.077  19.777  0.00  0.00    -0.281 N 
ATOM      2  N   UNL     1      16.510  29.270  19.135  0.00  0.00    -0.174 N 
ATOM      3  C   UNL     1      15.466  30.037  19.279  0.00  0.00    +0.145 C 
ATOM      4  N   UNL     1      14.368  29.788  20.104  0.00  0.00    -0.325 N 
ATOM      5  C   UNL     1      14.568  29.644  21.550  0.00  0.00    +0.034 C 
ATOM      6  C   UNL     1      13.691  28.519  22.102  0.00  0.00    +0.060 C 
ATOM      7  O   UNL     1      13.754  28.499  23.525  0.00  0.00    -0.393 OA
ATOM      8  C   UNL     1      15.421  31.292  18.456  0.00  0.00    +0.042 A 
ATOM      9  C   UNL     1      15.139  32.491  19.134  0.00  0.00    -0.049 A 
ATOM     10  C   UNL     1      15.068  33.695  18.434  0.00  0.00    -0.061 A 
ATOM     11  C   UNL     1      15.284  33.710  17.060  0.00  0.00    -0.060 A 
ATOM     12  C   UNL     1      15.570  32.520  16.385  0.00  0.00    -0.036 A 
ATOM     13  C   UNL     1      15.630  31.292  17.061  0.00  0.00    +0.074 A 
ATOM     14  N   UNL     1      15.933  30.164  16.273  0.00  0.00    -0.255 NA
ATOM     15  C   UNL     1      15.132  29.152  16.334  0.00  0.00    +0.033 C 
ATOM     16  C   UNL     1      15.384  27.896  15.620  0.00  0.00    -0.006 C 
ATOM     17  C   UNL     1      16.460  27.635  14.859  0.00  0.00    -0.054 C 
ATOM     18  C   UNL     1      16.342  26.299  14.323  0.00  0.00    -0.045 C 
ATOM     19  C   UNL     1      15.206  25.752  14.775  0.00  0.00    +0.041 C 
ATOM     20 CL   UNL     1      14.602  24.219  14.368  0.00  0.00    -0.086 Cl
ATOM     21  C   UNL     1      14.463  26.714  15.660  0.00  0.00    +0.096 C 
ATOM     22 CL   UNL     1      14.294  26.089  17.314  0.00  0.00    -0.111 Cl
ATOM     23  H   UNL     1      17.237  27.457  19.704  0.00  0.00    +0.000 HD
ATOM     24  H   UNL     1      15.689  27.831  20.316  0.00  0.00    +0.000 HD
ATOM     25  H   UNL     1      17.283  29.543  18.589  0.00  0.00    +0.000 HD
ATOM     26  H   UNL     1      13.466  29.709  19.717  0.00  0.00    +0.000 HD
ATOM     27  H   UNL     1      14.669  28.348  23.806  0.00  0.00    +0.000 HD
ENDROOT
TORSDOF 0
ENDMDL
MODEL 7
REMARK VINA RESULT:    -3.825      3.319      6.069
REMARK INTER + INTRA:          -3.825
REMARK INTER:                  -3.825
REMARK INTRA:                   0.000
REMARK UNBOUND:                 0.000
REMARK  Name = /home/vital/Documents/PhD_2021/Malaria_codes/scripts/../data/pdbqt_ligands/ligand_471_temp.pdb
REMARK                            x       y       z     vdW  Elec       q    Type
REMARK                         _______ _______ _______ _____ _____    ______ ____
ROOT
ATOM      1  N   UNL     1      19.193  29.691  15.486  0.00  0.00    -0.281 N 
ATOM      2  N   UNL     1      17.985  29.079  15.548  0.00  0.00    -0.174 N 
ATOM      3  C   UNL     1      17.619  28.411  14.490  0.00  0.00    +0.145 C 
ATOM      4  N   UNL     1      18.390  28.188  13.348  0.00  0.00    -0.325 N 
ATOM      5  C   UNL     1      19.664  27.471  13.465  0.00  0.00    +0.034 C 
ATOM      6  C   UNL     1      20.723  28.112  12.566  0.00  0.00    +0.060 C 
ATOM      7  O   UNL     1      21.901  27.313  12.546  0.00  0.00    -0.393 OA
ATOM      8  C   UNL     1      16.225  27.855  14.483  0.00  0.00    +0.042 A 
ATOM      9  C   UNL     1      16.080  26.496  14.151  0.00  0.00    -0.049 A 
ATOM     10  C   UNL     1      14.814  25.912  14.111  0.00  0.00    -0.061 A 
ATOM     11  C   UNL     1      13.690  26.677  14.407  0.00  0.00    -0.060 A 
ATOM     12  C   UNL     1      13.832  28.026  14.742  0.00  0.00    -0.036 A 
ATOM     13  C   UNL     1      15.091  28.643  14.773  0.00  0.00    +0.074 A 
ATOM     14  N   UNL     1      15.107  30.006  15.132  0.00  0.00    -0.255 NA
ATOM     15  C   UNL     1      15.702  30.833  14.337  0.00  0.00    +0.033 C 
ATOM     16  C   UNL     1      15.848  32.260  14.641  0.00  0.00    -0.006 C 
ATOM     17  C   UNL     1      15.421  32.866  15.762  0.00  0.00    -0.054 C 
ATOM     18  C   UNL     1      15.743  34.271  15.687  0.00  0.00    -0.045 C 
ATOM     19  C   UNL     1      16.377  34.507  14.531  0.00  0.00    +0.041 C 
ATOM     20 CL   UNL     1      16.897  36.021  13.965  0.00  0.00    -0.086 Cl
ATOM     21  C   UNL     1      16.518  33.243  13.729  0.00  0.00    +0.096 C 
ATOM     22 CL   UNL     1      18.222  32.817  13.470  0.00  0.00    -0.111 Cl
ATOM     23  H   UNL     1      19.522  30.210  16.256  0.00  0.00    +0.000 HD
ATOM     24  H   UNL     1      19.741  29.617  14.672  0.00  0.00    +0.000 HD
ATOM     25  H   UNL     1      17.416  29.136  16.349  0.00  0.00    +0.000 HD
ATOM     26  H   UNL     1      18.080  28.510  12.471  0.00  0.00    +0.000 HD
ATOM     27  H   UNL     1      22.257  27.239  13.445  0.00  0.00    +0.000 HD
ENDROOT
TORSDOF 0
ENDMDL
MODEL 8
REMARK VINA RESULT:    -3.787      5.236      6.890
REMARK INTER + INTRA:          -3.787
REMARK INTER:                  -3.787
REMARK INTRA:                   0.000
REMARK UNBOUND:                 0.000
REMARK  Name = /home/vital/Documents/PhD_2021/Malaria_codes/scripts/../data/pdbqt_ligands/ligand_471_temp.pdb
REMARK                            x       y       z     vdW  Elec       q    Type
REMARK                         _______ _______ _______ _____ _____    ______ ____
ROOT
ATOM      1  N   UNL     1      17.747  24.490  20.014  0.00  0.00    -0.281 N 
ATOM      2  N   UNL     1      16.686  24.580  19.176  0.00  0.00    -0.174 N 
ATOM      3  C   UNL     1      16.954  24.838  17.927  0.00  0.00    +0.145 C 
ATOM      4  N   UNL     1      18.225  24.932  17.359  0.00  0.00    -0.325 N 
ATOM      5  C   UNL     1      19.124  23.773  17.401  0.00  0.00    +0.034 C 
ATOM      6  C   UNL     1      20.558  24.218  17.693  0.00  0.00    +0.060 C 
ATOM      7  O   UNL     1      21.451  23.118  17.559  0.00  0.00    -0.393 OA
ATOM      8  C   UNL     1      15.788  25.090  17.016  0.00  0.00    +0.042 A 
ATOM      9  C   UNL     1      15.751  24.370  15.809  0.00  0.00    -0.049 A 
ATOM     10  C   UNL     1      14.705  24.561  14.906  0.00  0.00    -0.061 A 
ATOM     11  C   UNL     1      13.690  25.465  15.206  0.00  0.00    -0.060 A 
ATOM     12  C   UNL     1      13.722  26.178  16.407  0.00  0.00    -0.036 A 
ATOM     13  C   UNL     1      14.771  26.019  17.324  0.00  0.00    +0.074 A 
ATOM     14  N   UNL     1      14.688  26.788  18.503  0.00  0.00    -0.255 NA
ATOM     15  C   UNL     1      15.703  27.523  18.816  0.00  0.00    +0.033 C 
ATOM     16  C   UNL     1      15.764  28.306  20.055  0.00  0.00    -0.006 C 
ATOM     17  C   UNL     1      14.814  28.336  21.005  0.00  0.00    -0.054 C 
ATOM     18  C   UNL     1      15.236  29.225  22.062  0.00  0.00    -0.045 C 
ATOM     19  C   UNL     1      16.444  29.715  21.755  0.00  0.00    +0.041 C 
ATOM     20 CL   UNL     1      17.322  30.850  22.662  0.00  0.00    -0.086 Cl
ATOM     21  C   UNL     1      16.921  29.180  20.434  0.00  0.00    +0.096 C 
ATOM     22 CL   UNL     1      18.410  28.229  20.609  0.00  0.00    -0.111 Cl
ATOM     23  H   UNL     1      17.605  24.296  20.969  0.00  0.00    +0.000 HD
ATOM     24  H   UNL     1      18.660  24.617  19.668  0.00  0.00    +0.000 HD
ATOM     25  H   UNL     1      15.762  24.457  19.494  0.00  0.00    +0.000 HD
ATOM     26  H   UNL     1      18.517  25.771  16.933  0.00  0.00    +0.000 HD
ATOM     27  H   UNL     1      21.205  22.422  18.188  0.00  0.00    +0.000 HD
ENDROOT
TORSDOF 0
ENDMDL
