MODEL 1
REMARK VINA RESULT:    -4.297      0.000      0.000
REMARK INTER + INTRA:          -4.297
REMARK INTER:                  -4.297
REMARK INTRA:                   0.000
REMARK UNBOUND:                 0.000
REMARK  Name = /home/vital/Documents/PhD_2021/Malaria_codes/scripts/../data/pdbqt_ligands/ligand_174_temp.pdb
REMARK                            x       y       z     vdW  Elec       q    Type
REMARK                         _______ _______ _______ _____ _____    ______ ____
ROOT
ATOM      1  C   UNL     1      23.929  46.583  17.116  0.00  0.00    -0.060 C 
ATOM      2  C   UNL     1      22.488  46.415  16.677  0.00  0.00    -0.020 C 
ATOM      3  C   UNL     1      21.612  46.171  17.876  0.00  0.00    +0.005 C 
ATOM      4  N   UNL     1      20.725  47.045  18.223  0.00  0.00    -0.267 NA
ATOM      5  C   UNL     1      19.981  46.739  19.332  0.00  0.00    +0.035 C 
ATOM      6  C   UNL     1      19.070  47.589  19.822  0.00  0.00    +0.007 C 
ATOM      7  C   UNL     1      18.304  47.276  20.975  0.00  0.00    -0.072 C 
ATOM      8  C   UNL     1      17.678  46.985  21.959  0.00  0.00    -0.091 C 
ATOM      9  C   UNL     1      16.948  46.580  23.169  0.00  0.00    +0.052 C 
ATOM     10  C   UNL     1      17.757  45.609  24.020  0.00  0.00    +0.055 C 
ATOM     11  N   UNL     1      17.962  45.895  25.262  0.00  0.00    -0.283 NA
ATOM     12  C   UNL     1      18.705  44.966  26.108  0.00  0.00    +0.058 C 
ATOM     13  C   UNL     1      18.616  45.477  27.514  0.00  0.00    -0.063 C 
ATOM     14  C   UNL     1      18.216  44.839  28.626  0.00  0.00    -0.064 C 
ATOM     15  C   UNL     1      17.778  43.466  28.721  0.00  0.00    -0.065 C 
ATOM     16  C   UNL     1      17.354  42.837  29.829  0.00  0.00    -0.070 C 
ATOM     17  C   UNL     1      17.223  43.364  31.226  0.00  0.00    +0.015 C 
ATOM     18  N   UNL     1      15.831  43.221  31.645  0.00  0.00    -0.310 N 
ATOM     19  C   UNL     1      15.636  43.503  33.076  0.00  0.00    +0.022 C 
ATOM     20  C   UNL     1      15.811  44.970  33.501  0.00  0.00    +0.081 C 
ATOM     21  O   UNL     1      17.202  45.263  33.676  0.00  0.00    -0.301 OA
ATOM     22  N   UNL     1      17.329  46.654  34.098  0.00  0.00    -0.215 NA
ATOM     23  C   UNL     1      18.241  44.387  23.338  0.00  0.00    -0.002 A 
ATOM     24  C   UNL     1      17.357  43.335  23.098  0.00  0.00    -0.051 A 
ATOM     25  C   UNL     1      17.812  42.203  22.421  0.00  0.00    -0.041 A 
ATOM     26  C   UNL     1      19.140  42.129  21.981  0.00  0.00    +0.059 A 
ATOM     27 CL   UNL     1      19.627  40.706  21.133  0.00  0.00    -0.082 Cl
ATOM     28  C   UNL     1      20.020  43.192  22.230  0.00  0.00    +0.060 A 
ATOM     29 CL   UNL     1      21.662  43.181  21.692  0.00  0.00    -0.082 Cl
ATOM     30  C   UNL     1      19.573  44.322  22.917  0.00  0.00    -0.033 A 
ATOM     31  H   UNL     1      15.531  42.264  31.458  0.00  0.00    +0.000 HD
ATOM     32  H   UNL     1      15.279  43.899  31.120  0.00  0.00    +0.000 HD
ATOM     33  H   UNL     1      18.315  46.881  34.228  0.00  0.00    +0.000 HD
ATOM     34  H   UNL     1      16.830  46.790  34.977  0.00  0.00    +0.000 HD
ENDROOT
TORSDOF 0
ENDMDL
MODEL 2
REMARK VINA RESULT:    -4.258     10.513     12.877
REMARK INTER + INTRA:          -4.258
REMARK INTER:                  -4.258
REMARK INTRA:                   0.000
REMARK UNBOUND:                 0.000
REMARK  Name = /home/vital/Documents/PhD_2021/Malaria_codes/scripts/../data/pdbqt_ligands/ligand_174_temp.pdb
REMARK                            x       y       z     vdW  Elec       q    Type
REMARK                         _______ _______ _______ _____ _____    ______ ____
ROOT
ATOM      1  C   UNL     1      16.526  40.590  14.139  0.00  0.00    -0.060 C 
ATOM      2  C   UNL     1      16.655  41.841  13.292  0.00  0.00    -0.020 C 
ATOM      3  C   UNL     1      17.936  42.555  13.628  0.00  0.00    +0.005 C 
ATOM      4  N   UNL     1      18.881  42.647  12.750  0.00  0.00    -0.267 NA
ATOM      5  C   UNL     1      20.011  43.309  13.149  0.00  0.00    +0.035 C 
ATOM      6  C   UNL     1      21.079  43.419  12.350  0.00  0.00    +0.007 C 
ATOM      7  C   UNL     1      22.254  44.099  12.766  0.00  0.00    -0.072 C 
ATOM      8  C   UNL     1      23.237  44.672  13.150  0.00  0.00    -0.091 C 
ATOM      9  C   UNL     1      24.415  45.377  13.677  0.00  0.00    +0.052 C 
ATOM     10  C   UNL     1      24.489  45.298  15.197  0.00  0.00    +0.055 C 
ATOM     11  N   UNL     1      25.568  44.845  15.742  0.00  0.00    -0.283 NA
ATOM     12  C   UNL     1      25.678  44.789  17.197  0.00  0.00    +0.058 C 
ATOM     13  C   UNL     1      27.090  44.403  17.521  0.00  0.00    -0.063 C 
ATOM     14  C   UNL     1      27.975  45.012  18.327  0.00  0.00    -0.064 C 
ATOM     15  C   UNL     1      27.751  46.213  19.098  0.00  0.00    -0.065 C 
ATOM     16  C   UNL     1      28.645  46.836  19.883  0.00  0.00    -0.070 C 
ATOM     17  C   UNL     1      30.070  46.472  20.170  0.00  0.00    +0.015 C 
ATOM     18  N   UNL     1      30.922  47.590  19.772  0.00  0.00    -0.310 N 
ATOM     19  C   UNL     1      32.316  47.427  20.212  0.00  0.00    +0.022 C 
ATOM     20  C   UNL     1      33.117  46.320  19.509  0.00  0.00    +0.081 C 
ATOM     21  O   UNL     1      32.826  45.053  20.108  0.00  0.00    -0.301 OA
ATOM     22  N   UNL     1      33.616  44.031  19.431  0.00  0.00    -0.215 NA
ATOM     23  C   UNL     1      23.296  45.768  15.937  0.00  0.00    -0.002 A 
ATOM     24  C   UNL     1      23.073  47.138  16.087  0.00  0.00    -0.051 A 
ATOM     25  C   UNL     1      21.926  47.573  16.752  0.00  0.00    -0.041 A 
ATOM     26  C   UNL     1      21.007  46.643  17.256  0.00  0.00    +0.059 A 
ATOM     27 CL   UNL     1      19.600  47.255  18.051  0.00  0.00    -0.082 Cl
ATOM     28  C   UNL     1      21.243  45.270  17.102  0.00  0.00    +0.060 A 
ATOM     29 CL   UNL     1      20.139  44.070  17.673  0.00  0.00    -0.082 Cl
ATOM     30  C   UNL     1      22.394  44.830  16.447  0.00  0.00    -0.033 A 
ATOM     31  H   UNL     1      30.548  48.446  20.181  0.00  0.00    +0.000 HD
ATOM     32  H   UNL     1      30.924  47.629  18.753  0.00  0.00    +0.000 HD
ATOM     33  H   UNL     1      33.421  43.119  19.846  0.00  0.00    +0.000 HD
ATOM     34  H   UNL     1      34.608  44.245  19.533  0.00  0.00    +0.000 HD
ENDROOT
TORSDOF 0
ENDMDL
MODEL 3
REMARK VINA RESULT:    -4.196      4.728     11.313
REMARK INTER + INTRA:          -4.196
REMARK INTER:                  -4.196
REMARK INTRA:                   0.000
REMARK UNBOUND:                 0.000
REMARK  Name = /home/vital/Documents/PhD_2021/Malaria_codes/scripts/../data/pdbqt_ligands/ligand_174_temp.pdb
REMARK                            x       y       z     vdW  Elec       q    Type
REMARK                         _______ _______ _______ _____ _____    ______ ____
ROOT
ATOM      1  C   UNL     1      14.864  42.028  32.337  0.00  0.00    -0.060 C 
ATOM      2  C   UNL     1      13.752  41.705  31.358  0.00  0.00    -0.020 C 
ATOM      3  C   UNL     1      14.179  42.065  29.961  0.00  0.00    +0.005 C 
ATOM      4  N   UNL     1      14.349  41.142  29.072  0.00  0.00    -0.267 NA
ATOM      5  C   UNL     1      14.745  41.566  27.832  0.00  0.00    +0.035 C 
ATOM      6  C   UNL     1      15.008  40.700  26.845  0.00  0.00    +0.007 C 
ATOM      7  C   UNL     1      15.426  41.139  25.562  0.00  0.00    -0.072 C 
ATOM      8  C   UNL     1      15.787  41.541  24.489  0.00  0.00    -0.091 C 
ATOM      9  C   UNL     1      16.233  42.089  23.200  0.00  0.00    +0.052 C 
ATOM     10  C   UNL     1      16.932  43.432  23.367  0.00  0.00    +0.055 C 
ATOM     11  N   UNL     1      18.118  43.580  22.879  0.00  0.00    -0.283 NA
ATOM     12  C   UNL     1      18.797  44.866  22.997  0.00  0.00    +0.058 C 
ATOM     13  C   UNL     1      20.054  44.781  22.185  0.00  0.00    -0.063 C 
ATOM     14  C   UNL     1      20.496  45.597  21.214  0.00  0.00    -0.064 C 
ATOM     15  C   UNL     1      19.840  46.788  20.726  0.00  0.00    -0.065 C 
ATOM     16  C   UNL     1      20.271  47.589  19.738  0.00  0.00    -0.070 C 
ATOM     17  C   UNL     1      21.506  47.476  18.897  0.00  0.00    +0.015 C 
ATOM     18  N   UNL     1      21.104  47.391  17.495  0.00  0.00    -0.310 N 
ATOM     19  C   UNL     1      22.243  47.498  16.570  0.00  0.00    +0.022 C 
ATOM     20  C   UNL     1      23.215  46.308  16.560  0.00  0.00    +0.081 C 
ATOM     21  O   UNL     1      24.141  46.427  17.646  0.00  0.00    -0.301 OA
ATOM     22  N   UNL     1      25.059  45.294  17.595  0.00  0.00    -0.215 NA
ATOM     23  C   UNL     1      16.171  44.483  24.081  0.00  0.00    -0.002 A 
ATOM     24  C   UNL     1      15.155  45.171  23.417  0.00  0.00    -0.051 A 
ATOM     25  C   UNL     1      14.417  46.132  24.109  0.00  0.00    -0.041 A 
ATOM     26  C   UNL     1      14.689  46.396  25.457  0.00  0.00    +0.059 A 
ATOM     27 CL   UNL     1      13.722  47.585  26.254  0.00  0.00    -0.082 Cl
ATOM     28  C   UNL     1      15.714  45.700  26.114  0.00  0.00    +0.060 A 
ATOM     29 CL   UNL     1      16.085  45.954  27.782  0.00  0.00    -0.082 Cl
ATOM     30  C   UNL     1      16.463  44.746  25.423  0.00  0.00    -0.033 A 
ATOM     31  H   UNL     1      20.451  48.148  17.297  0.00  0.00    +0.000 HD
ATOM     32  H   UNL     1      20.677  46.476  17.352  0.00  0.00    +0.000 HD
ATOM     33  H   UNL     1      25.727  45.362  18.362  0.00  0.00    +0.000 HD
ATOM     34  H   UNL     1      25.559  45.302  16.706  0.00  0.00    +0.000 HD
ENDROOT
TORSDOF 0
ENDMDL
MODEL 4
REMARK VINA RESULT:    -3.936     11.607     18.073
REMARK INTER + INTRA:          -3.936
REMARK INTER:                  -3.936
REMARK INTRA:                   0.000
REMARK UNBOUND:                 0.000
REMARK  Name = /home/vital/Documents/PhD_2021/Malaria_codes/scripts/../data/pdbqt_ligands/ligand_174_temp.pdb
REMARK                            x       y       z     vdW  Elec       q    Type
REMARK                         _______ _______ _______ _____ _____    ______ ____
ROOT
ATOM      1  C   UNL     1      22.247  45.953  17.270  0.00  0.00    -0.060 C 
ATOM      2  C   UNL     1      22.873  46.883  16.249  0.00  0.00    -0.020 C 
ATOM      3  C   UNL     1      24.258  46.407  15.904  0.00  0.00    +0.005 C 
ATOM      4  N   UNL     1      24.522  45.976  14.714  0.00  0.00    -0.267 NA
ATOM      5  C   UNL     1      25.807  45.557  14.496  0.00  0.00    +0.035 C 
ATOM      6  C   UNL     1      26.186  45.038  13.322  0.00  0.00    +0.007 C 
ATOM      7  C   UNL     1      27.516  44.597  13.098  0.00  0.00    -0.072 C 
ATOM      8  C   UNL     1      28.647  44.223  12.943  0.00  0.00    -0.091 C 
ATOM      9  C   UNL     1      30.042  43.775  12.813  0.00  0.00    +0.052 C 
ATOM     10  C   UNL     1      30.634  43.371  14.157  0.00  0.00    +0.055 C 
ATOM     11  N   UNL     1      31.157  42.197  14.278  0.00  0.00    -0.283 NA
ATOM     12  C   UNL     1      31.761  41.797  15.545  0.00  0.00    +0.058 C 
ATOM     13  C   UNL     1      32.435  40.478  15.320  0.00  0.00    -0.063 C 
ATOM     14  C   UNL     1      33.703  40.116  15.576  0.00  0.00    -0.064 C 
ATOM     15  C   UNL     1      34.733  40.944  16.158  0.00  0.00    -0.065 C 
ATOM     16  C   UNL     1      36.007  40.588  16.391  0.00  0.00    -0.070 C 
ATOM     17  C   UNL     1      36.690  39.282  16.122  0.00  0.00    +0.015 C 
ATOM     18  N   UNL     1      37.820  39.526  15.229  0.00  0.00    -0.310 N 
ATOM     19  C   UNL     1      38.689  38.349  15.077  0.00  0.00    +0.022 C 
ATOM     20  C   UNL     1      38.088  37.166  14.302  0.00  0.00    +0.081 C 
ATOM     21  O   UNL     1      37.258  36.387  15.171  0.00  0.00    -0.301 OA
ATOM     22  N   UNL     1      36.721  35.264  14.409  0.00  0.00    -0.215 NA
ATOM     23  C   UNL     1      30.571  44.387  15.233  0.00  0.00    -0.002 A 
ATOM     24  C   UNL     1      31.473  45.452  15.230  0.00  0.00    -0.051 A 
ATOM     25  C   UNL     1      31.382  46.425  16.226  0.00  0.00    -0.041 A 
ATOM     26  C   UNL     1      30.389  46.337  17.210  0.00  0.00    +0.059 A 
ATOM     27 CL   UNL     1      30.324  47.589  18.399  0.00  0.00    -0.082 Cl
ATOM     28  C   UNL     1      29.489  45.262  17.204  0.00  0.00    +0.060 A 
ATOM     29 CL   UNL     1      28.224  45.106  18.370  0.00  0.00    -0.082 Cl
ATOM     30  C   UNL     1      29.585  44.279  16.217  0.00  0.00    -0.033 A 
ATOM     31  H   UNL     1      38.374  40.294  15.607  0.00  0.00    +0.000 HD
ATOM     32  H   UNL     1      37.442  39.750  14.308  0.00  0.00    +0.000 HD
ATOM     33  H   UNL     1      36.126  34.697  15.013  0.00  0.00    +0.000 HD
ATOM     34  H   UNL     1      37.489  34.694  14.057  0.00  0.00    +0.000 HD
ENDROOT
TORSDOF 0
ENDMDL
MODEL 5
REMARK VINA RESULT:    -3.928     11.727     16.008
REMARK INTER + INTRA:          -3.928
REMARK INTER:                  -3.928
REMARK INTRA:                   0.000
REMARK UNBOUND:                 0.000
REMARK  Name = /home/vital/Documents/PhD_2021/Malaria_codes/scripts/../data/pdbqt_ligands/ligand_174_temp.pdb
REMARK                            x       y       z     vdW  Elec       q    Type
REMARK                         _______ _______ _______ _____ _____    ______ ____
ROOT
ATOM      1  C   UNL     1      37.785  43.992  24.702  0.00  0.00    -0.060 C 
ATOM      2  C   UNL     1      38.350  44.636  23.451  0.00  0.00    -0.020 C 
ATOM      3  C   UNL     1      37.248  44.871  22.454  0.00  0.00    +0.005 C 
ATOM      4  N   UNL     1      36.903  46.075  22.135  0.00  0.00    -0.267 NA
ATOM      5  C   UNL     1      35.886  46.190  21.226  0.00  0.00    +0.035 C 
ATOM      6  C   UNL     1      35.403  47.383  20.859  0.00  0.00    +0.007 C 
ATOM      7  C   UNL     1      34.344  47.502  19.922  0.00  0.00    -0.072 C 
ATOM      8  C   UNL     1      33.440  47.569  19.134  0.00  0.00    -0.091 C 
ATOM      9  C   UNL     1      32.328  47.590  18.172  0.00  0.00    +0.052 C 
ATOM     10  C   UNL     1      31.496  46.315  18.240  0.00  0.00    +0.055 C 
ATOM     11  N   UNL     1      30.223  46.415  18.427  0.00  0.00    -0.283 NA
ATOM     12  C   UNL     1      29.397  45.212  18.464  0.00  0.00    +0.058 C 
ATOM     13  C   UNL     1      27.966  45.655  18.505  0.00  0.00    -0.063 C 
ATOM     14  C   UNL     1      26.944  45.305  17.707  0.00  0.00    -0.064 C 
ATOM     15  C   UNL     1      26.996  44.380  16.599  0.00  0.00    -0.065 C 
ATOM     16  C   UNL     1      25.978  44.050  15.786  0.00  0.00    -0.070 C 
ATOM     17  C   UNL     1      24.559  44.530  15.803  0.00  0.00    +0.015 C 
ATOM     18  N   UNL     1      24.265  45.146  14.511  0.00  0.00    -0.310 N 
ATOM     19  C   UNL     1      22.836  45.454  14.340  0.00  0.00    +0.022 C 
ATOM     20  C   UNL     1      22.282  46.585  15.220  0.00  0.00    +0.081 C 
ATOM     21  O   UNL     1      21.974  46.081  16.524  0.00  0.00    -0.301 OA
ATOM     22  N   UNL     1      21.433  47.174  17.325  0.00  0.00    -0.215 NA
ATOM     23  C   UNL     1      32.233  45.042  18.072  0.00  0.00    -0.002 A 
ATOM     24  C   UNL     1      32.626  44.636  16.796  0.00  0.00    -0.051 A 
ATOM     25  C   UNL     1      33.353  43.454  16.651  0.00  0.00    -0.041 A 
ATOM     26  C   UNL     1      33.691  42.690  17.775  0.00  0.00    +0.059 A 
ATOM     27 CL   UNL     1      34.609  41.249  17.521  0.00  0.00    -0.082 Cl
ATOM     28  C   UNL     1      33.288  43.106  19.052  0.00  0.00    +0.060 A 
ATOM     29 CL   UNL     1      33.693  42.228  20.484  0.00  0.00    -0.082 Cl
ATOM     30  C   UNL     1      32.550  44.282  19.201  0.00  0.00    -0.033 A 
ATOM     31  H   UNL     1      24.552  44.506  13.772  0.00  0.00    +0.000 HD
ATOM     32  H   UNL     1      24.776  46.028  14.467  0.00  0.00    +0.000 HD
ATOM     33  H   UNL     1      21.207  46.833  18.259  0.00  0.00    +0.000 HD
ATOM     34  H   UNL     1      20.589  47.535  16.881  0.00  0.00    +0.000 HD
ENDROOT
TORSDOF 0
ENDMDL
MODEL 6
REMARK VINA RESULT:    -3.879      4.058      6.560
REMARK INTER + INTRA:          -3.879
REMARK INTER:                  -3.879
REMARK INTRA:                   0.000
REMARK UNBOUND:                 0.000
REMARK  Name = /home/vital/Documents/PhD_2021/Malaria_codes/scripts/../data/pdbqt_ligands/ligand_174_temp.pdb
REMARK                            x       y       z     vdW  Elec       q    Type
REMARK                         _______ _______ _______ _____ _____    ______ ____
ROOT
ATOM      1  C   UNL     1      28.479  41.742  16.751  0.00  0.00    -0.060 C 
ATOM      2  C   UNL     1      28.711  43.239  16.825  0.00  0.00    -0.020 C 
ATOM      3  C   UNL     1      27.595  43.892  17.594  0.00  0.00    +0.005 C 
ATOM      4  N   UNL     1      27.830  44.454  18.735  0.00  0.00    -0.267 NA
ATOM      5  C   UNL     1      26.751  45.015  19.363  0.00  0.00    +0.035 C 
ATOM      6  C   UNL     1      26.858  45.577  20.574  0.00  0.00    +0.007 C 
ATOM      7  C   UNL     1      25.738  46.152  21.229  0.00  0.00    -0.072 C 
ATOM      8  C   UNL     1      24.769  46.622  21.762  0.00  0.00    -0.091 C 
ATOM      9  C   UNL     1      23.549  47.175  22.369  0.00  0.00    +0.052 C 
ATOM     10  C   UNL     1      22.296  46.474  21.858  0.00  0.00    +0.055 C 
ATOM     11  N   UNL     1      21.477  45.965  22.716  0.00  0.00    -0.283 NA
ATOM     12  C   UNL     1      20.253  45.318  22.255  0.00  0.00    +0.058 C 
ATOM     13  C   UNL     1      19.434  45.000  23.469  0.00  0.00    -0.063 C 
ATOM     14  C   UNL     1      18.156  45.315  23.740  0.00  0.00    -0.064 C 
ATOM     15  C   UNL     1      17.250  46.046  22.885  0.00  0.00    -0.065 C 
ATOM     16  C   UNL     1      15.981  46.382  23.167  0.00  0.00    -0.070 C 
ATOM     17  C   UNL     1      15.179  46.102  24.402  0.00  0.00    +0.015 C 
ATOM     18  N   UNL     1      14.740  47.376  24.966  0.00  0.00    -0.310 N 
ATOM     19  C   UNL     1      13.764  47.210  26.054  0.00  0.00    +0.022 C 
ATOM     20  C   UNL     1      14.307  46.602  27.357  0.00  0.00    +0.081 C 
ATOM     21  O   UNL     1      14.360  45.176  27.244  0.00  0.00    -0.301 OA
ATOM     22  N   UNL     1      14.860  44.633  28.503  0.00  0.00    -0.215 NA
ATOM     23  C   UNL     1      22.113  46.447  20.389  0.00  0.00    -0.002 A 
ATOM     24  C   UNL     1      21.662  47.590  19.728  0.00  0.00    -0.051 A 
ATOM     25  C   UNL     1      21.529  47.567  18.339  0.00  0.00    -0.041 A 
ATOM     26  C   UNL     1      21.854  46.411  17.618  0.00  0.00    +0.059 A 
ATOM     27 CL   UNL     1      21.684  46.463  15.900  0.00  0.00    -0.082 Cl
ATOM     28  C   UNL     1      22.304  45.268  18.292  0.00  0.00    +0.060 A 
ATOM     29 CL   UNL     1      22.749  43.818  17.465  0.00  0.00    -0.082 Cl
ATOM     30  C   UNL     1      22.427  45.282  19.683  0.00  0.00    -0.033 A 
ATOM     31  H   UNL     1      14.312  47.930  24.225  0.00  0.00    +0.000 HD
ATOM     32  H   UNL     1      15.561  47.839  25.358  0.00  0.00    +0.000 HD
ATOM     33  H   UNL     1      14.905  43.616  28.441  0.00  0.00    +0.000 HD
ATOM     34  H   UNL     1      14.233  44.900  29.261  0.00  0.00    +0.000 HD
ENDROOT
TORSDOF 0
ENDMDL
MODEL 7
REMARK VINA RESULT:    -2.933      9.436     14.724
REMARK INTER + INTRA:          -2.933
REMARK INTER:                  -2.933
REMARK INTRA:                   0.000
REMARK UNBOUND:                 0.000
REMARK  Name = /home/vital/Documents/PhD_2021/Malaria_codes/scripts/../data/pdbqt_ligands/ligand_174_temp.pdb
REMARK                            x       y       z     vdW  Elec       q    Type
REMARK                         _______ _______ _______ _____ _____    ______ ____
ROOT
ATOM      1  C   UNL     1      37.611  41.316  21.934  0.00  0.00    -0.060 C 
ATOM      2  C   UNL     1      37.922  42.771  21.643  0.00  0.00    -0.020 C 
ATOM      3  C   UNL     1      36.668  43.487  21.221  0.00  0.00    +0.005 C 
ATOM      4  N   UNL     1      36.166  44.417  21.966  0.00  0.00    -0.267 NA
ATOM      5  C   UNL     1      35.020  45.006  21.503  0.00  0.00    +0.035 C 
ATOM      6  C   UNL     1      34.376  45.941  22.212  0.00  0.00    +0.007 C 
ATOM      7  C   UNL     1      33.184  46.547  21.737  0.00  0.00    -0.072 C 
ATOM      8  C   UNL     1      32.172  47.035  21.311  0.00  0.00    -0.091 C 
ATOM      9  C   UNL     1      30.934  47.590  20.744  0.00  0.00    +0.052 C 
ATOM     10  C   UNL     1      30.247  46.603  19.808  0.00  0.00    +0.055 C 
ATOM     11  N   UNL     1      29.011  46.300  20.025  0.00  0.00    -0.283 NA
ATOM     12  C   UNL     1      28.320  45.383  19.124  0.00  0.00    +0.058 C 
ATOM     13  C   UNL     1      26.875  45.375  19.520  0.00  0.00    -0.063 C 
ATOM     14  C   UNL     1      25.785  45.591  18.765  0.00  0.00    -0.064 C 
ATOM     15  C   UNL     1      25.762  45.876  17.350  0.00  0.00    -0.065 C 
ATOM     16  C   UNL     1      24.672  46.117  16.601  0.00  0.00    -0.070 C 
ATOM     17  C   UNL     1      23.231  46.153  17.010  0.00  0.00    +0.015 C 
ATOM     18  N   UNL     1      22.693  47.472  16.687  0.00  0.00    -0.310 N 
ATOM     19  C   UNL     1      21.232  47.544  16.845  0.00  0.00    +0.022 C 
ATOM     20  C   UNL     1      20.707  47.473  18.287  0.00  0.00    +0.081 C 
ATOM     21  O   UNL     1      20.643  46.109  18.716  0.00  0.00    -0.301 OA
ATOM     22  N   UNL     1      20.124  46.078  20.079  0.00  0.00    -0.215 NA
ATOM     23  C   UNL     1      31.070  46.073  18.697  0.00  0.00    -0.002 A 
ATOM     24  C   UNL     1      31.309  46.867  17.576  0.00  0.00    -0.051 A 
ATOM     25  C   UNL     1      32.117  46.374  16.550  0.00  0.00    -0.041 A 
ATOM     26  C   UNL     1      32.688  45.099  16.653  0.00  0.00    +0.059 A 
ATOM     27 CL   UNL     1      33.693  44.563  15.354  0.00  0.00    -0.082 Cl
ATOM     28  C   UNL     1      32.439  44.309  17.784  0.00  0.00    +0.060 A 
ATOM     29 CL   UNL     1      33.132  42.739  17.988  0.00  0.00    -0.082 Cl
ATOM     30  C   UNL     1      31.621  44.793  18.806  0.00  0.00    -0.033 A 
ATOM     31  H   UNL     1      22.928  47.693  15.720  0.00  0.00    +0.000 HD
ATOM     32  H   UNL     1      23.105  48.141  17.338  0.00  0.00    +0.000 HD
ATOM     33  H   UNL     1      20.071  45.112  20.401  0.00  0.00    +0.000 HD
ATOM     34  H   UNL     1      19.192  46.493  20.097  0.00  0.00    +0.000 HD
ENDROOT
TORSDOF 0
ENDMDL
