MODEL 1
REMARK VINA RESULT:    -4.722      0.000      0.000
REMARK INTER + INTRA:          -4.722
REMARK INTER:                  -4.722
REMARK INTRA:                   0.000
REMARK UNBOUND:                 0.000
REMARK  Name = /home/vital/Documents/PhD_2021/Malaria_codes/scripts/../data/pdbqt_ligands/ligand_238_temp.pdb
REMARK                            x       y       z     vdW  Elec       q    Type
REMARK                         _______ _______ _______ _____ _____    ______ ____
ROOT
ATOM      1  C1  UNL     1      17.838  23.468  20.728  0.00  0.00    +0.079 C 
ATOM      2  O1  UNL     1      17.644  24.666  19.984  0.00  0.00    -0.491 OA
ATOM      3  C2  UNL     1      17.003  24.545  18.777  0.00  0.00    +0.165 A 
ATOM      4  C3  UNL     1      16.524  23.360  18.218  0.00  0.00    -0.015 A 
ATOM      5  C4  UNL     1      15.884  23.383  16.974  0.00  0.00    -0.044 A 
ATOM      6  C5  UNL     1      15.727  24.595  16.289  0.00  0.00    +0.068 A 
ATOM      7  C6  UNL     1      15.054  24.635  14.984  0.00  0.00    +0.193 A 
ATOM      8  O2  UNL     1      14.612  23.628  14.446  0.00  0.00    -0.287 OA
ATOM      9  C7  UNL     1      14.931  25.954  14.346  0.00  0.00    +0.029 A 
ATOM     10  C8  UNL     1      15.440  27.030  14.962  0.00  0.00    +0.139 A 
ATOM     11  C9  UNL     1      15.342  28.384  14.378  0.00  0.00    +0.017 A 
ATOM     12  C10 UNL     1      15.104  29.491  15.209  0.00  0.00    -0.051 A 
ATOM     13  C11 UNL     1      15.015  30.780  14.680  0.00  0.00    -0.061 A 
ATOM     14  C12 UNL     1      15.169  30.985  13.311  0.00  0.00    -0.062 A 
ATOM     15  C13 UNL     1      15.419  29.901  12.473  0.00  0.00    -0.061 A 
ATOM     16  C14 UNL     1      15.507  28.610  13.002  0.00  0.00    -0.051 A 
ATOM     17  O3  UNL     1      16.072  26.991  16.197  0.00  0.00    -0.451 OA
ATOM     18  C15 UNL     1      16.201  25.783  16.832  0.00  0.00    +0.184 A 
ATOM     19  C16 UNL     1      16.835  25.749  18.075  0.00  0.00    +0.202 A 
ATOM     20  O4  UNL     1      17.304  26.915  18.628  0.00  0.00    -0.501 OA
ATOM     21  H   UNL     1      17.731  26.900  19.462  0.00  0.00    +0.000 HD
ENDROOT
TORSDOF 0
ENDMDL
MODEL 2
REMARK VINA RESULT:    -4.152      3.570      4.354
REMARK INTER + INTRA:          -4.152
REMARK INTER:                  -4.152
REMARK INTRA:                   0.000
REMARK UNBOUND:                 0.000
REMARK  Name = /home/vital/Documents/PhD_2021/Malaria_codes/scripts/../data/pdbqt_ligands/ligand_238_temp.pdb
REMARK                            x       y       z     vdW  Elec       q    Type
REMARK                         _______ _______ _______ _____ _____    ______ ____
ROOT
ATOM      1  C1  UNL     1      14.569  30.565  23.096  0.00  0.00    +0.079 C 
ATOM      2  O1  UNL     1      14.795  30.892  21.729  0.00  0.00    -0.491 OA
ATOM      3  C2  UNL     1      14.598  29.889  20.814  0.00  0.00    +0.165 A 
ATOM      4  C3  UNL     1      14.196  28.584  21.101  0.00  0.00    -0.015 A 
ATOM      5  C4  UNL     1      14.032  27.660  20.064  0.00  0.00    -0.044 A 
ATOM      6  C5  UNL     1      14.274  28.043  18.739  0.00  0.00    +0.068 A 
ATOM      7  C6  UNL     1      14.102  27.083  17.639  0.00  0.00    +0.193 A 
ATOM      8  O2  UNL     1      13.750  25.927  17.831  0.00  0.00    -0.287 OA
ATOM      9  C7  UNL     1      14.373  27.580  16.282  0.00  0.00    +0.029 A 
ATOM     10  C8  UNL     1      14.770  28.850  16.117  0.00  0.00    +0.139 A 
ATOM     11  C9  UNL     1      15.050  29.413  14.779  0.00  0.00    +0.017 A 
ATOM     12  C10 UNL     1      14.682  30.735  14.483  0.00  0.00    -0.051 A 
ATOM     13  C11 UNL     1      14.944  31.290  13.229  0.00  0.00    -0.061 A 
ATOM     14  C12 UNL     1      15.584  30.533  12.251  0.00  0.00    -0.062 A 
ATOM     15  C13 UNL     1      15.968  29.223  12.530  0.00  0.00    -0.061 A 
ATOM     16  C14 UNL     1      15.706  28.668  13.786  0.00  0.00    -0.051 A 
ATOM     17  O3  UNL     1      14.928  29.756  17.156  0.00  0.00    -0.451 OA
ATOM     18  C15 UNL     1      14.677  29.338  18.437  0.00  0.00    +0.184 A 
ATOM     19  C16 UNL     1      14.835  30.253  19.478  0.00  0.00    +0.202 A 
ATOM     20  O4  UNL     1      15.228  31.538  19.197  0.00  0.00    -0.501 OA
ATOM     21  H   UNL     1      15.336  32.158  19.891  0.00  0.00    +0.000 HD
ENDROOT
TORSDOF 0
ENDMDL
MODEL 3
REMARK VINA RESULT:    -4.103      3.930      6.268
REMARK INTER + INTRA:          -4.103
REMARK INTER:                  -4.103
REMARK INTRA:                   0.000
REMARK UNBOUND:                 0.000
REMARK  Name = /home/vital/Documents/PhD_2021/Malaria_codes/scripts/../data/pdbqt_ligands/ligand_238_temp.pdb
REMARK                            x       y       z     vdW  Elec       q    Type
REMARK                         _______ _______ _______ _____ _____    ______ ____
ROOT
ATOM      1  C1  UNL     1      16.253  34.274  19.891  0.00  0.00    +0.079 C 
ATOM      2  O1  UNL     1      16.139  33.267  18.891  0.00  0.00    -0.491 OA
ATOM      3  C2  UNL     1      15.637  32.054  19.292  0.00  0.00    +0.165 A 
ATOM      4  C3  UNL     1      15.229  31.723  20.584  0.00  0.00    -0.015 A 
ATOM      5  C4  UNL     1      14.733  30.442  20.853  0.00  0.00    -0.044 A 
ATOM      6  C5  UNL     1      14.649  29.494  19.826  0.00  0.00    +0.068 A 
ATOM      7  C6  UNL     1      14.126  28.147  20.092  0.00  0.00    +0.193 A 
ATOM      8  O2  UNL     1      13.752  27.800  21.204  0.00  0.00    -0.287 OA
ATOM      9  C7  UNL     1      14.069  27.223  18.949  0.00  0.00    +0.029 A 
ATOM     10  C8  UNL     1      14.501  27.638  17.749  0.00  0.00    +0.139 A 
ATOM     11  C9  UNL     1      14.464  26.762  16.560  0.00  0.00    +0.017 A 
ATOM     12  C10 UNL     1      14.130  27.297  15.306  0.00  0.00    -0.051 A 
ATOM     13  C11 UNL     1      14.096  26.490  14.166  0.00  0.00    -0.061 A 
ATOM     14  C12 UNL     1      14.401  25.134  14.262  0.00  0.00    -0.062 A 
ATOM     15  C13 UNL     1      14.748  24.589  15.496  0.00  0.00    -0.061 A 
ATOM     16  C14 UNL     1      14.782  25.397  16.636  0.00  0.00    -0.051 A 
ATOM     17  O3  UNL     1      14.991  28.912  17.499  0.00  0.00    -0.451 OA
ATOM     18  C15 UNL     1      15.053  29.809  18.534  0.00  0.00    +0.184 A 
ATOM     19  C16 UNL     1      15.544  31.089  18.276  0.00  0.00    +0.202 A 
ATOM     20  O4  UNL     1      15.943  31.419  17.004  0.00  0.00    -0.501 OA
ATOM     21  H   UNL     1      16.274  32.277  16.824  0.00  0.00    +0.000 HD
ENDROOT
TORSDOF 0
ENDMDL
MODEL 4
REMARK VINA RESULT:    -4.098      3.067      6.546
REMARK INTER + INTRA:          -4.098
REMARK INTER:                  -4.098
REMARK INTRA:                   0.000
REMARK UNBOUND:                 0.000
REMARK  Name = /home/vital/Documents/PhD_2021/Malaria_codes/scripts/../data/pdbqt_ligands/ligand_238_temp.pdb
REMARK                            x       y       z     vdW  Elec       q    Type
REMARK                         _______ _______ _______ _____ _____    ______ ____
ROOT
ATOM      1  C1  UNL     1      17.211  34.590  18.964  0.00  0.00    +0.079 C 
ATOM      2  O1  UNL     1      17.024  33.190  18.788  0.00  0.00    -0.491 OA
ATOM      3  C2  UNL     1      16.487  32.785  17.592  0.00  0.00    +0.165 A 
ATOM      4  C3  UNL     1      16.113  33.618  16.537  0.00  0.00    -0.015 A 
ATOM      5  C4  UNL     1      15.578  33.066  15.368  0.00  0.00    -0.044 A 
ATOM      6  C5  UNL     1      15.416  31.679  15.258  0.00  0.00    +0.068 A 
ATOM      7  C6  UNL     1      14.859  31.085  14.035  0.00  0.00    +0.193 A 
ATOM      8  O2  UNL     1      14.515  31.766  13.077  0.00  0.00    -0.287 OA
ATOM      9  C7  UNL     1      14.733  29.621  14.011  0.00  0.00    +0.029 A 
ATOM     10  C8  UNL     1      15.108  28.913  15.086  0.00  0.00    +0.139 A 
ATOM     11  C9  UNL     1      15.014  27.439  15.123  0.00  0.00    +0.017 A 
ATOM     12  C10 UNL     1      16.022  26.687  15.747  0.00  0.00    -0.051 A 
ATOM     13  C11 UNL     1      15.951  25.293  15.800  0.00  0.00    -0.061 A 
ATOM     14  C12 UNL     1      14.866  24.628  15.234  0.00  0.00    -0.062 A 
ATOM     15  C13 UNL     1      13.850  25.358  14.621  0.00  0.00    -0.061 A 
ATOM     16  C14 UNL     1      13.922  26.753  14.568  0.00  0.00    -0.051 A 
ATOM     17  O3  UNL     1      15.637  29.475  16.239  0.00  0.00    -0.451 OA
ATOM     18  C15 UNL     1      15.781  30.837  16.302  0.00  0.00    +0.184 A 
ATOM     19  C16 UNL     1      16.317  31.397  17.462  0.00  0.00    +0.202 A 
ATOM     20  O4  UNL     1      16.688  30.579  18.500  0.00  0.00    -0.501 OA
ATOM     21  H   UNL     1      17.048  30.947  19.283  0.00  0.00    +0.000 HD
ENDROOT
TORSDOF 0
ENDMDL
MODEL 5
REMARK VINA RESULT:    -4.094      1.344      1.470
REMARK INTER + INTRA:          -4.094
REMARK INTER:                  -4.094
REMARK INTRA:                   0.000
REMARK UNBOUND:                 0.000
REMARK  Name = /home/vital/Documents/PhD_2021/Malaria_codes/scripts/../data/pdbqt_ligands/ligand_238_temp.pdb
REMARK                            x       y       z     vdW  Elec       q    Type
REMARK                         _______ _______ _______ _____ _____    ______ ____
ROOT
ATOM      1  C1  UNL     1      19.462  23.145  18.817  0.00  0.00    +0.079 C 
ATOM      2  O1  UNL     1      19.163  24.473  18.400  0.00  0.00    -0.491 OA
ATOM      3  C2  UNL     1      18.013  24.646  17.672  0.00  0.00    +0.165 A 
ATOM      4  C3  UNL     1      17.114  23.643  17.308  0.00  0.00    -0.015 A 
ATOM      5  C4  UNL     1      15.974  23.964  16.562  0.00  0.00    -0.044 A 
ATOM      6  C5  UNL     1      15.738  25.290  16.178  0.00  0.00    +0.068 A 
ATOM      7  C6  UNL     1      14.544  25.642  15.398  0.00  0.00    +0.193 A 
ATOM      8  O2  UNL     1      13.720  24.805  15.053  0.00  0.00    -0.287 OA
ATOM      9  C7  UNL     1      14.379  27.061  15.049  0.00  0.00    +0.029 A 
ATOM     10  C8  UNL     1      15.311  27.943  15.436  0.00  0.00    +0.139 A 
ATOM     11  C9  UNL     1      15.200  29.384  15.124  0.00  0.00    +0.017 A 
ATOM     12  C10 UNL     1      15.599  30.339  16.071  0.00  0.00    -0.051 A 
ATOM     13  C11 UNL     1      15.510  31.706  15.796  0.00  0.00    -0.061 A 
ATOM     14  C12 UNL     1      15.026  32.138  14.563  0.00  0.00    -0.062 A 
ATOM     15  C13 UNL     1      14.637  31.205  13.606  0.00  0.00    -0.061 A 
ATOM     16  C14 UNL     1      14.726  29.837  13.882  0.00  0.00    -0.051 A 
ATOM     17  O3  UNL     1      16.436  27.610  16.175  0.00  0.00    -0.451 OA
ATOM     18  C15 UNL     1      16.626  26.300  16.531  0.00  0.00    +0.184 A 
ATOM     19  C16 UNL     1      17.757  25.970  17.278  0.00  0.00    +0.202 A 
ATOM     20  O4  UNL     1      18.642  26.956  17.639  0.00  0.00    -0.501 OA
ATOM     21  H   UNL     1      19.404  26.742  18.140  0.00  0.00    +0.000 HD
ENDROOT
TORSDOF 0
ENDMDL
MODEL 6
REMARK VINA RESULT:    -3.869      4.157      5.963
REMARK INTER + INTRA:          -3.869
REMARK INTER:                  -3.869
REMARK INTRA:                   0.000
REMARK UNBOUND:                 0.000
REMARK  Name = /home/vital/Documents/PhD_2021/Malaria_codes/scripts/../data/pdbqt_ligands/ligand_238_temp.pdb
REMARK                            x       y       z     vdW  Elec       q    Type
REMARK                         _______ _______ _______ _____ _____    ______ ____
ROOT
ATOM      1  C1  UNL     1      13.785  30.541  24.042  0.00  0.00    +0.079 C 
ATOM      2  O1  UNL     1      13.760  29.520  23.050  0.00  0.00    -0.491 OA
ATOM      3  C2  UNL     1      14.256  29.850  21.814  0.00  0.00    +0.165 A 
ATOM      4  C3  UNL     1      14.782  31.088  21.445  0.00  0.00    -0.015 A 
ATOM      5  C4  UNL     1      15.256  31.286  20.143  0.00  0.00    -0.044 A 
ATOM      6  C5  UNL     1      15.200  30.242  19.211  0.00  0.00    +0.068 A 
ATOM      7  C6  UNL     1      15.698  30.434  17.842  0.00  0.00    +0.193 A 
ATOM      8  O2  UNL     1      16.171  31.497  17.463  0.00  0.00    -0.287 OA
ATOM      9  C7  UNL     1      15.603  29.279  16.938  0.00  0.00    +0.029 A 
ATOM     10  C8  UNL     1      15.065  28.136  17.389  0.00  0.00    +0.139 A 
ATOM     11  C9  UNL     1      14.948  26.937  16.533  0.00  0.00    +0.017 A 
ATOM     12  C10 UNL     1      15.171  25.663  17.078  0.00  0.00    -0.051 A 
ATOM     13  C11 UNL     1      15.059  24.514  16.290  0.00  0.00    -0.061 A 
ATOM     14  C12 UNL     1      14.716  24.623  14.945  0.00  0.00    -0.062 A 
ATOM     15  C13 UNL     1      14.478  25.878  14.390  0.00  0.00    -0.061 A 
ATOM     16  C14 UNL     1      14.591  27.027  15.178  0.00  0.00    -0.051 A 
ATOM     17  O3  UNL     1      14.599  27.955  18.683  0.00  0.00    -0.451 OA
ATOM     18  C15 UNL     1      14.676  29.004  19.563  0.00  0.00    +0.184 A 
ATOM     19  C16 UNL     1      14.209  28.816  20.864  0.00  0.00    +0.202 A 
ATOM     20  O4  UNL     1      13.693  27.597  21.229  0.00  0.00    -0.501 OA
ATOM     21  H   UNL     1      13.377  27.464  22.101  0.00  0.00    +0.000 HD
ENDROOT
TORSDOF 0
ENDMDL
MODEL 7
REMARK VINA RESULT:    -3.778      3.282      6.975
REMARK INTER + INTRA:          -3.778
REMARK INTER:                  -3.778
REMARK INTRA:                   0.000
REMARK UNBOUND:                 0.000
REMARK  Name = /home/vital/Documents/PhD_2021/Malaria_codes/scripts/../data/pdbqt_ligands/ligand_238_temp.pdb
REMARK                            x       y       z     vdW  Elec       q    Type
REMARK                         _______ _______ _______ _____ _____    ______ ____
ROOT
ATOM      1  C1  UNL     1      16.533  35.355  15.854  0.00  0.00    +0.079 C 
ATOM      2  O1  UNL     1      16.289  34.040  15.365  0.00  0.00    -0.491 OA
ATOM      3  C2  UNL     1      16.006  33.077  16.301  0.00  0.00    +0.165 A 
ATOM      4  C3  UNL     1      15.934  33.271  17.681  0.00  0.00    -0.015 A 
ATOM      5  C4  UNL     1      15.634  32.194  18.522  0.00  0.00    -0.044 A 
ATOM      6  C5  UNL     1      15.407  30.923  17.980  0.00  0.00    +0.068 A 
ATOM      7  C6  UNL     1      15.086  29.784  18.851  0.00  0.00    +0.193 A 
ATOM      8  O2  UNL     1      15.008  29.894  20.068  0.00  0.00    -0.287 OA
ATOM      9  C7  UNL     1      14.859  28.491  18.189  0.00  0.00    +0.029 A 
ATOM     10  C8  UNL     1      14.967  28.410  16.855  0.00  0.00    +0.139 A 
ATOM     11  C9  UNL     1      14.743  27.142  16.129  0.00  0.00    +0.017 A 
ATOM     12  C10 UNL     1      14.085  27.152  14.889  0.00  0.00    -0.051 A 
ATOM     13  C11 UNL     1      13.868  25.967  14.181  0.00  0.00    -0.061 A 
ATOM     14  C12 UNL     1      14.313  24.753  14.700  0.00  0.00    -0.062 A 
ATOM     15  C13 UNL     1      14.979  24.726  15.923  0.00  0.00    -0.061 A 
ATOM     16  C14 UNL     1      15.195  25.912  16.631  0.00  0.00    -0.051 A 
ATOM     17  O3  UNL     1      15.267  29.487  16.034  0.00  0.00    -0.451 OA
ATOM     18  C15 UNL     1      15.478  30.714  16.608  0.00  0.00    +0.184 A 
ATOM     19  C16 UNL     1      15.776  31.795  15.777  0.00  0.00    +0.202 A 
ATOM     20  O4  UNL     1      15.844  31.607  14.419  0.00  0.00    -0.501 OA
ATOM     21  H   UNL     1      16.044  32.328  13.855  0.00  0.00    +0.000 HD
ENDROOT
TORSDOF 0
ENDMDL
MODEL 8
REMARK VINA RESULT:    -3.445      2.078      6.524
REMARK INTER + INTRA:          -3.445
REMARK INTER:                  -3.445
REMARK INTRA:                   0.000
REMARK UNBOUND:                 0.000
REMARK  Name = /home/vital/Documents/PhD_2021/Malaria_codes/scripts/../data/pdbqt_ligands/ligand_238_temp.pdb
REMARK                            x       y       z     vdW  Elec       q    Type
REMARK                         _______ _______ _______ _____ _____    ______ ____
ROOT
ATOM      1  C1  UNL     1      15.484  30.487  13.366  0.00  0.00    +0.079 C 
ATOM      2  O1  UNL     1      16.432  29.675  14.053  0.00  0.00    -0.491 OA
ATOM      3  C2  UNL     1      15.938  28.583  14.720  0.00  0.00    +0.165 A 
ATOM      4  C3  UNL     1      14.599  28.196  14.783  0.00  0.00    -0.015 A 
ATOM      5  C4  UNL     1      14.236  27.052  15.503  0.00  0.00    -0.044 A 
ATOM      6  C5  UNL     1      15.216  26.297  16.160  0.00  0.00    +0.068 A 
ATOM      7  C6  UNL     1      14.849  25.092  16.916  0.00  0.00    +0.193 A 
ATOM      8  O2  UNL     1      13.692  24.704  17.005  0.00  0.00    -0.287 OA
ATOM      9  C7  UNL     1      15.948  24.362  17.566  0.00  0.00    +0.029 A 
ATOM     10  C8  UNL     1      17.200  24.827  17.455  0.00  0.00    +0.139 A 
ATOM     11  C9  UNL     1      18.349  24.137  18.077  0.00  0.00    +0.017 A 
ATOM     12  C10 UNL     1      19.577  24.069  17.401  0.00  0.00    -0.051 A 
ATOM     13  C11 UNL     1      20.678  23.428  17.973  0.00  0.00    -0.061 A 
ATOM     14  C12 UNL     1      20.570  22.848  19.235  0.00  0.00    -0.062 A 
ATOM     15  C13 UNL     1      19.362  22.917  19.927  0.00  0.00    -0.061 A 
ATOM     16  C14 UNL     1      18.261  23.559  19.354  0.00  0.00    -0.051 A 
ATOM     17  O3  UNL     1      17.545  25.964  16.738  0.00  0.00    -0.451 OA
ATOM     18  C15 UNL     1      16.553  26.671  16.108  0.00  0.00    +0.184 A 
ATOM     19  C16 UNL     1      16.905  27.812  15.386  0.00  0.00    +0.202 A 
ATOM     20  O4  UNL     1      18.223  28.192  15.320  0.00  0.00    -0.501 OA
ATOM     21  H   UNL     1      18.467  28.957  14.837  0.00  0.00    +0.000 HD
ENDROOT
TORSDOF 0
ENDMDL
MODEL 9
REMARK VINA RESULT:    -3.441      2.223      6.325
REMARK INTER + INTRA:          -3.441
REMARK INTER:                  -3.441
REMARK INTRA:                   0.000
REMARK UNBOUND:                 0.000
REMARK  Name = /home/vital/Documents/PhD_2021/Malaria_codes/scripts/../data/pdbqt_ligands/ligand_238_temp.pdb
REMARK                            x       y       z     vdW  Elec       q    Type
REMARK                         _______ _______ _______ _____ _____    ______ ____
ROOT
ATOM      1  C1  UNL     1      15.707  34.017  16.743  0.00  0.00    +0.079 C 
ATOM      2  O1  UNL     1      15.841  32.661  17.156  0.00  0.00    -0.491 OA
ATOM      3  C2  UNL     1      15.818  31.710  16.167  0.00  0.00    +0.165 A 
ATOM      4  C3  UNL     1      15.679  31.952  14.800  0.00  0.00    -0.015 A 
ATOM      5  C4  UNL     1      15.674  30.882  13.899  0.00  0.00    -0.044 A 
ATOM      6  C5  UNL     1      15.807  29.569  14.368  0.00  0.00    +0.068 A 
ATOM      7  C6  UNL     1      15.807  28.436  13.433  0.00  0.00    +0.193 A 
ATOM      8  O2  UNL     1      15.691  28.588  12.224  0.00  0.00    -0.287 OA
ATOM      9  C7  UNL     1      15.959  27.097  14.020  0.00  0.00    +0.029 A 
ATOM     10  C8  UNL     1      16.070  26.973  15.350  0.00  0.00    +0.139 A 
ATOM     11  C9  UNL     1      16.233  25.656  16.001  0.00  0.00    +0.017 A 
ATOM     12  C10 UNL     1      17.088  25.521  17.106  0.00  0.00    -0.051 A 
ATOM     13  C11 UNL     1      17.252  24.288  17.742  0.00  0.00    -0.061 A 
ATOM     14  C12 UNL     1      16.556  23.171  17.286  0.00  0.00    -0.062 A 
ATOM     15  C13 UNL     1      15.693  23.289  16.199  0.00  0.00    -0.061 A 
ATOM     16  C14 UNL     1      15.530  24.523  15.563  0.00  0.00    -0.051 A 
ATOM     17  O3  UNL     1      16.073  28.044  16.232  0.00  0.00    -0.451 OA
ATOM     18  C15 UNL     1      15.944  29.313  15.727  0.00  0.00    +0.184 A 
ATOM     19  C16 UNL     1      15.950  30.386  16.618  0.00  0.00    +0.202 A 
ATOM     20  O4  UNL     1      16.090  30.150  17.963  0.00  0.00    -0.501 OA
ATOM     21  H   UNL     1      16.095  30.867  18.567  0.00  0.00    +0.000 HD
ENDROOT
TORSDOF 0
ENDMDL
