MODEL 1
REMARK VINA RESULT:    -7.157      0.000      0.000
REMARK INTER + INTRA:         -11.794
REMARK INTER:                 -10.504
REMARK INTRA:                  -1.290
REMARK UNBOUND:                -1.290
REMARK  Name = /home/vital/Documents/PhD_2021/Malaria_codes/data/pdb_ligands_mmv/ligand_64.pdb
REMARK  10 active torsions:
REMARK  status: ('A' for Active; 'I' for Inactive)
REMARK    1  A    between atoms: C1_1  and  C2_2
REMARK    2  A    between atoms: C2_2  and  C3_3
REMARK    3  A    between atoms: C3_3  and  C4_4
REMARK    4  A    between atoms: C4_4  and  C5_5
REMARK    5  A    between atoms: C5_5  and  C6_6
REMARK    6  A    between atoms: C6_6  and  O1_7
REMARK    7  A    between atoms: O1_7  and  C7_8
REMARK    8  A    between atoms: C7_8  and  C8_10
REMARK    9  A    between atoms: C9_11  and  C10_12
REMARK   10  A    between atoms: C12_17  and  C13_18
REMARK                            x       y       z     vdW  Elec       q    Type
REMARK                         _______ _______ _______ _____ _____    ______ ____
ROOT
ATOM      1  C8  UNL     1     150.808 155.963 158.988  0.00  0.00    +0.078 C 
ATOM      2  C9  UNL     1     151.385 155.048 159.789  0.00  0.00    +0.021 C 
ATOM      3  C10 UNL     1     152.075 153.786 159.351  0.00  0.00    +0.061 C 
ATOM      4  N1  UNL     1     151.336 155.248 161.150  0.00  0.00    -0.273 N 
ATOM      5  C11 UNL     1     150.686 156.269 161.775  0.00  0.00    +0.304 C 
ATOM      6  O3  UNL     1     150.665 156.371 162.996  0.00  0.00    -0.252 OA
ATOM      7  N2  UNL     1     150.051 157.159 160.977  0.00  0.00    -0.288 N 
ATOM      8  C12 UNL     1     150.139 157.198 159.526  0.00  0.00    +0.146 C 
ATOM      9  H17 UNL     1     151.771 154.582 161.778  0.00  0.00    +0.156 HD
ATOM     10  H18 UNL     1     149.594 157.919 161.460  0.00  0.00    +0.151 HD
ENDROOT
BRANCH   8  11
ATOM     11  C13 UNL     1     150.823 158.480 159.091  0.00  0.00    +0.013 A 
ATOM     12  C14 UNL     1     151.995 158.943 159.716  0.00  0.00    +0.008 A 
ATOM     13  C15 UNL     1     152.615 160.118 159.285  0.00  0.00    +0.001 A 
ATOM     14  C16 UNL     1     152.077 160.847 158.225  0.00  0.00    +0.003 A 
ATOM     15  C17 UNL     1     150.919 160.399 157.593  0.00  0.00    +0.039 A 
ATOM     16  C18 UNL     1     150.306 159.227 158.027  0.00  0.00    +0.129 A 
ATOM     17  F1  UNL     1     149.196 158.816 157.399  0.00  0.00    -0.205 F 
ENDBRANCH   8  11
BRANCH   1  18
ATOM     18  C7  UNL     1     150.849 155.820 157.517  0.00  0.00    +0.339 C 
ATOM     19  O2  UNL     1     149.890 155.523 156.826  0.00  0.00    -0.245 OA
BRANCH  18  20
ATOM     20  O1  UNL     1     152.105 156.082 157.080  0.00  0.00    -0.461 OA
BRANCH  20  21
ATOM     21  C6  UNL     1     152.272 156.145 155.654  0.00  0.00    +0.232 C 
BRANCH  21  22
ATOM     22  C5  UNL     1     152.158 157.592 155.185  0.00  0.00    +0.041 C 
BRANCH  22  23
ATOM     23  C4  UNL     1     152.039 157.738 153.667  0.00  0.00    +0.003 C 
BRANCH  23  24
ATOM     24  C3  UNL     1     153.347 157.604 152.881  0.00  0.00    -0.000 C 
BRANCH  24  26
ATOM     25  C1  UNL     1     151.917 155.900 151.701  0.00  0.00    +0.004 C 
ATOM     26  C2  UNL     1     153.303 156.517 151.808  0.00  0.00    -0.003 C 
ENDBRANCH  24  26
ENDBRANCH  23  24
ENDBRANCH  22  23
ENDBRANCH  21  22
ENDBRANCH  20  21
ENDBRANCH  18  20
ENDBRANCH   1  18
TORSDOF 8
ENDMDL
MODEL 2
REMARK VINA RESULT:    -7.010      2.398      3.858
REMARK INTER + INTRA:         -11.578
REMARK INTER:                  -9.932
REMARK INTRA:                  -1.646
REMARK UNBOUND:                -1.290
REMARK  Name = /home/vital/Documents/PhD_2021/Malaria_codes/data/pdb_ligands_mmv/ligand_64.pdb
REMARK  10 active torsions:
REMARK  status: ('A' for Active; 'I' for Inactive)
REMARK    1  A    between atoms: C1_1  and  C2_2
REMARK    2  A    between atoms: C2_2  and  C3_3
REMARK    3  A    between atoms: C3_3  and  C4_4
REMARK    4  A    between atoms: C4_4  and  C5_5
REMARK    5  A    between atoms: C5_5  and  C6_6
REMARK    6  A    between atoms: C6_6  and  O1_7
REMARK    7  A    between atoms: O1_7  and  C7_8
REMARK    8  A    between atoms: C7_8  and  C8_10
REMARK    9  A    between atoms: C9_11  and  C10_12
REMARK   10  A    between atoms: C12_17  and  C13_18
REMARK                            x       y       z     vdW  Elec       q    Type
REMARK                         _______ _______ _______ _____ _____    ______ ____
ROOT
ATOM      1  C8  UNL     1     150.658 158.226 161.732  0.00  0.00    +0.078 C 
ATOM      2  C9  UNL     1     151.424 158.578 162.781  0.00  0.00    +0.021 C 
ATOM      3  C10 UNL     1     152.199 157.647 163.673  0.00  0.00    +0.061 C 
ATOM      4  N1  UNL     1     151.509 159.911 163.110  0.00  0.00    -0.273 N 
ATOM      5  C11 UNL     1     150.823 160.920 162.503  0.00  0.00    +0.304 C 
ATOM      6  O3  UNL     1     150.931 162.086 162.864  0.00  0.00    -0.252 OA
ATOM      7  N2  UNL     1     150.003 160.565 161.486  0.00  0.00    -0.288 N 
ATOM      8  C12 UNL     1     149.919 159.237 160.899  0.00  0.00    +0.146 C 
ATOM      9  H17 UNL     1     152.086 160.208 163.888  0.00  0.00    +0.156 HD
ATOM     10  H18 UNL     1     149.521 161.330 161.036  0.00  0.00    +0.151 HD
ENDROOT
BRANCH   8  11
ATOM     11  C13 UNL     1     150.398 159.284 159.460  0.00  0.00    +0.013 A 
ATOM     12  C14 UNL     1     149.543 158.984 158.385  0.00  0.00    +0.008 A 
ATOM     13  C15 UNL     1     150.004 159.052 157.068  0.00  0.00    +0.001 A 
ATOM     14  C16 UNL     1     151.323 159.420 156.805  0.00  0.00    +0.003 A 
ATOM     15  C17 UNL     1     152.181 159.724 157.860  0.00  0.00    +0.039 A 
ATOM     16  C18 UNL     1     151.715 159.654 159.170  0.00  0.00    +0.129 A 
ATOM     17  F1  UNL     1     152.560 159.956 160.166  0.00  0.00    -0.205 F 
ENDBRANCH   8  11
BRANCH   1  18
ATOM     18  C7  UNL     1     150.546 156.814 161.312  0.00  0.00    +0.339 C 
ATOM     19  O2  UNL     1     149.630 156.072 161.623  0.00  0.00    -0.245 OA
BRANCH  18  20
ATOM     20  O1  UNL     1     151.607 156.497 160.530  0.00  0.00    -0.461 OA
BRANCH  20  21
ATOM     21  C6  UNL     1     151.476 155.294 159.755  0.00  0.00    +0.232 C 
BRANCH  21  22
ATOM     22  C5  UNL     1     150.862 155.619 158.396  0.00  0.00    +0.041 C 
BRANCH  22  23
ATOM     23  C4  UNL     1     151.884 155.680 157.260  0.00  0.00    +0.003 C 
BRANCH  23  24
ATOM     24  C3  UNL     1     151.305 155.827 155.850  0.00  0.00    -0.000 C 
BRANCH  24  26
ATOM     25  C1  UNL     1     152.993 157.078 154.460  0.00  0.00    +0.004 C 
ATOM     26  C2  UNL     1     152.358 155.725 154.746  0.00  0.00    -0.003 C 
ENDBRANCH  24  26
ENDBRANCH  23  24
ENDBRANCH  22  23
ENDBRANCH  21  22
ENDBRANCH  20  21
ENDBRANCH  18  20
ENDBRANCH   1  18
TORSDOF 8
ENDMDL
MODEL 3
REMARK VINA RESULT:    -6.915      2.219      3.517
REMARK INTER + INTRA:         -11.439
REMARK INTER:                  -9.626
REMARK INTRA:                  -1.813
REMARK UNBOUND:                -1.290
REMARK  Name = /home/vital/Documents/PhD_2021/Malaria_codes/data/pdb_ligands_mmv/ligand_64.pdb
REMARK  10 active torsions:
REMARK  status: ('A' for Active; 'I' for Inactive)
REMARK    1  A    between atoms: C1_1  and  C2_2
REMARK    2  A    between atoms: C2_2  and  C3_3
REMARK    3  A    between atoms: C3_3  and  C4_4
REMARK    4  A    between atoms: C4_4  and  C5_5
REMARK    5  A    between atoms: C5_5  and  C6_6
REMARK    6  A    between atoms: C6_6  and  O1_7
REMARK    7  A    between atoms: O1_7  and  C7_8
REMARK    8  A    between atoms: C7_8  and  C8_10
REMARK    9  A    between atoms: C9_11  and  C10_12
REMARK   10  A    between atoms: C12_17  and  C13_18
REMARK                            x       y       z     vdW  Elec       q    Type
REMARK                         _______ _______ _______ _____ _____    ______ ____
ROOT
ATOM      1  C8  UNL     1     150.658 158.257 161.570  0.00  0.00    +0.078 C 
ATOM      2  C9  UNL     1     151.373 158.424 162.698  0.00  0.00    +0.021 C 
ATOM      3  C10 UNL     1     151.946 157.334 163.561  0.00  0.00    +0.061 C 
ATOM      4  N1  UNL     1     151.598 159.706 163.145  0.00  0.00    -0.273 N 
ATOM      5  C11 UNL     1     151.099 160.839 162.577  0.00  0.00    +0.304 C 
ATOM      6  O3  UNL     1     151.323 161.950 163.044  0.00  0.00    -0.252 OA
ATOM      7  N2  UNL     1     150.327 160.674 161.477  0.00  0.00    -0.288 N 
ATOM      8  C12 UNL     1     150.125 159.417 160.775  0.00  0.00    +0.146 C 
ATOM      9  H17 UNL     1     152.142 159.863 163.985  0.00  0.00    +0.156 HD
ATOM     10  H18 UNL     1     149.986 161.528 161.060  0.00  0.00    +0.151 HD
ENDROOT
BRANCH   8  11
ATOM     11  C13 UNL     1     150.723 159.507 159.384  0.00  0.00    +0.013 A 
ATOM     12  C14 UNL     1     152.075 159.836 159.179  0.00  0.00    +0.008 A 
ATOM     13  C15 UNL     1     152.605 159.896 157.888  0.00  0.00    +0.001 A 
ATOM     14  C16 UNL     1     151.797 159.628 156.784  0.00  0.00    +0.003 A 
ATOM     15  C17 UNL     1     150.456 159.298 156.971  0.00  0.00    +0.039 A 
ATOM     16  C18 UNL     1     149.934 159.240 158.260  0.00  0.00    +0.129 A 
ATOM     17  F1  UNL     1     148.642 158.915 158.412  0.00  0.00    -0.205 F 
ENDBRANCH   8  11
BRANCH   1  18
ATOM     18  C7  UNL     1     150.403 156.907 161.024  0.00  0.00    +0.339 C 
ATOM     19  O2  UNL     1     149.395 156.255 161.239  0.00  0.00    -0.245 OA
BRANCH  18  20
ATOM     20  O1  UNL     1     151.452 156.534 160.251  0.00  0.00    -0.461 OA
BRANCH  20  21
ATOM     21  C6  UNL     1     151.271 155.332 159.487  0.00  0.00    +0.232 C 
BRANCH  21  22
ATOM     22  C5  UNL     1     150.626 155.666 158.144  0.00  0.00    +0.041 C 
BRANCH  22  23
ATOM     23  C4  UNL     1     151.633 155.830 157.005  0.00  0.00    +0.003 C 
BRANCH  23  24
ATOM     24  C3  UNL     1     151.056 155.744 155.589  0.00  0.00    -0.000 C 
BRANCH  24  26
ATOM     25  C1  UNL     1     153.056 156.955 154.650  0.00  0.00    +0.004 C 
ATOM     26  C2  UNL     1     152.123 155.763 154.495  0.00  0.00    -0.003 C 
ENDBRANCH  24  26
ENDBRANCH  23  24
ENDBRANCH  22  23
ENDBRANCH  21  22
ENDBRANCH  20  21
ENDBRANCH  18  20
ENDBRANCH   1  18
TORSDOF 8
ENDMDL
MODEL 4
REMARK VINA RESULT:    -6.778      3.028      6.795
REMARK INTER + INTRA:         -11.238
REMARK INTER:                 -10.293
REMARK INTRA:                  -0.945
REMARK UNBOUND:                -1.290
REMARK  Name = /home/vital/Documents/PhD_2021/Malaria_codes/data/pdb_ligands_mmv/ligand_64.pdb
REMARK  10 active torsions:
REMARK  status: ('A' for Active; 'I' for Inactive)
REMARK    1  A    between atoms: C1_1  and  C2_2
REMARK    2  A    between atoms: C2_2  and  C3_3
REMARK    3  A    between atoms: C3_3  and  C4_4
REMARK    4  A    between atoms: C4_4  and  C5_5
REMARK    5  A    between atoms: C5_5  and  C6_6
REMARK    6  A    between atoms: C6_6  and  O1_7
REMARK    7  A    between atoms: O1_7  and  C7_8
REMARK    8  A    between atoms: C7_8  and  C8_10
REMARK    9  A    between atoms: C9_11  and  C10_12
REMARK   10  A    between atoms: C12_17  and  C13_18
REMARK                            x       y       z     vdW  Elec       q    Type
REMARK                         _______ _______ _______ _____ _____    ______ ____
ROOT
ATOM      1  C8  UNL     1     151.041 157.504 158.678  0.00  0.00    +0.078 C 
ATOM      2  C9  UNL     1     151.613 158.431 159.468  0.00  0.00    +0.021 C 
ATOM      3  C10 UNL     1     152.169 158.208 160.848  0.00  0.00    +0.061 C 
ATOM      4  N1  UNL     1     151.691 159.725 159.005  0.00  0.00    -0.273 N 
ATOM      5  C11 UNL     1     151.173 160.175 157.829  0.00  0.00    +0.304 C 
ATOM      6  O3  UNL     1     151.260 161.350 157.491  0.00  0.00    -0.252 OA
ATOM      7  N2  UNL     1     150.541 159.259 157.057  0.00  0.00    -0.288 N 
ATOM      8  C12 UNL     1     150.513 157.827 157.307  0.00  0.00    +0.146 C 
ATOM      9  H17 UNL     1     152.126 160.442 159.573  0.00  0.00    +0.156 HD
ATOM     10  H18 UNL     1     150.184 159.611 156.180  0.00  0.00    +0.151 HD
ENDROOT
BRANCH   8  11
ATOM     11  C13 UNL     1     151.252 157.101 156.200  0.00  0.00    +0.013 A 
ATOM     12  C14 UNL     1     152.471 157.577 155.687  0.00  0.00    +0.008 A 
ATOM     13  C15 UNL     1     153.140 156.880 154.678  0.00  0.00    +0.001 A 
ATOM     14  C16 UNL     1     152.604 155.698 154.168  0.00  0.00    +0.003 A 
ATOM     15  C17 UNL     1     151.399 155.212 154.669  0.00  0.00    +0.039 A 
ATOM     16  C18 UNL     1     150.737 155.911 155.674  0.00  0.00    +0.129 A 
ATOM     17  F1  UNL     1     149.581 155.419 156.141  0.00  0.00    -0.205 F 
ENDBRANCH   8  11
BRANCH   1  18
ATOM     18  C7  UNL     1     150.950 156.091 159.105  0.00  0.00    +0.339 C 
ATOM     19  O2  UNL     1     151.851 155.277 158.993  0.00  0.00    -0.245 OA
BRANCH  18  20
ATOM     20  O1  UNL     1     149.725 155.867 159.640  0.00  0.00    -0.461 OA
BRANCH  20  21
ATOM     21  C6  UNL     1     149.713 155.333 160.974  0.00  0.00    +0.232 C 
BRANCH  21  22
ATOM     22  C5  UNL     1     149.044 153.961 160.974  0.00  0.00    +0.041 C 
BRANCH  22  23
ATOM     23  C4  UNL     1     148.610 153.491 162.363  0.00  0.00    +0.003 C 
BRANCH  23  24
ATOM     24  C3  UNL     1     147.443 152.500 162.396  0.00  0.00    -0.000 C 
BRANCH  24  26
ATOM     25  C1  UNL     1     148.436 152.107 164.677  0.00  0.00    +0.004 C 
ATOM     26  C2  UNL     1     147.422 151.626 163.650  0.00  0.00    -0.003 C 
ENDBRANCH  24  26
ENDBRANCH  23  24
ENDBRANCH  22  23
ENDBRANCH  21  22
ENDBRANCH  20  21
ENDBRANCH  18  20
ENDBRANCH   1  18
TORSDOF 8
ENDMDL
MODEL 5
REMARK VINA RESULT:    -6.548      3.191      5.158
REMARK INTER + INTRA:         -10.901
REMARK INTER:                  -9.128
REMARK INTRA:                  -1.773
REMARK UNBOUND:                -1.290
REMARK  Name = /home/vital/Documents/PhD_2021/Malaria_codes/data/pdb_ligands_mmv/ligand_64.pdb
REMARK  10 active torsions:
REMARK  status: ('A' for Active; 'I' for Inactive)
REMARK    1  A    between atoms: C1_1  and  C2_2
REMARK    2  A    between atoms: C2_2  and  C3_3
REMARK    3  A    between atoms: C3_3  and  C4_4
REMARK    4  A    between atoms: C4_4  and  C5_5
REMARK    5  A    between atoms: C5_5  and  C6_6
REMARK    6  A    between atoms: C6_6  and  O1_7
REMARK    7  A    between atoms: O1_7  and  C7_8
REMARK    8  A    between atoms: C7_8  and  C8_10
REMARK    9  A    between atoms: C9_11  and  C10_12
REMARK   10  A    between atoms: C12_17  and  C13_18
REMARK                            x       y       z     vdW  Elec       q    Type
REMARK                         _______ _______ _______ _____ _____    ______ ____
ROOT
ATOM      1  C8  UNL     1     151.279 159.151 162.875  0.00  0.00    +0.078 C 
ATOM      2  C9  UNL     1     151.908 159.725 163.917  0.00  0.00    +0.021 C 
ATOM      3  C10 UNL     1     152.857 159.050 164.869  0.00  0.00    +0.061 C 
ATOM      4  N1  UNL     1     151.659 161.053 164.178  0.00  0.00    -0.273 N 
ATOM      5  C11 UNL     1     150.770 161.837 163.508  0.00  0.00    +0.304 C 
ATOM      6  O3  UNL     1     150.584 163.010 163.811  0.00  0.00    -0.252 OA
ATOM      7  N2  UNL     1     150.088 161.248 162.497  0.00  0.00    -0.288 N 
ATOM      8  C12 UNL     1     150.343 159.913 161.977  0.00  0.00    +0.146 C 
ATOM      9  H17 UNL     1     152.126 161.515 164.949  0.00  0.00    +0.156 HD
ATOM     10  H18 UNL     1     149.450 161.853 162.000  0.00  0.00    +0.151 HD
ENDROOT
BRANCH   8  11
ATOM     11  C13 UNL     1     150.838 160.009 160.547  0.00  0.00    +0.013 A 
ATOM     12  C14 UNL     1     152.122 160.492 160.238  0.00  0.00    +0.008 A 
ATOM     13  C15 UNL     1     152.560 160.553 158.913  0.00  0.00    +0.001 A 
ATOM     14  C16 UNL     1     151.725 160.132 157.878  0.00  0.00    +0.003 A 
ATOM     15  C17 UNL     1     150.452 159.647 158.169  0.00  0.00    +0.039 A 
ATOM     16  C18 UNL     1     150.021 159.589 159.491  0.00  0.00    +0.129 A 
ATOM     17  F1  UNL     1     148.794 159.114 159.744  0.00  0.00    -0.205 F 
ENDBRANCH   8  11
BRANCH   1  18
ATOM     18  C7  UNL     1     151.522 157.735 162.525  0.00  0.00    +0.339 C 
ATOM     19  O2  UNL     1     152.561 157.310 162.048  0.00  0.00    -0.245 OA
BRANCH  18  20
ATOM     20  O1  UNL     1     150.421 157.007 162.831  0.00  0.00    -0.461 OA
BRANCH  20  21
ATOM     21  C6  UNL     1     150.389 155.669 162.307  0.00  0.00    +0.232 C 
BRANCH  21  22
ATOM     22  C5  UNL     1     149.740 155.672 160.925  0.00  0.00    +0.041 C 
BRANCH  22  23
ATOM     23  C4  UNL     1     150.653 155.142 159.818  0.00  0.00    +0.003 C 
BRANCH  23  24
ATOM     24  C3  UNL     1     151.064 156.160 158.750  0.00  0.00    -0.000 C 
BRANCH  24  26
ATOM     25  C1  UNL     1     150.278 156.407 156.370  0.00  0.00    +0.004 C 
ATOM     26  C2  UNL     1     151.106 155.576 157.338  0.00  0.00    -0.003 C 
ENDBRANCH  24  26
ENDBRANCH  23  24
ENDBRANCH  22  23
ENDBRANCH  21  22
ENDBRANCH  20  21
ENDBRANCH  18  20
ENDBRANCH   1  18
TORSDOF 8
ENDMDL
MODEL 6
REMARK VINA RESULT:    -6.316      2.552      4.688
REMARK INTER + INTRA:         -10.560
REMARK INTER:                  -9.000
REMARK INTRA:                  -1.560
REMARK UNBOUND:                -1.290
REMARK  Name = /home/vital/Documents/PhD_2021/Malaria_codes/data/pdb_ligands_mmv/ligand_64.pdb
REMARK  10 active torsions:
REMARK  status: ('A' for Active; 'I' for Inactive)
REMARK    1  A    between atoms: C1_1  and  C2_2
REMARK    2  A    between atoms: C2_2  and  C3_3
REMARK    3  A    between atoms: C3_3  and  C4_4
REMARK    4  A    between atoms: C4_4  and  C5_5
REMARK    5  A    between atoms: C5_5  and  C6_6
REMARK    6  A    between atoms: C6_6  and  O1_7
REMARK    7  A    between atoms: O1_7  and  C7_8
REMARK    8  A    between atoms: C7_8  and  C8_10
REMARK    9  A    between atoms: C9_11  and  C10_12
REMARK   10  A    between atoms: C12_17  and  C13_18
REMARK                            x       y       z     vdW  Elec       q    Type
REMARK                         _______ _______ _______ _____ _____    ______ ____
ROOT
ATOM      1  C8  UNL     1     151.485 158.556 161.817  0.00  0.00    +0.078 C 
ATOM      2  C9  UNL     1     151.446 159.166 163.015  0.00  0.00    +0.021 C 
ATOM      3  C10 UNL     1     150.804 160.491 163.322  0.00  0.00    +0.061 C 
ATOM      4  N1  UNL     1     152.066 158.553 164.080  0.00  0.00    -0.273 N 
ATOM      5  C11 UNL     1     152.786 157.399 164.018  0.00  0.00    +0.304 C 
ATOM      6  O3  UNL     1     153.331 156.922 165.006  0.00  0.00    -0.252 OA
ATOM      7  N2  UNL     1     152.881 156.813 162.801  0.00  0.00    -0.288 N 
ATOM      8  C12 UNL     1     152.156 157.226 161.610  0.00  0.00    +0.146 C 
ATOM      9  H17 UNL     1     152.043 158.983 164.998  0.00  0.00    +0.156 HD
ATOM     10  H18 UNL     1     153.401 155.946 162.782  0.00  0.00    +0.151 HD
ENDROOT
BRANCH   8  11
ATOM     11  C13 UNL     1     151.190 156.132 161.196  0.00  0.00    +0.013 A 
ATOM     12  C14 UNL     1     150.352 155.492 162.127  0.00  0.00    +0.008 A 
ATOM     13  C15 UNL     1     149.460 154.500 161.716  0.00  0.00    +0.001 A 
ATOM     14  C16 UNL     1     149.388 154.133 160.373  0.00  0.00    +0.003 A 
ATOM     15  C17 UNL     1     150.210 154.760 159.438  0.00  0.00    +0.039 A 
ATOM     16  C18 UNL     1     151.097 155.748 159.854  0.00  0.00    +0.129 A 
ATOM     17  F1  UNL     1     151.873 156.339 158.934  0.00  0.00    -0.205 F 
ENDBRANCH   8  11
BRANCH   1  18
ATOM     18  C7  UNL     1     150.817 159.149 160.639  0.00  0.00    +0.339 C 
ATOM     19  O2  UNL     1     149.612 159.142 160.453  0.00  0.00    -0.245 OA
BRANCH  18  20
ATOM     20  O1  UNL     1     151.753 159.699 159.827  0.00  0.00    -0.461 OA
BRANCH  20  21
ATOM     21  C6  UNL     1     151.266 160.245 158.590  0.00  0.00    +0.232 C 
BRANCH  21  22
ATOM     22  C5  UNL     1     151.661 159.334 157.432  0.00  0.00    +0.041 C 
BRANCH  22  23
ATOM     23  C4  UNL     1     150.491 158.538 156.851  0.00  0.00    +0.003 C 
BRANCH  23  24
ATOM     24  C3  UNL     1     150.868 157.391 155.909  0.00  0.00    -0.000 C 
BRANCH  24  26
ATOM     25  C1  UNL     1     152.775 157.627 154.280  0.00  0.00    +0.004 C 
ATOM     26  C2  UNL     1     152.376 157.248 155.698  0.00  0.00    -0.003 C 
ENDBRANCH  24  26
ENDBRANCH  23  24
ENDBRANCH  22  23
ENDBRANCH  21  22
ENDBRANCH  20  21
ENDBRANCH  18  20
ENDBRANCH   1  18
TORSDOF 8
ENDMDL
MODEL 7
REMARK VINA RESULT:    -6.038     14.601     17.261
REMARK INTER + INTRA:         -10.152
REMARK INTER:                  -8.217
REMARK INTRA:                  -1.935
REMARK UNBOUND:                -1.290
REMARK  Name = /home/vital/Documents/PhD_2021/Malaria_codes/data/pdb_ligands_mmv/ligand_64.pdb
REMARK  10 active torsions:
REMARK  status: ('A' for Active; 'I' for Inactive)
REMARK    1  A    between atoms: C1_1  and  C2_2
REMARK    2  A    between atoms: C2_2  and  C3_3
REMARK    3  A    between atoms: C3_3  and  C4_4
REMARK    4  A    between atoms: C4_4  and  C5_5
REMARK    5  A    between atoms: C5_5  and  C6_6
REMARK    6  A    between atoms: C6_6  and  O1_7
REMARK    7  A    between atoms: O1_7  and  C7_8
REMARK    8  A    between atoms: C7_8  and  C8_10
REMARK    9  A    between atoms: C9_11  and  C10_12
REMARK   10  A    between atoms: C12_17  and  C13_18
REMARK                            x       y       z     vdW  Elec       q    Type
REMARK                         _______ _______ _______ _____ _____    ______ ____
ROOT
ATOM      1  C8  UNL     1     143.251 142.361 165.367  0.00  0.00    +0.078 C 
ATOM      2  C9  UNL     1     143.057 141.337 164.515  0.00  0.00    +0.021 C 
ATOM      3  C10 UNL     1     141.772 140.991 163.815  0.00  0.00    +0.061 C 
ATOM      4  N1  UNL     1     144.112 140.493 164.258  0.00  0.00    -0.273 N 
ATOM      5  C11 UNL     1     145.339 140.559 164.847  0.00  0.00    +0.304 C 
ATOM      6  O3  UNL     1     146.227 139.756 164.585  0.00  0.00    -0.252 OA
ATOM      7  N2  UNL     1     145.521 141.549 165.752  0.00  0.00    -0.288 N 
ATOM      8  C12 UNL     1     144.580 142.625 166.021  0.00  0.00    +0.146 C 
ATOM      9  H17 UNL     1     143.999 139.720 163.612  0.00  0.00    +0.156 HD
ATOM     10  H18 UNL     1     146.444 141.593 166.161  0.00  0.00    +0.151 HD
ENDROOT
BRANCH   8  11
ATOM     11  C13 UNL     1     145.190 143.951 165.610  0.00  0.00    +0.013 A 
ATOM     12  C14 UNL     1     145.557 144.923 166.558  0.00  0.00    +0.008 A 
ATOM     13  C15 UNL     1     146.133 146.130 166.153  0.00  0.00    +0.001 A 
ATOM     14  C16 UNL     1     146.353 146.383 164.800  0.00  0.00    +0.003 A 
ATOM     15  C17 UNL     1     145.998 145.429 163.849  0.00  0.00    +0.039 A 
ATOM     16  C18 UNL     1     145.424 144.228 164.259  0.00  0.00    +0.129 A 
ATOM     17  F1  UNL     1     145.097 143.325 163.324  0.00  0.00    -0.205 F 
ENDBRANCH   8  11
BRANCH   1  18
ATOM     18  C7  UNL     1     142.166 143.319 165.666  0.00  0.00    +0.339 C 
ATOM     19  O2  UNL     1     141.546 143.354 166.716  0.00  0.00    -0.245 OA
BRANCH  18  20
ATOM     20  O1  UNL     1     141.990 144.138 164.601  0.00  0.00    -0.461 OA
BRANCH  20  21
ATOM     21  C6  UNL     1     141.725 145.516 164.908  0.00  0.00    +0.232 C 
BRANCH  21  22
ATOM     22  C5  UNL     1     142.441 146.415 163.904  0.00  0.00    +0.041 C 
BRANCH  22  23
ATOM     23  C4  UNL     1     142.941 147.730 164.506  0.00  0.00    +0.003 C 
BRANCH  23  24
ATOM     24  C3  UNL     1     142.787 147.869 166.023  0.00  0.00    -0.000 C 
BRANCH  24  26
ATOM     25  C1  UNL     1     144.648 149.517 165.616  0.00  0.00    +0.004 C 
ATOM     26  C2  UNL     1     143.629 148.997 166.618  0.00  0.00    -0.003 C 
ENDBRANCH  24  26
ENDBRANCH  23  24
ENDBRANCH  22  23
ENDBRANCH  21  22
ENDBRANCH  20  21
ENDBRANCH  18  20
ENDBRANCH   1  18
TORSDOF 8
ENDMDL
MODEL 8
REMARK VINA RESULT:    -5.972      6.237      8.579
REMARK INTER + INTRA:         -10.054
REMARK INTER:                  -8.916
REMARK INTRA:                  -1.138
REMARK UNBOUND:                -1.290
REMARK  Name = /home/vital/Documents/PhD_2021/Malaria_codes/data/pdb_ligands_mmv/ligand_64.pdb
REMARK  10 active torsions:
REMARK  status: ('A' for Active; 'I' for Inactive)
REMARK    1  A    between atoms: C1_1  and  C2_2
REMARK    2  A    between atoms: C2_2  and  C3_3
REMARK    3  A    between atoms: C3_3  and  C4_4
REMARK    4  A    between atoms: C4_4  and  C5_5
REMARK    5  A    between atoms: C5_5  and  C6_6
REMARK    6  A    between atoms: C6_6  and  O1_7
REMARK    7  A    between atoms: O1_7  and  C7_8
REMARK    8  A    between atoms: C7_8  and  C8_10
REMARK    9  A    between atoms: C9_11  and  C10_12
REMARK   10  A    between atoms: C12_17  and  C13_18
REMARK                            x       y       z     vdW  Elec       q    Type
REMARK                         _______ _______ _______ _____ _____    ______ ____
ROOT
ATOM      1  C8  UNL     1     151.960 158.854 165.836  0.00  0.00    +0.078 C 
ATOM      2  C9  UNL     1     152.534 157.711 165.418  0.00  0.00    +0.021 C 
ATOM      3  C10 UNL     1     153.223 157.487 164.099  0.00  0.00    +0.061 C 
ATOM      4  N1  UNL     1     152.482 156.613 166.247  0.00  0.00    -0.273 N 
ATOM      5  C11 UNL     1     151.834 156.557 167.443  0.00  0.00    +0.304 C 
ATOM      6  O3  UNL     1     151.811 155.535 168.120  0.00  0.00    -0.252 OA
ATOM      7  N2  UNL     1     151.201 157.686 167.840  0.00  0.00    -0.288 N 
ATOM      8  C12 UNL     1     151.292 158.977 167.178  0.00  0.00    +0.146 C 
ATOM      9  H17 UNL     1     152.915 155.742 165.964  0.00  0.00    +0.156 HD
ATOM     10  H18 UNL     1     150.745 157.628 168.740  0.00  0.00    +0.151 HD
ENDROOT
BRANCH   8  11
ATOM     11  C13 UNL     1     151.979 159.973 168.093  0.00  0.00    +0.013 A 
ATOM     12  C14 UNL     1     153.238 159.710 168.662  0.00  0.00    +0.008 A 
ATOM     13  C15 UNL     1     153.856 160.651 169.488  0.00  0.00    +0.001 A 
ATOM     14  C16 UNL     1     153.231 161.868 169.756  0.00  0.00    +0.003 A 
ATOM     15  C17 UNL     1     151.985 162.144 169.197  0.00  0.00    +0.039 A 
ATOM     16  C18 UNL     1     151.373 161.202 168.375  0.00  0.00    +0.129 A 
ATOM     17  F1  UNL     1     150.177 161.495 167.846  0.00  0.00    -0.205 F 
ENDBRANCH   8  11
BRANCH   1  18
ATOM     18  C7  UNL     1     152.003 160.075 165.004  0.00  0.00    +0.339 C 
ATOM     19  O2  UNL     1     152.961 160.827 164.931  0.00  0.00    -0.245 OA
BRANCH  18  20
ATOM     20  O1  UNL     1     150.826 160.206 164.345  0.00  0.00    -0.461 OA
BRANCH  20  21
ATOM     21  C6  UNL     1     150.796 161.202 163.309  0.00  0.00    +0.232 C 
BRANCH  21  22
ATOM     22  C5  UNL     1     151.196 160.573 161.977  0.00  0.00    +0.041 C 
BRANCH  22  23
ATOM     23  C4  UNL     1     150.327 159.380 161.577  0.00  0.00    +0.003 C 
BRANCH  23  24
ATOM     24  C3  UNL     1     149.561 159.526 160.259  0.00  0.00    -0.000 C 
BRANCH  24  26
ATOM     25  C1  UNL     1     149.596 158.946 157.807  0.00  0.00    +0.004 C 
ATOM     26  C2  UNL     1     150.435 159.316 159.022  0.00  0.00    -0.003 C 
ENDBRANCH  24  26
ENDBRANCH  23  24
ENDBRANCH  22  23
ENDBRANCH  21  22
ENDBRANCH  20  21
ENDBRANCH  18  20
ENDBRANCH   1  18
TORSDOF 8
ENDMDL
MODEL 9
REMARK VINA RESULT:    -5.716      7.503      9.971
REMARK INTER + INTRA:          -9.679
REMARK INTER:                  -8.087
REMARK INTRA:                  -1.592
REMARK UNBOUND:                -1.290
REMARK  Name = /home/vital/Documents/PhD_2021/Malaria_codes/data/pdb_ligands_mmv/ligand_64.pdb
REMARK  10 active torsions:
REMARK  status: ('A' for Active; 'I' for Inactive)
REMARK    1  A    between atoms: C1_1  and  C2_2
REMARK    2  A    between atoms: C2_2  and  C3_3
REMARK    3  A    between atoms: C3_3  and  C4_4
REMARK    4  A    between atoms: C4_4  and  C5_5
REMARK    5  A    between atoms: C5_5  and  C6_6
REMARK    6  A    between atoms: C6_6  and  O1_7
REMARK    7  A    between atoms: O1_7  and  C7_8
REMARK    8  A    between atoms: C7_8  and  C8_10
REMARK    9  A    between atoms: C9_11  and  C10_12
REMARK   10  A    between atoms: C12_17  and  C13_18
REMARK                            x       y       z     vdW  Elec       q    Type
REMARK                         _______ _______ _______ _____ _____    ______ ____
ROOT
ATOM      1  C8  UNL     1     151.563 160.405 168.461  0.00  0.00    +0.078 C 
ATOM      2  C9  UNL     1     152.746 160.562 169.083  0.00  0.00    +0.021 C 
ATOM      3  C10 UNL     1     153.923 159.629 169.013  0.00  0.00    +0.061 C 
ATOM      4  N1  UNL     1     152.918 161.664 169.889  0.00  0.00    -0.273 N 
ATOM      5  C11 UNL     1     151.962 162.592 170.174  0.00  0.00    +0.304 C 
ATOM      6  O3  UNL     1     152.181 163.539 170.921  0.00  0.00    -0.252 OA
ATOM      7  N2  UNL     1     150.750 162.406 169.600  0.00  0.00    -0.288 N 
ATOM      8  C12 UNL     1     150.442 161.400 168.596  0.00  0.00    +0.146 C 
ATOM      9  H17 UNL     1     153.802 161.815 170.362  0.00  0.00    +0.156 HD
ATOM     10  H18 UNL     1     150.064 163.117 169.807  0.00  0.00    +0.151 HD
ENDROOT
BRANCH   8  11
ATOM     11  C13 UNL     1     150.090 162.078 167.286  0.00  0.00    +0.013 A 
ATOM     12  C14 UNL     1     151.029 162.843 166.571  0.00  0.00    +0.008 A 
ATOM     13  C15 UNL     1     150.683 163.443 165.358  0.00  0.00    +0.001 A 
ATOM     14  C16 UNL     1     149.398 163.287 164.840  0.00  0.00    +0.003 A 
ATOM     15  C17 UNL     1     148.458 162.529 165.534  0.00  0.00    +0.039 A 
ATOM     16  C18 UNL     1     148.808 161.934 166.743  0.00  0.00    +0.129 A 
ATOM     17  F1  UNL     1     147.886 161.206 167.388  0.00  0.00    -0.205 F 
ENDBRANCH   8  11
BRANCH   1  18
ATOM     18  C7  UNL     1     151.323 159.257 167.562  0.00  0.00    +0.339 C 
ATOM     19  O2  UNL     1     150.750 158.232 167.890  0.00  0.00    -0.245 OA
BRANCH  18  20
ATOM     20  O1  UNL     1     151.826 159.540 166.336  0.00  0.00    -0.461 OA
BRANCH  20  21
ATOM     21  C6  UNL     1     152.157 158.406 165.518  0.00  0.00    +0.232 C 
BRANCH  21  22
ATOM     22  C5  UNL     1     152.189 158.821 164.049  0.00  0.00    +0.041 C 
BRANCH  22  23
ATOM     23  C4  UNL     1     151.718 160.255 163.807  0.00  0.00    +0.003 C 
BRANCH  23  24
ATOM     24  C3  UNL     1     150.556 160.418 162.824  0.00  0.00    -0.000 C 
BRANCH  24  26
ATOM     25  C1  UNL     1     149.567 159.431 160.728  0.00  0.00    +0.004 C 
ATOM     26  C2  UNL     1     150.848 159.845 161.437  0.00  0.00    -0.003 C 
ENDBRANCH  24  26
ENDBRANCH  23  24
ENDBRANCH  22  23
ENDBRANCH  21  22
ENDBRANCH  20  21
ENDBRANCH  18  20
ENDBRANCH   1  18
TORSDOF 8
ENDMDL
