MODEL 1
REMARK VINA RESULT:    -7.795      0.000      0.000
REMARK INTER + INTRA:          -9.680
REMARK INTER:                  -9.162
REMARK INTRA:                  -0.517
REMARK UNBOUND:                -0.517
REMARK  Name = /home/vital/Documents/PhD_2021/Malaria_codes/data/pdb_ligands_mmv/ligand_180.pdb
REMARK  6 active torsions:
REMARK  status: ('A' for Active; 'I' for Inactive)
REMARK    1  A    between atoms: C1_1  and  C2_2
REMARK    2  A    between atoms: C2_2  and  C3_3
REMARK    3  A    between atoms: C6_6  and  N1_7
REMARK    4  A    between atoms: N1_7  and  C7_8
REMARK    5  A    between atoms: C9_10  and  C10_11
REMARK    6  A    between atoms: C12_15  and  C13_16
REMARK                            x       y       z     vdW  Elec       q    Type
REMARK                         _______ _______ _______ _____ _____    ______ ____
ROOT
ATOM      1  C7  UNL     1     151.123 158.269 157.232  0.00  0.00    +0.130 A 
ATOM      2  C8  UNL     1     151.247 159.590 157.471  0.00  0.00    +0.067 A 
ATOM      3  C9  UNL     1     151.593 160.006 158.864  0.00  0.00    +0.045 A 
ATOM      4  C10 UNL     1     151.777 161.483 159.114  0.00  0.00    +0.066 C 
ATOM      5  N2  UNL     1     151.749 159.200 159.869  0.00  0.00    -0.216 NA
ATOM      6  C11 UNL     1     151.571 157.871 159.617  0.00  0.00    +0.255 A 
ATOM      7  N3  UNL     1     151.643 156.864 160.458  0.00  0.00    -0.194 NA
ATOM      8  C12 UNL     1     151.355 155.778 159.688  0.00  0.00    +0.151 A 
ATOM      9  C13 UNL     1     151.315 154.410 160.239  0.00  0.00    +0.090 C 
ATOM     10  N4  UNL     1     151.107 156.035 158.404  0.00  0.00    -0.147 NA
ATOM     11  N5  UNL     1     151.261 157.386 158.335  0.00  0.00    -0.182 N 
ENDROOT
BRANCH   1  12
ATOM     12  N1  UNL     1     150.788 157.782 155.968  0.00  0.00    -0.299 N 
ATOM     13  H8  UNL     1     150.038 158.297 155.515  0.00  0.00    +0.154 HD
BRANCH  12  17
ATOM     14  C3  UNL     1     153.490 156.191 153.099  0.00  0.00    -0.048 A 
ATOM     15  C4  UNL     1     152.760 155.362 153.955  0.00  0.00    +0.005 A 
ATOM     16  C5  UNL     1     151.876 155.913 154.888  0.00  0.00    +0.023 A 
ATOM     17  C6  UNL     1     151.685 157.301 154.981  0.00  0.00    +0.032 A 
ATOM     18  C14 UNL     1     152.429 158.122 154.128  0.00  0.00    +0.023 A 
ATOM     19  C15 UNL     1     153.314 157.574 153.192  0.00  0.00    +0.005 A 
BRANCH  14  21
ATOM     20  C1  UNL     1     153.762 155.402 150.734  0.00  0.00    +0.009 C 
ATOM     21  C2  UNL     1     154.436 155.604 152.083  0.00  0.00    +0.032 C 
ENDBRANCH  14  21
ENDBRANCH  12  17
ENDBRANCH   1  12
TORSDOF 3
ENDMDL
MODEL 2
REMARK VINA RESULT:    -7.742      0.856      1.399
REMARK INTER + INTRA:          -9.617
REMARK INTER:                  -9.105
REMARK INTRA:                  -0.512
REMARK UNBOUND:                -0.517
REMARK  Name = /home/vital/Documents/PhD_2021/Malaria_codes/data/pdb_ligands_mmv/ligand_180.pdb
REMARK  6 active torsions:
REMARK  status: ('A' for Active; 'I' for Inactive)
REMARK    1  A    between atoms: C1_1  and  C2_2
REMARK    2  A    between atoms: C2_2  and  C3_3
REMARK    3  A    between atoms: C6_6  and  N1_7
REMARK    4  A    between atoms: N1_7  and  C7_8
REMARK    5  A    between atoms: C9_10  and  C10_11
REMARK    6  A    between atoms: C12_15  and  C13_16
REMARK                            x       y       z     vdW  Elec       q    Type
REMARK                         _______ _______ _______ _____ _____    ______ ____
ROOT
ATOM      1  C7  UNL     1     151.172 158.421 158.124  0.00  0.00    +0.130 A 
ATOM      2  C8  UNL     1     151.452 159.709 158.408  0.00  0.00    +0.067 A 
ATOM      3  C9  UNL     1     151.971 160.013 159.775  0.00  0.00    +0.045 A 
ATOM      4  C10 UNL     1     152.327 161.450 160.072  0.00  0.00    +0.066 C 
ATOM      5  N2  UNL     1     152.140 159.143 160.723  0.00  0.00    -0.216 NA
ATOM      6  C11 UNL     1     151.804 157.853 160.432  0.00  0.00    +0.255 A 
ATOM      7  N3  UNL     1     151.855 156.799 161.216  0.00  0.00    -0.194 NA
ATOM      8  C12 UNL     1     151.385 155.790 160.431  0.00  0.00    +0.151 A 
ATOM      9  C13 UNL     1     151.258 154.404 160.923  0.00  0.00    +0.090 C 
ATOM     10  N4  UNL     1     151.041 156.139 159.192  0.00  0.00    -0.147 NA
ATOM     11  N5  UNL     1     151.325 157.471 159.167  0.00  0.00    -0.182 N 
ENDROOT
BRANCH   1  12
ATOM     12  N1  UNL     1     150.669 158.038 156.881  0.00  0.00    -0.299 N 
ATOM     13  H8  UNL     1     149.961 158.668 156.512  0.00  0.00    +0.154 HD
BRANCH  12  17
ATOM     14  C3  UNL     1     152.844 156.519 153.559  0.00  0.00    -0.048 A 
ATOM     15  C4  UNL     1     152.601 157.887 153.711  0.00  0.00    +0.005 A 
ATOM     16  C5  UNL     1     151.883 158.359 154.815  0.00  0.00    +0.023 A 
ATOM     17  C6  UNL     1     151.406 157.484 155.804  0.00  0.00    +0.032 A 
ATOM     18  C14 UNL     1     151.644 156.116 155.636  0.00  0.00    +0.023 A 
ATOM     19  C15 UNL     1     152.362 155.639 154.533  0.00  0.00    +0.005 A 
BRANCH  14  21
ATOM     20  C1  UNL     1     152.802 156.033 151.100  0.00  0.00    +0.009 C 
ATOM     21  C2  UNL     1     153.625 156.004 152.378  0.00  0.00    +0.032 C 
ENDBRANCH  14  21
ENDBRANCH  12  17
ENDBRANCH   1  12
TORSDOF 3
ENDMDL
MODEL 3
REMARK VINA RESULT:    -7.711      0.219      1.095
REMARK INTER + INTRA:          -9.581
REMARK INTER:                  -9.070
REMARK INTRA:                  -0.510
REMARK UNBOUND:                -0.517
REMARK  Name = /home/vital/Documents/PhD_2021/Malaria_codes/data/pdb_ligands_mmv/ligand_180.pdb
REMARK  6 active torsions:
REMARK  status: ('A' for Active; 'I' for Inactive)
REMARK    1  A    between atoms: C1_1  and  C2_2
REMARK    2  A    between atoms: C2_2  and  C3_3
REMARK    3  A    between atoms: C6_6  and  N1_7
REMARK    4  A    between atoms: N1_7  and  C7_8
REMARK    5  A    between atoms: C9_10  and  C10_11
REMARK    6  A    between atoms: C12_15  and  C13_16
REMARK                            x       y       z     vdW  Elec       q    Type
REMARK                         _______ _______ _______ _____ _____    ______ ____
ROOT
ATOM      1  C7  UNL     1     151.005 158.183 157.243  0.00  0.00    +0.130 A 
ATOM      2  C8  UNL     1     151.115 159.507 157.465  0.00  0.00    +0.067 A 
ATOM      3  C9  UNL     1     151.499 159.943 158.841  0.00  0.00    +0.045 A 
ATOM      4  C10 UNL     1     151.668 161.426 159.071  0.00  0.00    +0.066 C 
ATOM      5  N2  UNL     1     151.700 159.150 159.849  0.00  0.00    -0.216 NA
ATOM      6  C11 UNL     1     151.534 157.817 159.616  0.00  0.00    +0.255 A 
ATOM      7  N3  UNL     1     151.649 156.819 160.465  0.00  0.00    -0.194 NA
ATOM      8  C12 UNL     1     151.353 155.721 159.715  0.00  0.00    +0.151 A 
ATOM      9  C13 UNL     1     151.351 154.358 160.281  0.00  0.00    +0.090 C 
ATOM     10  N4  UNL     1     151.060 155.961 158.437  0.00  0.00    -0.147 NA
ATOM     11  N5  UNL     1     151.191 157.313 158.350  0.00  0.00    -0.182 N 
ENDROOT
BRANCH   1  12
ATOM     12  N1  UNL     1     150.636 157.677 155.996  0.00  0.00    -0.299 N 
ATOM     13  H8  UNL     1     149.919 158.224 155.526  0.00  0.00    +0.154 HD
BRANCH  12  17
ATOM     14  C3  UNL     1     153.203 156.115 152.989  0.00  0.00    -0.048 A 
ATOM     15  C4  UNL     1     152.963 157.487 153.106  0.00  0.00    +0.005 A 
ATOM     16  C5  UNL     1     152.115 157.973 154.106  0.00  0.00    +0.023 A 
ATOM     17  C6  UNL     1     151.499 157.108 155.025  0.00  0.00    +0.032 A 
ATOM     18  C14 UNL     1     151.736 155.737 154.891  0.00  0.00    +0.023 A 
ATOM     19  C15 UNL     1     152.584 155.246 153.892  0.00  0.00    +0.005 A 
BRANCH  14  21
ATOM     20  C1  UNL     1     153.400 155.387 150.598  0.00  0.00    +0.009 C 
ATOM     21  C2  UNL     1     154.124 155.585 151.920  0.00  0.00    +0.032 C 
ENDBRANCH  14  21
ENDBRANCH  12  17
ENDBRANCH   1  12
TORSDOF 3
ENDMDL
MODEL 4
REMARK VINA RESULT:    -7.652      1.517      3.585
REMARK INTER + INTRA:          -9.512
REMARK INTER:                  -9.040
REMARK INTRA:                  -0.472
REMARK UNBOUND:                -0.517
REMARK  Name = /home/vital/Documents/PhD_2021/Malaria_codes/data/pdb_ligands_mmv/ligand_180.pdb
REMARK  6 active torsions:
REMARK  status: ('A' for Active; 'I' for Inactive)
REMARK    1  A    between atoms: C1_1  and  C2_2
REMARK    2  A    between atoms: C2_2  and  C3_3
REMARK    3  A    between atoms: C6_6  and  N1_7
REMARK    4  A    between atoms: N1_7  and  C7_8
REMARK    5  A    between atoms: C9_10  and  C10_11
REMARK    6  A    between atoms: C12_15  and  C13_16
REMARK                            x       y       z     vdW  Elec       q    Type
REMARK                         _______ _______ _______ _____ _____    ______ ____
ROOT
ATOM      1  C7  UNL     1     151.018 158.218 158.506  0.00  0.00    +0.130 A 
ATOM      2  C8  UNL     1     151.384 157.393 159.507  0.00  0.00    +0.067 A 
ATOM      3  C9  UNL     1     152.036 158.009 160.701  0.00  0.00    +0.045 A 
ATOM      4  C10 UNL     1     152.400 157.086 161.839  0.00  0.00    +0.066 C 
ATOM      5  N2  UNL     1     152.310 159.271 160.837  0.00  0.00    -0.216 NA
ATOM      6  C11 UNL     1     151.977 160.082 159.792  0.00  0.00    +0.255 A 
ATOM      7  N3  UNL     1     152.171 161.376 159.669  0.00  0.00    -0.194 NA
ATOM      8  C12 UNL     1     151.677 161.661 158.432  0.00  0.00    +0.151 A 
ATOM      9  C13 UNL     1     151.700 163.025 157.870  0.00  0.00    +0.090 C 
ATOM     10  N4  UNL     1     151.177 160.623 157.761  0.00  0.00    -0.147 NA
ATOM     11  N5  UNL     1     151.345 159.593 158.636  0.00  0.00    -0.182 N 
ENDROOT
BRANCH   1  12
ATOM     12  N1  UNL     1     150.416 157.737 157.343  0.00  0.00    -0.299 N 
ATOM     13  H8  UNL     1     149.561 158.225 157.090  0.00  0.00    +0.154 HD
BRANCH  12  17
ATOM     14  C3  UNL     1     152.350 156.615 153.727  0.00  0.00    -0.048 A 
ATOM     15  C4  UNL     1     152.097 157.955 154.038  0.00  0.00    +0.005 A 
ATOM     16  C5  UNL     1     151.461 158.295 155.235  0.00  0.00    +0.023 A 
ATOM     17  C6  UNL     1     151.076 157.313 156.162  0.00  0.00    +0.032 A 
ATOM     18  C14 UNL     1     151.322 155.975 155.837  0.00  0.00    +0.023 A 
ATOM     19  C15 UNL     1     151.959 155.630 154.639  0.00  0.00    +0.005 A 
BRANCH  14  21
ATOM     20  C1  UNL     1     152.065 156.111 151.288  0.00  0.00    +0.009 C 
ATOM     21  C2  UNL     1     153.045 156.242 152.444  0.00  0.00    +0.032 C 
ENDBRANCH  14  21
ENDBRANCH  12  17
ENDBRANCH   1  12
TORSDOF 3
ENDMDL
MODEL 5
REMARK VINA RESULT:    -7.651      0.954      3.258
REMARK INTER + INTRA:          -9.510
REMARK INTER:                  -8.968
REMARK INTRA:                  -0.542
REMARK UNBOUND:                -0.517
REMARK  Name = /home/vital/Documents/PhD_2021/Malaria_codes/data/pdb_ligands_mmv/ligand_180.pdb
REMARK  6 active torsions:
REMARK  status: ('A' for Active; 'I' for Inactive)
REMARK    1  A    between atoms: C1_1  and  C2_2
REMARK    2  A    between atoms: C2_2  and  C3_3
REMARK    3  A    between atoms: C6_6  and  N1_7
REMARK    4  A    between atoms: N1_7  and  C7_8
REMARK    5  A    between atoms: C9_10  and  C10_11
REMARK    6  A    between atoms: C12_15  and  C13_16
REMARK                            x       y       z     vdW  Elec       q    Type
REMARK                         _______ _______ _______ _____ _____    ______ ____
ROOT
ATOM      1  C7  UNL     1     150.721 156.897 157.940  0.00  0.00    +0.130 A 
ATOM      2  C8  UNL     1     150.900 155.739 158.605  0.00  0.00    +0.067 A 
ATOM      3  C9  UNL     1     151.328 155.825 160.033  0.00  0.00    +0.045 A 
ATOM      4  C10 UNL     1     151.480 154.525 160.785  0.00  0.00    +0.066 C 
ATOM      5  N2  UNL     1     151.577 156.925 160.675  0.00  0.00    -0.216 NA
ATOM      6  C11 UNL     1     151.439 158.085 159.971  0.00  0.00    +0.255 A 
ATOM      7  N3  UNL     1     151.654 159.317 160.376  0.00  0.00    -0.194 NA
ATOM      8  C12 UNL     1     151.391 160.071 159.272  0.00  0.00    +0.151 A 
ATOM      9  C13 UNL     1     151.518 161.541 159.274  0.00  0.00    +0.090 C 
ATOM     10  N4  UNL     1     151.017 159.391 158.188  0.00  0.00    -0.147 NA
ATOM     11  N5  UNL     1     151.023 158.102 158.628  0.00  0.00    -0.182 N 
ENDROOT
BRANCH   1  12
ATOM     12  N1  UNL     1     150.337 156.922 156.599  0.00  0.00    -0.299 N 
ATOM     13  H8  UNL     1     149.622 157.613 156.389  0.00  0.00    +0.154 HD
BRANCH  12  17
ATOM     14  C3  UNL     1     152.843 156.639 153.177  0.00  0.00    -0.048 A 
ATOM     15  C4  UNL     1     152.505 157.874 153.737  0.00  0.00    +0.005 A 
ATOM     16  C5  UNL     1     151.680 157.937 154.864  0.00  0.00    +0.023 A 
ATOM     17  C6  UNL     1     151.185 156.773 155.473  0.00  0.00    +0.032 A 
ATOM     18  C14 UNL     1     151.519 155.543 154.898  0.00  0.00    +0.023 A 
ATOM     19  C15 UNL     1     152.345 155.475 153.770  0.00  0.00    +0.005 A 
BRANCH  14  21
ATOM     20  C1  UNL     1     153.237 155.548 150.955  0.00  0.00    +0.009 C 
ATOM     21  C2  UNL     1     153.741 156.562 151.969  0.00  0.00    +0.032 C 
ENDBRANCH  14  21
ENDBRANCH  12  17
ENDBRANCH   1  12
TORSDOF 3
ENDMDL
MODEL 6
REMARK VINA RESULT:    -7.087      2.254      7.320
REMARK INTER + INTRA:          -8.848
REMARK INTER:                  -8.436
REMARK INTRA:                  -0.412
REMARK UNBOUND:                -0.517
REMARK  Name = /home/vital/Documents/PhD_2021/Malaria_codes/data/pdb_ligands_mmv/ligand_180.pdb
REMARK  6 active torsions:
REMARK  status: ('A' for Active; 'I' for Inactive)
REMARK    1  A    between atoms: C1_1  and  C2_2
REMARK    2  A    between atoms: C2_2  and  C3_3
REMARK    3  A    between atoms: C6_6  and  N1_7
REMARK    4  A    between atoms: N1_7  and  C7_8
REMARK    5  A    between atoms: C9_10  and  C10_11
REMARK    6  A    between atoms: C12_15  and  C13_16
REMARK                            x       y       z     vdW  Elec       q    Type
REMARK                         _______ _______ _______ _____ _____    ______ ____
ROOT
ATOM      1  C7  UNL     1     150.919 158.025 158.280  0.00  0.00    +0.130 A 
ATOM      2  C8  UNL     1     150.689 157.025 159.153  0.00  0.00    +0.067 A 
ATOM      3  C9  UNL     1     151.132 155.653 158.760  0.00  0.00    +0.045 A 
ATOM      4  C10 UNL     1     150.914 154.546 159.764  0.00  0.00    +0.066 C 
ATOM      5  N2  UNL     1     151.688 155.342 157.630  0.00  0.00    -0.216 NA
ATOM      6  C11 UNL     1     151.867 156.359 156.739  0.00  0.00    +0.255 A 
ATOM      7  N3  UNL     1     152.376 156.303 155.528  0.00  0.00    -0.194 NA
ATOM      8  C12 UNL     1     152.291 157.588 155.083  0.00  0.00    +0.151 A 
ATOM      9  C13 UNL     1     152.750 157.987 153.738  0.00  0.00    +0.090 C 
ATOM     10  N4  UNL     1     151.761 158.459 155.941  0.00  0.00    -0.147 NA
ATOM     11  N5  UNL     1     151.498 157.683 157.029  0.00  0.00    -0.182 N 
ENDROOT
BRANCH   1  12
ATOM     12  N1  UNL     1     150.529 159.337 158.549  0.00  0.00    -0.299 N 
ATOM     13  H8  UNL     1     149.590 159.560 158.230  0.00  0.00    +0.154 HD
BRANCH  12  17
ATOM     14  C3  UNL     1     151.207 161.564 162.105  0.00  0.00    -0.048 A 
ATOM     15  C4  UNL     1     150.060 160.783 161.938  0.00  0.00    +0.005 A 
ATOM     16  C5  UNL     1     149.863 160.060 160.757  0.00  0.00    +0.023 A 
ATOM     17  C6  UNL     1     150.812 160.080 159.722  0.00  0.00    +0.032 A 
ATOM     18  C14 UNL     1     151.950 160.873 159.895  0.00  0.00    +0.023 A 
ATOM     19  C15 UNL     1     152.151 161.599 161.075  0.00  0.00    +0.005 A 
BRANCH  14  21
ATOM     20  C1  UNL     1     152.322 161.581 164.351  0.00  0.00    +0.009 C 
ATOM     21  C2  UNL     1     151.431 162.338 163.379  0.00  0.00    +0.032 C 
ENDBRANCH  14  21
ENDBRANCH  12  17
ENDBRANCH   1  12
TORSDOF 3
ENDMDL
MODEL 7
REMARK VINA RESULT:    -6.913      1.381      3.454
REMARK INTER + INTRA:          -8.643
REMARK INTER:                  -8.159
REMARK INTRA:                  -0.484
REMARK UNBOUND:                -0.517
REMARK  Name = /home/vital/Documents/PhD_2021/Malaria_codes/data/pdb_ligands_mmv/ligand_180.pdb
REMARK  6 active torsions:
REMARK  status: ('A' for Active; 'I' for Inactive)
REMARK    1  A    between atoms: C1_1  and  C2_2
REMARK    2  A    between atoms: C2_2  and  C3_3
REMARK    3  A    between atoms: C6_6  and  N1_7
REMARK    4  A    between atoms: N1_7  and  C7_8
REMARK    5  A    between atoms: C9_10  and  C10_11
REMARK    6  A    between atoms: C12_15  and  C13_16
REMARK                            x       y       z     vdW  Elec       q    Type
REMARK                         _______ _______ _______ _____ _____    ______ ____
ROOT
ATOM      1  C7  UNL     1     150.776 156.660 158.719  0.00  0.00    +0.130 A 
ATOM      2  C8  UNL     1     151.127 155.469 159.243  0.00  0.00    +0.067 A 
ATOM      3  C9  UNL     1     151.569 155.449 160.670  0.00  0.00    +0.045 A 
ATOM      4  C10 UNL     1     151.915 154.105 161.264  0.00  0.00    +0.066 C 
ATOM      5  N2  UNL     1     151.675 156.492 161.435  0.00  0.00    -0.216 NA
ATOM      6  C11 UNL     1     151.363 157.694 160.872  0.00  0.00    +0.255 A 
ATOM      7  N3  UNL     1     151.414 158.889 161.418  0.00  0.00    -0.194 NA
ATOM      8  C12 UNL     1     151.026 159.721 160.411  0.00  0.00    +0.151 A 
ATOM      9  C13 UNL     1     150.948 161.184 160.585  0.00  0.00    +0.090 C 
ATOM     10  N4  UNL     1     150.728 159.125 159.257  0.00  0.00    -0.147 NA
ATOM     11  N5  UNL     1     150.922 157.807 159.542  0.00  0.00    -0.182 N 
ENDROOT
BRANCH   1  12
ATOM     12  N1  UNL     1     150.364 156.785 157.392  0.00  0.00    -0.299 N 
ATOM     13  H8  UNL     1     149.778 157.596 157.218  0.00  0.00    +0.154 HD
BRANCH  12  17
ATOM     14  C3  UNL     1     152.679 156.145 153.885  0.00  0.00    -0.048 A 
ATOM     15  C4  UNL     1     152.559 157.412 154.462  0.00  0.00    +0.005 A 
ATOM     16  C5  UNL     1     151.792 157.593 155.617  0.00  0.00    +0.023 A 
ATOM     17  C6  UNL     1     151.140 156.515 156.237  0.00  0.00    +0.032 A 
ATOM     18  C14 UNL     1     151.257 155.254 155.645  0.00  0.00    +0.023 A 
ATOM     19  C15 UNL     1     152.024 155.068 154.489  0.00  0.00    +0.005 A 
BRANCH  14  21
ATOM     20  C1  UNL     1     152.650 155.769 151.406  0.00  0.00    +0.009 C 
ATOM     21  C2  UNL     1     153.513 155.940 152.646  0.00  0.00    +0.032 C 
ENDBRANCH  14  21
ENDBRANCH  12  17
ENDBRANCH   1  12
TORSDOF 3
ENDMDL
MODEL 8
REMARK VINA RESULT:    -6.649      2.585      7.330
REMARK INTER + INTRA:          -8.333
REMARK INTER:                  -7.825
REMARK INTRA:                  -0.508
REMARK UNBOUND:                -0.517
REMARK  Name = /home/vital/Documents/PhD_2021/Malaria_codes/data/pdb_ligands_mmv/ligand_180.pdb
REMARK  6 active torsions:
REMARK  status: ('A' for Active; 'I' for Inactive)
REMARK    1  A    between atoms: C1_1  and  C2_2
REMARK    2  A    between atoms: C2_2  and  C3_3
REMARK    3  A    between atoms: C6_6  and  N1_7
REMARK    4  A    between atoms: N1_7  and  C7_8
REMARK    5  A    between atoms: C9_10  and  C10_11
REMARK    6  A    between atoms: C12_15  and  C13_16
REMARK                            x       y       z     vdW  Elec       q    Type
REMARK                         _______ _______ _______ _____ _____    ______ ____
ROOT
ATOM      1  C7  UNL     1     151.423 156.380 159.758  0.00  0.00    +0.130 A 
ATOM      2  C8  UNL     1     151.379 157.568 160.392  0.00  0.00    +0.067 A 
ATOM      3  C9  UNL     1     151.260 158.794 159.546  0.00  0.00    +0.045 A 
ATOM      4  C10 UNL     1     151.164 160.119 160.264  0.00  0.00    +0.066 C 
ATOM      5  N2  UNL     1     151.231 158.808 158.249  0.00  0.00    -0.216 NA
ATOM      6  C11 UNL     1     151.326 157.599 157.625  0.00  0.00    +0.255 A 
ATOM      7  N3  UNL     1     151.348 157.345 156.335  0.00  0.00    -0.194 NA
ATOM      8  C12 UNL     1     151.482 155.991 156.274  0.00  0.00    +0.151 A 
ATOM      9  C13 UNL     1     151.560 155.264 154.992  0.00  0.00    +0.090 C 
ATOM     10  N4  UNL     1     151.543 155.367 157.451  0.00  0.00    -0.147 NA
ATOM     11  N5  UNL     1     151.423 156.392 158.339  0.00  0.00    -0.182 N 
ENDROOT
BRANCH   1  12
ATOM     12  N1  UNL     1     151.548 155.180 160.459  0.00  0.00    -0.299 N 
ATOM     13  H8  UNL     1     152.473 155.029 160.853  0.00  0.00    +0.154 HD
BRANCH  12  17
ATOM     14  C3  UNL     1     148.764 153.385 163.123  0.00  0.00    -0.048 A 
ATOM     15  C4  UNL     1     149.968 153.930 163.580  0.00  0.00    +0.005 A 
ATOM     16  C5  UNL     1     150.865 154.516 162.680  0.00  0.00    +0.023 A 
ATOM     17  C6  UNL     1     150.578 154.590 161.308  0.00  0.00    +0.032 A 
ATOM     18  C14 UNL     1     149.377 154.032 160.860  0.00  0.00    +0.023 A 
ATOM     19  C15 UNL     1     148.476 153.444 161.757  0.00  0.00    +0.005 A 
BRANCH  14  21
ATOM     20  C1  UNL     1     147.474 151.321 163.720  0.00  0.00    +0.009 C 
ATOM     21  C2  UNL     1     147.788 152.762 164.087  0.00  0.00    +0.032 C 
ENDBRANCH  14  21
ENDBRANCH  12  17
ENDBRANCH   1  12
TORSDOF 3
ENDMDL
MODEL 9
REMARK VINA RESULT:    -6.590      3.775      6.623
REMARK INTER + INTRA:          -8.264
REMARK INTER:                  -7.748
REMARK INTRA:                  -0.515
REMARK UNBOUND:                -0.517
REMARK  Name = /home/vital/Documents/PhD_2021/Malaria_codes/data/pdb_ligands_mmv/ligand_180.pdb
REMARK  6 active torsions:
REMARK  status: ('A' for Active; 'I' for Inactive)
REMARK    1  A    between atoms: C1_1  and  C2_2
REMARK    2  A    between atoms: C2_2  and  C3_3
REMARK    3  A    between atoms: C6_6  and  N1_7
REMARK    4  A    between atoms: N1_7  and  C7_8
REMARK    5  A    between atoms: C9_10  and  C10_11
REMARK    6  A    between atoms: C12_15  and  C13_16
REMARK                            x       y       z     vdW  Elec       q    Type
REMARK                         _______ _______ _______ _____ _____    ______ ____
ROOT
ATOM      1  C7  UNL     1     150.488 154.901 162.576  0.00  0.00    +0.130 A 
ATOM      2  C8  UNL     1     149.546 153.978 162.297  0.00  0.00    +0.067 A 
ATOM      3  C9  UNL     1     148.572 153.640 163.378  0.00  0.00    +0.045 A 
ATOM      4  C10 UNL     1     147.491 152.641 163.043  0.00  0.00    +0.066 C 
ATOM      5  N2  UNL     1     148.582 154.139 164.576  0.00  0.00    -0.216 NA
ATOM      6  C11 UNL     1     149.572 155.034 164.855  0.00  0.00    +0.255 A 
ATOM      7  N3  UNL     1     149.816 155.655 165.988  0.00  0.00    -0.194 NA
ATOM      8  C12 UNL     1     150.925 156.399 165.716  0.00  0.00    +0.151 A 
ATOM      9  C13 UNL     1     151.562 157.262 166.730  0.00  0.00    +0.090 C 
ATOM     10  N4  UNL     1     151.398 156.291 164.475  0.00  0.00    -0.147 NA
ATOM     11  N5  UNL     1     150.522 155.425 163.896  0.00  0.00    -0.182 N 
ENDROOT
BRANCH   1  12
ATOM     12  N1  UNL     1     151.451 155.273 161.638  0.00  0.00    -0.299 N 
ATOM     13  H8  UNL     1     152.273 154.674 161.635  0.00  0.00    +0.154 HD
BRANCH  12  17
ATOM     14  C3  UNL     1     150.632 156.811 157.762  0.00  0.00    -0.048 A 
ATOM     15  C4  UNL     1     150.423 157.576 158.912  0.00  0.00    +0.005 A 
ATOM     16  C5  UNL     1     150.703 157.045 160.175  0.00  0.00    +0.023 A 
ATOM     17  C6  UNL     1     151.214 155.746 160.324  0.00  0.00    +0.032 A 
ATOM     18  C14 UNL     1     151.408 154.984 159.167  0.00  0.00    +0.023 A 
ATOM     19  C15 UNL     1     151.130 155.512 157.901  0.00  0.00    +0.005 A 
BRANCH  14  21
ATOM     20  C1  UNL     1     151.617 157.607 155.598  0.00  0.00    +0.009 C 
ATOM     21  C2  UNL     1     150.343 157.380 156.396  0.00  0.00    +0.032 C 
ENDBRANCH  14  21
ENDBRANCH  12  17
ENDBRANCH   1  12
TORSDOF 3
ENDMDL
