MODEL 1
REMARK VINA RESULT:    -7.859      0.000      0.000
REMARK INTER + INTRA:         -11.343
REMARK INTER:                 -10.616
REMARK INTRA:                  -0.727
REMARK UNBOUND:                -0.727
REMARK  Name = /home/vital/Documents/PhD_2021/Malaria_codes/data/pdb_ligands_mmv/ligand_141.pdb
REMARK  7 active torsions:
REMARK  status: ('A' for Active; 'I' for Inactive)
REMARK    1  A    between atoms: C1_1  and  C2_2
REMARK    2  A    between atoms: C2_2  and  C3_3
REMARK    3  A    between atoms: C3_3  and  C4_4
REMARK    4  A    between atoms: C4_4  and  N1_5
REMARK    5  A    between atoms: C4_4  and  C14_18
REMARK    6  A    between atoms: C9_11  and  C10_13
REMARK    7  A    between atoms: N6_22  and  C15_23
REMARK                            x       y       z     vdW  Elec       q    Type
REMARK                         _______ _______ _______ _____ _____    ______ ____
ROOT
ATOM      1  C4  UNL     1     151.466 156.812 159.852  0.00  0.00    +0.127 C 
ENDROOT
BRANCH   1   2
ATOM      2  N1  UNL     1     151.362 157.314 161.240  0.00  0.00    -0.290 NA
ATOM      3  C5  UNL     1     151.961 158.638 161.485  0.00  0.00    +0.104 C 
ATOM      4  C6  UNL     1     151.653 159.145 162.911  0.00  0.00    +0.123 C 
ATOM      5  N2  UNL     1     152.001 158.169 163.949  0.00  0.00    -0.293 N 
ATOM      6  C7  UNL     1     151.605 156.789 163.673  0.00  0.00    +0.123 C 
ATOM      7  C8  UNL     1     151.901 156.353 162.229  0.00  0.00    +0.104 C 
ATOM      8  C9  UNL     1     152.389 158.493 165.255  0.00  0.00    +0.282 C 
ATOM      9  O1  UNL     1     152.703 157.608 166.055  0.00  0.00    -0.267 OA
BRANCH   8  10
ATOM     10  C10 UNL     1     152.382 159.891 165.646  0.00  0.00    +0.189 A 
ATOM     11  O2  UNL     1     151.218 160.430 166.131  0.00  0.00    -0.458 OA
ATOM     12  C11 UNL     1     151.444 161.741 166.377  0.00  0.00    +0.196 A 
ATOM     13  C12 UNL     1     152.734 162.076 166.048  0.00  0.00    +0.042 A 
ATOM     14  C13 UNL     1     153.339 160.884 165.576  0.00  0.00    +0.054 A 
ENDBRANCH   8  10
ENDBRANCH   1   2
BRANCH   1  15
ATOM     15  C14 UNL     1     150.689 157.585 158.817  0.00  0.00    +0.169 A 
ATOM     16  N3  UNL     1     149.643 158.369 158.998  0.00  0.00    -0.112 NA
ATOM     17  N4  UNL     1     149.323 158.890 157.772  0.00  0.00    -0.023 NA
ATOM     18  N5  UNL     1     150.143 158.436 156.838  0.00  0.00    -0.044 NA
ATOM     19  N6  UNL     1     150.968 157.585 157.471  0.00  0.00    -0.225 N 
BRANCH  19  20
ATOM     20  C15 UNL     1     151.975 156.839 156.732  0.00  0.00    +0.111 C 
ATOM     21  C16 UNL     1     151.534 155.403 156.374  0.00  0.00    +0.027 C 
ATOM     22  C17 UNL     1     151.124 155.268 154.910  0.00  0.00    +0.002 C 
ATOM     23  C18 UNL     1     152.253 155.662 153.958  0.00  0.00    +0.000 C 
ATOM     24  C19 UNL     1     153.176 156.747 154.512  0.00  0.00    +0.002 C 
ATOM     25  C20 UNL     1     152.455 157.645 155.512  0.00  0.00    +0.027 C 
ENDBRANCH  19  20
ENDBRANCH   1  15
BRANCH   1  26
ATOM     26  C3  UNL     1     151.147 155.303 159.716  0.00  0.00    +0.026 C 
BRANCH  26  28
ATOM     27  C1  UNL     1     149.409 153.866 160.923  0.00  0.00    +0.004 C 
ATOM     28  C2  UNL     1     149.667 154.926 159.858  0.00  0.00    -0.001 C 
ENDBRANCH  26  28
ENDBRANCH   1  26
TORSDOF 6
ENDMDL
MODEL 2
REMARK VINA RESULT:    -7.844      4.030      8.785
REMARK INTER + INTRA:         -11.323
REMARK INTER:                 -10.804
REMARK INTRA:                  -0.519
REMARK UNBOUND:                -0.727
REMARK  Name = /home/vital/Documents/PhD_2021/Malaria_codes/data/pdb_ligands_mmv/ligand_141.pdb
REMARK  7 active torsions:
REMARK  status: ('A' for Active; 'I' for Inactive)
REMARK    1  A    between atoms: C1_1  and  C2_2
REMARK    2  A    between atoms: C2_2  and  C3_3
REMARK    3  A    between atoms: C3_3  and  C4_4
REMARK    4  A    between atoms: C4_4  and  N1_5
REMARK    5  A    between atoms: C4_4  and  C14_18
REMARK    6  A    between atoms: C9_11  and  C10_13
REMARK    7  A    between atoms: N6_22  and  C15_23
REMARK                            x       y       z     vdW  Elec       q    Type
REMARK                         _______ _______ _______ _____ _____    ______ ____
ROOT
ATOM      1  C4  UNL     1     150.728 155.436 161.222  0.00  0.00    +0.127 C 
ENDROOT
BRANCH   1   2
ATOM      2  N1  UNL     1     150.731 155.856 159.803  0.00  0.00    -0.290 NA
ATOM      3  C5  UNL     1     151.731 155.195 158.945  0.00  0.00    +0.104 C 
ATOM      4  C6  UNL     1     151.542 155.572 157.460  0.00  0.00    +0.123 C 
ATOM      5  N2  UNL     1     151.486 157.022 157.243  0.00  0.00    -0.293 N 
ATOM      6  C7  UNL     1     150.659 157.767 158.190  0.00  0.00    +0.123 C 
ATOM      7  C8  UNL     1     150.861 157.322 159.649  0.00  0.00    +0.104 C 
ATOM      8  C9  UNL     1     151.894 157.673 156.073  0.00  0.00    +0.282 C 
ATOM      9  O1  UNL     1     151.849 158.902 155.990  0.00  0.00    -0.267 OA
BRANCH   8  10
ATOM     10  C10 UNL     1     152.343 156.861 154.956  0.00  0.00    +0.189 A 
ATOM     11  O2  UNL     1     153.526 157.186 154.345  0.00  0.00    -0.458 OA
ATOM     12  C11 UNL     1     153.705 156.326 153.314  0.00  0.00    +0.196 A 
ATOM     13  C12 UNL     1     152.651 155.451 153.230  0.00  0.00    +0.042 A 
ATOM     14  C13 UNL     1     151.771 155.796 154.289  0.00  0.00    +0.054 A 
ENDBRANCH   8  10
ENDBRANCH   1   2
BRANCH   1  15
ATOM     15  C14 UNL     1     149.493 154.707 161.686  0.00  0.00    +0.169 A 
ATOM     16  N3  UNL     1     148.331 154.593 161.070  0.00  0.00    -0.112 NA
ATOM     17  N4  UNL     1     147.544 153.795 161.856  0.00  0.00    -0.023 NA
ATOM     18  N5  UNL     1     148.192 153.422 162.948  0.00  0.00    -0.044 NA
ATOM     19  N6  UNL     1     149.390 154.024 162.874  0.00  0.00    -0.225 N 
BRANCH  19  20
ATOM     20  C15 UNL     1     150.357 153.888 163.953  0.00  0.00    +0.111 C 
ATOM     21  C16 UNL     1     150.071 154.818 165.153  0.00  0.00    +0.027 C 
ATOM     22  C17 UNL     1     149.448 154.073 166.331  0.00  0.00    +0.002 C 
ATOM     23  C18 UNL     1     150.338 152.932 166.824  0.00  0.00    +0.000 C 
ATOM     24  C19 UNL     1     151.177 152.284 165.723  0.00  0.00    +0.002 C 
ATOM     25  C20 UNL     1     150.511 152.412 164.357  0.00  0.00    +0.027 C 
ENDBRANCH  19  20
ENDBRANCH   1  15
BRANCH   1  26
ATOM     26  C3  UNL     1     151.048 156.588 162.206  0.00  0.00    +0.026 C 
BRANCH  26  28
ATOM     27  C1  UNL     1     152.623 157.448 164.028  0.00  0.00    +0.004 C 
ATOM     28  C2  UNL     1     152.473 156.592 162.775  0.00  0.00    -0.001 C 
ENDBRANCH  26  28
ENDBRANCH   1  26
TORSDOF 6
ENDMDL
MODEL 3
REMARK VINA RESULT:    -7.739      3.029      8.618
REMARK INTER + INTRA:         -11.181
REMARK INTER:                 -10.104
REMARK INTRA:                  -1.077
REMARK UNBOUND:                -0.727
REMARK  Name = /home/vital/Documents/PhD_2021/Malaria_codes/data/pdb_ligands_mmv/ligand_141.pdb
REMARK  7 active torsions:
REMARK  status: ('A' for Active; 'I' for Inactive)
REMARK    1  A    between atoms: C1_1  and  C2_2
REMARK    2  A    between atoms: C2_2  and  C3_3
REMARK    3  A    between atoms: C3_3  and  C4_4
REMARK    4  A    between atoms: C4_4  and  N1_5
REMARK    5  A    between atoms: C4_4  and  C14_18
REMARK    6  A    between atoms: C9_11  and  C10_13
REMARK    7  A    between atoms: N6_22  and  C15_23
REMARK                            x       y       z     vdW  Elec       q    Type
REMARK                         _______ _______ _______ _____ _____    ______ ____
ROOT
ATOM      1  C4  UNL     1     151.542 158.142 164.342  0.00  0.00    +0.127 C 
ENDROOT
BRANCH   1   2
ATOM      2  N1  UNL     1     151.655 157.620 162.962  0.00  0.00    -0.290 NA
ATOM      3  C5  UNL     1     151.202 158.533 161.897  0.00  0.00    +0.104 C 
ATOM      4  C6  UNL     1     151.516 157.970 160.495  0.00  0.00    +0.123 C 
ATOM      5  N2  UNL     1     151.025 156.600 160.309  0.00  0.00    -0.293 N 
ATOM      6  C7  UNL     1     151.271 155.687 161.423  0.00  0.00    +0.123 C 
ATOM      7  C8  UNL     1     150.977 156.315 162.795  0.00  0.00    +0.104 C 
ATOM      8  C9  UNL     1     150.632 156.050 159.082  0.00  0.00    +0.282 C 
ATOM      9  O1  UNL     1     150.193 154.899 159.021  0.00  0.00    -0.267 OA
BRANCH   8  10
ATOM     10  C10 UNL     1     150.784 156.859 157.887  0.00  0.00    +0.189 A 
ATOM     11  O2  UNL     1     151.839 156.602 157.051  0.00  0.00    -0.458 OA
ATOM     12  C11 UNL     1     151.797 157.507 156.045  0.00  0.00    +0.196 A 
ATOM     13  C12 UNL     1     150.740 158.364 156.215  0.00  0.00    +0.042 A 
ATOM     14  C13 UNL     1     150.085 157.948 157.403  0.00  0.00    +0.054 A 
ENDBRANCH   8  10
ENDBRANCH   1   2
BRANCH   1  15
ATOM     15  C14 UNL     1     152.316 159.404 164.630  0.00  0.00    +0.169 A 
ATOM     16  N3  UNL     1     153.622 159.586 164.600  0.00  0.00    -0.112 NA
ATOM     17  N4  UNL     1     153.843 160.908 164.879  0.00  0.00    -0.023 NA
ATOM     18  N5  UNL     1     152.701 161.543 165.089  0.00  0.00    -0.044 NA
ATOM     19  N6  UNL     1     151.747 160.604 164.982  0.00  0.00    -0.225 N 
BRANCH  19  20
ATOM     20  C15 UNL     1     150.350 160.935 165.220  0.00  0.00    +0.111 C 
ATOM     21  C16 UNL     1     149.972 160.962 166.718  0.00  0.00    +0.027 C 
ATOM     22  C17 UNL     1     149.850 162.383 167.261  0.00  0.00    +0.002 C 
ATOM     23  C18 UNL     1     148.807 163.202 166.501  0.00  0.00    +0.000 C 
ATOM     24  C19 UNL     1     148.672 162.814 165.029  0.00  0.00    +0.002 C 
ATOM     25  C20 UNL     1     149.968 162.228 164.478  0.00  0.00    +0.027 C 
ENDBRANCH  19  20
ENDBRANCH   1  15
BRANCH   1  26
ATOM     26  C3  UNL     1     151.856 157.085 165.428  0.00  0.00    +0.026 C 
BRANCH  26  28
ATOM     27  C1  UNL     1     152.482 157.615 167.851  0.00  0.00    +0.004 C 
ATOM     28  C2  UNL     1     151.358 157.420 166.840  0.00  0.00    -0.001 C 
ENDBRANCH  26  28
ENDBRANCH   1  26
TORSDOF 6
ENDMDL
MODEL 4
REMARK VINA RESULT:    -7.652      3.069      9.174
REMARK INTER + INTRA:         -11.063
REMARK INTER:                 -10.424
REMARK INTRA:                  -0.639
REMARK UNBOUND:                -0.727
REMARK  Name = /home/vital/Documents/PhD_2021/Malaria_codes/data/pdb_ligands_mmv/ligand_141.pdb
REMARK  7 active torsions:
REMARK  status: ('A' for Active; 'I' for Inactive)
REMARK    1  A    between atoms: C1_1  and  C2_2
REMARK    2  A    between atoms: C2_2  and  C3_3
REMARK    3  A    between atoms: C3_3  and  C4_4
REMARK    4  A    between atoms: C4_4  and  N1_5
REMARK    5  A    between atoms: C4_4  and  C14_18
REMARK    6  A    between atoms: C9_11  and  C10_13
REMARK    7  A    between atoms: N6_22  and  C15_23
REMARK                            x       y       z     vdW  Elec       q    Type
REMARK                         _______ _______ _______ _____ _____    ______ ____
ROOT
ATOM      1  C4  UNL     1     151.374 159.599 163.365  0.00  0.00    +0.127 C 
ENDROOT
BRANCH   1   2
ATOM      2  N1  UNL     1     150.916 159.001 162.091  0.00  0.00    -0.290 NA
ATOM      3  C5  UNL     1     151.981 158.484 161.213  0.00  0.00    +0.104 C 
ATOM      4  C6  UNL     1     151.398 157.732 159.997  0.00  0.00    +0.123 C 
ATOM      5  N2  UNL     1     150.399 158.520 159.266  0.00  0.00    -0.293 N 
ATOM      6  C7  UNL     1     149.424 159.223 160.097  0.00  0.00    +0.123 C 
ATOM      7  C8  UNL     1     150.057 159.920 161.312  0.00  0.00    +0.104 C 
ATOM      8  C9  UNL     1     150.134 158.405 157.896  0.00  0.00    +0.282 C 
ATOM      9  O1  UNL     1     149.302 159.135 157.353  0.00  0.00    -0.267 OA
BRANCH   8  10
ATOM     10  C10 UNL     1     150.844 157.386 157.143  0.00  0.00    +0.189 A 
ATOM     11  O2  UNL     1     151.985 157.742 156.473  0.00  0.00    -0.458 OA
ATOM     12  C11 UNL     1     152.434 156.648 155.814  0.00  0.00    +0.196 A 
ATOM     13  C12 UNL     1     151.596 155.583 156.028  0.00  0.00    +0.042 A 
ATOM     14  C13 UNL     1     150.569 156.057 156.884  0.00  0.00    +0.054 A 
ENDBRANCH   8  10
ENDBRANCH   1   2
BRANCH   1  15
ATOM     15  C14 UNL     1     151.438 158.661 164.543  0.00  0.00    +0.169 A 
ATOM     16  N3  UNL     1     151.049 157.402 164.606  0.00  0.00    -0.112 NA
ATOM     17  N4  UNL     1     151.359 156.955 165.863  0.00  0.00    -0.023 NA
ATOM     18  N5  UNL     1     151.924 157.915 166.579  0.00  0.00    -0.044 NA
ATOM     19  N6  UNL     1     151.934 158.995 165.780  0.00  0.00    -0.225 N 
BRANCH  19  20
ATOM     20  C15 UNL     1     152.432 160.273 166.266  0.00  0.00    +0.111 C 
ATOM     21  C16 UNL     1     152.212 160.481 167.781  0.00  0.00    +0.027 C 
ATOM     22  C17 UNL     1     153.491 160.277 168.589  0.00  0.00    +0.002 C 
ATOM     23  C18 UNL     1     154.607 161.222 168.145  0.00  0.00    +0.000 C 
ATOM     24  C19 UNL     1     154.558 161.580 166.660  0.00  0.00    +0.002 C 
ATOM     25  C20 UNL     1     153.895 160.481 165.836  0.00  0.00    +0.027 C 
ENDBRANCH  19  20
ENDBRANCH   1  15
BRANCH   1  26
ATOM     26  C3  UNL     1     150.590 160.874 163.763  0.00  0.00    +0.026 C 
BRANCH  26  28
ATOM     27  C1  UNL     1     151.062 163.265 164.540  0.00  0.00    +0.004 C 
ATOM     28  C2  UNL     1     151.300 162.203 163.472  0.00  0.00    -0.001 C 
ENDBRANCH  26  28
ENDBRANCH   1  26
TORSDOF 6
ENDMDL
MODEL 5
REMARK VINA RESULT:    -7.555      3.542      9.760
REMARK INTER + INTRA:         -10.932
REMARK INTER:                 -10.011
REMARK INTRA:                  -0.920
REMARK UNBOUND:                -0.727
REMARK  Name = /home/vital/Documents/PhD_2021/Malaria_codes/data/pdb_ligands_mmv/ligand_141.pdb
REMARK  7 active torsions:
REMARK  status: ('A' for Active; 'I' for Inactive)
REMARK    1  A    between atoms: C1_1  and  C2_2
REMARK    2  A    between atoms: C2_2  and  C3_3
REMARK    3  A    between atoms: C3_3  and  C4_4
REMARK    4  A    between atoms: C4_4  and  N1_5
REMARK    5  A    between atoms: C4_4  and  C14_18
REMARK    6  A    between atoms: C9_11  and  C10_13
REMARK    7  A    between atoms: N6_22  and  C15_23
REMARK                            x       y       z     vdW  Elec       q    Type
REMARK                         _______ _______ _______ _____ _____    ______ ____
ROOT
ATOM      1  C4  UNL     1     150.688 161.327 165.652  0.00  0.00    +0.127 C 
ENDROOT
BRANCH   1   2
ATOM      2  N1  UNL     1     151.157 160.731 164.382  0.00  0.00    -0.290 NA
ATOM      3  C5  UNL     1     150.269 160.925 163.222  0.00  0.00    +0.104 C 
ATOM      4  C6  UNL     1     150.921 160.420 161.917  0.00  0.00    +0.123 C 
ATOM      5  N2  UNL     1     151.414 159.042 162.024  0.00  0.00    -0.293 N 
ATOM      6  C7  UNL     1     152.141 158.729 163.252  0.00  0.00    +0.123 C 
ATOM      7  C8  UNL     1     151.465 159.290 164.514  0.00  0.00    +0.104 C 
ATOM      8  C9  UNL     1     151.505 158.139 160.958  0.00  0.00    +0.282 C 
ATOM      9  O1  UNL     1     151.896 156.985 161.144  0.00  0.00    -0.267 OA
BRANCH   8  10
ATOM     10  C10 UNL     1     151.154 158.608 159.629  0.00  0.00    +0.189 A 
ATOM     11  O2  UNL     1     152.079 159.337 158.927  0.00  0.00    -0.458 OA
ATOM     12  C11 UNL     1     151.511 159.699 157.752  0.00  0.00    +0.196 A 
ATOM     13  C12 UNL     1     150.223 159.231 157.678  0.00  0.00    +0.042 A 
ATOM     14  C13 UNL     1     149.991 158.528 158.888  0.00  0.00    +0.054 A 
ENDBRANCH   8  10
ENDBRANCH   1   2
BRANCH   1  15
ATOM     15  C14 UNL     1     150.410 160.353 166.768  0.00  0.00    +0.169 A 
ATOM     16  N3  UNL     1     149.336 159.611 166.957  0.00  0.00    -0.112 NA
ATOM     17  N4  UNL     1     149.572 158.850 168.071  0.00  0.00    -0.023 NA
ATOM     18  N5  UNL     1     150.765 159.115 168.579  0.00  0.00    -0.044 NA
ATOM     19  N6  UNL     1     151.275 160.084 167.802  0.00  0.00    -0.225 N 
BRANCH  19  20
ATOM     20  C15 UNL     1     152.569 160.676 168.107  0.00  0.00    +0.111 C 
ATOM     21  C16 UNL     1     152.468 162.093 168.714  0.00  0.00    +0.027 C 
ATOM     22  C17 UNL     1     152.704 162.099 170.222  0.00  0.00    +0.002 C 
ATOM     23  C18 UNL     1     154.073 161.529 170.591  0.00  0.00    +0.000 C 
ATOM     24  C19 UNL     1     154.570 160.448 169.632  0.00  0.00    +0.002 C 
ATOM     25  C20 UNL     1     153.415 159.714 168.960  0.00  0.00    +0.027 C 
ENDBRANCH  19  20
ENDBRANCH   1  15
BRANCH   1  26
ATOM     26  C3  UNL     1     149.474 162.273 165.478  0.00  0.00    +0.026 C 
BRANCH  26  28
ATOM     27  C1  UNL     1     147.821 163.048 167.269  0.00  0.00    +0.004 C 
ATOM     28  C2  UNL     1     149.203 163.223 166.652  0.00  0.00    -0.001 C 
ENDBRANCH  26  28
ENDBRANCH   1  26
TORSDOF 6
ENDMDL
MODEL 6
REMARK VINA RESULT:    -7.381      3.269      8.814
REMARK INTER + INTRA:         -10.697
REMARK INTER:                 -10.031
REMARK INTRA:                  -0.666
REMARK UNBOUND:                -0.727
REMARK  Name = /home/vital/Documents/PhD_2021/Malaria_codes/data/pdb_ligands_mmv/ligand_141.pdb
REMARK  7 active torsions:
REMARK  status: ('A' for Active; 'I' for Inactive)
REMARK    1  A    between atoms: C1_1  and  C2_2
REMARK    2  A    between atoms: C2_2  and  C3_3
REMARK    3  A    between atoms: C3_3  and  C4_4
REMARK    4  A    between atoms: C4_4  and  N1_5
REMARK    5  A    between atoms: C4_4  and  C14_18
REMARK    6  A    between atoms: C9_11  and  C10_13
REMARK    7  A    between atoms: N6_22  and  C15_23
REMARK                            x       y       z     vdW  Elec       q    Type
REMARK                         _______ _______ _______ _____ _____    ______ ____
ROOT
ATOM      1  C4  UNL     1     152.346 159.115 165.159  0.00  0.00    +0.127 C 
ENDROOT
BRANCH   1   2
ATOM      2  N1  UNL     1     151.679 158.780 163.882  0.00  0.00    -0.290 NA
ATOM      3  C5  UNL     1     152.463 157.946 162.954  0.00  0.00    +0.104 C 
ATOM      4  C6  UNL     1     151.623 157.512 161.733  0.00  0.00    +0.123 C 
ATOM      5  N2  UNL     1     150.971 158.641 161.061  0.00  0.00    -0.293 N 
ATOM      6  C7  UNL     1     150.337 159.618 161.944  0.00  0.00    +0.123 C 
ATOM      7  C8  UNL     1     151.204 159.983 163.162  0.00  0.00    +0.104 C 
ATOM      8  C9  UNL     1     150.658 158.689 159.697  0.00  0.00    +0.282 C 
ATOM      9  O1  UNL     1     150.144 159.696 159.205  0.00  0.00    -0.267 OA
BRANCH   8  10
ATOM     10  C10 UNL     1     150.929 157.514 158.889  0.00  0.00    +0.189 A 
ATOM     11  O2  UNL     1     151.549 157.680 157.678  0.00  0.00    -0.458 OA
ATOM     12  C11 UNL     1     151.648 156.462 157.095  0.00  0.00    +0.196 A 
ATOM     13  C12 UNL     1     151.090 155.500 157.898  0.00  0.00    +0.042 A 
ATOM     14  C13 UNL     1     150.625 156.177 159.055  0.00  0.00    +0.054 A 
ENDBRANCH   8  10
ENDBRANCH   1   2
BRANCH   1  15
ATOM     15  C14 UNL     1     151.567 158.792 166.409  0.00  0.00    +0.169 A 
ATOM     16  N3  UNL     1     150.973 159.626 167.240  0.00  0.00    -0.112 NA
ATOM     17  N4  UNL     1     150.350 158.862 168.191  0.00  0.00    -0.023 NA
ATOM     18  N5  UNL     1     150.557 157.573 167.969  0.00  0.00    -0.044 NA
ATOM     19  N6  UNL     1     151.353 157.522 166.888  0.00  0.00    -0.225 N 
BRANCH  19  20
ATOM     20  C15 UNL     1     151.844 156.246 166.388  0.00  0.00    +0.111 C 
ATOM     21  C16 UNL     1     152.890 155.586 167.314  0.00  0.00    +0.027 C 
ATOM     22  C17 UNL     1     152.302 154.437 168.130  0.00  0.00    +0.002 C 
ATOM     23  C18 UNL     1     151.710 153.345 167.239  0.00  0.00    +0.000 C 
ATOM     24  C19 UNL     1     151.136 153.867 165.922  0.00  0.00    +0.002 C 
ATOM     25  C20 UNL     1     150.670 155.314 166.044  0.00  0.00    +0.027 C 
ENDBRANCH  19  20
ENDBRANCH   1  15
BRANCH   1  26
ATOM     26  C3  UNL     1     152.848 160.578 165.228  0.00  0.00    +0.026 C 
BRANCH  26  28
ATOM     27  C1  UNL     1     154.160 161.683 167.125  0.00  0.00    +0.004 C 
ATOM     28  C2  UNL     1     154.213 160.778 165.900  0.00  0.00    -0.001 C 
ENDBRANCH  26  28
ENDBRANCH   1  26
TORSDOF 6
ENDMDL
MODEL 7
REMARK VINA RESULT:    -7.322      6.121      8.842
REMARK INTER + INTRA:         -10.617
REMARK INTER:                  -9.641
REMARK INTRA:                  -0.976
REMARK UNBOUND:                -0.727
REMARK  Name = /home/vital/Documents/PhD_2021/Malaria_codes/data/pdb_ligands_mmv/ligand_141.pdb
REMARK  7 active torsions:
REMARK  status: ('A' for Active; 'I' for Inactive)
REMARK    1  A    between atoms: C1_1  and  C2_2
REMARK    2  A    between atoms: C2_2  and  C3_3
REMARK    3  A    between atoms: C3_3  and  C4_4
REMARK    4  A    between atoms: C4_4  and  N1_5
REMARK    5  A    between atoms: C4_4  and  C14_18
REMARK    6  A    between atoms: C9_11  and  C10_13
REMARK    7  A    between atoms: N6_22  and  C15_23
REMARK                            x       y       z     vdW  Elec       q    Type
REMARK                         _______ _______ _______ _____ _____    ______ ____
ROOT
ATOM      1  C4  UNL     1     152.484 160.002 165.838  0.00  0.00    +0.127 C 
ENDROOT
BRANCH   1   2
ATOM      2  N1  UNL     1     152.483 158.553 166.139  0.00  0.00    -0.290 NA
ATOM      3  C5  UNL     1     151.344 157.791 165.598  0.00  0.00    +0.104 C 
ATOM      4  C6  UNL     1     151.520 156.274 165.818  0.00  0.00    +0.123 C 
ATOM      5  N2  UNL     1     151.814 155.932 167.214  0.00  0.00    -0.293 N 
ATOM      6  C7  UNL     1     152.802 156.782 167.875  0.00  0.00    +0.123 C 
ATOM      7  C8  UNL     1     152.599 158.279 167.589  0.00  0.00    +0.104 C 
ATOM      8  C9  UNL     1     151.466 154.725 167.834  0.00  0.00    +0.282 C 
ATOM      9  O1  UNL     1     151.718 154.534 169.025  0.00  0.00    -0.267 OA
BRANCH   8  10
ATOM     10  C10 UNL     1     150.830 153.698 167.028  0.00  0.00    +0.189 A 
ATOM     11  O2  UNL     1     149.461 153.680 166.952  0.00  0.00    -0.458 OA
ATOM     12  C11 UNL     1     149.106 152.617 166.193  0.00  0.00    +0.196 A 
ATOM     13  C12 UNL     1     150.219 151.928 165.782  0.00  0.00    +0.042 A 
ATOM     14  C13 UNL     1     151.332 152.624 166.320  0.00  0.00    +0.054 A 
ENDBRANCH   8  10
ENDBRANCH   1   2
BRANCH   1  15
ATOM     15  C14 UNL     1     151.807 160.403 164.552  0.00  0.00    +0.169 A 
ATOM     16  N3  UNL     1     152.121 160.054 163.320  0.00  0.00    -0.112 NA
ATOM     17  N4  UNL     1     151.185 160.622 162.497  0.00  0.00    -0.023 NA
ATOM     18  N5  UNL     1     150.306 161.323 163.196  0.00  0.00    -0.044 NA
ATOM     19  N6  UNL     1     150.713 161.231 164.473  0.00  0.00    -0.225 N 
BRANCH  19  20
ATOM     20  C15 UNL     1     150.009 161.943 165.528  0.00  0.00    +0.111 C 
ATOM     21  C16 UNL     1     149.410 161.010 166.604  0.00  0.00    +0.027 C 
ATOM     22  C17 UNL     1     150.233 161.000 167.889  0.00  0.00    +0.002 C 
ATOM     23  C18 UNL     1     150.362 162.395 168.500  0.00  0.00    +0.000 C 
ATOM     24  C19 UNL     1     150.366 163.522 167.468  0.00  0.00    +0.002 C 
ATOM     25  C20 UNL     1     150.899 163.051 166.119  0.00  0.00    +0.027 C 
ENDBRANCH  19  20
ENDBRANCH   1  15
BRANCH   1  26
ATOM     26  C3  UNL     1     153.892 160.644 165.902  0.00  0.00    +0.026 C 
BRANCH  26  28
ATOM     27  C1  UNL     1     154.047 161.343 168.357  0.00  0.00    +0.004 C 
ATOM     28  C2  UNL     1     154.047 161.797 166.902  0.00  0.00    -0.001 C 
ENDBRANCH  26  28
ENDBRANCH   1  26
TORSDOF 6
ENDMDL
MODEL 8
REMARK VINA RESULT:    -7.295      6.889      9.521
REMARK INTER + INTRA:         -10.581
REMARK INTER:                  -9.480
REMARK INTRA:                  -1.101
REMARK UNBOUND:                -0.727
REMARK  Name = /home/vital/Documents/PhD_2021/Malaria_codes/data/pdb_ligands_mmv/ligand_141.pdb
REMARK  7 active torsions:
REMARK  status: ('A' for Active; 'I' for Inactive)
REMARK    1  A    between atoms: C1_1  and  C2_2
REMARK    2  A    between atoms: C2_2  and  C3_3
REMARK    3  A    between atoms: C3_3  and  C4_4
REMARK    4  A    between atoms: C4_4  and  N1_5
REMARK    5  A    between atoms: C4_4  and  C14_18
REMARK    6  A    between atoms: C9_11  and  C10_13
REMARK    7  A    between atoms: N6_22  and  C15_23
REMARK                            x       y       z     vdW  Elec       q    Type
REMARK                         _______ _______ _______ _____ _____    ______ ____
ROOT
ATOM      1  C4  UNL     1     152.280 159.337 167.442  0.00  0.00    +0.127 C 
ENDROOT
BRANCH   1   2
ATOM      2  N1  UNL     1     152.143 157.929 167.006  0.00  0.00    -0.290 NA
ATOM      3  C5  UNL     1     150.761 157.449 166.829  0.00  0.00    +0.104 C 
ATOM      4  C6  UNL     1     150.727 156.034 166.213  0.00  0.00    +0.123 C 
ATOM      5  N2  UNL     1     151.567 155.076 166.941  0.00  0.00    -0.293 N 
ATOM      6  C7  UNL     1     152.891 155.564 167.321  0.00  0.00    +0.123 C 
ATOM      7  C8  UNL     1     152.868 156.991 167.893  0.00  0.00    +0.104 C 
ATOM      8  C9  UNL     1     151.325 153.699 167.022  0.00  0.00    +0.282 C 
ATOM      9  O1  UNL     1     152.062 152.970 167.689  0.00  0.00    -0.267 OA
BRANCH   8  10
ATOM     10  C10 UNL     1     150.203 153.154 166.278  0.00  0.00    +0.189 A 
ATOM     11  O2  UNL     1     148.968 153.143 166.871  0.00  0.00    -0.458 OA
ATOM     12  C11 UNL     1     148.105 152.550 166.013  0.00  0.00    +0.196 A 
ATOM     13  C12 UNL     1     148.758 152.157 164.872  0.00  0.00    +0.042 A 
ATOM     14  C13 UNL     1     150.112 152.545 165.042  0.00  0.00    +0.054 A 
ENDBRANCH   8  10
ENDBRANCH   1   2
BRANCH   1  15
ATOM     15  C14 UNL     1     152.315 160.363 166.339  0.00  0.00    +0.169 A 
ATOM     16  N3  UNL     1     153.147 160.438 165.319  0.00  0.00    -0.112 NA
ATOM     17  N4  UNL     1     152.748 161.506 164.560  0.00  0.00    -0.023 NA
ATOM     18  N5  UNL     1     151.693 162.097 165.097  0.00  0.00    -0.044 NA
ATOM     19  N6  UNL     1     151.444 161.421 166.230  0.00  0.00    -0.225 N 
BRANCH  19  20
ATOM     20  C15 UNL     1     150.376 161.840 167.125  0.00  0.00    +0.111 C 
ATOM     21  C16 UNL     1     150.006 163.333 166.983  0.00  0.00    +0.027 C 
ATOM     22  C17 UNL     1     148.712 163.540 166.201  0.00  0.00    +0.002 C 
ATOM     23  C18 UNL     1     147.528 162.825 166.850  0.00  0.00    +0.000 C 
ATOM     24  C19 UNL     1     147.910 161.540 167.584  0.00  0.00    +0.002 C 
ATOM     25  C20 UNL     1     149.162 160.903 166.992  0.00  0.00    +0.027 C 
ENDBRANCH  19  20
ENDBRANCH   1  15
BRANCH   1  26
ATOM     26  C3  UNL     1     153.471 159.571 168.403  0.00  0.00    +0.026 C 
BRANCH  26  28
ATOM     27  C1  UNL     1     151.815 160.556 170.086  0.00  0.00    +0.004 C 
ATOM     28  C2  UNL     1     153.229 160.598 169.517  0.00  0.00    -0.001 C 
ENDBRANCH  26  28
ENDBRANCH   1  26
TORSDOF 6
ENDMDL
MODEL 9
REMARK VINA RESULT:    -7.293      3.238      8.934
REMARK INTER + INTRA:         -10.578
REMARK INTER:                  -9.813
REMARK INTRA:                  -0.765
REMARK UNBOUND:                -0.727
REMARK  Name = /home/vital/Documents/PhD_2021/Malaria_codes/data/pdb_ligands_mmv/ligand_141.pdb
REMARK  7 active torsions:
REMARK  status: ('A' for Active; 'I' for Inactive)
REMARK    1  A    between atoms: C1_1  and  C2_2
REMARK    2  A    between atoms: C2_2  and  C3_3
REMARK    3  A    between atoms: C3_3  and  C4_4
REMARK    4  A    between atoms: C4_4  and  N1_5
REMARK    5  A    between atoms: C4_4  and  C14_18
REMARK    6  A    between atoms: C9_11  and  C10_13
REMARK    7  A    between atoms: N6_22  and  C15_23
REMARK                            x       y       z     vdW  Elec       q    Type
REMARK                         _______ _______ _______ _____ _____    ______ ____
ROOT
ATOM      1  C4  UNL     1     151.467 158.862 164.085  0.00  0.00    +0.127 C 
ENDROOT
BRANCH   1   2
ATOM      2  N1  UNL     1     151.093 159.102 162.673  0.00  0.00    -0.290 NA
ATOM      3  C5  UNL     1     151.654 158.152 161.696  0.00  0.00    +0.104 C 
ATOM      4  C6  UNL     1     151.074 158.381 160.284  0.00  0.00    +0.123 C 
ATOM      5  N2  UNL     1     151.187 159.775 159.842  0.00  0.00    -0.293 N 
ATOM      6  C7  UNL     1     150.829 160.782 160.839  0.00  0.00    +0.123 C 
ATOM      7  C8  UNL     1     151.403 160.481 162.234  0.00  0.00    +0.104 C 
ATOM      8  C9  UNL     1     151.308 160.185 158.508  0.00  0.00    +0.282 C 
ATOM      9  O1  UNL     1     151.437 161.379 158.227  0.00  0.00    -0.267 OA
BRANCH   8  10
ATOM     10  C10 UNL     1     151.247 159.172 157.471  0.00  0.00    +0.189 A 
ATOM     11  O2  UNL     1     152.391 158.881 156.773  0.00  0.00    -0.458 OA
ATOM     12  C11 UNL     1     152.076 157.953 155.838  0.00  0.00    +0.196 A 
ATOM     13  C12 UNL     1     150.742 157.641 155.901  0.00  0.00    +0.042 A 
ATOM     14  C13 UNL     1     150.205 158.427 156.954  0.00  0.00    +0.054 A 
ENDBRANCH   8  10
ENDBRANCH   1   2
BRANCH   1  15
ATOM     15  C14 UNL     1     152.202 159.987 164.767  0.00  0.00    +0.169 A 
ATOM     16  N3  UNL     1     153.504 160.157 164.890  0.00  0.00    -0.112 NA
ATOM     17  N4  UNL     1     153.689 161.349 165.538  0.00  0.00    -0.023 NA
ATOM     18  N5  UNL     1     152.527 161.914 165.825  0.00  0.00    -0.044 NA
ATOM     19  N6  UNL     1     151.594 161.051 165.391  0.00  0.00    -0.225 N 
BRANCH  19  20
ATOM     20  C15 UNL     1     150.180 161.319 165.602  0.00  0.00    +0.111 C 
ATOM     21  C16 UNL     1     149.682 160.917 167.008  0.00  0.00    +0.027 C 
ATOM     22  C17 UNL     1     149.503 162.121 167.928  0.00  0.00    +0.002 C 
ATOM     23  C18 UNL     1     148.517 163.139 167.356  0.00  0.00    +0.000 C 
ATOM     24  C19 UNL     1     148.505 163.196 165.829  0.00  0.00    +0.002 C 
ATOM     25  C20 UNL     1     149.847 162.776 165.238  0.00  0.00    +0.027 C 
ENDBRANCH  19  20
ENDBRANCH   1  15
BRANCH   1  26
ATOM     26  C3  UNL     1     152.236 157.536 164.302  0.00  0.00    +0.026 C 
BRANCH  26  28
ATOM     27  C1  UNL     1     152.343 156.805 166.750  0.00  0.00    +0.004 C 
ATOM     28  C2  UNL     1     151.674 156.617 165.394  0.00  0.00    -0.001 C 
ENDBRANCH  26  28
ENDBRANCH   1  26
TORSDOF 6
ENDMDL
