MODEL 1
REMARK VINA RESULT:    -7.857      0.000      0.000
REMARK INTER + INTRA:          -9.014
REMARK INTER:                  -8.776
REMARK INTRA:                  -0.238
REMARK UNBOUND:                -0.238
REMARK  Name = /home/vital/Documents/PhD_2021/Malaria_codes/data/pdb_ligands_mmv/ligand_52.pdb
REMARK  4 active torsions:
REMARK  status: ('A' for Active; 'I' for Inactive)
REMARK    1  A    between atoms: C1_1  and  C2_2
REMARK    2  A    between atoms: C4_4  and  C5_5
REMARK    3  A    between atoms: N1_8  and  C8_9
REMARK    4  A    between atoms: C8_9  and  C9_10
REMARK                            x       y       z     vdW  Elec       q    Type
REMARK                         _______ _______ _______ _____ _____    ______ ____
ROOT
ATOM      1  C1  UNL     1     150.410 155.836 160.321  0.00  0.00    +0.044 C 
ATOM      2  C2  UNL     1     150.745 156.430 158.985  0.00  0.00    -0.047 A 
ATOM      3  C3  UNL     1     150.721 157.817 158.796  0.00  0.00    +0.007 A 
ATOM      4  C4  UNL     1     151.007 158.386 157.543  0.00  0.00    -0.042 A 
ATOM      5  C5  UNL     1     150.995 159.883 157.400  0.00  0.00    +0.044 C 
ATOM      6  C6  UNL     1     151.334 157.542 156.460  0.00  0.00    +0.011 A 
ATOM      7  C7  UNL     1     151.662 158.089 155.092  0.00  0.00    +0.127 C 
ATOM      8  N1  UNL     1     152.325 157.099 154.240  0.00  0.00    -0.262 NA
ATOM      9  C15 UNL     1     151.584 155.846 154.334  0.00  0.00    +0.319 C 
ATOM     10  O1  UNL     1     151.590 155.268 155.643  0.00  0.00    -0.476 OA
ATOM     11  C16 UNL     1     151.313 156.156 156.646  0.00  0.00    +0.127 A 
ATOM     12  C17 UNL     1     151.031 155.604 157.897  0.00  0.00    +0.049 A 
ENDROOT
BRANCH   8  13
ATOM     13  C8  UNL     1     152.409 157.537 152.840  0.00  0.00    +0.124 C 
BRANCH  13  14
ATOM     14  C9  UNL     1     153.121 156.550 151.938  0.00  0.00    -0.015 A 
ATOM     15  C10 UNL     1     154.515 156.391 152.061  0.00  0.00    +0.006 A 
ATOM     16  C11 UNL     1     155.208 155.482 151.260  0.00  0.00    +0.000 A 
ATOM     17  C12 UNL     1     154.522 154.717 150.322  0.00  0.00    +0.001 A 
ATOM     18  C13 UNL     1     153.142 154.862 150.184  0.00  0.00    +0.020 A 
ATOM     19  C14 UNL     1     152.443 155.772 150.985  0.00  0.00    +0.045 A 
ATOM     20 CL1  UNL     1     150.738 155.903 150.736  0.00  0.00    -0.083 Cl
ENDBRANCH  13  14
ENDBRANCH   8  13
TORSDOF 2
ENDMDL
MODEL 2
REMARK VINA RESULT:    -7.382     11.039     13.122
REMARK INTER + INTRA:          -8.483
REMARK INTER:                  -8.298
REMARK INTRA:                  -0.185
REMARK UNBOUND:                -0.238
REMARK  Name = /home/vital/Documents/PhD_2021/Malaria_codes/data/pdb_ligands_mmv/ligand_52.pdb
REMARK  4 active torsions:
REMARK  status: ('A' for Active; 'I' for Inactive)
REMARK    1  A    between atoms: C1_1  and  C2_2
REMARK    2  A    between atoms: C4_4  and  C5_5
REMARK    3  A    between atoms: N1_8  and  C8_9
REMARK    4  A    between atoms: C8_9  and  C9_10
REMARK                            x       y       z     vdW  Elec       q    Type
REMARK                         _______ _______ _______ _____ _____    ______ ____
ROOT
ATOM      1  C1  UNL     1     152.598 157.808 167.832  0.00  0.00    +0.044 C 
ATOM      2  C2  UNL     1     151.990 156.537 167.321  0.00  0.00    -0.047 A 
ATOM      3  C3  UNL     1     152.489 155.293 167.727  0.00  0.00    +0.007 A 
ATOM      4  C4  UNL     1     151.945 154.094 167.235  0.00  0.00    -0.042 A 
ATOM      5  C5  UNL     1     152.501 152.785 167.725  0.00  0.00    +0.044 C 
ATOM      6  C6  UNL     1     150.870 154.146 166.324  0.00  0.00    +0.011 A 
ATOM      7  C7  UNL     1     150.234 152.896 165.767  0.00  0.00    +0.127 C 
ATOM      8  N1  UNL     1     148.928 153.159 165.156  0.00  0.00    -0.262 NA
ATOM      9  C15 UNL     1     149.056 154.326 164.289  0.00  0.00    +0.319 C 
ATOM     10  O1  UNL     1     149.386 155.530 164.988  0.00  0.00    -0.476 OA
ATOM     11  C16 UNL     1     150.405 155.392 165.890  0.00  0.00    +0.127 A 
ATOM     12  C17 UNL     1     150.951 156.575 166.388  0.00  0.00    +0.049 A 
ENDROOT
BRANCH   8  13
ATOM     13  C8  UNL     1     148.430 152.008 164.391  0.00  0.00    +0.124 C 
BRANCH  13  14
ATOM     14  C9  UNL     1     147.410 151.177 165.141  0.00  0.00    -0.015 A 
ATOM     15  C10 UNL     1     147.368 151.249 166.548  0.00  0.00    +0.006 A 
ATOM     16  C11 UNL     1     146.434 150.512 167.277  0.00  0.00    +0.000 A 
ATOM     17  C12 UNL     1     145.526 149.690 166.617  0.00  0.00    +0.001 A 
ATOM     18  C13 UNL     1     145.553 149.605 165.225  0.00  0.00    +0.020 A 
ATOM     19  C14 UNL     1     146.488 150.342 164.489  0.00  0.00    +0.045 A 
ATOM     20 CL1  UNL     1     146.465 150.163 162.771  0.00  0.00    -0.083 Cl
ENDBRANCH  13  14
ENDBRANCH   8  13
TORSDOF 2
ENDMDL
MODEL 3
REMARK VINA RESULT:    -7.271      4.901      9.269
REMARK INTER + INTRA:          -8.359
REMARK INTER:                  -8.038
REMARK INTRA:                  -0.322
REMARK UNBOUND:                -0.238
REMARK  Name = /home/vital/Documents/PhD_2021/Malaria_codes/data/pdb_ligands_mmv/ligand_52.pdb
REMARK  4 active torsions:
REMARK  status: ('A' for Active; 'I' for Inactive)
REMARK    1  A    between atoms: C1_1  and  C2_2
REMARK    2  A    between atoms: C4_4  and  C5_5
REMARK    3  A    between atoms: N1_8  and  C8_9
REMARK    4  A    between atoms: C8_9  and  C9_10
REMARK                            x       y       z     vdW  Elec       q    Type
REMARK                         _______ _______ _______ _____ _____    ______ ____
ROOT
ATOM      1  C1  UNL     1     151.482 157.358 155.320  0.00  0.00    +0.044 C 
ATOM      2  C2  UNL     1     151.177 157.091 156.764  0.00  0.00    -0.047 A 
ATOM      3  C3  UNL     1     150.591 158.081 157.563  0.00  0.00    +0.007 A 
ATOM      4  C4  UNL     1     150.323 157.854 158.924  0.00  0.00    -0.042 A 
ATOM      5  C5  UNL     1     149.668 158.941 159.731  0.00  0.00    +0.044 C 
ATOM      6  C6  UNL     1     150.643 156.601 159.491  0.00  0.00    +0.011 A 
ATOM      7  C7  UNL     1     150.371 156.290 160.942  0.00  0.00    +0.127 C 
ATOM      8  N1  UNL     1     150.422 154.853 161.223  0.00  0.00    -0.262 NA
ATOM      9  C15 UNL     1     151.626 154.308 160.602  0.00  0.00    +0.319 C 
ATOM     10  O1  UNL     1     151.634 154.406 159.175  0.00  0.00    -0.476 OA
ATOM     11  C16 UNL     1     151.266 155.634 158.697  0.00  0.00    +0.127 A 
ATOM     12  C17 UNL     1     151.524 155.870 157.346  0.00  0.00    +0.049 A 
ENDROOT
BRANCH   8  13
ATOM     13  C8  UNL     1     150.418 154.567 162.664  0.00  0.00    +0.124 C 
BRANCH  13  14
ATOM     14  C9  UNL     1     149.380 153.544 163.076  0.00  0.00    -0.015 A 
ATOM     15  C10 UNL     1     148.313 153.260 162.201  0.00  0.00    +0.006 A 
ATOM     16  C11 UNL     1     147.343 152.313 162.535  0.00  0.00    +0.000 A 
ATOM     17  C12 UNL     1     147.421 151.635 163.747  0.00  0.00    +0.001 A 
ATOM     18  C13 UNL     1     148.468 151.904 164.627  0.00  0.00    +0.020 A 
ATOM     19  C14 UNL     1     149.443 152.852 164.297  0.00  0.00    +0.045 A 
ATOM     20 CL1  UNL     1     150.696 153.138 165.452  0.00  0.00    -0.083 Cl
ENDBRANCH  13  14
ENDBRANCH   8  13
TORSDOF 2
ENDMDL
MODEL 4
REMARK VINA RESULT:    -7.158      2.962      4.494
REMARK INTER + INTRA:          -8.233
REMARK INTER:                  -7.883
REMARK INTRA:                  -0.350
REMARK UNBOUND:                -0.238
REMARK  Name = /home/vital/Documents/PhD_2021/Malaria_codes/data/pdb_ligands_mmv/ligand_52.pdb
REMARK  4 active torsions:
REMARK  status: ('A' for Active; 'I' for Inactive)
REMARK    1  A    between atoms: C1_1  and  C2_2
REMARK    2  A    between atoms: C4_4  and  C5_5
REMARK    3  A    between atoms: N1_8  and  C8_9
REMARK    4  A    between atoms: C8_9  and  C9_10
REMARK                            x       y       z     vdW  Elec       q    Type
REMARK                         _______ _______ _______ _____ _____    ______ ____
ROOT
ATOM      1  C1  UNL     1     152.535 157.521 164.584  0.00  0.00    +0.044 C 
ATOM      2  C2  UNL     1     152.058 157.590 163.164  0.00  0.00    -0.047 A 
ATOM      3  C3  UNL     1     151.551 158.785 162.640  0.00  0.00    +0.007 A 
ATOM      4  C4  UNL     1     151.076 158.858 161.319  0.00  0.00    -0.042 A 
ATOM      5  C5  UNL     1     150.567 160.173 160.797  0.00  0.00    +0.044 C 
ATOM      6  C6  UNL     1     151.122 157.707 160.504  0.00  0.00    +0.011 A 
ATOM      7  C7  UNL     1     150.639 157.720 159.075  0.00  0.00    +0.127 C 
ATOM      8  N1  UNL     1     151.115 156.562 158.314  0.00  0.00    -0.262 NA
ATOM      9  C15 UNL     1     150.892 155.364 159.118  0.00  0.00    +0.319 C 
ATOM     10  O1  UNL     1     151.642 155.339 160.337  0.00  0.00    -0.476 OA
ATOM     11  C16 UNL     1     151.591 156.506 161.048  0.00  0.00    +0.127 A 
ATOM     12  C17 UNL     1     152.062 156.448 162.361  0.00  0.00    +0.049 A 
ENDROOT
BRANCH   8  13
ATOM     13  C8  UNL     1     150.443 156.435 157.015  0.00  0.00    +0.124 C 
BRANCH  13  14
ATOM     14  C9  UNL     1     151.396 156.427 155.837  0.00  0.00    -0.015 A 
ATOM     15  C10 UNL     1     151.695 155.203 155.207  0.00  0.00    +0.006 A 
ATOM     16  C11 UNL     1     152.556 155.152 154.109  0.00  0.00    +0.000 A 
ATOM     17  C12 UNL     1     153.133 156.321 153.622  0.00  0.00    +0.001 A 
ATOM     18  C13 UNL     1     152.850 157.542 154.234  0.00  0.00    +0.020 A 
ATOM     19  C14 UNL     1     151.987 157.598 155.334  0.00  0.00    +0.045 A 
ATOM     20 CL1  UNL     1     151.705 159.148 156.044  0.00  0.00    -0.083 Cl
ENDBRANCH  13  14
ENDBRANCH   8  13
TORSDOF 2
ENDMDL
MODEL 5
REMARK VINA RESULT:    -7.142      4.963      8.087
REMARK INTER + INTRA:          -8.215
REMARK INTER:                  -8.016
REMARK INTRA:                  -0.199
REMARK UNBOUND:                -0.238
REMARK  Name = /home/vital/Documents/PhD_2021/Malaria_codes/data/pdb_ligands_mmv/ligand_52.pdb
REMARK  4 active torsions:
REMARK  status: ('A' for Active; 'I' for Inactive)
REMARK    1  A    between atoms: C1_1  and  C2_2
REMARK    2  A    between atoms: C4_4  and  C5_5
REMARK    3  A    between atoms: N1_8  and  C8_9
REMARK    4  A    between atoms: C8_9  and  C9_10
REMARK                            x       y       z     vdW  Elec       q    Type
REMARK                         _______ _______ _______ _____ _____    ______ ____
ROOT
ATOM      1  C1  UNL     1     146.526 150.509 164.451  0.00  0.00    +0.044 C 
ATOM      2  C2  UNL     1     147.536 151.539 164.044  0.00  0.00    -0.047 A 
ATOM      3  C3  UNL     1     148.532 151.952 164.938  0.00  0.00    +0.007 A 
ATOM      4  C4  UNL     1     149.470 152.935 164.579  0.00  0.00    -0.042 A 
ATOM      5  C5  UNL     1     150.536 153.324 165.567  0.00  0.00    +0.044 C 
ATOM      6  C6  UNL     1     149.412 153.508 163.291  0.00  0.00    +0.011 A 
ATOM      7  C7  UNL     1     150.395 154.560 162.839  0.00  0.00    +0.127 C 
ATOM      8  N1  UNL     1     150.395 154.737 161.385  0.00  0.00    -0.262 NA
ATOM      9  C15 UNL     1     149.009 154.834 160.937  0.00  0.00    +0.319 C 
ATOM     10  O1  UNL     1     148.244 153.647 161.165  0.00  0.00    -0.476 OA
ATOM     11  C16 UNL     1     148.389 153.121 162.419  0.00  0.00    +0.127 A 
ATOM     12  C17 UNL     1     147.465 152.141 162.786  0.00  0.00    +0.049 A 
ENDROOT
BRANCH   8  13
ATOM     13  C8  UNL     1     151.149 155.926 160.969  0.00  0.00    +0.124 C 
BRANCH  13  14
ATOM     14  C9  UNL     1     151.061 156.212 159.484  0.00  0.00    -0.015 A 
ATOM     15  C10 UNL     1     151.666 155.318 158.577  0.00  0.00    +0.006 A 
ATOM     16  C11 UNL     1     151.595 155.535 157.200  0.00  0.00    +0.000 A 
ATOM     17  C12 UNL     1     150.921 156.647 156.704  0.00  0.00    +0.001 A 
ATOM     18  C13 UNL     1     150.318 157.543 157.586  0.00  0.00    +0.020 A 
ATOM     19  C14 UNL     1     150.386 157.329 158.967  0.00  0.00    +0.045 A 
ATOM     20 CL1  UNL     1     149.628 158.499 159.989  0.00  0.00    -0.083 Cl
ENDBRANCH  13  14
ENDBRANCH   8  13
TORSDOF 2
ENDMDL
MODEL 6
REMARK VINA RESULT:    -7.020     12.127     13.387
REMARK INTER + INTRA:          -8.078
REMARK INTER:                  -7.775
REMARK INTRA:                  -0.303
REMARK UNBOUND:                -0.238
REMARK  Name = /home/vital/Documents/PhD_2021/Malaria_codes/data/pdb_ligands_mmv/ligand_52.pdb
REMARK  4 active torsions:
REMARK  status: ('A' for Active; 'I' for Inactive)
REMARK    1  A    between atoms: C1_1  and  C2_2
REMARK    2  A    between atoms: C4_4  and  C5_5
REMARK    3  A    between atoms: N1_8  and  C8_9
REMARK    4  A    between atoms: C8_9  and  C9_10
REMARK                            x       y       z     vdW  Elec       q    Type
REMARK                         _______ _______ _______ _____ _____    ______ ____
ROOT
ATOM      1  C1  UNL     1     148.961 151.909 164.917  0.00  0.00    +0.044 C 
ATOM      2  C2  UNL     1     149.803 152.939 165.609  0.00  0.00    -0.047 A 
ATOM      3  C3  UNL     1     150.911 152.556 166.375  0.00  0.00    +0.007 A 
ATOM      4  C4  UNL     1     151.694 153.508 167.050  0.00  0.00    -0.042 A 
ATOM      5  C5  UNL     1     152.889 153.045 167.838  0.00  0.00    +0.044 C 
ATOM      6  C6  UNL     1     151.362 154.876 166.944  0.00  0.00    +0.011 A 
ATOM      7  C7  UNL     1     152.168 155.948 167.635  0.00  0.00    +0.127 C 
ATOM      8  N1  UNL     1     151.892 157.284 167.100  0.00  0.00    -0.262 NA
ATOM      9  C15 UNL     1     150.445 157.448 167.002  0.00  0.00    +0.319 C 
ATOM     10  O1  UNL     1     149.823 156.546 166.082  0.00  0.00    -0.476 OA
ATOM     11  C16 UNL     1     150.230 155.246 166.212  0.00  0.00    +0.127 A 
ATOM     12  C17 UNL     1     149.463 154.291 165.543  0.00  0.00    +0.049 A 
ENDROOT
BRANCH   8  13
ATOM     13  C8  UNL     1     152.470 158.347 167.932  0.00  0.00    +0.124 C 
BRANCH  13  14
ATOM     14  C9  UNL     1     152.465 159.709 167.268  0.00  0.00    -0.015 A 
ATOM     15  C10 UNL     1     153.009 159.841 165.975  0.00  0.00    +0.006 A 
ATOM     16  C11 UNL     1     153.011 161.074 165.320  0.00  0.00    +0.000 A 
ATOM     17  C12 UNL     1     152.471 162.195 165.944  0.00  0.00    +0.001 A 
ATOM     18  C13 UNL     1     151.930 162.083 167.224  0.00  0.00    +0.020 A 
ATOM     19  C14 UNL     1     151.926 160.849 167.885  0.00  0.00    +0.045 A 
ATOM     20 CL1  UNL     1     151.254 160.802 169.476  0.00  0.00    -0.083 Cl
ENDBRANCH  13  14
ENDBRANCH   8  13
TORSDOF 2
ENDMDL
MODEL 7
REMARK VINA RESULT:    -7.003      4.855      7.594
REMARK INTER + INTRA:          -8.059
REMARK INTER:                  -7.768
REMARK INTRA:                  -0.291
REMARK UNBOUND:                -0.238
REMARK  Name = /home/vital/Documents/PhD_2021/Malaria_codes/data/pdb_ligands_mmv/ligand_52.pdb
REMARK  4 active torsions:
REMARK  status: ('A' for Active; 'I' for Inactive)
REMARK    1  A    between atoms: C1_1  and  C2_2
REMARK    2  A    between atoms: C4_4  and  C5_5
REMARK    3  A    between atoms: N1_8  and  C8_9
REMARK    4  A    between atoms: C8_9  and  C9_10
REMARK                            x       y       z     vdW  Elec       q    Type
REMARK                         _______ _______ _______ _____ _____    ______ ____
ROOT
ATOM      1  C1  UNL     1     149.431 153.640 166.831  0.00  0.00    +0.044 C 
ATOM      2  C2  UNL     1     149.398 153.807 165.341  0.00  0.00    -0.047 A 
ATOM      3  C3  UNL     1     148.352 153.265 164.586  0.00  0.00    +0.007 A 
ATOM      4  C4  UNL     1     148.322 153.391 163.186  0.00  0.00    -0.042 A 
ATOM      5  C5  UNL     1     147.161 152.814 162.425  0.00  0.00    +0.044 C 
ATOM      6  C6  UNL     1     149.362 154.087 162.533  0.00  0.00    +0.011 A 
ATOM      7  C7  UNL     1     149.384 154.268 161.036  0.00  0.00    +0.127 C 
ATOM      8  N1  UNL     1     150.318 155.316 160.614  0.00  0.00    -0.262 NA
ATOM      9  C15 UNL     1     151.582 155.109 161.314  0.00  0.00    +0.319 C 
ATOM     10  O1  UNL     1     151.485 155.251 162.734  0.00  0.00    -0.476 OA
ATOM     11  C16 UNL     1     150.425 154.589 163.291  0.00  0.00    +0.127 A 
ATOM     12  C17 UNL     1     150.441 154.460 164.680  0.00  0.00    +0.049 A 
ENDROOT
BRANCH   8  13
ATOM     13  C8  UNL     1     150.534 155.316 159.161  0.00  0.00    +0.124 C 
BRANCH  13  14
ATOM     14  C9  UNL     1     150.379 156.683 158.526  0.00  0.00    -0.015 A 
ATOM     15  C10 UNL     1     150.168 157.803 159.353  0.00  0.00    +0.006 A 
ATOM     16  C11 UNL     1     150.035 159.082 158.810  0.00  0.00    +0.000 A 
ATOM     17  C12 UNL     1     150.109 159.265 157.433  0.00  0.00    +0.001 A 
ATOM     18  C13 UNL     1     150.315 158.167 156.598  0.00  0.00    +0.020 A 
ATOM     19  C14 UNL     1     150.450 156.883 157.138  0.00  0.00    +0.045 A 
ATOM     20 CL1  UNL     1     150.684 155.577 156.031  0.00  0.00    -0.083 Cl
ENDBRANCH  13  14
ENDBRANCH   8  13
TORSDOF 2
ENDMDL
MODEL 8
REMARK VINA RESULT:    -6.870      6.459      8.862
REMARK INTER + INTRA:          -7.911
REMARK INTER:                  -7.672
REMARK INTRA:                  -0.239
REMARK UNBOUND:                -0.238
REMARK  Name = /home/vital/Documents/PhD_2021/Malaria_codes/data/pdb_ligands_mmv/ligand_52.pdb
REMARK  4 active torsions:
REMARK  status: ('A' for Active; 'I' for Inactive)
REMARK    1  A    between atoms: C1_1  and  C2_2
REMARK    2  A    between atoms: C4_4  and  C5_5
REMARK    3  A    between atoms: N1_8  and  C8_9
REMARK    4  A    between atoms: C8_9  and  C9_10
REMARK                            x       y       z     vdW  Elec       q    Type
REMARK                         _______ _______ _______ _____ _____    ______ ____
ROOT
ATOM      1  C1  UNL     1     154.135 161.545 167.487  0.00  0.00    +0.044 C 
ATOM      2  C2  UNL     1     153.201 161.494 166.315  0.00  0.00    -0.047 A 
ATOM      3  C3  UNL     1     152.229 162.485 166.135  0.00  0.00    +0.007 A 
ATOM      4  C4  UNL     1     151.330 162.436 165.056  0.00  0.00    -0.042 A 
ATOM      5  C5  UNL     1     150.322 163.541 164.893  0.00  0.00    +0.044 C 
ATOM      6  C6  UNL     1     151.417 161.373 164.132  0.00  0.00    +0.011 A 
ATOM      7  C7  UNL     1     150.490 161.267 162.946  0.00  0.00    +0.127 C 
ATOM      8  N1  UNL     1     150.983 160.329 161.935  0.00  0.00    -0.262 NA
ATOM      9  C15 UNL     1     151.398 159.104 162.611  0.00  0.00    +0.319 C 
ATOM     10  O1  UNL     1     152.495 159.286 163.512  0.00  0.00    -0.476 OA
ATOM     11  C16 UNL     1     152.363 160.364 164.343  0.00  0.00    +0.127 A 
ATOM     12  C17 UNL     1     153.252 160.427 165.417  0.00  0.00    +0.049 A 
ENDROOT
BRANCH   8  13
ATOM     13  C8  UNL     1     149.971 160.029 160.914  0.00  0.00    +0.124 C 
BRANCH  13  14
ATOM     14  C9  UNL     1     150.544 159.411 159.654  0.00  0.00    -0.015 A 
ATOM     15  C10 UNL     1     150.383 158.029 159.437  0.00  0.00    +0.006 A 
ATOM     16  C11 UNL     1     150.882 157.421 158.283  0.00  0.00    +0.000 A 
ATOM     17  C12 UNL     1     151.549 158.182 157.328  0.00  0.00    +0.001 A 
ATOM     18  C13 UNL     1     151.718 159.552 157.527  0.00  0.00    +0.020 A 
ATOM     19  C14 UNL     1     151.220 160.165 158.682  0.00  0.00    +0.045 A 
ATOM     20 CL1  UNL     1     151.491 161.863 158.859  0.00  0.00    -0.083 Cl
ENDBRANCH  13  14
ENDBRANCH   8  13
TORSDOF 2
ENDMDL
MODEL 9
REMARK VINA RESULT:    -6.309      6.833     11.052
REMARK INTER + INTRA:          -7.284
REMARK INTER:                  -6.983
REMARK INTRA:                  -0.301
REMARK UNBOUND:                -0.238
REMARK  Name = /home/vital/Documents/PhD_2021/Malaria_codes/data/pdb_ligands_mmv/ligand_52.pdb
REMARK  4 active torsions:
REMARK  status: ('A' for Active; 'I' for Inactive)
REMARK    1  A    between atoms: C1_1  and  C2_2
REMARK    2  A    between atoms: C4_4  and  C5_5
REMARK    3  A    between atoms: N1_8  and  C8_9
REMARK    4  A    between atoms: C8_9  and  C9_10
REMARK                            x       y       z     vdW  Elec       q    Type
REMARK                         _______ _______ _______ _____ _____    ______ ____
ROOT
ATOM      1  C1  UNL     1     150.484 155.636 158.563  0.00  0.00    +0.044 C 
ATOM      2  C2  UNL     1     150.727 156.954 159.235  0.00  0.00    -0.047 A 
ATOM      3  C3  UNL     1     151.021 158.096 158.479  0.00  0.00    +0.007 A 
ATOM      4  C4  UNL     1     151.276 159.332 159.097  0.00  0.00    -0.042 A 
ATOM      5  C5  UNL     1     151.560 160.534 158.238  0.00  0.00    +0.044 C 
ATOM      6  C6  UNL     1     151.224 159.425 160.504  0.00  0.00    +0.011 A 
ATOM      7  C7  UNL     1     151.477 160.724 161.229  0.00  0.00    +0.127 C 
ATOM      8  N1  UNL     1     151.012 160.688 162.617  0.00  0.00    -0.262 NA
ATOM      9  C15 UNL     1     151.478 159.446 163.224  0.00  0.00    +0.319 C 
ATOM     10  O1  UNL     1     150.932 158.268 162.621  0.00  0.00    -0.476 OA
ATOM     11  C16 UNL     1     150.972 158.271 161.254  0.00  0.00    +0.127 A 
ATOM     12  C17 UNL     1     150.717 157.050 160.628  0.00  0.00    +0.049 A 
ENDROOT
BRANCH   8  13
ATOM     13  C8  UNL     1     151.485 161.842 163.393  0.00  0.00    +0.124 C 
BRANCH  13  14
ATOM     14  C9  UNL     1     150.874 161.935 164.776  0.00  0.00    -0.015 A 
ATOM     15  C10 UNL     1     149.492 162.175 164.899  0.00  0.00    +0.006 A 
ATOM     16  C11 UNL     1     148.886 162.253 166.155  0.00  0.00    +0.000 A 
ATOM     17  C12 UNL     1     149.648 162.094 167.307  0.00  0.00    +0.001 A 
ATOM     18  C13 UNL     1     151.019 161.858 167.205  0.00  0.00    +0.020 A 
ATOM     19  C14 UNL     1     151.631 161.778 165.949  0.00  0.00    +0.045 A 
ATOM     20 CL1  UNL     1     153.336 161.502 165.912  0.00  0.00    -0.083 Cl
ENDBRANCH  13  14
ENDBRANCH   8  13
TORSDOF 2
ENDMDL
