MODEL 1
REMARK VINA RESULT:    -8.351      0.000      0.000
REMARK INTER + INTRA:         -10.853
REMARK INTER:                 -10.059
REMARK INTRA:                  -0.794
REMARK UNBOUND:                -0.794
REMARK  Name = /home/vital/Documents/PhD_2021/Malaria_codes/data/pdb_ligands_mmv/ligand_57.pdb
REMARK  5 active torsions:
REMARK  status: ('A' for Active; 'I' for Inactive)
REMARK    1  A    between atoms: C1_1  and  O1_2
REMARK    2  A    between atoms: O1_2  and  C2_3
REMARK    3  A    between atoms: C7_8  and  N1_9
REMARK    4  A    between atoms: C16_19  and  O3_27
REMARK    5  A    between atoms: C17_20  and  N2_21
REMARK                            x       y       z     vdW  Elec       q    Type
REMARK                         _______ _______ _______ _____ _____    ______ ____
ROOT
ATOM      1  N1  UNL     1     151.719 157.414 163.432  0.00  0.00    -0.238 NA
ATOM      2  C8  UNL     1     151.357 157.063 164.634  0.00  0.00    +0.136 C 
ATOM      3  C9  UNL     1     150.538 155.814 164.948  0.00  0.00    +0.214 C 
ATOM      4  O2  UNL     1     149.499 155.528 164.378  0.00  0.00    -0.285 OA
ATOM      5  C10 UNL     1     151.088 154.979 166.019  0.00  0.00    +0.035 A 
ATOM      6  C11 UNL     1     150.837 153.604 166.049  0.00  0.00    +0.012 A 
ATOM      7  C12 UNL     1     151.417 152.829 167.048  0.00  0.00    +0.001 A 
ATOM      8  C13 UNL     1     152.241 153.428 168.002  0.00  0.00    +0.001 A 
ATOM      9  C14 UNL     1     152.468 154.809 167.972  0.00  0.00    +0.012 A 
ATOM     10  C15 UNL     1     151.876 155.611 166.985  0.00  0.00    +0.029 A 
ATOM     11  C16 UNL     1     152.023 157.085 166.964  0.00  0.00    +0.148 C 
ATOM     12  C17 UNL     1     151.788 157.844 165.865  0.00  0.00    +0.102 C 
ENDROOT
BRANCH   1  18
ATOM     13  C2  UNL     1     150.307 157.097 161.448  0.00  0.00    +0.145 A 
ATOM     14  C3  UNL     1     149.968 156.335 160.326  0.00  0.00    +0.048 A 
ATOM     15  C4  UNL     1     150.617 155.123 160.080  0.00  0.00    +0.004 A 
ATOM     16  C5  UNL     1     151.618 154.679 160.941  0.00  0.00    +0.002 A 
ATOM     17  C6  UNL     1     151.971 155.446 162.053  0.00  0.00    +0.031 A 
ATOM     18  C7  UNL     1     151.316 156.653 162.323  0.00  0.00    +0.106 A 
BRANCH  13  20
ATOM     19  C1  UNL     1     149.433 159.064 160.536  0.00  0.00    +0.277 C 
ATOM     20  O1  UNL     1     149.724 158.313 161.712  0.00  0.00    -0.493 OA
ENDBRANCH  13  20
ENDBRANCH   1  18
BRANCH  12  21
ATOM     21  N2  UNL     1     151.918 159.247 165.761  0.00  0.00    -0.325 N 
ATOM     22  C18 UNL     1     153.225 159.886 165.506  0.00  0.00    +0.105 C 
ATOM     23  C19 UNL     1     153.042 161.190 164.735  0.00  0.00    +0.019 C 
ATOM     24  C20 UNL     1     152.199 162.197 165.513  0.00  0.00    +0.003 C 
ATOM     25  C21 UNL     1     151.251 161.519 166.497  0.00  0.00    +0.019 C 
ATOM     26  C22 UNL     1     150.783 160.156 165.992  0.00  0.00    +0.105 C 
ENDBRANCH  12  21
BRANCH  11  27
ATOM     27  O3  UNL     1     152.362 157.667 168.177  0.00  0.00    -0.504 OA
ATOM     28  H22 UNL     1     153.282 157.426 168.378  0.00  0.00    +0.292 HD
ENDBRANCH  11  27
TORSDOF 4
ENDMDL
MODEL 2
REMARK VINA RESULT:    -7.853      1.891      5.152
REMARK INTER + INTRA:         -10.254
REMARK INTER:                  -9.600
REMARK INTRA:                  -0.653
REMARK UNBOUND:                -0.794
REMARK  Name = /home/vital/Documents/PhD_2021/Malaria_codes/data/pdb_ligands_mmv/ligand_57.pdb
REMARK  5 active torsions:
REMARK  status: ('A' for Active; 'I' for Inactive)
REMARK    1  A    between atoms: C1_1  and  O1_2
REMARK    2  A    between atoms: O1_2  and  C2_3
REMARK    3  A    between atoms: C7_8  and  N1_9
REMARK    4  A    between atoms: C16_19  and  O3_27
REMARK    5  A    between atoms: C17_20  and  N2_21
REMARK                            x       y       z     vdW  Elec       q    Type
REMARK                         _______ _______ _______ _____ _____    ______ ____
ROOT
ATOM      1  N1  UNL     1     150.446 156.481 163.157  0.00  0.00    -0.238 NA
ATOM      2  C8  UNL     1     151.241 156.706 164.165  0.00  0.00    +0.136 C 
ATOM      3  C9  UNL     1     152.477 157.598 164.093  0.00  0.00    +0.214 C 
ATOM      4  O2  UNL     1     153.334 157.496 163.232  0.00  0.00    -0.285 OA
ATOM      5  C10 UNL     1     152.574 158.592 165.167  0.00  0.00    +0.035 A 
ATOM      6  C11 UNL     1     153.257 159.795 164.963  0.00  0.00    +0.012 A 
ATOM      7  C12 UNL     1     153.286 160.741 165.983  0.00  0.00    +0.001 A 
ATOM      8  C13 UNL     1     152.634 160.481 167.189  0.00  0.00    +0.001 A 
ATOM      9  C14 UNL     1     151.970 159.265 167.387  0.00  0.00    +0.012 A 
ATOM     10  C15 UNL     1     151.947 158.289 166.378  0.00  0.00    +0.029 A 
ATOM     11  C16 UNL     1     151.328 156.958 166.574  0.00  0.00    +0.148 C 
ATOM     12  C17 UNL     1     150.965 156.145 165.551  0.00  0.00    +0.102 C 
ENDROOT
BRANCH   1  18
ATOM     13  C2  UNL     1     151.287 156.268 160.861  0.00  0.00    +0.145 A 
ATOM     14  C3  UNL     1     151.507 156.841 159.605  0.00  0.00    +0.048 A 
ATOM     15  C4  UNL     1     151.187 158.182 159.382  0.00  0.00    +0.004 A 
ATOM     16  C5  UNL     1     150.630 158.947 160.404  0.00  0.00    +0.002 A 
ATOM     17  C6  UNL     1     150.393 158.372 161.654  0.00  0.00    +0.031 A 
ATOM     18  C7  UNL     1     150.727 157.035 161.899  0.00  0.00    +0.106 A 
BRANCH  13  20
ATOM     19  C1  UNL     1     151.631 154.147 159.939  0.00  0.00    +0.277 C 
ATOM     20  O1  UNL     1     151.551 154.943 161.118  0.00  0.00    -0.493 OA
ENDBRANCH  13  20
ENDBRANCH   1  18
BRANCH  12  21
ATOM     21  N2  UNL     1     150.359 154.873 165.654  0.00  0.00    -0.325 N 
ATOM     22  C18 UNL     1     148.907 154.689 165.455  0.00  0.00    +0.105 C 
ATOM     23  C19 UNL     1     148.615 153.300 164.894  0.00  0.00    +0.019 C 
ATOM     24  C20 UNL     1     149.077 152.197 165.841  0.00  0.00    +0.003 C 
ATOM     25  C21 UNL     1     150.221 152.650 166.743  0.00  0.00    +0.019 C 
ATOM     26  C22 UNL     1     151.117 153.677 166.055  0.00  0.00    +0.105 C 
ENDBRANCH  12  21
BRANCH  11  27
ATOM     27  O3  UNL     1     151.193 156.552 167.894  0.00  0.00    -0.504 OA
ATOM     28  H22 UNL     1     150.349 156.900 168.229  0.00  0.00    +0.292 HD
ENDBRANCH  11  27
TORSDOF 4
ENDMDL
MODEL 3
REMARK VINA RESULT:    -7.848      3.622      7.740
REMARK INTER + INTRA:         -10.247
REMARK INTER:                  -9.934
REMARK INTRA:                  -0.313
REMARK UNBOUND:                -0.794
REMARK  Name = /home/vital/Documents/PhD_2021/Malaria_codes/data/pdb_ligands_mmv/ligand_57.pdb
REMARK  5 active torsions:
REMARK  status: ('A' for Active; 'I' for Inactive)
REMARK    1  A    between atoms: C1_1  and  O1_2
REMARK    2  A    between atoms: O1_2  and  C2_3
REMARK    3  A    between atoms: C7_8  and  N1_9
REMARK    4  A    between atoms: C16_19  and  O3_27
REMARK    5  A    between atoms: C17_20  and  N2_21
REMARK                            x       y       z     vdW  Elec       q    Type
REMARK                         _______ _______ _______ _____ _____    ______ ____
ROOT
ATOM      1  N1  UNL     1     151.198 156.187 159.415  0.00  0.00    -0.238 NA
ATOM      2  C8  UNL     1     150.958 157.466 159.326  0.00  0.00    +0.136 C 
ATOM      3  C9  UNL     1     150.188 158.264 160.375  0.00  0.00    +0.214 C 
ATOM      4  O2  UNL     1     149.102 157.926 160.817  0.00  0.00    -0.285 OA
ATOM      5  C10 UNL     1     150.848 159.499 160.805  0.00  0.00    +0.035 A 
ATOM      6  C11 UNL     1     150.619 160.022 162.081  0.00  0.00    +0.012 A 
ATOM      7  C12 UNL     1     151.301 161.167 162.480  0.00  0.00    +0.001 A 
ATOM      8  C13 UNL     1     152.204 161.776 161.608  0.00  0.00    +0.001 A 
ATOM      9  C14 UNL     1     152.410 161.253 160.325  0.00  0.00    +0.012 A 
ATOM     10  C15 UNL     1     151.716 160.112 159.897  0.00  0.00    +0.029 A 
ATOM     11  C16 UNL     1     151.842 159.574 158.522  0.00  0.00    +0.148 C 
ATOM     12  C17 UNL     1     151.494 158.309 158.180  0.00  0.00    +0.102 C 
ENDROOT
BRANCH   1  18
ATOM     13  C2  UNL     1     151.348 155.444 161.749  0.00  0.00    +0.145 A 
ATOM     14  C3  UNL     1     150.795 154.738 162.823  0.00  0.00    +0.048 A 
ATOM     15  C4  UNL     1     149.608 154.023 162.653  0.00  0.00    +0.004 A 
ATOM     16  C5  UNL     1     148.961 154.027 161.419  0.00  0.00    +0.002 A 
ATOM     17  C6  UNL     1     149.501 154.745 160.351  0.00  0.00    +0.031 A 
ATOM     18  C7  UNL     1     150.701 155.450 160.501  0.00  0.00    +0.106 A 
BRANCH  13  20
ATOM     19  C1  UNL     1     152.531 156.962 163.076  0.00  0.00    +0.277 C 
ATOM     20  O1  UNL     1     152.494 156.192 161.878  0.00  0.00    -0.493 OA
ENDBRANCH  13  20
ENDBRANCH   1  18
BRANCH  12  21
ATOM     21  N2  UNL     1     151.596 157.719 156.901  0.00  0.00    -0.325 N 
ATOM     22  C18 UNL     1     152.526 156.603 156.635  0.00  0.00    +0.105 C 
ATOM     23  C19 UNL     1     151.977 155.700 155.534  0.00  0.00    +0.019 C 
ATOM     24  C20 UNL     1     151.799 156.452 154.218  0.00  0.00    +0.003 C 
ATOM     25  C21 UNL     1     151.587 157.947 154.432  0.00  0.00    +0.019 C 
ATOM     26  C22 UNL     1     150.855 158.239 155.739  0.00  0.00    +0.105 C 
ENDBRANCH  12  21
BRANCH  11  27
ATOM     27  O3  UNL     1     152.288 160.477 157.568  0.00  0.00    -0.504 OA
ATOM     28  H22 UNL     1     152.211 160.053 156.696  0.00  0.00    +0.292 HD
ENDBRANCH  11  27
TORSDOF 4
ENDMDL
MODEL 4
REMARK VINA RESULT:    -7.580      1.724      5.635
REMARK INTER + INTRA:          -9.924
REMARK INTER:                  -9.181
REMARK INTRA:                  -0.743
REMARK UNBOUND:                -0.794
REMARK  Name = /home/vital/Documents/PhD_2021/Malaria_codes/data/pdb_ligands_mmv/ligand_57.pdb
REMARK  5 active torsions:
REMARK  status: ('A' for Active; 'I' for Inactive)
REMARK    1  A    between atoms: C1_1  and  O1_2
REMARK    2  A    between atoms: O1_2  and  C2_3
REMARK    3  A    between atoms: C7_8  and  N1_9
REMARK    4  A    between atoms: C16_19  and  O3_27
REMARK    5  A    between atoms: C17_20  and  N2_21
REMARK                            x       y       z     vdW  Elec       q    Type
REMARK                         _______ _______ _______ _____ _____    ______ ____
ROOT
ATOM      1  N1  UNL     1     151.615 156.653 164.611  0.00  0.00    -0.238 NA
ATOM      2  C8  UNL     1     151.466 157.942 164.737  0.00  0.00    +0.136 C 
ATOM      3  C9  UNL     1     151.072 158.632 166.040  0.00  0.00    +0.214 C 
ATOM      4  O2  UNL     1     150.120 158.292 166.723  0.00  0.00    -0.285 OA
ATOM      5  C10 UNL     1     151.923 159.767 166.409  0.00  0.00    +0.035 A 
ATOM      6  C11 UNL     1     152.086 160.128 167.750  0.00  0.00    +0.012 A 
ATOM      7  C12 UNL     1     152.941 161.177 168.072  0.00  0.00    +0.001 A 
ATOM      8  C13 UNL     1     153.626 161.850 167.060  0.00  0.00    +0.001 A 
ATOM      9  C14 UNL     1     153.439 161.491 165.720  0.00  0.00    +0.012 A 
ATOM     10  C15 UNL     1     152.564 160.451 165.373  0.00  0.00    +0.029 A 
ATOM     11  C16 UNL     1     152.274 160.092 163.965  0.00  0.00    +0.148 C 
ATOM     12  C17 UNL     1     151.744 158.901 163.591  0.00  0.00    +0.102 C 
ENDROOT
BRANCH   1  18
ATOM     13  C2  UNL     1     150.193 155.034 165.786  0.00  0.00    +0.145 A 
ATOM     14  C3  UNL     1     150.004 154.161 166.863  0.00  0.00    +0.048 A 
ATOM     15  C4  UNL     1     150.971 154.065 167.864  0.00  0.00    +0.004 A 
ATOM     16  C5  UNL     1     152.137 154.824 167.785  0.00  0.00    +0.002 A 
ATOM     17  C6  UNL     1     152.337 155.682 166.703  0.00  0.00    +0.031 A 
ATOM     18  C7  UNL     1     151.367 155.804 165.701  0.00  0.00    +0.106 A 
BRANCH  13  20
ATOM     19  C1  UNL     1     149.197 153.951 163.969  0.00  0.00    +0.277 C 
ATOM     20  O1  UNL     1     149.288 155.135 164.757  0.00  0.00    -0.493 OA
ENDBRANCH  13  20
ENDBRANCH   1  18
BRANCH  12  21
ATOM     21  N2  UNL     1     151.452 158.480 162.274  0.00  0.00    -0.325 N 
ATOM     22  C18 UNL     1     152.415 157.685 161.485  0.00  0.00    +0.105 C 
ATOM     23  C19 UNL     1     151.680 156.772 160.508  0.00  0.00    +0.019 C 
ATOM     24  C20 UNL     1     150.837 157.565 159.513  0.00  0.00    +0.003 C 
ATOM     25  C21 UNL     1     150.414 158.922 160.067  0.00  0.00    +0.019 C 
ATOM     26  C22 UNL     1     150.219 158.885 161.580  0.00  0.00    +0.105 C 
ENDBRANCH  12  21
BRANCH  11  27
ATOM     27  O3  UNL     1     152.522 161.090 163.033  0.00  0.00    -0.504 OA
ATOM     28  H22 UNL     1     152.194 160.782 162.170  0.00  0.00    +0.292 HD
ENDBRANCH  11  27
TORSDOF 4
ENDMDL
MODEL 5
REMARK VINA RESULT:    -7.541      1.830      4.954
REMARK INTER + INTRA:          -9.878
REMARK INTER:                  -9.489
REMARK INTRA:                  -0.389
REMARK UNBOUND:                -0.794
REMARK  Name = /home/vital/Documents/PhD_2021/Malaria_codes/data/pdb_ligands_mmv/ligand_57.pdb
REMARK  5 active torsions:
REMARK  status: ('A' for Active; 'I' for Inactive)
REMARK    1  A    between atoms: C1_1  and  O1_2
REMARK    2  A    between atoms: O1_2  and  C2_3
REMARK    3  A    between atoms: C7_8  and  N1_9
REMARK    4  A    between atoms: C16_19  and  O3_27
REMARK    5  A    between atoms: C17_20  and  N2_21
REMARK                            x       y       z     vdW  Elec       q    Type
REMARK                         _______ _______ _______ _____ _____    ______ ____
ROOT
ATOM      1  N1  UNL     1     150.538 156.564 163.188  0.00  0.00    -0.238 NA
ATOM      2  C8  UNL     1     151.355 156.774 164.181  0.00  0.00    +0.136 C 
ATOM      3  C9  UNL     1     152.591 157.666 164.095  0.00  0.00    +0.214 C 
ATOM      4  O2  UNL     1     153.429 157.573 163.214  0.00  0.00    -0.285 OA
ATOM      5  C10 UNL     1     152.713 158.645 165.179  0.00  0.00    +0.035 A 
ATOM      6  C11 UNL     1     153.394 159.849 164.977  0.00  0.00    +0.012 A 
ATOM      7  C12 UNL     1     153.447 160.781 166.009  0.00  0.00    +0.001 A 
ATOM      8  C13 UNL     1     152.821 160.506 167.225  0.00  0.00    +0.001 A 
ATOM      9  C14 UNL     1     152.159 159.288 167.420  0.00  0.00    +0.012 A 
ATOM     10  C15 UNL     1     152.112 158.326 166.400  0.00  0.00    +0.029 A 
ATOM     11  C16 UNL     1     151.494 156.994 166.591  0.00  0.00    +0.148 C 
ATOM     12  C17 UNL     1     151.107 156.195 165.565  0.00  0.00    +0.102 C 
ENDROOT
BRANCH   1  18
ATOM     13  C2  UNL     1     150.604 158.508 161.690  0.00  0.00    +0.145 A 
ATOM     14  C3  UNL     1     150.917 159.050 160.439  0.00  0.00    +0.048 A 
ATOM     15  C4  UNL     1     151.403 158.227 159.422  0.00  0.00    +0.004 A 
ATOM     16  C5  UNL     1     151.595 156.867 159.655  0.00  0.00    +0.002 A 
ATOM     17  C6  UNL     1     151.300 156.326 160.907  0.00  0.00    +0.031 A 
ATOM     18  C7  UNL     1     150.793 157.135 161.931  0.00  0.00    +0.106 A 
BRANCH  13  20
ATOM     19  C1  UNL     1     150.384 160.677 162.535  0.00  0.00    +0.277 C 
ATOM     20  O1  UNL     1     150.159 159.284 162.734  0.00  0.00    -0.493 OA
ENDBRANCH  13  20
ENDBRANCH   1  18
BRANCH  12  21
ATOM     21  N2  UNL     1     150.502 154.923 165.664  0.00  0.00    -0.325 N 
ATOM     22  C18 UNL     1     149.040 154.750 165.537  0.00  0.00    +0.105 C 
ATOM     23  C19 UNL     1     148.712 153.379 164.953  0.00  0.00    +0.019 C 
ATOM     24  C20 UNL     1     149.218 152.247 165.843  0.00  0.00    +0.003 C 
ATOM     25  C21 UNL     1     150.411 152.670 166.695  0.00  0.00    +0.019 C 
ATOM     26  C22 UNL     1     151.274 153.713 165.990  0.00  0.00    +0.105 C 
ENDBRANCH  12  21
BRANCH  11  27
ATOM     27  O3  UNL     1     151.387 156.570 167.908  0.00  0.00    -0.504 OA
ATOM     28  H22 UNL     1     150.813 157.198 168.378  0.00  0.00    +0.292 HD
ENDBRANCH  11  27
TORSDOF 4
ENDMDL
MODEL 6
REMARK VINA RESULT:    -7.385      1.762      5.301
REMARK INTER + INTRA:          -9.690
REMARK INTER:                  -9.000
REMARK INTRA:                  -0.690
REMARK UNBOUND:                -0.794
REMARK  Name = /home/vital/Documents/PhD_2021/Malaria_codes/data/pdb_ligands_mmv/ligand_57.pdb
REMARK  5 active torsions:
REMARK  status: ('A' for Active; 'I' for Inactive)
REMARK    1  A    between atoms: C1_1  and  O1_2
REMARK    2  A    between atoms: O1_2  and  C2_3
REMARK    3  A    between atoms: C7_8  and  N1_9
REMARK    4  A    between atoms: C16_19  and  O3_27
REMARK    5  A    between atoms: C17_20  and  N2_21
REMARK                            x       y       z     vdW  Elec       q    Type
REMARK                         _______ _______ _______ _____ _____    ______ ____
ROOT
ATOM      1  N1  UNL     1     151.056 158.409 165.996  0.00  0.00    -0.238 NA
ATOM      2  C8  UNL     1     151.442 158.799 164.813  0.00  0.00    +0.136 C 
ATOM      3  C9  UNL     1     152.276 157.945 163.863  0.00  0.00    +0.214 C 
ATOM      4  O2  UNL     1     153.308 157.383 164.190  0.00  0.00    -0.285 OA
ATOM      5  C10 UNL     1     151.752 157.864 162.496  0.00  0.00    +0.035 A 
ATOM      6  C11 UNL     1     152.015 156.748 161.698  0.00  0.00    +0.012 A 
ATOM      7  C12 UNL     1     151.459 156.676 160.424  0.00  0.00    +0.001 A 
ATOM      8  C13 UNL     1     150.647 157.713 159.963  0.00  0.00    +0.001 A 
ATOM      9  C14 UNL     1     150.407 158.835 160.765  0.00  0.00    +0.012 A 
ATOM     10  C15 UNL     1     150.976 158.935 162.044  0.00  0.00    +0.029 A 
ATOM     11  C16 UNL     1     150.816 160.139 162.893  0.00  0.00    +0.148 C 
ATOM     12  C17 UNL     1     151.026 160.141 164.232  0.00  0.00    +0.102 C 
ENDROOT
BRANCH   1  18
ATOM     13  C2  UNL     1     150.765 155.975 166.128  0.00  0.00    +0.145 A 
ATOM     14  C3  UNL     1     151.213 154.735 166.595  0.00  0.00    +0.048 A 
ATOM     15  C4  UNL     1     152.329 154.665 167.432  0.00  0.00    +0.004 A 
ATOM     16  C5  UNL     1     153.010 155.827 167.788  0.00  0.00    +0.002 A 
ATOM     17  C6  UNL     1     152.575 157.064 167.309  0.00  0.00    +0.031 A 
ATOM     18  C7  UNL     1     151.446 157.152 166.485  0.00  0.00    +0.106 A 
BRANCH  13  20
ATOM     19  C1  UNL     1     149.492 154.935 164.465  0.00  0.00    +0.277 C 
ATOM     20  O1  UNL     1     149.695 156.092 165.272  0.00  0.00    -0.493 OA
ENDBRANCH  13  20
ENDBRANCH   1  18
BRANCH  12  21
ATOM     21  N2  UNL     1     150.882 161.239 165.110  0.00  0.00    -0.325 N 
ATOM     22  C18 UNL     1     149.560 161.655 165.619  0.00  0.00    +0.105 C 
ATOM     23  C19 UNL     1     149.693 162.283 167.003  0.00  0.00    +0.019 C 
ATOM     24  C20 UNL     1     150.572 163.531 166.979  0.00  0.00    +0.003 C 
ATOM     25  C21 UNL     1     151.577 163.507 165.832  0.00  0.00    +0.019 C 
ATOM     26  C22 UNL     1     152.023 162.087 165.493  0.00  0.00    +0.105 C 
ENDBRANCH  12  21
BRANCH  11  27
ATOM     27  O3  UNL     1     150.494 161.306 162.216  0.00  0.00    -0.504 OA
ATOM     28  H22 UNL     1     150.245 161.976 162.876  0.00  0.00    +0.292 HD
ENDBRANCH  11  27
TORSDOF 4
ENDMDL
MODEL 7
REMARK VINA RESULT:    -7.248      2.502      5.611
REMARK INTER + INTRA:          -9.524
REMARK INTER:                  -8.790
REMARK INTRA:                  -0.734
REMARK UNBOUND:                -0.794
REMARK  Name = /home/vital/Documents/PhD_2021/Malaria_codes/data/pdb_ligands_mmv/ligand_57.pdb
REMARK  5 active torsions:
REMARK  status: ('A' for Active; 'I' for Inactive)
REMARK    1  A    between atoms: C1_1  and  O1_2
REMARK    2  A    between atoms: O1_2  and  C2_3
REMARK    3  A    between atoms: C7_8  and  N1_9
REMARK    4  A    between atoms: C16_19  and  O3_27
REMARK    5  A    between atoms: C17_20  and  N2_21
REMARK                            x       y       z     vdW  Elec       q    Type
REMARK                         _______ _______ _______ _____ _____    ______ ____
ROOT
ATOM      1  N1  UNL     1     151.078 157.509 167.219  0.00  0.00    -0.238 NA
ATOM      2  C8  UNL     1     151.662 158.346 166.408  0.00  0.00    +0.136 C 
ATOM      3  C9  UNL     1     152.146 157.980 165.007  0.00  0.00    +0.214 C 
ATOM      4  O2  UNL     1     152.845 157.009 164.767  0.00  0.00    -0.285 OA
ATOM      5  C10 UNL     1     151.722 158.907 163.954  0.00  0.00    +0.035 A 
ATOM      6  C11 UNL     1     151.568 158.466 162.637  0.00  0.00    +0.012 A 
ATOM      7  C12 UNL     1     151.112 159.357 161.670  0.00  0.00    +0.001 A 
ATOM      8  C13 UNL     1     150.813 160.673 162.026  0.00  0.00    +0.001 A 
ATOM      9  C14 UNL     1     150.990 161.107 163.345  0.00  0.00    +0.012 A 
ATOM     10  C15 UNL     1     151.468 160.229 164.330  0.00  0.00    +0.029 A 
ATOM     11  C16 UNL     1     151.748 160.667 165.717  0.00  0.00    +0.148 C 
ATOM     12  C17 UNL     1     151.855 159.811 166.763  0.00  0.00    +0.102 C 
ENDROOT
BRANCH   1  18
ATOM     13  C2  UNL     1     151.752 155.150 167.313  0.00  0.00    +0.145 A 
ATOM     14  C3  UNL     1     151.515 153.818 166.957  0.00  0.00    +0.048 A 
ATOM     15  C4  UNL     1     150.445 153.498 166.119  0.00  0.00    +0.004 A 
ATOM     16  C5  UNL     1     149.599 154.501 165.651  0.00  0.00    +0.002 A 
ATOM     17  C6  UNL     1     149.822 155.829 166.020  0.00  0.00    +0.031 A 
ATOM     18  C7  UNL     1     150.903 156.168 166.842  0.00  0.00    +0.106 A 
BRANCH  13  20
ATOM     19  C1  UNL     1     153.906 154.657 168.075  0.00  0.00    +0.277 C 
ATOM     20  O1  UNL     1     152.769 155.511 168.165  0.00  0.00    -0.493 OA
ENDBRANCH  13  20
ENDBRANCH   1  18
BRANCH  12  21
ATOM     21  N2  UNL     1     152.105 160.150 168.112  0.00  0.00    -0.325 N 
ATOM     22  C18 UNL     1     153.308 159.668 168.820  0.00  0.00    +0.105 C 
ATOM     23  C19 UNL     1     153.739 160.670 169.887  0.00  0.00    +0.019 C 
ATOM     24  C20 UNL     1     152.656 160.879 170.941  0.00  0.00    +0.003 C 
ATOM     25  C21 UNL     1     151.260 160.589 170.401  0.00  0.00    +0.019 C 
ATOM     26  C22 UNL     1     151.142 160.921 168.916  0.00  0.00    +0.105 C 
ENDBRANCH  12  21
BRANCH  11  27
ATOM     27  O3  UNL     1     151.962 162.029 165.880  0.00  0.00    -0.504 OA
ATOM     28  H22 UNL     1     152.358 162.369 165.060  0.00  0.00    +0.292 HD
ENDBRANCH  11  27
TORSDOF 4
ENDMDL
MODEL 8
REMARK VINA RESULT:    -7.093      2.291      5.445
REMARK INTER + INTRA:          -9.338
REMARK INTER:                  -9.210
REMARK INTRA:                  -0.128
REMARK UNBOUND:                -0.794
REMARK  Name = /home/vital/Documents/PhD_2021/Malaria_codes/data/pdb_ligands_mmv/ligand_57.pdb
REMARK  5 active torsions:
REMARK  status: ('A' for Active; 'I' for Inactive)
REMARK    1  A    between atoms: C1_1  and  O1_2
REMARK    2  A    between atoms: O1_2  and  C2_3
REMARK    3  A    between atoms: C7_8  and  N1_9
REMARK    4  A    between atoms: C16_19  and  O3_27
REMARK    5  A    between atoms: C17_20  and  N2_21
REMARK                            x       y       z     vdW  Elec       q    Type
REMARK                         _______ _______ _______ _____ _____    ______ ____
ROOT
ATOM      1  N1  UNL     1     149.621 155.132 164.497  0.00  0.00    -0.238 NA
ATOM      2  C8  UNL     1     150.606 155.480 163.717  0.00  0.00    +0.136 C 
ATOM      3  C9  UNL     1     151.123 154.625 162.563  0.00  0.00    +0.214 C 
ATOM      4  O2  UNL     1     151.416 153.446 162.676  0.00  0.00    -0.285 OA
ATOM      5  C10 UNL     1     151.267 155.340 161.292  0.00  0.00    +0.035 A 
ATOM      6  C11 UNL     1     151.164 154.658 160.076  0.00  0.00    +0.012 A 
ATOM      7  C12 UNL     1     151.251 155.373 158.886  0.00  0.00    +0.001 A 
ATOM      8  C13 UNL     1     151.437 156.755 158.919  0.00  0.00    +0.001 A 
ATOM      9  C14 UNL     1     151.559 157.423 160.143  0.00  0.00    +0.012 A 
ATOM     10  C15 UNL     1     151.494 156.717 161.354  0.00  0.00    +0.029 A 
ATOM     11  C16 UNL     1     151.699 157.371 162.667  0.00  0.00    +0.148 C 
ATOM     12  C17 UNL     1     151.296 156.829 163.843  0.00  0.00    +0.102 C 
ENDROOT
BRANCH   1  18
ATOM     13  C2  UNL     1     149.166 152.846 165.266  0.00  0.00    +0.145 A 
ATOM     14  C3  UNL     1     148.489 151.634 165.096  0.00  0.00    +0.048 A 
ATOM     15  C4  UNL     1     147.657 151.447 163.990  0.00  0.00    +0.004 A 
ATOM     16  C5  UNL     1     147.485 152.473 163.063  0.00  0.00    +0.002 A 
ATOM     17  C6  UNL     1     148.145 153.689 163.241  0.00  0.00    +0.031 A 
ATOM     18  C7  UNL     1     148.998 153.885 164.333  0.00  0.00    +0.106 A 
BRANCH  13  20
ATOM     19  C1  UNL     1     151.254 152.490 166.257  0.00  0.00    +0.277 C 
ATOM     20  O1  UNL     1     149.966 153.091 166.357  0.00  0.00    -0.493 OA
ENDBRANCH  13  20
ENDBRANCH   1  18
BRANCH  12  21
ATOM     21  N2  UNL     1     151.442 157.393 165.130  0.00  0.00    -0.325 N 
ATOM     22  C18 UNL     1     151.361 158.851 165.349  0.00  0.00    +0.105 C 
ATOM     23  C19 UNL     1     150.819 159.154 166.743  0.00  0.00    +0.019 C 
ATOM     24  C20 UNL     1     151.719 158.589 167.838  0.00  0.00    +0.003 C 
ATOM     25  C21 UNL     1     152.527 157.387 167.359  0.00  0.00    +0.019 C 
ATOM     26  C22 UNL     1     151.774 156.575 166.308  0.00  0.00    +0.105 C 
ENDBRANCH  12  21
BRANCH  11  27
ATOM     27  O3  UNL     1     152.399 158.569 162.634  0.00  0.00    -0.504 OA
ATOM     28  H22 UNL     1     152.363 158.910 161.723  0.00  0.00    +0.292 HD
ENDBRANCH  11  27
TORSDOF 4
ENDMDL
