MODEL 1
REMARK VINA RESULT:    -8.245      0.000      0.000
REMARK INTER + INTRA:          -9.985
REMARK INTER:                  -9.450
REMARK INTRA:                  -0.535
REMARK UNBOUND:                -0.535
REMARK  Name = /home/vital/Documents/PhD_2021/Malaria_codes/data/pdb_ligands_mmv/ligand_353.pdb
REMARK  4 active torsions:
REMARK  status: ('A' for Active; 'I' for Inactive)
REMARK    1  A    between atoms: C1_1  and  N1_2
REMARK    2  A    between atoms: N2_7  and  C6_8
REMARK    3  A    between atoms: N4_13  and  C10_14
REMARK    4  A    between atoms: C13_17  and  O1_18
REMARK                            x       y       z     vdW  Elec       q    Type
REMARK                         _______ _______ _______ _____ _____    ______ ____
ROOT
ATOM      1  C1  UNL     1     149.911 153.901 164.594  0.00  0.00    +0.134 A 
ATOM      2  C7  UNL     1     148.890 153.083 164.084  0.00  0.00    +0.040 A 
ATOM      3  C8  UNL     1     148.553 153.317 162.750  0.00  0.00    +0.078 A 
ATOM      4  N3  UNL     1     149.159 154.243 162.003  0.00  0.00    -0.214 NA
ATOM      5  C9  UNL     1     150.137 154.965 162.560  0.00  0.00    +0.222 A 
ATOM      6  N4  UNL     1     150.826 155.944 161.847  0.00  0.00    -0.284 N 
ATOM      7  N5  UNL     1     150.530 154.823 163.832  0.00  0.00    -0.199 NA
ATOM      8  C16 UNL     1     147.545 152.549 162.175  0.00  0.00    +0.028 A 
ATOM      9  C17 UNL     1     146.875 151.552 162.888  0.00  0.00    +0.002 A 
ATOM     10  C18 UNL     1     147.215 151.305 164.211  0.00  0.00    +0.001 A 
ATOM     11  C19 UNL     1     148.219 152.063 164.807  0.00  0.00    +0.013 A 
ATOM     12  H12 UNL     1     151.517 156.359 162.454  0.00  0.00    +0.155 HD
ENDROOT
BRANCH   1  13
ATOM     13  N1  UNL     1     150.293 153.775 165.955  0.00  0.00    -0.312 N 
ATOM     14  C2  UNL     1     150.517 155.117 166.541  0.00  0.00    +0.122 C 
ATOM     15  C3  UNL     1     150.903 154.988 168.036  0.00  0.00    +0.103 C 
ATOM     16  C4  UNL     1     151.470 152.899 166.133  0.00  0.00    +0.122 C 
ATOM     17  C5  UNL     1     151.827 152.795 167.636  0.00  0.00    +0.103 C 
ATOM     18  N2  UNL     1     152.045 154.090 168.324  0.00  0.00    -0.302 NA
ATOM     19  C6  UNL     1     153.316 154.698 167.934  0.00  0.00    +0.105 C 
ENDBRANCH   1  13
BRANCH   6  20
ATOM     20  C10 UNL     1     150.770 156.417 160.533  0.00  0.00    +0.034 A 
ATOM     21  C11 UNL     1     151.293 155.609 159.508  0.00  0.00    +0.027 A 
ATOM     22  C12 UNL     1     151.274 156.023 158.173  0.00  0.00    +0.047 A 
ATOM     23  C13 UNL     1     150.730 157.255 157.846  0.00  0.00    +0.117 A 
ATOM     24  C14 UNL     1     150.231 157.656 160.170  0.00  0.00    +0.027 A 
ATOM     25  C15 UNL     1     150.207 158.078 158.834  0.00  0.00    +0.047 A 
BRANCH  23  26
ATOM     26  O1  UNL     1     150.728 157.626 156.536  0.00  0.00    -0.507 OA
ATOM     27  H15 UNL     1     149.896 158.091 156.349  0.00  0.00    +0.292 HD
ENDBRANCH  23  26
ENDBRANCH   6  20
TORSDOF 3
ENDMDL
MODEL 2
REMARK VINA RESULT:    -8.099      3.958      7.563
REMARK INTER + INTRA:          -9.818
REMARK INTER:                 -10.023
REMARK INTRA:                   0.205
REMARK UNBOUND:                -0.535
REMARK  Name = /home/vital/Documents/PhD_2021/Malaria_codes/data/pdb_ligands_mmv/ligand_353.pdb
REMARK  4 active torsions:
REMARK  status: ('A' for Active; 'I' for Inactive)
REMARK    1  A    between atoms: C1_1  and  N1_2
REMARK    2  A    between atoms: N2_7  and  C6_8
REMARK    3  A    between atoms: N4_13  and  C10_14
REMARK    4  A    between atoms: C13_17  and  O1_18
REMARK                            x       y       z     vdW  Elec       q    Type
REMARK                         _______ _______ _______ _____ _____    ______ ____
ROOT
ATOM      1  C1  UNL     1     151.490 156.725 158.742  0.00  0.00    +0.134 A 
ATOM      2  C7  UNL     1     151.486 158.120 158.570  0.00  0.00    +0.040 A 
ATOM      3  C8  UNL     1     151.567 158.555 157.247  0.00  0.00    +0.078 A 
ATOM      4  N3  UNL     1     151.634 157.713 156.212  0.00  0.00    -0.214 NA
ATOM      5  C9  UNL     1     151.609 156.400 156.461  0.00  0.00    +0.222 A 
ATOM      6  N4  UNL     1     151.665 155.456 155.438  0.00  0.00    -0.284 N 
ATOM      7  N5  UNL     1     151.541 155.881 157.694  0.00  0.00    -0.199 NA
ATOM      8  C16 UNL     1     151.575 159.923 156.997  0.00  0.00    +0.028 A 
ATOM      9  C17 UNL     1     151.494 160.865 158.027  0.00  0.00    +0.002 A 
ATOM     10  C18 UNL     1     151.399 160.438 159.344  0.00  0.00    +0.001 A 
ATOM     11  C19 UNL     1     151.392 159.073 159.617  0.00  0.00    +0.013 A 
ATOM     12  H12 UNL     1     151.631 154.535 155.847  0.00  0.00    +0.155 HD
ENDROOT
BRANCH   1  13
ATOM     13  N1  UNL     1     151.461 156.182 160.052  0.00  0.00    -0.312 N 
ATOM     14  C2  UNL     1     151.570 154.706 159.988  0.00  0.00    +0.122 C 
ATOM     15  C3  UNL     1     151.570 154.109 161.417  0.00  0.00    +0.103 C 
ATOM     16  C4  UNL     1     150.269 156.608 160.815  0.00  0.00    +0.122 C 
ATOM     17  C5  UNL     1     150.304 155.992 162.235  0.00  0.00    +0.103 C 
ATOM     18  N2  UNL     1     150.438 154.517 162.280  0.00  0.00    -0.302 NA
ATOM     19  C6  UNL     1     149.197 153.853 161.884  0.00  0.00    +0.105 C 
ENDBRANCH   1  13
BRANCH   6  20
ATOM     20  C10 UNL     1     151.728 155.530 154.043  0.00  0.00    +0.034 A 
ATOM     21  C11 UNL     1     150.996 154.595 153.290  0.00  0.00    +0.027 A 
ATOM     22  C12 UNL     1     151.018 154.609 151.893  0.00  0.00    +0.047 A 
ATOM     23  C13 UNL     1     151.777 155.561 151.229  0.00  0.00    +0.117 A 
ATOM     24  C14 UNL     1     152.486 156.475 153.344  0.00  0.00    +0.027 A 
ATOM     25  C15 UNL     1     152.513 156.496 151.943  0.00  0.00    +0.047 A 
BRANCH  23  26
ATOM     26  O1  UNL     1     151.775 155.544 149.867  0.00  0.00    -0.507 OA
ATOM     27  H15 UNL     1     151.345 154.724 149.571  0.00  0.00    +0.292 HD
ENDBRANCH  23  26
ENDBRANCH   6  20
TORSDOF 3
ENDMDL
MODEL 3
REMARK VINA RESULT:    -8.004      3.187      5.361
REMARK INTER + INTRA:          -9.708
REMARK INTER:                  -9.304
REMARK INTRA:                  -0.405
REMARK UNBOUND:                -0.535
REMARK  Name = /home/vital/Documents/PhD_2021/Malaria_codes/data/pdb_ligands_mmv/ligand_353.pdb
REMARK  4 active torsions:
REMARK  status: ('A' for Active; 'I' for Inactive)
REMARK    1  A    between atoms: C1_1  and  N1_2
REMARK    2  A    between atoms: N2_7  and  C6_8
REMARK    3  A    between atoms: N4_13  and  C10_14
REMARK    4  A    between atoms: C13_17  and  O1_18
REMARK                            x       y       z     vdW  Elec       q    Type
REMARK                         _______ _______ _______ _____ _____    ______ ____
ROOT
ATOM      1  C1  UNL     1     151.703 157.512 165.677  0.00  0.00    +0.134 A 
ATOM      2  C7  UNL     1     152.217 158.811 165.827  0.00  0.00    +0.040 A 
ATOM      3  C8  UNL     1     152.211 159.590 164.669  0.00  0.00    +0.078 A 
ATOM      4  N3  UNL     1     151.743 159.143 163.501  0.00  0.00    -0.214 NA
ATOM      5  C9  UNL     1     151.250 157.902 163.449  0.00  0.00    +0.222 A 
ATOM      6  N4  UNL     1     150.734 157.364 162.272  0.00  0.00    -0.284 N 
ATOM      7  N5  UNL     1     151.218 157.073 164.500  0.00  0.00    -0.199 NA
ATOM      8  C16 UNL     1     152.710 160.886 164.738  0.00  0.00    +0.028 A 
ATOM      9  C17 UNL     1     153.204 161.428 165.928  0.00  0.00    +0.002 A 
ATOM     10  C18 UNL     1     153.200 160.663 167.086  0.00  0.00    +0.001 A 
ATOM     11  C19 UNL     1     152.707 159.362 167.040  0.00  0.00    +0.013 A 
ATOM     12  H12 UNL     1     150.418 156.424 162.457  0.00  0.00    +0.155 HD
ENDROOT
BRANCH   1  13
ATOM     13  N1  UNL     1     151.711 156.624 166.784  0.00  0.00    -0.312 N 
ATOM     14  C2  UNL     1     153.008 155.913 166.848  0.00  0.00    +0.122 C 
ATOM     15  C3  UNL     1     153.036 154.965 168.074  0.00  0.00    +0.103 C 
ATOM     16  C4  UNL     1     150.573 155.682 166.761  0.00  0.00    +0.122 C 
ATOM     17  C5  UNL     1     150.634 154.752 167.998  0.00  0.00    +0.103 C 
ATOM     18  N2  UNL     1     151.906 154.012 168.168  0.00  0.00    -0.302 NA
ATOM     19  C6  UNL     1     152.034 152.932 167.191  0.00  0.00    +0.105 C 
ENDBRANCH   1  13
BRANCH   6  20
ATOM     20  C10 UNL     1     150.555 157.848 160.972  0.00  0.00    +0.034 A 
ATOM     21  C11 UNL     1     149.690 158.939 160.778  0.00  0.00    +0.027 A 
ATOM     22  C12 UNL     1     149.463 159.470 159.505  0.00  0.00    +0.047 A 
ATOM     23  C13 UNL     1     150.100 158.912 158.407  0.00  0.00    +0.117 A 
ATOM     24  C14 UNL     1     151.181 157.307 159.844  0.00  0.00    +0.027 A 
ATOM     25  C15 UNL     1     150.958 157.833 158.564  0.00  0.00    +0.047 A 
BRANCH  23  26
ATOM     26  O1  UNL     1     149.855 159.455 157.182  0.00  0.00    -0.507 OA
ATOM     27  H15 UNL     1     150.503 159.098 156.552  0.00  0.00    +0.292 HD
ENDBRANCH  23  26
ENDBRANCH   6  20
TORSDOF 3
ENDMDL
MODEL 4
REMARK VINA RESULT:    -7.806      5.635      7.744
REMARK INTER + INTRA:          -9.482
REMARK INTER:                 -10.220
REMARK INTRA:                   0.738
REMARK UNBOUND:                -0.535
REMARK  Name = /home/vital/Documents/PhD_2021/Malaria_codes/data/pdb_ligands_mmv/ligand_353.pdb
REMARK  4 active torsions:
REMARK  status: ('A' for Active; 'I' for Inactive)
REMARK    1  A    between atoms: C1_1  and  N1_2
REMARK    2  A    between atoms: N2_7  and  C6_8
REMARK    3  A    between atoms: N4_13  and  C10_14
REMARK    4  A    between atoms: C13_17  and  O1_18
REMARK                            x       y       z     vdW  Elec       q    Type
REMARK                         _______ _______ _______ _____ _____    ______ ____
ROOT
ATOM      1  C1  UNL     1     151.326 158.514 158.275  0.00  0.00    +0.134 A 
ATOM      2  C7  UNL     1     151.346 157.231 158.847  0.00  0.00    +0.040 A 
ATOM      3  C8  UNL     1     151.649 156.193 157.964  0.00  0.00    +0.078 A 
ATOM      4  N3  UNL     1     151.912 156.398 156.671  0.00  0.00    -0.214 NA
ATOM      5  C9  UNL     1     151.894 157.654 156.212  0.00  0.00    +0.222 A 
ATOM      6  N4  UNL     1     152.166 157.954 154.879  0.00  0.00    -0.284 N 
ATOM      7  N5  UNL     1     151.608 158.717 156.974  0.00  0.00    -0.199 NA
ATOM      8  C16 UNL     1     151.682 154.892 158.455  0.00  0.00    +0.028 A 
ATOM      9  C17 UNL     1     151.432 154.601 159.799  0.00  0.00    +0.002 A 
ATOM     10  C18 UNL     1     151.143 155.629 160.684  0.00  0.00    +0.001 A 
ATOM     11  C19 UNL     1     151.103 156.939 160.214  0.00  0.00    +0.013 A 
ATOM     12  H12 UNL     1     152.101 158.953 154.753  0.00  0.00    +0.155 HD
ENDROOT
BRANCH   1  13
ATOM     13  N1  UNL     1     150.980 159.632 159.079  0.00  0.00    -0.312 N 
ATOM     14  C2  UNL     1     152.192 160.173 159.735  0.00  0.00    +0.122 C 
ATOM     15  C3  UNL     1     151.825 161.413 160.589  0.00  0.00    +0.103 C 
ATOM     16  C4  UNL     1     149.922 159.315 160.061  0.00  0.00    +0.122 C 
ATOM     17  C5  UNL     1     149.584 160.575 160.896  0.00  0.00    +0.103 C 
ATOM     18  N2  UNL     1     150.738 161.211 161.574  0.00  0.00    -0.302 NA
ATOM     19  C6  UNL     1     151.191 160.420 162.717  0.00  0.00    +0.105 C 
ENDBRANCH   1  13
BRANCH   6  20
ATOM     20  C10 UNL     1     152.516 157.195 153.758  0.00  0.00    +0.034 A 
ATOM     21  C11 UNL     1     151.691 156.116 153.396  0.00  0.00    +0.027 A 
ATOM     22  C12 UNL     1     151.984 155.313 152.291  0.00  0.00    +0.047 A 
ATOM     23  C13 UNL     1     153.113 155.581 151.531  0.00  0.00    +0.117 A 
ATOM     24  C14 UNL     1     153.648 157.437 152.973  0.00  0.00    +0.027 A 
ATOM     25  C15 UNL     1     153.950 156.637 151.862  0.00  0.00    +0.047 A 
BRANCH  23  26
ATOM     26  O1  UNL     1     153.367 154.778 150.460  0.00  0.00    -0.507 OA
ATOM     27  H15 UNL     1     152.840 153.968 150.552  0.00  0.00    +0.292 HD
ENDBRANCH  23  26
ENDBRANCH   6  20
TORSDOF 3
ENDMDL
MODEL 5
REMARK VINA RESULT:    -7.687      2.044      2.650
REMARK INTER + INTRA:          -9.345
REMARK INTER:                  -8.833
REMARK INTRA:                  -0.512
REMARK UNBOUND:                -0.535
REMARK  Name = /home/vital/Documents/PhD_2021/Malaria_codes/data/pdb_ligands_mmv/ligand_353.pdb
REMARK  4 active torsions:
REMARK  status: ('A' for Active; 'I' for Inactive)
REMARK    1  A    between atoms: C1_1  and  N1_2
REMARK    2  A    between atoms: N2_7  and  C6_8
REMARK    3  A    between atoms: N4_13  and  C10_14
REMARK    4  A    between atoms: C13_17  and  O1_18
REMARK                            x       y       z     vdW  Elec       q    Type
REMARK                         _______ _______ _______ _____ _____    ______ ____
ROOT
ATOM      1  C1  UNL     1     150.645 155.974 165.009  0.00  0.00    +0.134 A 
ATOM      2  C7  UNL     1     149.885 154.795 164.934  0.00  0.00    +0.040 A 
ATOM      3  C8  UNL     1     149.548 154.387 163.643  0.00  0.00    +0.078 A 
ATOM      4  N3  UNL     1     149.925 155.058 162.552  0.00  0.00    -0.214 NA
ATOM      5  C9  UNL     1     150.667 156.159 162.710  0.00  0.00    +0.222 A 
ATOM      6  N4  UNL     1     151.110 156.911 161.624  0.00  0.00    -0.284 N 
ATOM      7  N5  UNL     1     151.037 156.637 163.905  0.00  0.00    -0.199 NA
ATOM      8  C16 UNL     1     148.790 153.231 163.488  0.00  0.00    +0.028 A 
ATOM      9  C17 UNL     1     148.370 152.468 164.581  0.00  0.00    +0.002 A 
ATOM     10  C18 UNL     1     148.714 152.861 165.867  0.00  0.00    +0.001 A 
ATOM     11  C19 UNL     1     149.470 154.016 166.045  0.00  0.00    +0.013 A 
ATOM     12  H12 UNL     1     151.650 157.690 161.969  0.00  0.00    +0.155 HD
ENDROOT
BRANCH   1  13
ATOM     13  N1  UNL     1     150.998 156.498 166.280  0.00  0.00    -0.312 N 
ATOM     14  C2  UNL     1     150.303 157.788 166.501  0.00  0.00    +0.122 C 
ATOM     15  C3  UNL     1     150.659 158.351 167.900  0.00  0.00    +0.103 C 
ATOM     16  C4  UNL     1     152.460 156.630 166.452  0.00  0.00    +0.122 C 
ATOM     17  C5  UNL     1     152.776 157.195 167.858  0.00  0.00    +0.103 C 
ATOM     18  N2  UNL     1     152.106 158.475 168.189  0.00  0.00    -0.302 NA
ATOM     19  C6  UNL     1     152.702 159.596 167.464  0.00  0.00    +0.105 C 
ENDBRANCH   1  13
BRANCH   6  20
ATOM     20  C10 UNL     1     150.983 156.791 160.237  0.00  0.00    +0.034 A 
ATOM     21  C11 UNL     1     150.458 157.879 159.517  0.00  0.00    +0.027 A 
ATOM     22  C12 UNL     1     150.300 157.826 158.129  0.00  0.00    +0.047 A 
ATOM     23  C13 UNL     1     150.665 156.678 157.442  0.00  0.00    +0.117 A 
ATOM     24  C14 UNL     1     151.339 155.648 159.515  0.00  0.00    +0.027 A 
ATOM     25  C15 UNL     1     151.184 155.586 158.123  0.00  0.00    +0.047 A 
BRANCH  23  26
ATOM     26  O1  UNL     1     150.498 156.662 156.091  0.00  0.00    -0.507 OA
ATOM     27  H15 UNL     1     151.229 156.158 155.697  0.00  0.00    +0.292 HD
ENDBRANCH  23  26
ENDBRANCH   6  20
TORSDOF 3
ENDMDL
MODEL 6
REMARK VINA RESULT:    -7.595      6.495      9.382
REMARK INTER + INTRA:          -9.240
REMARK INTER:                  -8.629
REMARK INTRA:                  -0.612
REMARK UNBOUND:                -0.535
REMARK  Name = /home/vital/Documents/PhD_2021/Malaria_codes/data/pdb_ligands_mmv/ligand_353.pdb
REMARK  4 active torsions:
REMARK  status: ('A' for Active; 'I' for Inactive)
REMARK    1  A    between atoms: C1_1  and  N1_2
REMARK    2  A    between atoms: N2_7  and  C6_8
REMARK    3  A    between atoms: N4_13  and  C10_14
REMARK    4  A    between atoms: C13_17  and  O1_18
REMARK                            x       y       z     vdW  Elec       q    Type
REMARK                         _______ _______ _______ _____ _____    ______ ____
ROOT
ATOM      1  C1  UNL     1     144.411 146.848 165.135  0.00  0.00    +0.134 A 
ATOM      2  C7  UNL     1     143.492 147.569 165.915  0.00  0.00    +0.040 A 
ATOM      3  C8  UNL     1     143.718 148.945 165.977  0.00  0.00    +0.078 A 
ATOM      4  N3  UNL     1     144.726 149.541 165.335  0.00  0.00    -0.214 NA
ATOM      5  C9  UNL     1     145.543 148.784 164.596  0.00  0.00    +0.222 A 
ATOM      6  N4  UNL     1     146.612 149.328 163.888  0.00  0.00    -0.284 N 
ATOM      7  N5  UNL     1     145.416 147.456 164.477  0.00  0.00    -0.199 NA
ATOM      8  C16 UNL     1     142.854 149.727 166.736  0.00  0.00    +0.028 A 
ATOM      9  C17 UNL     1     141.768 149.177 167.423  0.00  0.00    +0.002 A 
ATOM     10  C18 UNL     1     141.530 147.812 167.355  0.00  0.00    +0.001 A 
ATOM     11  C19 UNL     1     142.384 147.010 166.603  0.00  0.00    +0.013 A 
ATOM     12  H12 UNL     1     147.089 148.585 163.401  0.00  0.00    +0.155 HD
ENDROOT
BRANCH   1  13
ATOM     13  N1  UNL     1     144.297 145.436 165.049  0.00  0.00    -0.312 N 
ATOM     14  C2  UNL     1     145.573 144.802 165.454  0.00  0.00    +0.122 C 
ATOM     15  C3  UNL     1     145.445 143.260 165.392  0.00  0.00    +0.103 C 
ATOM     16  C4  UNL     1     143.865 144.984 163.709  0.00  0.00    +0.122 C 
ATOM     17  C5  UNL     1     143.750 143.440 163.685  0.00  0.00    +0.103 C 
ATOM     18  N2  UNL     1     144.970 142.710 164.102  0.00  0.00    -0.302 NA
ATOM     19  C6  UNL     1     146.011 142.775 163.077  0.00  0.00    +0.105 C 
ENDBRANCH   1  13
BRANCH   6  20
ATOM     20  C10 UNL     1     147.107 150.624 163.710  0.00  0.00    +0.034 A 
ATOM     21  C11 UNL     1     148.074 151.100 164.612  0.00  0.00    +0.027 A 
ATOM     22  C12 UNL     1     148.608 152.386 164.495  0.00  0.00    +0.047 A 
ATOM     23  C13 UNL     1     148.179 153.215 163.469  0.00  0.00    +0.117 A 
ATOM     24  C14 UNL     1     146.693 151.485 162.688  0.00  0.00    +0.027 A 
ATOM     25  C15 UNL     1     147.223 152.776 162.563  0.00  0.00    +0.047 A 
BRANCH  23  26
ATOM     26  O1  UNL     1     148.721 154.462 163.386  0.00  0.00    -0.507 OA
ATOM     27  H15 UNL     1     149.560 154.399 162.901  0.00  0.00    +0.292 HD
ENDBRANCH  23  26
ENDBRANCH   6  20
TORSDOF 3
ENDMDL
MODEL 7
REMARK VINA RESULT:    -7.394      5.840      8.601
REMARK INTER + INTRA:          -9.009
REMARK INTER:                  -8.607
REMARK INTRA:                  -0.402
REMARK UNBOUND:                -0.535
REMARK  Name = /home/vital/Documents/PhD_2021/Malaria_codes/data/pdb_ligands_mmv/ligand_353.pdb
REMARK  4 active torsions:
REMARK  status: ('A' for Active; 'I' for Inactive)
REMARK    1  A    between atoms: C1_1  and  N1_2
REMARK    2  A    between atoms: N2_7  and  C6_8
REMARK    3  A    between atoms: N4_13  and  C10_14
REMARK    4  A    between atoms: C13_17  and  O1_18
REMARK                            x       y       z     vdW  Elec       q    Type
REMARK                         _______ _______ _______ _____ _____    ______ ____
ROOT
ATOM      1  C1  UNL     1     151.801 160.474 167.016  0.00  0.00    +0.134 A 
ATOM      2  C7  UNL     1     151.693 160.533 165.616  0.00  0.00    +0.040 A 
ATOM      3  C8  UNL     1     151.583 159.298 164.977  0.00  0.00    +0.078 A 
ATOM      4  N3  UNL     1     151.570 158.139 165.640  0.00  0.00    -0.214 NA
ATOM      5  C9  UNL     1     151.654 158.172 166.974  0.00  0.00    +0.222 A 
ATOM      6  N4  UNL     1     151.638 157.010 167.741  0.00  0.00    -0.284 N 
ATOM      7  N5  UNL     1     151.771 159.304 167.681  0.00  0.00    -0.199 NA
ATOM      8  C16 UNL     1     151.479 159.275 163.590  0.00  0.00    +0.028 A 
ATOM      9  C17 UNL     1     151.471 160.447 162.828  0.00  0.00    +0.002 A 
ATOM     10  C18 UNL     1     151.566 161.679 163.459  0.00  0.00    +0.001 A 
ATOM     11  C19 UNL     1     151.674 161.725 164.846  0.00  0.00    +0.013 A 
ATOM     12  H12 UNL     1     151.710 157.264 168.715  0.00  0.00    +0.155 HD
ENDROOT
BRANCH   1  13
ATOM     13  N1  UNL     1     151.967 161.673 167.755  0.00  0.00    -0.312 N 
ATOM     14  C2  UNL     1     153.409 161.983 167.894  0.00  0.00    +0.122 C 
ATOM     15  C3  UNL     1     153.596 163.308 168.674  0.00  0.00    +0.103 C 
ATOM     16  C4  UNL     1     151.290 161.626 169.069  0.00  0.00    +0.122 C 
ATOM     17  C5  UNL     1     151.500 162.965 169.818  0.00  0.00    +0.103 C 
ATOM     18  N2  UNL     1     152.913 163.379 169.986  0.00  0.00    -0.302 NA
ATOM     19  C6  UNL     1     153.596 162.564 170.989  0.00  0.00    +0.105 C 
ENDBRANCH   1  13
BRANCH   6  20
ATOM     20  C10 UNL     1     151.523 155.647 167.448  0.00  0.00    +0.034 A 
ATOM     21  C11 UNL     1     152.482 154.766 167.977  0.00  0.00    +0.027 A 
ATOM     22  C12 UNL     1     152.429 153.393 167.721  0.00  0.00    +0.047 A 
ATOM     23  C13 UNL     1     151.413 152.883 166.927  0.00  0.00    +0.117 A 
ATOM     24  C14 UNL     1     150.512 155.102 166.650  0.00  0.00    +0.027 A 
ATOM     25  C15 UNL     1     150.451 153.727 166.388  0.00  0.00    +0.047 A 
BRANCH  23  26
ATOM     26  O1  UNL     1     151.392 151.541 166.699  0.00  0.00    -0.507 OA
ATOM     27  H15 UNL     1     151.103 151.095 167.512  0.00  0.00    +0.292 HD
ENDBRANCH  23  26
ENDBRANCH   6  20
TORSDOF 3
ENDMDL
MODEL 8
REMARK VINA RESULT:    -7.024      3.747      4.935
REMARK INTER + INTRA:          -8.585
REMARK INTER:                  -8.400
REMARK INTRA:                  -0.186
REMARK UNBOUND:                -0.535
REMARK  Name = /home/vital/Documents/PhD_2021/Malaria_codes/data/pdb_ligands_mmv/ligand_353.pdb
REMARK  4 active torsions:
REMARK  status: ('A' for Active; 'I' for Inactive)
REMARK    1  A    between atoms: C1_1  and  N1_2
REMARK    2  A    between atoms: N2_7  and  C6_8
REMARK    3  A    between atoms: N4_13  and  C10_14
REMARK    4  A    between atoms: C13_17  and  O1_18
REMARK                            x       y       z     vdW  Elec       q    Type
REMARK                         _______ _______ _______ _____ _____    ______ ____
ROOT
ATOM      1  C1  UNL     1     151.836 158.193 164.789  0.00  0.00    +0.134 A 
ATOM      2  C7  UNL     1     151.327 156.977 165.275  0.00  0.00    +0.040 A 
ATOM      3  C8  UNL     1     150.875 156.090 164.297  0.00  0.00    +0.078 A 
ATOM      4  N3  UNL     1     150.929 156.365 162.991  0.00  0.00    -0.214 NA
ATOM      5  C9  UNL     1     151.449 157.537 162.612  0.00  0.00    +0.222 A 
ATOM      6  N4  UNL     1     151.550 157.897 161.270  0.00  0.00    -0.284 N 
ATOM      7  N5  UNL     1     151.903 158.458 163.471  0.00  0.00    -0.199 NA
ATOM      8  C16 UNL     1     150.351 154.867 164.701  0.00  0.00    +0.028 A 
ATOM      9  C17 UNL     1     150.275 154.502 166.049  0.00  0.00    +0.002 A 
ATOM     10  C18 UNL     1     150.736 155.374 167.025  0.00  0.00    +0.001 A 
ATOM     11  C19 UNL     1     151.262 156.605 166.643  0.00  0.00    +0.013 A 
ATOM     12  H12 UNL     1     151.971 158.812 161.211  0.00  0.00    +0.155 HD
ENDROOT
BRANCH   1  13
ATOM     13  N1  UNL     1     152.276 159.183 165.706  0.00  0.00    -0.312 N 
ATOM     14  C2  UNL     1     151.111 159.921 166.245  0.00  0.00    +0.122 C 
ATOM     15  C3  UNL     1     151.581 160.983 167.271  0.00  0.00    +0.103 C 
ATOM     16  C4  UNL     1     153.275 160.098 165.114  0.00  0.00    +0.122 C 
ATOM     17  C5  UNL     1     153.720 161.143 166.166  0.00  0.00    +0.103 C 
ATOM     18  N2  UNL     1     152.621 161.919 166.788  0.00  0.00    -0.302 NA
ATOM     19  C6  UNL     1     152.067 162.902 165.859  0.00  0.00    +0.105 C 
ENDBRANCH   1  13
BRANCH   6  20
ATOM     20  C10 UNL     1     151.227 157.269 160.063  0.00  0.00    +0.034 A 
ATOM     21  C11 UNL     1     150.721 158.056 159.013  0.00  0.00    +0.027 A 
ATOM     22  C12 UNL     1     150.374 157.492 157.783  0.00  0.00    +0.047 A 
ATOM     23  C13 UNL     1     150.530 156.128 157.586  0.00  0.00    +0.117 A 
ATOM     24  C14 UNL     1     151.370 155.896 159.834  0.00  0.00    +0.027 A 
ATOM     25  C15 UNL     1     151.025 155.323 158.602  0.00  0.00    +0.047 A 
BRANCH  23  26
ATOM     26  O1  UNL     1     150.182 155.614 156.374  0.00  0.00    -0.507 OA
ATOM     27  H15 UNL     1     149.410 155.037 156.495  0.00  0.00    +0.292 HD
ENDBRANCH  23  26
ENDBRANCH   6  20
TORSDOF 3
ENDMDL
MODEL 9
REMARK VINA RESULT:    -6.968      4.022      6.153
REMARK INTER + INTRA:          -8.521
REMARK INTER:                  -8.168
REMARK INTRA:                  -0.353
REMARK UNBOUND:                -0.535
REMARK  Name = /home/vital/Documents/PhD_2021/Malaria_codes/data/pdb_ligands_mmv/ligand_353.pdb
REMARK  4 active torsions:
REMARK  status: ('A' for Active; 'I' for Inactive)
REMARK    1  A    between atoms: C1_1  and  N1_2
REMARK    2  A    between atoms: N2_7  and  C6_8
REMARK    3  A    between atoms: N4_13  and  C10_14
REMARK    4  A    between atoms: C13_17  and  O1_18
REMARK                            x       y       z     vdW  Elec       q    Type
REMARK                         _______ _______ _______ _____ _____    ______ ____
ROOT
ATOM      1  C1  UNL     1     151.566 159.256 164.764  0.00  0.00    +0.134 A 
ATOM      2  C7  UNL     1     151.480 160.658 164.768  0.00  0.00    +0.040 A 
ATOM      3  C8  UNL     1     151.426 161.252 163.506  0.00  0.00    +0.078 A 
ATOM      4  N3  UNL     1     151.445 160.546 162.373  0.00  0.00    -0.214 NA
ATOM      5  C9  UNL     1     151.505 159.213 162.459  0.00  0.00    +0.222 A 
ATOM      6  N4  UNL     1     151.518 158.403 161.326  0.00  0.00    -0.284 N 
ATOM      7  N5  UNL     1     151.567 158.548 163.620  0.00  0.00    -0.199 NA
ATOM      8  C16 UNL     1     151.347 162.639 163.428  0.00  0.00    +0.028 A 
ATOM      9  C17 UNL     1     151.309 163.445 164.570  0.00  0.00    +0.002 A 
ATOM     10  C18 UNL     1     151.348 162.859 165.827  0.00  0.00    +0.001 A 
ATOM     11  C19 UNL     1     151.430 161.473 165.929  0.00  0.00    +0.013 A 
ATOM     12  H12 UNL     1     151.564 157.438 161.619  0.00  0.00    +0.155 HD
ENDROOT
BRANCH   1  13
ATOM     13  N1  UNL     1     151.675 158.560 165.996  0.00  0.00    -0.312 N 
ATOM     14  C2  UNL     1     152.556 157.380 165.830  0.00  0.00    +0.122 C 
ATOM     15  C3  UNL     1     152.705 156.633 167.180  0.00  0.00    +0.103 C 
ATOM     16  C4  UNL     1     150.358 158.183 166.552  0.00  0.00    +0.122 C 
ATOM     17  C5  UNL     1     150.547 157.439 167.897  0.00  0.00    +0.103 C 
ATOM     18  N2  UNL     1     151.436 156.255 167.843  0.00  0.00    -0.302 NA
ATOM     19  C6  UNL     1     150.792 155.131 167.165  0.00  0.00    +0.105 C 
ENDBRANCH   1  13
BRANCH   6  20
ATOM     20  C10 UNL     1     151.458 158.646 159.950  0.00  0.00    +0.034 A 
ATOM     21  C11 UNL     1     152.387 159.539 159.387  0.00  0.00    +0.027 A 
ATOM     22  C12 UNL     1     152.380 159.830 158.020  0.00  0.00    +0.047 A 
ATOM     23  C13 UNL     1     151.440 159.230 157.197  0.00  0.00    +0.117 A 
ATOM     24  C14 UNL     1     150.522 158.058 159.093  0.00  0.00    +0.027 A 
ATOM     25  C15 UNL     1     150.508 158.345 157.722  0.00  0.00    +0.047 A 
BRANCH  23  26
ATOM     26  O1  UNL     1     151.463 159.537 155.870  0.00  0.00    -0.507 OA
ATOM     27  H15 UNL     1     150.548 159.568 155.546  0.00  0.00    +0.292 HD
ENDBRANCH  23  26
ENDBRANCH   6  20
TORSDOF 3
ENDMDL
