MODEL 1
REMARK VINA RESULT:    -8.882      0.000      0.000
REMARK INTER + INTRA:         -13.904
REMARK INTER:                 -13.036
REMARK INTRA:                  -0.868
REMARK UNBOUND:                -0.868
REMARK  Name = /home/vital/Documents/PhD_2021/Malaria_codes/data/pdb_ligands_mmv/ligand_93.pdb
REMARK  9 active torsions:
REMARK  status: ('A' for Active; 'I' for Inactive)
REMARK    1  A    between atoms: C1_1  and  O1_2
REMARK    2  A    between atoms: O1_2  and  C2_3
REMARK    3  A    between atoms: C2_3  and  C3_4
REMARK    4  A    between atoms: C3_4  and  N1_5
REMARK    5  A    between atoms: C4_6  and  C5_8
REMARK    6  A    between atoms: C8_11  and  O3_12
REMARK    7  A    between atoms: O3_12  and  C9_13
REMARK    8  A    between atoms: N2_16  and  C12_17
REMARK    9  A    between atoms: C12_17  and  C13_18
REMARK                            x       y       z     vdW  Elec       q    Type
REMARK                         _______ _______ _______ _____ _____    ______ ____
ROOT
ATOM      1  O3  UNL     1     151.587 155.760 156.095  0.00  0.00    -0.487 OA
ENDROOT
BRANCH   1   5
ATOM      2  C5  UNL     1     150.407 158.045 159.386  0.00  0.00    +0.038 A 
ATOM      3  C6  UNL     1     150.170 158.519 158.089  0.00  0.00    +0.017 A 
ATOM      4  C7  UNL     1     150.546 157.760 156.977  0.00  0.00    +0.048 A 
ATOM      5  C8  UNL     1     151.155 156.516 157.152  0.00  0.00    +0.139 A 
ATOM      6  C21 UNL     1     151.422 156.059 158.447  0.00  0.00    +0.083 A 
ATOM      7 CL1  UNL     1     152.209 154.543 158.717  0.00  0.00    -0.080 Cl
ATOM      8  C22 UNL     1     151.049 156.815 159.563  0.00  0.00    +0.036 A 
BRANCH   2  10
ATOM      9  N1  UNL     1     150.376 160.221 160.490  0.00  0.00    -0.309 N 
ATOM     10  C4  UNL     1     149.999 158.897 160.539  0.00  0.00    +0.244 C 
ATOM     11  O2  UNL     1     149.383 158.406 161.479  0.00  0.00    -0.270 OA
ATOM     12  H8  UNL     1     151.161 160.478 159.904  0.00  0.00    +0.149 HD
BRANCH   9  13
ATOM     13  C3  UNL     1     150.170 161.095 161.634  0.00  0.00    +0.132 C 
BRANCH  13  14
ATOM     14  C2  UNL     1     151.499 161.623 162.168  0.00  0.00    +0.178 C 
BRANCH  14  16
ATOM     15  C1  UNL     1     151.332 160.133 163.992  0.00  0.00    +0.194 C 
ATOM     16  O1  UNL     1     152.142 160.579 162.910  0.00  0.00    -0.381 OA
ENDBRANCH  14  16
ENDBRANCH  13  14
ENDBRANCH   9  13
ENDBRANCH   2  10
ENDBRANCH   1   5
BRANCH   1  17
ATOM     17  C9  UNL     1     151.594 156.411 154.813  0.00  0.00    +0.176 C 
ATOM     18  C10 UNL     1     152.920 157.165 154.660  0.00  0.00    +0.060 C 
ATOM     19  C11 UNL     1     153.438 157.096 153.226  0.00  0.00    +0.088 C 
ATOM     20  N2  UNL     1     153.733 155.712 152.823  0.00  0.00    -0.298 NA
ATOM     21  C19 UNL     1     152.783 154.727 153.365  0.00  0.00    +0.088 C 
ATOM     22  C20 UNL     1     151.431 155.324 153.743  0.00  0.00    +0.060 C 
BRANCH  20  23
ATOM     23  C12 UNL     1     153.891 155.578 151.367  0.00  0.00    +0.119 C 
BRANCH  23  24
ATOM     24  C13 UNL     1     155.154 154.839 150.969  0.00  0.00    -0.030 A 
ATOM     25  C14 UNL     1     156.185 154.638 151.905  0.00  0.00    +0.008 A 
ATOM     26  C15 UNL     1     157.346 153.947 151.548  0.00  0.00    +0.041 A 
ATOM     27  C16 UNL     1     157.477 153.449 150.258  0.00  0.00    +0.158 A 
ATOM     28  F1  UNL     1     158.591 152.783 149.919  0.00  0.00    -0.202 F 
ATOM     29  C17 UNL     1     156.465 153.641 149.326  0.00  0.00    +0.159 A 
ATOM     30  F2  UNL     1     156.593 153.161 148.080  0.00  0.00    -0.202 F 
ATOM     31  C18 UNL     1     155.304 154.330 149.670  0.00  0.00    +0.046 A 
ENDBRANCH  23  24
ENDBRANCH  20  23
ENDBRANCH   1  17
TORSDOF 8
ENDMDL
MODEL 2
REMARK VINA RESULT:    -8.649      3.474      4.521
REMARK INTER + INTRA:         -13.562
REMARK INTER:                 -12.754
REMARK INTRA:                  -0.808
REMARK UNBOUND:                -0.868
REMARK  Name = /home/vital/Documents/PhD_2021/Malaria_codes/data/pdb_ligands_mmv/ligand_93.pdb
REMARK  9 active torsions:
REMARK  status: ('A' for Active; 'I' for Inactive)
REMARK    1  A    between atoms: C1_1  and  O1_2
REMARK    2  A    between atoms: O1_2  and  C2_3
REMARK    3  A    between atoms: C2_3  and  C3_4
REMARK    4  A    between atoms: C3_4  and  N1_5
REMARK    5  A    between atoms: C4_6  and  C5_8
REMARK    6  A    between atoms: C8_11  and  O3_12
REMARK    7  A    between atoms: O3_12  and  C9_13
REMARK    8  A    between atoms: N2_16  and  C12_17
REMARK    9  A    between atoms: C12_17  and  C13_18
REMARK                            x       y       z     vdW  Elec       q    Type
REMARK                         _______ _______ _______ _____ _____    ______ ____
ROOT
ATOM      1  O3  UNL     1     150.518 156.840 157.517  0.00  0.00    -0.487 OA
ENDROOT
BRANCH   1   5
ATOM      2  C5  UNL     1     150.371 155.918 161.588  0.00  0.00    +0.038 A 
ATOM      3  C6  UNL     1     150.375 154.886 160.642  0.00  0.00    +0.017 A 
ATOM      4  C7  UNL     1     150.439 155.177 159.275  0.00  0.00    +0.048 A 
ATOM      5  C8  UNL     1     150.507 156.503 158.845  0.00  0.00    +0.139 A 
ATOM      6  C21 UNL     1     150.467 157.535 159.790  0.00  0.00    +0.083 A 
ATOM      7 CL1  UNL     1     150.509 159.194 159.307  0.00  0.00    -0.080 Cl
ATOM      8  C22 UNL     1     150.403 157.249 161.157  0.00  0.00    +0.036 A 
BRANCH   2  10
ATOM      9  N1  UNL     1     150.274 154.213 163.331  0.00  0.00    -0.309 N 
ATOM     10  C4  UNL     1     150.289 155.557 163.032  0.00  0.00    +0.244 C 
ATOM     11  O2  UNL     1     150.214 156.437 163.883  0.00  0.00    -0.270 OA
ATOM     12  H8  UNL     1     149.978 153.562 162.613  0.00  0.00    +0.149 HD
BRANCH   9  13
ATOM     13  C3  UNL     1     150.035 153.756 164.691  0.00  0.00    +0.132 C 
BRANCH  13  14
ATOM     14  C2  UNL     1     150.556 152.335 164.891  0.00  0.00    +0.178 C 
BRANCH  14  16
ATOM     15  C1  UNL     1     151.083 153.359 166.953  0.00  0.00    +0.194 C 
ATOM     16  O1  UNL     1     151.414 152.318 166.040  0.00  0.00    -0.381 OA
ENDBRANCH  14  16
ENDBRANCH  13  14
ENDBRANCH   9  13
ENDBRANCH   2  10
ENDBRANCH   1   5
BRANCH   1  17
ATOM     17  C9  UNL     1     151.750 156.603 156.816  0.00  0.00    +0.176 C 
ATOM     18  C10 UNL     1     151.490 155.566 155.717  0.00  0.00    +0.060 C 
ATOM     19  C11 UNL     1     152.290 155.878 154.456  0.00  0.00    +0.088 C 
ATOM     20  N2  UNL     1     151.894 157.168 153.869  0.00  0.00    -0.298 NA
ATOM     21  C19 UNL     1     151.573 158.197 154.872  0.00  0.00    +0.088 C 
ATOM     22  C20 UNL     1     152.215 157.944 156.234  0.00  0.00    +0.060 C 
BRANCH  20  23
ATOM     23  C12 UNL     1     152.868 157.652 152.878  0.00  0.00    +0.119 C 
BRANCH  23  24
ATOM     24  C13 UNL     1     153.264 156.596 151.865  0.00  0.00    -0.030 A 
ATOM     25  C14 UNL     1     152.346 156.168 150.889  0.00  0.00    +0.008 A 
ATOM     26  C15 UNL     1     152.708 155.203 149.945  0.00  0.00    +0.041 A 
ATOM     27  C16 UNL     1     153.990 154.669 149.970  0.00  0.00    +0.158 A 
ATOM     28  F1  UNL     1     154.336 153.745 149.061  0.00  0.00    -0.202 F 
ATOM     29  C17 UNL     1     154.905 155.084 150.929  0.00  0.00    +0.159 A 
ATOM     30  F2  UNL     1     156.142 154.567 150.953  0.00  0.00    -0.202 F 
ATOM     31  C18 UNL     1     154.553 156.044 151.876  0.00  0.00    +0.046 A 
ENDBRANCH  23  24
ENDBRANCH  20  23
ENDBRANCH   1  17
TORSDOF 8
ENDMDL
MODEL 3
REMARK VINA RESULT:    -8.159      6.215     12.134
REMARK INTER + INTRA:         -12.842
REMARK INTER:                 -11.733
REMARK INTRA:                  -1.109
REMARK UNBOUND:                -0.868
REMARK  Name = /home/vital/Documents/PhD_2021/Malaria_codes/data/pdb_ligands_mmv/ligand_93.pdb
REMARK  9 active torsions:
REMARK  status: ('A' for Active; 'I' for Inactive)
REMARK    1  A    between atoms: C1_1  and  O1_2
REMARK    2  A    between atoms: O1_2  and  C2_3
REMARK    3  A    between atoms: C2_3  and  C3_4
REMARK    4  A    between atoms: C3_4  and  N1_5
REMARK    5  A    between atoms: C4_6  and  C5_8
REMARK    6  A    between atoms: C8_11  and  O3_12
REMARK    7  A    between atoms: O3_12  and  C9_13
REMARK    8  A    between atoms: N2_16  and  C12_17
REMARK    9  A    between atoms: C12_17  and  C13_18
REMARK                            x       y       z     vdW  Elec       q    Type
REMARK                         _______ _______ _______ _____ _____    ______ ____
ROOT
ATOM      1  O3  UNL     1     149.879 158.190 159.476  0.00  0.00    -0.487 OA
ENDROOT
BRANCH   1   5
ATOM      2  C5  UNL     1     151.410 156.314 156.073  0.00  0.00    +0.038 A 
ATOM      3  C6  UNL     1     151.035 157.662 156.014  0.00  0.00    +0.017 A 
ATOM      4  C7  UNL     1     150.534 158.308 157.148  0.00  0.00    +0.048 A 
ATOM      5  C8  UNL     1     150.413 157.615 158.353  0.00  0.00    +0.139 A 
ATOM      6  C21 UNL     1     150.755 156.258 158.402  0.00  0.00    +0.083 A 
ATOM      7 CL1  UNL     1     150.586 155.344 159.859  0.00  0.00    -0.080 Cl
ATOM      8  C22 UNL     1     151.256 155.607 157.271  0.00  0.00    +0.036 A 
BRANCH   2  10
ATOM      9  N1  UNL     1     153.050 156.227 154.268  0.00  0.00    -0.309 N 
ATOM     10  C4  UNL     1     151.927 155.665 154.834  0.00  0.00    +0.244 C 
ATOM     11  O2  UNL     1     151.342 154.699 154.355  0.00  0.00    -0.270 OA
ATOM     12  H8  UNL     1     153.265 157.194 154.479  0.00  0.00    +0.149 HD
BRANCH   9  13
ATOM     13  C3  UNL     1     153.538 155.772 152.976  0.00  0.00    +0.132 C 
BRANCH  13  14
ATOM     14  C2  UNL     1     153.422 156.874 151.926  0.00  0.00    +0.178 C 
BRANCH  14  16
ATOM     15  C1  UNL     1     151.603 155.798 150.873  0.00  0.00    +0.194 C 
ATOM     16  O1  UNL     1     152.050 156.982 151.524  0.00  0.00    -0.381 OA
ENDBRANCH  14  16
ENDBRANCH  13  14
ENDBRANCH   9  13
ENDBRANCH   2  10
ENDBRANCH   1   5
BRANCH   1  17
ATOM     17  C9  UNL     1     150.627 159.278 160.044  0.00  0.00    +0.176 C 
ATOM     18  C10 UNL     1     149.699 160.070 160.972  0.00  0.00    +0.060 C 
ATOM     19  C11 UNL     1     150.439 160.565 162.211  0.00  0.00    +0.088 C 
ATOM     20  N2  UNL     1     150.937 159.446 163.027  0.00  0.00    -0.298 NA
ATOM     21  C19 UNL     1     151.412 158.303 162.230  0.00  0.00    +0.088 C 
ATOM     22  C20 UNL     1     151.814 158.675 160.806  0.00  0.00    +0.060 C 
BRANCH  20  23
ATOM     23  C12 UNL     1     151.937 159.879 164.016  0.00  0.00    +0.119 C 
BRANCH  23  24
ATOM     24  C13 UNL     1     151.452 159.759 165.447  0.00  0.00    -0.030 A 
ATOM     25  C14 UNL     1     152.068 158.857 166.333  0.00  0.00    +0.008 A 
ATOM     26  C15 UNL     1     151.633 158.749 167.657  0.00  0.00    +0.041 A 
ATOM     27  C16 UNL     1     150.587 159.548 168.100  0.00  0.00    +0.158 A 
ATOM     28  F1  UNL     1     150.174 159.445 169.372  0.00  0.00    -0.202 F 
ATOM     29  C17 UNL     1     149.971 160.443 167.234  0.00  0.00    +0.159 A 
ATOM     30  F2  UNL     1     148.960 161.212 167.664  0.00  0.00    -0.202 F 
ATOM     31  C18 UNL     1     150.396 160.556 165.912  0.00  0.00    +0.046 A 
ENDBRANCH  23  24
ENDBRANCH  20  23
ENDBRANCH   1  17
TORSDOF 8
ENDMDL
MODEL 4
REMARK VINA RESULT:    -8.085      6.089     12.315
REMARK INTER + INTRA:         -12.735
REMARK INTER:                 -11.764
REMARK INTRA:                  -0.971
REMARK UNBOUND:                -0.868
REMARK  Name = /home/vital/Documents/PhD_2021/Malaria_codes/data/pdb_ligands_mmv/ligand_93.pdb
REMARK  9 active torsions:
REMARK  status: ('A' for Active; 'I' for Inactive)
REMARK    1  A    between atoms: C1_1  and  O1_2
REMARK    2  A    between atoms: O1_2  and  C2_3
REMARK    3  A    between atoms: C2_3  and  C3_4
REMARK    4  A    between atoms: C3_4  and  N1_5
REMARK    5  A    between atoms: C4_6  and  C5_8
REMARK    6  A    between atoms: C8_11  and  O3_12
REMARK    7  A    between atoms: O3_12  and  C9_13
REMARK    8  A    between atoms: N2_16  and  C12_17
REMARK    9  A    between atoms: C12_17  and  C13_18
REMARK                            x       y       z     vdW  Elec       q    Type
REMARK                         _______ _______ _______ _____ _____    ______ ____
ROOT
ATOM      1  O3  UNL     1     150.703 158.542 158.931  0.00  0.00    -0.487 OA
ENDROOT
BRANCH   1   5
ATOM      2  C5  UNL     1     151.689 156.391 155.490  0.00  0.00    +0.038 A 
ATOM      3  C6  UNL     1     151.619 157.789 155.440  0.00  0.00    +0.017 A 
ATOM      4  C7  UNL     1     151.304 158.525 156.586  0.00  0.00    +0.048 A 
ATOM      5  C8  UNL     1     151.066 157.869 157.795  0.00  0.00    +0.139 A 
ATOM      6  C21 UNL     1     151.101 156.471 157.837  0.00  0.00    +0.083 A 
ATOM      7 CL1  UNL     1     150.774 155.609 159.300  0.00  0.00    -0.080 Cl
ATOM      8  C22 UNL     1     151.415 155.730 156.693  0.00  0.00    +0.036 A 
BRANCH   2  10
ATOM      9  N1  UNL     1     152.902 156.258 153.377  0.00  0.00    -0.309 N 
ATOM     10  C4  UNL     1     152.016 155.650 154.239  0.00  0.00    +0.244 C 
ATOM     11  O2  UNL     1     151.484 154.569 154.006  0.00  0.00    -0.270 OA
ATOM     12  H8  UNL     1     153.019 157.263 153.434  0.00  0.00    +0.149 HD
BRANCH   9  13
ATOM     13  C3  UNL     1     153.163 155.697 152.061  0.00  0.00    +0.132 C 
BRANCH  13  14
ATOM     14  C2  UNL     1     152.323 156.393 150.993  0.00  0.00    +0.178 C 
BRANCH  14  16
ATOM     15  C1  UNL     1     153.482 154.732 149.780  0.00  0.00    +0.194 C 
ATOM     16  O1  UNL     1     152.359 155.605 149.795  0.00  0.00    -0.381 OA
ENDBRANCH  14  16
ENDBRANCH  13  14
ENDBRANCH   9  13
ENDBRANCH   2  10
ENDBRANCH   1   5
BRANCH   1  17
ATOM     17  C9  UNL     1     151.765 159.202 159.641  0.00  0.00    +0.176 C 
ATOM     18  C10 UNL     1     151.502 160.712 159.612  0.00  0.00    +0.060 C 
ATOM     19  C11 UNL     1     151.904 161.373 160.927  0.00  0.00    +0.088 C 
ATOM     20  N2  UNL     1     151.108 160.865 162.055  0.00  0.00    -0.298 NA
ATOM     21  C19 UNL     1     150.801 159.428 161.957  0.00  0.00    +0.088 C 
ATOM     22  C20 UNL     1     151.774 158.653 161.073  0.00  0.00    +0.060 C 
BRANCH  20  23
ATOM     23  C12 UNL     1     151.699 161.213 163.356  0.00  0.00    +0.119 C 
BRANCH  23  24
ATOM     24  C13 UNL     1     150.664 161.428 164.443  0.00  0.00    -0.030 A 
ATOM     25  C14 UNL     1     149.513 162.196 164.188  0.00  0.00    +0.008 A 
ATOM     26  C15 UNL     1     148.550 162.388 165.182  0.00  0.00    +0.041 A 
ATOM     27  C16 UNL     1     148.732 161.808 166.431  0.00  0.00    +0.158 A 
ATOM     28  F1  UNL     1     147.804 161.991 167.383  0.00  0.00    -0.202 F 
ATOM     29  C17 UNL     1     149.864 161.047 166.694  0.00  0.00    +0.159 A 
ATOM     30  F2  UNL     1     150.037 160.489 167.901  0.00  0.00    -0.202 F 
ATOM     31  C18 UNL     1     150.830 160.851 165.711  0.00  0.00    +0.046 A 
ENDBRANCH  23  24
ENDBRANCH  20  23
ENDBRANCH   1  17
TORSDOF 8
ENDMDL
MODEL 5
REMARK VINA RESULT:    -8.035      6.172     11.301
REMARK INTER + INTRA:         -12.660
REMARK INTER:                 -12.254
REMARK INTRA:                  -0.406
REMARK UNBOUND:                -0.868
REMARK  Name = /home/vital/Documents/PhD_2021/Malaria_codes/data/pdb_ligands_mmv/ligand_93.pdb
REMARK  9 active torsions:
REMARK  status: ('A' for Active; 'I' for Inactive)
REMARK    1  A    between atoms: C1_1  and  O1_2
REMARK    2  A    between atoms: O1_2  and  C2_3
REMARK    3  A    between atoms: C2_3  and  C3_4
REMARK    4  A    between atoms: C3_4  and  N1_5
REMARK    5  A    between atoms: C4_6  and  C5_8
REMARK    6  A    between atoms: C8_11  and  O3_12
REMARK    7  A    between atoms: O3_12  and  C9_13
REMARK    8  A    between atoms: N2_16  and  C12_17
REMARK    9  A    between atoms: C12_17  and  C13_18
REMARK                            x       y       z     vdW  Elec       q    Type
REMARK                         _______ _______ _______ _____ _____    ______ ____
ROOT
ATOM      1  O3  UNL     1     150.307 156.804 157.939  0.00  0.00    -0.487 OA
ENDROOT
BRANCH   1   5
ATOM      2  C5  UNL     1     152.507 157.013 154.395  0.00  0.00    +0.038 A 
ATOM      3  C6  UNL     1     152.202 155.764 154.951  0.00  0.00    +0.017 A 
ATOM      4  C7  UNL     1     151.454 155.676 156.130  0.00  0.00    +0.048 A 
ATOM      5  C8  UNL     1     150.997 156.836 156.757  0.00  0.00    +0.139 A 
ATOM      6  C21 UNL     1     151.333 158.085 156.220  0.00  0.00    +0.083 A 
ATOM      7 CL1  UNL     1     150.825 159.552 156.980  0.00  0.00    -0.080 Cl
ATOM      8  C22 UNL     1     152.081 158.178 155.043  0.00  0.00    +0.036 A 
BRANCH   2  10
ATOM      9  N1  UNL     1     153.805 155.851 152.687  0.00  0.00    -0.309 N 
ATOM     10  C4  UNL     1     153.318 157.055 153.145  0.00  0.00    +0.244 C 
ATOM     11  O2  UNL     1     153.543 158.127 152.594  0.00  0.00    -0.270 OA
ATOM     12  H8  UNL     1     153.900 155.086 153.344  0.00  0.00    +0.149 HD
BRANCH   9  13
ATOM     13  C3  UNL     1     154.736 155.802 151.571  0.00  0.00    +0.132 C 
BRANCH  13  14
ATOM     14  C2  UNL     1     155.819 154.752 151.806  0.00  0.00    +0.178 C 
BRANCH  14  16
ATOM     15  C1  UNL     1     157.525 153.625 150.625  0.00  0.00    +0.194 C 
ATOM     16  O1  UNL     1     156.770 154.826 150.736  0.00  0.00    -0.381 OA
ENDBRANCH  14  16
ENDBRANCH  13  14
ENDBRANCH   9  13
ENDBRANCH   2  10
ENDBRANCH   1   5
BRANCH   1  17
ATOM     17  C9  UNL     1     151.101 156.846 159.137  0.00  0.00    +0.176 C 
ATOM     18  C10 UNL     1     150.310 157.593 160.216  0.00  0.00    +0.060 C 
ATOM     19  C11 UNL     1     150.527 156.975 161.594  0.00  0.00    +0.088 C 
ATOM     20  N2  UNL     1     150.040 155.588 161.649  0.00  0.00    -0.298 NA
ATOM     21  C19 UNL     1     150.266 154.835 160.404  0.00  0.00    +0.088 C 
ATOM     22  C20 UNL     1     151.396 155.398 159.547  0.00  0.00    +0.060 C 
BRANCH  20  23
ATOM     23  C12 UNL     1     150.545 154.866 162.827  0.00  0.00    +0.119 C 
BRANCH  23  24
ATOM     24  C13 UNL     1     149.567 153.838 163.361  0.00  0.00    -0.030 A 
ATOM     25  C14 UNL     1     148.472 153.423 162.580  0.00  0.00    +0.008 A 
ATOM     26  C15 UNL     1     147.574 152.468 163.063  0.00  0.00    +0.041 A 
ATOM     27  C16 UNL     1     147.770 151.920 164.324  0.00  0.00    +0.158 A 
ATOM     28  F1  UNL     1     146.908 151.000 164.783  0.00  0.00    -0.202 F 
ATOM     29  C17 UNL     1     148.847 152.321 165.104  0.00  0.00    +0.159 A 
ATOM     30  F2  UNL     1     149.035 151.791 166.321  0.00  0.00    -0.202 F 
ATOM     31  C18 UNL     1     149.748 153.273 164.633  0.00  0.00    +0.046 A 
ENDBRANCH  23  24
ENDBRANCH  20  23
ENDBRANCH   1  17
TORSDOF 8
ENDMDL
MODEL 6
REMARK VINA RESULT:    -7.925      4.638      7.883
REMARK INTER + INTRA:         -12.499
REMARK INTER:                 -11.553
REMARK INTRA:                  -0.946
REMARK UNBOUND:                -0.868
REMARK  Name = /home/vital/Documents/PhD_2021/Malaria_codes/data/pdb_ligands_mmv/ligand_93.pdb
REMARK  9 active torsions:
REMARK  status: ('A' for Active; 'I' for Inactive)
REMARK    1  A    between atoms: C1_1  and  O1_2
REMARK    2  A    between atoms: O1_2  and  C2_3
REMARK    3  A    between atoms: C2_3  and  C3_4
REMARK    4  A    between atoms: C3_4  and  N1_5
REMARK    5  A    between atoms: C4_6  and  C5_8
REMARK    6  A    between atoms: C8_11  and  O3_12
REMARK    7  A    between atoms: O3_12  and  C9_13
REMARK    8  A    between atoms: N2_16  and  C12_17
REMARK    9  A    between atoms: C12_17  and  C13_18
REMARK                            x       y       z     vdW  Elec       q    Type
REMARK                         _______ _______ _______ _____ _____    ______ ____
ROOT
ATOM      1  O3  UNL     1     152.338 160.974 162.188  0.00  0.00    -0.487 OA
ENDROOT
BRANCH   1   5
ATOM      2  C5  UNL     1     151.271 161.683 166.163  0.00  0.00    +0.038 A 
ATOM      3  C6  UNL     1     151.218 162.728 165.232  0.00  0.00    +0.017 A 
ATOM      4  C7  UNL     1     151.558 162.503 163.894  0.00  0.00    +0.048 A 
ATOM      5  C8  UNL     1     151.946 161.230 163.474  0.00  0.00    +0.139 A 
ATOM      6  C21 UNL     1     152.033 160.195 164.413  0.00  0.00    +0.083 A 
ATOM      7 CL1  UNL     1     152.546 158.609 163.952  0.00  0.00    -0.080 Cl
ATOM      8  C22 UNL     1     151.694 160.414 165.751  0.00  0.00    +0.036 A 
BRANCH   2  10
ATOM      9  N1  UNL     1     151.956 162.075 168.472  0.00  0.00    -0.309 N 
ATOM     10  C4  UNL     1     150.911 161.974 167.580  0.00  0.00    +0.244 C 
ATOM     11  O2  UNL     1     149.734 162.086 167.905  0.00  0.00    -0.270 OA
ATOM     12  H8  UNL     1     152.835 161.630 168.239  0.00  0.00    +0.149 HD
BRANCH   9  13
ATOM     13  C3  UNL     1     151.705 162.196 169.899  0.00  0.00    +0.132 C 
BRANCH  13  14
ATOM     14  C2  UNL     1     152.778 161.473 170.708  0.00  0.00    +0.178 C 
BRANCH  14  16
ATOM     15  C1  UNL     1     154.670 160.445 169.738  0.00  0.00    +0.194 C 
ATOM     16  O1  UNL     1     153.264 160.365 169.939  0.00  0.00    -0.381 OA
ENDBRANCH  14  16
ENDBRANCH  13  14
ENDBRANCH   9  13
ENDBRANCH   2  10
ENDBRANCH   1   5
BRANCH   1  17
ATOM     17  C9  UNL     1     151.393 161.314 161.159  0.00  0.00    +0.176 C 
ATOM     18  C10 UNL     1     152.160 161.526 159.849  0.00  0.00    +0.060 C 
ATOM     19  C11 UNL     1     151.373 161.002 158.652  0.00  0.00    +0.088 C 
ATOM     20  N2  UNL     1     151.156 159.549 158.740  0.00  0.00    -0.298 NA
ATOM     21  C19 UNL     1     150.912 159.074 160.112  0.00  0.00    +0.088 C 
ATOM     22  C20 UNL     1     150.392 160.157 161.052  0.00  0.00    +0.060 C 
BRANCH  20  23
ATOM     23  C12 UNL     1     150.121 159.082 157.805  0.00  0.00    +0.119 C 
BRANCH  23  24
ATOM     24  C13 UNL     1     150.644 158.095 156.781  0.00  0.00    -0.030 A 
ATOM     25  C14 UNL     1     150.376 156.720 156.916  0.00  0.00    +0.008 A 
ATOM     26  C15 UNL     1     150.846 155.806 155.969  0.00  0.00    +0.041 A 
ATOM     27  C16 UNL     1     151.578 156.264 154.881  0.00  0.00    +0.158 A 
ATOM     28  F1  UNL     1     152.025 155.385 153.972  0.00  0.00    -0.202 F 
ATOM     29  C17 UNL     1     151.848 157.619 154.736  0.00  0.00    +0.159 A 
ATOM     30  F2  UNL     1     152.556 158.059 153.686  0.00  0.00    -0.202 F 
ATOM     31  C18 UNL     1     151.386 158.538 155.676  0.00  0.00    +0.046 A 
ENDBRANCH  23  24
ENDBRANCH  20  23
ENDBRANCH   1  17
TORSDOF 8
ENDMDL
MODEL 7
REMARK VINA RESULT:    -7.785      6.182     12.606
REMARK INTER + INTRA:         -12.293
REMARK INTER:                 -11.366
REMARK INTRA:                  -0.927
REMARK UNBOUND:                -0.868
REMARK  Name = /home/vital/Documents/PhD_2021/Malaria_codes/data/pdb_ligands_mmv/ligand_93.pdb
REMARK  9 active torsions:
REMARK  status: ('A' for Active; 'I' for Inactive)
REMARK    1  A    between atoms: C1_1  and  O1_2
REMARK    2  A    between atoms: O1_2  and  C2_3
REMARK    3  A    between atoms: C2_3  and  C3_4
REMARK    4  A    between atoms: C3_4  and  N1_5
REMARK    5  A    between atoms: C4_6  and  C5_8
REMARK    6  A    between atoms: C8_11  and  O3_12
REMARK    7  A    between atoms: O3_12  and  C9_13
REMARK    8  A    between atoms: N2_16  and  C12_17
REMARK    9  A    between atoms: C12_17  and  C13_18
REMARK                            x       y       z     vdW  Elec       q    Type
REMARK                         _______ _______ _______ _____ _____    ______ ____
ROOT
ATOM      1  O3  UNL     1     151.825 159.390 160.714  0.00  0.00    -0.487 OA
ENDROOT
BRANCH   1   5
ATOM      2  C5  UNL     1     150.877 156.910 157.490  0.00  0.00    +0.038 A 
ATOM      3  C6  UNL     1     151.106 156.351 158.753  0.00  0.00    +0.017 A 
ATOM      4  C7  UNL     1     151.410 157.168 159.846  0.00  0.00    +0.048 A 
ATOM      5  C8  UNL     1     151.480 158.553 159.687  0.00  0.00    +0.139 A 
ATOM      6  C21 UNL     1     151.285 159.109 158.417  0.00  0.00    +0.083 A 
ATOM      7 CL1  UNL     1     151.399 160.814 158.158  0.00  0.00    -0.080 Cl
ATOM      8  C22 UNL     1     150.981 158.296 157.321  0.00  0.00    +0.036 A 
BRANCH   2  10
ATOM      9  N1  UNL     1     151.614 155.682 155.515  0.00  0.00    -0.309 N 
ATOM     10  C4  UNL     1     150.568 155.997 156.354  0.00  0.00    +0.244 C 
ATOM     11  O2  UNL     1     149.424 155.586 156.188  0.00  0.00    -0.270 OA
ATOM     12  H8  UNL     1     152.410 156.309 155.479  0.00  0.00    +0.149 HD
BRANCH   9  13
ATOM     13  C3  UNL     1     151.385 154.932 154.290  0.00  0.00    +0.132 C 
BRANCH  13  14
ATOM     14  C2  UNL     1     152.112 155.573 153.111  0.00  0.00    +0.178 C 
BRANCH  14  16
ATOM     15  C1  UNL     1     153.255 157.618 152.816  0.00  0.00    +0.194 C 
ATOM     16  O1  UNL     1     153.127 156.450 153.619  0.00  0.00    -0.381 OA
ENDBRANCH  14  16
ENDBRANCH  13  14
ENDBRANCH   9  13
ENDBRANCH   2  10
ENDBRANCH   1   5
BRANCH   1  17
ATOM     17  C9  UNL     1     151.028 159.290 161.906  0.00  0.00    +0.176 C 
ATOM     18  C10 UNL     1     151.910 158.740 163.033  0.00  0.00    +0.060 C 
ATOM     19  C11 UNL     1     151.575 159.392 164.371  0.00  0.00    +0.088 C 
ATOM     20  N2  UNL     1     151.837 160.840 164.349  0.00  0.00    -0.298 NA
ATOM     21  C19 UNL     1     151.515 161.475 163.061  0.00  0.00    +0.088 C 
ATOM     22  C20 UNL     1     150.502 160.694 162.229  0.00  0.00    +0.060 C 
BRANCH  20  23
ATOM     23  C12 UNL     1     151.205 161.538 165.479  0.00  0.00    +0.119 C 
BRANCH  23  24
ATOM     24  C13 UNL     1     152.082 161.589 166.714  0.00  0.00    -0.030 A 
ATOM     25  C14 UNL     1     151.508 161.531 167.998  0.00  0.00    +0.008 A 
ATOM     26  C15 UNL     1     152.311 161.566 169.140  0.00  0.00    +0.041 A 
ATOM     27  C16 UNL     1     153.691 161.653 169.004  0.00  0.00    +0.158 A 
ATOM     28  F1  UNL     1     154.460 161.683 170.102  0.00  0.00    -0.202 F 
ATOM     29  C17 UNL     1     154.270 161.710 167.742  0.00  0.00    +0.159 A 
ATOM     30  F2  UNL     1     155.602 161.794 167.613  0.00  0.00    -0.202 F 
ATOM     31  C18 UNL     1     153.478 161.677 166.597  0.00  0.00    +0.046 A 
ENDBRANCH  23  24
ENDBRANCH  20  23
ENDBRANCH   1  17
TORSDOF 8
ENDMDL
MODEL 8
REMARK VINA RESULT:    -7.742      6.354     12.397
REMARK INTER + INTRA:         -12.231
REMARK INTER:                 -11.207
REMARK INTRA:                  -1.024
REMARK UNBOUND:                -0.868
REMARK  Name = /home/vital/Documents/PhD_2021/Malaria_codes/data/pdb_ligands_mmv/ligand_93.pdb
REMARK  9 active torsions:
REMARK  status: ('A' for Active; 'I' for Inactive)
REMARK    1  A    between atoms: C1_1  and  O1_2
REMARK    2  A    between atoms: O1_2  and  C2_3
REMARK    3  A    between atoms: C2_3  and  C3_4
REMARK    4  A    between atoms: C3_4  and  N1_5
REMARK    5  A    between atoms: C4_6  and  C5_8
REMARK    6  A    between atoms: C8_11  and  O3_12
REMARK    7  A    between atoms: O3_12  and  C9_13
REMARK    8  A    between atoms: N2_16  and  C12_17
REMARK    9  A    between atoms: C12_17  and  C13_18
REMARK                            x       y       z     vdW  Elec       q    Type
REMARK                         _______ _______ _______ _____ _____    ______ ____
ROOT
ATOM      1  O3  UNL     1     150.613 157.581 160.298  0.00  0.00    -0.487 OA
ENDROOT
BRANCH   1   5
ATOM      2  C5  UNL     1     151.534 156.905 156.280  0.00  0.00    +0.038 A 
ATOM      3  C6  UNL     1     151.275 158.208 156.725  0.00  0.00    +0.017 A 
ATOM      4  C7  UNL     1     150.979 158.453 158.069  0.00  0.00    +0.048 A 
ATOM      5  C8  UNL     1     150.949 157.398 158.983  0.00  0.00    +0.139 A 
ATOM      6  C21 UNL     1     151.173 156.092 158.531  0.00  0.00    +0.083 A 
ATOM      7 CL1  UNL     1     151.108 154.746 159.614  0.00  0.00    -0.080 Cl
ATOM      8  C22 UNL     1     151.469 155.842 157.188  0.00  0.00    +0.036 A 
BRANCH   2  10
ATOM      9  N1  UNL     1     152.306 157.783 154.139  0.00  0.00    -0.309 N 
ATOM     10  C4  UNL     1     151.832 156.694 154.835  0.00  0.00    +0.244 C 
ATOM     11  O2  UNL     1     151.628 155.600 154.319  0.00  0.00    -0.270 OA
ATOM     12  H8  UNL     1     152.114 158.710 154.501  0.00  0.00    +0.149 HD
BRANCH   9  13
ATOM     13  C3  UNL     1     152.474 157.727 152.695  0.00  0.00    +0.132 C 
BRANCH  13  14
ATOM     14  C2  UNL     1     153.855 157.191 152.325  0.00  0.00    +0.178 C 
BRANCH  14  16
ATOM     15  C1  UNL     1     152.403 156.118 150.802  0.00  0.00    +0.194 C 
ATOM     16  O1  UNL     1     153.693 156.105 151.403  0.00  0.00    -0.381 OA
ENDBRANCH  14  16
ENDBRANCH  13  14
ENDBRANCH   9  13
ENDBRANCH   2  10
ENDBRANCH   1   5
BRANCH   1  17
ATOM     17  C9  UNL     1     151.554 158.322 161.093  0.00  0.00    +0.176 C 
ATOM     18  C10 UNL     1     150.773 159.290 161.989  0.00  0.00    +0.060 C 
ATOM     19  C11 UNL     1     151.418 159.418 163.366  0.00  0.00    +0.088 C 
ATOM     20  N2  UNL     1     151.413 158.136 164.088  0.00  0.00    -0.298 NA
ATOM     21  C19 UNL     1     151.640 156.971 163.218  0.00  0.00    +0.088 C 
ATOM     22  C20 UNL     1     152.361 157.310 161.916  0.00  0.00    +0.060 C 
BRANCH  20  23
ATOM     23  C12 UNL     1     152.323 158.144 165.244  0.00  0.00    +0.119 C 
BRANCH  23  24
ATOM     24  C13 UNL     1     151.861 159.059 166.360  0.00  0.00    -0.030 A 
ATOM     25  C14 UNL     1     152.561 160.247 166.642  0.00  0.00    +0.008 A 
ATOM     26  C15 UNL     1     152.134 161.101 167.663  0.00  0.00    +0.041 A 
ATOM     27  C16 UNL     1     151.003 160.773 168.400  0.00  0.00    +0.158 A 
ATOM     28  F1  UNL     1     150.594 161.596 169.377  0.00  0.00    -0.202 F 
ATOM     29  C17 UNL     1     150.304 159.604 168.130  0.00  0.00    +0.159 A 
ATOM     30  F2  UNL     1     149.213 159.289 168.844  0.00  0.00    -0.202 F 
ATOM     31  C18 UNL     1     150.722 158.745 167.117  0.00  0.00    +0.046 A 
ENDBRANCH  23  24
ENDBRANCH  20  23
ENDBRANCH   1  17
TORSDOF 8
ENDMDL
MODEL 9
REMARK VINA RESULT:    -7.568      4.064      7.235
REMARK INTER + INTRA:         -11.976
REMARK INTER:                 -11.035
REMARK INTRA:                  -0.941
REMARK UNBOUND:                -0.868
REMARK  Name = /home/vital/Documents/PhD_2021/Malaria_codes/data/pdb_ligands_mmv/ligand_93.pdb
REMARK  9 active torsions:
REMARK  status: ('A' for Active; 'I' for Inactive)
REMARK    1  A    between atoms: C1_1  and  O1_2
REMARK    2  A    between atoms: O1_2  and  C2_3
REMARK    3  A    between atoms: C2_3  and  C3_4
REMARK    4  A    between atoms: C3_4  and  N1_5
REMARK    5  A    between atoms: C4_6  and  C5_8
REMARK    6  A    between atoms: C8_11  and  O3_12
REMARK    7  A    between atoms: O3_12  and  C9_13
REMARK    8  A    between atoms: N2_16  and  C12_17
REMARK    9  A    between atoms: C12_17  and  C13_18
REMARK                            x       y       z     vdW  Elec       q    Type
REMARK                         _______ _______ _______ _____ _____    ______ ____
ROOT
ATOM      1  O3  UNL     1     151.766 159.517 161.985  0.00  0.00    -0.487 OA
ENDROOT
BRANCH   1   5
ATOM      2  C5  UNL     1     151.556 161.472 165.670  0.00  0.00    +0.038 A 
ATOM      3  C6  UNL     1     151.300 162.182 164.491  0.00  0.00    +0.017 A 
ATOM      4  C7  UNL     1     151.352 161.539 163.250  0.00  0.00    +0.048 A 
ATOM      5  C8  UNL     1     151.652 160.178 163.179  0.00  0.00    +0.139 A 
ATOM      6  C21 UNL     1     151.943 159.477 164.355  0.00  0.00    +0.083 A 
ATOM      7 CL1  UNL     1     152.359 157.799 164.318  0.00  0.00    -0.080 Cl
ATOM      8  C22 UNL     1     151.893 160.116 165.598  0.00  0.00    +0.036 A 
BRANCH   2  10
ATOM      9  N1  UNL     1     152.673 162.792 167.393  0.00  0.00    -0.309 N 
ATOM     10  C4  UNL     1     151.501 162.204 166.967  0.00  0.00    +0.244 C 
ATOM     11  O2  UNL     1     150.457 162.240 167.610  0.00  0.00    -0.270 OA
ATOM     12  H8  UNL     1     153.550 162.437 167.031  0.00  0.00    +0.149 HD
BRANCH   9  13
ATOM     13  C3  UNL     1     152.766 163.389 168.715  0.00  0.00    +0.132 C 
BRANCH  13  14
ATOM     14  C2  UNL     1     153.313 162.390 169.731  0.00  0.00    +0.178 C 
BRANCH  14  16
ATOM     15  C1  UNL     1     151.534 161.426 170.948  0.00  0.00    +0.194 C 
ATOM     16  O1  UNL     1     152.513 162.458 170.919  0.00  0.00    -0.381 OA
ENDBRANCH  14  16
ENDBRANCH  13  14
ENDBRANCH   9  13
ENDBRANCH   2  10
ENDBRANCH   1   5
BRANCH   1  17
ATOM     17  C9  UNL     1     151.064 160.097 160.872  0.00  0.00    +0.176 C 
ATOM     18  C10 UNL     1     152.079 160.393 159.762  0.00  0.00    +0.060 C 
ATOM     19  C11 UNL     1     151.488 160.126 158.381  0.00  0.00    +0.088 C 
ATOM     20  N2  UNL     1     151.132 158.708 158.209  0.00  0.00    -0.298 NA
ATOM     21  C19 UNL     1     150.594 158.085 159.430  0.00  0.00    +0.088 C 
ATOM     22  C20 UNL     1     150.003 159.086 160.418  0.00  0.00    +0.060 C 
BRANCH  20  23
ATOM     23  C12 UNL     1     150.254 158.491 157.049  0.00  0.00    +0.119 C 
BRANCH  23  24
ATOM     24  C13 UNL     1     150.888 157.631 155.974  0.00  0.00    -0.030 A 
ATOM     25  C14 UNL     1     150.747 156.231 156.007  0.00  0.00    +0.008 A 
ATOM     26  C15 UNL     1     151.319 155.433 155.013  0.00  0.00    +0.041 A 
ATOM     27  C16 UNL     1     152.028 156.032 153.980  0.00  0.00    +0.158 A 
ATOM     28  F1  UNL     1     152.573 155.264 153.025  0.00  0.00    -0.202 F 
ATOM     29  C17 UNL     1     152.174 157.413 153.936  0.00  0.00    +0.159 A 
ATOM     30  F2  UNL     1     152.860 157.989 152.937  0.00  0.00    -0.202 F 
ATOM     31  C18 UNL     1     151.609 158.217 154.923  0.00  0.00    +0.046 A 
ENDBRANCH  23  24
ENDBRANCH  20  23
ENDBRANCH   1  17
TORSDOF 8
ENDMDL
