MODEL 1
REMARK VINA RESULT:    -7.890      0.000      0.000
REMARK INTER + INTRA:         -10.888
REMARK INTER:                 -10.196
REMARK INTRA:                  -0.692
REMARK UNBOUND:                -0.692
REMARK  Name = /home/vital/Documents/PhD_2021/Malaria_codes/data/pdb_ligands_mmv/ligand_340.pdb
REMARK  9 active torsions:
REMARK  status: ('A' for Active; 'I' for Inactive)
REMARK    1  A    between atoms: C1_1  and  C2_2
REMARK    2  A    between atoms: C2_2  and  O1_3
REMARK    3  A    between atoms: O1_3  and  C3_4
REMARK    4  A    between atoms: C7_9  and  C8_10
REMARK    5  A    between atoms: C10_12  and  N2_13
REMARK    6  A    between atoms: N2_13  and  C11_14
REMARK    7  A    between atoms: C14_17  and  N3_20
REMARK    8  A    between atoms: N3_20  and  C17_21
REMARK    9  A    between atoms: N3_20  and  C18_22
REMARK                            x       y       z     vdW  Elec       q    Type
REMARK                         _______ _______ _______ _____ _____    ______ ____
ROOT
ATOM      1  C3  UNL     1     151.491 160.346 159.506  0.00  0.00    +0.121 A 
ATOM      2  C4  UNL     1     151.919 159.960 160.769  0.00  0.00    +0.048 A 
ATOM      3  C5  UNL     1     151.945 158.602 161.110  0.00  0.00    +0.032 A 
ATOM      4  C6  UNL     1     151.557 157.609 160.222  0.00  0.00    +0.073 A 
ATOM      5  N1  UNL     1     151.607 156.331 160.631  0.00  0.00    -0.252 NA
ATOM      6  C7  UNL     1     151.233 155.357 159.771  0.00  0.00    +0.041 A 
ATOM      7  C8  UNL     1     151.318 153.942 160.259  0.00  0.00    +0.065 C 
ATOM      8  C9  UNL     1     150.797 155.624 158.484  0.00  0.00    +0.047 A 
ATOM      9  C10 UNL     1     150.732 156.951 158.053  0.00  0.00    +0.042 A 
ATOM     10  C19 UNL     1     151.128 157.986 158.935  0.00  0.00    +0.025 A 
ATOM     11  C20 UNL     1     151.096 159.362 158.599  0.00  0.00    +0.057 A 
ENDROOT
BRANCH   9  12
ATOM     12  N2  UNL     1     150.348 157.211 156.710  0.00  0.00    -0.314 N 
ATOM     13  H12 UNL     1     149.359 157.024 156.567  0.00  0.00    +0.152 HD
BRANCH  12  14
ATOM     14  C11 UNL     1     151.070 156.831 155.550  0.00  0.00    +0.031 A 
ATOM     15  C12 UNL     1     151.861 157.712 154.816  0.00  0.00    +0.025 A 
ATOM     16  C13 UNL     1     152.509 157.294 153.641  0.00  0.00    +0.025 A 
ATOM     17  C14 UNL     1     152.375 155.993 153.127  0.00  0.00    +0.029 A 
ATOM     18  C15 UNL     1     151.562 155.128 153.877  0.00  0.00    +0.025 A 
ATOM     19  C16 UNL     1     150.912 155.538 155.052  0.00  0.00    +0.025 A 
BRANCH  17  20
ATOM     20  N3  UNL     1     153.038 155.575 151.966  0.00  0.00    -0.336 N 
ATOM     21  C17 UNL     1     154.390 156.068 151.708  0.00  0.00    +0.129 C 
ATOM     22  C18 UNL     1     152.246 155.262 150.779  0.00  0.00    +0.129 C 
ENDBRANCH  17  20
ENDBRANCH  12  14
ENDBRANCH   9  12
BRANCH   1  23
ATOM     23  O1  UNL     1     151.408 161.627 159.038  0.00  0.00    -0.492 OA
BRANCH  23  25
ATOM     24  C1  UNL     1     151.538 163.308 157.355  0.00  0.00    +0.048 C 
ATOM     25  C2  UNL     1     151.545 161.815 157.631  0.00  0.00    +0.225 C 
ENDBRANCH  23  25
ENDBRANCH   1  23
TORSDOF 5
ENDMDL
MODEL 2
REMARK VINA RESULT:    -7.690      2.135      4.326
REMARK INTER + INTRA:         -10.630
REMARK INTER:                  -9.802
REMARK INTRA:                  -0.828
REMARK UNBOUND:                -0.692
REMARK  Name = /home/vital/Documents/PhD_2021/Malaria_codes/data/pdb_ligands_mmv/ligand_340.pdb
REMARK  9 active torsions:
REMARK  status: ('A' for Active; 'I' for Inactive)
REMARK    1  A    between atoms: C1_1  and  C2_2
REMARK    2  A    between atoms: C2_2  and  O1_3
REMARK    3  A    between atoms: O1_3  and  C3_4
REMARK    4  A    between atoms: C7_9  and  C8_10
REMARK    5  A    between atoms: C10_12  and  N2_13
REMARK    6  A    between atoms: N2_13  and  C11_14
REMARK    7  A    between atoms: C14_17  and  N3_20
REMARK    8  A    between atoms: N3_20  and  C17_21
REMARK    9  A    between atoms: N3_20  and  C18_22
REMARK                            x       y       z     vdW  Elec       q    Type
REMARK                         _______ _______ _______ _____ _____    ______ ____
ROOT
ATOM      1  C3  UNL     1     150.886 155.184 160.867  0.00  0.00    +0.121 A 
ATOM      2  C4  UNL     1     151.481 155.766 161.978  0.00  0.00    +0.048 A 
ATOM      3  C5  UNL     1     151.908 157.097 161.921  0.00  0.00    +0.032 A 
ATOM      4  C6  UNL     1     151.756 157.875 160.782  0.00  0.00    +0.073 A 
ATOM      5  N1  UNL     1     152.199 159.143 160.810  0.00  0.00    -0.252 NA
ATOM      6  C7  UNL     1     152.052 159.908 159.706  0.00  0.00    +0.041 A 
ATOM      7  C8  UNL     1     152.545 161.323 159.781  0.00  0.00    +0.065 C 
ATOM      8  C9  UNL     1     151.466 159.437 158.543  0.00  0.00    +0.047 A 
ATOM      9  C10 UNL     1     151.012 158.116 158.501  0.00  0.00    +0.042 A 
ATOM     10  C19 UNL     1     151.147 157.301 159.650  0.00  0.00    +0.025 A 
ATOM     11  C20 UNL     1     150.725 155.950 159.711  0.00  0.00    +0.057 A 
ENDROOT
BRANCH   9  12
ATOM     12  N2  UNL     1     150.351 157.663 157.328  0.00  0.00    -0.314 N 
ATOM     13  H12 UNL     1     149.621 156.991 157.554  0.00  0.00    +0.152 HD
BRANCH  12  14
ATOM     14  C11 UNL     1     150.977 157.287 156.113  0.00  0.00    +0.031 A 
ATOM     15  C12 UNL     1     151.381 158.200 155.143  0.00  0.00    +0.025 A 
ATOM     16  C13 UNL     1     151.946 157.766 153.931  0.00  0.00    +0.025 A 
ATOM     17  C14 UNL     1     152.104 156.406 153.616  0.00  0.00    +0.029 A 
ATOM     18  C15 UNL     1     151.676 155.504 154.603  0.00  0.00    +0.025 A 
ATOM     19  C16 UNL     1     151.112 155.930 155.817  0.00  0.00    +0.025 A 
BRANCH  17  20
ATOM     20  N3  UNL     1     152.684 155.978 152.415  0.00  0.00    -0.336 N 
ATOM     21  C17 UNL     1     154.138 156.034 152.274  0.00  0.00    +0.129 C 
ATOM     22  C18 UNL     1     151.925 156.128 151.175  0.00  0.00    +0.129 C 
ENDBRANCH  17  20
ENDBRANCH  12  14
ENDBRANCH   9  12
BRANCH   1  23
ATOM     23  O1  UNL     1     150.427 153.900 160.775  0.00  0.00    -0.492 OA
BRANCH  23  25
ATOM     24  C1  UNL     1     148.590 153.468 162.229  0.00  0.00    +0.048 C 
ATOM     25  C2  UNL     1     149.013 153.712 160.792  0.00  0.00    +0.225 C 
ENDBRANCH  23  25
ENDBRANCH   1  23
TORSDOF 5
ENDMDL
MODEL 3
REMARK VINA RESULT:    -7.548      2.195      4.524
REMARK INTER + INTRA:         -10.446
REMARK INTER:                  -9.694
REMARK INTRA:                  -0.752
REMARK UNBOUND:                -0.692
REMARK  Name = /home/vital/Documents/PhD_2021/Malaria_codes/data/pdb_ligands_mmv/ligand_340.pdb
REMARK  9 active torsions:
REMARK  status: ('A' for Active; 'I' for Inactive)
REMARK    1  A    between atoms: C1_1  and  C2_2
REMARK    2  A    between atoms: C2_2  and  O1_3
REMARK    3  A    between atoms: O1_3  and  C3_4
REMARK    4  A    between atoms: C7_9  and  C8_10
REMARK    5  A    between atoms: C10_12  and  N2_13
REMARK    6  A    between atoms: N2_13  and  C11_14
REMARK    7  A    between atoms: C14_17  and  N3_20
REMARK    8  A    between atoms: N3_20  and  C17_21
REMARK    9  A    between atoms: N3_20  and  C18_22
REMARK                            x       y       z     vdW  Elec       q    Type
REMARK                         _______ _______ _______ _____ _____    ______ ____
ROOT
ATOM      1  C3  UNL     1     150.717 155.107 160.953  0.00  0.00    +0.121 A 
ATOM      2  C4  UNL     1     151.347 155.669 162.054  0.00  0.00    +0.048 A 
ATOM      3  C5  UNL     1     151.799 156.992 161.997  0.00  0.00    +0.032 A 
ATOM      4  C6  UNL     1     151.637 157.781 160.867  0.00  0.00    +0.073 A 
ATOM      5  N1  UNL     1     152.105 159.040 160.894  0.00  0.00    -0.252 NA
ATOM      6  C7  UNL     1     151.949 159.816 159.799  0.00  0.00    +0.041 A 
ATOM      7  C8  UNL     1     152.469 161.221 159.873  0.00  0.00    +0.065 C 
ATOM      8  C9  UNL     1     151.328 159.365 158.646  0.00  0.00    +0.047 A 
ATOM      9  C10 UNL     1     150.847 158.054 158.605  0.00  0.00    +0.042 A 
ATOM     10  C19 UNL     1     150.992 157.227 159.745  0.00  0.00    +0.025 A 
ATOM     11  C20 UNL     1     150.545 155.885 159.806  0.00  0.00    +0.057 A 
ENDROOT
BRANCH   9  12
ATOM     12  N2  UNL     1     150.152 157.622 157.444  0.00  0.00    -0.314 N 
ATOM     13  H12 UNL     1     149.409 156.970 157.682  0.00  0.00    +0.152 HD
BRANCH  12  14
ATOM     14  C11 UNL     1     150.744 157.232 156.216  0.00  0.00    +0.031 A 
ATOM     15  C12 UNL     1     150.939 155.904 155.844  0.00  0.00    +0.025 A 
ATOM     16  C13 UNL     1     151.583 155.578 154.639  0.00  0.00    +0.025 A 
ATOM     17  C14 UNL     1     152.090 156.554 153.765  0.00  0.00    +0.029 A 
ATOM     18  C15 UNL     1     151.895 157.885 154.167  0.00  0.00    +0.025 A 
ATOM     19  C16 UNL     1     151.251 158.219 155.369  0.00  0.00    +0.025 A 
BRANCH  17  20
ATOM     20  N3  UNL     1     152.715 156.224 152.556  0.00  0.00    -0.336 N 
ATOM     21  C17 UNL     1     151.892 155.773 151.435  0.00  0.00    +0.129 C 
ATOM     22  C18 UNL     1     154.076 155.693 152.590  0.00  0.00    +0.129 C 
ENDBRANCH  17  20
ENDBRANCH  12  14
ENDBRANCH   9  12
BRANCH   1  23
ATOM     23  O1  UNL     1     150.231 153.833 160.862  0.00  0.00    -0.492 OA
BRANCH  23  25
ATOM     24  C1  UNL     1     148.484 153.505 162.448  0.00  0.00    +0.048 C 
ATOM     25  C2  UNL     1     148.819 153.666 160.977  0.00  0.00    +0.225 C 
ENDBRANCH  23  25
ENDBRANCH   1  23
TORSDOF 5
ENDMDL
MODEL 4
REMARK VINA RESULT:    -7.460      2.889      7.634
REMARK INTER + INTRA:         -10.333
REMARK INTER:                  -9.579
REMARK INTRA:                  -0.754
REMARK UNBOUND:                -0.692
REMARK  Name = /home/vital/Documents/PhD_2021/Malaria_codes/data/pdb_ligands_mmv/ligand_340.pdb
REMARK  9 active torsions:
REMARK  status: ('A' for Active; 'I' for Inactive)
REMARK    1  A    between atoms: C1_1  and  C2_2
REMARK    2  A    between atoms: C2_2  and  O1_3
REMARK    3  A    between atoms: O1_3  and  C3_4
REMARK    4  A    between atoms: C7_9  and  C8_10
REMARK    5  A    between atoms: C10_12  and  N2_13
REMARK    6  A    between atoms: N2_13  and  C11_14
REMARK    7  A    between atoms: C14_17  and  N3_20
REMARK    8  A    between atoms: N3_20  and  C17_21
REMARK    9  A    between atoms: N3_20  and  C18_22
REMARK                            x       y       z     vdW  Elec       q    Type
REMARK                         _______ _______ _______ _____ _____    ______ ____
ROOT
ATOM      1  C3  UNL     1     151.600 156.135 154.817  0.00  0.00    +0.121 A 
ATOM      2  C4  UNL     1     151.546 157.449 154.372  0.00  0.00    +0.048 A 
ATOM      3  C5  UNL     1     151.437 158.494 155.297  0.00  0.00    +0.032 A 
ATOM      4  C6  UNL     1     151.383 158.268 156.665  0.00  0.00    +0.073 A 
ATOM      5  N1  UNL     1     151.273 159.327 157.484  0.00  0.00    -0.252 NA
ATOM      6  C7  UNL     1     151.223 159.115 158.818  0.00  0.00    +0.041 A 
ATOM      7  C8  UNL     1     151.117 160.323 159.700  0.00  0.00    +0.065 C 
ATOM      8  C9  UNL     1     151.278 157.849 159.376  0.00  0.00    +0.047 A 
ATOM      9  C10 UNL     1     151.382 156.741 158.532  0.00  0.00    +0.042 A 
ATOM     10  C19 UNL     1     151.446 156.941 157.132  0.00  0.00    +0.025 A 
ATOM     11  C20 UNL     1     151.547 155.888 156.190  0.00  0.00    +0.057 A 
ENDROOT
BRANCH   9  12
ATOM     12  N2  UNL     1     151.506 155.452 159.116  0.00  0.00    -0.314 N 
ATOM     13  H12 UNL     1     151.586 154.732 158.403  0.00  0.00    +0.152 HD
BRANCH  12  14
ATOM     14  C11 UNL     1     150.745 154.954 160.203  0.00  0.00    +0.031 A 
ATOM     15  C12 UNL     1     151.223 154.890 161.510  0.00  0.00    +0.025 A 
ATOM     16  C13 UNL     1     150.443 154.334 162.539  0.00  0.00    +0.025 A 
ATOM     17  C14 UNL     1     149.169 153.789 162.310  0.00  0.00    +0.029 A 
ATOM     18  C15 UNL     1     148.714 153.853 160.983  0.00  0.00    +0.025 A 
ATOM     19  C16 UNL     1     149.486 154.408 159.950  0.00  0.00    +0.025 A 
BRANCH  17  20
ATOM     20  N3  UNL     1     148.388 153.253 163.342  0.00  0.00    -0.336 N 
ATOM     21  C17 UNL     1     148.929 153.232 164.700  0.00  0.00    +0.129 C 
ATOM     22  C18 UNL     1     147.443 152.184 163.025  0.00  0.00    +0.129 C 
ENDBRANCH  17  20
ENDBRANCH  12  14
ENDBRANCH   9  12
BRANCH   1  23
ATOM     23  O1  UNL     1     151.701 155.020 154.035  0.00  0.00    -0.492 OA
BRANCH  23  25
ATOM     24  C1  UNL     1     150.867 154.417 151.886  0.00  0.00    +0.048 C 
ATOM     25  C2  UNL     1     151.911 155.222 152.638  0.00  0.00    +0.225 C 
ENDBRANCH  23  25
ENDBRANCH   1  23
TORSDOF 5
ENDMDL
MODEL 5
REMARK VINA RESULT:    -7.365      2.982      7.678
REMARK INTER + INTRA:         -10.210
REMARK INTER:                  -9.487
REMARK INTRA:                  -0.723
REMARK UNBOUND:                -0.692
REMARK  Name = /home/vital/Documents/PhD_2021/Malaria_codes/data/pdb_ligands_mmv/ligand_340.pdb
REMARK  9 active torsions:
REMARK  status: ('A' for Active; 'I' for Inactive)
REMARK    1  A    between atoms: C1_1  and  C2_2
REMARK    2  A    between atoms: C2_2  and  O1_3
REMARK    3  A    between atoms: O1_3  and  C3_4
REMARK    4  A    between atoms: C7_9  and  C8_10
REMARK    5  A    between atoms: C10_12  and  N2_13
REMARK    6  A    between atoms: N2_13  and  C11_14
REMARK    7  A    between atoms: C14_17  and  N3_20
REMARK    8  A    between atoms: N3_20  and  C17_21
REMARK    9  A    between atoms: N3_20  and  C18_22
REMARK                            x       y       z     vdW  Elec       q    Type
REMARK                         _______ _______ _______ _____ _____    ______ ____
ROOT
ATOM      1  C3  UNL     1     151.689 156.253 155.327  0.00  0.00    +0.121 A 
ATOM      2  C4  UNL     1     151.544 157.583 154.954  0.00  0.00    +0.048 A 
ATOM      3  C5  UNL     1     151.292 158.555 155.929  0.00  0.00    +0.032 A 
ATOM      4  C6  UNL     1     151.183 158.241 157.276  0.00  0.00    +0.073 A 
ATOM      5  N1  UNL     1     150.936 159.234 158.146  0.00  0.00    -0.252 NA
ATOM      6  C7  UNL     1     150.831 158.937 159.460  0.00  0.00    +0.041 A 
ATOM      7  C8  UNL     1     150.570 160.075 160.402  0.00  0.00    +0.065 C 
ATOM      8  C9  UNL     1     150.966 157.648 159.948  0.00  0.00    +0.047 A 
ATOM      9  C10 UNL     1     151.213 156.607 159.050  0.00  0.00    +0.042 A 
ATOM     10  C19 UNL     1     151.336 156.898 157.670  0.00  0.00    +0.025 A 
ATOM     11  C20 UNL     1     151.582 155.917 156.678  0.00  0.00    +0.057 A 
ENDROOT
BRANCH   9  12
ATOM     12  N2  UNL     1     151.418 155.299 159.566  0.00  0.00    -0.314 N 
ATOM     13  H12 UNL     1     151.601 154.634 158.819  0.00  0.00    +0.152 HD
BRANCH  12  14
ATOM     14  C11 UNL     1     150.644 154.672 160.575  0.00  0.00    +0.031 A 
ATOM     15  C12 UNL     1     149.365 154.166 160.359  0.00  0.00    +0.025 A 
ATOM     16  C13 UNL     1     148.621 153.605 161.412  0.00  0.00    +0.025 A 
ATOM     17  C14 UNL     1     149.102 153.552 162.730  0.00  0.00    +0.029 A 
ATOM     18  C15 UNL     1     150.388 154.080 162.927  0.00  0.00    +0.025 A 
ATOM     19  C16 UNL     1     151.137 154.641 161.880  0.00  0.00    +0.025 A 
BRANCH  17  20
ATOM     20  N3  UNL     1     148.365 152.975 163.772  0.00  0.00    -0.336 N 
ATOM     21  C17 UNL     1     148.999 152.813 165.080  0.00  0.00    +0.129 C 
ATOM     22  C18 UNL     1     147.338 151.988 163.445  0.00  0.00    +0.129 C 
ENDBRANCH  17  20
ENDBRANCH  12  14
ENDBRANCH   9  12
BRANCH   1  23
ATOM     23  O1  UNL     1     151.930 155.201 154.489  0.00  0.00    -0.492 OA
BRANCH  23  25
ATOM     24  C1  UNL     1     153.554 155.579 152.788  0.00  0.00    +0.048 C 
ATOM     25  C2  UNL     1     152.072 155.494 153.101  0.00  0.00    +0.225 C 
ENDBRANCH  23  25
ENDBRANCH   1  23
TORSDOF 5
ENDMDL
MODEL 6
REMARK VINA RESULT:    -7.007      3.292      7.748
REMARK INTER + INTRA:          -9.747
REMARK INTER:                  -8.853
REMARK INTRA:                  -0.894
REMARK UNBOUND:                -0.692
REMARK  Name = /home/vital/Documents/PhD_2021/Malaria_codes/data/pdb_ligands_mmv/ligand_340.pdb
REMARK  9 active torsions:
REMARK  status: ('A' for Active; 'I' for Inactive)
REMARK    1  A    between atoms: C1_1  and  C2_2
REMARK    2  A    between atoms: C2_2  and  O1_3
REMARK    3  A    between atoms: O1_3  and  C3_4
REMARK    4  A    between atoms: C7_9  and  C8_10
REMARK    5  A    between atoms: C10_12  and  N2_13
REMARK    6  A    between atoms: N2_13  and  C11_14
REMARK    7  A    between atoms: C14_17  and  N3_20
REMARK    8  A    between atoms: N3_20  and  C17_21
REMARK    9  A    between atoms: N3_20  and  C18_22
REMARK                            x       y       z     vdW  Elec       q    Type
REMARK                         _______ _______ _______ _____ _____    ______ ____
ROOT
ATOM      1  C3  UNL     1     150.407 157.124 157.330  0.00  0.00    +0.121 A 
ATOM      2  C4  UNL     1     150.286 158.491 157.123  0.00  0.00    +0.048 A 
ATOM      3  C5  UNL     1     150.392 159.371 158.206  0.00  0.00    +0.032 A 
ATOM      4  C6  UNL     1     150.619 158.926 159.501  0.00  0.00    +0.073 A 
ATOM      5  N1  UNL     1     150.702 159.837 160.485  0.00  0.00    -0.252 NA
ATOM      6  C7  UNL     1     150.926 159.413 161.748  0.00  0.00    +0.041 A 
ATOM      7  C8  UNL     1     151.028 160.460 162.816  0.00  0.00    +0.065 C 
ATOM      8  C9  UNL     1     151.072 158.074 162.071  0.00  0.00    +0.047 A 
ATOM      9  C10 UNL     1     150.978 157.118 161.057  0.00  0.00    +0.042 A 
ATOM     10  C19 UNL     1     150.752 157.542 159.725  0.00  0.00    +0.025 A 
ATOM     11  C20 UNL     1     150.636 156.657 158.626  0.00  0.00    +0.057 A 
ENDROOT
BRANCH   9  12
ATOM     12  N2  UNL     1     151.196 155.754 161.387  0.00  0.00    -0.314 N 
ATOM     13  H12 UNL     1     151.666 155.263 160.630  0.00  0.00    +0.152 HD
BRANCH  12  14
ATOM     14  C11 UNL     1     150.257 154.885 161.999  0.00  0.00    +0.031 A 
ATOM     15  C12 UNL     1     150.318 154.511 163.339  0.00  0.00    +0.025 A 
ATOM     16  C13 UNL     1     149.392 153.601 163.879  0.00  0.00    +0.025 A 
ATOM     17  C14 UNL     1     148.387 153.000 163.105  0.00  0.00    +0.029 A 
ATOM     18  C15 UNL     1     148.354 153.381 161.754  0.00  0.00    +0.025 A 
ATOM     19  C16 UNL     1     149.274 154.290 161.207  0.00  0.00    +0.025 A 
BRANCH  17  20
ATOM     20  N3  UNL     1     147.455 152.108 163.650  0.00  0.00    -0.336 N 
ATOM     21  C17 UNL     1     147.815 151.356 164.851  0.00  0.00    +0.129 C 
ATOM     22  C18 UNL     1     146.507 151.446 162.756  0.00  0.00    +0.129 C 
ENDBRANCH  17  20
ENDBRANCH  12  14
ENDBRANCH   9  12
BRANCH   1  23
ATOM     23  O1  UNL     1     150.322 156.151 156.374  0.00  0.00    -0.492 OA
BRANCH  23  25
ATOM     24  C1  UNL     1     151.957 156.254 154.645  0.00  0.00    +0.048 C 
ATOM     25  C2  UNL     1     151.545 155.565 155.932  0.00  0.00    +0.225 C 
ENDBRANCH  23  25
ENDBRANCH   1  23
TORSDOF 5
ENDMDL
MODEL 7
REMARK VINA RESULT:    -6.991      3.053      7.285
REMARK INTER + INTRA:          -9.727
REMARK INTER:                  -8.965
REMARK INTRA:                  -0.762
REMARK UNBOUND:                -0.692
REMARK  Name = /home/vital/Documents/PhD_2021/Malaria_codes/data/pdb_ligands_mmv/ligand_340.pdb
REMARK  9 active torsions:
REMARK  status: ('A' for Active; 'I' for Inactive)
REMARK    1  A    between atoms: C1_1  and  C2_2
REMARK    2  A    between atoms: C2_2  and  O1_3
REMARK    3  A    between atoms: O1_3  and  C3_4
REMARK    4  A    between atoms: C7_9  and  C8_10
REMARK    5  A    between atoms: C10_12  and  N2_13
REMARK    6  A    between atoms: N2_13  and  C11_14
REMARK    7  A    between atoms: C14_17  and  N3_20
REMARK    8  A    between atoms: N3_20  and  C17_21
REMARK    9  A    between atoms: N3_20  and  C18_22
REMARK                            x       y       z     vdW  Elec       q    Type
REMARK                         _______ _______ _______ _____ _____    ______ ____
ROOT
ATOM      1  C3  UNL     1     150.520 159.397 161.349  0.00  0.00    +0.121 A 
ATOM      2  C4  UNL     1     150.256 160.118 160.193  0.00  0.00    +0.048 A 
ATOM      3  C5  UNL     1     150.366 159.496 158.944  0.00  0.00    +0.032 A 
ATOM      4  C6  UNL     1     150.730 158.163 158.811  0.00  0.00    +0.073 A 
ATOM      5  N1  UNL     1     150.817 157.644 157.575  0.00  0.00    -0.252 NA
ATOM      6  C7  UNL     1     151.168 156.347 157.437  0.00  0.00    +0.041 A 
ATOM      7  C8  UNL     1     151.239 155.800 156.042  0.00  0.00    +0.065 C 
ATOM      8  C9  UNL     1     151.446 155.529 158.519  0.00  0.00    +0.047 A 
ATOM      9  C10 UNL     1     151.369 156.062 159.808  0.00  0.00    +0.042 A 
ATOM     10  C19 UNL     1     150.993 157.417 159.976  0.00  0.00    +0.025 A 
ATOM     11  C20 UNL     1     150.889 158.055 161.236  0.00  0.00    +0.057 A 
ENDROOT
BRANCH   9  12
ATOM     12  N2  UNL     1     151.590 155.198 160.914  0.00  0.00    -0.314 N 
ATOM     13  H12 UNL     1     152.373 154.573 160.742  0.00  0.00    +0.152 HD
BRANCH  12  14
ATOM     14  C11 UNL     1     150.589 154.509 161.644  0.00  0.00    +0.031 A 
ATOM     15  C12 UNL     1     150.716 154.169 162.989  0.00  0.00    +0.025 A 
ATOM     16  C13 UNL     1     149.714 153.435 163.647  0.00  0.00    +0.025 A 
ATOM     17  C14 UNL     1     148.559 152.979 162.992  0.00  0.00    +0.029 A 
ATOM     18  C15 UNL     1     148.459 153.321 161.634  0.00  0.00    +0.025 A 
ATOM     19  C16 UNL     1     149.455 154.056 160.969  0.00  0.00    +0.025 A 
BRANCH  17  20
ATOM     20  N3  UNL     1     147.555 152.264 163.656  0.00  0.00    -0.336 N 
ATOM     21  C17 UNL     1     147.841 151.704 164.976  0.00  0.00    +0.129 C 
ATOM     22  C18 UNL     1     146.572 151.529 162.862  0.00  0.00    +0.129 C 
ENDBRANCH  17  20
ENDBRANCH  12  14
ENDBRANCH   9  12
BRANCH   1  23
ATOM     23  O1  UNL     1     150.460 159.871 162.629  0.00  0.00    -0.492 OA
BRANCH  23  25
ATOM     24  C1  UNL     1     151.187 161.817 163.793  0.00  0.00    +0.048 C 
ATOM     25  C2  UNL     1     150.188 161.261 162.795  0.00  0.00    +0.225 C 
ENDBRANCH  23  25
ENDBRANCH   1  23
TORSDOF 5
ENDMDL
MODEL 8
REMARK VINA RESULT:    -6.810      3.872      6.115
REMARK INTER + INTRA:          -9.493
REMARK INTER:                  -8.649
REMARK INTRA:                  -0.844
REMARK UNBOUND:                -0.692
REMARK  Name = /home/vital/Documents/PhD_2021/Malaria_codes/data/pdb_ligands_mmv/ligand_340.pdb
REMARK  9 active torsions:
REMARK  status: ('A' for Active; 'I' for Inactive)
REMARK    1  A    between atoms: C1_1  and  C2_2
REMARK    2  A    between atoms: C2_2  and  O1_3
REMARK    3  A    between atoms: O1_3  and  C3_4
REMARK    4  A    between atoms: C7_9  and  C8_10
REMARK    5  A    between atoms: C10_12  and  N2_13
REMARK    6  A    between atoms: N2_13  and  C11_14
REMARK    7  A    between atoms: C14_17  and  N3_20
REMARK    8  A    between atoms: N3_20  and  C17_21
REMARK    9  A    between atoms: N3_20  and  C18_22
REMARK                            x       y       z     vdW  Elec       q    Type
REMARK                         _______ _______ _______ _____ _____    ______ ____
ROOT
ATOM      1  C3  UNL     1     152.444 158.487 165.298  0.00  0.00    +0.121 A 
ATOM      2  C4  UNL     1     151.641 158.435 166.430  0.00  0.00    +0.048 A 
ATOM      3  C5  UNL     1     150.693 157.414 166.564  0.00  0.00    +0.032 A 
ATOM      4  C6  UNL     1     150.521 156.432 165.599  0.00  0.00    +0.073 A 
ATOM      5  N1  UNL     1     149.585 155.491 165.804  0.00  0.00    -0.252 NA
ATOM      6  C7  UNL     1     149.413 154.530 164.870  0.00  0.00    +0.041 A 
ATOM      7  C8  UNL     1     148.369 153.488 165.142  0.00  0.00    +0.065 C 
ATOM      8  C9  UNL     1     150.162 154.476 163.706  0.00  0.00    +0.047 A 
ATOM      9  C10 UNL     1     151.131 155.456 163.479  0.00  0.00    +0.042 A 
ATOM     10  C19 UNL     1     151.334 156.467 164.450  0.00  0.00    +0.025 A 
ATOM     11  C20 UNL     1     152.286 157.508 164.316  0.00  0.00    +0.057 A 
ENDROOT
BRANCH   9  12
ATOM     12  N2  UNL     1     151.941 155.354 162.316  0.00  0.00    -0.314 N 
ATOM     13  H12 UNL     1     152.892 155.664 162.502  0.00  0.00    +0.152 HD
BRANCH  12  14
ATOM     14  C11 UNL     1     151.567 155.743 161.006  0.00  0.00    +0.031 A 
ATOM     15  C12 UNL     1     151.401 154.844 159.955  0.00  0.00    +0.025 A 
ATOM     16  C13 UNL     1     151.085 155.293 158.661  0.00  0.00    +0.025 A 
ATOM     17  C14 UNL     1     150.950 156.655 158.347  0.00  0.00    +0.029 A 
ATOM     18  C15 UNL     1     151.136 157.544 159.419  0.00  0.00    +0.025 A 
ATOM     19  C16 UNL     1     151.451 157.103 160.714  0.00  0.00    +0.025 A 
BRANCH  17  20
ATOM     20  N3  UNL     1     150.616 157.098 157.061  0.00  0.00    -0.336 N 
ATOM     21  C17 UNL     1     150.787 156.184 155.933  0.00  0.00    +0.129 C 
ATOM     22  C18 UNL     1     150.760 158.518 156.746  0.00  0.00    +0.129 C 
ENDBRANCH  17  20
ENDBRANCH  12  14
ENDBRANCH   9  12
BRANCH   1  23
ATOM     23  O1  UNL     1     153.403 159.422 165.030  0.00  0.00    -0.492 OA
BRANCH  23  25
ATOM     24  C1  UNL     1     153.590 161.520 166.141  0.00  0.00    +0.048 C 
ATOM     25  C2  UNL     1     152.983 160.783 164.962  0.00  0.00    +0.225 C 
ENDBRANCH  23  25
ENDBRANCH   1  23
TORSDOF 5
ENDMDL
MODEL 9
REMARK VINA RESULT:    -6.609      4.740      7.207
REMARK INTER + INTRA:          -9.233
REMARK INTER:                  -8.489
REMARK INTRA:                  -0.744
REMARK UNBOUND:                -0.692
REMARK  Name = /home/vital/Documents/PhD_2021/Malaria_codes/data/pdb_ligands_mmv/ligand_340.pdb
REMARK  9 active torsions:
REMARK  status: ('A' for Active; 'I' for Inactive)
REMARK    1  A    between atoms: C1_1  and  C2_2
REMARK    2  A    between atoms: C2_2  and  O1_3
REMARK    3  A    between atoms: O1_3  and  C3_4
REMARK    4  A    between atoms: C7_9  and  C8_10
REMARK    5  A    between atoms: C10_12  and  N2_13
REMARK    6  A    between atoms: N2_13  and  C11_14
REMARK    7  A    between atoms: C14_17  and  N3_20
REMARK    8  A    between atoms: N3_20  and  C17_21
REMARK    9  A    between atoms: N3_20  and  C18_22
REMARK                            x       y       z     vdW  Elec       q    Type
REMARK                         _______ _______ _______ _____ _____    ______ ____
ROOT
ATOM      1  C3  UNL     1     151.377 155.379 166.947  0.00  0.00    +0.121 A 
ATOM      2  C4  UNL     1     150.498 154.551 167.633  0.00  0.00    +0.048 A 
ATOM      3  C5  UNL     1     149.559 153.794 166.925  0.00  0.00    +0.032 A 
ATOM      4  C6  UNL     1     149.469 153.832 165.541  0.00  0.00    +0.073 A 
ATOM      5  N1  UNL     1     148.535 153.078 164.939  0.00  0.00    -0.252 NA
ATOM      6  C7  UNL     1     148.443 153.108 163.591  0.00  0.00    +0.041 A 
ATOM      7  C8  UNL     1     147.399 152.239 162.955  0.00  0.00    +0.065 C 
ATOM      8  C9  UNL     1     149.272 153.888 162.803  0.00  0.00    +0.047 A 
ATOM      9  C10 UNL     1     150.240 154.685 163.420  0.00  0.00    +0.042 A 
ATOM     10  C19 UNL     1     150.359 154.661 164.830  0.00  0.00    +0.025 A 
ATOM     11  C20 UNL     1     151.302 155.432 165.554  0.00  0.00    +0.057 A 
ENDROOT
BRANCH   9  12
ATOM     12  N2  UNL     1     151.130 155.430 162.600  0.00  0.00    -0.314 N 
ATOM     13  H12 UNL     1     151.517 156.223 163.105  0.00  0.00    +0.152 HD
BRANCH  12  14
ATOM     14  C11 UNL     1     150.908 155.795 161.249  0.00  0.00    +0.031 A 
ATOM     15  C12 UNL     1     151.283 155.003 160.167  0.00  0.00    +0.025 A 
ATOM     16  C13 UNL     1     151.089 155.442 158.846  0.00  0.00    +0.025 A 
ATOM     17  C14 UNL     1     150.543 156.700 158.542  0.00  0.00    +0.029 A 
ATOM     18  C15 UNL     1     150.185 157.487 159.648  0.00  0.00    +0.025 A 
ATOM     19  C16 UNL     1     150.375 157.055 160.971  0.00  0.00    +0.025 A 
BRANCH  17  20
ATOM     20  N3  UNL     1     150.334 157.126 157.224  0.00  0.00    -0.336 N 
ATOM     21  C17 UNL     1     150.725 156.244 156.126  0.00  0.00    +0.129 C 
ATOM     22  C18 UNL     1     150.387 158.557 156.931  0.00  0.00    +0.129 C 
ENDBRANCH  17  20
ENDBRANCH  12  14
ENDBRANCH   9  12
BRANCH   1  23
ATOM     23  O1  UNL     1     152.338 156.175 167.503  0.00  0.00    -0.492 OA
BRANCH  23  25
ATOM     24  C1  UNL     1     151.477 158.373 167.820  0.00  0.00    +0.048 C 
ATOM     25  C2  UNL     1     152.435 157.513 167.017  0.00  0.00    +0.225 C 
ENDBRANCH  23  25
ENDBRANCH   1  23
TORSDOF 5
ENDMDL
