MODEL 1
REMARK VINA RESULT:    -7.328      0.000      0.000
REMARK INTER + INTRA:         -11.567
REMARK INTER:                 -10.327
REMARK INTRA:                  -1.240
REMARK UNBOUND:                -1.240
REMARK  Name = /home/vital/Documents/PhD_2021/Malaria_codes/data/pdb_ligands_mmv/ligand_347.pdb
REMARK  9 active torsions:
REMARK  status: ('A' for Active; 'I' for Inactive)
REMARK    1  A    between atoms: C1_1  and  C2_2
REMARK    2  A    between atoms: C2_2  and  O1_3
REMARK    3  A    between atoms: O1_3  and  C3_4
REMARK    4  A    between atoms: C3_4  and  C4_6
REMARK    5  A    between atoms: C9_12  and  O3_13
REMARK    6  A    between atoms: O3_13  and  C10_14
REMARK    7  A    between atoms: C13_17  and  N2_18
REMARK    8  A    between atoms: N2_18  and  C14_19
REMARK    9  A    between atoms: C14_19  and  C15_20
REMARK                            x       y       z     vdW  Elec       q    Type
REMARK                         _______ _______ _______ _____ _____    ______ ____
ROOT
ATOM      1  C4  UNL     1     151.570 156.949 155.635  0.00  0.00    +0.098 A 
ATOM      2  C5  UNL     1     152.110 158.121 155.126  0.00  0.00    +0.128 A 
ATOM      3  N1  UNL     1     152.165 159.297 155.795  0.00  0.00    -0.254 NA
ATOM      4  C6  UNL     1     151.645 159.344 157.031  0.00  0.00    +0.073 A 
ATOM      5  C7  UNL     1     151.689 160.549 157.717  0.00  0.00    +0.032 A 
ATOM      6  C8  UNL     1     151.162 160.692 159.006  0.00  0.00    +0.048 A 
ATOM      7  C9  UNL     1     150.565 159.606 159.629  0.00  0.00    +0.121 A 
ATOM      8  C11 UNL     1     150.513 158.386 158.951  0.00  0.00    +0.057 A 
ATOM      9  C12 UNL     1     151.059 158.224 157.656  0.00  0.00    +0.025 A 
ATOM     10  C13 UNL     1     151.028 156.993 156.936  0.00  0.00    +0.052 A 
ENDROOT
BRANCH   1  11
ATOM     11  C3  UNL     1     151.563 155.706 154.821  0.00  0.00    +0.342 C 
ATOM     12  O2  UNL     1     150.650 154.895 154.828  0.00  0.00    -0.245 OA
BRANCH  11  13
ATOM     13  O1  UNL     1     152.701 155.600 154.088  0.00  0.00    -0.461 OA
BRANCH  13  15
ATOM     14  C1  UNL     1     153.501 156.405 151.948  0.00  0.00    +0.048 C 
ATOM     15  C2  UNL     1     152.526 155.491 152.667  0.00  0.00    +0.229 C 
ENDBRANCH  13  15
ENDBRANCH  11  13
ENDBRANCH   1  11
BRANCH   7  16
ATOM     16  O3  UNL     1     150.004 159.598 160.875  0.00  0.00    -0.495 OA
ATOM     17  C10 UNL     1     150.566 158.705 161.829  0.00  0.00    +0.277 C 
ENDBRANCH   7  16
BRANCH  10  18
ATOM     18  N2  UNL     1     150.528 155.819 157.582  0.00  0.00    -0.339 N 
ATOM     19  H13 UNL     1     150.273 155.124 156.868  0.00  0.00    +0.146 HD
BRANCH  18  20
ATOM     20  C14 UNL     1     151.538 155.202 158.451  0.00  0.00    +0.137 C 
BRANCH  20  21
ATOM     21  C15 UNL     1     150.918 154.915 159.798  0.00  0.00    -0.030 A 
ATOM     22  C16 UNL     1     151.620 155.196 160.979  0.00  0.00    +0.005 A 
ATOM     23  C17 UNL     1     151.041 154.945 162.223  0.00  0.00    +0.000 A 
ATOM     24  C18 UNL     1     149.751 154.422 162.300  0.00  0.00    +0.000 A 
ATOM     25  C19 UNL     1     149.037 154.155 161.133  0.00  0.00    +0.000 A 
ATOM     26  C20 UNL     1     149.615 154.405 159.888  0.00  0.00    +0.005 A 
ENDBRANCH  20  21
ENDBRANCH  18  20
ENDBRANCH  10  18
TORSDOF 7
ENDMDL
MODEL 2
REMARK VINA RESULT:    -7.020      1.221      5.278
REMARK INTER + INTRA:         -11.133
REMARK INTER:                  -9.987
REMARK INTRA:                  -1.146
REMARK UNBOUND:                -1.240
REMARK  Name = /home/vital/Documents/PhD_2021/Malaria_codes/data/pdb_ligands_mmv/ligand_347.pdb
REMARK  9 active torsions:
REMARK  status: ('A' for Active; 'I' for Inactive)
REMARK    1  A    between atoms: C1_1  and  C2_2
REMARK    2  A    between atoms: C2_2  and  O1_3
REMARK    3  A    between atoms: O1_3  and  C3_4
REMARK    4  A    between atoms: C3_4  and  C4_6
REMARK    5  A    between atoms: C9_12  and  O3_13
REMARK    6  A    between atoms: O3_13  and  C10_14
REMARK    7  A    between atoms: C13_17  and  N2_18
REMARK    8  A    between atoms: N2_18  and  C14_19
REMARK    9  A    between atoms: C14_19  and  C15_20
REMARK                            x       y       z     vdW  Elec       q    Type
REMARK                         _______ _______ _______ _____ _____    ______ ____
ROOT
ATOM      1  C4  UNL     1     151.021 158.143 158.891  0.00  0.00    +0.098 A 
ATOM      2  C5  UNL     1     151.570 159.245 158.254  0.00  0.00    +0.128 A 
ATOM      3  N1  UNL     1     151.949 159.273 156.954  0.00  0.00    -0.254 NA
ATOM      4  C6  UNL     1     151.804 158.153 156.231  0.00  0.00    +0.073 A 
ATOM      5  C7  UNL     1     152.201 158.173 154.902  0.00  0.00    +0.032 A 
ATOM      6  C8  UNL     1     152.095 157.047 154.076  0.00  0.00    +0.048 A 
ATOM      7  C9  UNL     1     151.587 155.863 154.590  0.00  0.00    +0.121 A 
ATOM      8  C11 UNL     1     151.183 155.827 155.926  0.00  0.00    +0.057 A 
ATOM      9  C12 UNL     1     151.267 156.964 156.766  0.00  0.00    +0.025 A 
ATOM     10  C13 UNL     1     150.861 156.965 158.133  0.00  0.00    +0.052 A 
ENDROOT
BRANCH   1  11
ATOM     11  C3  UNL     1     150.631 158.216 160.323  0.00  0.00    +0.342 C 
ATOM     12  O2  UNL     1     149.489 158.048 160.724  0.00  0.00    -0.245 OA
BRANCH  11  13
ATOM     13  O1  UNL     1     151.704 158.499 161.105  0.00  0.00    -0.461 OA
BRANCH  13  15
ATOM     14  C1  UNL     1     151.557 160.850 161.671  0.00  0.00    +0.048 C 
ATOM     15  C2  UNL     1     151.474 159.423 162.180  0.00  0.00    +0.229 C 
ENDBRANCH  13  15
ENDBRANCH  11  13
ENDBRANCH   1  11
BRANCH   7  16
ATOM     16  O3  UNL     1     151.432 154.688 153.909  0.00  0.00    -0.495 OA
ATOM     17  C10 UNL     1     151.436 154.761 152.489  0.00  0.00    +0.277 C 
ENDBRANCH   7  16
BRANCH  10  18
ATOM     18  N2  UNL     1     150.224 155.803 158.673  0.00  0.00    -0.339 N 
ATOM     19  H13 UNL     1     149.912 155.201 157.901  0.00  0.00    +0.146 HD
BRANCH  18  20
ATOM     20  C14 UNL     1     151.143 155.012 159.501  0.00  0.00    +0.137 C 
BRANCH  20  21
ATOM     21  C15 UNL     1     150.410 154.539 160.733  0.00  0.00    -0.030 A 
ATOM     22  C16 UNL     1     151.007 154.635 161.998  0.00  0.00    +0.005 A 
ATOM     23  C17 UNL     1     150.323 154.211 163.138  0.00  0.00    +0.000 A 
ATOM     24  C18 UNL     1     149.032 153.697 163.026  0.00  0.00    +0.000 A 
ATOM     25  C19 UNL     1     148.421 153.612 161.777  0.00  0.00    +0.000 A 
ATOM     26  C20 UNL     1     149.104 154.035 160.635  0.00  0.00    +0.005 A 
ENDBRANCH  20  21
ENDBRANCH  18  20
ENDBRANCH  10  18
TORSDOF 7
ENDMDL
MODEL 3
REMARK VINA RESULT:    -6.973      2.151      5.059
REMARK INTER + INTRA:         -11.067
REMARK INTER:                  -9.636
REMARK INTRA:                  -1.431
REMARK UNBOUND:                -1.240
REMARK  Name = /home/vital/Documents/PhD_2021/Malaria_codes/data/pdb_ligands_mmv/ligand_347.pdb
REMARK  9 active torsions:
REMARK  status: ('A' for Active; 'I' for Inactive)
REMARK    1  A    between atoms: C1_1  and  C2_2
REMARK    2  A    between atoms: C2_2  and  O1_3
REMARK    3  A    between atoms: O1_3  and  C3_4
REMARK    4  A    between atoms: C3_4  and  C4_6
REMARK    5  A    between atoms: C9_12  and  O3_13
REMARK    6  A    between atoms: O3_13  and  C10_14
REMARK    7  A    between atoms: C13_17  and  N2_18
REMARK    8  A    between atoms: N2_18  and  C14_19
REMARK    9  A    between atoms: C14_19  and  C15_20
REMARK                            x       y       z     vdW  Elec       q    Type
REMARK                         _______ _______ _______ _____ _____    ______ ____
ROOT
ATOM      1  C4  UNL     1     150.682 155.646 158.868  0.00  0.00    +0.098 A 
ATOM      2  C5  UNL     1     150.027 154.676 159.612  0.00  0.00    +0.128 A 
ATOM      3  N1  UNL     1     150.026 154.614 160.964  0.00  0.00    -0.254 NA
ATOM      4  C6  UNL     1     150.721 155.542 161.639  0.00  0.00    +0.073 A 
ATOM      5  C7  UNL     1     150.732 155.477 163.025  0.00  0.00    +0.032 A 
ATOM      6  C8  UNL     1     151.438 156.397 163.808  0.00  0.00    +0.048 A 
ATOM      7  C9  UNL     1     152.163 157.409 163.195  0.00  0.00    +0.121 A 
ATOM      8  C11 UNL     1     152.161 157.488 161.801  0.00  0.00    +0.057 A 
ATOM      9  C12 UNL     1     151.436 156.575 160.998  0.00  0.00    +0.025 A 
ATOM     10  C13 UNL     1     151.408 156.627 159.573  0.00  0.00    +0.052 A 
ENDROOT
BRANCH   1  11
ATOM     11  C3  UNL     1     150.616 155.630 157.384  0.00  0.00    +0.342 C 
ATOM     12  O2  UNL     1     149.573 155.684 156.750  0.00  0.00    -0.245 OA
BRANCH  11  13
ATOM     13  O1  UNL     1     151.858 155.543 156.844  0.00  0.00    -0.461 OA
BRANCH  13  15
ATOM     14  C1  UNL     1     152.475 157.325 155.324  0.00  0.00    +0.048 C 
ATOM     15  C2  UNL     1     151.969 155.901 155.458  0.00  0.00    +0.229 C 
ENDBRANCH  13  15
ENDBRANCH  11  13
ENDBRANCH   1  11
BRANCH   7  16
ATOM     16  O3  UNL     1     152.902 158.369 163.826  0.00  0.00    -0.495 OA
ATOM     17  C10 UNL     1     152.515 158.714 165.151  0.00  0.00    +0.277 C 
ENDBRANCH   7  16
BRANCH  10  18
ATOM     18  N2  UNL     1     152.043 157.720 158.902  0.00  0.00    -0.339 N 
ATOM     19  H13 UNL     1     152.466 157.379 158.029  0.00  0.00    +0.146 HD
BRANCH  18  20
ATOM     20  C14 UNL     1     151.085 158.772 158.543  0.00  0.00    +0.137 C 
BRANCH  20  21
ATOM     21  C15 UNL     1     151.078 159.822 159.627  0.00  0.00    -0.030 A 
ATOM     22  C16 UNL     1     149.952 159.994 160.445  0.00  0.00    +0.005 A 
ATOM     23  C17 UNL     1     149.952 160.955 161.457  0.00  0.00    +0.000 A 
ATOM     24  C18 UNL     1     151.081 161.746 161.668  0.00  0.00    +0.000 A 
ATOM     25  C19 UNL     1     152.212 161.573 160.873  0.00  0.00    +0.000 A 
ATOM     26  C20 UNL     1     152.214 160.612 159.860  0.00  0.00    +0.005 A 
ENDBRANCH  20  21
ENDBRANCH  18  20
ENDBRANCH  10  18
TORSDOF 7
ENDMDL
MODEL 4
REMARK VINA RESULT:    -6.887      2.422      6.038
REMARK INTER + INTRA:         -10.946
REMARK INTER:                  -9.803
REMARK INTRA:                  -1.143
REMARK UNBOUND:                -1.240
REMARK  Name = /home/vital/Documents/PhD_2021/Malaria_codes/data/pdb_ligands_mmv/ligand_347.pdb
REMARK  9 active torsions:
REMARK  status: ('A' for Active; 'I' for Inactive)
REMARK    1  A    between atoms: C1_1  and  C2_2
REMARK    2  A    between atoms: C2_2  and  O1_3
REMARK    3  A    between atoms: O1_3  and  C3_4
REMARK    4  A    between atoms: C3_4  and  C4_6
REMARK    5  A    between atoms: C9_12  and  O3_13
REMARK    6  A    between atoms: O3_13  and  C10_14
REMARK    7  A    between atoms: C13_17  and  N2_18
REMARK    8  A    between atoms: N2_18  and  C14_19
REMARK    9  A    between atoms: C14_19  and  C15_20
REMARK                            x       y       z     vdW  Elec       q    Type
REMARK                         _______ _______ _______ _____ _____    ______ ____
ROOT
ATOM      1  C4  UNL     1     150.999 155.853 161.242  0.00  0.00    +0.098 A 
ATOM      2  C5  UNL     1     150.570 156.376 162.453  0.00  0.00    +0.128 A 
ATOM      3  N1  UNL     1     150.516 157.697 162.743  0.00  0.00    -0.254 NA
ATOM      4  C6  UNL     1     150.922 158.566 161.806  0.00  0.00    +0.073 A 
ATOM      5  C7  UNL     1     150.878 159.921 162.102  0.00  0.00    +0.032 A 
ATOM      6  C8  UNL     1     151.291 160.897 161.187  0.00  0.00    +0.048 A 
ATOM      7  C9  UNL     1     151.770 160.515 159.943  0.00  0.00    +0.121 A 
ATOM      8  C11 UNL     1     151.820 159.155 159.630  0.00  0.00    +0.057 A 
ATOM      9  C12 UNL     1     151.388 158.159 160.538  0.00  0.00    +0.025 A 
ATOM     10  C13 UNL     1     151.420 156.762 160.251  0.00  0.00    +0.052 A 
ENDROOT
BRANCH   1  11
ATOM     11  C3  UNL     1     151.014 154.383 161.019  0.00  0.00    +0.342 C 
ATOM     12  O2  UNL     1     151.761 153.825 160.231  0.00  0.00    -0.245 OA
BRANCH  11  13
ATOM     13  O1  UNL     1     150.091 153.765 161.799  0.00  0.00    -0.461 OA
BRANCH  13  15
ATOM     14  C1  UNL     1     147.801 153.087 162.202  0.00  0.00    +0.048 C 
ATOM     15  C2  UNL     1     148.849 153.432 161.160  0.00  0.00    +0.229 C 
ENDBRANCH  13  15
ENDBRANCH  11  13
ENDBRANCH   1  11
BRANCH   7  16
ATOM     16  O3  UNL     1     152.213 161.350 158.956  0.00  0.00    -0.495 OA
ATOM     17  C10 UNL     1     151.523 161.302 157.713  0.00  0.00    +0.277 C 
ENDBRANCH   7  16
BRANCH  10  18
ATOM     18  N2  UNL     1     151.795 156.328 158.941  0.00  0.00    -0.339 N 
ATOM     19  H13 UNL     1     152.171 155.372 158.998  0.00  0.00    +0.146 HD
BRANCH  18  20
ATOM     20  C14 UNL     1     150.647 156.291 158.027  0.00  0.00    +0.137 C 
BRANCH  20  21
ATOM     21  C15 UNL     1     151.116 156.637 156.635  0.00  0.00    -0.030 A 
ATOM     22  C16 UNL     1     151.028 157.954 156.161  0.00  0.00    +0.005 A 
ATOM     23  C17 UNL     1     151.475 158.276 154.879  0.00  0.00    +0.000 A 
ATOM     24  C18 UNL     1     152.024 157.289 154.063  0.00  0.00    +0.000 A 
ATOM     25  C19 UNL     1     152.133 155.980 154.529  0.00  0.00    +0.000 A 
ATOM     26  C20 UNL     1     151.686 155.655 155.811  0.00  0.00    +0.005 A 
ENDBRANCH  20  21
ENDBRANCH  18  20
ENDBRANCH  10  18
TORSDOF 7
ENDMDL
MODEL 5
REMARK VINA RESULT:    -6.572      1.192      1.448
REMARK INTER + INTRA:         -10.502
REMARK INTER:                  -9.507
REMARK INTRA:                  -0.995
REMARK UNBOUND:                -1.240
REMARK  Name = /home/vital/Documents/PhD_2021/Malaria_codes/data/pdb_ligands_mmv/ligand_347.pdb
REMARK  9 active torsions:
REMARK  status: ('A' for Active; 'I' for Inactive)
REMARK    1  A    between atoms: C1_1  and  C2_2
REMARK    2  A    between atoms: C2_2  and  O1_3
REMARK    3  A    between atoms: O1_3  and  C3_4
REMARK    4  A    between atoms: C3_4  and  C4_6
REMARK    5  A    between atoms: C9_12  and  O3_13
REMARK    6  A    between atoms: O3_13  and  C10_14
REMARK    7  A    between atoms: C13_17  and  N2_18
REMARK    8  A    between atoms: N2_18  and  C14_19
REMARK    9  A    between atoms: C14_19  and  C15_20
REMARK                            x       y       z     vdW  Elec       q    Type
REMARK                         _______ _______ _______ _____ _____    ______ ____
ROOT
ATOM      1  C4  UNL     1     151.068 157.268 156.946  0.00  0.00    +0.098 A 
ATOM      2  C5  UNL     1     151.605 158.412 156.375  0.00  0.00    +0.128 A 
ATOM      3  N1  UNL     1     151.813 159.576 157.034  0.00  0.00    -0.254 NA
ATOM      4  C6  UNL     1     151.460 159.640 158.327  0.00  0.00    +0.073 A 
ATOM      5  C7  UNL     1     151.662 160.833 159.005  0.00  0.00    +0.032 A 
ATOM      6  C8  UNL     1     151.315 160.993 160.352  0.00  0.00    +0.048 A 
ATOM      7  C9  UNL     1     150.742 159.936 161.044  0.00  0.00    +0.121 A 
ATOM      8  C11 UNL     1     150.533 158.728 160.375  0.00  0.00    +0.057 A 
ATOM      9  C12 UNL     1     150.897 158.548 159.019  0.00  0.00    +0.025 A 
ATOM     10  C13 UNL     1     150.703 157.328 158.306  0.00  0.00    +0.052 A 
ENDROOT
BRANCH   1  11
ATOM     11  C3  UNL     1     150.885 156.035 156.136  0.00  0.00    +0.342 C 
ATOM     12  O2  UNL     1     149.802 155.506 155.941  0.00  0.00    -0.245 OA
BRANCH  11  13
ATOM     13  O1  UNL     1     152.075 155.586 155.660  0.00  0.00    -0.461 OA
BRANCH  13  15
ATOM     14  C1  UNL     1     153.186 156.242 153.610  0.00  0.00    +0.048 C 
ATOM     15  C2  UNL     1     152.137 155.348 154.246  0.00  0.00    +0.229 C 
ENDBRANCH  13  15
ENDBRANCH  11  13
ENDBRANCH   1  11
BRANCH   7  16
ATOM     16  O3  UNL     1     150.347 159.947 162.352  0.00  0.00    -0.495 OA
ATOM     17  C10 UNL     1     151.279 159.464 163.311  0.00  0.00    +0.277 C 
ENDBRANCH   7  16
BRANCH  10  18
ATOM     18  N2  UNL     1     150.224 156.178 159.009  0.00  0.00    -0.339 N 
ATOM     19  H13 UNL     1     149.969 155.450 158.329  0.00  0.00    +0.146 HD
BRANCH  18  20
ATOM     20  C14 UNL     1     151.250 155.610 159.892  0.00  0.00    +0.137 C 
BRANCH  20  21
ATOM     21  C15 UNL     1     150.574 154.923 161.053  0.00  0.00    -0.030 A 
ATOM     22  C16 UNL     1     151.180 154.899 162.317  0.00  0.00    +0.005 A 
ATOM     23  C17 UNL     1     150.547 154.276 163.394  0.00  0.00    +0.000 A 
ATOM     24  C18 UNL     1     149.299 153.681 163.221  0.00  0.00    +0.000 A 
ATOM     25  C19 UNL     1     148.678 153.713 161.973  0.00  0.00    +0.000 A 
ATOM     26  C20 UNL     1     149.309 154.336 160.895  0.00  0.00    +0.005 A 
ENDBRANCH  20  21
ENDBRANCH  18  20
ENDBRANCH  10  18
TORSDOF 7
ENDMDL
MODEL 6
REMARK VINA RESULT:    -6.475      2.868      6.587
REMARK INTER + INTRA:         -10.364
REMARK INTER:                  -9.133
REMARK INTRA:                  -1.231
REMARK UNBOUND:                -1.240
REMARK  Name = /home/vital/Documents/PhD_2021/Malaria_codes/data/pdb_ligands_mmv/ligand_347.pdb
REMARK  9 active torsions:
REMARK  status: ('A' for Active; 'I' for Inactive)
REMARK    1  A    between atoms: C1_1  and  C2_2
REMARK    2  A    between atoms: C2_2  and  O1_3
REMARK    3  A    between atoms: O1_3  and  C3_4
REMARK    4  A    between atoms: C3_4  and  C4_6
REMARK    5  A    between atoms: C9_12  and  O3_13
REMARK    6  A    between atoms: O3_13  and  C10_14
REMARK    7  A    between atoms: C13_17  and  N2_18
REMARK    8  A    between atoms: N2_18  and  C14_19
REMARK    9  A    between atoms: C14_19  and  C15_20
REMARK                            x       y       z     vdW  Elec       q    Type
REMARK                         _______ _______ _______ _____ _____    ______ ____
ROOT
ATOM      1  C4  UNL     1     151.462 160.077 161.495  0.00  0.00    +0.098 A 
ATOM      2  C5  UNL     1     151.804 161.078 160.597  0.00  0.00    +0.128 A 
ATOM      3  N1  UNL     1     151.795 160.939 159.251  0.00  0.00    -0.254 NA
ATOM      4  C6  UNL     1     151.452 159.747 158.742  0.00  0.00    +0.073 A 
ATOM      5  C7  UNL     1     151.452 159.596 157.362  0.00  0.00    +0.032 A 
ATOM      6  C8  UNL     1     151.117 158.385 156.746  0.00  0.00    +0.048 A 
ATOM      7  C9  UNL     1     150.780 157.287 157.524  0.00  0.00    +0.121 A 
ATOM      8  C11 UNL     1     150.775 157.423 158.914  0.00  0.00    +0.057 A 
ATOM      9  C12 UNL     1     151.093 158.647 159.549  0.00  0.00    +0.025 A 
ATOM     10  C13 UNL     1     151.094 158.824 160.964  0.00  0.00    +0.052 A 
ENDROOT
BRANCH   1  11
ATOM     11  C3  UNL     1     151.497 160.333 162.958  0.00  0.00    +0.342 C 
ATOM     12  O2  UNL     1     150.594 160.027 163.722  0.00  0.00    -0.245 OA
BRANCH  11  13
ATOM     13  O1  UNL     1     152.652 160.949 163.316  0.00  0.00    -0.461 OA
BRANCH  13  15
ATOM     14  C1  UNL     1     153.731 160.580 165.453  0.00  0.00    +0.048 C 
ATOM     15  C2  UNL     1     152.727 161.409 164.674  0.00  0.00    +0.229 C 
ENDBRANCH  13  15
ENDBRANCH  11  13
ENDBRANCH   1  11
BRANCH   7  16
ATOM     16  O3  UNL     1     150.439 156.046 157.065  0.00  0.00    -0.495 OA
ATOM     17  C10 UNL     1     151.154 155.557 155.937  0.00  0.00    +0.277 C 
ENDBRANCH   7  16
BRANCH  10  18
ATOM     18  N2  UNL     1     150.641 157.756 161.801  0.00  0.00    -0.339 N 
ATOM     19  H13 UNL     1     150.001 157.156 161.265  0.00  0.00    +0.146 HD
BRANCH  18  20
ATOM     20  C14 UNL     1     151.751 156.911 162.259  0.00  0.00    +0.137 C 
BRANCH  20  21
ATOM     21  C15 UNL     1     151.542 156.571 163.714  0.00  0.00    -0.030 A 
ATOM     22  C16 UNL     1     150.529 155.681 164.099  0.00  0.00    +0.005 A 
ATOM     23  C17 UNL     1     150.345 155.356 165.444  0.00  0.00    +0.000 A 
ATOM     24  C18 UNL     1     151.178 155.908 166.415  0.00  0.00    +0.000 A 
ATOM     25  C19 UNL     1     152.200 156.780 166.044  0.00  0.00    +0.000 A 
ATOM     26  C20 UNL     1     152.385 157.107 164.699  0.00  0.00    +0.005 A 
ENDBRANCH  20  21
ENDBRANCH  18  20
ENDBRANCH  10  18
TORSDOF 7
ENDMDL
MODEL 7
REMARK VINA RESULT:    -6.381      2.911      7.210
REMARK INTER + INTRA:         -10.232
REMARK INTER:                  -9.159
REMARK INTRA:                  -1.073
REMARK UNBOUND:                -1.240
REMARK  Name = /home/vital/Documents/PhD_2021/Malaria_codes/data/pdb_ligands_mmv/ligand_347.pdb
REMARK  9 active torsions:
REMARK  status: ('A' for Active; 'I' for Inactive)
REMARK    1  A    between atoms: C1_1  and  C2_2
REMARK    2  A    between atoms: C2_2  and  O1_3
REMARK    3  A    between atoms: O1_3  and  C3_4
REMARK    4  A    between atoms: C3_4  and  C4_6
REMARK    5  A    between atoms: C9_12  and  O3_13
REMARK    6  A    between atoms: O3_13  and  C10_14
REMARK    7  A    between atoms: C13_17  and  N2_18
REMARK    8  A    between atoms: N2_18  and  C14_19
REMARK    9  A    between atoms: C14_19  and  C15_20
REMARK                            x       y       z     vdW  Elec       q    Type
REMARK                         _______ _______ _______ _____ _____    ______ ____
ROOT
ATOM      1  C4  UNL     1     150.646 155.951 161.959  0.00  0.00    +0.098 A 
ATOM      2  C5  UNL     1     150.198 154.808 161.313  0.00  0.00    +0.128 A 
ATOM      3  N1  UNL     1     150.119 154.665 159.969  0.00  0.00    -0.254 NA
ATOM      4  C6  UNL     1     150.479 155.706 159.202  0.00  0.00    +0.073 A 
ATOM      5  C7  UNL     1     150.390 155.569 157.824  0.00  0.00    +0.032 A 
ATOM      6  C8  UNL     1     150.735 156.605 156.949  0.00  0.00    +0.048 A 
ATOM      7  C9  UNL     1     151.174 157.819 157.459  0.00  0.00    +0.121 A 
ATOM      8  C11 UNL     1     151.269 157.971 158.844  0.00  0.00    +0.057 A 
ATOM      9  C12 UNL     1     150.942 156.925 159.739  0.00  0.00    +0.025 A 
ATOM     10  C13 UNL     1     151.031 157.044 161.157  0.00  0.00    +0.052 A 
ENDROOT
BRANCH   1  11
ATOM     11  C3  UNL     1     150.701 156.005 163.443  0.00  0.00    +0.342 C 
ATOM     12  O2  UNL     1     151.684 156.367 164.073  0.00  0.00    -0.245 OA
BRANCH  11  13
ATOM     13  O1  UNL     1     149.528 155.594 163.988  0.00  0.00    -0.461 OA
BRANCH  13  15
ATOM     14  C1  UNL     1     148.760 153.405 164.683  0.00  0.00    +0.048 C 
ATOM     15  C2  UNL     1     149.626 154.603 165.023  0.00  0.00    +0.229 C 
ENDBRANCH  13  15
ENDBRANCH  11  13
ENDBRANCH   1  11
BRANCH   7  16
ATOM     16  O3  UNL     1     151.536 158.916 156.731  0.00  0.00    -0.495 OA
ATOM     17  C10 UNL     1     151.491 160.174 157.394  0.00  0.00    +0.277 C 
ENDBRANCH   7  16
BRANCH  10  18
ATOM     18  N2  UNL     1     151.589 158.233 161.724  0.00  0.00    -0.339 N 
ATOM     19  H13 UNL     1     152.305 158.606 161.087  0.00  0.00    +0.146 HD
BRANCH  18  20
ATOM     20  C14 UNL     1     150.576 159.281 161.903  0.00  0.00    +0.137 C 
BRANCH  20  21
ATOM     21  C15 UNL     1     151.087 160.294 162.898  0.00  0.00    -0.030 A 
ATOM     22  C16 UNL     1     150.581 161.602 162.906  0.00  0.00    +0.005 A 
ATOM     23  C17 UNL     1     151.044 162.534 163.836  0.00  0.00    +0.000 A 
ATOM     24  C18 UNL     1     152.008 162.166 164.772  0.00  0.00    +0.000 A 
ATOM     25  C19 UNL     1     152.506 160.864 164.785  0.00  0.00    +0.000 A 
ATOM     26  C20 UNL     1     152.045 159.930 163.856  0.00  0.00    +0.005 A 
ENDBRANCH  20  21
ENDBRANCH  18  20
ENDBRANCH  10  18
TORSDOF 7
ENDMDL
MODEL 8
REMARK VINA RESULT:    -6.372      3.508      7.360
REMARK INTER + INTRA:         -10.220
REMARK INTER:                  -8.570
REMARK INTRA:                  -1.650
REMARK UNBOUND:                -1.240
REMARK  Name = /home/vital/Documents/PhD_2021/Malaria_codes/data/pdb_ligands_mmv/ligand_347.pdb
REMARK  9 active torsions:
REMARK  status: ('A' for Active; 'I' for Inactive)
REMARK    1  A    between atoms: C1_1  and  C2_2
REMARK    2  A    between atoms: C2_2  and  O1_3
REMARK    3  A    between atoms: O1_3  and  C3_4
REMARK    4  A    between atoms: C3_4  and  C4_6
REMARK    5  A    between atoms: C9_12  and  O3_13
REMARK    6  A    between atoms: O3_13  and  C10_14
REMARK    7  A    between atoms: C13_17  and  N2_18
REMARK    8  A    between atoms: N2_18  and  C14_19
REMARK    9  A    between atoms: C14_19  and  C15_20
REMARK                            x       y       z     vdW  Elec       q    Type
REMARK                         _______ _______ _______ _____ _____    ______ ____
ROOT
ATOM      1  C4  UNL     1     151.477 160.077 160.933  0.00  0.00    +0.098 A 
ATOM      2  C5  UNL     1     151.533 160.224 159.555  0.00  0.00    +0.128 A 
ATOM      3  N1  UNL     1     151.489 159.201 158.669  0.00  0.00    -0.254 NA
ATOM      4  C6  UNL     1     151.406 157.952 159.153  0.00  0.00    +0.073 A 
ATOM      5  C7  UNL     1     151.371 156.899 158.250  0.00  0.00    +0.032 A 
ATOM      6  C8  UNL     1     151.294 155.565 158.666  0.00  0.00    +0.048 A 
ATOM      7  C9  UNL     1     151.259 155.267 160.020  0.00  0.00    +0.121 A 
ATOM      8  C11 UNL     1     151.292 156.316 160.941  0.00  0.00    +0.057 A 
ATOM      9  C12 UNL     1     151.351 157.670 160.533  0.00  0.00    +0.025 A 
ATOM     10  C13 UNL     1     151.382 158.767 161.445  0.00  0.00    +0.052 A 
ENDROOT
BRANCH   1  11
ATOM     11  C3  UNL     1     151.525 161.268 161.821  0.00  0.00    +0.342 C 
ATOM     12  O2  UNL     1     152.472 162.038 161.872  0.00  0.00    -0.245 OA
BRANCH  11  13
ATOM     13  O1  UNL     1     150.390 161.369 162.558  0.00  0.00    -0.461 OA
BRANCH  13  15
ATOM     14  C1  UNL     1     149.445 161.792 164.748  0.00  0.00    +0.048 C 
ATOM     15  C2  UNL     1     150.461 162.226 163.708  0.00  0.00    +0.229 C 
ENDBRANCH  13  15
ENDBRANCH  11  13
ENDBRANCH   1  11
BRANCH   7  16
ATOM     16  O3  UNL     1     151.191 154.018 160.571  0.00  0.00    -0.495 OA
ATOM     17  C10 UNL     1     152.344 153.556 161.265  0.00  0.00    +0.277 C 
ENDBRANCH   7  16
BRANCH  10  18
ATOM     18  N2  UNL     1     151.230 158.516 162.845  0.00  0.00    -0.339 N 
ATOM     19  H13 UNL     1     150.731 157.626 162.975  0.00  0.00    +0.146 HD
BRANCH  18  20
ATOM     20  C14 UNL     1     152.526 158.392 163.522  0.00  0.00    +0.137 C 
BRANCH  20  21
ATOM     21  C15 UNL     1     152.509 159.236 164.773  0.00  0.00    -0.030 A 
ATOM     22  C16 UNL     1     151.641 158.925 165.830  0.00  0.00    +0.005 A 
ATOM     23  C17 UNL     1     151.636 159.697 166.993  0.00  0.00    +0.000 A 
ATOM     24  C18 UNL     1     152.505 160.780 167.115  0.00  0.00    +0.000 A 
ATOM     25  C19 UNL     1     153.385 161.088 166.078  0.00  0.00    +0.000 A 
ATOM     26  C20 UNL     1     153.391 160.318 164.915  0.00  0.00    +0.005 A 
ENDBRANCH  20  21
ENDBRANCH  18  20
ENDBRANCH  10  18
TORSDOF 7
ENDMDL
MODEL 9
REMARK VINA RESULT:    -6.198      4.924      8.754
REMARK INTER + INTRA:          -9.974
REMARK INTER:                  -8.589
REMARK INTRA:                  -1.385
REMARK UNBOUND:                -1.240
REMARK  Name = /home/vital/Documents/PhD_2021/Malaria_codes/data/pdb_ligands_mmv/ligand_347.pdb
REMARK  9 active torsions:
REMARK  status: ('A' for Active; 'I' for Inactive)
REMARK    1  A    between atoms: C1_1  and  C2_2
REMARK    2  A    between atoms: C2_2  and  O1_3
REMARK    3  A    between atoms: O1_3  and  C3_4
REMARK    4  A    between atoms: C3_4  and  C4_6
REMARK    5  A    between atoms: C9_12  and  O3_13
REMARK    6  A    between atoms: O3_13  and  C10_14
REMARK    7  A    between atoms: C13_17  and  N2_18
REMARK    8  A    between atoms: N2_18  and  C14_19
REMARK    9  A    between atoms: C14_19  and  C15_20
REMARK                            x       y       z     vdW  Elec       q    Type
REMARK                         _______ _______ _______ _____ _____    ______ ____
ROOT
ATOM      1  C4  UNL     1     151.982 157.963 165.627  0.00  0.00    +0.098 A 
ATOM      2  C5  UNL     1     152.454 157.834 166.925  0.00  0.00    +0.128 A 
ATOM      3  N1  UNL     1     152.425 156.686 167.643  0.00  0.00    -0.254 NA
ATOM      4  C6  UNL     1     151.886 155.599 167.072  0.00  0.00    +0.073 A 
ATOM      5  C7  UNL     1     151.844 154.423 167.807  0.00  0.00    +0.032 A 
ATOM      6  C8  UNL     1     151.291 153.244 167.294  0.00  0.00    +0.048 A 
ATOM      7  C9  UNL     1     150.756 153.234 166.014  0.00  0.00    +0.121 A 
ATOM      8  C11 UNL     1     150.791 154.410 165.262  0.00  0.00    +0.057 A 
ATOM      9  C12 UNL     1     151.364 155.604 165.762  0.00  0.00    +0.025 A 
ATOM     10  C13 UNL     1     151.421 156.821 165.021  0.00  0.00    +0.052 A 
ENDROOT
BRANCH   1  11
ATOM     11  C3  UNL     1     152.067 159.268 164.921  0.00  0.00    +0.342 C 
ATOM     12  O2  UNL     1     153.117 159.844 164.682  0.00  0.00    -0.245 OA
BRANCH  11  13
ATOM     13  O1  UNL     1     150.831 159.723 164.594  0.00  0.00    -0.461 OA
BRANCH  13  15
ATOM     14  C1  UNL     1     150.424 160.055 162.229  0.00  0.00    +0.048 C 
ATOM     15  C2  UNL     1     150.778 160.710 163.551  0.00  0.00    +0.229 C 
ENDBRANCH  13  15
ENDBRANCH  11  13
ENDBRANCH   1  11
BRANCH   7  16
ATOM     16  O3  UNL     1     150.180 152.166 165.388  0.00  0.00    -0.495 OA
ATOM     17  C10 UNL     1     149.068 152.436 164.543  0.00  0.00    +0.277 C 
ENDBRANCH   7  16
BRANCH  10  18
ATOM     18  N2  UNL     1     150.988 156.829 163.657  0.00  0.00    -0.339 N 
ATOM     19  H13 UNL     1     150.580 157.747 163.439  0.00  0.00    +0.146 HD
BRANCH  18  20
ATOM     20  C14 UNL     1     152.105 156.616 162.728  0.00  0.00    +0.137 C 
BRANCH  20  21
ATOM     21  C15 UNL     1     151.566 156.066 161.430  0.00  0.00    -0.030 A 
ATOM     22  C16 UNL     1     151.397 156.902 160.317  0.00  0.00    +0.005 A 
ATOM     23  C17 UNL     1     150.912 156.389 159.113  0.00  0.00    +0.000 A 
ATOM     24  C18 UNL     1     150.601 155.035 159.006  0.00  0.00    +0.000 A 
ATOM     25  C19 UNL     1     150.781 154.190 160.100  0.00  0.00    +0.000 A 
ATOM     26  C20 UNL     1     151.265 154.701 161.305  0.00  0.00    +0.005 A 
ENDBRANCH  20  21
ENDBRANCH  18  20
ENDBRANCH  10  18
TORSDOF 7
ENDMDL
