MODEL 1
REMARK VINA RESULT:    -8.421      0.000      0.000
REMARK INTER + INTRA:         -14.860
REMARK INTER:                 -12.851
REMARK INTRA:                  -2.009
REMARK UNBOUND:                -2.009
REMARK  Name = /home/vital/Documents/PhD_2021/Malaria_codes/data/pdb_ligands_mmv/ligand_3.pdb
REMARK  14 active torsions:
REMARK  status: ('A' for Active; 'I' for Inactive)
REMARK    1  A    between atoms: C1_1  and  C2_2
REMARK    2  A    between atoms: C2_2  and  O1_3
REMARK    3  A    between atoms: O1_3  and  C3_4
REMARK    4  A    between atoms: C3_4  and  C4_6
REMARK    5  A    between atoms: C5_7  and  C31_41
REMARK    6  A    between atoms: C8_12  and  C9_13
REMARK    7  A    between atoms: C11_15  and  C12_16
REMARK    8  A    between atoms: N2_17  and  C15_20
REMARK    9  A    between atoms: C13_18  and  C14_19
REMARK   10  A    between atoms: C22_30  and  C23_31
REMARK   11  A    between atoms: C27_35  and  O4_36
REMARK   12  A    between atoms: O4_36  and  C28_37
REMARK   13  A    between atoms: C29_38  and  O5_39
REMARK   14  A    between atoms: O5_39  and  C30_40
REMARK                            x       y       z     vdW  Elec       q    Type
REMARK                         _______ _______ _______ _____ _____    ______ ____
ROOT
ATOM      1  C4  UNL     1     150.647 156.970 162.127  0.00  0.00    +0.090 C 
ATOM      2  C5  UNL     1     151.028 156.646 163.380  0.00  0.00    +0.086 C 
ATOM      3  N1  UNL     1     150.692 155.436 163.957  0.00  0.00    -0.222 NA
ATOM      4  C6  UNL     1     149.848 154.700 163.318  0.00  0.00    +0.178 A 
ATOM      5  S1  UNL     1     149.175 153.241 163.982  0.00  0.00    -0.046 S 
ATOM      6  C7  UNL     1     148.106 153.048 162.645  0.00  0.00    +0.081 A 
ATOM      7  C8  UNL     1     147.134 152.142 162.461  0.00  0.00    +0.030 C 
ATOM      8  C21 UNL     1     148.355 154.115 161.633  0.00  0.00    +0.268 A 
ATOM      9  O3  UNL     1     147.738 154.216 160.584  0.00  0.00    -0.266 OA
ATOM     10  N3  UNL     1     149.348 154.952 162.078  0.00  0.00    -0.275 N 
ATOM     11  C22 UNL     1     149.925 155.997 161.245  0.00  0.00    +0.166 C 
ENDROOT
BRANCH   7  12
ATOM     12  C9  UNL     1     146.735 151.070 163.317  0.00  0.00    -0.003 A 
ATOM     13  C10 UNL     1     146.791 151.012 164.722  0.00  0.00    +0.031 A 
ATOM     14  C11 UNL     1     146.335 149.770 165.120  0.00  0.00    +0.022 A 
ATOM     15  C12 UNL     1     146.309 149.234 166.511  0.00  0.00    +0.064 C 
ATOM     16  N2  UNL     1     145.998 149.046 163.979  0.00  0.00    -0.317 N 
ATOM     17  C13 UNL     1     146.231 149.860 162.866  0.00  0.00    +0.028 A 
ATOM     18  C14 UNL     1     145.877 149.471 161.464  0.00  0.00    +0.064 C 
BRANCH  16  19
ATOM     19  C15 UNL     1     145.518 147.703 163.950  0.00  0.00    +0.047 A 
ATOM     20  C16 UNL     1     144.150 147.442 164.112  0.00  0.00    +0.029 A 
ATOM     21  C17 UNL     1     143.681 146.127 164.079  0.00  0.00    +0.040 A 
ATOM     22  C18 UNL     1     144.577 145.083 163.886  0.00  0.00    +0.124 A 
ATOM     23  F1  UNL     1     144.124 143.822 163.855  0.00  0.00    -0.205 F 
ATOM     24  C19 UNL     1     145.936 145.326 163.725  0.00  0.00    +0.040 A 
ATOM     25  C20 UNL     1     146.412 146.639 163.755  0.00  0.00    +0.029 A 
ENDBRANCH  16  19
ENDBRANCH   7  12
BRANCH  11  26
ATOM     26  C23 UNL     1     150.849 155.397 160.180  0.00  0.00    +0.025 A 
ATOM     27  C24 UNL     1     151.760 154.376 160.513  0.00  0.00    +0.010 A 
ATOM     28  C25 UNL     1     152.595 153.823 159.544  0.00  0.00    +0.004 A 
ATOM     29  C26 UNL     1     152.530 154.266 158.224  0.00  0.00    +0.049 A 
ATOM     30  C27 UNL     1     151.640 155.280 157.859  0.00  0.00    +0.162 A 
ATOM     31  C29 UNL     1     150.830 155.871 158.852  0.00  0.00    +0.167 A 
BRANCH  30  32
ATOM     32  O4  UNL     1     151.492 155.740 156.577  0.00  0.00    -0.491 OA
ATOM     33  C28 UNL     1     152.667 156.106 155.867  0.00  0.00    +0.277 C 
ENDBRANCH  30  32
BRANCH  31  34
ATOM     34  O5  UNL     1     149.941 156.884 158.579  0.00  0.00    -0.491 OA
ATOM     35  C30 UNL     1     150.568 158.071 158.093  0.00  0.00    +0.277 C 
ENDBRANCH  31  34
ENDBRANCH  11  26
BRANCH   2  36
ATOM     36  C31 UNL     1     151.783 157.585 164.248  0.00  0.00    +0.001 A 
ATOM     37  C32 UNL     1     151.105 158.325 165.226  0.00  0.00    +0.010 A 
ATOM     38  C33 UNL     1     151.794 159.219 166.049  0.00  0.00    +0.001 A 
ATOM     39  C34 UNL     1     153.169 159.378 165.908  0.00  0.00    +0.000 A 
ATOM     40  C35 UNL     1     153.861 158.634 164.955  0.00  0.00    +0.001 A 
ATOM     41  C36 UNL     1     153.174 157.734 164.136  0.00  0.00    +0.010 A 
ENDBRANCH   2  36
BRANCH   1  42
ATOM     42  C3  UNL     1     150.833 158.313 161.556  0.00  0.00    +0.340 C 
ATOM     43  O2  UNL     1     151.867 158.701 161.038  0.00  0.00    -0.245 OA
BRANCH  42  44
ATOM     44  O1  UNL     1     149.670 159.002 161.669  0.00  0.00    -0.462 OA
BRANCH  44  46
ATOM     45  C1  UNL     1     150.149 161.079 162.807  0.00  0.00    +0.048 C 
ATOM     46  C2  UNL     1     149.767 160.423 161.495  0.00  0.00    +0.229 C 
ENDBRANCH  44  46
ENDBRANCH  42  44
ENDBRANCH   1  42
TORSDOF 9
ENDMDL
MODEL 2
REMARK VINA RESULT:    -7.956      2.722      5.738
REMARK INTER + INTRA:         -14.151
REMARK INTER:                 -12.057
REMARK INTRA:                  -2.094
REMARK UNBOUND:                -2.009
REMARK  Name = /home/vital/Documents/PhD_2021/Malaria_codes/data/pdb_ligands_mmv/ligand_3.pdb
REMARK  14 active torsions:
REMARK  status: ('A' for Active; 'I' for Inactive)
REMARK    1  A    between atoms: C1_1  and  C2_2
REMARK    2  A    between atoms: C2_2  and  O1_3
REMARK    3  A    between atoms: O1_3  and  C3_4
REMARK    4  A    between atoms: C3_4  and  C4_6
REMARK    5  A    between atoms: C5_7  and  C31_41
REMARK    6  A    between atoms: C8_12  and  C9_13
REMARK    7  A    between atoms: C11_15  and  C12_16
REMARK    8  A    between atoms: N2_17  and  C15_20
REMARK    9  A    between atoms: C13_18  and  C14_19
REMARK   10  A    between atoms: C22_30  and  C23_31
REMARK   11  A    between atoms: C27_35  and  O4_36
REMARK   12  A    between atoms: O4_36  and  C28_37
REMARK   13  A    between atoms: C29_38  and  O5_39
REMARK   14  A    between atoms: O5_39  and  C30_40
REMARK                            x       y       z     vdW  Elec       q    Type
REMARK                         _______ _______ _______ _____ _____    ______ ____
ROOT
ATOM      1  C4  UNL     1     151.687 156.610 163.188  0.00  0.00    +0.090 C 
ATOM      2  C5  UNL     1     150.743 156.618 162.224  0.00  0.00    +0.086 C 
ATOM      3  N1  UNL     1     149.614 155.824 162.298  0.00  0.00    -0.222 NA
ATOM      4  C6  UNL     1     149.583 154.942 163.238  0.00  0.00    +0.178 A 
ATOM      5  S1  UNL     1     148.332 153.741 163.365  0.00  0.00    -0.046 S 
ATOM      6  C7  UNL     1     149.131 152.952 164.672  0.00  0.00    +0.081 A 
ATOM      7  C8  UNL     1     148.810 151.809 165.294  0.00  0.00    +0.030 C 
ATOM      8  C21 UNL     1     150.360 153.708 165.050  0.00  0.00    +0.268 A 
ATOM      9  O3  UNL     1     151.116 153.372 165.948  0.00  0.00    -0.266 OA
ATOM     10  N3  UNL     1     150.504 154.799 164.229  0.00  0.00    -0.275 N 
ATOM     11  C22 UNL     1     151.520 155.819 164.450  0.00  0.00    +0.166 C 
ENDROOT
BRANCH   7  12
ATOM     12  C9  UNL     1     147.698 150.942 165.060  0.00  0.00    -0.003 A 
ATOM     13  C10 UNL     1     147.244 150.423 163.834  0.00  0.00    +0.031 A 
ATOM     14  C11 UNL     1     146.117 149.662 164.080  0.00  0.00    +0.022 A 
ATOM     15  C12 UNL     1     145.249 149.001 163.064  0.00  0.00    +0.064 C 
ATOM     16  N2  UNL     1     145.857 149.702 165.447  0.00  0.00    -0.317 N 
ATOM     17  C13 UNL     1     146.848 150.481 166.053  0.00  0.00    +0.028 A 
ATOM     18  C14 UNL     1     146.972 150.662 167.534  0.00  0.00    +0.064 C 
BRANCH  16  19
ATOM     19  C15 UNL     1     144.761 149.074 166.111  0.00  0.00    +0.047 A 
ATOM     20  C16 UNL     1     143.632 149.826 166.466  0.00  0.00    +0.029 A 
ATOM     21  C17 UNL     1     142.557 149.210 167.111  0.00  0.00    +0.040 A 
ATOM     22  C18 UNL     1     142.617 147.851 167.398  0.00  0.00    +0.124 A 
ATOM     23  F1  UNL     1     141.585 147.263 168.018  0.00  0.00    -0.205 F 
ATOM     24  C19 UNL     1     143.730 147.094 167.053  0.00  0.00    +0.040 A 
ATOM     25  C20 UNL     1     144.807 147.704 166.406  0.00  0.00    +0.029 A 
ENDBRANCH  16  19
ENDBRANCH   7  12
BRANCH  11  26
ATOM     26  C23 UNL     1     151.147 156.711 165.638  0.00  0.00    +0.025 A 
ATOM     27  C24 UNL     1     149.841 157.220 165.772  0.00  0.00    +0.010 A 
ATOM     28  C25 UNL     1     149.498 158.024 166.857  0.00  0.00    +0.004 A 
ATOM     29  C26 UNL     1     150.443 158.324 167.836  0.00  0.00    +0.049 A 
ATOM     30  C27 UNL     1     151.750 157.837 167.734  0.00  0.00    +0.162 A 
ATOM     31  C29 UNL     1     152.106 157.063 166.610  0.00  0.00    +0.167 A 
BRANCH  30  32
ATOM     32  O4  UNL     1     152.722 158.057 168.675  0.00  0.00    -0.491 OA
ATOM     33  C28 UNL     1     153.181 159.390 168.850  0.00  0.00    +0.277 C 
ENDBRANCH  30  32
BRANCH  31  34
ATOM     34  O5  UNL     1     153.374 156.560 166.426  0.00  0.00    -0.491 OA
ATOM     35  C30 UNL     1     153.695 155.497 167.322  0.00  0.00    +0.277 C 
ENDBRANCH  31  34
ENDBRANCH  11  26
BRANCH   2  36
ATOM     36  C31 UNL     1     150.876 157.433 160.990  0.00  0.00    +0.001 A 
ATOM     37  C32 UNL     1     151.471 156.876 159.850  0.00  0.00    +0.010 A 
ATOM     38  C33 UNL     1     151.613 157.626 158.680  0.00  0.00    +0.001 A 
ATOM     39  C34 UNL     1     151.155 158.940 158.635  0.00  0.00    +0.000 A 
ATOM     40  C35 UNL     1     150.543 159.502 159.754  0.00  0.00    +0.001 A 
ATOM     41  C36 UNL     1     150.394 158.749 160.922  0.00  0.00    +0.010 A 
ENDBRANCH   2  36
BRANCH   1  42
ATOM     42  C3  UNL     1     152.977 157.304 163.051  0.00  0.00    +0.340 C 
ATOM     43  O2  UNL     1     154.048 156.739 162.903  0.00  0.00    -0.245 OA
BRANCH  42  44
ATOM     44  O1  UNL     1     152.758 158.642 163.076  0.00  0.00    -0.462 OA
BRANCH  44  46
ATOM     45  C1  UNL     1     151.888 160.231 164.675  0.00  0.00    +0.048 C 
ATOM     46  C2  UNL     1     153.029 159.296 164.325  0.00  0.00    +0.229 C 
ENDBRANCH  44  46
ENDBRANCH  42  44
ENDBRANCH   1  42
TORSDOF 9
ENDMDL
MODEL 3
REMARK VINA RESULT:    -7.701      5.879      9.319
REMARK INTER + INTRA:         -13.762
REMARK INTER:                 -12.298
REMARK INTRA:                  -1.464
REMARK UNBOUND:                -2.009
REMARK  Name = /home/vital/Documents/PhD_2021/Malaria_codes/data/pdb_ligands_mmv/ligand_3.pdb
REMARK  14 active torsions:
REMARK  status: ('A' for Active; 'I' for Inactive)
REMARK    1  A    between atoms: C1_1  and  C2_2
REMARK    2  A    between atoms: C2_2  and  O1_3
REMARK    3  A    between atoms: O1_3  and  C3_4
REMARK    4  A    between atoms: C3_4  and  C4_6
REMARK    5  A    between atoms: C5_7  and  C31_41
REMARK    6  A    between atoms: C8_12  and  C9_13
REMARK    7  A    between atoms: C11_15  and  C12_16
REMARK    8  A    between atoms: N2_17  and  C15_20
REMARK    9  A    between atoms: C13_18  and  C14_19
REMARK   10  A    between atoms: C22_30  and  C23_31
REMARK   11  A    between atoms: C27_35  and  O4_36
REMARK   12  A    between atoms: O4_36  and  C28_37
REMARK   13  A    between atoms: C29_38  and  O5_39
REMARK   14  A    between atoms: O5_39  and  C30_40
REMARK                            x       y       z     vdW  Elec       q    Type
REMARK                         _______ _______ _______ _____ _____    ______ ____
ROOT
ATOM      1  C4  UNL     1     151.678 159.148 166.341  0.00  0.00    +0.090 C 
ATOM      2  C5  UNL     1     150.852 160.070 165.806  0.00  0.00    +0.086 C 
ATOM      3  N1  UNL     1     150.403 159.981 164.501  0.00  0.00    -0.222 NA
ATOM      4  C6  UNL     1     150.946 159.077 163.759  0.00  0.00    +0.178 A 
ATOM      5  S1  UNL     1     150.639 158.948 162.053  0.00  0.00    -0.046 S 
ATOM      6  C7  UNL     1     151.822 157.708 161.867  0.00  0.00    +0.081 A 
ATOM      7  C8  UNL     1     152.263 157.120 160.746  0.00  0.00    +0.030 C 
ATOM      8  C21 UNL     1     152.399 157.351 163.195  0.00  0.00    +0.268 A 
ATOM      9  O3  UNL     1     153.260 156.500 163.356  0.00  0.00    -0.266 OA
ATOM     10  N3  UNL     1     151.834 158.133 164.172  0.00  0.00    -0.275 N 
ATOM     11  C22 UNL     1     152.076 157.913 165.591  0.00  0.00    +0.166 C 
ENDROOT
BRANCH   7  12
ATOM     12  C9  UNL     1     151.853 157.343 159.395  0.00  0.00    -0.003 A 
ATOM     13  C10 UNL     1     151.432 158.548 158.802  0.00  0.00    +0.031 A 
ATOM     14  C11 UNL     1     151.097 158.285 157.487  0.00  0.00    +0.022 A 
ATOM     15  C12 UNL     1     150.511 159.245 156.509  0.00  0.00    +0.064 C 
ATOM     16  N2  UNL     1     151.300 156.928 157.251  0.00  0.00    -0.317 N 
ATOM     17  C13 UNL     1     151.784 156.351 158.429  0.00  0.00    +0.028 A 
ATOM     18  C14 UNL     1     152.230 154.926 158.534  0.00  0.00    +0.064 C 
BRANCH  16  19
ATOM     19  C15 UNL     1     151.040 156.243 156.027  0.00  0.00    +0.047 A 
ATOM     20  C16 UNL     1     149.815 155.587 155.835  0.00  0.00    +0.029 A 
ATOM     21  C17 UNL     1     149.561 154.921 154.635  0.00  0.00    +0.040 A 
ATOM     22  C18 UNL     1     150.527 154.912 153.636  0.00  0.00    +0.124 A 
ATOM     23  F1  UNL     1     150.280 154.271 152.485  0.00  0.00    -0.205 F 
ATOM     24  C19 UNL     1     151.746 155.556 153.812  0.00  0.00    +0.040 A 
ATOM     25  C20 UNL     1     152.006 156.226 155.010  0.00  0.00    +0.029 A 
ENDBRANCH  16  19
ENDBRANCH   7  12
BRANCH  11  26
ATOM     26  C23 UNL     1     151.322 156.675 166.087  0.00  0.00    +0.025 A 
ATOM     27  C24 UNL     1     150.098 156.297 165.503  0.00  0.00    +0.010 A 
ATOM     28  C25 UNL     1     149.416 155.166 165.947  0.00  0.00    +0.004 A 
ATOM     29  C26 UNL     1     149.946 154.382 166.970  0.00  0.00    +0.049 A 
ATOM     30  C27 UNL     1     151.158 154.729 167.574  0.00  0.00    +0.162 A 
ATOM     31  C29 UNL     1     151.822 155.901 167.155  0.00  0.00    +0.167 A 
BRANCH  30  32
ATOM     32  O4  UNL     1     151.760 153.988 168.558  0.00  0.00    -0.491 OA
ATOM     33  C28 UNL     1     152.300 152.725 168.195  0.00  0.00    +0.277 C 
ENDBRANCH  30  32
BRANCH  31  34
ATOM     34  O5  UNL     1     153.009 156.321 167.709  0.00  0.00    -0.491 OA
ATOM     35  C30 UNL     1     154.140 155.579 167.251  0.00  0.00    +0.277 C 
ENDBRANCH  31  34
ENDBRANCH  11  26
BRANCH   2  36
ATOM     36  C31 UNL     1     150.414 161.275 166.556  0.00  0.00    +0.001 A 
ATOM     37  C32 UNL     1     149.171 161.276 167.203  0.00  0.00    +0.010 A 
ATOM     38  C33 UNL     1     148.735 162.400 167.908  0.00  0.00    +0.001 A 
ATOM     39  C34 UNL     1     149.540 163.533 167.980  0.00  0.00    +0.000 A 
ATOM     40  C35 UNL     1     150.787 163.540 167.359  0.00  0.00    +0.001 A 
ATOM     41  C36 UNL     1     151.227 162.413 166.660  0.00  0.00    +0.010 A 
ENDBRANCH   2  36
BRANCH   1  42
ATOM     42  C3  UNL     1     152.312 159.310 167.659  0.00  0.00    +0.340 C 
ATOM     43  O2  UNL     1     151.797 158.978 168.714  0.00  0.00    -0.245 OA
BRANCH  42  44
ATOM     44  O1  UNL     1     153.549 159.839 167.487  0.00  0.00    -0.462 OA
BRANCH  44  46
ATOM     45  C1  UNL     1     155.214 161.533 167.928  0.00  0.00    +0.048 C 
ATOM     46  C2  UNL     1     153.881 160.942 168.342  0.00  0.00    +0.229 C 
ENDBRANCH  44  46
ENDBRANCH  42  44
ENDBRANCH   1  42
TORSDOF 9
ENDMDL
MODEL 4
REMARK VINA RESULT:    -7.689      4.419      9.561
REMARK INTER + INTRA:         -13.743
REMARK INTER:                 -12.198
REMARK INTRA:                  -1.545
REMARK UNBOUND:                -2.009
REMARK  Name = /home/vital/Documents/PhD_2021/Malaria_codes/data/pdb_ligands_mmv/ligand_3.pdb
REMARK  14 active torsions:
REMARK  status: ('A' for Active; 'I' for Inactive)
REMARK    1  A    between atoms: C1_1  and  C2_2
REMARK    2  A    between atoms: C2_2  and  O1_3
REMARK    3  A    between atoms: O1_3  and  C3_4
REMARK    4  A    between atoms: C3_4  and  C4_6
REMARK    5  A    between atoms: C5_7  and  C31_41
REMARK    6  A    between atoms: C8_12  and  C9_13
REMARK    7  A    between atoms: C11_15  and  C12_16
REMARK    8  A    between atoms: N2_17  and  C15_20
REMARK    9  A    between atoms: C13_18  and  C14_19
REMARK   10  A    between atoms: C22_30  and  C23_31
REMARK   11  A    between atoms: C27_35  and  O4_36
REMARK   12  A    between atoms: O4_36  and  C28_37
REMARK   13  A    between atoms: C29_38  and  O5_39
REMARK   14  A    between atoms: O5_39  and  C30_40
REMARK                            x       y       z     vdW  Elec       q    Type
REMARK                         _______ _______ _______ _____ _____    ______ ____
ROOT
ATOM      1  C4  UNL     1     151.207 155.825 165.791  0.00  0.00    +0.090 C 
ATOM      2  C5  UNL     1     151.011 157.150 165.629  0.00  0.00    +0.086 C 
ATOM      3  N1  UNL     1     150.752 157.706 164.390  0.00  0.00    -0.222 NA
ATOM      4  C6  UNL     1     150.879 156.932 163.366  0.00  0.00    +0.178 A 
ATOM      5  S1  UNL     1     150.775 157.508 161.730  0.00  0.00    -0.046 S 
ATOM      6  C7  UNL     1     151.219 155.970 161.091  0.00  0.00    +0.081 A 
ATOM      7  C8  UNL     1     151.462 155.619 159.820  0.00  0.00    +0.030 C 
ATOM      8  C21 UNL     1     151.370 154.982 162.198  0.00  0.00    +0.268 A 
ATOM      9  O3  UNL     1     151.679 153.813 162.028  0.00  0.00    -0.266 OA
ATOM     10  N3  UNL     1     151.133 155.596 163.403  0.00  0.00    -0.275 N 
ATOM     11  C22 UNL     1     151.049 154.859 164.656  0.00  0.00    +0.166 C 
ENDROOT
BRANCH   7  12
ATOM     12  C9  UNL     1     151.392 156.422 158.639  0.00  0.00    -0.003 A 
ATOM     13  C10 UNL     1     150.833 157.705 158.492  0.00  0.00    +0.031 A 
ATOM     14  C11 UNL     1     150.958 158.079 157.168  0.00  0.00    +0.022 A 
ATOM     15  C12 UNL     1     150.420 159.318 156.538  0.00  0.00    +0.064 C 
ATOM     16  N2  UNL     1     151.587 157.042 156.482  0.00  0.00    -0.317 N 
ATOM     17  C13 UNL     1     151.869 156.025 157.400  0.00  0.00    +0.028 A 
ATOM     18  C14 UNL     1     152.647 154.792 157.059  0.00  0.00    +0.064 C 
BRANCH  16  19
ATOM     19  C15 UNL     1     151.874 157.015 155.085  0.00  0.00    +0.047 A 
ATOM     20  C16 UNL     1     152.590 158.066 154.494  0.00  0.00    +0.029 A 
ATOM     21  C17 UNL     1     152.874 158.036 153.128  0.00  0.00    +0.040 A 
ATOM     22  C18 UNL     1     152.443 156.960 152.360  0.00  0.00    +0.124 A 
ATOM     23  F1  UNL     1     152.717 156.935 151.049  0.00  0.00    -0.205 F 
ATOM     24  C19 UNL     1     151.732 155.912 152.932  0.00  0.00    +0.040 A 
ATOM     25  C20 UNL     1     151.446 155.935 154.298  0.00  0.00    +0.029 A 
ENDBRANCH  16  19
ENDBRANCH   7  12
BRANCH  11  26
ATOM     26  C23 UNL     1     149.732 154.083 164.744  0.00  0.00    +0.025 A 
ATOM     27  C24 UNL     1     148.502 154.763 164.843  0.00  0.00    +0.010 A 
ATOM     28  C25 UNL     1     147.303 154.058 164.915  0.00  0.00    +0.004 A 
ATOM     29  C26 UNL     1     147.302 152.665 164.876  0.00  0.00    +0.049 A 
ATOM     30  C27 UNL     1     148.504 151.957 164.781  0.00  0.00    +0.162 A 
ATOM     31  C29 UNL     1     149.720 152.673 164.757  0.00  0.00    +0.167 A 
BRANCH  30  32
ATOM     32  O4  UNL     1     148.581 150.591 164.699  0.00  0.00    -0.491 OA
ATOM     33  C28 UNL     1     147.488 149.904 164.106  0.00  0.00    +0.277 C 
ENDBRANCH  30  32
BRANCH  31  34
ATOM     34  O5  UNL     1     150.945 152.052 164.681  0.00  0.00    -0.491 OA
ATOM     35  C30 UNL     1     151.466 151.673 165.956  0.00  0.00    +0.277 C 
ENDBRANCH  31  34
ENDBRANCH  11  26
BRANCH   2  36
ATOM     36  C31 UNL     1     151.119 158.112 166.755  0.00  0.00    +0.001 A 
ATOM     37  C32 UNL     1     149.973 158.465 167.480  0.00  0.00    +0.010 A 
ATOM     38  C33 UNL     1     150.050 159.373 168.538  0.00  0.00    +0.001 A 
ATOM     39  C34 UNL     1     151.274 159.933 168.889  0.00  0.00    +0.000 A 
ATOM     40  C35 UNL     1     152.427 159.577 168.191  0.00  0.00    +0.001 A 
ATOM     41  C36 UNL     1     152.352 158.662 167.137  0.00  0.00    +0.010 A 
ENDBRANCH   2  36
BRANCH   1  42
ATOM     42  C3  UNL     1     151.660 155.231 167.059  0.00  0.00    +0.340 C 
ATOM     43  O2  UNL     1     150.914 154.849 167.943  0.00  0.00    -0.245 OA
BRANCH  42  44
ATOM     44  O1  UNL     1     153.015 155.152 167.044  0.00  0.00    -0.462 OA
BRANCH  44  46
ATOM     45  C1  UNL     1     153.883 153.190 168.156  0.00  0.00    +0.048 C 
ATOM     46  C2  UNL     1     153.625 154.681 168.254  0.00  0.00    +0.229 C 
ENDBRANCH  44  46
ENDBRANCH  42  44
ENDBRANCH   1  42
TORSDOF 9
ENDMDL
MODEL 5
REMARK VINA RESULT:    -7.420      5.970     10.079
REMARK INTER + INTRA:         -13.332
REMARK INTER:                 -13.485
REMARK INTRA:                   0.152
REMARK UNBOUND:                -2.009
REMARK  Name = /home/vital/Documents/PhD_2021/Malaria_codes/data/pdb_ligands_mmv/ligand_3.pdb
REMARK  14 active torsions:
REMARK  status: ('A' for Active; 'I' for Inactive)
REMARK    1  A    between atoms: C1_1  and  C2_2
REMARK    2  A    between atoms: C2_2  and  O1_3
REMARK    3  A    between atoms: O1_3  and  C3_4
REMARK    4  A    between atoms: C3_4  and  C4_6
REMARK    5  A    between atoms: C5_7  and  C31_41
REMARK    6  A    between atoms: C8_12  and  C9_13
REMARK    7  A    between atoms: C11_15  and  C12_16
REMARK    8  A    between atoms: N2_17  and  C15_20
REMARK    9  A    between atoms: C13_18  and  C14_19
REMARK   10  A    between atoms: C22_30  and  C23_31
REMARK   11  A    between atoms: C27_35  and  O4_36
REMARK   12  A    between atoms: O4_36  and  C28_37
REMARK   13  A    between atoms: C29_38  and  O5_39
REMARK   14  A    between atoms: O5_39  and  C30_40
REMARK                            x       y       z     vdW  Elec       q    Type
REMARK                         _______ _______ _______ _____ _____    ______ ____
ROOT
ATOM      1  C4  UNL     1     151.015 158.374 166.425  0.00  0.00    +0.090 C 
ATOM      2  C5  UNL     1     151.427 157.196 165.912  0.00  0.00    +0.086 C 
ATOM      3  N1  UNL     1     151.867 157.081 164.606  0.00  0.00    -0.222 NA
ATOM      4  C6  UNL     1     151.700 158.106 163.842  0.00  0.00    +0.178 A 
ATOM      5  S1  UNL     1     152.022 158.073 162.134  0.00  0.00    -0.046 S 
ATOM      6  C7  UNL     1     151.394 159.663 161.919  0.00  0.00    +0.081 A 
ATOM      7  C8  UNL     1     151.199 160.350 160.784  0.00  0.00    +0.030 C 
ATOM      8  C21 UNL     1     151.003 160.241 163.237  0.00  0.00    +0.268 A 
ATOM      9  O3  UNL     1     150.530 161.358 163.377  0.00  0.00    -0.266 OA
ATOM     10  N3  UNL     1     151.239 159.325 164.232  0.00  0.00    -0.275 N 
ATOM     11  C22 UNL     1     151.108 159.651 165.646  0.00  0.00    +0.166 C 
ENDROOT
BRANCH   7  12
ATOM     12  C9  UNL     1     151.486 159.959 159.439  0.00  0.00    -0.003 A 
ATOM     13  C10 UNL     1     152.032 160.742 158.405  0.00  0.00    +0.031 A 
ATOM     14  C11 UNL     1     152.099 159.961 157.266  0.00  0.00    +0.022 A 
ATOM     15  C12 UNL     1     152.522 160.404 155.906  0.00  0.00    +0.064 C 
ATOM     16  N2  UNL     1     151.597 158.700 157.574  0.00  0.00    -0.317 N 
ATOM     17  C13 UNL     1     151.234 158.697 158.925  0.00  0.00    +0.028 A 
ATOM     18  C14 UNL     1     150.760 157.479 159.655  0.00  0.00    +0.064 C 
BRANCH  16  19
ATOM     19  C15 UNL     1     151.459 157.608 156.667  0.00  0.00    +0.047 A 
ATOM     20  C16 UNL     1     152.495 157.304 155.771  0.00  0.00    +0.029 A 
ATOM     21  C17 UNL     1     152.360 156.232 154.886  0.00  0.00    +0.040 A 
ATOM     22  C18 UNL     1     151.196 155.472 154.900  0.00  0.00    +0.124 A 
ATOM     23  F1  UNL     1     151.070 154.445 154.049  0.00  0.00    -0.205 F 
ATOM     24  C19 UNL     1     150.162 155.762 155.781  0.00  0.00    +0.040 A 
ATOM     25  C20 UNL     1     150.290 156.832 156.670  0.00  0.00    +0.029 A 
ENDBRANCH  16  19
ENDBRANCH   7  12
BRANCH  11  26
ATOM     26  C23 UNL     1     152.277 160.523 166.114  0.00  0.00    +0.025 A 
ATOM     27  C24 UNL     1     153.593 160.241 165.702  0.00  0.00    +0.010 A 
ATOM     28  C25 UNL     1     154.656 161.039 166.121  0.00  0.00    +0.004 A 
ATOM     29  C26 UNL     1     154.428 162.139 166.945  0.00  0.00    +0.049 A 
ATOM     30  C27 UNL     1     153.134 162.447 167.375  0.00  0.00    +0.162 A 
ATOM     31  C29 UNL     1     152.066 161.609 166.989  0.00  0.00    +0.167 A 
BRANCH  30  32
ATOM     32  O4  UNL     1     152.827 163.533 168.153  0.00  0.00    -0.491 OA
ATOM     33  C28 UNL     1     152.958 163.394 169.561  0.00  0.00    +0.277 C 
ENDBRANCH  30  32
BRANCH  31  34
ATOM     34  O5  UNL     1     150.767 161.832 167.382  0.00  0.00    -0.491 OA
ATOM     35  C30 UNL     1     150.131 162.887 166.659  0.00  0.00    +0.277 C 
ENDBRANCH  31  34
ENDBRANCH  11  26
BRANCH   2  36
ATOM     36  C31 UNL     1     151.383 155.932 166.690  0.00  0.00    +0.001 A 
ATOM     37  C32 UNL     1     150.295 155.062 166.540  0.00  0.00    +0.010 A 
ATOM     38  C33 UNL     1     150.229 153.871 167.267  0.00  0.00    +0.001 A 
ATOM     39  C34 UNL     1     151.253 153.534 168.146  0.00  0.00    +0.000 A 
ATOM     40  C35 UNL     1     152.352 154.379 168.292  0.00  0.00    +0.001 A 
ATOM     41  C36 UNL     1     152.422 155.567 167.559  0.00  0.00    +0.010 A 
ENDBRANCH   2  36
BRANCH   1  42
ATOM     42  C3  UNL     1     150.376 158.492 167.745  0.00  0.00    +0.340 C 
ATOM     43  O2  UNL     1     150.986 158.599 168.796  0.00  0.00    -0.245 OA
BRANCH  42  44
ATOM     44  O1  UNL     1     149.029 158.505 167.579  0.00  0.00    -0.462 OA
BRANCH  44  46
ATOM     45  C1  UNL     1     146.881 159.595 167.755  0.00  0.00    +0.048 C 
ATOM     46  C2  UNL     1     148.386 159.769 167.796  0.00  0.00    +0.229 C 
ENDBRANCH  44  46
ENDBRANCH  42  44
ENDBRANCH   1  42
TORSDOF 9
ENDMDL
MODEL 6
REMARK VINA RESULT:    -7.349      5.759      9.804
REMARK INTER + INTRA:         -13.224
REMARK INTER:                 -11.345
REMARK INTRA:                  -1.879
REMARK UNBOUND:                -2.009
REMARK  Name = /home/vital/Documents/PhD_2021/Malaria_codes/data/pdb_ligands_mmv/ligand_3.pdb
REMARK  14 active torsions:
REMARK  status: ('A' for Active; 'I' for Inactive)
REMARK    1  A    between atoms: C1_1  and  C2_2
REMARK    2  A    between atoms: C2_2  and  O1_3
REMARK    3  A    between atoms: O1_3  and  C3_4
REMARK    4  A    between atoms: C3_4  and  C4_6
REMARK    5  A    between atoms: C5_7  and  C31_41
REMARK    6  A    between atoms: C8_12  and  C9_13
REMARK    7  A    between atoms: C11_15  and  C12_16
REMARK    8  A    between atoms: N2_17  and  C15_20
REMARK    9  A    between atoms: C13_18  and  C14_19
REMARK   10  A    between atoms: C22_30  and  C23_31
REMARK   11  A    between atoms: C27_35  and  O4_36
REMARK   12  A    between atoms: O4_36  and  C28_37
REMARK   13  A    between atoms: C29_38  and  O5_39
REMARK   14  A    between atoms: O5_39  and  C30_40
REMARK                            x       y       z     vdW  Elec       q    Type
REMARK                         _______ _______ _______ _____ _____    ______ ____
ROOT
ATOM      1  C4  UNL     1     150.983 156.985 165.615  0.00  0.00    +0.090 C 
ATOM      2  C5  UNL     1     151.441 155.778 165.221  0.00  0.00    +0.086 C 
ATOM      3  N1  UNL     1     151.719 155.499 163.895  0.00  0.00    -0.222 NA
ATOM      4  C6  UNL     1     151.356 156.378 163.025  0.00  0.00    +0.178 A 
ATOM      5  S1  UNL     1     151.457 156.108 161.311  0.00  0.00    -0.046 S 
ATOM      6  C7  UNL     1     150.653 157.592 160.964  0.00  0.00    +0.081 A 
ATOM      7  C8  UNL     1     150.248 158.080 159.782  0.00  0.00    +0.030 C 
ATOM      8  C21 UNL     1     150.380 158.334 162.229  0.00  0.00    +0.268 A 
ATOM      9  O3  UNL     1     149.820 159.418 162.275  0.00  0.00    -0.266 OA
ATOM     10  N3  UNL     1     150.830 157.603 163.300  0.00  0.00    -0.275 N 
ATOM     11  C22 UNL     1     150.849 158.130 164.658  0.00  0.00    +0.166 C 
ENDROOT
BRANCH   7  12
ATOM     12  C9  UNL     1     150.397 157.511 158.479  0.00  0.00    -0.003 A 
ATOM     13  C10 UNL     1     149.709 156.416 157.925  0.00  0.00    +0.031 A 
ATOM     14  C11 UNL     1     150.203 156.196 156.653  0.00  0.00    +0.022 A 
ATOM     15  C12 UNL     1     149.834 155.081 155.734  0.00  0.00    +0.064 C 
ATOM     16  N2  UNL     1     151.197 157.139 156.406  0.00  0.00    -0.317 N 
ATOM     17  C13 UNL     1     151.303 157.962 157.532  0.00  0.00    +0.028 A 
ATOM     18  C14 UNL     1     152.186 159.169 157.599  0.00  0.00    +0.064 C 
BRANCH  16  19
ATOM     19  C15 UNL     1     151.983 157.237 155.219  0.00  0.00    +0.047 A 
ATOM     20  C16 UNL     1     151.823 158.333 154.359  0.00  0.00    +0.029 A 
ATOM     21  C17 UNL     1     152.596 158.429 153.200  0.00  0.00    +0.040 A 
ATOM     22  C18 UNL     1     153.521 157.434 152.907  0.00  0.00    +0.124 A 
ATOM     23  F1  UNL     1     154.261 157.529 151.794  0.00  0.00    -0.205 F 
ATOM     24  C19 UNL     1     153.690 156.342 153.750  0.00  0.00    +0.040 A 
ATOM     25  C20 UNL     1     152.921 156.240 154.911  0.00  0.00    +0.029 A 
ENDBRANCH  16  19
ENDBRANCH   7  12
BRANCH  11  26
ATOM     26  C23 UNL     1     151.977 159.153 164.828  0.00  0.00    +0.025 A 
ATOM     27  C24 UNL     1     153.320 158.783 164.624  0.00  0.00    +0.010 A 
ATOM     28  C25 UNL     1     154.346 159.714 164.770  0.00  0.00    +0.004 A 
ATOM     29  C26 UNL     1     154.054 161.034 165.109  0.00  0.00    +0.049 A 
ATOM     30  C27 UNL     1     152.732 161.436 165.322  0.00  0.00    +0.162 A 
ATOM     31  C29 UNL     1     151.700 160.479 165.219  0.00  0.00    +0.167 A 
BRANCH  30  32
ATOM     32  O4  UNL     1     152.365 162.723 165.619  0.00  0.00    -0.491 OA
ATOM     33  C28 UNL     1     152.230 163.071 166.989  0.00  0.00    +0.277 C 
ENDBRANCH  30  32
BRANCH  31  34
ATOM     34  O5  UNL     1     150.376 160.789 165.430  0.00  0.00    -0.491 OA
ATOM     35  C30 UNL     1     149.838 161.669 164.442  0.00  0.00    +0.277 C 
ENDBRANCH  31  34
ENDBRANCH  11  26
BRANCH   2  36
ATOM     36  C31 UNL     1     151.621 154.649 166.168  0.00  0.00    +0.001 A 
ATOM     37  C32 UNL     1     152.629 154.712 167.139  0.00  0.00    +0.010 A 
ATOM     38  C33 UNL     1     152.822 153.659 168.036  0.00  0.00    +0.001 A 
ATOM     39  C34 UNL     1     152.005 152.534 167.976  0.00  0.00    +0.000 A 
ATOM     40  C35 UNL     1     150.985 152.465 167.029  0.00  0.00    +0.001 A 
ATOM     41  C36 UNL     1     150.787 153.522 166.137  0.00  0.00    +0.010 A 
ENDBRANCH   2  36
BRANCH   1  42
ATOM     42  C3  UNL     1     150.510 157.254 166.982  0.00  0.00    +0.340 C 
ATOM     43  O2  UNL     1     149.397 156.973 167.390  0.00  0.00    -0.245 OA
BRANCH  42  44
ATOM     44  O1  UNL     1     151.522 157.814 167.692  0.00  0.00    -0.462 OA
BRANCH  44  46
ATOM     45  C1  UNL     1     152.479 159.744 168.785  0.00  0.00    +0.048 C 
ATOM     46  C2  UNL     1     151.204 159.037 168.373  0.00  0.00    +0.229 C 
ENDBRANCH  44  46
ENDBRANCH  42  44
ENDBRANCH   1  42
TORSDOF 9
ENDMDL
MODEL 7
REMARK VINA RESULT:    -7.348      5.061     13.202
REMARK INTER + INTRA:         -13.222
REMARK INTER:                 -11.427
REMARK INTRA:                  -1.796
REMARK UNBOUND:                -2.009
REMARK  Name = /home/vital/Documents/PhD_2021/Malaria_codes/data/pdb_ligands_mmv/ligand_3.pdb
REMARK  14 active torsions:
REMARK  status: ('A' for Active; 'I' for Inactive)
REMARK    1  A    between atoms: C1_1  and  C2_2
REMARK    2  A    between atoms: C2_2  and  O1_3
REMARK    3  A    between atoms: O1_3  and  C3_4
REMARK    4  A    between atoms: C3_4  and  C4_6
REMARK    5  A    between atoms: C5_7  and  C31_41
REMARK    6  A    between atoms: C8_12  and  C9_13
REMARK    7  A    between atoms: C11_15  and  C12_16
REMARK    8  A    between atoms: N2_17  and  C15_20
REMARK    9  A    between atoms: C13_18  and  C14_19
REMARK   10  A    between atoms: C22_30  and  C23_31
REMARK   11  A    between atoms: C27_35  and  O4_36
REMARK   12  A    between atoms: O4_36  and  C28_37
REMARK   13  A    between atoms: C29_38  and  O5_39
REMARK   14  A    between atoms: O5_39  and  C30_40
REMARK                            x       y       z     vdW  Elec       q    Type
REMARK                         _______ _______ _______ _____ _____    ______ ____
ROOT
ATOM      1  C4  UNL     1     143.792 145.290 164.375  0.00  0.00    +0.090 C 
ATOM      2  C5  UNL     1     145.042 144.782 164.384  0.00  0.00    +0.086 C 
ATOM      3  N1  UNL     1     146.155 145.580 164.580  0.00  0.00    -0.222 NA
ATOM      4  C6  UNL     1     145.966 146.855 164.578  0.00  0.00    +0.178 A 
ATOM      5  S1  UNL     1     147.270 148.003 164.624  0.00  0.00    -0.046 S 
ATOM      6  C7  UNL     1     146.195 149.332 164.410  0.00  0.00    +0.081 A 
ATOM      7  C8  UNL     1     146.479 150.631 164.237  0.00  0.00    +0.030 C 
ATOM      8  C21 UNL     1     144.784 148.849 164.384  0.00  0.00    +0.268 A 
ATOM      9  O3  UNL     1     143.817 149.581 164.245  0.00  0.00    -0.266 OA
ATOM     10  N3  UNL     1     144.760 147.483 164.515  0.00  0.00    -0.275 N 
ATOM     11  C22 UNL     1     143.524 146.732 164.684  0.00  0.00    +0.166 C 
ENDROOT
BRANCH   7  12
ATOM     12  C9  UNL     1     147.755 151.274 164.210  0.00  0.00    -0.003 A 
ATOM     13  C10 UNL     1     148.950 150.859 164.825  0.00  0.00    +0.031 A 
ATOM     14  C11 UNL     1     149.921 151.807 164.560  0.00  0.00    +0.022 A 
ATOM     15  C12 UNL     1     151.314 151.828 165.092  0.00  0.00    +0.064 C 
ATOM     16  N2  UNL     1     149.346 152.814 163.789  0.00  0.00    -0.317 N 
ATOM     17  C13 UNL     1     148.009 152.472 163.560  0.00  0.00    +0.028 A 
ATOM     18  C14 UNL     1     147.093 153.254 162.671  0.00  0.00    +0.064 C 
BRANCH  16  19
ATOM     19  C15 UNL     1     150.000 153.995 163.330  0.00  0.00    +0.047 A 
ATOM     20  C16 UNL     1     150.600 154.019 162.063  0.00  0.00    +0.029 A 
ATOM     21  C17 UNL     1     151.236 155.178 161.613  0.00  0.00    +0.040 A 
ATOM     22  C18 UNL     1     151.270 156.303 162.429  0.00  0.00    +0.124 A 
ATOM     23  F1  UNL     1     151.881 157.413 161.994  0.00  0.00    -0.205 F 
ATOM     24  C19 UNL     1     150.680 156.294 163.686  0.00  0.00    +0.040 A 
ATOM     25  C20 UNL     1     150.040 155.139 164.142  0.00  0.00    +0.029 A 
ENDBRANCH  16  19
ENDBRANCH   7  12
BRANCH  11  26
ATOM     26  C23 UNL     1     142.961 146.920 166.096  0.00  0.00    +0.025 A 
ATOM     27  C24 UNL     1     143.455 146.158 167.173  0.00  0.00    +0.010 A 
ATOM     28  C25 UNL     1     142.950 146.333 168.459  0.00  0.00    +0.004 A 
ATOM     29  C26 UNL     1     141.956 147.279 168.702  0.00  0.00    +0.049 A 
ATOM     30  C27 UNL     1     141.441 148.051 167.656  0.00  0.00    +0.162 A 
ATOM     31  C29 UNL     1     141.920 147.837 166.347  0.00  0.00    +0.167 A 
BRANCH  30  32
ATOM     32  O4  UNL     1     140.492 149.026 167.823  0.00  0.00    -0.491 OA
ATOM     33  C28 UNL     1     140.915 150.275 168.351  0.00  0.00    +0.277 C 
ENDBRANCH  30  32
BRANCH  31  34
ATOM     34  O5  UNL     1     141.455 148.542 165.261  0.00  0.00    -0.491 OA
ATOM     35  C30 UNL     1     140.492 147.822 164.490  0.00  0.00    +0.277 C 
ENDBRANCH  31  34
ENDBRANCH  11  26
BRANCH   2  36
ATOM     36  C31 UNL     1     145.318 143.346 164.125  0.00  0.00    +0.001 A 
ATOM     37  C32 UNL     1     145.390 142.448 165.199  0.00  0.00    +0.010 A 
ATOM     38  C33 UNL     1     145.655 141.095 164.979  0.00  0.00    +0.001 A 
ATOM     39  C34 UNL     1     145.844 140.622 163.684  0.00  0.00    +0.000 A 
ATOM     40  C35 UNL     1     145.754 141.499 162.605  0.00  0.00    +0.001 A 
ATOM     41  C36 UNL     1     145.482 142.852 162.823  0.00  0.00    +0.010 A 
ENDBRANCH   2  36
BRANCH   1  42
ATOM     42  C3  UNL     1     142.611 144.502 163.992  0.00  0.00    +0.340 C 
ATOM     43  O2  UNL     1     142.055 144.581 162.910  0.00  0.00    -0.245 OA
BRANCH  42  44
ATOM     44  O1  UNL     1     142.291 143.669 165.014  0.00  0.00    -0.462 OA
BRANCH  44  46
ATOM     45  C1  UNL     1     141.945 141.503 164.001  0.00  0.00    +0.048 C 
ATOM     46  C2  UNL     1     141.301 142.673 164.720  0.00  0.00    +0.229 C 
ENDBRANCH  44  46
ENDBRANCH  42  44
ENDBRANCH   1  42
TORSDOF 9
ENDMDL
MODEL 8
REMARK VINA RESULT:    -7.340      0.923      1.271
REMARK INTER + INTRA:         -13.211
REMARK INTER:                 -11.808
REMARK INTRA:                  -1.403
REMARK UNBOUND:                -2.009
REMARK  Name = /home/vital/Documents/PhD_2021/Malaria_codes/data/pdb_ligands_mmv/ligand_3.pdb
REMARK  14 active torsions:
REMARK  status: ('A' for Active; 'I' for Inactive)
REMARK    1  A    between atoms: C1_1  and  C2_2
REMARK    2  A    between atoms: C2_2  and  O1_3
REMARK    3  A    between atoms: O1_3  and  C3_4
REMARK    4  A    between atoms: C3_4  and  C4_6
REMARK    5  A    between atoms: C5_7  and  C31_41
REMARK    6  A    between atoms: C8_12  and  C9_13
REMARK    7  A    between atoms: C11_15  and  C12_16
REMARK    8  A    between atoms: N2_17  and  C15_20
REMARK    9  A    between atoms: C13_18  and  C14_19
REMARK   10  A    between atoms: C22_30  and  C23_31
REMARK   11  A    between atoms: C27_35  and  O4_36
REMARK   12  A    between atoms: O4_36  and  C28_37
REMARK   13  A    between atoms: C29_38  and  O5_39
REMARK   14  A    between atoms: O5_39  and  C30_40
REMARK                            x       y       z     vdW  Elec       q    Type
REMARK                         _______ _______ _______ _____ _____    ______ ____
ROOT
ATOM      1  C4  UNL     1     150.566 157.413 161.646  0.00  0.00    +0.090 C 
ATOM      2  C5  UNL     1     150.999 157.190 162.904  0.00  0.00    +0.086 C 
ATOM      3  N1  UNL     1     150.732 156.009 163.571  0.00  0.00    -0.222 NA
ATOM      4  C6  UNL     1     149.901 155.198 163.011  0.00  0.00    +0.178 A 
ATOM      5  S1  UNL     1     149.310 153.762 163.793  0.00  0.00    -0.046 S 
ATOM      6  C7  UNL     1     148.210 153.435 162.508  0.00  0.00    +0.081 A 
ATOM      7  C8  UNL     1     147.272 152.482 162.418  0.00  0.00    +0.030 C 
ATOM      8  C21 UNL     1     148.382 154.441 161.420  0.00  0.00    +0.268 A 
ATOM      9  O3  UNL     1     147.730 154.445 160.388  0.00  0.00    -0.266 OA
ATOM     10  N3  UNL     1     149.353 155.345 161.774  0.00  0.00    -0.275 N 
ATOM     11  C22 UNL     1     149.860 156.354 160.854  0.00  0.00    +0.166 C 
ENDROOT
BRANCH   7  12
ATOM     12  C9  UNL     1     146.945 151.454 163.357  0.00  0.00    -0.003 A 
ATOM     13  C10 UNL     1     146.982 151.518 164.762  0.00  0.00    +0.031 A 
ATOM     14  C11 UNL     1     146.620 150.280 165.258  0.00  0.00    +0.022 A 
ATOM     15  C12 UNL     1     146.613 149.860 166.688  0.00  0.00    +0.064 C 
ATOM     16  N2  UNL     1     146.360 149.439 164.178  0.00  0.00    -0.317 N 
ATOM     17  C13 UNL     1     146.546 150.175 163.003  0.00  0.00    +0.028 A 
ATOM     18  C14 UNL     1     146.248 149.645 161.635  0.00  0.00    +0.064 C 
BRANCH  16  19
ATOM     19  C15 UNL     1     145.989 148.064 164.256  0.00  0.00    +0.047 A 
ATOM     20  C16 UNL     1     146.978 147.070 164.287  0.00  0.00    +0.029 A 
ATOM     21  C17 UNL     1     146.614 145.725 164.368  0.00  0.00    +0.040 A 
ATOM     22  C18 UNL     1     145.268 145.380 164.418  0.00  0.00    +0.124 A 
ATOM     23  F1  UNL     1     144.922 144.088 164.496  0.00  0.00    -0.205 F 
ATOM     24  C19 UNL     1     144.277 146.353 164.388  0.00  0.00    +0.040 A 
ATOM     25  C20 UNL     1     144.635 147.701 164.308  0.00  0.00    +0.029 A 
ENDBRANCH  16  19
ENDBRANCH   7  12
BRANCH  11  26
ATOM     26  C23 UNL     1     150.775 155.720 159.802  0.00  0.00    +0.025 A 
ATOM     27  C24 UNL     1     151.709 154.731 160.165  0.00  0.00    +0.010 A 
ATOM     28  C25 UNL     1     152.536 154.148 159.208  0.00  0.00    +0.004 A 
ATOM     29  C26 UNL     1     152.441 154.527 157.870  0.00  0.00    +0.049 A 
ATOM     30  C27 UNL     1     151.527 155.508 157.475  0.00  0.00    +0.162 A 
ATOM     31  C29 UNL     1     150.724 156.131 158.454  0.00  0.00    +0.167 A 
BRANCH  30  32
ATOM     32  O4  UNL     1     151.348 155.906 156.175  0.00  0.00    -0.491 OA
ATOM     33  C28 UNL     1     152.480 155.884 155.317  0.00  0.00    +0.277 C 
ENDBRANCH  30  32
BRANCH  31  34
ATOM     34  O5  UNL     1     149.813 157.116 158.151  0.00  0.00    -0.491 OA
ATOM     35  C30 UNL     1     150.395 158.242 157.495  0.00  0.00    +0.277 C 
ENDBRANCH  31  34
ENDBRANCH  11  26
BRANCH   2  36
ATOM     36  C31 UNL     1     151.740 158.215 163.681  0.00  0.00    +0.001 A 
ATOM     37  C32 UNL     1     151.116 159.428 164.002  0.00  0.00    +0.010 A 
ATOM     38  C33 UNL     1     151.796 160.410 164.727  0.00  0.00    +0.001 A 
ATOM     39  C34 UNL     1     153.105 160.187 165.145  0.00  0.00    +0.000 A 
ATOM     40  C35 UNL     1     153.732 158.977 164.851  0.00  0.00    +0.001 A 
ATOM     41  C36 UNL     1     153.049 157.992 164.133  0.00  0.00    +0.010 A 
ENDBRANCH   2  36
BRANCH   1  42
ATOM     42  C3  UNL     1     150.678 158.720 160.980  0.00  0.00    +0.340 C 
ATOM     43  O2  UNL     1     149.738 159.468 160.773  0.00  0.00    -0.245 OA
BRANCH  42  44
ATOM     44  O1  UNL     1     151.983 158.951 160.688  0.00  0.00    -0.462 OA
BRANCH  44  46
ATOM     45  C1  UNL     1     152.419 161.324 160.805  0.00  0.00    +0.048 C 
ATOM     46  C2  UNL     1     152.248 160.120 159.899  0.00  0.00    +0.229 C 
ENDBRANCH  44  46
ENDBRANCH  42  44
ENDBRANCH   1  42
TORSDOF 9
ENDMDL
MODEL 9
REMARK VINA RESULT:    -6.734      2.575      5.659
REMARK INTER + INTRA:         -12.285
REMARK INTER:                 -10.520
REMARK INTRA:                  -1.765
REMARK UNBOUND:                -2.009
REMARK  Name = /home/vital/Documents/PhD_2021/Malaria_codes/data/pdb_ligands_mmv/ligand_3.pdb
REMARK  14 active torsions:
REMARK  status: ('A' for Active; 'I' for Inactive)
REMARK    1  A    between atoms: C1_1  and  C2_2
REMARK    2  A    between atoms: C2_2  and  O1_3
REMARK    3  A    between atoms: O1_3  and  C3_4
REMARK    4  A    between atoms: C3_4  and  C4_6
REMARK    5  A    between atoms: C5_7  and  C31_41
REMARK    6  A    between atoms: C8_12  and  C9_13
REMARK    7  A    between atoms: C11_15  and  C12_16
REMARK    8  A    between atoms: N2_17  and  C15_20
REMARK    9  A    between atoms: C13_18  and  C14_19
REMARK   10  A    between atoms: C22_30  and  C23_31
REMARK   11  A    between atoms: C27_35  and  O4_36
REMARK   12  A    between atoms: O4_36  and  C28_37
REMARK   13  A    between atoms: C29_38  and  O5_39
REMARK   14  A    between atoms: O5_39  and  C30_40
REMARK                            x       y       z     vdW  Elec       q    Type
REMARK                         _______ _______ _______ _____ _____    ______ ____
ROOT
ATOM      1  C4  UNL     1     151.538 156.224 163.514  0.00  0.00    +0.090 C 
ATOM      2  C5  UNL     1     150.525 156.132 162.628  0.00  0.00    +0.086 C 
ATOM      3  N1  UNL     1     149.377 155.412 162.901  0.00  0.00    -0.222 NA
ATOM      4  C6  UNL     1     149.386 154.684 163.965  0.00  0.00    +0.178 A 
ATOM      5  S1  UNL     1     148.106 153.576 164.361  0.00  0.00    -0.046 S 
ATOM      6  C7  UNL     1     148.973 152.956 165.715  0.00  0.00    +0.081 A 
ATOM      7  C8  UNL     1     148.659 151.935 166.526  0.00  0.00    +0.030 C 
ATOM      8  C21 UNL     1     150.253 153.701 165.887  0.00  0.00    +0.268 A 
ATOM      9  O3  UNL     1     151.062 153.469 166.771  0.00  0.00    -0.266 OA
ATOM     10  N3  UNL     1     150.373 154.648 164.900  0.00  0.00    -0.275 N 
ATOM     11  C22 UNL     1     151.439 155.641 164.891  0.00  0.00    +0.166 C 
ENDROOT
BRANCH   7  12
ATOM     12  C9  UNL     1     147.502 151.096 166.505  0.00  0.00    -0.003 A 
ATOM     13  C10 UNL     1     146.426 151.077 167.412  0.00  0.00    +0.031 A 
ATOM     14  C11 UNL     1     145.552 150.081 167.021  0.00  0.00    +0.022 A 
ATOM     15  C12 UNL     1     144.324 149.639 167.742  0.00  0.00    +0.064 C 
ATOM     16  N2  UNL     1     146.070 149.473 165.880  0.00  0.00    -0.317 N 
ATOM     17  C13 UNL     1     147.268 150.116 165.554  0.00  0.00    +0.028 A 
ATOM     18  C14 UNL     1     148.061 149.818 164.319  0.00  0.00    +0.064 C 
BRANCH  16  19
ATOM     19  C15 UNL     1     145.489 148.374 165.179  0.00  0.00    +0.047 A 
ATOM     20  C16 UNL     1     146.094 147.110 165.231  0.00  0.00    +0.029 A 
ATOM     21  C17 UNL     1     145.522 146.034 164.549  0.00  0.00    +0.040 A 
ATOM     22  C18 UNL     1     144.355 146.226 163.819  0.00  0.00    +0.124 A 
ATOM     23  F1  UNL     1     143.809 145.192 163.164  0.00  0.00    -0.205 F 
ATOM     24  C19 UNL     1     143.745 147.474 163.758  0.00  0.00    +0.040 A 
ATOM     25  C20 UNL     1     144.311 148.553 164.440  0.00  0.00    +0.029 A 
ENDBRANCH  16  19
ENDBRANCH   7  12
BRANCH  11  26
ATOM     26  C23 UNL     1     151.189 156.718 165.952  0.00  0.00    +0.025 A 
ATOM     27  C24 UNL     1     149.942 157.364 166.038  0.00  0.00    +0.010 A 
ATOM     28  C25 UNL     1     149.710 158.338 167.008  0.00  0.00    +0.004 A 
ATOM     29  C26 UNL     1     150.710 158.675 167.918  0.00  0.00    +0.049 A 
ATOM     30  C27 UNL     1     151.962 158.055 167.859  0.00  0.00    +0.162 A 
ATOM     31  C29 UNL     1     152.208 157.105 166.846  0.00  0.00    +0.167 A 
BRANCH  30  32
ATOM     32  O4  UNL     1     152.980 158.306 168.742  0.00  0.00    -0.491 OA
ATOM     33  C28 UNL     1     153.513 159.622 168.778  0.00  0.00    +0.277 C 
ENDBRANCH  30  32
BRANCH  31  34
ATOM     34  O5  UNL     1     153.417 156.461 166.709  0.00  0.00    -0.491 OA
ATOM     35  C30 UNL     1     153.633 155.450 167.694  0.00  0.00    +0.277 C 
ENDBRANCH  31  34
ENDBRANCH  11  26
BRANCH   2  36
ATOM     36  C31 UNL     1     150.594 156.746 161.277  0.00  0.00    +0.001 A 
ATOM     37  C32 UNL     1     151.000 155.971 160.183  0.00  0.00    +0.010 A 
ATOM     38  C33 UNL     1     151.078 156.529 158.904  0.00  0.00    +0.001 A 
ATOM     39  C34 UNL     1     150.745 157.864 158.705  0.00  0.00    +0.000 A 
ATOM     40  C35 UNL     1     150.319 158.643 159.780  0.00  0.00    +0.001 A 
ATOM     41  C36 UNL     1     150.233 158.083 161.058  0.00  0.00    +0.010 A 
ENDBRANCH   2  36
BRANCH   1  42
ATOM     42  C3  UNL     1     152.839 156.828 163.183  0.00  0.00    +0.340 C 
ATOM     43  O2  UNL     1     153.611 156.383 162.352  0.00  0.00    -0.245 OA
BRANCH  42  44
ATOM     44  O1  UNL     1     152.995 157.958 163.919  0.00  0.00    -0.462 OA
BRANCH  44  46
ATOM     45  C1  UNL     1     152.377 160.229 164.463  0.00  0.00    +0.048 C 
ATOM     46  C2  UNL     1     152.303 159.118 163.435  0.00  0.00    +0.229 C 
ENDBRANCH  44  46
ENDBRANCH  42  44
ENDBRANCH   1  42
TORSDOF 9
ENDMDL
