MODEL 1
REMARK VINA RESULT:    -8.358      0.000      0.000
REMARK INTER + INTRA:         -14.139
REMARK INTER:                 -11.778
REMARK INTRA:                  -2.361
REMARK UNBOUND:                -2.361
REMARK  Name = /home/vital/Documents/PhD_2021/Malaria_codes/data/pdb_ligands_mmv/ligand_30.pdb
REMARK  10 active torsions:
REMARK  status: ('A' for Active; 'I' for Inactive)
REMARK    1  A    between atoms: C1_1  and  O1_2
REMARK    2  A    between atoms: O1_2  and  C2_3
REMARK    3  A    between atoms: C5_6  and  C8_9
REMARK    4  A    between atoms: C9_10  and  C10_11
REMARK    5  A    between atoms: C13_14  and  O2_15
REMARK    6  A    between atoms: O2_15  and  C14_16
REMARK    7  A    between atoms: C17_19  and  C37_43
REMARK    8  A    between atoms: N1_24  and  C22_27
REMARK    9  A    between atoms: C25_30  and  C26_31
REMARK   10  A    between atoms: C29_34  and  C31_37
REMARK                            x       y       z     vdW  Elec       q    Type
REMARK                         _______ _______ _______ _____ _____    ______ ____
ROOT
ATOM      1  C8  UNL     1     151.017 155.870 164.768  0.00  0.00    -0.017 C 
ATOM      2  C9  UNL     1     150.927 156.105 163.439  0.00  0.00    -0.017 C 
ATOM      3  C17 UNL     1     150.313 154.884 162.740  0.00  0.00    +0.093 C 
ATOM      4  C18 UNL     1     148.842 154.761 163.238  0.00  0.00    +0.111 C 
ATOM      5  C19 UNL     1     148.945 154.522 164.771  0.00  0.00    +0.111 C 
ATOM      6  C20 UNL     1     148.237 153.209 164.979  0.00  0.00    +0.232 C 
ATOM      7  O3  UNL     1     147.891 152.851 166.096  0.00  0.00    -0.274 OA
ATOM      8  N1  UNL     1     148.002 152.610 163.761  0.00  0.00    -0.210 N 
ATOM      9  C21 UNL     1     148.111 153.535 162.745  0.00  0.00    +0.232 C 
ATOM     10  O4  UNL     1     147.633 153.498 161.619  0.00  0.00    -0.274 OA
ATOM     11  C29 UNL     1     150.472 154.473 165.082  0.00  0.00    +0.093 C 
ATOM     12  C30 UNL     1     150.879 153.901 163.743  0.00  0.00    +0.164 C 
ATOM     13  O5  UNL     1     151.392 152.819 163.513  0.00  0.00    -0.295 OA
ENDROOT
BRANCH   8  14
ATOM     14  C22 UNL     1     147.490 151.277 163.594  0.00  0.00    +0.044 A 
ATOM     15  C23 UNL     1     147.999 150.193 164.327  0.00  0.00    +0.024 A 
ATOM     16  C24 UNL     1     147.488 148.893 164.182  0.00  0.00    +0.005 A 
ATOM     17  C25 UNL     1     146.429 148.638 163.313  0.00  0.00    -0.050 A 
ATOM     18  C26 UNL     1     145.904 147.246 163.137  0.00  0.00    +0.044 C 
ATOM     19  C27 UNL     1     145.904 149.701 162.581  0.00  0.00    +0.005 A 
ATOM     20  C28 UNL     1     146.418 150.998 162.730  0.00  0.00    +0.024 A 
ENDBRANCH   8  14
BRANCH   1  24
ATOM     21  C2  UNL     1     152.261 158.658 167.765  0.00  0.00    +0.120 A 
ATOM     22  C3  UNL     1     153.208 157.903 167.073  0.00  0.00    +0.046 A 
ATOM     23  C4  UNL     1     152.801 156.993 166.091  0.00  0.00    +0.012 A 
ATOM     24  C5  UNL     1     151.445 156.820 165.795  0.00  0.00    -0.020 A 
ATOM     25  C6  UNL     1     150.499 157.585 166.484  0.00  0.00    +0.012 A 
ATOM     26  C7  UNL     1     150.908 158.495 167.462  0.00  0.00    +0.046 A 
BRANCH  21  28
ATOM     27  C1  UNL     1     151.514 160.545 169.000  0.00  0.00    +0.277 C 
ATOM     28  O1  UNL     1     152.522 159.576 168.743  0.00  0.00    -0.495 OA
ENDBRANCH  21  28
ENDBRANCH   1  24
BRANCH   2  29
ATOM     29  C10 UNL     1     151.267 157.353 162.747  0.00  0.00    -0.020 A 
ATOM     30  C11 UNL     1     152.316 157.386 161.824  0.00  0.00    +0.012 A 
ATOM     31  C12 UNL     1     152.645 158.574 161.167  0.00  0.00    +0.046 A 
ATOM     32  C13 UNL     1     151.931 159.748 161.415  0.00  0.00    +0.120 A 
ATOM     33  C15 UNL     1     150.884 159.722 162.335  0.00  0.00    +0.046 A 
ATOM     34  C16 UNL     1     150.556 158.533 162.998  0.00  0.00    +0.012 A 
BRANCH  32  35
ATOM     35  O2  UNL     1     152.354 160.836 160.705  0.00  0.00    -0.495 OA
ATOM     36  C14 UNL     1     151.723 161.072 159.452  0.00  0.00    +0.277 C 
ENDBRANCH  32  35
ENDBRANCH   2  29
BRANCH  11  37
ATOM     37  C31 UNL     1     150.960 153.831 166.355  0.00  0.00    -0.029 A 
ATOM     38  C32 UNL     1     150.943 154.562 167.558  0.00  0.00    +0.005 A 
ATOM     39  C33 UNL     1     151.423 154.013 168.749  0.00  0.00    +0.000 A 
ATOM     40  C34 UNL     1     151.943 152.724 168.763  0.00  0.00    +0.000 A 
ATOM     41  C35 UNL     1     151.988 151.988 167.584  0.00  0.00    +0.000 A 
ATOM     42  C36 UNL     1     151.508 152.538 166.392  0.00  0.00    +0.005 A 
ENDBRANCH  11  37
BRANCH   3  43
ATOM     43  C37 UNL     1     150.693 154.710 161.291  0.00  0.00    -0.029 A 
ATOM     44  C38 UNL     1     149.995 155.377 160.271  0.00  0.00    +0.005 A 
ATOM     45  C39 UNL     1     150.374 155.254 158.931  0.00  0.00    +0.000 A 
ATOM     46  C40 UNL     1     151.471 154.474 158.584  0.00  0.00    +0.000 A 
ATOM     47  C41 UNL     1     152.194 153.822 159.577  0.00  0.00    +0.000 A 
ATOM     48  C42 UNL     1     151.813 153.945 160.916  0.00  0.00    +0.005 A 
ENDBRANCH   3  43
TORSDOF 7
ENDMDL
MODEL 2
REMARK VINA RESULT:    -6.034      2.446      7.065
REMARK INTER + INTRA:         -10.864
REMARK INTER:                  -7.927
REMARK INTRA:                  -2.937
REMARK UNBOUND:                -2.361
REMARK  Name = /home/vital/Documents/PhD_2021/Malaria_codes/data/pdb_ligands_mmv/ligand_30.pdb
REMARK  10 active torsions:
REMARK  status: ('A' for Active; 'I' for Inactive)
REMARK    1  A    between atoms: C1_1  and  O1_2
REMARK    2  A    between atoms: O1_2  and  C2_3
REMARK    3  A    between atoms: C5_6  and  C8_9
REMARK    4  A    between atoms: C9_10  and  C10_11
REMARK    5  A    between atoms: C13_14  and  O2_15
REMARK    6  A    between atoms: O2_15  and  C14_16
REMARK    7  A    between atoms: C17_19  and  C37_43
REMARK    8  A    between atoms: N1_24  and  C22_27
REMARK    9  A    between atoms: C25_30  and  C26_31
REMARK   10  A    between atoms: C29_34  and  C31_37
REMARK                            x       y       z     vdW  Elec       q    Type
REMARK                         _______ _______ _______ _____ _____    ______ ____
ROOT
ATOM      1  C8  UNL     1     151.292 157.901 163.458  0.00  0.00    -0.017 C 
ATOM      2  C9  UNL     1     151.004 156.623 163.795  0.00  0.00    -0.017 C 
ATOM      3  C17 UNL     1     150.636 155.829 162.534  0.00  0.00    +0.093 C 
ATOM      4  C18 UNL     1     151.917 155.745 161.652  0.00  0.00    +0.111 C 
ATOM      5  C19 UNL     1     152.265 157.217 161.292  0.00  0.00    +0.111 C 
ATOM      6  C20 UNL     1     152.250 157.232 159.785  0.00  0.00    +0.232 C 
ATOM      7  O3  UNL     1     152.746 158.158 159.160  0.00  0.00    -0.274 OA
ATOM      8  N1  UNL     1     151.703 156.058 159.315  0.00  0.00    -0.210 N 
ATOM      9  C21 UNL     1     151.712 155.097 160.304  0.00  0.00    +0.232 C 
ATOM     10  O4  UNL     1     151.668 153.880 160.190  0.00  0.00    -0.274 OA
ATOM     11  C29 UNL     1     151.144 158.080 161.944  0.00  0.00    +0.093 C 
ATOM     12  C30 UNL     1     150.059 157.035 161.822  0.00  0.00    +0.164 C 
ATOM     13  O5  UNL     1     149.035 157.088 161.162  0.00  0.00    -0.295 OA
ENDROOT
BRANCH   8  14
ATOM     14  C22 UNL     1     151.388 155.801 157.936  0.00  0.00    +0.044 A 
ATOM     15  C23 UNL     1     150.063 155.776 157.473  0.00  0.00    +0.024 A 
ATOM     16  C24 UNL     1     149.752 155.546 156.124  0.00  0.00    +0.005 A 
ATOM     17  C25 UNL     1     150.762 155.358 155.183  0.00  0.00    -0.050 A 
ATOM     18  C26 UNL     1     150.429 155.084 153.748  0.00  0.00    +0.044 C 
ATOM     19  C27 UNL     1     152.085 155.388 155.619  0.00  0.00    +0.005 A 
ATOM     20  C28 UNL     1     152.391 155.618 156.968  0.00  0.00    +0.024 A 
ENDBRANCH   8  14
BRANCH   1  24
ATOM     21  C2  UNL     1     152.741 160.970 166.062  0.00  0.00    +0.120 A 
ATOM     22  C3  UNL     1     153.638 160.156 165.371  0.00  0.00    +0.046 A 
ATOM     23  C4  UNL     1     153.163 159.154 164.516  0.00  0.00    +0.012 A 
ATOM     24  C5  UNL     1     151.791 158.947 164.351  0.00  0.00    -0.020 A 
ATOM     25  C6  UNL     1     150.894 159.772 165.038  0.00  0.00    +0.012 A 
ATOM     26  C7  UNL     1     151.370 160.773 165.888  0.00  0.00    +0.046 A 
BRANCH  21  28
ATOM     27  C1  UNL     1     152.020 162.510 167.722  0.00  0.00    +0.277 C 
ATOM     28  O1  UNL     1     153.070 161.979 166.924  0.00  0.00    -0.495 OA
ENDBRANCH  21  28
ENDBRANCH   1  24
BRANCH   2  29
ATOM     29  C10 UNL     1     151.106 156.027 165.131  0.00  0.00    -0.020 A 
ATOM     30  C11 UNL     1     152.354 155.672 165.654  0.00  0.00    +0.012 A 
ATOM     31  C12 UNL     1     152.453 155.102 166.924  0.00  0.00    +0.046 A 
ATOM     32  C13 UNL     1     151.313 154.879 167.698  0.00  0.00    +0.120 A 
ATOM     33  C15 UNL     1     150.066 155.229 167.183  0.00  0.00    +0.046 A 
ATOM     34  C16 UNL     1     149.964 155.798 165.906  0.00  0.00    +0.012 A 
BRANCH  32  35
ATOM     35  O2  UNL     1     151.551 154.317 168.921  0.00  0.00    -0.495 OA
ATOM     36  C14 UNL     1     152.356 153.144 168.945  0.00  0.00    +0.277 C 
ENDBRANCH  32  35
ENDBRANCH   2  29
BRANCH  11  37
ATOM     37  C31 UNL     1     150.895 159.485 161.454  0.00  0.00    -0.029 A 
ATOM     38  C32 UNL     1     151.984 160.335 161.187  0.00  0.00    +0.005 A 
ATOM     39  C33 UNL     1     151.791 161.654 160.769  0.00  0.00    +0.000 A 
ATOM     40  C34 UNL     1     150.504 162.156 160.620  0.00  0.00    +0.000 A 
ATOM     41  C35 UNL     1     149.411 161.342 160.895  0.00  0.00    +0.000 A 
ATOM     42  C36 UNL     1     149.605 160.022 161.314  0.00  0.00    +0.005 A 
ENDBRANCH  11  37
BRANCH   3  43
ATOM     43  C37 UNL     1     149.729 154.644 162.759  0.00  0.00    -0.029 A 
ATOM     44  C38 UNL     1     148.591 154.438 161.963  0.00  0.00    +0.005 A 
ATOM     45  C39 UNL     1     147.774 153.317 162.138  0.00  0.00    +0.000 A 
ATOM     46  C40 UNL     1     148.090 152.368 163.104  0.00  0.00    +0.000 A 
ATOM     47  C41 UNL     1     149.225 152.536 163.889  0.00  0.00    +0.000 A 
ATOM     48  C42 UNL     1     150.038 153.658 163.713  0.00  0.00    +0.005 A 
ENDBRANCH   3  43
TORSDOF 7
ENDMDL
