MODEL 1
REMARK VINA RESULT:    -8.137      0.000      0.000
REMARK INTER + INTRA:         -11.516
REMARK INTER:                 -10.278
REMARK INTRA:                  -1.238
REMARK UNBOUND:                -1.238
REMARK  Name = /home/vital/Documents/PhD_2021/Malaria_codes/data/pdb_ligands_mmv/ligand_130.pdb
REMARK  5 active torsions:
REMARK  status: ('A' for Active; 'I' for Inactive)
REMARK    1  A    between atoms: O1_1  and  C1_2
REMARK    2  A    between atoms: C2_3  and  C10_12
REMARK    3  A    between atoms: C10_12  and  N2_13
REMARK    4  A    between atoms: C10_12  and  C18_22
REMARK    5  A    between atoms: C11_14  and  C12_16
REMARK                            x       y       z     vdW  Elec       q    Type
REMARK                         _______ _______ _______ _____ _____    ______ ____
ROOT
ATOM      1  C10 UNL     1     151.916 159.170 167.587  0.00  0.00    +0.137 C 
ENDROOT
BRANCH   1   3
ATOM      2  C1  UNL     1     151.366 159.299 165.113  0.00  0.00    +0.148 A 
ATOM      3  C2  UNL     1     151.970 159.877 166.240  0.00  0.00    +0.021 A 
ATOM      4  C3  UNL     1     152.586 161.127 166.073  0.00  0.00    +0.010 A 
ATOM      5  C4  UNL     1     152.603 161.755 164.824  0.00  0.00    +0.010 A 
ATOM      6  C5  UNL     1     151.995 161.149 163.714  0.00  0.00    +0.004 A 
ATOM      7  C6  UNL     1     151.992 161.747 162.447  0.00  0.00    +0.011 A 
ATOM      8  C7  UNL     1     151.374 161.103 161.381  0.00  0.00    +0.020 A 
ATOM      9  C8  UNL     1     150.776 159.880 161.617  0.00  0.00    +0.111 A 
ATOM     10  N1  UNL     1     150.756 159.269 162.823  0.00  0.00    -0.251 NA
ATOM     11  C9  UNL     1     151.363 159.900 163.854  0.00  0.00    +0.113 A 
BRANCH   2  12
ATOM     12  O1  UNL     1     150.738 158.076 165.235  0.00  0.00    -0.504 OA
ATOM     13  H1  UNL     1     151.285 157.478 164.680  0.00  0.00    +0.292 HD
ENDBRANCH   2  12
ENDBRANCH   1   3
BRANCH   1  14
ATOM     14  C18 UNL     1     152.576 159.990 168.696  0.00  0.00    -0.023 A 
ATOM     15  C19 UNL     1     151.792 160.813 169.519  0.00  0.00    +0.006 A 
ATOM     16  C20 UNL     1     152.375 161.556 170.546  0.00  0.00    +0.000 A 
ATOM     17  C21 UNL     1     153.749 161.487 170.766  0.00  0.00    +0.000 A 
ATOM     18  C22 UNL     1     154.543 160.677 169.955  0.00  0.00    +0.000 A 
ATOM     19  C23 UNL     1     153.963 159.934 168.927  0.00  0.00    +0.006 A 
ENDBRANCH   1  14
BRANCH   1  20
ATOM     20  N2  UNL     1     152.516 157.835 167.574  0.00  0.00    -0.300 N 
ATOM     21  C11 UNL     1     151.745 156.704 167.742  0.00  0.00    +0.245 C 
ATOM     22  O2  UNL     1     150.522 156.710 167.797  0.00  0.00    -0.270 OA
ATOM     23  H8  UNL     1     153.481 157.786 167.866  0.00  0.00    +0.150 HD
BRANCH  21  24
ATOM     24  C12 UNL     1     152.491 155.423 167.895  0.00  0.00    +0.037 A 
ATOM     25  C13 UNL     1     153.886 155.384 168.025  0.00  0.00    +0.013 A 
ATOM     26  C14 UNL     1     154.541 154.158 168.164  0.00  0.00    +0.001 A 
ATOM     27  C15 UNL     1     153.811 152.970 168.168  0.00  0.00    +0.000 A 
ATOM     28  C16 UNL     1     152.424 153.002 168.024  0.00  0.00    +0.001 A 
ATOM     29  C17 UNL     1     151.765 154.224 167.884  0.00  0.00    +0.013 A 
ENDBRANCH  21  24
ENDBRANCH   1  20
TORSDOF 5
ENDMDL
MODEL 2
REMARK VINA RESULT:    -7.898      4.332      7.715
REMARK INTER + INTRA:         -11.214
REMARK INTER:                  -9.999
REMARK INTRA:                  -1.215
REMARK UNBOUND:                -1.238
REMARK  Name = /home/vital/Documents/PhD_2021/Malaria_codes/data/pdb_ligands_mmv/ligand_130.pdb
REMARK  5 active torsions:
REMARK  status: ('A' for Active; 'I' for Inactive)
REMARK    1  A    between atoms: O1_1  and  C1_2
REMARK    2  A    between atoms: C2_3  and  C10_12
REMARK    3  A    between atoms: C10_12  and  N2_13
REMARK    4  A    between atoms: C10_12  and  C18_22
REMARK    5  A    between atoms: C11_14  and  C12_16
REMARK                            x       y       z     vdW  Elec       q    Type
REMARK                         _______ _______ _______ _____ _____    ______ ____
ROOT
ATOM      1  C10 UNL     1     151.006 156.752 160.825  0.00  0.00    +0.137 C 
ENDROOT
BRANCH   1   3
ATOM      2  C1  UNL     1     151.750 158.609 162.388  0.00  0.00    +0.148 A 
ATOM      3  C2  UNL     1     150.852 158.148 161.412  0.00  0.00    +0.021 A 
ATOM      4  C3  UNL     1     149.846 159.033 160.992  0.00  0.00    +0.010 A 
ATOM      5  C4  UNL     1     149.744 160.314 161.543  0.00  0.00    +0.010 A 
ATOM      6  C5  UNL     1     150.654 160.743 162.521  0.00  0.00    +0.004 A 
ATOM      7  C6  UNL     1     150.583 162.019 163.096  0.00  0.00    +0.011 A 
ATOM      8  C7  UNL     1     151.512 162.394 164.061  0.00  0.00    +0.020 A 
ATOM      9  C8  UNL     1     152.483 161.478 164.420  0.00  0.00    +0.111 A 
ATOM     10  N1  UNL     1     152.586 160.240 163.890  0.00  0.00    -0.251 NA
ATOM     11  C9  UNL     1     151.678 159.881 162.955  0.00  0.00    +0.113 A 
BRANCH   2  12
ATOM     12  O1  UNL     1     152.763 157.776 162.821  0.00  0.00    -0.504 OA
ATOM     13  H1  UNL     1     153.138 157.416 161.988  0.00  0.00    +0.292 HD
ENDBRANCH   2  12
ENDBRANCH   1   3
BRANCH   1  14
ATOM     14  C18 UNL     1     150.906 156.754 159.299  0.00  0.00    -0.023 A 
ATOM     15  C19 UNL     1     150.333 155.659 158.635  0.00  0.00    +0.006 A 
ATOM     16  C20 UNL     1     150.218 155.650 157.244  0.00  0.00    +0.000 A 
ATOM     17  C21 UNL     1     150.673 156.736 156.498  0.00  0.00    +0.000 A 
ATOM     18  C22 UNL     1     151.248 157.830 157.142  0.00  0.00    +0.000 A 
ATOM     19  C23 UNL     1     151.365 157.841 158.533  0.00  0.00    +0.006 A 
ENDBRANCH   1  14
BRANCH   1  20
ATOM     20  N2  UNL     1     150.045 155.784 161.354  0.00  0.00    -0.300 N 
ATOM     21  C11 UNL     1     150.326 155.043 162.483  0.00  0.00    +0.245 C 
ATOM     22  O2  UNL     1     151.317 155.209 163.182  0.00  0.00    -0.270 OA
ATOM     23  H8  UNL     1     149.415 155.378 160.678  0.00  0.00    +0.150 HD
BRANCH  21  24
ATOM     24  C12 UNL     1     149.353 153.963 162.813  0.00  0.00    +0.037 A 
ATOM     25  C13 UNL     1     148.417 153.493 161.883  0.00  0.00    +0.013 A 
ATOM     26  C14 UNL     1     147.524 152.480 162.239  0.00  0.00    +0.001 A 
ATOM     27  C15 UNL     1     147.557 151.938 163.524  0.00  0.00    +0.000 A 
ATOM     28  C16 UNL     1     148.477 152.412 164.459  0.00  0.00    +0.001 A 
ATOM     29  C17 UNL     1     149.370 153.425 164.107  0.00  0.00    +0.013 A 
ENDBRANCH  21  24
ENDBRANCH   1  20
TORSDOF 5
ENDMDL
MODEL 3
REMARK VINA RESULT:    -7.816     10.612     13.542
REMARK INTER + INTRA:         -11.110
REMARK INTER:                  -9.946
REMARK INTRA:                  -1.164
REMARK UNBOUND:                -1.238
REMARK  Name = /home/vital/Documents/PhD_2021/Malaria_codes/data/pdb_ligands_mmv/ligand_130.pdb
REMARK  5 active torsions:
REMARK  status: ('A' for Active; 'I' for Inactive)
REMARK    1  A    between atoms: O1_1  and  C1_2
REMARK    2  A    between atoms: C2_3  and  C10_12
REMARK    3  A    between atoms: C10_12  and  N2_13
REMARK    4  A    between atoms: C10_12  and  C18_22
REMARK    5  A    between atoms: C11_14  and  C12_16
REMARK                            x       y       z     vdW  Elec       q    Type
REMARK                         _______ _______ _______ _____ _____    ______ ____
ROOT
ATOM      1  C10 UNL     1     144.192 148.163 164.455  0.00  0.00    +0.137 C 
ENDROOT
BRANCH   1   3
ATOM      2  C1  UNL     1     145.570 149.925 163.257  0.00  0.00    +0.148 A 
ATOM      3  C2  UNL     1     145.263 149.244 164.445  0.00  0.00    +0.021 A 
ATOM      4  C3  UNL     1     145.958 149.622 165.604  0.00  0.00    +0.010 A 
ATOM      5  C4  UNL     1     146.926 150.631 165.561  0.00  0.00    +0.010 A 
ATOM      6  C5  UNL     1     147.215 151.290 164.356  0.00  0.00    +0.004 A 
ATOM      7  C6  UNL     1     148.177 152.304 164.273  0.00  0.00    +0.011 A 
ATOM      8  C7  UNL     1     148.422 152.926 163.054  0.00  0.00    +0.020 A 
ATOM      9  C8  UNL     1     147.694 152.512 161.954  0.00  0.00    +0.111 A 
ATOM     10  N1  UNL     1     146.757 151.539 161.991  0.00  0.00    -0.251 NA
ATOM     11  C9  UNL     1     146.527 150.937 163.180  0.00  0.00    +0.113 A 
BRANCH   2  12
ATOM     12  O1  UNL     1     144.901 149.593 162.096  0.00  0.00    -0.504 OA
ATOM     13  H1  UNL     1     144.583 150.458 161.756  0.00  0.00    +0.292 HD
ENDBRANCH   2  12
ENDBRANCH   1   3
BRANCH   1  14
ATOM     14  C18 UNL     1     143.197 148.348 165.601  0.00  0.00    -0.023 A 
ATOM     15  C19 UNL     1     143.250 147.500 166.718  0.00  0.00    +0.006 A 
ATOM     16  C20 UNL     1     142.361 147.666 167.781  0.00  0.00    +0.000 A 
ATOM     17  C21 UNL     1     141.406 148.680 167.743  0.00  0.00    +0.000 A 
ATOM     18  C22 UNL     1     141.337 149.528 166.639  0.00  0.00    +0.000 A 
ATOM     19  C23 UNL     1     142.225 149.365 165.574  0.00  0.00    +0.006 A 
ENDBRANCH   1  14
BRANCH   1  20
ATOM     20  N2  UNL     1     144.729 146.803 164.520  0.00  0.00    -0.300 N 
ATOM     21  C11 UNL     1     144.086 145.751 163.904  0.00  0.00    +0.245 C 
ATOM     22  O2  UNL     1     143.108 145.876 163.178  0.00  0.00    -0.270 OA
ATOM     23  H8  UNL     1     145.290 146.593 165.333  0.00  0.00    +0.150 HD
BRANCH  21  24
ATOM     24  C12 UNL     1     144.627 144.393 164.197  0.00  0.00    +0.037 A 
ATOM     25  C13 UNL     1     145.154 143.569 163.194  0.00  0.00    +0.013 A 
ATOM     26  C14 UNL     1     145.648 142.303 163.517  0.00  0.00    +0.001 A 
ATOM     27  C15 UNL     1     145.614 141.854 164.837  0.00  0.00    +0.000 A 
ATOM     28  C16 UNL     1     145.076 142.664 165.837  0.00  0.00    +0.001 A 
ATOM     29  C17 UNL     1     144.581 143.929 165.518  0.00  0.00    +0.013 A 
ENDBRANCH  21  24
ENDBRANCH   1  20
TORSDOF 5
ENDMDL
MODEL 4
REMARK VINA RESULT:    -7.741      4.337      7.354
REMARK INTER + INTRA:         -11.016
REMARK INTER:                 -10.043
REMARK INTRA:                  -0.972
REMARK UNBOUND:                -1.238
REMARK  Name = /home/vital/Documents/PhD_2021/Malaria_codes/data/pdb_ligands_mmv/ligand_130.pdb
REMARK  5 active torsions:
REMARK  status: ('A' for Active; 'I' for Inactive)
REMARK    1  A    between atoms: O1_1  and  C1_2
REMARK    2  A    between atoms: C2_3  and  C10_12
REMARK    3  A    between atoms: C10_12  and  N2_13
REMARK    4  A    between atoms: C10_12  and  C18_22
REMARK    5  A    between atoms: C11_14  and  C12_16
REMARK                            x       y       z     vdW  Elec       q    Type
REMARK                         _______ _______ _______ _____ _____    ______ ____
ROOT
ATOM      1  C10 UNL     1     151.176 155.981 162.111  0.00  0.00    +0.137 C 
ENDROOT
BRANCH   1   3
ATOM      2  C1  UNL     1     151.385 156.085 159.584  0.00  0.00    +0.148 A 
ATOM      3  C2  UNL     1     150.906 156.656 160.773  0.00  0.00    +0.021 A 
ATOM      4  C3  UNL     1     150.156 157.837 160.667  0.00  0.00    +0.010 A 
ATOM      5  C4  UNL     1     149.914 158.421 159.420  0.00  0.00    +0.010 A 
ATOM      6  C5  UNL     1     150.412 157.830 158.248  0.00  0.00    +0.004 A 
ATOM      7  C6  UNL     1     150.191 158.385 156.980  0.00  0.00    +0.011 A 
ATOM      8  C7  UNL     1     150.705 157.757 155.852  0.00  0.00    +0.020 A 
ATOM      9  C8  UNL     1     151.425 156.590 156.028  0.00  0.00    +0.111 A 
ATOM     10  N1  UNL     1     151.660 156.022 157.231  0.00  0.00    -0.251 NA
ATOM     11  C9  UNL     1     151.159 156.640 158.324  0.00  0.00    +0.113 A 
BRANCH   2  12
ATOM     12  O1  UNL     1     152.117 154.916 159.641  0.00  0.00    -0.504 OA
ATOM     13  H1  UNL     1     152.247 154.772 160.603  0.00  0.00    +0.292 HD
ENDBRANCH   2  12
ENDBRANCH   1   3
BRANCH   1  14
ATOM     14  C18 UNL     1     150.120 154.928 162.449  0.00  0.00    -0.023 A 
ATOM     15  C19 UNL     1     149.999 154.458 163.766  0.00  0.00    +0.006 A 
ATOM     16  C20 UNL     1     149.029 153.509 164.097  0.00  0.00    +0.000 A 
ATOM     17  C21 UNL     1     148.169 153.018 163.117  0.00  0.00    +0.000 A 
ATOM     18  C22 UNL     1     148.279 153.472 161.804  0.00  0.00    +0.000 A 
ATOM     19  C23 UNL     1     149.248 154.420 161.470  0.00  0.00    +0.006 A 
ENDBRANCH   1  14
BRANCH   1  20
ATOM     20  N2  UNL     1     151.277 156.917 163.231  0.00  0.00    -0.300 N 
ATOM     21  C11 UNL     1     152.495 157.432 163.624  0.00  0.00    +0.245 C 
ATOM     22  O2  UNL     1     153.543 157.248 163.020  0.00  0.00    -0.270 OA
ATOM     23  H8  UNL     1     150.559 156.836 163.935  0.00  0.00    +0.150 HD
BRANCH  21  24
ATOM     24  C12 UNL     1     152.491 158.223 164.887  0.00  0.00    +0.037 A 
ATOM     25  C13 UNL     1     152.752 159.600 164.904  0.00  0.00    +0.013 A 
ATOM     26  C14 UNL     1     152.739 160.299 166.114  0.00  0.00    +0.001 A 
ATOM     27  C15 UNL     1     152.474 159.628 167.308  0.00  0.00    +0.000 A 
ATOM     28  C16 UNL     1     152.229 158.255 167.298  0.00  0.00    +0.001 A 
ATOM     29  C17 UNL     1     152.242 157.553 166.092  0.00  0.00    +0.013 A 
ENDBRANCH  21  24
ENDBRANCH   1  20
TORSDOF 5
ENDMDL
MODEL 5
REMARK VINA RESULT:    -7.702     11.098     15.313
REMARK INTER + INTRA:         -10.967
REMARK INTER:                  -9.760
REMARK INTRA:                  -1.206
REMARK UNBOUND:                -1.238
REMARK  Name = /home/vital/Documents/PhD_2021/Malaria_codes/data/pdb_ligands_mmv/ligand_130.pdb
REMARK  5 active torsions:
REMARK  status: ('A' for Active; 'I' for Inactive)
REMARK    1  A    between atoms: O1_1  and  C1_2
REMARK    2  A    between atoms: C2_3  and  C10_12
REMARK    3  A    between atoms: C10_12  and  N2_13
REMARK    4  A    between atoms: C10_12  and  C18_22
REMARK    5  A    between atoms: C11_14  and  C12_16
REMARK                            x       y       z     vdW  Elec       q    Type
REMARK                         _______ _______ _______ _____ _____    ______ ____
ROOT
ATOM      1  C10 UNL     1     144.958 147.228 165.810  0.00  0.00    +0.137 C 
ENDROOT
BRANCH   1   3
ATOM      2  C1  UNL     1     145.063 144.698 165.970  0.00  0.00    +0.148 A 
ATOM      3  C2  UNL     1     145.125 145.854 165.177  0.00  0.00    +0.021 A 
ATOM      4  C3  UNL     1     145.313 145.682 163.797  0.00  0.00    +0.010 A 
ATOM      5  C4  UNL     1     145.446 144.403 163.247  0.00  0.00    +0.010 A 
ATOM      6  C5  UNL     1     145.386 143.265 164.067  0.00  0.00    +0.004 A 
ATOM      7  C6  UNL     1     145.516 141.968 163.554  0.00  0.00    +0.011 A 
ATOM      8  C7  UNL     1     145.447 140.876 164.411  0.00  0.00    +0.020 A 
ATOM      9  C8  UNL     1     145.248 141.117 165.757  0.00  0.00    +0.111 A 
ATOM     10  N1  UNL     1     145.117 142.351 166.293  0.00  0.00    -0.251 NA
ATOM     11  C9  UNL     1     145.190 143.408 165.453  0.00  0.00    +0.113 A 
BRANCH   2  12
ATOM     12  O1  UNL     1     144.867 144.821 167.331  0.00  0.00    -0.504 OA
ATOM     13  H1  UNL     1     145.707 144.491 167.717  0.00  0.00    +0.292 HD
ENDBRANCH   2  12
ENDBRANCH   1   3
BRANCH   1  14
ATOM     14  C18 UNL     1     143.491 147.647 165.902  0.00  0.00    -0.023 A 
ATOM     15  C19 UNL     1     142.819 148.096 164.754  0.00  0.00    +0.006 A 
ATOM     16  C20 UNL     1     141.474 148.466 164.816  0.00  0.00    +0.000 A 
ATOM     17  C21 UNL     1     140.783 148.393 166.023  0.00  0.00    +0.000 A 
ATOM     18  C22 UNL     1     141.437 147.953 167.173  0.00  0.00    +0.000 A 
ATOM     19  C23 UNL     1     142.781 147.583 167.115  0.00  0.00    +0.006 A 
ENDBRANCH   1  14
BRANCH   1  20
ATOM     20  N2  UNL     1     145.703 148.285 165.124  0.00  0.00    -0.300 N 
ATOM     21  C11 UNL     1     146.224 149.357 165.817  0.00  0.00    +0.245 C 
ATOM     22  O2  UNL     1     146.211 149.456 167.038  0.00  0.00    -0.270 OA
ATOM     23  H8  UNL     1     145.460 148.433 164.156  0.00  0.00    +0.150 HD
BRANCH  21  24
ATOM     24  C12 UNL     1     146.796 150.455 164.987  0.00  0.00    +0.037 A 
ATOM     25  C13 UNL     1     147.694 151.394 165.511  0.00  0.00    +0.013 A 
ATOM     26  C14 UNL     1     148.202 152.407 164.694  0.00  0.00    +0.001 A 
ATOM     27  C15 UNL     1     147.812 152.490 163.357  0.00  0.00    +0.000 A 
ATOM     28  C16 UNL     1     146.906 151.568 162.835  0.00  0.00    +0.001 A 
ATOM     29  C17 UNL     1     146.396 150.555 163.648  0.00  0.00    +0.013 A 
ENDBRANCH  21  24
ENDBRANCH   1  20
TORSDOF 5
ENDMDL
MODEL 6
REMARK VINA RESULT:    -7.661      1.954      6.640
REMARK INTER + INTRA:         -10.914
REMARK INTER:                 -10.004
REMARK INTRA:                  -0.910
REMARK UNBOUND:                -1.238
REMARK  Name = /home/vital/Documents/PhD_2021/Malaria_codes/data/pdb_ligands_mmv/ligand_130.pdb
REMARK  5 active torsions:
REMARK  status: ('A' for Active; 'I' for Inactive)
REMARK    1  A    between atoms: O1_1  and  C1_2
REMARK    2  A    between atoms: C2_3  and  C10_12
REMARK    3  A    between atoms: C10_12  and  N2_13
REMARK    4  A    between atoms: C10_12  and  C18_22
REMARK    5  A    between atoms: C11_14  and  C12_16
REMARK                            x       y       z     vdW  Elec       q    Type
REMARK                         _______ _______ _______ _____ _____    ______ ____
ROOT
ATOM      1  C10 UNL     1     152.269 157.921 166.070  0.00  0.00    +0.137 C 
ENDROOT
BRANCH   1   3
ATOM      2  C1  UNL     1     151.241 155.609 166.278  0.00  0.00    +0.148 A 
ATOM      3  C2  UNL     1     152.299 156.483 166.571  0.00  0.00    +0.021 A 
ATOM      4  C3  UNL     1     153.378 155.968 167.306  0.00  0.00    +0.010 A 
ATOM      5  C4  UNL     1     153.380 154.638 167.736  0.00  0.00    +0.010 A 
ATOM      6  C5  UNL     1     152.303 153.789 167.433  0.00  0.00    +0.004 A 
ATOM      7  C6  UNL     1     152.269 152.451 167.847  0.00  0.00    +0.011 A 
ATOM      8  C7  UNL     1     151.178 151.654 167.518  0.00  0.00    +0.020 A 
ATOM      9  C8  UNL     1     150.155 152.222 166.782  0.00  0.00    +0.111 A 
ATOM     10  N1  UNL     1     150.150 153.507 166.362  0.00  0.00    -0.251 NA
ATOM     11  C9  UNL     1     151.212 154.277 166.690  0.00  0.00    +0.113 A 
BRANCH   2  12
ATOM     12  O1  UNL     1     150.165 156.071 165.546  0.00  0.00    -0.504 OA
ATOM     13  H1  UNL     1     150.511 156.114 164.628  0.00  0.00    +0.292 HD
ENDBRANCH   2  12
ENDBRANCH   1   3
BRANCH   1  14
ATOM     14  C18 UNL     1     151.800 158.897 167.149  0.00  0.00    -0.023 A 
ATOM     15  C19 UNL     1     152.693 159.319 168.146  0.00  0.00    +0.006 A 
ATOM     16  C20 UNL     1     152.288 160.223 169.129  0.00  0.00    +0.000 A 
ATOM     17  C21 UNL     1     150.984 160.717 169.130  0.00  0.00    +0.000 A 
ATOM     18  C22 UNL     1     150.084 160.305 168.150  0.00  0.00    +0.000 A 
ATOM     19  C23 UNL     1     150.487 159.401 167.165  0.00  0.00    +0.006 A 
ENDBRANCH   1  14
BRANCH   1  20
ATOM     20  N2  UNL     1     151.441 158.110 164.878  0.00  0.00    -0.300 N 
ATOM     21  C11 UNL     1     152.004 158.184 163.622  0.00  0.00    +0.245 C 
ATOM     22  O2  UNL     1     153.190 157.990 163.390  0.00  0.00    -0.270 OA
ATOM     23  H8  UNL     1     150.567 158.594 165.024  0.00  0.00    +0.150 HD
BRANCH  21  24
ATOM     24  C12 UNL     1     151.081 158.563 162.514  0.00  0.00    +0.037 A 
ATOM     25  C13 UNL     1     150.655 159.883 162.319  0.00  0.00    +0.013 A 
ATOM     26  C14 UNL     1     149.787 160.189 161.267  0.00  0.00    +0.001 A 
ATOM     27  C15 UNL     1     149.338 159.181 160.414  0.00  0.00    +0.000 A 
ATOM     28  C16 UNL     1     149.746 157.863 160.614  0.00  0.00    +0.001 A 
ATOM     29  C17 UNL     1     150.613 157.553 161.663  0.00  0.00    +0.013 A 
ENDBRANCH  21  24
ENDBRANCH   1  20
TORSDOF 5
ENDMDL
MODEL 7
REMARK VINA RESULT:    -7.339      3.658      6.948
REMARK INTER + INTRA:         -10.508
REMARK INTER:                  -9.856
REMARK INTRA:                  -0.652
REMARK UNBOUND:                -1.238
REMARK  Name = /home/vital/Documents/PhD_2021/Malaria_codes/data/pdb_ligands_mmv/ligand_130.pdb
REMARK  5 active torsions:
REMARK  status: ('A' for Active; 'I' for Inactive)
REMARK    1  A    between atoms: O1_1  and  C1_2
REMARK    2  A    between atoms: C2_3  and  C10_12
REMARK    3  A    between atoms: C10_12  and  N2_13
REMARK    4  A    between atoms: C10_12  and  C18_22
REMARK    5  A    between atoms: C11_14  and  C12_16
REMARK                            x       y       z     vdW  Elec       q    Type
REMARK                         _______ _______ _______ _____ _____    ______ ____
ROOT
ATOM      1  C10 UNL     1     151.505 156.031 163.076  0.00  0.00    +0.137 C 
ENDROOT
BRANCH   1   3
ATOM      2  C1  UNL     1     150.671 157.233 161.002  0.00  0.00    +0.148 A 
ATOM      3  C2  UNL     1     151.268 156.098 161.574  0.00  0.00    +0.021 A 
ATOM      4  C3  UNL     1     151.656 155.066 160.706  0.00  0.00    +0.010 A 
ATOM      5  C4  UNL     1     151.437 155.168 159.329  0.00  0.00    +0.010 A 
ATOM      6  C5  UNL     1     150.832 156.313 158.787  0.00  0.00    +0.004 A 
ATOM      7  C6  UNL     1     150.596 156.453 157.413  0.00  0.00    +0.011 A 
ATOM      8  C7  UNL     1     149.995 157.609 156.929  0.00  0.00    +0.020 A 
ATOM      9  C8  UNL     1     149.649 158.592 157.838  0.00  0.00    +0.111 A 
ATOM     10  N1  UNL     1     149.860 158.498 159.169  0.00  0.00    -0.251 NA
ATOM     11  C9  UNL     1     150.441 157.368 159.632  0.00  0.00    +0.113 A 
BRANCH   2  12
ATOM     12  O1  UNL     1     150.286 158.278 161.817  0.00  0.00    -0.504 OA
ATOM     13  H1  UNL     1     149.307 158.210 161.833  0.00  0.00    +0.292 HD
ENDBRANCH   2  12
ENDBRANCH   1   3
BRANCH   1  14
ATOM     14  C18 UNL     1     150.473 155.151 163.783  0.00  0.00    -0.023 A 
ATOM     15  C19 UNL     1     150.443 155.098 165.185  0.00  0.00    +0.006 A 
ATOM     16  C20 UNL     1     149.498 154.313 165.848  0.00  0.00    +0.000 A 
ATOM     17  C21 UNL     1     148.571 153.570 165.118  0.00  0.00    +0.000 A 
ATOM     18  C22 UNL     1     148.590 153.609 163.726  0.00  0.00    +0.000 A 
ATOM     19  C23 UNL     1     149.534 154.392 163.060  0.00  0.00    +0.006 A 
ENDBRANCH   1  14
BRANCH   1  20
ATOM     20  N2  UNL     1     151.524 157.341 163.727  0.00  0.00    -0.300 N 
ATOM     21  C11 UNL     1     152.711 157.942 164.089  0.00  0.00    +0.245 C 
ATOM     22  O2  UNL     1     153.817 157.500 163.803  0.00  0.00    -0.270 OA
ATOM     23  H8  UNL     1     150.703 157.574 164.267  0.00  0.00    +0.150 HD
BRANCH  21  24
ATOM     24  C12 UNL     1     152.592 159.181 164.908  0.00  0.00    +0.037 A 
ATOM     25  C13 UNL     1     152.587 160.458 164.330  0.00  0.00    +0.013 A 
ATOM     26  C14 UNL     1     152.475 161.591 165.139  0.00  0.00    +0.001 A 
ATOM     27  C15 UNL     1     152.376 161.456 166.524  0.00  0.00    +0.000 A 
ATOM     28  C16 UNL     1     152.397 160.188 167.105  0.00  0.00    +0.001 A 
ATOM     29  C17 UNL     1     152.508 159.054 166.301  0.00  0.00    +0.013 A 
ENDBRANCH  21  24
ENDBRANCH   1  20
TORSDOF 5
ENDMDL
MODEL 8
REMARK VINA RESULT:    -7.254      3.278      6.838
REMARK INTER + INTRA:         -10.401
REMARK INTER:                  -9.742
REMARK INTRA:                  -0.659
REMARK UNBOUND:                -1.238
REMARK  Name = /home/vital/Documents/PhD_2021/Malaria_codes/data/pdb_ligands_mmv/ligand_130.pdb
REMARK  5 active torsions:
REMARK  status: ('A' for Active; 'I' for Inactive)
REMARK    1  A    between atoms: O1_1  and  C1_2
REMARK    2  A    between atoms: C2_3  and  C10_12
REMARK    3  A    between atoms: C10_12  and  N2_13
REMARK    4  A    between atoms: C10_12  and  C18_22
REMARK    5  A    between atoms: C11_14  and  C12_16
REMARK                            x       y       z     vdW  Elec       q    Type
REMARK                         _______ _______ _______ _____ _____    ______ ____
ROOT
ATOM      1  C10 UNL     1     152.145 157.633 163.642  0.00  0.00    +0.137 C 
ENDROOT
BRANCH   1   3
ATOM      2  C1  UNL     1     151.821 157.748 161.128  0.00  0.00    +0.148 A 
ATOM      3  C2  UNL     1     151.760 156.999 162.313  0.00  0.00    +0.021 A 
ATOM      4  C3  UNL     1     151.365 155.656 162.209  0.00  0.00    +0.010 A 
ATOM      5  C4  UNL     1     151.034 155.102 160.969  0.00  0.00    +0.010 A 
ATOM      6  C5  UNL     1     151.098 155.878 159.802  0.00  0.00    +0.004 A 
ATOM      7  C6  UNL     1     150.773 155.359 158.542  0.00  0.00    +0.011 A 
ATOM      8  C7  UNL     1     150.856 156.172 157.417  0.00  0.00    +0.020 A 
ATOM      9  C8  UNL     1     151.264 157.481 157.589  0.00  0.00    +0.111 A 
ATOM     10  N1  UNL     1     151.586 158.021 158.786  0.00  0.00    -0.251 NA
ATOM     11  C9  UNL     1     151.499 157.225 159.875  0.00  0.00    +0.113 A 
BRANCH   2  12
ATOM     12  O1  UNL     1     152.216 159.069 161.182  0.00  0.00    -0.504 OA
ATOM     13  H1  UNL     1     152.840 159.155 160.429  0.00  0.00    +0.292 HD
ENDBRANCH   2  12
ENDBRANCH   1   3
BRANCH   1  14
ATOM     14  C18 UNL     1     151.820 156.726 164.830  0.00  0.00    -0.023 A 
ATOM     15  C19 UNL     1     152.743 156.591 165.879  0.00  0.00    +0.006 A 
ATOM     16  C20 UNL     1     152.456 155.781 166.979  0.00  0.00    +0.000 A 
ATOM     17  C21 UNL     1     151.245 155.095 167.045  0.00  0.00    +0.000 A 
ATOM     18  C22 UNL     1     150.320 155.215 166.010  0.00  0.00    +0.000 A 
ATOM     19  C23 UNL     1     150.604 156.024 164.908  0.00  0.00    +0.006 A 
ENDBRANCH   1  14
BRANCH   1  20
ATOM     20  N2  UNL     1     151.526 158.940 163.870  0.00  0.00    -0.300 N 
ATOM     21  C11 UNL     1     152.245 159.987 164.406  0.00  0.00    +0.245 C 
ATOM     22  O2  UNL     1     153.450 159.952 164.621  0.00  0.00    -0.270 OA
ATOM     23  H8  UNL     1     150.530 158.929 164.034  0.00  0.00    +0.150 HD
BRANCH  21  24
ATOM     24  C12 UNL     1     151.460 161.203 164.762  0.00  0.00    +0.037 A 
ATOM     25  C13 UNL     1     150.148 161.400 164.313  0.00  0.00    +0.013 A 
ATOM     26  C14 UNL     1     149.452 162.558 164.671  0.00  0.00    +0.001 A 
ATOM     27  C15 UNL     1     150.064 163.523 165.471  0.00  0.00    +0.000 A 
ATOM     28  C16 UNL     1     151.376 163.339 165.908  0.00  0.00    +0.001 A 
ATOM     29  C17 UNL     1     152.074 162.184 165.552  0.00  0.00    +0.013 A 
ENDBRANCH  21  24
ENDBRANCH   1  20
TORSDOF 5
ENDMDL
MODEL 9
REMARK VINA RESULT:    -7.236      1.586      2.199
REMARK INTER + INTRA:         -10.378
REMARK INTER:                  -9.541
REMARK INTRA:                  -0.837
REMARK UNBOUND:                -1.238
REMARK  Name = /home/vital/Documents/PhD_2021/Malaria_codes/data/pdb_ligands_mmv/ligand_130.pdb
REMARK  5 active torsions:
REMARK  status: ('A' for Active; 'I' for Inactive)
REMARK    1  A    between atoms: O1_1  and  C1_2
REMARK    2  A    between atoms: C2_3  and  C10_12
REMARK    3  A    between atoms: C10_12  and  N2_13
REMARK    4  A    between atoms: C10_12  and  C18_22
REMARK    5  A    between atoms: C11_14  and  C12_16
REMARK                            x       y       z     vdW  Elec       q    Type
REMARK                         _______ _______ _______ _____ _____    ______ ____
ROOT
ATOM      1  C10 UNL     1     151.413 159.674 165.567  0.00  0.00    +0.137 C 
ENDROOT
BRANCH   1   3
ATOM      2  C1  UNL     1     151.500 158.964 163.132  0.00  0.00    +0.148 A 
ATOM      3  C2  UNL     1     151.514 159.997 164.083  0.00  0.00    +0.021 A 
ATOM      4  C3  UNL     1     151.594 161.314 163.605  0.00  0.00    +0.010 A 
ATOM      5  C4  UNL     1     151.670 161.574 162.233  0.00  0.00    +0.010 A 
ATOM      6  C5  UNL     1     151.660 160.519 161.307  0.00  0.00    +0.004 A 
ATOM      7  C6  UNL     1     151.735 160.740 159.925  0.00  0.00    +0.011 A 
ATOM      8  C7  UNL     1     151.719 159.658 159.051  0.00  0.00    +0.020 A 
ATOM      9  C8  UNL     1     151.627 158.388 159.589  0.00  0.00    +0.111 A 
ATOM     10  N1  UNL     1     151.552 158.133 160.914  0.00  0.00    -0.251 NA
ATOM     11  C9  UNL     1     151.572 159.189 161.757  0.00  0.00    +0.113 A 
BRANCH   2  12
ATOM     12  O1  UNL     1     151.410 157.654 163.558  0.00  0.00    -0.504 OA
ATOM     13  H1  UNL     1     150.443 157.495 163.615  0.00  0.00    +0.292 HD
ENDBRANCH   2  12
ENDBRANCH   1   3
BRANCH   1  14
ATOM     14  C18 UNL     1     152.250 160.626 166.422  0.00  0.00    -0.023 A 
ATOM     15  C19 UNL     1     151.618 161.488 167.332  0.00  0.00    +0.006 A 
ATOM     16  C20 UNL     1     152.367 162.351 168.133  0.00  0.00    +0.000 A 
ATOM     17  C21 UNL     1     153.757 162.366 168.035  0.00  0.00    +0.000 A 
ATOM     18  C22 UNL     1     154.400 161.521 167.134  0.00  0.00    +0.000 A 
ATOM     19  C23 UNL     1     153.653 160.656 166.331  0.00  0.00    +0.006 A 
ENDBRANCH   1  14
BRANCH   1  20
ATOM     20  N2  UNL     1     151.789 158.299 165.896  0.00  0.00    -0.300 N 
ATOM     21  C11 UNL     1     151.113 157.586 166.864  0.00  0.00    +0.245 C 
ATOM     22  O2  UNL     1     150.103 157.985 167.429  0.00  0.00    -0.270 OA
ATOM     23  H8  UNL     1     152.756 158.059 165.734  0.00  0.00    +0.150 HD
BRANCH  21  24
ATOM     24  C12 UNL     1     151.705 156.270 167.237  0.00  0.00    +0.037 A 
ATOM     25  C13 UNL     1     153.042 156.141 167.636  0.00  0.00    +0.013 A 
ATOM     26  C14 UNL     1     153.552 154.885 167.975  0.00  0.00    +0.001 A 
ATOM     27  C15 UNL     1     152.735 153.756 167.911  0.00  0.00    +0.000 A 
ATOM     28  C16 UNL     1     151.408 153.877 167.499  0.00  0.00    +0.001 A 
ATOM     29  C17 UNL     1     150.895 155.129 167.159  0.00  0.00    +0.013 A 
ENDBRANCH  21  24
ENDBRANCH   1  20
TORSDOF 5
ENDMDL
