MODEL 1
REMARK VINA RESULT:    -3.633      0.000      0.000
REMARK INTER + INTRA:          -3.633
REMARK INTER:                  -3.633
REMARK INTRA:                   0.000
REMARK UNBOUND:                 0.000
REMARK  Name = /home/vital/Documents/PhD_2021/Malaria_codes/scripts/../data/pdbqt_ligands/ligand_372_temp.pdb
REMARK                            x       y       z     vdW  Elec       q    Type
REMARK                         _______ _______ _______ _____ _____    ______ ____
ROOT
ATOM      1  P   UNL     1      14.468  45.262  27.074  0.00  0.00    +0.148 P 
ATOM      2  O   UNL     1      16.015  44.686  26.755  0.00  0.00    -0.340 OA
ATOM      3  C   UNL     1      16.870  45.760  26.382  0.00  0.00    +0.071 C 
ATOM      4  C   UNL     1      18.293  45.344  26.357  0.00  0.00    -0.062 C 
ATOM      5  C   UNL     1      18.996  45.414  25.249  0.00  0.00    -0.085 C 
ATOM      6  C   UNL     1      20.441  44.998  25.174  0.00  0.00    -0.022 C 
ATOM      7  C   UNL     1      21.256  46.189  24.777  0.00  0.00    -0.001 C 
ATOM      8  N   UNL     1      22.654  46.069  24.661  0.00  0.00    -0.314 N 
ATOM      9  C   UNL     1      23.250  45.363  23.549  0.00  0.00    +0.019 C 
ATOM     10  C   UNL     1      24.757  45.578  23.658  0.00  0.00    +0.060 C 
ATOM     11  O   UNL     1      25.509  45.045  22.821  0.00  0.00    -0.377 OA
ATOM     12  C   UNL     1      26.255  44.517  21.983  0.00  0.00    +0.063 C 
ATOM     13  C   UNL     1      25.589  43.571  20.916  0.00  0.00    +0.034 C 
ATOM     14  N   UNL     1      24.724  44.300  20.020  0.00  0.00    -0.326 N 
ATOM     15  C   UNL     1      25.297  45.146  19.022  0.00  0.00    +0.132 A 
ATOM     16  N   UNL     1      26.629  45.347  19.045  0.00  0.00    -0.199 NA
ATOM     17  C   UNL     1      27.220  46.166  18.139  0.00  0.00    +0.222 A 
ATOM     18  N   UNL     1      28.573  46.493  18.173  0.00  0.00    -0.284 N 
ATOM     19  C   UNL     1      29.674  46.001  17.494  0.00  0.00    +0.035 A 
ATOM     20  C   UNL     1      29.756  44.886  16.712  0.00  0.00    -0.039 A 
ATOM     21  C   UNL     1      30.868  44.463  16.043  0.00  0.00    -0.040 A 
ATOM     22  C   UNL     1      32.010  45.196  16.145  0.00  0.00    +0.059 A 
ATOM     23 CL   UNL     1      33.527  44.781  15.344  0.00  0.00    -0.082 Cl
ATOM     24  C   UNL     1      32.000  46.336  16.924  0.00  0.00    +0.061 A 
ATOM     25 CL   UNL     1      33.448  47.290  17.061  0.00  0.00    -0.082 Cl
ATOM     26  C   UNL     1      30.887  46.737  17.584  0.00  0.00    -0.021 A 
ATOM     27  N   UNL     1      26.478  46.806  17.165  0.00  0.00    -0.214 NA
ATOM     28  C   UNL     1      25.121  46.571  17.167  0.00  0.00    +0.078 A 
ATOM     29  C   UNL     1      24.421  47.185  16.107  0.00  0.00    -0.036 A 
ATOM     30  C   UNL     1      23.071  46.923  16.039  0.00  0.00    -0.060 A 
ATOM     31  C   UNL     1      22.386  46.111  16.940  0.00  0.00    -0.061 A 
ATOM     32  C   UNL     1      23.104  45.522  17.973  0.00  0.00    -0.049 A 
ATOM     33  C   UNL     1      24.484  45.763  18.069  0.00  0.00    +0.040 A 
ATOM     34  H   UNL     1      13.650  44.209  27.435  0.00  0.00    +0.000 HD
ATOM     35  H   UNL     1      13.961  45.871  25.945  0.00  0.00    +0.000 HD
ATOM     36  H   UNL     1      14.521  46.177  28.107  0.00  0.00    +0.000 HD
ATOM     37  H   UNL     1      22.976  45.602  25.509  0.00  0.00    +0.000 HD
ATOM     38  H   UNL     1      22.949  47.033  24.500  0.00  0.00    +0.000 HD
ATOM     39  H   UNL     1      23.746  44.216  20.096  0.00  0.00    +0.000 HD
ATOM     40  H   UNL     1      28.789  47.218  18.804  0.00  0.00    +0.000 HD
ENDROOT
TORSDOF 0
ENDMDL
MODEL 2
REMARK VINA RESULT:    -3.252      7.057     10.243
REMARK INTER + INTRA:          -3.252
REMARK INTER:                  -3.252
REMARK INTRA:                   0.000
REMARK UNBOUND:                 0.000
REMARK  Name = /home/vital/Documents/PhD_2021/Malaria_codes/scripts/../data/pdbqt_ligands/ligand_372_temp.pdb
REMARK                            x       y       z     vdW  Elec       q    Type
REMARK                         _______ _______ _______ _____ _____    ______ ____
ROOT
ATOM      1  P   UNL     1      38.685  45.955  28.818  0.00  0.00    +0.148 P 
ATOM      2  O   UNL     1      37.113  46.373  28.386  0.00  0.00    -0.340 OA
ATOM      3  C   UNL     1      36.516  45.320  27.638  0.00  0.00    +0.071 C 
ATOM      4  C   UNL     1      35.057  45.527  27.473  0.00  0.00    -0.062 C 
ATOM      5  C   UNL     1      34.524  45.644  26.277  0.00  0.00    -0.085 C 
ATOM      6  C   UNL     1      33.050  45.859  26.060  0.00  0.00    -0.022 C 
ATOM      7  C   UNL     1      32.514  44.707  25.269  0.00  0.00    -0.001 C 
ATOM      8  N   UNL     1      31.144  44.657  24.952  0.00  0.00    -0.314 N 
ATOM      9  C   UNL     1      30.580  45.532  23.949  0.00  0.00    +0.019 C 
ATOM     10  C   UNL     1      29.133  45.089  23.752  0.00  0.00    +0.060 C 
ATOM     11  O   UNL     1      28.413  45.707  22.947  0.00  0.00    -0.377 OA
ATOM     12  C   UNL     1      27.699  46.321  22.140  0.00  0.00    +0.063 C 
ATOM     13  C   UNL     1      28.319  47.590  21.446  0.00  0.00    +0.034 C 
ATOM     14  N   UNL     1      29.406  47.240  20.564  0.00  0.00    -0.326 N 
ATOM     15  C   UNL     1      29.122  46.604  19.316  0.00  0.00    +0.132 A 
ATOM     16  N   UNL     1      27.855  46.220  19.070  0.00  0.00    -0.199 NA
ATOM     17  C   UNL     1      27.537  45.584  17.915  0.00  0.00    +0.222 A 
ATOM     18  N   UNL     1      26.270  45.074  17.646  0.00  0.00    -0.284 N 
ATOM     19  C   UNL     1      25.195  45.564  16.924  0.00  0.00    +0.035 A 
ATOM     20  C   UNL     1      25.019  46.818  16.417  0.00  0.00    -0.039 A 
ATOM     21  C   UNL     1      23.945  47.238  15.688  0.00  0.00    -0.040 A 
ATOM     22  C   UNL     1      22.946  46.352  15.426  0.00  0.00    +0.059 A 
ATOM     23 CL   UNL     1      21.495  46.741  14.500  0.00  0.00    -0.082 Cl
ATOM     24  C   UNL     1      23.057  45.065  15.913  0.00  0.00    +0.061 A 
ATOM     25 CL   UNL     1      21.793  43.915  15.583  0.00  0.00    -0.082 Cl
ATOM     26  C   UNL     1      24.129  44.668  16.639  0.00  0.00    -0.021 A 
ATOM     27  N   UNL     1      28.499  45.322  16.957  0.00  0.00    -0.214 NA
ATOM     28  C   UNL     1      29.782  45.734  17.240  0.00  0.00    +0.078 A 
ATOM     29  C   UNL     1      30.708  45.514  16.199  0.00  0.00    -0.036 A 
ATOM     30  C   UNL     1      31.989  45.969  16.420  0.00  0.00    -0.060 A 
ATOM     31  C   UNL     1      32.399  46.613  17.584  0.00  0.00    -0.061 A 
ATOM     32  C   UNL     1      31.464  46.814  18.590  0.00  0.00    -0.049 A 
ATOM     33  C   UNL     1      30.147  46.367  18.396  0.00  0.00    +0.040 A 
ATOM     34  H   UNL     1      39.252  46.985  29.542  0.00  0.00    +0.000 HD
ATOM     35  H   UNL     1      39.430  45.729  27.680  0.00  0.00    +0.000 HD
ATOM     36  H   UNL     1      38.661  44.810  29.588  0.00  0.00    +0.000 HD
ATOM     37  H   UNL     1      30.639  44.844  25.818  0.00  0.00    +0.000 HD
ATOM     38  H   UNL     1      31.046  43.734  24.527  0.00  0.00    +0.000 HD
ATOM     39  H   UNL     1      30.336  47.437  20.819  0.00  0.00    +0.000 HD
ATOM     40  H   UNL     1      26.106  44.190  18.048  0.00  0.00    +0.000 HD
ENDROOT
TORSDOF 0
ENDMDL
MODEL 3
REMARK VINA RESULT:    -3.039     10.362     11.905
REMARK INTER + INTRA:          -3.039
REMARK INTER:                  -3.039
REMARK INTRA:                   0.000
REMARK UNBOUND:                 0.000
REMARK  Name = /home/vital/Documents/PhD_2021/Malaria_codes/scripts/../data/pdbqt_ligands/ligand_372_temp.pdb
REMARK                            x       y       z     vdW  Elec       q    Type
REMARK                         _______ _______ _______ _____ _____    ______ ____
ROOT
ATOM      1  P   UNL     1      14.733  26.869  18.283  0.00  0.00    +0.148 P 
ATOM      2  O   UNL     1      15.998  27.975  18.205  0.00  0.00    -0.340 OA
ATOM      3  C   UNL     1      15.669  29.148  18.940  0.00  0.00    +0.071 C 
ATOM      4  C   UNL     1      16.848  30.027  19.126  0.00  0.00    -0.062 C 
ATOM      5  C   UNL     1      16.856  31.253  18.653  0.00  0.00    -0.085 C 
ATOM      6  C   UNL     1      18.032  32.180  18.813  0.00  0.00    -0.022 C 
ATOM      7  C   UNL     1      17.589  33.377  19.593  0.00  0.00    -0.001 C 
ATOM      8  N   UNL     1      18.516  34.390  19.902  0.00  0.00    -0.314 N 
ATOM      9  C   UNL     1      18.989  35.301  18.885  0.00  0.00    +0.019 C 
ATOM     10  C   UNL     1      19.834  36.351  19.602  0.00  0.00    +0.060 C 
ATOM     11  O   UNL     1      20.383  37.247  18.935  0.00  0.00    -0.377 OA
ATOM     12  C   UNL     1      20.924  38.142  18.270  0.00  0.00    +0.063 C 
ATOM     13  C   UNL     1      20.779  38.069  16.705  0.00  0.00    +0.034 C 
ATOM     14  N   UNL     1      19.413  38.271  16.285  0.00  0.00    -0.326 N 
ATOM     15  C   UNL     1      18.842  39.579  16.352  0.00  0.00    +0.132 A 
ATOM     16  N   UNL     1      19.556  40.556  16.942  0.00  0.00    -0.199 NA
ATOM     17  C   UNL     1      19.048  41.808  17.060  0.00  0.00    +0.222 A 
ATOM     18  N   UNL     1      19.691  42.833  17.749  0.00  0.00    -0.284 N 
ATOM     19  C   UNL     1      20.489  43.885  17.333  0.00  0.00    +0.035 A 
ATOM     20  C   UNL     1      21.034  44.097  16.100  0.00  0.00    -0.039 A 
ATOM     21  C   UNL     1      21.795  45.172  15.741  0.00  0.00    -0.040 A 
ATOM     22  C   UNL     1      22.050  46.132  16.670  0.00  0.00    +0.059 A 
ATOM     23 CL   UNL     1      23.014  47.577  16.361  0.00  0.00    -0.082 Cl
ATOM     24  C   UNL     1      21.532  45.980  17.941  0.00  0.00    +0.061 A 
ATOM     25 CL   UNL     1      21.841  47.201  19.142  0.00  0.00    -0.082 Cl
ATOM     26  C   UNL     1      20.783  44.904  18.280  0.00  0.00    -0.021 A 
ATOM     27  N   UNL     1      17.793  42.118  16.570  0.00  0.00    -0.214 NA
ATOM     28  C   UNL     1      17.095  41.096  15.965  0.00  0.00    +0.078 A 
ATOM     29  C   UNL     1      15.856  41.483  15.413  0.00  0.00    -0.036 A 
ATOM     30  C   UNL     1      15.157  40.502  14.746  0.00  0.00    -0.060 A 
ATOM     31  C   UNL     1      15.599  39.190  14.598  0.00  0.00    -0.061 A 
ATOM     32  C   UNL     1      16.823  38.841  15.154  0.00  0.00    -0.049 A 
ATOM     33  C   UNL     1      17.566  39.818  15.837  0.00  0.00    +0.040 A 
ATOM     34  H   UNL     1      15.067  25.737  17.566  0.00  0.00    +0.000 HD
ATOM     35  H   UNL     1      13.595  27.434  17.745  0.00  0.00    +0.000 HD
ATOM     36  H   UNL     1      14.500  26.528  19.600  0.00  0.00    +0.000 HD
ATOM     37  H   UNL     1      19.340  33.923  20.281  0.00  0.00    +0.000 HD
ATOM     38  H   UNL     1      17.982  35.001  20.522  0.00  0.00    +0.000 HD
ATOM     39  H   UNL     1      18.878  37.513  15.955  0.00  0.00    +0.000 HD
ATOM     40  H   UNL     1      19.551  42.804  18.723  0.00  0.00    +0.000 HD
ENDROOT
TORSDOF 0
ENDMDL
MODEL 4
REMARK VINA RESULT:    -2.904      8.760     11.397
REMARK INTER + INTRA:          -2.904
REMARK INTER:                  -2.904
REMARK INTRA:                   0.000
REMARK UNBOUND:                 0.000
REMARK  Name = /home/vital/Documents/PhD_2021/Malaria_codes/scripts/../data/pdbqt_ligands/ligand_372_temp.pdb
REMARK                            x       y       z     vdW  Elec       q    Type
REMARK                         _______ _______ _______ _____ _____    ______ ____
ROOT
ATOM      1  P   UNL     1      37.035  45.828  34.398  0.00  0.00    +0.148 P 
ATOM      2  O   UNL     1      36.397  46.551  33.020  0.00  0.00    -0.340 OA
ATOM      3  C   UNL     1      35.552  45.636  32.333  0.00  0.00    +0.071 C 
ATOM      4  C   UNL     1      34.762  46.310  31.274  0.00  0.00    -0.062 C 
ATOM      5  C   UNL     1      34.882  45.956  30.014  0.00  0.00    -0.085 C 
ATOM      6  C   UNL     1      34.105  46.614  28.906  0.00  0.00    -0.022 C 
ATOM      7  C   UNL     1      33.251  45.577  28.246  0.00  0.00    -0.001 C 
ATOM      8  N   UNL     1      32.402  45.945  27.186  0.00  0.00    -0.314 N 
ATOM      9  C   UNL     1      32.935  46.253  25.878  0.00  0.00    +0.019 C 
ATOM     10  C   UNL     1      31.735  46.440  24.953  0.00  0.00    +0.060 C 
ATOM     11  O   UNL     1      31.928  46.741  23.761  0.00  0.00    -0.377 OA
ATOM     12  C   UNL     1      32.123  47.034  22.573  0.00  0.00    +0.063 C 
ATOM     13  C   UNL     1      33.610  47.294  22.126  0.00  0.00    +0.034 C 
ATOM     14  N   UNL     1      34.407  46.093  22.195  0.00  0.00    -0.326 N 
ATOM     15  C   UNL     1      34.215  45.065  21.221  0.00  0.00    +0.132 A 
ATOM     16  N   UNL     1      33.193  45.191  20.354  0.00  0.00    -0.199 NA
ATOM     17  C   UNL     1      32.948  44.229  19.430  0.00  0.00    +0.222 A 
ATOM     18  N   UNL     1      31.848  44.251  18.576  0.00  0.00    -0.284 N 
ATOM     19  C   UNL     1      31.691  44.656  17.262  0.00  0.00    +0.035 A 
ATOM     20  C   UNL     1      32.569  45.347  16.479  0.00  0.00    -0.039 A 
ATOM     21  C   UNL     1      32.367  45.698  15.175  0.00  0.00    -0.040 A 
ATOM     22  C   UNL     1      31.199  45.341  14.576  0.00  0.00    +0.059 A 
ATOM     23 CL   UNL     1      30.790  45.720  12.902  0.00  0.00    -0.082 Cl
ATOM     24  C   UNL     1      30.262  44.643  15.312  0.00  0.00    +0.061 A 
ATOM     25 CL   UNL     1      28.764  44.172  14.561  0.00  0.00    -0.082 Cl
ATOM     26  C   UNL     1      30.478  44.308  16.605  0.00  0.00    -0.021 A 
ATOM     27  N   UNL     1      33.743  43.102  19.345  0.00  0.00    -0.214 NA
ATOM     28  C   UNL     1      34.784  43.010  20.243  0.00  0.00    +0.078 A 
ATOM     29  C   UNL     1      35.612  41.882  20.064  0.00  0.00    -0.036 A 
ATOM     30  C   UNL     1      36.699  41.788  20.902  0.00  0.00    -0.060 A 
ATOM     31  C   UNL     1      37.009  42.722  21.888  0.00  0.00    -0.061 A 
ATOM     32  C   UNL     1      36.174  43.821  22.039  0.00  0.00    -0.049 A 
ATOM     33  C   UNL     1      35.058  43.952  21.197  0.00  0.00    +0.040 A 
ATOM     34  H   UNL     1      37.852  46.726  35.054  0.00  0.00    +0.000 HD
ATOM     35  H   UNL     1      37.770  44.718  34.036  0.00  0.00    +0.000 HD
ATOM     36  H   UNL     1      36.006  45.446  35.235  0.00  0.00    +0.000 HD
ATOM     37  H   UNL     1      31.894  46.774  27.496  0.00  0.00    +0.000 HD
ATOM     38  H   UNL     1      31.870  45.091  27.017  0.00  0.00    +0.000 HD
ATOM     39  H   UNL     1      35.077  45.982  22.908  0.00  0.00    +0.000 HD
ATOM     40  H   UNL     1      31.021  43.912  18.987  0.00  0.00    +0.000 HD
ENDROOT
TORSDOF 0
ENDMDL
MODEL 5
REMARK VINA RESULT:    -2.858     12.311     14.442
REMARK INTER + INTRA:          -2.858
REMARK INTER:                  -2.858
REMARK INTRA:                   0.000
REMARK UNBOUND:                 0.000
REMARK  Name = /home/vital/Documents/PhD_2021/Malaria_codes/scripts/../data/pdbqt_ligands/ligand_372_temp.pdb
REMARK                            x       y       z     vdW  Elec       q    Type
REMARK                         _______ _______ _______ _____ _____    ______ ____
ROOT
ATOM      1  P   UNL     1      14.454  47.047  25.410  0.00  0.00    +0.148 P 
ATOM      2  O   UNL     1      14.061  45.463  25.003  0.00  0.00    -0.340 OA
ATOM      3  C   UNL     1      15.210  44.784  24.512  0.00  0.00    +0.071 C 
ATOM      4  C   UNL     1      14.977  43.324  24.401  0.00  0.00    -0.062 C 
ATOM      5  C   UNL     1      15.069  42.714  23.240  0.00  0.00    -0.085 C 
ATOM      6  C   UNL     1      14.836  41.235  23.077  0.00  0.00    -0.022 C 
ATOM      7  C   UNL     1      16.094  40.612  22.559  0.00  0.00    -0.001 C 
ATOM      8  N   UNL     1      16.146  39.223  22.344  0.00  0.00    -0.314 N 
ATOM      9  C   UNL     1      15.456  38.617  21.227  0.00  0.00    +0.019 C 
ATOM     10  C   UNL     1      15.866  37.147  21.210  0.00  0.00    +0.060 C 
ATOM     11  O   UNL     1      15.383  36.392  20.347  0.00  0.00    -0.377 OA
ATOM     12  C   UNL     1      14.905  35.642  19.483  0.00  0.00    +0.063 C 
ATOM     13  C   UNL     1      13.820  36.250  18.518  0.00  0.00    +0.034 C 
ATOM     14  N   UNL     1      14.378  37.263  17.655  0.00  0.00    -0.326 N 
ATOM     15  C   UNL     1      15.228  36.875  16.574  0.00  0.00    +0.132 A 
ATOM     16  N   UNL     1      15.597  35.583  16.486  0.00  0.00    -0.199 NA
ATOM     17  C   UNL     1      16.429  35.168  15.498  0.00  0.00    +0.222 A 
ATOM     18  N   UNL     1      16.927  33.870  15.412  0.00  0.00    -0.284 N 
ATOM     19  C   UNL     1      16.538  32.763  14.677  0.00  0.00    +0.035 A 
ATOM     20  C   UNL     1      15.398  32.590  13.948  0.00  0.00    -0.039 A 
ATOM     21  C   UNL     1      15.080  31.480  13.220  0.00  0.00    -0.040 A 
ATOM     22  C   UNL     1      15.956  30.440  13.198  0.00  0.00    +0.059 A 
ATOM     23 CL   UNL     1      15.690  28.941  12.306  0.00  0.00    -0.082 Cl
ATOM     24  C   UNL     1      17.130  30.546  13.916  0.00  0.00    +0.061 A 
ATOM     25 CL   UNL     1      18.268  29.229  13.894  0.00  0.00    -0.082 Cl
ATOM     26  C   UNL     1      17.426  31.653  14.637  0.00  0.00    -0.021 A 
ATOM     27  N   UNL     1      16.910  36.052  14.551  0.00  0.00    -0.214 NA
ATOM     28  C   UNL     1      16.506  37.364  14.668  0.00  0.00    +0.078 A 
ATOM     29  C   UNL     1      16.961  38.209  13.635  0.00  0.00    -0.036 A 
ATOM     30  C   UNL     1      16.526  39.515  13.683  0.00  0.00    -0.060 A 
ATOM     31  C   UNL     1      15.690  40.023  14.673  0.00  0.00    -0.061 A 
ATOM     32  C   UNL     1      15.260  39.166  15.677  0.00  0.00    -0.049 A 
ATOM     33  C   UNL     1      15.679  37.826  15.656  0.00  0.00    +0.040 A 
ATOM     34  H   UNL     1      13.329  47.693  25.884  0.00  0.00    +0.000 HD
ATOM     35  H   UNL     1      14.925  47.706  24.293  0.00  0.00    +0.000 HD
ATOM     36  H   UNL     1      15.429  47.043  26.387  0.00  0.00    +0.000 HD
ATOM     37  H   UNL     1      15.776  38.784  23.187  0.00  0.00    +0.000 HD
ATOM     38  H   UNL     1      17.128  39.068  22.112  0.00  0.00    +0.000 HD
ATOM     39  H   UNL     1      14.175  38.214  17.809  0.00  0.00    +0.000 HD
ATOM     40  H   UNL     1      17.709  33.708  15.987  0.00  0.00    +0.000 HD
ENDROOT
TORSDOF 0
ENDMDL
MODEL 6
REMARK VINA RESULT:    -2.850     21.583     23.172
REMARK INTER + INTRA:          -2.850
REMARK INTER:                  -2.850
REMARK INTRA:                   0.000
REMARK UNBOUND:                 0.000
REMARK  Name = /home/vital/Documents/PhD_2021/Malaria_codes/scripts/../data/pdbqt_ligands/ligand_372_temp.pdb
REMARK                            x       y       z     vdW  Elec       q    Type
REMARK                         _______ _______ _______ _____ _____    ______ ____
ROOT
ATOM      1  P   UNL     1      26.706  24.121  33.290  0.00  0.00    +0.148 P 
ATOM      2  O   UNL     1      26.214  23.477  31.816  0.00  0.00    -0.340 OA
ATOM      3  C   UNL     1      26.078  24.512  30.851  0.00  0.00    +0.071 C 
ATOM      4  C   UNL     1      25.913  23.966  29.482  0.00  0.00    -0.062 C 
ATOM      5  C   UNL     1      24.832  24.222  28.780  0.00  0.00    -0.085 C 
ATOM      6  C   UNL     1      24.618  23.685  27.390  0.00  0.00    -0.022 C 
ATOM      7  C   UNL     1      24.487  24.843  26.451  0.00  0.00    -0.001 C 
ATOM      8  N   UNL     1      24.304  24.608  25.076  0.00  0.00    -0.314 N 
ATOM      9  C   UNL     1      23.040  24.126  24.565  0.00  0.00    +0.019 C 
ATOM     10  C   UNL     1      23.150  24.149  23.043  0.00  0.00    +0.060 C 
ATOM     11  O   UNL     1      22.189  23.752  22.359  0.00  0.00    -0.377 OA
ATOM     12  C   UNL     1      21.229  23.363  21.679  0.00  0.00    +0.063 C 
ATOM     13  C   UNL     1      19.989  22.772  22.449  0.00  0.00    +0.034 C 
ATOM     14  N   UNL     1      19.317  23.780  23.232  0.00  0.00    -0.326 N 
ATOM     15  C   UNL     1      18.528  24.773  22.574  0.00  0.00    +0.132 A 
ATOM     16  N   UNL     1      18.557  24.821  21.228  0.00  0.00    -0.199 NA
ATOM     17  C   UNL     1      17.852  25.764  20.555  0.00  0.00    +0.222 A 
ATOM     18  N   UNL     1      17.922  25.929  19.174  0.00  0.00    -0.284 N 
ATOM     19  C   UNL     1      17.112  25.498  18.137  0.00  0.00    +0.035 A 
ATOM     20  C   UNL     1      16.088  24.598  18.181  0.00  0.00    -0.039 A 
ATOM     21  C   UNL     1      15.306  24.230  17.125  0.00  0.00    -0.040 A 
ATOM     22  C   UNL     1      15.543  24.793  15.909  0.00  0.00    +0.059 A 
ATOM     23 CL   UNL     1      14.621  24.423  14.451  0.00  0.00    -0.082 Cl
ATOM     24  C   UNL     1      16.567  25.711  15.791  0.00  0.00    +0.061 A 
ATOM     25 CL   UNL     1      16.881  26.447  14.245  0.00  0.00    -0.082 Cl
ATOM     26  C   UNL     1      17.336  26.060  16.849  0.00  0.00    -0.021 A 
ATOM     27  N   UNL     1      17.079  26.691  21.227  0.00  0.00    -0.214 NA
ATOM     28  C   UNL     1      17.067  26.608  22.601  0.00  0.00    +0.078 A 
ATOM     29  C   UNL     1      16.202  27.525  23.234  0.00  0.00    -0.036 A 
ATOM     30  C   UNL     1      16.116  27.431  24.605  0.00  0.00    -0.060 A 
ATOM     31  C   UNL     1      16.821  26.506  25.370  0.00  0.00    -0.061 A 
ATOM     32  C   UNL     1      17.664  25.617  24.718  0.00  0.00    -0.049 A 
ATOM     33  C   UNL     1      17.772  25.681  23.319  0.00  0.00    +0.040 A 
ATOM     34  H   UNL     1      26.834  23.105  34.217  0.00  0.00    +0.000 HD
ATOM     35  H   UNL     1      25.768  25.030  33.732  0.00  0.00    +0.000 HD
ATOM     36  H   UNL     1      27.923  24.754  33.132  0.00  0.00    +0.000 HD
ATOM     37  H   UNL     1      25.008  23.922  24.802  0.00  0.00    +0.000 HD
ATOM     38  H   UNL     1      24.365  25.545  24.677  0.00  0.00    +0.000 HD
ATOM     39  H   UNL     1      19.400  23.784  24.214  0.00  0.00    +0.000 HD
ATOM     40  H   UNL     1      18.698  26.456  18.877  0.00  0.00    +0.000 HD
ENDROOT
TORSDOF 0
ENDMDL
MODEL 7
REMARK VINA RESULT:    -2.806      6.550      9.490
REMARK INTER + INTRA:          -2.806
REMARK INTER:                  -2.806
REMARK INTRA:                   0.000
REMARK UNBOUND:                 0.000
REMARK  Name = /home/vital/Documents/PhD_2021/Malaria_codes/scripts/../data/pdbqt_ligands/ligand_372_temp.pdb
REMARK                            x       y       z     vdW  Elec       q    Type
REMARK                         _______ _______ _______ _____ _____    ______ ____
ROOT
ATOM      1  P   UNL     1      19.931  47.469  18.185  0.00  0.00    +0.148 P 
ATOM      2  O   UNL     1      20.708  46.068  17.671  0.00  0.00    -0.340 OA
ATOM      3  C   UNL     1      21.862  45.828  18.467  0.00  0.00    +0.071 C 
ATOM      4  C   UNL     1      22.418  44.474  18.230  0.00  0.00    -0.062 C 
ATOM      5  C   UNL     1      23.642  44.317  17.776  0.00  0.00    -0.085 C 
ATOM      6  C   UNL     1      24.246  42.964  17.516  0.00  0.00    -0.022 C 
ATOM      7  C   UNL     1      25.447  42.804  18.395  0.00  0.00    -0.001 C 
ATOM      8  N   UNL     1      26.183  41.605  18.360  0.00  0.00    -0.314 N 
ATOM      9  C   UNL     1      27.035  41.288  17.236  0.00  0.00    +0.019 C 
ATOM     10  C   UNL     1      27.792  40.017  17.612  0.00  0.00    +0.060 C 
ATOM     11  O   UNL     1      28.584  39.516  16.792  0.00  0.00    -0.377 OA
ATOM     12  C   UNL     1      29.376  39.023  15.976  0.00  0.00    +0.063 C 
ATOM     13  C   UNL     1      29.467  39.698  14.557  0.00  0.00    +0.034 C 
ATOM     14  N   UNL     1      30.020  41.029  14.633  0.00  0.00    -0.326 N 
ATOM     15  C   UNL     1      31.416  41.197  14.884  0.00  0.00    +0.132 A 
ATOM     16  N   UNL     1      32.145  40.105  15.187  0.00  0.00    -0.199 NA
ATOM     17  C   UNL     1      33.468  40.214  15.466  0.00  0.00    +0.222 A 
ATOM     18  N   UNL     1      34.252  39.141  15.885  0.00  0.00    -0.284 N 
ATOM     19  C   UNL     1      35.115  38.292  15.213  0.00  0.00    +0.035 A 
ATOM     20  C   UNL     1      35.291  38.157  13.867  0.00  0.00    -0.039 A 
ATOM     21  C   UNL     1      36.180  37.317  13.261  0.00  0.00    -0.040 A 
ATOM     22  C   UNL     1      36.973  36.533  14.040  0.00  0.00    +0.059 A 
ATOM     23 CL   UNL     1      38.168  35.399  13.410  0.00  0.00    -0.082 Cl
ATOM     24  C   UNL     1      36.846  36.616  15.413  0.00  0.00    +0.061 A 
ATOM     25 CL   UNL     1      37.857  35.627  16.427  0.00  0.00    -0.082 Cl
ATOM     26  C   UNL     1      35.955  37.453  15.995  0.00  0.00    -0.021 A 
ATOM     27  N   UNL     1      34.106  41.440  15.435  0.00  0.00    -0.214 NA
ATOM     28  C   UNL     1      33.331  42.532  15.114  0.00  0.00    +0.078 A 
ATOM     29  C   UNL     1      34.044  43.745  15.020  0.00  0.00    -0.036 A 
ATOM     30  C   UNL     1      33.315  44.850  14.641  0.00  0.00    -0.060 A 
ATOM     31  C   UNL     1      31.952  44.827  14.357  0.00  0.00    -0.061 A 
ATOM     32  C   UNL     1      31.279  43.616  14.459  0.00  0.00    -0.049 A 
ATOM     33  C   UNL     1      31.993  42.468  14.839  0.00  0.00    +0.040 A 
ATOM     34  H   UNL     1      18.814  47.689  17.404  0.00  0.00    +0.000 HD
ATOM     35  H   UNL     1      20.792  48.541  18.069  0.00  0.00    +0.000 HD
ATOM     36  H   UNL     1      19.549  47.325  19.504  0.00  0.00    +0.000 HD
ATOM     37  H   UNL     1      25.504  40.847  18.433  0.00  0.00    +0.000 HD
ATOM     38  H   UNL     1      26.850  41.729  19.121  0.00  0.00    +0.000 HD
ATOM     39  H   UNL     1      29.440  41.815  14.511  0.00  0.00    +0.000 HD
ATOM     40  H   UNL     1      34.178  38.950  16.847  0.00  0.00    +0.000 HD
ENDROOT
TORSDOF 0
ENDMDL
MODEL 8
REMARK VINA RESULT:    -2.652      6.153      8.473
REMARK INTER + INTRA:          -2.652
REMARK INTER:                  -2.652
REMARK INTRA:                   0.000
REMARK UNBOUND:                 0.000
REMARK  Name = /home/vital/Documents/PhD_2021/Malaria_codes/scripts/../data/pdbqt_ligands/ligand_372_temp.pdb
REMARK                            x       y       z     vdW  Elec       q    Type
REMARK                         _______ _______ _______ _____ _____    ______ ____
ROOT
ATOM      1  P   UNL     1      17.385  44.404  36.702  0.00  0.00    +0.148 P 
ATOM      2  O   UNL     1      18.098  43.810  35.299  0.00  0.00    -0.340 OA
ATOM      3  C   UNL     1      18.567  44.885  34.495  0.00  0.00    +0.071 C 
ATOM      4  C   UNL     1      19.436  44.406  33.393  0.00  0.00    -0.062 C 
ATOM      5  C   UNL     1      19.112  44.620  32.137  0.00  0.00    -0.085 C 
ATOM      6  C   UNL     1      19.960  44.149  30.986  0.00  0.00    -0.022 C 
ATOM      7  C   UNL     1      20.403  45.344  30.203  0.00  0.00    -0.001 C 
ATOM      8  N   UNL     1      21.234  45.174  29.081  0.00  0.00    -0.314 N 
ATOM      9  C   UNL     1      20.715  44.630  27.846  0.00  0.00    +0.019 C 
ATOM     10  C   UNL     1      21.836  44.747  26.816  0.00  0.00    +0.060 C 
ATOM     11  O   UNL     1      21.647  44.320  25.662  0.00  0.00    -0.377 OA
ATOM     12  C   UNL     1      21.455  43.900  24.512  0.00  0.00    +0.063 C 
ATOM     13  C   UNL     1      20.087  43.178  24.225  0.00  0.00    +0.034 C 
ATOM     14  N   UNL     1      18.971  44.088  24.322  0.00  0.00    -0.326 N 
ATOM     15  C   UNL     1      18.762  45.056  23.292  0.00  0.00    +0.132 A 
ATOM     16  N   UNL     1      19.700  45.181  22.334  0.00  0.00    -0.199 NA
ATOM     17  C   UNL     1      19.566  46.106  21.351  0.00  0.00    +0.222 A 
ATOM     18  N   UNL     1      20.547  46.354  20.395  0.00  0.00    -0.284 N 
ATOM     19  C   UNL     1      20.713  45.924  19.089  0.00  0.00    +0.035 A 
ATOM     20  C   UNL     1      20.026  44.950  18.426  0.00  0.00    -0.039 A 
ATOM     21  C   UNL     1      20.218  44.586  17.125  0.00  0.00    -0.040 A 
ATOM     22  C   UNL     1      21.171  45.232  16.399  0.00  0.00    +0.059 A 
ATOM     23 CL   UNL     1      21.538  44.877  14.710  0.00  0.00    -0.082 Cl
ATOM     24  C   UNL     1      21.908  46.227  17.009  0.00  0.00    +0.061 A 
ATOM     25 CL   UNL     1      23.126  47.070  16.096  0.00  0.00    -0.082 Cl
ATOM     26  C   UNL     1      21.706  46.571  18.303  0.00  0.00    -0.021 A 
ATOM     27  N   UNL     1      18.462  46.935  21.298  0.00  0.00    -0.214 NA
ATOM     28  C   UNL     1      17.519  46.774  22.289  0.00  0.00    +0.078 A 
ATOM     29  C   UNL     1      16.376  47.589  22.145  0.00  0.00    -0.036 A 
ATOM     30  C   UNL     1      15.383  47.412  23.082  0.00  0.00    -0.060 A 
ATOM     31  C   UNL     1      15.452  46.500  24.131  0.00  0.00    -0.061 A 
ATOM     32  C   UNL     1      16.591  45.713  24.246  0.00  0.00    -0.049 A 
ATOM     33  C   UNL     1      17.622  45.863  23.304  0.00  0.00    +0.040 A 
ATOM     34  H   UNL     1      16.935  43.350  37.472  0.00  0.00    +0.000 HD
ATOM     35  H   UNL     1      16.321  45.216  36.368  0.00  0.00    +0.000 HD
ATOM     36  H   UNL     1      18.314  45.133  37.417  0.00  0.00    +0.000 HD
ATOM     37  H   UNL     1      21.993  44.558  29.373  0.00  0.00    +0.000 HD
ATOM     38  H   UNL     1      21.466  46.134  28.825  0.00  0.00    +0.000 HD
ATOM     39  H   UNL     1      18.359  44.043  25.091  0.00  0.00    +0.000 HD
ATOM     40  H   UNL     1      21.263  46.952  20.708  0.00  0.00    +0.000 HD
ENDROOT
TORSDOF 0
ENDMDL
MODEL 9
REMARK VINA RESULT:    -2.638     10.722     12.535
REMARK INTER + INTRA:          -2.638
REMARK INTER:                  -2.638
REMARK INTRA:                   0.000
REMARK UNBOUND:                 0.000
REMARK  Name = /home/vital/Documents/PhD_2021/Malaria_codes/scripts/../data/pdbqt_ligands/ligand_372_temp.pdb
REMARK                            x       y       z     vdW  Elec       q    Type
REMARK                         _______ _______ _______ _____ _____    ______ ____
ROOT
ATOM      1  P   UNL     1      15.760  26.688  14.293  0.00  0.00    +0.148 P 
ATOM      2  O   UNL     1      16.974  27.849  14.200  0.00  0.00    -0.340 OA
ATOM      3  C   UNL     1      16.876  28.748  15.297  0.00  0.00    +0.071 C 
ATOM      4  C   UNL     1      18.076  29.613  15.403  0.00  0.00    -0.062 C 
ATOM      5  C   UNL     1      17.975  30.920  15.315  0.00  0.00    -0.085 C 
ATOM      6  C   UNL     1      19.165  31.838  15.412  0.00  0.00    -0.022 C 
ATOM      7  C   UNL     1      18.971  32.741  16.589  0.00  0.00    -0.001 C 
ATOM      8  N   UNL     1      19.964  33.684  16.915  0.00  0.00    -0.314 N 
ATOM      9  C   UNL     1      20.156  34.869  16.110  0.00  0.00    +0.019 C 
ATOM     10  C   UNL     1      21.182  35.729  16.843  0.00  0.00    +0.060 C 
ATOM     11  O   UNL     1      21.543  36.808  16.338  0.00  0.00    -0.377 OA
ATOM     12  C   UNL     1      21.897  37.884  15.836  0.00  0.00    +0.063 C 
ATOM     13  C   UNL     1      21.328  38.240  14.412  0.00  0.00    +0.034 C 
ATOM     14  N   UNL     1      19.903  38.465  14.447  0.00  0.00    -0.326 N 
ATOM     15  C   UNL     1      19.394  39.665  15.031  0.00  0.00    +0.132 A 
ATOM     16  N   UNL     1      20.258  40.482  15.663  0.00  0.00    -0.199 NA
ATOM     17  C   UNL     1      19.822  41.618  16.263  0.00  0.00    +0.222 A 
ATOM     18  N   UNL     1      20.646  42.449  17.017  0.00  0.00    -0.284 N 
ATOM     19  C   UNL     1      21.317  43.623  16.720  0.00  0.00    +0.035 A 
ATOM     20  C   UNL     1      21.508  44.203  15.500  0.00  0.00    -0.039 A 
ATOM     21  C   UNL     1      22.159  45.380  15.271  0.00  0.00    -0.040 A 
ATOM     22  C   UNL     1      22.674  46.059  16.332  0.00  0.00    +0.059 A 
ATOM     23 CL   UNL     1      23.541  47.590  16.201  0.00  0.00    -0.082 Cl
ATOM     24  C   UNL     1      22.521  45.527  17.597  0.00  0.00    +0.061 A 
ATOM     25 CL   UNL     1      23.166  46.384  18.968  0.00  0.00    -0.082 Cl
ATOM     26  C   UNL     1      21.875  44.355  17.804  0.00  0.00    -0.021 A 
ATOM     27  N   UNL     1      18.486  41.973  16.233  0.00  0.00    -0.214 NA
ATOM     28  C   UNL     1      17.633  41.118  15.572  0.00  0.00    +0.078 A 
ATOM     29  C   UNL     1      16.297  41.564  15.503  0.00  0.00    -0.036 A 
ATOM     30  C   UNL     1      15.426  40.766  14.796  0.00  0.00    -0.060 A 
ATOM     31  C   UNL     1      15.790  39.577  14.170  0.00  0.00    -0.061 A 
ATOM     32  C   UNL     1      17.113  39.164  14.256  0.00  0.00    -0.049 A 
ATOM     33  C   UNL     1      18.030  39.957  14.965  0.00  0.00    +0.040 A 
ATOM     34  H   UNL     1      15.866  25.823  13.223  0.00  0.00    +0.000 HD
ATOM     35  H   UNL     1      14.527  27.308  14.262  0.00  0.00    +0.000 HD
ATOM     36  H   UNL     1      15.890  25.981  15.472  0.00  0.00    +0.000 HD
ATOM     37  H   UNL     1      20.853  33.182  16.910  0.00  0.00    +0.000 HD
ATOM     38  H   UNL     1      19.630  34.064  17.800  0.00  0.00    +0.000 HD
ATOM     39  H   UNL     1      19.286  37.796  14.070  0.00  0.00    +0.000 HD
ATOM     40  H   UNL     1      20.777  42.142  17.943  0.00  0.00    +0.000 HD
ENDROOT
TORSDOF 0
ENDMDL
