MODEL 1
REMARK VINA RESULT:    -3.476      0.000      0.000
REMARK INTER + INTRA:          -3.476
REMARK INTER:                  -3.476
REMARK INTRA:                   0.000
REMARK UNBOUND:                 0.000
REMARK  Name = /home/vital/Documents/PhD_2021/Malaria_codes/scripts/../data/pdbqt_ligands/ligand_127_temp.pdb
REMARK                            x       y       z     vdW  Elec       q    Type
REMARK                         _______ _______ _______ _____ _____    ______ ____
ROOT
ATOM      1  C   UNL     1      16.657  30.960  15.354  0.00  0.00    -0.047 C 
ATOM      2  C   UNL     1      15.446  31.002  14.479  0.00  0.00    -0.090 C 
ATOM      3  C   UNL     1      14.638  29.981  14.144  0.00  0.00    -0.074 C 
ATOM      4  C   UNL     1      14.730  28.551  14.592  0.00  0.00    +0.015 C 
ATOM      5  N   UNL     1      15.084  27.731  13.442  0.00  0.00    -0.300 N 
ATOM      6  C   UNL     1      15.524  26.373  13.750  0.00  0.00    +0.086 C 
ATOM      7  C   UNL     1      14.528  25.429  14.531  0.00  0.00    -0.045 C 
ATOM      8  C   UNL     1      14.234  25.588  15.874  0.00  0.00    -0.058 C 
ATOM      9  C   UNL     1      15.525  24.770  16.122  0.00  0.00    +0.075 C 
ATOM     10  C   UNL     1      14.976  23.972  14.899  0.00  0.00    -0.004 C 
ATOM     11  N   UNL     1      16.755  25.562  15.820  0.00  0.00    -0.264 N 
ATOM     12  C   UNL     1      16.776  26.313  14.740  0.00  0.00    +0.116 C 
ATOM     13  N   UNL     1      17.854  27.097  14.358  0.00  0.00    -0.302 N 
ATOM     14  C   UNL     1      19.101  27.296  14.979  0.00  0.00    +0.034 A 
ATOM     15  C   UNL     1      19.563  26.556  16.070  0.00  0.00    -0.039 A 
ATOM     16  C   UNL     1      20.825  26.794  16.624  0.00  0.00    -0.040 A 
ATOM     17  C   UNL     1      21.640  27.796  16.102  0.00  0.00    +0.062 A 
ATOM     18 CL   UNL     1      23.197  28.049  16.807  0.00  0.00    -0.082 Cl
ATOM     19  C   UNL     1      21.190  28.602  15.046  0.00  0.00    +0.045 A 
ATOM     20  N   UNL     1      22.028  29.541  14.416  0.00  0.00    -0.357 N 
ATOM     21  C   UNL     1      19.942  28.308  14.473  0.00  0.00    -0.018 A 
ATOM     22  H   UNL     1      15.838  28.200  12.942  0.00  0.00    +0.000 HD
ATOM     23  H   UNL     1      14.228  27.630  12.896  0.00  0.00    +0.000 HD
ATOM     24  H   UNL     1      17.536  25.522  16.419  0.00  0.00    +0.000 HD
ATOM     25  H   UNL     1      17.726  27.595  13.518  0.00  0.00    +0.000 HD
ATOM     26  H   UNL     1      22.906  29.757  14.806  0.00  0.00    +0.000 HD
ATOM     27  H   UNL     1      21.737  29.981  13.585  0.00  0.00    +0.000 HD
ENDROOT
TORSDOF 0
ENDMDL
MODEL 2
REMARK VINA RESULT:    -3.393      3.855      4.901
REMARK INTER + INTRA:          -3.393
REMARK INTER:                  -3.393
REMARK INTRA:                   0.000
REMARK UNBOUND:                 0.000
REMARK  Name = /home/vital/Documents/PhD_2021/Malaria_codes/scripts/../data/pdbqt_ligands/ligand_127_temp.pdb
REMARK                            x       y       z     vdW  Elec       q    Type
REMARK                         _______ _______ _______ _____ _____    ______ ____
ROOT
ATOM      1  C   UNL     1      14.716  31.023  14.157  0.00  0.00    -0.047 C 
ATOM      2  C   UNL     1      15.444  30.481  12.969  0.00  0.00    -0.090 C 
ATOM      3  C   UNL     1      15.766  29.201  12.717  0.00  0.00    -0.074 C 
ATOM      4  C   UNL     1      15.447  27.991  13.547  0.00  0.00    +0.015 C 
ATOM      5  N   UNL     1      16.691  27.465  14.091  0.00  0.00    -0.300 N 
ATOM      6  C   UNL     1      16.544  26.492  15.169  0.00  0.00    +0.086 C 
ATOM      7  C   UNL     1      15.734  25.169  14.868  0.00  0.00    -0.045 C 
ATOM      8  C   UNL     1      14.358  25.144  14.721  0.00  0.00    -0.058 C 
ATOM      9  C   UNL     1      14.322  25.057  16.267  0.00  0.00    +0.075 C 
ATOM     10  C   UNL     1      15.535  24.111  16.009  0.00  0.00    -0.004 C 
ATOM     11  N   UNL     1      14.696  26.353  16.908  0.00  0.00    -0.264 N 
ATOM     12  C   UNL     1      15.708  27.036  16.416  0.00  0.00    +0.116 C 
ATOM     13  N   UNL     1      16.145  28.252  16.919  0.00  0.00    -0.302 N 
ATOM     14  C   UNL     1      15.654  29.025  17.988  0.00  0.00    +0.034 A 
ATOM     15  C   UNL     1      14.684  28.588  18.893  0.00  0.00    -0.039 A 
ATOM     16  C   UNL     1      14.258  29.404  19.947  0.00  0.00    -0.040 A 
ATOM     17  C   UNL     1      14.786  30.684  20.097  0.00  0.00    +0.062 A 
ATOM     18 CL   UNL     1      14.242  31.655  21.419  0.00  0.00    -0.082 Cl
ATOM     19  C   UNL     1      15.717  31.183  19.175  0.00  0.00    +0.045 A 
ATOM     20  N   UNL     1      16.361  32.422  19.362  0.00  0.00    -0.357 N 
ATOM     21  C   UNL     1      16.168  30.326  18.159  0.00  0.00    -0.018 A 
ATOM     22  H   UNL     1      17.234  28.251  14.449  0.00  0.00    +0.000 HD
ATOM     23  H   UNL     1      17.144  26.968  13.324  0.00  0.00    +0.000 HD
ATOM     24  H   UNL     1      14.194  26.691  17.685  0.00  0.00    +0.000 HD
ATOM     25  H   UNL     1      16.923  28.636  16.454  0.00  0.00    +0.000 HD
ATOM     26  H   UNL     1      16.056  33.033  20.071  0.00  0.00    +0.000 HD
ATOM     27  H   UNL     1      17.116  32.676  18.784  0.00  0.00    +0.000 HD
ENDROOT
TORSDOF 0
ENDMDL
MODEL 3
REMARK VINA RESULT:    -3.156      2.169      4.181
REMARK INTER + INTRA:          -3.156
REMARK INTER:                  -3.156
REMARK INTRA:                   0.000
REMARK UNBOUND:                 0.000
REMARK  Name = /home/vital/Documents/PhD_2021/Malaria_codes/scripts/../data/pdbqt_ligands/ligand_127_temp.pdb
REMARK                            x       y       z     vdW  Elec       q    Type
REMARK                         _______ _______ _______ _____ _____    ______ ____
ROOT
ATOM      1  C   UNL     1      19.590  23.265  17.569  0.00  0.00    -0.047 C 
ATOM      2  C   UNL     1      18.496  22.933  18.532  0.00  0.00    -0.090 C 
ATOM      3  C   UNL     1      17.183  23.190  18.404  0.00  0.00    -0.074 C 
ATOM      4  C   UNL     1      16.482  23.844  17.249  0.00  0.00    +0.015 C 
ATOM      5  N   UNL     1      15.980  25.138  17.688  0.00  0.00    -0.300 N 
ATOM      6  C   UNL     1      15.554  26.042  16.624  0.00  0.00    +0.086 C 
ATOM      7  C   UNL     1      14.405  25.557  15.654  0.00  0.00    -0.045 C 
ATOM      8  C   UNL     1      14.594  24.584  14.688  0.00  0.00    -0.058 C 
ATOM      9  C   UNL     1      15.127  25.741  13.809  0.00  0.00    +0.075 C 
ATOM     10  C   UNL     1      13.939  26.491  14.484  0.00  0.00    -0.004 C 
ATOM     11  N   UNL     1      16.471  26.212  14.259  0.00  0.00    -0.264 N 
ATOM     12  C   UNL     1      16.695  26.350  15.549  0.00  0.00    +0.116 C 
ATOM     13  N   UNL     1      17.900  26.772  16.089  0.00  0.00    -0.302 N 
ATOM     14  C   UNL     1      19.109  27.119  15.458  0.00  0.00    +0.034 A 
ATOM     15  C   UNL     1      19.260  27.273  14.078  0.00  0.00    -0.039 A 
ATOM     16  C   UNL     1      20.488  27.641  13.521  0.00  0.00    -0.040 A 
ATOM     17  C   UNL     1      21.595  27.844  14.341  0.00  0.00    +0.062 A 
ATOM     18 CL   UNL     1      23.093  28.311  13.614  0.00  0.00    -0.082 Cl
ATOM     19  C   UNL     1      21.502  27.642  15.726  0.00  0.00    +0.045 A 
ATOM     20  N   UNL     1      22.563  27.952  16.598  0.00  0.00    -0.357 N 
ATOM     21  C   UNL     1      20.246  27.325  16.266  0.00  0.00    -0.018 A 
ATOM     22  H   UNL     1      16.720  25.600  18.216  0.00  0.00    +0.000 HD
ATOM     23  H   UNL     1      15.144  24.942  18.239  0.00  0.00    +0.000 HD
ATOM     24  H   UNL     1      17.177  26.416  13.603  0.00  0.00    +0.000 HD
ATOM     25  H   UNL     1      17.912  26.840  17.072  0.00  0.00    +0.000 HD
ATOM     26  H   UNL     1      23.450  28.177  16.234  0.00  0.00    +0.000 HD
ATOM     27  H   UNL     1      22.418  27.945  17.572  0.00  0.00    +0.000 HD
ENDROOT
TORSDOF 0
ENDMDL
MODEL 4
REMARK VINA RESULT:    -2.937      2.075      2.153
REMARK INTER + INTRA:          -2.937
REMARK INTER:                  -2.937
REMARK INTRA:                   0.000
REMARK UNBOUND:                 0.000
REMARK  Name = /home/vital/Documents/PhD_2021/Malaria_codes/scripts/../data/pdbqt_ligands/ligand_127_temp.pdb
REMARK                            x       y       z     vdW  Elec       q    Type
REMARK                         _______ _______ _______ _____ _____    ______ ____
ROOT
ATOM      1  C   UNL     1      15.863  31.481  15.936  0.00  0.00    -0.047 C 
ATOM      2  C   UNL     1      15.291  31.522  14.555  0.00  0.00    -0.090 C 
ATOM      3  C   UNL     1      14.811  30.495  13.833  0.00  0.00    -0.074 C 
ATOM      4  C   UNL     1      14.696  29.056  14.245  0.00  0.00    +0.015 C 
ATOM      5  N   UNL     1      15.626  28.273  13.444  0.00  0.00    -0.300 N 
ATOM      6  C   UNL     1      15.880  26.916  13.920  0.00  0.00    +0.086 C 
ATOM      7  C   UNL     1      14.650  25.933  14.050  0.00  0.00    -0.045 C 
ATOM      8  C   UNL     1      13.691  26.051  15.039  0.00  0.00    -0.058 C 
ATOM      9  C   UNL     1      14.683  25.252  15.919  0.00  0.00    +0.075 C 
ATOM     10  C   UNL     1      14.882  24.476  14.581  0.00  0.00    -0.004 C 
ATOM     11  N   UNL     1      15.864  26.075  16.319  0.00  0.00    -0.264 N 
ATOM     12  C   UNL     1      16.426  26.855  15.420  0.00  0.00    +0.116 C 
ATOM     13  N   UNL     1      17.520  27.669  15.671  0.00  0.00    -0.302 N 
ATOM     14  C   UNL     1      18.249  27.876  16.857  0.00  0.00    +0.034 A 
ATOM     15  C   UNL     1      18.091  27.116  18.019  0.00  0.00    -0.039 A 
ATOM     16  C   UNL     1      18.866  27.364  19.157  0.00  0.00    -0.040 A 
ATOM     17  C   UNL     1      19.803  28.394  19.153  0.00  0.00    +0.062 A 
ATOM     18 CL   UNL     1      20.749  28.660  20.575  0.00  0.00    -0.082 Cl
ATOM     19  C   UNL     1      19.951  29.219  18.028  0.00  0.00    +0.045 A 
ATOM     20  N   UNL     1      20.967  30.190  17.944  0.00  0.00    -0.357 N 
ATOM     21  C   UNL     1      19.199  28.916  16.882  0.00  0.00    -0.018 A 
ATOM     22  H   UNL     1      16.516  28.770  13.420  0.00  0.00    +0.000 HD
ATOM     23  H   UNL     1      15.188  28.170  12.528  0.00  0.00    +0.000 HD
ATOM     24  H   UNL     1      16.215  26.035  17.238  0.00  0.00    +0.000 HD
ATOM     25  H   UNL     1      17.838  28.186  14.895  0.00  0.00    +0.000 HD
ATOM     26  H   UNL     1      21.502  30.413  18.740  0.00  0.00    +0.000 HD
ATOM     27  H   UNL     1      21.142  30.646  17.089  0.00  0.00    +0.000 HD
ENDROOT
TORSDOF 0
ENDMDL
MODEL 5
REMARK VINA RESULT:    -2.905      3.735      6.141
REMARK INTER + INTRA:          -2.905
REMARK INTER:                  -2.905
REMARK INTRA:                   0.000
REMARK UNBOUND:                 0.000
REMARK  Name = /home/vital/Documents/PhD_2021/Malaria_codes/scripts/../data/pdbqt_ligands/ligand_127_temp.pdb
REMARK                            x       y       z     vdW  Elec       q    Type
REMARK                         _______ _______ _______ _____ _____    ______ ____
ROOT
ATOM      1  C   UNL     1      15.748  24.729  16.958  0.00  0.00    -0.047 C 
ATOM      2  C   UNL     1      15.130  24.297  15.668  0.00  0.00    -0.090 C 
ATOM      3  C   UNL     1      15.010  25.010  14.535  0.00  0.00    -0.074 C 
ATOM      4  C   UNL     1      15.497  26.405  14.270  0.00  0.00    +0.015 C 
ATOM      5  N   UNL     1      14.338  27.274  14.113  0.00  0.00    -0.300 N 
ATOM      6  C   UNL     1      14.614  28.706  14.167  0.00  0.00    +0.086 C 
ATOM      7  C   UNL     1      15.621  29.308  13.109  0.00  0.00    -0.045 C 
ATOM      8  C   UNL     1      16.987  29.091  13.158  0.00  0.00    -0.058 C 
ATOM      9  C   UNL     1      17.011  30.274  14.156  0.00  0.00    +0.075 C 
ATOM     10  C   UNL     1      15.960  30.839  13.151  0.00  0.00    -0.004 C 
ATOM     11  N   UNL     1      16.434  29.898  15.482  0.00  0.00    -0.264 N 
ATOM     12  C   UNL     1      15.338  29.171  15.513  0.00  0.00    +0.116 C 
ATOM     13  N   UNL     1      14.714  28.754  16.679  0.00  0.00    -0.302 N 
ATOM     14  C   UNL     1      15.064  28.964  18.026  0.00  0.00    +0.034 A 
ATOM     15  C   UNL     1      16.074  29.831  18.449  0.00  0.00    -0.039 A 
ATOM     16  C   UNL     1      16.355  30.007  19.808  0.00  0.00    -0.040 A 
ATOM     17  C   UNL     1      15.636  29.299  20.767  0.00  0.00    +0.062 A 
ATOM     18 CL   UNL     1      16.005  29.555  22.436  0.00  0.00    -0.082 Cl
ATOM     19  C   UNL     1      14.654  28.374  20.383  0.00  0.00    +0.045 A 
ATOM     20  N   UNL     1      13.827  27.731  21.323  0.00  0.00    -0.357 N 
ATOM     21  C   UNL     1      14.355  28.255  19.016  0.00  0.00    -0.018 A 
ATOM     22  H   UNL     1      13.677  27.053  14.857  0.00  0.00    +0.000 HD
ATOM     23  H   UNL     1      13.978  27.094  13.176  0.00  0.00    +0.000 HD
ATOM     24  H   UNL     1      16.867  30.190  16.317  0.00  0.00    +0.000 HD
ATOM     25  H   UNL     1      13.893  28.226  16.543  0.00  0.00    +0.000 HD
ATOM     26  H   UNL     1      14.024  27.805  22.285  0.00  0.00    +0.000 HD
ATOM     27  H   UNL     1      13.051  27.206  21.019  0.00  0.00    +0.000 HD
ENDROOT
TORSDOF 0
ENDMDL
MODEL 6
REMARK VINA RESULT:    -2.866      3.484      5.929
REMARK INTER + INTRA:          -2.866
REMARK INTER:                  -2.866
REMARK INTRA:                   0.000
REMARK UNBOUND:                 0.000
REMARK  Name = /home/vital/Documents/PhD_2021/Malaria_codes/scripts/../data/pdbqt_ligands/ligand_127_temp.pdb
REMARK                            x       y       z     vdW  Elec       q    Type
REMARK                         _______ _______ _______ _____ _____    ______ ____
ROOT
ATOM      1  C   UNL     1      14.731  29.038  18.978  0.00  0.00    -0.047 C 
ATOM      2  C   UNL     1      15.350  30.329  19.408  0.00  0.00    -0.090 C 
ATOM      3  C   UNL     1      15.718  31.362  18.631  0.00  0.00    -0.074 C 
ATOM      4  C   UNL     1      15.568  31.493  17.142  0.00  0.00    +0.015 C 
ATOM      5  N   UNL     1      16.895  31.476  16.543  0.00  0.00    -0.300 N 
ATOM      6  C   UNL     1      16.931  31.274  15.098  0.00  0.00    +0.086 C 
ATOM      7  C   UNL     1      16.172  32.316  14.185  0.00  0.00    -0.045 C 
ATOM      8  C   UNL     1      14.793  32.377  14.095  0.00  0.00    -0.058 C 
ATOM      9  C   UNL     1      14.938  31.252  13.042  0.00  0.00    +0.075 C 
ATOM     10  C   UNL     1      16.168  32.118  12.629  0.00  0.00    -0.004 C 
ATOM     11  N   UNL     1      15.304  29.946  13.666  0.00  0.00    -0.264 N 
ATOM     12  C   UNL     1      16.211  29.930  14.620  0.00  0.00    +0.116 C 
ATOM     13  N   UNL     1      16.628  28.785  15.279  0.00  0.00    -0.302 N 
ATOM     14  C   UNL     1      16.216  27.447  15.131  0.00  0.00    +0.034 A 
ATOM     15  C   UNL     1      15.384  26.990  14.106  0.00  0.00    -0.039 A 
ATOM     16  C   UNL     1      15.032  25.640  14.007  0.00  0.00    -0.040 A 
ATOM     17  C   UNL     1      15.496  24.726  14.950  0.00  0.00    +0.062 A 
ATOM     18 CL   UNL     1      15.049  23.064  14.785  0.00  0.00    -0.082 Cl
ATOM     19  C   UNL     1      16.285  25.153  16.028  0.00  0.00    +0.045 A 
ATOM     20  N   UNL     1      16.870  24.244  16.930  0.00  0.00    -0.357 N 
ATOM     21  C   UNL     1      16.668  26.503  16.075  0.00  0.00    -0.018 A 
ATOM     22  H   UNL     1      17.427  30.723  16.979  0.00  0.00    +0.000 HD
ATOM     23  H   UNL     1      17.287  32.404  16.706  0.00  0.00    +0.000 HD
ATOM     24  H   UNL     1      14.874  29.111  13.370  0.00  0.00    +0.000 HD
ATOM     25  H   UNL     1      17.324  28.930  15.961  0.00  0.00    +0.000 HD
ATOM     26  H   UNL     1      16.611  23.294  16.909  0.00  0.00    +0.000 HD
ATOM     27  H   UNL     1      17.538  24.558  17.582  0.00  0.00    +0.000 HD
ENDROOT
TORSDOF 0
ENDMDL
MODEL 7
REMARK VINA RESULT:    -2.784     21.825     22.912
REMARK INTER + INTRA:          -2.784
REMARK INTER:                  -2.784
REMARK INTRA:                   0.000
REMARK UNBOUND:                 0.000
REMARK  Name = /home/vital/Documents/PhD_2021/Malaria_codes/scripts/../data/pdbqt_ligands/ligand_127_temp.pdb
REMARK                            x       y       z     vdW  Elec       q    Type
REMARK                         _______ _______ _______ _____ _____    ______ ____
ROOT
ATOM      1  C   UNL     1      33.890  44.399  14.758  0.00  0.00    -0.047 C 
ATOM      2  C   UNL     1      32.692  44.622  13.892  0.00  0.00    -0.090 C 
ATOM      3  C   UNL     1      31.514  45.166  14.243  0.00  0.00    -0.074 C 
ATOM      4  C   UNL     1      31.118  45.717  15.583  0.00  0.00    +0.015 C 
ATOM      5  N   UNL     1      30.093  44.852  16.151  0.00  0.00    -0.300 N 
ATOM      6  C   UNL     1      29.821  45.049  17.571  0.00  0.00    +0.086 C 
ATOM      7  C   UNL     1      29.342  46.478  18.044  0.00  0.00    -0.045 C 
ATOM      8  C   UNL     1      30.183  47.575  18.101  0.00  0.00    -0.058 C 
ATOM      9  C   UNL     1      30.592  47.029  19.490  0.00  0.00    +0.075 C 
ATOM     10  C   UNL     1      29.062  46.734  19.565  0.00  0.00    -0.004 C 
ATOM     11  N   UNL     1      31.437  45.802  19.382  0.00  0.00    -0.264 N 
ATOM     12  C   UNL     1      31.108  44.881  18.501  0.00  0.00    +0.116 C 
ATOM     13  N   UNL     1      31.817  43.706  18.303  0.00  0.00    -0.302 N 
ATOM     14  C   UNL     1      32.987  43.231  18.924  0.00  0.00    +0.034 A 
ATOM     15  C   UNL     1      33.578  43.823  20.043  0.00  0.00    -0.039 A 
ATOM     16  C   UNL     1      34.731  43.284  20.623  0.00  0.00    -0.040 A 
ATOM     17  C   UNL     1      35.322  42.147  20.076  0.00  0.00    +0.062 A 
ATOM     18 CL   UNL     1      36.738  41.505  20.830  0.00  0.00    -0.082 Cl
ATOM     19  C   UNL     1      34.794  41.557  18.919  0.00  0.00    +0.045 A 
ATOM     20  N   UNL     1      35.291  40.342  18.408  0.00  0.00    -0.357 N 
ATOM     21  C   UNL     1      33.607  42.085  18.387  0.00  0.00    -0.018 A 
ATOM     22  H   UNL     1      30.390  43.885  16.019  0.00  0.00    +0.000 HD
ATOM     23  H   UNL     1      29.228  45.087  15.665  0.00  0.00    +0.000 HD
ATOM     24  H   UNL     1      32.227  45.685  19.960  0.00  0.00    +0.000 HD
ATOM     25  H   UNL     1      31.441  43.107  17.617  0.00  0.00    +0.000 HD
ATOM     26  H   UNL     1      36.123  39.959  18.771  0.00  0.00    +0.000 HD
ATOM     27  H   UNL     1      34.807  39.875  17.689  0.00  0.00    +0.000 HD
ENDROOT
TORSDOF 0
ENDMDL
MODEL 8
REMARK VINA RESULT:    -2.555      2.988      5.246
REMARK INTER + INTRA:          -2.555
REMARK INTER:                  -2.555
REMARK INTRA:                   0.000
REMARK UNBOUND:                 0.000
REMARK  Name = /home/vital/Documents/PhD_2021/Malaria_codes/scripts/../data/pdbqt_ligands/ligand_127_temp.pdb
REMARK                            x       y       z     vdW  Elec       q    Type
REMARK                         _______ _______ _______ _____ _____    ______ ____
ROOT
ATOM      1  C   UNL     1      20.045  28.474  14.721  0.00  0.00    -0.047 C 
ATOM      2  C   UNL     1      20.465  27.564  15.829  0.00  0.00    -0.090 C 
ATOM      3  C   UNL     1      19.719  26.644  16.465  0.00  0.00    -0.074 C 
ATOM      4  C   UNL     1      18.287  26.278  16.199  0.00  0.00    +0.015 C 
ATOM      5  N   UNL     1      17.485  26.700  17.339  0.00  0.00    -0.300 N 
ATOM      6  C   UNL     1      16.041  26.713  17.122  0.00  0.00    +0.086 C 
ATOM      7  C   UNL     1      15.340  25.359  16.711  0.00  0.00    -0.045 C 
ATOM      8  C   UNL     1      15.476  24.789  15.458  0.00  0.00    -0.058 C 
ATOM      9  C   UNL     1      14.332  25.744  15.039  0.00  0.00    +0.075 C 
ATOM     10  C   UNL     1      13.795  25.340  16.447  0.00  0.00    -0.004 C 
ATOM     11  N   UNL     1      14.792  27.163  14.955  0.00  0.00    -0.264 N 
ATOM     12  C   UNL     1      15.585  27.629  15.896  0.00  0.00    +0.116 C 
ATOM     13  N   UNL     1      16.083  28.923  15.923  0.00  0.00    -0.302 N 
ATOM     14  C   UNL     1      15.903  29.988  15.021  0.00  0.00    +0.034 A 
ATOM     15  C   UNL     1      14.992  29.975  13.962  0.00  0.00    -0.039 A 
ATOM     16  C   UNL     1      14.851  31.080  13.115  0.00  0.00    -0.040 A 
ATOM     17  C   UNL     1      15.637  32.213  13.308  0.00  0.00    +0.062 A 
ATOM     18 CL   UNL     1      15.422  33.562  12.248  0.00  0.00    -0.082 Cl
ATOM     19  C   UNL     1      16.605  32.244  14.323  0.00  0.00    +0.045 A 
ATOM     20  N   UNL     1      17.332  33.412  14.623  0.00  0.00    -0.357 N 
ATOM     21  C   UNL     1      16.690  31.145  15.191  0.00  0.00    -0.018 A 
ATOM     22  H   UNL     1      17.774  27.644  17.594  0.00  0.00    +0.000 HD
ATOM     23  H   UNL     1      17.651  26.007  18.070  0.00  0.00    +0.000 HD
ATOM     24  H   UNL     1      14.506  27.739  14.209  0.00  0.00    +0.000 HD
ATOM     25  H   UNL     1      16.654  29.130  16.699  0.00  0.00    +0.000 HD
ATOM     26  H   UNL     1      17.282  34.191  14.024  0.00  0.00    +0.000 HD
ATOM     27  H   UNL     1      17.891  33.449  15.433  0.00  0.00    +0.000 HD
ENDROOT
TORSDOF 0
ENDMDL
MODEL 9
REMARK VINA RESULT:    -2.457      3.229      5.679
REMARK INTER + INTRA:          -2.457
REMARK INTER:                  -2.457
REMARK INTRA:                   0.000
REMARK UNBOUND:                 0.000
REMARK  Name = /home/vital/Documents/PhD_2021/Malaria_codes/scripts/../data/pdbqt_ligands/ligand_127_temp.pdb
REMARK                            x       y       z     vdW  Elec       q    Type
REMARK                         _______ _______ _______ _____ _____    ______ ____
ROOT
ATOM      1  C   UNL     1      15.704  29.791  19.387  0.00  0.00    -0.047 C 
ATOM      2  C   UNL     1      16.300  31.158  19.483  0.00  0.00    -0.090 C 
ATOM      3  C   UNL     1      16.456  32.057  18.497  0.00  0.00    -0.074 C 
ATOM      4  C   UNL     1      16.041  31.927  17.059  0.00  0.00    +0.015 C 
ATOM      5  N   UNL     1      17.242  31.858  16.238  0.00  0.00    -0.300 N 
ATOM      6  C   UNL     1      17.039  31.415  14.863  0.00  0.00    +0.086 C 
ATOM      7  C   UNL     1      16.065  32.257  13.948  0.00  0.00    -0.045 C 
ATOM      8  C   UNL     1      14.690  32.250  14.103  0.00  0.00    -0.058 C 
ATOM      9  C   UNL     1      14.726  30.969  13.236  0.00  0.00    +0.075 C 
ATOM     10  C   UNL     1      15.804  31.797  12.471  0.00  0.00    -0.004 C 
ATOM     11  N   UNL     1      15.282  29.802  13.984  0.00  0.00    -0.264 N 
ATOM     12  C   UNL     1      16.340  29.983  14.746  0.00  0.00    +0.116 C 
ATOM     13  N   UNL     1      16.941  28.983  15.494  0.00  0.00    -0.302 N 
ATOM     14  C   UNL     1      16.601  27.625  15.640  0.00  0.00    +0.034 A 
ATOM     15  C   UNL     1      15.636  26.969  14.871  0.00  0.00    -0.039 A 
ATOM     16  C   UNL     1      15.365  25.610  15.057  0.00  0.00    -0.040 A 
ATOM     17  C   UNL     1      16.046  24.888  16.033  0.00  0.00    +0.062 A 
ATOM     18 CL   UNL     1      15.690  23.207  16.222  0.00  0.00    -0.082 Cl
ATOM     19  C   UNL     1      16.980  25.522  16.866  0.00  0.00    +0.045 A 
ATOM     20  N   UNL     1      17.773  24.802  17.780  0.00  0.00    -0.357 N 
ATOM     21  C   UNL     1      17.273  26.873  16.625  0.00  0.00    -0.018 A 
ATOM     22  H   UNL     1      17.892  31.211  16.685  0.00  0.00    +0.000 HD
ATOM     23  H   UNL     1      17.593  32.814  16.175  0.00  0.00    +0.000 HD
ATOM     24  H   UNL     1      14.864  28.913  13.910  0.00  0.00    +0.000 HD
ATOM     25  H   UNL     1      17.734  29.268  16.004  0.00  0.00    +0.000 HD
ATOM     26  H   UNL     1      17.579  23.854  17.960  0.00  0.00    +0.000 HD
ATOM     27  H   UNL     1      18.521  25.247  18.240  0.00  0.00    +0.000 HD
ENDROOT
TORSDOF 0
ENDMDL
