MODEL 1
REMARK VINA RESULT:    -2.988      0.000      0.000
REMARK INTER + INTRA:          -2.988
REMARK INTER:                  -2.988
REMARK INTRA:                   0.000
REMARK UNBOUND:                 0.000
REMARK  Name = /home/vital/Documents/PhD_2021/Malaria_codes/scripts/../data/pdbqt_ligands/ligand_54_temp.pdb
REMARK                            x       y       z     vdW  Elec       q    Type
REMARK                         _______ _______ _______ _____ _____    ______ ____
ROOT
ATOM      1 CL   UNL     1      14.623  44.452  34.848  0.00  0.00    -0.084 Cl
ATOM      2  C   UNL     1      15.528  45.123  33.517  0.00  0.00    +0.039 C 
ATOM      3  C   UNL     1      14.955  45.069  32.301  0.00  0.00    -0.034 C 
ATOM      4  C   UNL     1      15.492  45.576  30.998  0.00  0.00    +0.105 C 
ATOM      5 CL   UNL     1      14.262  46.662  30.282  0.00  0.00    -0.100 Cl
ATOM      6  N   UNL     1      15.642  44.484  30.050  0.00  0.00    -0.279 N 
ATOM      7  C   UNL     1      16.643  44.781  29.037  0.00  0.00    +0.091 C 
ATOM      8  N   UNL     1      17.982  44.704  29.590  0.00  0.00    -0.275 NA
ATOM      9  C   UNL     1      19.012  44.954  28.839  0.00  0.00    +0.037 C 
ATOM     10  C   UNL     1      18.949  45.346  27.375  0.00  0.00    +0.003 C 
ATOM     11  C   UNL     1      19.090  44.097  26.527  0.00  0.00    +0.014 C 
ATOM     12  N   UNL     1      20.466  43.632  26.460  0.00  0.00    -0.349 N 
ATOM     13  C   UNL     1      21.243  43.287  27.539  0.00  0.00    -0.013 C 
ATOM     14  C   UNL     1      21.265  43.746  28.795  0.00  0.00    -0.048 C 
ATOM     15  C   UNL     1      20.443  44.826  29.436  0.00  0.00    +0.066 C 
ATOM     16  N   UNL     1      20.356  44.514  30.881  0.00  0.00    -0.303 N 
ATOM     17  C   UNL     1      20.229  45.729  31.694  0.00  0.00    +0.020 C 
ATOM     18  C   UNL     1      20.086  45.376  33.181  0.00  0.00    +0.061 C 
ATOM     19  O   UNL     1      19.552  46.511  33.875  0.00  0.00    -0.375 OA
ATOM     20  C   UNL     1      18.944  46.155  35.117  0.00  0.00    +0.066 C 
ATOM     21  C   UNL     1      17.535  45.649  34.939  0.00  0.00    -0.057 C 
ATOM     22  C   UNL     1      16.843  45.679  33.785  0.00  0.00    -0.045 C 
ATOM     23  H   UNL     1      14.746  44.321  29.590  0.00  0.00    +0.000 HD
ATOM     24  H   UNL     1      15.946  43.657  30.563  0.00  0.00    +0.000 HD
ATOM     25  H   UNL     1      20.874  43.558  25.567  0.00  0.00    +0.000 HD
ATOM     26  H   UNL     1      21.200  44.016  31.162  0.00  0.00    +0.000 HD
ATOM     27  H   UNL     1      19.525  43.943  31.033  0.00  0.00    +0.000 HD
ENDROOT
TORSDOF 0
ENDMDL
MODEL 2
REMARK VINA RESULT:    -2.975     24.003     25.226
REMARK INTER + INTRA:          -2.975
REMARK INTER:                  -2.975
REMARK INTRA:                   0.000
REMARK UNBOUND:                 0.000
REMARK  Name = /home/vital/Documents/PhD_2021/Malaria_codes/scripts/../data/pdbqt_ligands/ligand_54_temp.pdb
REMARK                            x       y       z     vdW  Elec       q    Type
REMARK                         _______ _______ _______ _____ _____    ______ ____
ROOT
ATOM      1 CL   UNL     1      24.188  24.249  15.489  0.00  0.00    -0.084 Cl
ATOM      2  C   UNL     1      22.716  25.024  16.014  0.00  0.00    +0.039 C 
ATOM      3  C   UNL     1      22.046  24.439  17.023  0.00  0.00    -0.034 C 
ATOM      4  C   UNL     1      20.776  24.889  17.678  0.00  0.00    +0.105 C 
ATOM      5 CL   UNL     1      21.073  24.995  19.440  0.00  0.00    -0.100 Cl
ATOM      6  N   UNL     1      19.739  23.881  17.523  0.00  0.00    -0.279 N 
ATOM      7  C   UNL     1      18.407  24.459  17.609  0.00  0.00    +0.091 C 
ATOM      8  N   UNL     1      18.087  25.212  16.411  0.00  0.00    -0.275 NA
ATOM      9  C   UNL     1      16.942  25.818  16.308  0.00  0.00    +0.037 C 
ATOM     10  C   UNL     1      15.861  25.823  17.370  0.00  0.00    +0.003 C 
ATOM     11  C   UNL     1      14.883  24.701  17.080  0.00  0.00    +0.014 C 
ATOM     12  N   UNL     1      13.974  25.032  15.993  0.00  0.00    -0.349 N 
ATOM     13  C   UNL     1      14.351  25.369  14.716  0.00  0.00    -0.013 C 
ATOM     14  C   UNL     1      15.433  26.003  14.252  0.00  0.00    -0.048 C 
ATOM     15  C   UNL     1      16.598  26.585  14.998  0.00  0.00    +0.066 C 
ATOM     16  N   UNL     1      17.762  26.563  14.084  0.00  0.00    -0.303 N 
ATOM     17  C   UNL     1      18.698  27.657  14.366  0.00  0.00    +0.020 C 
ATOM     18  C   UNL     1      19.921  27.579  13.442  0.00  0.00    +0.061 C 
ATOM     19  O   UNL     1      20.977  28.368  14.007  0.00  0.00    -0.375 OA
ATOM     20  C   UNL     1      22.262  27.995  13.512  0.00  0.00    +0.066 C 
ATOM     21  C   UNL     1      22.826  26.796  14.233  0.00  0.00    -0.057 C 
ATOM     22  C   UNL     1      22.287  26.230  15.329  0.00  0.00    -0.045 C 
ATOM     23  H   UNL     1      19.843  23.183  18.259  0.00  0.00    +0.000 HD
ATOM     24  H   UNL     1      19.842  23.460  16.600  0.00  0.00    +0.000 HD
ATOM     25  H   UNL     1      13.010  25.013  16.190  0.00  0.00    +0.000 HD
ATOM     26  H   UNL     1      17.430  26.653  13.124  0.00  0.00    +0.000 HD
ATOM     27  H   UNL     1      18.256  25.681  14.220  0.00  0.00    +0.000 HD
ENDROOT
TORSDOF 0
ENDMDL
MODEL 3
REMARK VINA RESULT:    -2.681     20.716     23.125
REMARK INTER + INTRA:          -2.681
REMARK INTER:                  -2.681
REMARK INTRA:                   0.000
REMARK UNBOUND:                 0.000
REMARK  Name = /home/vital/Documents/PhD_2021/Malaria_codes/scripts/../data/pdbqt_ligands/ligand_54_temp.pdb
REMARK                            x       y       z     vdW  Elec       q    Type
REMARK                         _______ _______ _______ _____ _____    ______ ____
ROOT
ATOM      1 CL   UNL     1      17.878  34.418  15.701  0.00  0.00    -0.084 Cl
ATOM      2  C   UNL     1      17.561  32.933  14.842  0.00  0.00    +0.039 C 
ATOM      3  C   UNL     1      16.276  32.660  14.551  0.00  0.00    -0.034 C 
ATOM      4  C   UNL     1      15.723  31.478  13.817  0.00  0.00    +0.105 C 
ATOM      5 CL   UNL     1      14.718  32.089  12.467  0.00  0.00    -0.100 Cl
ATOM      6  N   UNL     1      14.810  30.732  14.669  0.00  0.00    -0.279 N 
ATOM      7  C   UNL     1      14.700  29.341  14.257  0.00  0.00    +0.091 C 
ATOM      8  N   UNL     1      15.896  28.599  14.606  0.00  0.00    -0.275 NA
ATOM      9  C   UNL     1      15.992  27.339  14.302  0.00  0.00    +0.037 C 
ATOM     10  C   UNL     1      14.932  26.534  13.578  0.00  0.00    +0.003 C 
ATOM     11  C   UNL     1      14.052  25.847  14.604  0.00  0.00    +0.014 C 
ATOM     12  N   UNL     1      14.698  24.682  15.189  0.00  0.00    -0.349 N 
ATOM     13  C   UNL     1      15.898  24.689  15.857  0.00  0.00    -0.013 C 
ATOM     14  C   UNL     1      16.988  25.449  15.707  0.00  0.00    -0.048 C 
ATOM     15  C   UNL     1      17.265  26.547  14.721  0.00  0.00    +0.066 C 
ATOM     16  N   UNL     1      18.243  27.465  15.348  0.00  0.00    -0.303 N 
ATOM     17  C   UNL     1      19.096  28.118  14.348  0.00  0.00    +0.020 C 
ATOM     18  C   UNL     1      20.062  29.104  15.019  0.00  0.00    +0.061 C 
ATOM     19  O   UNL     1      20.562  30.007  14.024  0.00  0.00    -0.375 OA
ATOM     20  C   UNL     1      21.066  31.217  14.589  0.00  0.00    +0.066 C 
ATOM     21  C   UNL     1      19.969  32.210  14.883  0.00  0.00    -0.057 C 
ATOM     22  C   UNL     1      18.683  32.073  14.511  0.00  0.00    -0.045 C 
ATOM     23  H   UNL     1      13.888  31.164  14.623  0.00  0.00    +0.000 HD
ATOM     24  H   UNL     1      15.177  30.752  15.621  0.00  0.00    +0.000 HD
ATOM     25  H   UNL     1      14.236  23.817  15.098  0.00  0.00    +0.000 HD
ATOM     26  H   UNL     1      18.833  26.932  15.987  0.00  0.00    +0.000 HD
ATOM     27  H   UNL     1      17.725  28.189  15.845  0.00  0.00    +0.000 HD
ENDROOT
TORSDOF 0
ENDMDL
MODEL 4
REMARK VINA RESULT:    -2.673      3.382      7.162
REMARK INTER + INTRA:          -2.673
REMARK INTER:                  -2.673
REMARK INTRA:                   0.000
REMARK UNBOUND:                 0.000
REMARK  Name = /home/vital/Documents/PhD_2021/Malaria_codes/scripts/../data/pdbqt_ligands/ligand_54_temp.pdb
REMARK                            x       y       z     vdW  Elec       q    Type
REMARK                         _______ _______ _______ _____ _____    ______ ____
ROOT
ATOM      1 CL   UNL     1      20.628  42.968  27.979  0.00  0.00    -0.084 Cl
ATOM      2  C   UNL     1      19.971  44.116  29.116  0.00  0.00    +0.039 C 
ATOM      3  C   UNL     1      20.812  44.597  30.050  0.00  0.00    -0.034 C 
ATOM      4  C   UNL     1      20.525  45.594  31.130  0.00  0.00    +0.105 C 
ATOM      5 CL   UNL     1      21.726  46.914  30.993  0.00  0.00    -0.100 Cl
ATOM      6  N   UNL     1      20.750  45.003  32.440  0.00  0.00    -0.279 N 
ATOM      7  C   UNL     1      19.979  45.674  33.475  0.00  0.00    +0.091 C 
ATOM      8  N   UNL     1      18.572  45.333  33.380  0.00  0.00    -0.275 NA
ATOM      9  C   UNL     1      17.719  45.849  34.213  0.00  0.00    +0.037 C 
ATOM     10  C   UNL     1      18.064  46.826  35.320  0.00  0.00    +0.003 C 
ATOM     11  C   UNL     1      18.296  46.051  36.602  0.00  0.00    +0.014 C 
ATOM     12  N   UNL     1      17.049  45.620  37.216  0.00  0.00    -0.349 N 
ATOM     13  C   UNL     1      16.099  44.830  36.617  0.00  0.00    -0.013 C 
ATOM     14  C   UNL     1      15.725  44.712  35.339  0.00  0.00    -0.048 C 
ATOM     15  C   UNL     1      16.220  45.440  34.123  0.00  0.00    +0.066 C 
ATOM     16  N   UNL     1      16.013  44.548  32.960  0.00  0.00    -0.303 N 
ATOM     17  C   UNL     1      15.780  45.307  31.726  0.00  0.00    +0.020 C 
ATOM     18  C   UNL     1      15.624  44.360  30.528  0.00  0.00    +0.061 C 
ATOM     19  O   UNL     1      15.822  45.109  29.321  0.00  0.00    -0.375 OA
ATOM     20  C   UNL     1      16.169  44.277  28.214  0.00  0.00    +0.066 C 
ATOM     21  C   UNL     1      17.638  43.933  28.196  0.00  0.00    -0.057 C 
ATOM     22  C   UNL     1      18.567  44.468  29.010  0.00  0.00    -0.045 C 
ATOM     23  H   UNL     1      21.741  45.075  32.669  0.00  0.00    +0.000 HD
ATOM     24  H   UNL     1      20.452  44.029  32.404  0.00  0.00    +0.000 HD
ATOM     25  H   UNL     1      16.872  45.920  38.137  0.00  0.00    +0.000 HD
ATOM     26  H   UNL     1      15.203  43.955  33.140  0.00  0.00    +0.000 HD
ATOM     27  H   UNL     1      16.857  43.989  32.834  0.00  0.00    +0.000 HD
ENDROOT
TORSDOF 0
ENDMDL
MODEL 5
REMARK VINA RESULT:    -2.595     23.524     24.571
REMARK INTER + INTRA:          -2.595
REMARK INTER:                  -2.595
REMARK INTRA:                   0.000
REMARK UNBOUND:                 0.000
REMARK  Name = /home/vital/Documents/PhD_2021/Malaria_codes/scripts/../data/pdbqt_ligands/ligand_54_temp.pdb
REMARK                            x       y       z     vdW  Elec       q    Type
REMARK                         _______ _______ _______ _____ _____    ______ ____
ROOT
ATOM      1 CL   UNL     1      14.566  24.456  14.400  0.00  0.00    -0.084 Cl
ATOM      2  C   UNL     1      15.890  25.357  15.092  0.00  0.00    +0.039 C 
ATOM      3  C   UNL     1      16.348  26.406  14.385  0.00  0.00    -0.034 C 
ATOM      4  C   UNL     1      17.452  27.354  14.742  0.00  0.00    +0.105 C 
ATOM      5 CL   UNL     1      16.800  29.018  14.644  0.00  0.00    -0.100 Cl
ATOM      6  N   UNL     1      18.512  27.296  13.748  0.00  0.00    -0.279 N 
ATOM      7  C   UNL     1      19.791  27.719  14.298  0.00  0.00    +0.091 C 
ATOM      8  N   UNL     1      20.338  26.708  15.182  0.00  0.00    -0.275 NA
ATOM      9  C   UNL     1      21.471  26.912  15.783  0.00  0.00    +0.037 C 
ATOM     10  C   UNL     1      22.313  28.166  15.652  0.00  0.00    +0.003 C 
ATOM     11  C   UNL     1      23.345  27.952  14.561  0.00  0.00    +0.014 C 
ATOM     12  N   UNL     1      24.451  27.120  15.007  0.00  0.00    -0.349 N 
ATOM     13  C   UNL     1      24.338  25.841  15.495  0.00  0.00    -0.013 C 
ATOM     14  C   UNL     1      23.365  25.243  16.192  0.00  0.00    -0.048 C 
ATOM     15  C   UNL     1      22.065  25.799  16.695  0.00  0.00    +0.066 C 
ATOM     16  N   UNL     1      21.112  24.671  16.793  0.00  0.00    -0.303 N 
ATOM     17  C   UNL     1      20.123  24.882  17.857  0.00  0.00    +0.020 C 
ATOM     18  C   UNL     1      19.116  23.725  17.900  0.00  0.00    +0.061 C 
ATOM     19  O   UNL     1      17.957  24.151  18.630  0.00  0.00    -0.375 OA
ATOM     20  C   UNL     1      16.804  23.364  18.331  0.00  0.00    +0.066 C 
ATOM     21  C   UNL     1      16.121  23.811  17.062  0.00  0.00    -0.057 C 
ATOM     22  C   UNL     1      16.433  24.919  16.366  0.00  0.00    -0.045 C 
ATOM     23  H   UNL     1      18.269  27.909  12.970  0.00  0.00    +0.000 HD
ATOM     24  H   UNL     1      18.605  26.329  13.439  0.00  0.00    +0.000 HD
ATOM     25  H   UNL     1      25.355  27.505  14.955  0.00  0.00    +0.000 HD
ATOM     26  H   UNL     1      21.632  23.816  16.991  0.00  0.00    +0.000 HD
ATOM     27  H   UNL     1      20.612  24.599  15.906  0.00  0.00    +0.000 HD
ENDROOT
TORSDOF 0
ENDMDL
MODEL 6
REMARK VINA RESULT:    -2.500     16.181     19.053
REMARK INTER + INTRA:          -2.500
REMARK INTER:                  -2.500
REMARK INTRA:                   0.000
REMARK UNBOUND:                 0.000
REMARK  Name = /home/vital/Documents/PhD_2021/Malaria_codes/scripts/../data/pdbqt_ligands/ligand_54_temp.pdb
REMARK                            x       y       z     vdW  Elec       q    Type
REMARK                         _______ _______ _______ _____ _____    ______ ____
ROOT
ATOM      1 CL   UNL     1      23.662  47.589  16.279  0.00  0.00    -0.084 Cl
ATOM      2  C   UNL     1      24.886  46.350  16.187  0.00  0.00    +0.039 C 
ATOM      3  C   UNL     1      25.531  46.045  17.327  0.00  0.00    -0.034 C 
ATOM      4  C   UNL     1      26.605  45.022  17.540  0.00  0.00    +0.105 C 
ATOM      5 CL   UNL     1      26.086  43.950  18.876  0.00  0.00    -0.100 Cl
ATOM      6  N   UNL     1      27.827  45.658  18.007  0.00  0.00    -0.279 N 
ATOM      7  C   UNL     1      29.004  44.864  17.691  0.00  0.00    +0.091 C 
ATOM      8  N   UNL     1      29.313  44.933  16.275  0.00  0.00    -0.275 NA
ATOM      9  C   UNL     1      30.325  44.274  15.797  0.00  0.00    +0.037 C 
ATOM     10  C   UNL     1      31.252  43.391  16.608  0.00  0.00    +0.003 C 
ATOM     11  C   UNL     1      32.454  44.208  17.041  0.00  0.00    +0.014 C 
ATOM     12  N   UNL     1      33.404  44.403  15.957  0.00  0.00    -0.349 N 
ATOM     13  C   UNL     1      33.124  44.994  14.750  0.00  0.00    -0.013 C 
ATOM     14  C   UNL     1      32.003  45.027  14.020  0.00  0.00    -0.048 C 
ATOM     15  C   UNL     1      30.669  44.393  14.283  0.00  0.00    +0.066 C 
ATOM     16  N   UNL     1      29.646  45.218  13.601  0.00  0.00    -0.303 N 
ATOM     17  C   UNL     1      28.492  44.417  13.178  0.00  0.00    +0.020 C 
ATOM     18  C   UNL     1      27.425  45.305  12.524  0.00  0.00    +0.061 C 
ATOM     19  O   UNL     1      26.178  44.596  12.513  0.00  0.00    -0.375 OA
ATOM     20  C   UNL     1      25.055  45.467  12.380  0.00  0.00    +0.066 C 
ATOM     21  C   UNL     1      24.650  46.081  13.697  0.00  0.00    -0.057 C 
ATOM     22  C   UNL     1      25.154  45.739  14.897  0.00  0.00    -0.045 C 
ATOM     23  H   UNL     1      27.771  45.776  19.018  0.00  0.00    +0.000 HD
ATOM     24  H   UNL     1      27.916  46.559  17.537  0.00  0.00    +0.000 HD
ATOM     25  H   UNL     1      34.324  44.084  16.101  0.00  0.00    +0.000 HD
ATOM     26  H   UNL     1      30.067  45.651  12.779  0.00  0.00    +0.000 HD
ATOM     27  H   UNL     1      29.318  45.925  14.259  0.00  0.00    +0.000 HD
ENDROOT
TORSDOF 0
ENDMDL
MODEL 7
REMARK VINA RESULT:    -2.484     12.239     14.696
REMARK INTER + INTRA:          -2.484
REMARK INTER:                  -2.484
REMARK INTRA:                   0.000
REMARK UNBOUND:                 0.000
REMARK  Name = /home/vital/Documents/PhD_2021/Malaria_codes/scripts/../data/pdbqt_ligands/ligand_54_temp.pdb
REMARK                            x       y       z     vdW  Elec       q    Type
REMARK                         _______ _______ _______ _____ _____    ______ ____
ROOT
ATOM      1 CL   UNL     1      19.277  47.550  18.146  0.00  0.00    -0.084 Cl
ATOM      2  C   UNL     1      20.686  46.532  18.294  0.00  0.00    +0.039 C 
ATOM      3  C   UNL     1      21.010  46.116  19.532  0.00  0.00    -0.034 C 
ATOM      4  C   UNL     1      22.146  45.232  19.946  0.00  0.00    +0.105 C 
ATOM      5 CL   UNL     1      21.468  43.872  20.892  0.00  0.00    -0.100 Cl
ATOM      6  N   UNL     1      23.030  45.935  20.861  0.00  0.00    -0.279 N 
ATOM      7  C   UNL     1      24.377  45.385  20.842  0.00  0.00    +0.091 C 
ATOM      8  N   UNL     1      25.073  45.754  19.624  0.00  0.00    -0.275 NA
ATOM      9  C   UNL     1      26.287  45.340  19.416  0.00  0.00    +0.037 C 
ATOM     10  C   UNL     1      27.081  44.461  20.362  0.00  0.00    +0.003 C 
ATOM     11  C   UNL     1      27.923  45.346  21.262  0.00  0.00    +0.014 C 
ATOM     12  N   UNL     1      29.097  45.865  20.578  0.00  0.00    -0.349 N 
ATOM     13  C   UNL     1      29.080  46.623  19.432  0.00  0.00    -0.013 C 
ATOM     14  C   UNL     1      28.241  46.632  18.391  0.00  0.00    -0.048 C 
ATOM     15  C   UNL     1      27.034  45.780  18.124  0.00  0.00    +0.066 C 
ATOM     16  N   UNL     1      26.123  46.566  17.261  0.00  0.00    -0.303 N 
ATOM     17  C   UNL     1      25.319  45.703  16.388  0.00  0.00    +0.020 C 
ATOM     18  C   UNL     1      24.346  46.538  15.545  0.00  0.00    +0.061 C 
ATOM     19  O   UNL     1      23.317  45.676  15.041  0.00  0.00    -0.375 OA
ATOM     20  C   UNL     1      22.140  46.392  14.666  0.00  0.00    +0.066 C 
ATOM     21  C   UNL     1      21.254  46.692  15.850  0.00  0.00    -0.057 C 
ATOM     22  C   UNL     1      21.434  46.210  17.093  0.00  0.00    -0.045 C 
ATOM     23  H   UNL     1      22.656  45.858  21.807  0.00  0.00    +0.000 HD
ATOM     24  H   UNL     1      23.082  46.910  20.566  0.00  0.00    +0.000 HD
ATOM     25  H   UNL     1      29.976  45.657  20.969  0.00  0.00    +0.000 HD
ATOM     26  H   UNL     1      26.678  47.196  16.682  0.00  0.00    +0.000 HD
ATOM     27  H   UNL     1      25.486  47.088  17.864  0.00  0.00    +0.000 HD
ENDROOT
TORSDOF 0
ENDMDL
MODEL 8
REMARK VINA RESULT:    -2.060     18.342     20.762
REMARK INTER + INTRA:          -2.060
REMARK INTER:                  -2.060
REMARK INTRA:                   0.000
REMARK UNBOUND:                 0.000
REMARK  Name = /home/vital/Documents/PhD_2021/Malaria_codes/scripts/../data/pdbqt_ligands/ligand_54_temp.pdb
REMARK                            x       y       z     vdW  Elec       q    Type
REMARK                         _______ _______ _______ _____ _____    ______ ____
ROOT
ATOM      1 CL   UNL     1      13.976  34.191  20.059  0.00  0.00    -0.084 Cl
ATOM      2  C   UNL     1      14.872  32.765  19.603  0.00  0.00    +0.039 C 
ATOM      3  C   UNL     1      15.637  32.853  18.500  0.00  0.00    -0.034 C 
ATOM      4  C   UNL     1      16.514  31.801  17.892  0.00  0.00    +0.105 C 
ATOM      5 CL   UNL     1      18.155  32.492  17.710  0.00  0.00    -0.100 Cl
ATOM      6  N   UNL     1      16.074  31.490  16.541  0.00  0.00    -0.279 N 
ATOM      7  C   UNL     1      16.479  30.154  16.135  0.00  0.00    +0.091 C 
ATOM      8  N   UNL     1      15.684  29.142  16.805  0.00  0.00    -0.275 NA
ATOM      9  C   UNL     1      15.910  27.883  16.582  0.00  0.00    +0.037 C 
ATOM     10  C   UNL     1      16.980  27.340  15.655  0.00  0.00    +0.003 C 
ATOM     11  C   UNL     1      16.368  27.099  14.288  0.00  0.00    +0.014 C 
ATOM     12  N   UNL     1      15.564  25.887  14.253  0.00  0.00    -0.349 N 
ATOM     13  C   UNL     1      14.482  25.627  15.058  0.00  0.00    -0.013 C 
ATOM     14  C   UNL     1      14.206  25.995  16.314  0.00  0.00    -0.048 C 
ATOM     15  C   UNL     1      15.020  26.811  17.276  0.00  0.00    +0.066 C 
ATOM     16  N   UNL     1      14.074  27.471  18.204  0.00  0.00    -0.303 N 
ATOM     17  C   UNL     1      14.672  27.692  19.526  0.00  0.00    +0.020 C 
ATOM     18  C   UNL     1      13.690  28.425  20.450  0.00  0.00    +0.061 C 
ATOM     19  O   UNL     1      14.424  28.989  21.546  0.00  0.00    -0.375 OA
ATOM     20  C   UNL     1      13.722  30.058  22.180  0.00  0.00    +0.066 C 
ATOM     21  C   UNL     1      13.890  31.365  21.447  0.00  0.00    -0.057 C 
ATOM     22  C   UNL     1      14.730  31.571  20.416  0.00  0.00    -0.045 C 
ATOM     23  H   UNL     1      16.480  32.168  15.898  0.00  0.00    +0.000 HD
ATOM     24  H   UNL     1      15.055  31.532  16.522  0.00  0.00    +0.000 HD
ATOM     25  H   UNL     1      15.816  25.197  13.598  0.00  0.00    +0.000 HD
ATOM     26  H   UNL     1      13.249  26.880  18.309  0.00  0.00    +0.000 HD
ATOM     27  H   UNL     1      13.826  28.379  17.813  0.00  0.00    +0.000 HD
ENDROOT
TORSDOF 0
ENDMDL
