MODEL 1
REMARK VINA RESULT:    -3.037      0.000      0.000
REMARK INTER + INTRA:          -3.037
REMARK INTER:                  -3.037
REMARK INTRA:                   0.000
REMARK UNBOUND:                 0.000
REMARK  Name = /home/vital/Documents/PhD_2021/Malaria_codes/scripts/../data/pdbqt_ligands/ligand_62_temp.pdb
REMARK                            x       y       z     vdW  Elec       q    Type
REMARK                         _______ _______ _______ _____ _____    ______ ____
ROOT
ATOM      1  C1  UNL     1      14.745  30.876  13.992  0.00  0.00    -0.040 C 
ATOM      2  C2  UNL     1      14.907  29.633  14.815  0.00  0.00    -0.050 A 
ATOM      3  C3  UNL     1      15.235  29.716  16.169  0.00  0.00    -0.055 A 
ATOM      4  C4  UNL     1      15.356  28.559  16.946  0.00  0.00    -0.019 A 
ATOM      5  C5  UNL     1      15.138  27.299  16.381  0.00  0.00    +0.123 A 
ATOM      6  O1  UNL     1      15.237  26.106  17.047  0.00  0.00    -0.491 OA
ATOM      7  C6  UNL     1      15.435  26.115  18.460  0.00  0.00    +0.100 C 
ATOM      8  C7  UNL     1      16.915  26.148  18.794  0.00  0.00    +0.079 C 
ATOM      9  C8  UNL     1      17.084  26.269  20.278  0.00  0.00    +0.310 C 
ATOM     10  O2  UNL     1      17.197  25.317  21.036  0.00  0.00    -0.251 OA
ATOM     11  O3  UNL     1      17.050  27.578  20.649  0.00  0.00    -0.465 OA
ATOM     12  C9  UNL     1      17.186  27.833  22.056  0.00  0.00    +0.092 C 
ATOM     13  C10 UNL     1      15.821  27.760  22.734  0.00  0.00    -0.018 C 
ATOM     14  C11 UNL     1      15.915  28.080  24.223  0.00  0.00    -0.048 C 
ATOM     15  C12 UNL     1      14.544  27.993  24.900  0.00  0.00    -0.030 C 
ATOM     16  C13 UNL     1      14.622  28.284  26.394  0.00  0.00    +0.044 C 
ATOM     17  O4  UNL     1      15.061  29.616  26.623  0.00  0.00    -0.395 OA
ATOM     18  C14 UNL     1      14.798  27.205  15.020  0.00  0.00    -0.009 A 
ATOM     19  C15 UNL     1      14.555  25.865  14.379  0.00  0.00    -0.036 C 
ATOM     20  C16 UNL     1      14.679  28.373  14.250  0.00  0.00    -0.052 A 
ATOM     21  H   UNL     1      15.945  29.736  26.241  0.00  0.00    +0.000 HD
ENDROOT
TORSDOF 0
ENDMDL
MODEL 2
REMARK VINA RESULT:    -3.026     22.145     23.923
REMARK INTER + INTRA:          -3.026
REMARK INTER:                  -3.026
REMARK INTRA:                   0.000
REMARK UNBOUND:                 0.000
REMARK  Name = /home/vital/Documents/PhD_2021/Malaria_codes/scripts/../data/pdbqt_ligands/ligand_62_temp.pdb
REMARK                            x       y       z     vdW  Elec       q    Type
REMARK                         _______ _______ _______ _____ _____    ______ ____
ROOT
ATOM      1  C1  UNL     1      30.423  45.554  12.291  0.00  0.00    -0.040 C 
ATOM      2  C2  UNL     1      31.216  44.966  13.420  0.00  0.00    -0.050 A 
ATOM      3  C3  UNL     1      31.667  43.646  13.358  0.00  0.00    -0.055 A 
ATOM      4  C4  UNL     1      32.434  43.105  14.395  0.00  0.00    -0.019 A 
ATOM      5  C5  UNL     1      32.773  43.882  15.506  0.00  0.00    +0.123 A 
ATOM      6  O1  UNL     1      33.510  43.450  16.578  0.00  0.00    -0.491 OA
ATOM      7  C6  UNL     1      34.118  42.160  16.526  0.00  0.00    +0.100 C 
ATOM      8  C7  UNL     1      33.171  41.100  17.059  0.00  0.00    +0.079 C 
ATOM      9  C8  UNL     1      33.797  39.749  16.888  0.00  0.00    +0.310 C 
ATOM     10  O2  UNL     1      34.482  39.197  17.736  0.00  0.00    -0.251 OA
ATOM     11  O3  UNL     1      33.525  39.260  15.647  0.00  0.00    -0.465 OA
ATOM     12  C9  UNL     1      34.082  37.970  15.347  0.00  0.00    +0.092 C 
ATOM     13  C10 UNL     1      35.501  38.128  14.811  0.00  0.00    -0.018 C 
ATOM     14  C11 UNL     1      36.111  36.782  14.427  0.00  0.00    -0.048 C 
ATOM     15  C12 UNL     1      37.540  36.946  13.901  0.00  0.00    -0.030 C 
ATOM     16  C13 UNL     1      38.174  35.609  13.537  0.00  0.00    +0.044 C 
ATOM     17  O4  UNL     1      37.461  34.987  12.476  0.00  0.00    -0.395 OA
ATOM     18  C14 UNL     1      32.332  45.215  15.575  0.00  0.00    -0.009 A 
ATOM     19  C15 UNL     1      32.679  46.080  16.756  0.00  0.00    -0.036 C 
ATOM     20  C16 UNL     1      31.563  45.748  14.527  0.00  0.00    -0.052 A 
ATOM     21  H   UNL     1      36.544  34.826  12.753  0.00  0.00    +0.000 HD
ENDROOT
TORSDOF 0
ENDMDL
MODEL 3
REMARK VINA RESULT:    -2.837      5.751      7.177
REMARK INTER + INTRA:          -2.837
REMARK INTER:                  -2.837
REMARK INTRA:                   0.000
REMARK UNBOUND:                 0.000
REMARK  Name = /home/vital/Documents/PhD_2021/Malaria_codes/scripts/../data/pdbqt_ligands/ligand_62_temp.pdb
REMARK                            x       y       z     vdW  Elec       q    Type
REMARK                         _______ _______ _______ _____ _____    ______ ____
ROOT
ATOM      1  C1  UNL     1      15.013  27.978  14.278  0.00  0.00    -0.040 C 
ATOM      2  C2  UNL     1      15.125  29.465  14.434  0.00  0.00    -0.050 A 
ATOM      3  C3  UNL     1      15.453  30.026  15.669  0.00  0.00    -0.055 A 
ATOM      4  C4  UNL     1      15.590  31.411  15.810  0.00  0.00    -0.019 A 
ATOM      5  C5  UNL     1      15.412  32.257  14.711  0.00  0.00    +0.123 A 
ATOM      6  O1  UNL     1      15.515  33.623  14.740  0.00  0.00    -0.491 OA
ATOM      7  C6  UNL     1      15.977  34.258  15.931  0.00  0.00    +0.100 C 
ATOM      8  C7  UNL     1      14.817  34.568  16.859  0.00  0.00    +0.079 C 
ATOM      9  C8  UNL     1      15.348  35.131  18.143  0.00  0.00    +0.310 C 
ATOM     10  O2  UNL     1      15.502  36.324  18.357  0.00  0.00    -0.251 OA
ATOM     11  O3  UNL     1      15.667  34.124  19.001  0.00  0.00    -0.465 OA
ATOM     12  C9  UNL     1      16.204  34.530  20.269  0.00  0.00    +0.092 C 
ATOM     13  C10 UNL     1      17.714  34.714  20.161  0.00  0.00    -0.018 C 
ATOM     14  C11 UNL     1      18.333  35.093  21.504  0.00  0.00    -0.048 C 
ATOM     15  C12 UNL     1      19.847  35.289  21.386  0.00  0.00    -0.030 C 
ATOM     16  C13 UNL     1      20.479  35.693  22.713  0.00  0.00    +0.044 C 
ATOM     17  O4  UNL     1      20.316  34.664  23.680  0.00  0.00    -0.395 OA
ATOM     18  C14 UNL     1      15.091  31.701  13.460  0.00  0.00    -0.009 A 
ATOM     19  C15 UNL     1      14.894  32.582  12.256  0.00  0.00    -0.036 C 
ATOM     20  C16 UNL     1      14.957  30.309  13.331  0.00  0.00    -0.052 A 
ATOM     21  H   UNL     1      19.369  34.506  23.827  0.00  0.00    +0.000 HD
ENDROOT
TORSDOF 0
ENDMDL
MODEL 4
REMARK VINA RESULT:    -2.826     21.677     22.979
REMARK INTER + INTRA:          -2.826
REMARK INTER:                  -2.826
REMARK INTRA:                   0.000
REMARK UNBOUND:                 0.000
REMARK  Name = /home/vital/Documents/PhD_2021/Malaria_codes/scripts/../data/pdbqt_ligands/ligand_62_temp.pdb
REMARK                            x       y       z     vdW  Elec       q    Type
REMARK                         _______ _______ _______ _____ _____    ______ ____
ROOT
ATOM      1  C1  UNL     1      31.874  46.676  16.969  0.00  0.00    -0.040 C 
ATOM      2  C2  UNL     1      32.527  45.423  16.465  0.00  0.00    -0.050 A 
ATOM      3  C3  UNL     1      32.779  44.357  17.331  0.00  0.00    -0.055 A 
ATOM      4  C4  UNL     1      33.359  43.176  16.856  0.00  0.00    -0.019 A 
ATOM      5  C5  UNL     1      33.685  43.038  15.505  0.00  0.00    +0.123 A 
ATOM      6  O1  UNL     1      34.261  41.931  14.938  0.00  0.00    -0.491 OA
ATOM      7  C6  UNL     1      34.425  40.755  15.729  0.00  0.00    +0.100 C 
ATOM      8  C7  UNL     1      35.757  40.778  16.456  0.00  0.00    +0.079 C 
ATOM      9  C8  UNL     1      35.847  39.585  17.359  0.00  0.00    +0.310 C 
ATOM     10  O2  UNL     1      36.335  38.513  17.034  0.00  0.00    -0.251 OA
ATOM     11  O3  UNL     1      35.272  39.862  18.561  0.00  0.00    -0.465 OA
ATOM     12  C9  UNL     1      35.278  38.792  19.519  0.00  0.00    +0.092 C 
ATOM     13  C10 UNL     1      34.059  37.899  19.310  0.00  0.00    -0.018 C 
ATOM     14  C11 UNL     1      33.999  36.779  20.346  0.00  0.00    -0.048 C 
ATOM     15  C12 UNL     1      32.779  35.879  20.123  0.00  0.00    -0.030 C 
ATOM     16  C13 UNL     1      32.716  34.739  21.132  0.00  0.00    +0.044 C 
ATOM     17  O4  UNL     1      32.564  35.244  22.452  0.00  0.00    -0.395 OA
ATOM     18  C14 UNL     1      33.427  44.103  14.623  0.00  0.00    -0.009 A 
ATOM     19  C15 UNL     1      33.764  43.989  13.161  0.00  0.00    -0.036 C 
ATOM     20  C16 UNL     1      32.844  45.283  15.110  0.00  0.00    -0.052 A 
ATOM     21  H   UNL     1      33.324  35.806  22.672  0.00  0.00    +0.000 HD
ENDROOT
TORSDOF 0
ENDMDL
MODEL 5
REMARK VINA RESULT:    -2.434     18.147     19.787
REMARK INTER + INTRA:          -2.434
REMARK INTER:                  -2.434
REMARK INTRA:                   0.000
REMARK UNBOUND:                 0.000
REMARK  Name = /home/vital/Documents/PhD_2021/Malaria_codes/scripts/../data/pdbqt_ligands/ligand_62_temp.pdb
REMARK                            x       y       z     vdW  Elec       q    Type
REMARK                         _______ _______ _______ _____ _____    ______ ____
ROOT
ATOM      1  C1  UNL     1      22.339  46.514  13.789  0.00  0.00    -0.040 C 
ATOM      2  C2  UNL     1      22.681  46.425  15.246  0.00  0.00    -0.050 A 
ATOM      3  C3  UNL     1      21.694  46.596  16.218  0.00  0.00    -0.055 A 
ATOM      4  C4  UNL     1      22.004  46.482  17.578  0.00  0.00    -0.019 A 
ATOM      5  C5  UNL     1      23.306  46.181  17.985  0.00  0.00    +0.123 A 
ATOM      6  O1  UNL     1      23.718  46.054  19.286  0.00  0.00    -0.491 OA
ATOM      7  C6  UNL     1      22.744  46.082  20.327  0.00  0.00    +0.100 C 
ATOM      8  C7  UNL     1      22.501  47.504  20.797  0.00  0.00    +0.079 C 
ATOM      9  C8  UNL     1      21.396  47.509  21.810  0.00  0.00    +0.310 C 
ATOM     10  O2  UNL     1      21.569  47.413  23.015  0.00  0.00    -0.251 OA
ATOM     11  O3  UNL     1      20.188  47.589  21.186  0.00  0.00    -0.465 OA
ATOM     12  C9  UNL     1      19.039  47.587  22.047  0.00  0.00    +0.092 C 
ATOM     13  C10 UNL     1      18.618  46.152  22.351  0.00  0.00    -0.018 C 
ATOM     14  C11 UNL     1      17.364  46.105  23.220  0.00  0.00    -0.048 C 
ATOM     15  C12 UNL     1      16.954  44.663  23.531  0.00  0.00    -0.030 C 
ATOM     16  C13 UNL     1      15.718  44.597  24.420  0.00  0.00    +0.044 C 
ATOM     17  O4  UNL     1      14.595  45.163  23.760  0.00  0.00    -0.395 OA
ATOM     18  C14 UNL     1      24.306  45.998  17.014  0.00  0.00    -0.009 A 
ATOM     19  C15 UNL     1      25.719  45.672  17.417  0.00  0.00    -0.036 C 
ATOM     20  C16 UNL     1      23.983  46.114  15.653  0.00  0.00    -0.052 A 
ATOM     21  H   UNL     1      14.775  46.095  23.555  0.00  0.00    +0.000 HD
ENDROOT
TORSDOF 0
ENDMDL
MODEL 6
REMARK VINA RESULT:    -2.431      5.042      9.188
REMARK INTER + INTRA:          -2.431
REMARK INTER:                  -2.431
REMARK INTRA:                   0.000
REMARK UNBOUND:                 0.000
REMARK  Name = /home/vital/Documents/PhD_2021/Malaria_codes/scripts/../data/pdbqt_ligands/ligand_62_temp.pdb
REMARK                            x       y       z     vdW  Elec       q    Type
REMARK                         _______ _______ _______ _____ _____    ______ ____
ROOT
ATOM      1  C1  UNL     1      15.161  27.610  19.845  0.00  0.00    -0.040 C 
ATOM      2  C2  UNL     1      15.074  28.014  18.403  0.00  0.00    -0.050 A 
ATOM      3  C3  UNL     1      15.665  29.198  17.961  0.00  0.00    -0.055 A 
ATOM      4  C4  UNL     1      15.613  29.561  16.611  0.00  0.00    -0.019 A 
ATOM      5  C5  UNL     1      14.977  28.736  15.679  0.00  0.00    +0.123 A 
ATOM      6  O1  UNL     1      14.862  28.998  14.339  0.00  0.00    -0.491 OA
ATOM      7  C6  UNL     1      15.554  30.119  13.790  0.00  0.00    +0.100 C 
ATOM      8  C7  UNL     1      14.695  31.368  13.862  0.00  0.00    +0.079 C 
ATOM      9  C8  UNL     1      15.491  32.544  13.382  0.00  0.00    +0.310 C 
ATOM     10  O2  UNL     1      15.509  32.933  12.224  0.00  0.00    -0.251 OA
ATOM     11  O3  UNL     1      16.213  33.072  14.408  0.00  0.00    -0.465 OA
ATOM     12  C9  UNL     1      17.036  34.202  14.076  0.00  0.00    +0.092 C 
ATOM     13  C10 UNL     1      18.392  33.726  13.564  0.00  0.00    -0.018 C 
ATOM     14  C11 UNL     1      19.319  34.898  13.252  0.00  0.00    -0.048 C 
ATOM     15  C12 UNL     1      20.674  34.414  12.727  0.00  0.00    -0.030 C 
ATOM     16  C13 UNL     1      21.604  35.572  12.386  0.00  0.00    +0.044 C 
ATOM     17  O4  UNL     1      21.909  36.330  13.548  0.00  0.00    -0.395 OA
ATOM     18  C14 UNL     1      14.386  27.536  16.112  0.00  0.00    -0.009 A 
ATOM     19  C15 UNL     1      13.694  26.623  15.136  0.00  0.00    -0.036 C 
ATOM     20  C16 UNL     1      14.446  27.182  17.470  0.00  0.00    -0.052 A 
ATOM     21  H   UNL     1      21.090  36.695  13.921  0.00  0.00    +0.000 HD
ENDROOT
TORSDOF 0
ENDMDL
MODEL 7
REMARK VINA RESULT:    -2.430     20.073     21.580
REMARK INTER + INTRA:          -2.430
REMARK INTER:                  -2.430
REMARK INTRA:                   0.000
REMARK UNBOUND:                 0.000
REMARK  Name = /home/vital/Documents/PhD_2021/Malaria_codes/scripts/../data/pdbqt_ligands/ligand_62_temp.pdb
REMARK                            x       y       z     vdW  Elec       q    Type
REMARK                         _______ _______ _______ _____ _____    ______ ____
ROOT
ATOM      1  C1  UNL     1      24.260  46.656  13.797  0.00  0.00    -0.040 C 
ATOM      2  C2  UNL     1      24.009  46.608  15.275  0.00  0.00    -0.050 A 
ATOM      3  C3  UNL     1      25.051  46.335  16.164  0.00  0.00    -0.055 A 
ATOM      4  C4  UNL     1      24.826  46.322  17.544  0.00  0.00    -0.019 A 
ATOM      5  C5  UNL     1      23.556  46.595  18.059  0.00  0.00    +0.123 A 
ATOM      6  O1  UNL     1      23.225  46.600  19.389  0.00  0.00    -0.491 OA
ATOM      7  C6  UNL     1      24.261  46.464  20.360  0.00  0.00    +0.100 C 
ATOM      8  C7  UNL     1      24.510  45.000  20.677  0.00  0.00    +0.079 C 
ATOM      9  C8  UNL     1      25.675  44.889  21.614  0.00  0.00    +0.310 C 
ATOM     10  O2  UNL     1      25.577  44.870  22.831  0.00  0.00    -0.251 OA
ATOM     11  O3  UNL     1      26.840  44.857  20.911  0.00  0.00    -0.465 OA
ATOM     12  C9  UNL     1      28.040  44.766  21.696  0.00  0.00    +0.092 C 
ATOM     13  C10 UNL     1      28.501  46.161  22.108  0.00  0.00    -0.018 C 
ATOM     14  C11 UNL     1      29.806  46.112  22.898  0.00  0.00    -0.048 C 
ATOM     15  C12 UNL     1      30.256  47.514  23.319  0.00  0.00    -0.030 C 
ATOM     16  C13 UNL     1      31.545  47.483  24.131  0.00  0.00    +0.044 C 
ATOM     17  O4  UNL     1      32.617  46.971  23.351  0.00  0.00    -0.395 OA
ATOM     18  C14 UNL     1      22.501  46.880  17.173  0.00  0.00    -0.009 A 
ATOM     19  C15 UNL     1      21.121  47.179  17.693  0.00  0.00    -0.036 C 
ATOM     20  C16 UNL     1      22.739  46.891  15.790  0.00  0.00    -0.052 A 
ATOM     21  H   UNL     1      32.410  46.066  23.071  0.00  0.00    +0.000 HD
ENDROOT
TORSDOF 0
ENDMDL
MODEL 8
REMARK VINA RESULT:    -2.320     17.380     22.292
REMARK INTER + INTRA:          -2.320
REMARK INTER:                  -2.320
REMARK INTRA:                   0.000
REMARK UNBOUND:                 0.000
REMARK  Name = /home/vital/Documents/PhD_2021/Malaria_codes/scripts/../data/pdbqt_ligands/ligand_62_temp.pdb
REMARK                            x       y       z     vdW  Elec       q    Type
REMARK                         _______ _______ _______ _____ _____    ______ ____
ROOT
ATOM      1  C1  UNL     1      19.106  46.081  36.360  0.00  0.00    -0.040 C 
ATOM      2  C2  UNL     1      17.976  45.587  35.506  0.00  0.00    -0.050 A 
ATOM      3  C3  UNL     1      18.050  45.669  34.115  0.00  0.00    -0.055 A 
ATOM      4  C4  UNL     1      17.012  45.180  33.315  0.00  0.00    -0.019 A 
ATOM      5  C5  UNL     1      15.888  44.588  33.896  0.00  0.00    +0.123 A 
ATOM      6  O1  UNL     1      14.814  44.084  33.209  0.00  0.00    -0.491 OA
ATOM      7  C6  UNL     1      14.876  44.011  31.786  0.00  0.00    +0.100 C 
ATOM      8  C7  UNL     1      14.366  45.296  31.160  0.00  0.00    +0.079 C 
ATOM      9  C8  UNL     1      14.548  45.227  29.673  0.00  0.00    +0.310 C 
ATOM     10  O2  UNL     1      13.700  44.815  28.896  0.00  0.00    -0.251 OA
ATOM     11  O3  UNL     1      15.798  45.646  29.334  0.00  0.00    -0.465 OA
ATOM     12  C9  UNL     1      16.108  45.615  27.931  0.00  0.00    +0.092 C 
ATOM     13  C10 UNL     1      16.628  44.234  27.543  0.00  0.00    -0.018 C 
ATOM     14  C11 UNL     1      17.022  44.175  26.070  0.00  0.00    -0.048 C 
ATOM     15  C12 UNL     1      17.531  42.784  25.683  0.00  0.00    -0.030 C 
ATOM     16  C13 UNL     1      17.905  42.698  24.209  0.00  0.00    +0.044 C 
ATOM     17  O4  UNL     1      18.981  43.578  23.912  0.00  0.00    -0.395 OA
ATOM     18  C14 UNL     1      15.807  44.491  35.297  0.00  0.00    -0.009 A 
ATOM     19  C15 UNL     1      14.611  43.859  35.957  0.00  0.00    -0.036 C 
ATOM     20  C16 UNL     1      16.856  44.985  36.089  0.00  0.00    -0.052 A 
ATOM     21  H   UNL     1      18.716  44.491  24.109  0.00  0.00    +0.000 HD
ENDROOT
TORSDOF 0
ENDMDL
MODEL 9
REMARK VINA RESULT:    -2.223     20.627     21.575
REMARK INTER + INTRA:          -2.223
REMARK INTER:                  -2.223
REMARK INTRA:                   0.000
REMARK UNBOUND:                 0.000
REMARK  Name = /home/vital/Documents/PhD_2021/Malaria_codes/scripts/../data/pdbqt_ligands/ligand_62_temp.pdb
REMARK                            x       y       z     vdW  Elec       q    Type
REMARK                         _______ _______ _______ _____ _____    ______ ____
ROOT
ATOM      1  C1  UNL     1      38.690  38.927  15.514  0.00  0.00    -0.040 C 
ATOM      2  C2  UNL     1      38.034  37.609  15.228  0.00  0.00    -0.050 A 
ATOM      3  C3  UNL     1      37.710  36.737  16.269  0.00  0.00    -0.055 A 
ATOM      4  C4  UNL     1      37.069  35.521  16.007  0.00  0.00    -0.019 A 
ATOM      5  C5  UNL     1      36.731  35.165  14.699  0.00  0.00    +0.123 A 
ATOM      6  O1  UNL     1      36.111  33.999  14.332  0.00  0.00    -0.491 OA
ATOM      7  C6  UNL     1      35.628  33.121  15.348  0.00  0.00    +0.100 C 
ATOM      8  C7  UNL     1      36.706  32.135  15.760  0.00  0.00    +0.079 C 
ATOM      9  C8  UNL     1      36.204  31.304  16.902  0.00  0.00    +0.310 C 
ATOM     10  O2  UNL     1      35.633  30.232  16.772  0.00  0.00    -0.251 OA
ATOM     11  O3  UNL     1      36.439  31.938  18.083  0.00  0.00    -0.465 OA
ATOM     12  C9  UNL     1      35.990  31.251  19.262  0.00  0.00    +0.092 C 
ATOM     13  C10 UNL     1      34.530  31.594  19.541  0.00  0.00    -0.018 C 
ATOM     14  C11 UNL     1      34.029  30.926  20.819  0.00  0.00    -0.048 C 
ATOM     15  C12 UNL     1      32.560  31.264  21.086  0.00  0.00    -0.030 C 
ATOM     16  C13 UNL     1      32.035  30.585  22.346  0.00  0.00    +0.044 C 
ATOM     17  O4  UNL     1      32.733  31.048  23.493  0.00  0.00    -0.395 OA
ATOM     18  C14 UNL     1      37.044  36.040  13.644  0.00  0.00    -0.009 A 
ATOM     19  C15 UNL     1      36.694  35.689  12.224  0.00  0.00    -0.036 C 
ATOM     20  C16 UNL     1      37.687  37.258  13.919  0.00  0.00    -0.052 A 
ATOM     21  H   UNL     1      33.677  30.840  23.404  0.00  0.00    +0.000 HD
ENDROOT
TORSDOF 0
ENDMDL
