MODEL 1
REMARK VINA RESULT:    -3.126      0.000      0.000
REMARK INTER + INTRA:          -3.126
REMARK INTER:                  -3.126
REMARK INTRA:                   0.000
REMARK UNBOUND:                 0.000
REMARK  Name = /home/vital/Documents/PhD_2021/Malaria_codes/scripts/../data/pdbqt_ligands/ligand_317_temp.pdb
REMARK                            x       y       z     vdW  Elec       q    Type
REMARK                         _______ _______ _______ _____ _____    ______ ____
ROOT
ATOM      1  O1  UNL     1      22.828  45.941  21.313  0.00  0.00    -0.252 OA
ATOM      2  C1  UNL     1      21.922  46.160  20.520  0.00  0.00    +0.308 C 
ATOM      3  N1  UNL     1      20.572  46.193  20.838  0.00  0.00    -0.269 N 
ATOM      4  C2  UNL     1      19.993  46.097  22.122  0.00  0.00    +0.038 A 
ATOM      5  C3  UNL     1      20.720  46.162  23.313  0.00  0.00    -0.040 A 
ATOM      6  C4  UNL     1      20.072  46.073  24.552  0.00  0.00    -0.052 A 
ATOM      7  C5  UNL     1      18.681  45.932  24.623  0.00  0.00    +0.013 A 
ATOM      8  C6  UNL     1      17.981  45.812  25.945  0.00  0.00    +0.072 C 
ATOM      9  O2  UNL     1      18.400  46.839  26.838  0.00  0.00    -0.390 OA
ATOM     10  C7  UNL     1      17.967  45.866  23.427  0.00  0.00    +0.130 A 
ATOM     11  F1  UNL     1      16.635  45.716  23.451  0.00  0.00    -0.205 F 
ATOM     12  C8  UNL     1      18.605  45.953  22.191  0.00  0.00    -0.005 A 
ATOM     13  N2  UNL     1      22.098  46.416  19.166  0.00  0.00    -0.269 N 
ATOM     14  C9  UNL     1      23.305  46.356  18.434  0.00  0.00    +0.038 A 
ATOM     15  C10 UNL     1      24.495  45.819  18.933  0.00  0.00    -0.022 A 
ATOM     16  C11 UNL     1      25.641  45.790  18.135  0.00  0.00    +0.044 A 
ATOM     17 CL1  UNL     1      27.098  45.115  18.757  0.00  0.00    -0.083 Cl
ATOM     18  C12 UNL     1      25.620  46.289  16.837  0.00  0.00    -0.025 A 
ATOM     19  C13 UNL     1      24.436  46.818  16.338  0.00  0.00    +0.044 A 
ATOM     20 CL2  UNL     1      24.390  47.445  14.735  0.00  0.00    -0.083 Cl
ATOM     21  C14 UNL     1      23.282  46.851  17.124  0.00  0.00    -0.022 A 
ATOM     22  H   UNL     1      19.948  46.293  20.084  0.00  0.00    +0.000 HD
ATOM     23  H   UNL     1      19.354  46.765  26.993  0.00  0.00    +0.000 HD
ATOM     24  H   UNL     1      21.292  46.667  18.660  0.00  0.00    +0.000 HD
ENDROOT
TORSDOF 0
ENDMDL
MODEL 2
REMARK VINA RESULT:    -2.915      7.870     11.459
REMARK INTER + INTRA:          -2.915
REMARK INTER:                  -2.915
REMARK INTRA:                   0.000
REMARK UNBOUND:                 0.000
REMARK  Name = /home/vital/Documents/PhD_2021/Malaria_codes/scripts/../data/pdbqt_ligands/ligand_317_temp.pdb
REMARK                            x       y       z     vdW  Elec       q    Type
REMARK                         _______ _______ _______ _____ _____    ______ ____
ROOT
ATOM      1  O1  UNL     1      27.636  44.899  14.415  0.00  0.00    -0.252 OA
ATOM      2  C1  UNL     1      27.633  45.101  15.622  0.00  0.00    +0.308 C 
ATOM      3  N1  UNL     1      28.710  44.889  16.470  0.00  0.00    -0.269 N 
ATOM      4  C2  UNL     1      30.024  44.518  16.109  0.00  0.00    +0.038 A 
ATOM      5  C3  UNL     1      30.498  44.507  14.796  0.00  0.00    -0.040 A 
ATOM      6  C4  UNL     1      31.821  44.139  14.517  0.00  0.00    -0.052 A 
ATOM      7  C5  UNL     1      32.699  43.789  15.550  0.00  0.00    +0.013 A 
ATOM      8  C6  UNL     1      34.110  43.370  15.258  0.00  0.00    +0.072 C 
ATOM      9  O2  UNL     1      34.748  44.301  14.389  0.00  0.00    -0.390 OA
ATOM     10  C7  UNL     1      32.212  43.800  16.856  0.00  0.00    +0.130 A 
ATOM     11  F1  UNL     1      33.015  43.457  17.873  0.00  0.00    -0.205 F 
ATOM     12  C8  UNL     1      30.897  44.164  17.141  0.00  0.00    -0.005 A 
ATOM     13  N2  UNL     1      26.547  45.581  16.342  0.00  0.00    -0.269 N 
ATOM     14  C9  UNL     1      25.237  45.808  15.865  0.00  0.00    +0.038 A 
ATOM     15  C10 UNL     1      24.775  45.381  14.617  0.00  0.00    -0.022 A 
ATOM     16  C11 UNL     1      23.458  45.639  14.230  0.00  0.00    +0.044 A 
ATOM     17 CL1  UNL     1      22.898  45.097  12.694  0.00  0.00    -0.083 Cl
ATOM     18  C12 UNL     1      22.586  46.321  15.073  0.00  0.00    -0.025 A 
ATOM     19  C13 UNL     1      23.043  46.741  16.316  0.00  0.00    +0.044 A 
ATOM     20 CL2  UNL     1      21.980  47.589  17.373  0.00  0.00    -0.083 Cl
ATOM     21  C14 UNL     1      24.356  46.486  16.718  0.00  0.00    -0.022 A 
ATOM     22  H   UNL     1      28.539  45.010  17.432  0.00  0.00    +0.000 HD
ATOM     23  H   UNL     1      34.266  44.343  13.549  0.00  0.00    +0.000 HD
ATOM     24  H   UNL     1      26.709  45.786  17.292  0.00  0.00    +0.000 HD
ENDROOT
TORSDOF 0
ENDMDL
MODEL 3
REMARK VINA RESULT:    -2.836     13.872     14.602
REMARK INTER + INTRA:          -2.836
REMARK INTER:                  -2.836
REMARK INTRA:                   0.000
REMARK UNBOUND:                 0.000
REMARK  Name = /home/vital/Documents/PhD_2021/Malaria_codes/scripts/../data/pdbqt_ligands/ligand_317_temp.pdb
REMARK                            x       y       z     vdW  Elec       q    Type
REMARK                         _______ _______ _______ _____ _____    ______ ____
ROOT
ATOM      1  O1  UNL     1      16.923  35.140  16.841  0.00  0.00    -0.252 OA
ATOM      2  C1  UNL     1      16.270  35.429  15.848  0.00  0.00    +0.308 C 
ATOM      3  N1  UNL     1      15.665  34.516  14.997  0.00  0.00    -0.269 N 
ATOM      4  C2  UNL     1      15.583  33.115  15.162  0.00  0.00    +0.038 A 
ATOM      5  C3  UNL     1      15.931  32.447  16.338  0.00  0.00    -0.040 A 
ATOM      6  C4  UNL     1      15.809  31.054  16.430  0.00  0.00    -0.052 A 
ATOM      7  C5  UNL     1      15.323  30.305  15.352  0.00  0.00    +0.013 A 
ATOM      8  C6  UNL     1      15.213  28.811  15.434  0.00  0.00    +0.072 C 
ATOM      9  O2  UNL     1      14.543  28.414  16.627  0.00  0.00    -0.390 OA
ATOM     10  C7  UNL     1      14.983  30.984  14.183  0.00  0.00    +0.130 A 
ATOM     11  F1  UNL     1      14.527  30.303  13.122  0.00  0.00    -0.205 F 
ATOM     12  C8  UNL     1      15.101  32.369  14.083  0.00  0.00    -0.005 A 
ATOM     13  N2  UNL     1      16.025  36.723  15.409  0.00  0.00    -0.269 N 
ATOM     14  C9  UNL     1      16.563  37.920  15.932  0.00  0.00    +0.038 A 
ATOM     15  C10 UNL     1      17.605  37.967  16.862  0.00  0.00    -0.022 A 
ATOM     16  C11 UNL     1      18.083  39.198  17.319  0.00  0.00    +0.044 A 
ATOM     17 CL1  UNL     1      19.376  39.242  18.456  0.00  0.00    -0.083 Cl
ATOM     18  C12 UNL     1      17.537  40.391  16.860  0.00  0.00    -0.025 A 
ATOM     19  C13 UNL     1      16.504  40.346  15.931  0.00  0.00    +0.044 A 
ATOM     20 CL2  UNL     1      15.812  41.813  15.353  0.00  0.00    -0.083 Cl
ATOM     21  C14 UNL     1      16.018  39.123  15.463  0.00  0.00    -0.022 A 
ATOM     22  H   UNL     1      15.245  34.885  14.187  0.00  0.00    +0.000 HD
ATOM     23  H   UNL     1      15.044  28.724  17.398  0.00  0.00    +0.000 HD
ATOM     24  H   UNL     1      15.407  36.817  14.648  0.00  0.00    +0.000 HD
ENDROOT
TORSDOF 0
ENDMDL
MODEL 4
REMARK VINA RESULT:    -2.741     13.209     15.912
REMARK INTER + INTRA:          -2.741
REMARK INTER:                  -2.741
REMARK INTRA:                   0.000
REMARK UNBOUND:                 0.000
REMARK  Name = /home/vital/Documents/PhD_2021/Malaria_codes/scripts/../data/pdbqt_ligands/ligand_317_temp.pdb
REMARK                            x       y       z     vdW  Elec       q    Type
REMARK                         _______ _______ _______ _____ _____    ______ ____
ROOT
ATOM      1  O1  UNL     1      34.154  39.593  16.823  0.00  0.00    -0.252 OA
ATOM      2  C1  UNL     1      34.606  39.890  15.725  0.00  0.00    +0.308 C 
ATOM      3  N1  UNL     1      34.486  41.134  15.122  0.00  0.00    -0.269 N 
ATOM      4  C2  UNL     1      33.937  42.308  15.683  0.00  0.00    +0.038 A 
ATOM      5  C3  UNL     1      33.610  42.448  17.033  0.00  0.00    -0.040 A 
ATOM      6  C4  UNL     1      33.080  43.652  17.518  0.00  0.00    -0.052 A 
ATOM      7  C5  UNL     1      32.882  44.742  16.664  0.00  0.00    +0.013 A 
ATOM      8  C6  UNL     1      32.292  46.026  17.170  0.00  0.00    +0.072 C 
ATOM      9  O2  UNL     1      32.962  46.463  18.349  0.00  0.00    -0.390 OA
ATOM     10  C7  UNL     1      33.210  44.588  15.317  0.00  0.00    +0.130 A 
ATOM     11  F1  UNL     1      33.022  45.603  14.462  0.00  0.00    -0.205 F 
ATOM     12  C8  UNL     1      33.736  43.394  14.827  0.00  0.00    -0.005 A 
ATOM     13  N2  UNL     1      35.317  39.028  14.901  0.00  0.00    -0.269 N 
ATOM     14  C9  UNL     1      35.549  37.649  15.103  0.00  0.00    +0.038 A 
ATOM     15  C10 UNL     1      34.909  36.884  16.081  0.00  0.00    -0.022 A 
ATOM     16  C11 UNL     1      35.191  35.522  16.204  0.00  0.00    +0.044 A 
ATOM     17 CL1  UNL     1      34.387  34.588  17.407  0.00  0.00    -0.083 Cl
ATOM     18  C12 UNL     1      36.106  34.903  15.358  0.00  0.00    -0.025 A 
ATOM     19  C13 UNL     1      36.739  35.662  14.381  0.00  0.00    +0.044 A 
ATOM     20 CL2  UNL     1      37.878  34.915  13.327  0.00  0.00    -0.083 Cl
ATOM     21  C14 UNL     1      36.464  37.024  14.245  0.00  0.00    -0.022 A 
ATOM     22  H   UNL     1      34.822  41.206  14.199  0.00  0.00    +0.000 HD
ATOM     23  H   UNL     1      32.867  45.792  19.043  0.00  0.00    +0.000 HD
ATOM     24  H   UNL     1      35.703  39.422  14.086  0.00  0.00    +0.000 HD
ENDROOT
TORSDOF 0
ENDMDL
MODEL 5
REMARK VINA RESULT:    -2.686      6.470      7.162
REMARK INTER + INTRA:          -2.686
REMARK INTER:                  -2.686
REMARK INTRA:                   0.000
REMARK UNBOUND:                 0.000
REMARK  Name = /home/vital/Documents/PhD_2021/Malaria_codes/scripts/../data/pdbqt_ligands/ligand_317_temp.pdb
REMARK                            x       y       z     vdW  Elec       q    Type
REMARK                         _______ _______ _______ _____ _____    ______ ____
ROOT
ATOM      1  O1  UNL     1      20.883  41.761  16.848  0.00  0.00    -0.252 OA
ATOM      2  C1  UNL     1      20.335  42.696  16.278  0.00  0.00    +0.308 C 
ATOM      3  N1  UNL     1      19.008  42.719  15.876  0.00  0.00    -0.269 N 
ATOM      4  C2  UNL     1      18.018  41.746  16.136  0.00  0.00    +0.038 A 
ATOM      5  C3  UNL     1      18.180  40.688  17.033  0.00  0.00    -0.040 A 
ATOM      6  C4  UNL     1      17.144  39.769  17.248  0.00  0.00    -0.052 A 
ATOM      7  C5  UNL     1      15.921  39.900  16.580  0.00  0.00    +0.013 A 
ATOM      8  C6  UNL     1      14.816  38.906  16.786  0.00  0.00    +0.072 C 
ATOM      9  O2  UNL     1      14.577  38.690  18.174  0.00  0.00    -0.390 OA
ATOM     10  C7  UNL     1      15.773  40.959  15.685  0.00  0.00    +0.130 A 
ATOM     11  F1  UNL     1      14.623  41.112  15.014  0.00  0.00    -0.205 F 
ATOM     12  C8  UNL     1      16.799  41.877  15.465  0.00  0.00    -0.005 A 
ATOM     13  N2  UNL     1      20.956  43.892  15.943  0.00  0.00    -0.269 N 
ATOM     14  C9  UNL     1      22.325  44.212  16.076  0.00  0.00    +0.038 A 
ATOM     15  C10 UNL     1      23.319  43.280  16.383  0.00  0.00    -0.022 A 
ATOM     16  C11 UNL     1      24.653  43.683  16.486  0.00  0.00    +0.044 A 
ATOM     17 CL1  UNL     1      25.870  42.521  16.855  0.00  0.00    -0.083 Cl
ATOM     18  C12 UNL     1      25.015  45.011  16.283  0.00  0.00    -0.025 A 
ATOM     19  C13 UNL     1      24.028  45.938  15.971  0.00  0.00    +0.044 A 
ATOM     20 CL2  UNL     1      24.455  47.586  15.720  0.00  0.00    -0.083 Cl
ATOM     21  C14 UNL     1      22.691  45.548  15.863  0.00  0.00    -0.022 A 
ATOM     22  H   UNL     1      18.725  43.501  15.350  0.00  0.00    +0.000 HD
ATOM     23  H   UNL     1      15.380  38.340  18.589  0.00  0.00    +0.000 HD
ATOM     24  H   UNL     1      20.376  44.595  15.570  0.00  0.00    +0.000 HD
ENDROOT
TORSDOF 0
ENDMDL
MODEL 6
REMARK VINA RESULT:    -2.578      4.790      8.811
REMARK INTER + INTRA:          -2.578
REMARK INTER:                  -2.578
REMARK INTRA:                   0.000
REMARK UNBOUND:                 0.000
REMARK  Name = /home/vital/Documents/PhD_2021/Malaria_codes/scripts/../data/pdbqt_ligands/ligand_317_temp.pdb
REMARK                            x       y       z     vdW  Elec       q    Type
REMARK                         _______ _______ _______ _____ _____    ______ ____
ROOT
ATOM      1  O1  UNL     1      20.190  45.961  20.643  0.00  0.00    -0.252 OA
ATOM      2  C1  UNL     1      21.103  45.780  21.437  0.00  0.00    +0.308 C 
ATOM      3  N1  UNL     1      22.443  45.658  21.100  0.00  0.00    -0.269 N 
ATOM      4  C2  UNL     1      23.023  45.828  19.824  0.00  0.00    +0.038 A 
ATOM      5  C3  UNL     1      22.346  46.359  18.723  0.00  0.00    -0.040 A 
ATOM      6  C4  UNL     1      22.995  46.510  17.490  0.00  0.00    -0.052 A 
ATOM      7  C5  UNL     1      24.339  46.147  17.340  0.00  0.00    +0.013 A 
ATOM      8  C6  UNL     1      25.034  46.283  16.017  0.00  0.00    +0.072 C 
ATOM      9  O2  UNL     1      24.828  47.580  15.465  0.00  0.00    -0.390 OA
ATOM     10  C7  UNL     1      25.002  45.616  18.445  0.00  0.00    +0.130 A 
ATOM     11  F1  UNL     1      26.285  45.243  18.339  0.00  0.00    -0.205 F 
ATOM     12  C8  UNL     1      24.364  45.462  19.674  0.00  0.00    -0.005 A 
ATOM     13  N2  UNL     1      20.946  45.668  22.812  0.00  0.00    -0.269 N 
ATOM     14  C9  UNL     1      19.733  45.620  23.534  0.00  0.00    +0.038 A 
ATOM     15  C10 UNL     1      18.476  45.470  22.941  0.00  0.00    -0.022 A 
ATOM     16  C11 UNL     1      17.327  45.423  23.733  0.00  0.00    +0.044 A 
ATOM     17 CL1  UNL     1      15.786  45.226  22.990  0.00  0.00    -0.083 Cl
ATOM     18  C12 UNL     1      17.410  45.521  25.118  0.00  0.00    -0.025 A 
ATOM     19  C13 UNL     1      18.659  45.664  25.709  0.00  0.00    +0.044 A 
ATOM     20 CL2  UNL     1      18.782  45.791  27.422  0.00  0.00    -0.083 Cl
ATOM     21  C14 UNL     1      19.817  45.710  24.930  0.00  0.00    -0.022 A 
ATOM     22  H   UNL     1      23.058  45.426  21.832  0.00  0.00    +0.000 HD
ATOM     23  H   UNL     1      23.880  47.725  15.324  0.00  0.00    +0.000 HD
ATOM     24  H   UNL     1      21.774  45.616  23.344  0.00  0.00    +0.000 HD
ENDROOT
TORSDOF 0
ENDMDL
MODEL 7
REMARK VINA RESULT:    -2.458     20.690     21.208
REMARK INTER + INTRA:          -2.458
REMARK INTER:                  -2.458
REMARK INTRA:                   0.000
REMARK UNBOUND:                 0.000
REMARK  Name = /home/vital/Documents/PhD_2021/Malaria_codes/scripts/../data/pdbqt_ligands/ligand_317_temp.pdb
REMARK                            x       y       z     vdW  Elec       q    Type
REMARK                         _______ _______ _______ _____ _____    ______ ____
ROOT
ATOM      1  O1  UNL     1      16.803  25.123  18.900  0.00  0.00    -0.252 OA
ATOM      2  C1  UNL     1      16.517  26.251  19.277  0.00  0.00    +0.308 C 
ATOM      3  N1  UNL     1      16.721  26.741  20.559  0.00  0.00    -0.269 N 
ATOM      4  C2  UNL     1      17.386  26.096  21.626  0.00  0.00    +0.038 A 
ATOM      5  C3  UNL     1      18.133  24.925  21.485  0.00  0.00    -0.040 A 
ATOM      6  C4  UNL     1      18.776  24.350  22.590  0.00  0.00    -0.052 A 
ATOM      7  C5  UNL     1      18.696  24.946  23.854  0.00  0.00    +0.013 A 
ATOM      8  C6  UNL     1      19.361  24.325  25.047  0.00  0.00    +0.072 C 
ATOM      9  O2  UNL     1      20.718  24.000  24.761  0.00  0.00    -0.390 OA
ATOM     10  C7  UNL     1      17.944  26.114  23.981  0.00  0.00    +0.130 A 
ATOM     11  F1  UNL     1      17.829  26.709  25.177  0.00  0.00    -0.205 F 
ATOM     12  C8  UNL     1      17.301  26.690  22.888  0.00  0.00    -0.005 A 
ATOM     13  N2  UNL     1      15.941  27.232  18.480  0.00  0.00    -0.269 N 
ATOM     14  C9  UNL     1      15.473  27.091  17.154  0.00  0.00    +0.038 A 
ATOM     15  C10 UNL     1      15.331  25.862  16.503  0.00  0.00    -0.022 A 
ATOM     16  C11 UNL     1      14.850  25.814  15.192  0.00  0.00    +0.044 A 
ATOM     17 CL1  UNL     1      14.669  24.293  14.405  0.00  0.00    -0.083 Cl
ATOM     18  C12 UNL     1      14.504  26.979  14.516  0.00  0.00    -0.025 A 
ATOM     19  C13 UNL     1      14.640  28.201  15.164  0.00  0.00    +0.044 A 
ATOM     20 CL2  UNL     1      14.220  29.654  14.343  0.00  0.00    -0.083 Cl
ATOM     21  C14 UNL     1      15.116  28.263  16.476  0.00  0.00    -0.022 A 
ATOM     22  H   UNL     1      16.363  27.638  20.747  0.00  0.00    +0.000 HD
ATOM     23  H   UNL     1      20.752  23.364  24.031  0.00  0.00    +0.000 HD
ATOM     24  H   UNL     1      15.848  28.125  18.884  0.00  0.00    +0.000 HD
ENDROOT
TORSDOF 0
ENDMDL
MODEL 8
REMARK VINA RESULT:    -0.284     12.891     13.282
REMARK INTER + INTRA:          -0.284
REMARK INTER:                  -0.284
REMARK INTRA:                   0.000
REMARK UNBOUND:                 0.000
REMARK  Name = /home/vital/Documents/PhD_2021/Malaria_codes/scripts/../data/pdbqt_ligands/ligand_317_temp.pdb
REMARK                            x       y       z     vdW  Elec       q    Type
REMARK                         _______ _______ _______ _____ _____    ______ ____
ROOT
ATOM      1  O1  UNL     1      19.674  33.283  17.835  0.00  0.00    -0.252 OA
ATOM      2  C1  UNL     1      19.518  34.490  17.969  0.00  0.00    +0.308 C 
ATOM      3  N1  UNL     1      19.998  35.244  19.030  0.00  0.00    -0.269 N 
ATOM      4  C2  UNL     1      20.836  34.808  20.080  0.00  0.00    +0.038 A 
ATOM      5  C3  UNL     1      21.490  33.574  20.095  0.00  0.00    -0.040 A 
ATOM      6  C4  UNL     1      22.318  33.218  21.168  0.00  0.00    -0.052 A 
ATOM      7  C5  UNL     1      22.520  34.097  22.238  0.00  0.00    +0.013 A 
ATOM      8  C6  UNL     1      23.386  33.714  23.402  0.00  0.00    +0.072 C 
ATOM      9  O2  UNL     1      24.643  33.211  22.958  0.00  0.00    -0.390 OA
ATOM     10  C7  UNL     1      21.860  35.325  22.212  0.00  0.00    +0.130 A 
ATOM     11  F1  UNL     1      22.015  36.190  23.224  0.00  0.00    -0.205 F 
ATOM     12  C8  UNL     1      21.034  35.686  21.149  0.00  0.00    -0.005 A 
ATOM     13  N2  UNL     1      18.834  35.305  17.077  0.00  0.00    -0.269 N 
ATOM     14  C9  UNL     1      18.103  34.901  15.938  0.00  0.00    +0.038 A 
ATOM     15  C10 UNL     1      17.780  33.573  15.647  0.00  0.00    -0.022 A 
ATOM     16  C11 UNL     1      17.042  33.264  14.501  0.00  0.00    +0.044 A 
ATOM     17 CL1  UNL     1      16.642  31.624  14.161  0.00  0.00    -0.083 Cl
ATOM     18  C12 UNL     1      16.616  34.265  13.635  0.00  0.00    -0.025 A 
ATOM     19  C13 UNL     1      16.931  35.586  13.926  0.00  0.00    +0.044 A 
ATOM     20 CL2  UNL     1      16.416  36.840  12.865  0.00  0.00    -0.083 Cl
ATOM     21  C14 UNL     1      17.665  35.910  15.070  0.00  0.00    -0.022 A 
ATOM     22  H   UNL     1      19.723  36.188  19.054  0.00  0.00    +0.000 HD
ATOM     23  H   UNL     1      24.501  32.421  22.414  0.00  0.00    +0.000 HD
ATOM     24  H   UNL     1      18.863  36.272  17.258  0.00  0.00    +0.000 HD
ENDROOT
TORSDOF 0
ENDMDL
