MODEL 1
REMARK VINA RESULT:    -3.638      0.000      0.000
REMARK INTER + INTRA:          -3.638
REMARK INTER:                  -3.638
REMARK INTRA:                   0.000
REMARK UNBOUND:                 0.000
REMARK  Name = /home/vital/Documents/PhD_2021/Malaria_codes/scripts/../data/pdbqt_ligands/ligand_322_temp.pdb
REMARK                            x       y       z     vdW  Elec       q    Type
REMARK                         _______ _______ _______ _____ _____    ______ ____
ROOT
ATOM      1  O1  UNL     1      30.577  44.895  18.287  0.00  0.00    -0.270 OA
ATOM      2  C1  UNL     1      30.228  44.969  17.116  0.00  0.00    +0.250 C 
ATOM      3  N1  UNL     1      28.975  45.261  16.630  0.00  0.00    -0.261 N 
ATOM      4  C2  UNL     1      27.833  45.470  17.360  0.00  0.00    +0.165 A 
ATOM      5  N2  UNL     1      26.715  45.813  16.764  0.00  0.00    -0.223 NA
ATOM      6  C3  UNL     1      25.702  45.955  17.711  0.00  0.00    +0.098 A 
ATOM      7  C4  UNL     1      24.339  46.339  17.346  0.00  0.00    +0.090 A 
ATOM      8  C5  UNL     1      24.008  46.590  16.018  0.00  0.00    -0.034 A 
ATOM      9  C6  UNL     1      22.700  46.954  15.709  0.00  0.00    -0.058 A 
ATOM     10  C7  UNL     1      21.763  47.055  16.729  0.00  0.00    -0.044 A 
ATOM     11  C8  UNL     1      22.174  46.788  18.024  0.00  0.00    +0.028 A 
ATOM     12  N3  UNL     1      23.435  46.434  18.356  0.00  0.00    -0.253 NA
ATOM     13  C9  UNL     1      26.095  45.701  19.012  0.00  0.00    +0.006 A 
ATOM     14  S1  UNL     1      27.754  45.280  19.049  0.00  0.00    -0.060 S 
ATOM     15  C10 UNL     1      31.268  44.761  16.069  0.00  0.00    +0.039 A 
ATOM     16  C11 UNL     1      32.578  45.182  16.337  0.00  0.00    -0.046 A 
ATOM     17  C12 UNL     1      33.585  45.004  15.386  0.00  0.00    -0.018 A 
ATOM     18  C13 UNL     1      33.282  44.394  14.174  0.00  0.00    +0.135 A 
ATOM     19  O2  UNL     1      34.300  44.243  13.275  0.00  0.00    -0.505 OA
ATOM     20  C14 UNL     1      31.982  43.955  13.907  0.00  0.00    +0.083 A 
ATOM     21 CL1  UNL     1      31.614  43.187  12.408  0.00  0.00    -0.080 Cl
ATOM     22  C15 UNL     1      30.971  44.132  14.852  0.00  0.00    -0.028 A 
ATOM     23  H   UNL     1      28.888  45.328  15.651  0.00  0.00    +0.000 HD
ATOM     24  H   UNL     1      35.160  44.549  13.487  0.00  0.00    +0.000 HD
ENDROOT
TORSDOF 0
ENDMDL
MODEL 2
REMARK VINA RESULT:    -3.527     19.418     21.008
REMARK INTER + INTRA:          -3.527
REMARK INTER:                  -3.527
REMARK INTRA:                   0.000
REMARK UNBOUND:                 0.000
REMARK  Name = /home/vital/Documents/PhD_2021/Malaria_codes/scripts/../data/pdbqt_ligands/ligand_322_temp.pdb
REMARK                            x       y       z     vdW  Elec       q    Type
REMARK                         _______ _______ _______ _____ _____    ______ ____
ROOT
ATOM      1  O1  UNL     1      15.662  28.266  12.988  0.00  0.00    -0.270 OA
ATOM      2  C1  UNL     1      15.594  28.150  14.205  0.00  0.00    +0.250 C 
ATOM      3  N1  UNL     1      15.535  29.153  15.143  0.00  0.00    -0.261 N 
ATOM      4  C2  UNL     1      15.605  30.504  14.915  0.00  0.00    +0.165 A 
ATOM      5  N2  UNL     1      15.463  31.354  15.904  0.00  0.00    -0.223 NA
ATOM      6  C3  UNL     1      15.584  32.657  15.424  0.00  0.00    +0.098 A 
ATOM      7  C4  UNL     1      15.464  33.825  16.295  0.00  0.00    +0.090 A 
ATOM      8  C5  UNL     1      15.210  33.669  17.655  0.00  0.00    -0.034 A 
ATOM      9  C6  UNL     1      15.103  34.806  18.453  0.00  0.00    -0.058 A 
ATOM     10  C7  UNL     1      15.252  36.060  17.876  0.00  0.00    -0.044 A 
ATOM     11  C8  UNL     1      15.503  36.128  16.515  0.00  0.00    +0.028 A 
ATOM     12  N3  UNL     1      15.612  35.045  15.714  0.00  0.00    -0.253 NA
ATOM     13  C9  UNL     1      15.825  32.747  14.066  0.00  0.00    +0.006 A 
ATOM     14  S1  UNL     1      15.902  31.179  13.382  0.00  0.00    -0.060 S 
ATOM     15  C10 UNL     1      15.527  26.770  14.765  0.00  0.00    +0.039 A 
ATOM     16  C11 UNL     1      14.864  25.781  14.024  0.00  0.00    -0.046 A 
ATOM     17  C12 UNL     1      14.780  24.474  14.510  0.00  0.00    -0.018 A 
ATOM     18  C13 UNL     1      15.369  24.157  15.729  0.00  0.00    +0.135 A 
ATOM     19  O2  UNL     1      15.258  22.866  16.161  0.00  0.00    -0.505 OA
ATOM     20  C14 UNL     1      16.046  25.133  16.464  0.00  0.00    +0.083 A 
ATOM     21 CL1  UNL     1      16.787  24.732  17.968  0.00  0.00    -0.080 Cl
ATOM     22  C15 UNL     1      16.133  26.441  15.986  0.00  0.00    -0.028 A 
ATOM     23  H   UNL     1      15.432  28.871  16.081  0.00  0.00    +0.000 HD
ATOM     24  H   UNL     1      14.797  22.236  15.644  0.00  0.00    +0.000 HD
ENDROOT
TORSDOF 0
ENDMDL
MODEL 3
REMARK VINA RESULT:    -3.310     21.894     23.454
REMARK INTER + INTRA:          -3.310
REMARK INTER:                  -3.310
REMARK INTRA:                   0.000
REMARK UNBOUND:                 0.000
REMARK  Name = /home/vital/Documents/PhD_2021/Malaria_codes/scripts/../data/pdbqt_ligands/ligand_322_temp.pdb
REMARK                            x       y       z     vdW  Elec       q    Type
REMARK                         _______ _______ _______ _____ _____    ______ ____
ROOT
ATOM      1  O1  UNL     1      14.689  28.441  17.524  0.00  0.00    -0.270 OA
ATOM      2  C1  UNL     1      14.956  27.362  18.037  0.00  0.00    +0.250 C 
ATOM      3  N1  UNL     1      15.155  27.093  19.371  0.00  0.00    -0.261 N 
ATOM      4  C2  UNL     1      15.157  27.994  20.405  0.00  0.00    +0.165 A 
ATOM      5  N2  UNL     1      15.289  27.584  21.645  0.00  0.00    -0.223 NA
ATOM      6  C3  UNL     1      15.272  28.680  22.506  0.00  0.00    +0.098 A 
ATOM      7  C4  UNL     1      15.393  28.536  23.956  0.00  0.00    +0.090 A 
ATOM      8  C5  UNL     1      15.521  27.276  24.532  0.00  0.00    -0.034 A 
ATOM      9  C6  UNL     1      15.634  27.179  25.917  0.00  0.00    -0.058 A 
ATOM     10  C7  UNL     1      15.618  28.337  26.684  0.00  0.00    -0.044 A 
ATOM     11  C8  UNL     1      15.487  29.552  26.032  0.00  0.00    +0.028 A 
ATOM     12  N3  UNL     1      15.376  29.679  24.692  0.00  0.00    -0.253 NA
ATOM     13  C9  UNL     1      15.134  29.902  21.875  0.00  0.00    +0.006 A 
ATOM     14  S1  UNL     1      15.024  29.675  20.181  0.00  0.00    -0.060 S 
ATOM     15  C10 UNL     1      15.048  26.173  17.143  0.00  0.00    +0.039 A 
ATOM     16  C11 UNL     1      14.209  26.118  16.020  0.00  0.00    -0.046 A 
ATOM     17  C12 UNL     1      14.263  25.025  15.153  0.00  0.00    -0.018 A 
ATOM     18  C13 UNL     1      15.162  23.994  15.404  0.00  0.00    +0.135 A 
ATOM     19  O2  UNL     1      15.176  22.946  14.528  0.00  0.00    -0.505 OA
ATOM     20  C14 UNL     1      16.013  24.052  16.511  0.00  0.00    +0.083 A 
ATOM     21 CL1  UNL     1      17.138  22.779  16.811  0.00  0.00    -0.080 Cl
ATOM     22  C15 UNL     1      15.964  25.140  17.382  0.00  0.00    -0.028 A 
ATOM     23  H   UNL     1      15.312  26.150  19.610  0.00  0.00    +0.000 HD
ATOM     24  H   UNL     1      14.592  22.940  13.796  0.00  0.00    +0.000 HD
ENDROOT
TORSDOF 0
ENDMDL
MODEL 4
REMARK VINA RESULT:    -3.303      4.079      8.954
REMARK INTER + INTRA:          -3.303
REMARK INTER:                  -3.303
REMARK INTRA:                   0.000
REMARK UNBOUND:                 0.000
REMARK  Name = /home/vital/Documents/PhD_2021/Malaria_codes/scripts/../data/pdbqt_ligands/ligand_322_temp.pdb
REMARK                            x       y       z     vdW  Elec       q    Type
REMARK                         _______ _______ _______ _____ _____    ______ ____
ROOT
ATOM      1  O1  UNL     1      24.979  44.485  13.511  0.00  0.00    -0.270 OA
ATOM      2  C1  UNL     1      25.429  45.012  14.521  0.00  0.00    +0.250 C 
ATOM      3  N1  UNL     1      26.746  45.095  14.909  0.00  0.00    -0.261 N 
ATOM      4  C2  UNL     1      27.831  44.547  14.275  0.00  0.00    +0.165 A 
ATOM      5  N2  UNL     1      29.045  44.768  14.721  0.00  0.00    -0.223 NA
ATOM      6  C3  UNL     1      29.969  44.100  13.920  0.00  0.00    +0.098 A 
ATOM      7  C4  UNL     1      31.409  44.164  14.168  0.00  0.00    +0.090 A 
ATOM      8  C5  UNL     1      31.910  44.917  15.226  0.00  0.00    -0.034 A 
ATOM      9  C6  UNL     1      33.288  44.954  15.431  0.00  0.00    -0.058 A 
ATOM     10  C7  UNL     1      34.122  44.241  14.579  0.00  0.00    -0.044 A 
ATOM     11  C8  UNL     1      33.542  43.516  13.551  0.00  0.00    +0.028 A 
ATOM     12  N3  UNL     1      32.211  43.461  13.326  0.00  0.00    -0.253 NA
ATOM     13  C9  UNL     1      29.411  43.378  12.883  0.00  0.00    +0.006 A 
ATOM     14  S1  UNL     1      27.707  43.538  12.911  0.00  0.00    -0.060 S 
ATOM     15  C10 UNL     1      24.466  45.684  15.439  0.00  0.00    +0.039 A 
ATOM     16  C11 UNL     1      23.338  46.305  14.884  0.00  0.00    -0.046 A 
ATOM     17  C12 UNL     1      22.409  46.944  15.708  0.00  0.00    -0.018 A 
ATOM     18  C13 UNL     1      22.603  46.950  17.084  0.00  0.00    +0.135 A 
ATOM     19  O2  UNL     1      21.666  47.589  17.847  0.00  0.00    -0.505 OA
ATOM     20  C14 UNL     1      23.715  46.317  17.646  0.00  0.00    +0.083 A 
ATOM     21 CL1  UNL     1      23.944  46.314  19.355  0.00  0.00    -0.080 Cl
ATOM     22  C15 UNL     1      24.648  45.679  16.829  0.00  0.00    -0.028 A 
ATOM     23  H   UNL     1      26.929  45.604  15.733  0.00  0.00    +0.000 HD
ATOM     24  H   UNL     1      20.933  48.003  17.438  0.00  0.00    +0.000 HD
ENDROOT
TORSDOF 0
ENDMDL
MODEL 5
REMARK VINA RESULT:    -3.127     14.381     16.975
REMARK INTER + INTRA:          -3.127
REMARK INTER:                  -3.127
REMARK INTRA:                   0.000
REMARK UNBOUND:                 0.000
REMARK  Name = /home/vital/Documents/PhD_2021/Malaria_codes/scripts/../data/pdbqt_ligands/ligand_322_temp.pdb
REMARK                            x       y       z     vdW  Elec       q    Type
REMARK                         _______ _______ _______ _____ _____    ______ ____
ROOT
ATOM      1  O1  UNL     1      15.486  37.632  17.641  0.00  0.00    -0.270 OA
ATOM      2  C1  UNL     1      15.673  37.630  16.431  0.00  0.00    +0.250 C 
ATOM      3  N1  UNL     1      15.744  36.542  15.593  0.00  0.00    -0.261 N 
ATOM      4  C2  UNL     1      15.684  35.219  15.949  0.00  0.00    +0.165 A 
ATOM      5  N2  UNL     1      15.694  34.282  15.032  0.00  0.00    -0.223 NA
ATOM      6  C3  UNL     1      15.636  33.029  15.640  0.00  0.00    +0.098 A 
ATOM      7  C4  UNL     1      15.625  31.786  14.869  0.00  0.00    +0.090 A 
ATOM      8  C5  UNL     1      15.661  31.817  13.478  0.00  0.00    -0.034 A 
ATOM      9  C6  UNL     1      15.650  30.613  12.778  0.00  0.00    -0.058 A 
ATOM     10  C7  UNL     1      15.603  29.417  13.483  0.00  0.00    -0.044 A 
ATOM     11  C8  UNL     1      15.568  29.473  14.867  0.00  0.00    +0.028 A 
ATOM     12  N3  UNL     1      15.579  30.625  15.574  0.00  0.00    -0.253 NA
ATOM     13  C9  UNL     1      15.593  33.064  17.021  0.00  0.00    +0.006 A 
ATOM     14  S1  UNL     1      15.624  34.687  17.564  0.00  0.00    -0.060 S 
ATOM     15  C10 UNL     1      15.804  38.950  15.749  0.00  0.00    +0.039 A 
ATOM     16  C11 UNL     1      15.066  40.034  16.246  0.00  0.00    -0.046 A 
ATOM     17  C12 UNL     1      15.161  41.288  15.640  0.00  0.00    -0.018 A 
ATOM     18  C13 UNL     1      16.002  41.459  14.546  0.00  0.00    +0.135 A 
ATOM     19  O2  UNL     1      16.060  42.704  13.988  0.00  0.00    -0.505 OA
ATOM     20  C14 UNL     1      16.754  40.388  14.057  0.00  0.00    +0.083 A 
ATOM     21 CL1  UNL     1      17.807  40.607  12.709  0.00  0.00    -0.080 Cl
ATOM     22  C15 UNL     1      16.663  39.131  14.656  0.00  0.00    -0.028 A 
ATOM     23  H   UNL     1      15.850  36.734  14.633  0.00  0.00    +0.000 HD
ATOM     24  H   UNL     1      15.542  43.400  14.341  0.00  0.00    +0.000 HD
ENDROOT
TORSDOF 0
ENDMDL
MODEL 6
REMARK VINA RESULT:    -3.021      6.842     11.223
REMARK INTER + INTRA:          -3.021
REMARK INTER:                  -3.021
REMARK INTRA:                   0.000
REMARK UNBOUND:                 0.000
REMARK  Name = /home/vital/Documents/PhD_2021/Malaria_codes/scripts/../data/pdbqt_ligands/ligand_322_temp.pdb
REMARK                            x       y       z     vdW  Elec       q    Type
REMARK                         _______ _______ _______ _____ _____    ______ ____
ROOT
ATOM      1  O1  UNL     1      32.033  42.364  13.408  0.00  0.00    -0.270 OA
ATOM      2  C1  UNL     1      32.802  42.265  14.355  0.00  0.00    +0.250 C 
ATOM      3  N1  UNL     1      33.741  41.284  14.576  0.00  0.00    -0.261 N 
ATOM      4  C2  UNL     1      33.970  40.171  13.809  0.00  0.00    +0.165 A 
ATOM      5  N2  UNL     1      34.952  39.352  14.102  0.00  0.00    -0.223 NA
ATOM      6  C3  UNL     1      34.973  38.298  13.189  0.00  0.00    +0.098 A 
ATOM      7  C4  UNL     1      35.965  37.226  13.256  0.00  0.00    +0.090 A 
ATOM      8  C5  UNL     1      36.944  37.230  14.245  0.00  0.00    -0.034 A 
ATOM      9  C6  UNL     1      37.872  36.191  14.277  0.00  0.00    -0.058 A 
ATOM     10  C7  UNL     1      37.796  35.182  13.325  0.00  0.00    -0.044 A 
ATOM     11  C8  UNL     1      36.791  35.253  12.375  0.00  0.00    +0.028 A 
ATOM     12  N3  UNL     1      35.877  36.246  12.318  0.00  0.00    -0.253 NA
ATOM     13  C9  UNL     1      33.983  38.355  12.227  0.00  0.00    +0.006 A 
ATOM     14  S1  UNL     1      33.014  39.746  12.468  0.00  0.00    -0.060 S 
ATOM     15  C10 UNL     1      32.769  43.338  15.389  0.00  0.00    +0.039 A 
ATOM     16  C11 UNL     1      32.476  44.648  14.981  0.00  0.00    -0.046 A 
ATOM     17  C12 UNL     1      32.431  45.684  15.916  0.00  0.00    -0.018 A 
ATOM     18  C13 UNL     1      32.668  45.406  17.258  0.00  0.00    +0.135 A 
ATOM     19  O2  UNL     1      32.614  46.454  18.134  0.00  0.00    -0.505 OA
ATOM     20  C14 UNL     1      32.942  44.101  17.674  0.00  0.00    +0.083 A 
ATOM     21 CL1  UNL     1      33.220  43.759  19.341  0.00  0.00    -0.080 Cl
ATOM     22  C15 UNL     1      32.991  43.062  16.745  0.00  0.00    -0.028 A 
ATOM     23  H   UNL     1      34.311  41.394  15.372  0.00  0.00    +0.000 HD
ATOM     24  H   UNL     1      32.427  47.317  17.821  0.00  0.00    +0.000 HD
ENDROOT
TORSDOF 0
ENDMDL
MODEL 7
REMARK VINA RESULT:    -2.912     22.883     23.968
REMARK INTER + INTRA:          -2.912
REMARK INTER:                  -2.912
REMARK INTRA:                   0.000
REMARK UNBOUND:                 0.000
REMARK  Name = /home/vital/Documents/PhD_2021/Malaria_codes/scripts/../data/pdbqt_ligands/ligand_322_temp.pdb
REMARK                            x       y       z     vdW  Elec       q    Type
REMARK                         _______ _______ _______ _____ _____    ______ ____
ROOT
ATOM      1  O1  UNL     1      19.927  25.458  22.059  0.00  0.00    -0.270 OA
ATOM      2  C1  UNL     1      18.737  25.591  22.314  0.00  0.00    +0.250 C 
ATOM      3  N1  UNL     1      17.686  25.624  21.427  0.00  0.00    -0.261 N 
ATOM      4  C2  UNL     1      17.758  25.577  20.058  0.00  0.00    +0.165 A 
ATOM      5  N2  UNL     1      16.664  25.544  19.335  0.00  0.00    -0.223 NA
ATOM      6  C3  UNL     1      16.996  25.511  17.982  0.00  0.00    +0.098 A 
ATOM      7  C4  UNL     1      15.982  25.463  16.929  0.00  0.00    +0.090 A 
ATOM      8  C5  UNL     1      14.628  25.438  17.253  0.00  0.00    -0.034 A 
ATOM      9  C6  UNL     1      13.692  25.393  16.223  0.00  0.00    -0.058 A 
ATOM     10  C7  UNL     1      14.130  25.375  14.905  0.00  0.00    -0.044 A 
ATOM     11  C8  UNL     1      15.494  25.402  14.669  0.00  0.00    +0.028 A 
ATOM     12  N3  UNL     1      16.427  25.446  15.645  0.00  0.00    -0.253 NA
ATOM     13  C9  UNL     1      18.354  25.528  17.725  0.00  0.00    +0.006 A 
ATOM     14  S1  UNL     1      19.225  25.587  19.197  0.00  0.00    -0.060 S 
ATOM     15  C10 UNL     1      18.343  25.695  23.748  0.00  0.00    +0.039 A 
ATOM     16  C11 UNL     1      19.089  24.982  24.697  0.00  0.00    -0.046 A 
ATOM     17  C12 UNL     1      18.758  25.053  26.052  0.00  0.00    -0.018 A 
ATOM     18  C13 UNL     1      17.689  25.845  26.455  0.00  0.00    +0.135 A 
ATOM     19  O2  UNL     1      17.404  25.881  27.791  0.00  0.00    -0.505 OA
ATOM     20  C14 UNL     1      16.953  26.573  25.517  0.00  0.00    +0.083 A 
ATOM     21 CL1  UNL     1      15.637  27.565  26.023  0.00  0.00    -0.080 Cl
ATOM     22  C15 UNL     1      17.277  26.505  24.162  0.00  0.00    -0.028 A 
ATOM     23  H   UNL     1      16.784  25.688  21.818  0.00  0.00    +0.000 HD
ATOM     24  H   UNL     1      17.918  25.380  28.393  0.00  0.00    +0.000 HD
ENDROOT
TORSDOF 0
ENDMDL
MODEL 8
REMARK VINA RESULT:    -2.632      6.492      9.309
REMARK INTER + INTRA:          -2.632
REMARK INTER:                  -2.632
REMARK INTRA:                   0.000
REMARK UNBOUND:                 0.000
REMARK  Name = /home/vital/Documents/PhD_2021/Malaria_codes/scripts/../data/pdbqt_ligands/ligand_322_temp.pdb
REMARK                            x       y       z     vdW  Elec       q    Type
REMARK                         _______ _______ _______ _____ _____    ______ ____
ROOT
ATOM      1  O1  UNL     1      19.774  47.569  17.760  0.00  0.00    -0.270 OA
ATOM      2  C1  UNL     1      20.761  46.977  18.178  0.00  0.00    +0.250 C 
ATOM      3  N1  UNL     1      20.971  46.480  19.443  0.00  0.00    -0.261 N 
ATOM      4  C2  UNL     1      20.137  46.599  20.526  0.00  0.00    +0.165 A 
ATOM      5  N2  UNL     1      20.432  46.010  21.661  0.00  0.00    -0.223 NA
ATOM      6  C3  UNL     1      19.445  46.287  22.605  0.00  0.00    +0.098 A 
ATOM      7  C4  UNL     1      19.497  45.760  23.967  0.00  0.00    +0.090 A 
ATOM      8  C5  UNL     1      20.548  44.940  24.368  0.00  0.00    -0.034 A 
ATOM      9  C6  UNL     1      20.563  44.457  25.675  0.00  0.00    -0.058 A 
ATOM     10  C7  UNL     1      19.534  44.804  26.540  0.00  0.00    -0.044 A 
ATOM     11  C8  UNL     1      18.525  45.624  26.062  0.00  0.00    +0.028 A 
ATOM     12  N3  UNL     1      18.482  46.108  24.802  0.00  0.00    -0.253 NA
ATOM     13  C9  UNL     1      18.425  47.097  22.144  0.00  0.00    +0.006 A 
ATOM     14  S1  UNL     1      18.705  47.517  20.509  0.00  0.00    -0.060 S 
ATOM     15  C10 UNL     1      21.870  46.715  17.216  0.00  0.00    +0.039 A 
ATOM     16  C11 UNL     1      21.545  46.477  15.873  0.00  0.00    -0.046 A 
ATOM     17  C12 UNL     1      22.552  46.231  14.937  0.00  0.00    -0.018 A 
ATOM     18  C13 UNL     1      23.881  46.234  15.344  0.00  0.00    +0.135 A 
ATOM     19  O2  UNL     1      24.830  45.987  14.392  0.00  0.00    -0.505 OA
ATOM     20  C14 UNL     1      24.214  46.489  16.678  0.00  0.00    +0.083 A 
ATOM     21 CL1  UNL     1      25.864  46.507  17.175  0.00  0.00    -0.080 Cl
ATOM     22  C15 UNL     1      23.213  46.734  17.618  0.00  0.00    -0.028 A 
ATOM     23  H   UNL     1      21.809  45.984  19.587  0.00  0.00    +0.000 HD
ATOM     24  H   UNL     1      24.572  45.820  13.507  0.00  0.00    +0.000 HD
ENDROOT
TORSDOF 0
ENDMDL
