MODEL 1
REMARK VINA RESULT:    -3.619      0.000      0.000
REMARK INTER + INTRA:          -3.619
REMARK INTER:                  -3.619
REMARK INTRA:                   0.000
REMARK UNBOUND:                 0.000
REMARK  Name = /home/vital/Documents/PhD_2021/Malaria_codes/scripts/../data/pdbqt_ligands/ligand_230_temp.pdb
REMARK                            x       y       z     vdW  Elec       q    Type
REMARK                         _______ _______ _______ _____ _____    ______ ____
ROOT
ATOM      1  C   UNL     1      15.774  23.685  16.162  0.00  0.00    +0.037 C 
ATOM      2  O   UNL     1      15.200  24.513  17.168  0.00  0.00    -0.378 OA
ATOM      3  C   UNL     1      16.170  25.377  17.793  0.00  0.00    +0.075 C 
ATOM      4  C   UNL     1      16.835  24.619  18.940  0.00  0.00    -0.037 C 
ATOM      5  C   UNL     1      15.428  26.613  18.333  0.00  0.00    +0.069 C 
ATOM      6  N   UNL     1      15.318  27.676  17.329  0.00  0.00    -0.250 N 
ATOM      7  C   UNL     1      14.492  27.608  16.352  0.00  0.00    +0.195 C 
ATOM      8  N   UNL     1      13.690  26.546  16.048  0.00  0.00    -0.370 N 
ATOM      9  N   UNL     1      14.273  28.578  15.412  0.00  0.00    -0.326 N 
ATOM     10  C   UNL     1      14.857  29.852  15.281  0.00  0.00    +0.042 A 
ATOM     11  C   UNL     1      15.555  30.500  16.304  0.00  0.00    -0.038 A 
ATOM     12  C   UNL     1      16.070  31.788  16.127  0.00  0.00    -0.060 A 
ATOM     13  C   UNL     1      15.883  32.461  14.922  0.00  0.00    -0.059 A 
ATOM     14  C   UNL     1      15.182  31.847  13.882  0.00  0.00    -0.049 A 
ATOM     15  C   UNL     1      14.935  32.578  12.596  0.00  0.00    -0.040 C 
ATOM     16  C   UNL     1      14.659  30.559  14.080  0.00  0.00    -0.035 A 
ATOM     17  H   UNL     1      15.897  28.469  17.409  0.00  0.00    +0.000 HD
ATOM     18  H   UNL     1      13.704  25.741  16.615  0.00  0.00    +0.000 HD
ATOM     19  H   UNL     1      13.098  26.585  15.263  0.00  0.00    +0.000 HD
ATOM     20  H   UNL     1      13.607  28.349  14.723  0.00  0.00    +0.000 HD
ENDROOT
TORSDOF 0
ENDMDL
MODEL 2
REMARK VINA RESULT:    -3.479      2.553      6.808
REMARK INTER + INTRA:          -3.479
REMARK INTER:                  -3.479
REMARK INTRA:                   0.000
REMARK UNBOUND:                 0.000
REMARK  Name = /home/vital/Documents/PhD_2021/Malaria_codes/scripts/../data/pdbqt_ligands/ligand_230_temp.pdb
REMARK                            x       y       z     vdW  Elec       q    Type
REMARK                         _______ _______ _______ _____ _____    ______ ____
ROOT
ATOM      1  C   UNL     1      17.216  32.788  14.617  0.00  0.00    +0.037 C 
ATOM      2  O   UNL     1      15.823  32.496  14.637  0.00  0.00    -0.378 OA
ATOM      3  C   UNL     1      15.395  31.766  13.470  0.00  0.00    +0.075 C 
ATOM      4  C   UNL     1      15.066  32.764  12.361  0.00  0.00    -0.037 C 
ATOM      5  C   UNL     1      14.139  30.960  13.847  0.00  0.00    +0.069 C 
ATOM      6  N   UNL     1      14.470  29.640  14.393  0.00  0.00    -0.250 N 
ATOM      7  C   UNL     1      14.924  29.488  15.581  0.00  0.00    +0.195 C 
ATOM      8  N   UNL     1      15.248  30.487  16.453  0.00  0.00    -0.370 N 
ATOM      9  N   UNL     1      15.195  28.296  16.195  0.00  0.00    -0.326 N 
ATOM     10  C   UNL     1      15.041  26.981  15.714  0.00  0.00    +0.042 A 
ATOM     11  C   UNL     1      14.261  26.641  14.605  0.00  0.00    -0.038 A 
ATOM     12  C   UNL     1      14.109  25.309  14.207  0.00  0.00    -0.060 A 
ATOM     13  C   UNL     1      14.727  24.286  14.923  0.00  0.00    -0.059 A 
ATOM     14  C   UNL     1      15.505  24.589  16.041  0.00  0.00    -0.049 A 
ATOM     15  C   UNL     1      16.138  23.493  16.847  0.00  0.00    -0.040 C 
ATOM     16  C   UNL     1      15.638  25.930  16.437  0.00  0.00    -0.035 A 
ATOM     17  H   UNL     1      14.340  28.844  13.828  0.00  0.00    +0.000 HD
ATOM     18  H   UNL     1      15.122  31.428  16.192  0.00  0.00    +0.000 HD
ATOM     19  H   UNL     1      15.606  30.267  17.343  0.00  0.00    +0.000 HD
ATOM     20  H   UNL     1      15.552  28.368  17.110  0.00  0.00    +0.000 HD
ENDROOT
TORSDOF 0
ENDMDL
MODEL 3
REMARK VINA RESULT:    -3.376     19.441     21.176
REMARK INTER + INTRA:          -3.376
REMARK INTER:                  -3.376
REMARK INTRA:                   0.000
REMARK UNBOUND:                 0.000
REMARK  Name = /home/vital/Documents/PhD_2021/Malaria_codes/scripts/../data/pdbqt_ligands/ligand_230_temp.pdb
REMARK                            x       y       z     vdW  Elec       q    Type
REMARK                         _______ _______ _______ _____ _____    ______ ____
ROOT
ATOM      1  C   UNL     1      16.459  42.768  32.204  0.00  0.00    +0.037 C 
ATOM      2  O   UNL     1      15.354  43.664  32.256  0.00  0.00    -0.378 OA
ATOM      3  C   UNL     1      15.738  45.030  32.002  0.00  0.00    +0.075 C 
ATOM      4  C   UNL     1      16.184  45.666  33.318  0.00  0.00    -0.037 C 
ATOM      5  C   UNL     1      14.512  45.773  31.444  0.00  0.00    +0.069 C 
ATOM      6  N   UNL     1      14.415  45.665  29.984  0.00  0.00    -0.250 N 
ATOM      7  C   UNL     1      14.027  44.591  29.405  0.00  0.00    +0.195 C 
ATOM      8  N   UNL     1      13.748  43.402  30.016  0.00  0.00    -0.370 N 
ATOM      9  N   UNL     1      13.842  44.421  28.060  0.00  0.00    -0.326 N 
ATOM     10  C   UNL     1      14.006  45.341  27.006  0.00  0.00    +0.042 A 
ATOM     11  C   UNL     1      14.084  46.725  27.183  0.00  0.00    -0.038 A 
ATOM     12  C   UNL     1      14.197  47.590  26.090  0.00  0.00    -0.060 A 
ATOM     13  C   UNL     1      14.222  47.084  24.793  0.00  0.00    -0.059 A 
ATOM     14  C   UNL     1      14.137  45.707  24.579  0.00  0.00    -0.049 A 
ATOM     15  C   UNL     1      14.116  45.154  23.185  0.00  0.00    -0.040 C 
ATOM     16  C   UNL     1      14.010  44.853  25.686  0.00  0.00    -0.035 A 
ATOM     17  H   UNL     1      14.656  46.444  29.432  0.00  0.00    +0.000 HD
ATOM     18  H   UNL     1      13.824  43.322  30.994  0.00  0.00    +0.000 HD
ATOM     19  H   UNL     1      13.471  42.626  29.478  0.00  0.00    +0.000 HD
ATOM     20  H   UNL     1      13.551  43.520  27.788  0.00  0.00    +0.000 HD
ENDROOT
TORSDOF 0
ENDMDL
MODEL 4
REMARK VINA RESULT:    -3.250      3.479      5.386
REMARK INTER + INTRA:          -3.250
REMARK INTER:                  -3.250
REMARK INTRA:                   0.000
REMARK UNBOUND:                 0.000
REMARK  Name = /home/vital/Documents/PhD_2021/Malaria_codes/scripts/../data/pdbqt_ligands/ligand_230_temp.pdb
REMARK                            x       y       z     vdW  Elec       q    Type
REMARK                         _______ _______ _______ _____ _____    ______ ____
ROOT
ATOM      1  C   UNL     1      16.349  28.355  22.913  0.00  0.00    +0.037 C 
ATOM      2  O   UNL     1      15.356  29.172  22.301  0.00  0.00    -0.378 OA
ATOM      3  C   UNL     1      15.897  30.017  21.266  0.00  0.00    +0.075 C 
ATOM      4  C   UNL     1      16.416  31.304  21.905  0.00  0.00    -0.037 C 
ATOM      5  C   UNL     1      14.765  30.338  20.275  0.00  0.00    +0.069 C 
ATOM      6  N   UNL     1      14.653  29.330  19.215  0.00  0.00    -0.250 N 
ATOM      7  C   UNL     1      14.142  28.174  19.425  0.00  0.00    +0.195 C 
ATOM      8  N   UNL     1      13.727  27.684  20.629  0.00  0.00    -0.370 N 
ATOM      9  N   UNL     1      13.936  27.201  18.486  0.00  0.00    -0.326 N 
ATOM     10  C   UNL     1      14.204  27.213  17.103  0.00  0.00    +0.042 A 
ATOM     11  C   UNL     1      14.443  28.375  16.364  0.00  0.00    -0.038 A 
ATOM     12  C   UNL     1      14.655  28.325  14.983  0.00  0.00    -0.060 A 
ATOM     13  C   UNL     1      14.619  27.106  14.310  0.00  0.00    -0.059 A 
ATOM     14  C   UNL     1      14.373  25.927  15.015  0.00  0.00    -0.049 A 
ATOM     15  C   UNL     1      14.286  24.614  14.295  0.00  0.00    -0.040 C 
ATOM     16  C   UNL     1      14.149  25.995  16.400  0.00  0.00    -0.035 A 
ATOM     17  H   UNL     1      14.982  29.548  18.313  0.00  0.00    +0.000 HD
ATOM     18  H   UNL     1      13.794  28.242  21.438  0.00  0.00    +0.000 HD
ATOM     19  H   UNL     1      13.360  26.773  20.690  0.00  0.00    +0.000 HD
ATOM     20  H   UNL     1      13.542  26.366  18.828  0.00  0.00    +0.000 HD
ENDROOT
TORSDOF 0
ENDMDL
MODEL 5
REMARK VINA RESULT:    -3.241      3.492      5.159
REMARK INTER + INTRA:          -3.241
REMARK INTER:                  -3.241
REMARK INTRA:                   0.000
REMARK UNBOUND:                 0.000
REMARK  Name = /home/vital/Documents/PhD_2021/Malaria_codes/scripts/../data/pdbqt_ligands/ligand_230_temp.pdb
REMARK                            x       y       z     vdW  Elec       q    Type
REMARK                         _______ _______ _______ _____ _____    ______ ____
ROOT
ATOM      1  C   UNL     1      21.196  23.241  19.088  0.00  0.00    +0.037 C 
ATOM      2  O   UNL     1      19.960  22.591  19.366  0.00  0.00    -0.378 OA
ATOM      3  C   UNL     1      19.166  23.306  20.334  0.00  0.00    +0.075 C 
ATOM      4  C   UNL     1      19.592  22.872  21.735  0.00  0.00    -0.037 C 
ATOM      5  C   UNL     1      17.689  22.948  20.094  0.00  0.00    +0.069 C 
ATOM      6  N   UNL     1      17.055  23.833  19.111  0.00  0.00    -0.250 N 
ATOM      7  C   UNL     1      17.283  23.730  17.855  0.00  0.00    +0.195 C 
ATOM      8  N   UNL     1      18.181  22.887  17.266  0.00  0.00    -0.370 N 
ATOM      9  N   UNL     1      16.690  24.464  16.864  0.00  0.00    -0.326 N 
ATOM     10  C   UNL     1      15.706  25.468  16.955  0.00  0.00    +0.042 A 
ATOM     11  C   UNL     1      14.907  25.679  18.082  0.00  0.00    -0.038 A 
ATOM     12  C   UNL     1      13.913  26.663  18.091  0.00  0.00    -0.060 A 
ATOM     13  C   UNL     1      13.690  27.448  16.963  0.00  0.00    -0.059 A 
ATOM     14  C   UNL     1      14.463  27.257  15.817  0.00  0.00    -0.049 A 
ATOM     15  C   UNL     1      14.203  28.066  14.580  0.00  0.00    -0.040 C 
ATOM     16  C   UNL     1      15.449  26.257  15.818  0.00  0.00    -0.035 A 
ATOM     17  H   UNL     1      16.434  24.529  19.427  0.00  0.00    +0.000 HD
ATOM     18  H   UNL     1      18.714  22.271  17.819  0.00  0.00    +0.000 HD
ATOM     19  H   UNL     1      18.295  22.895  16.288  0.00  0.00    +0.000 HD
ATOM     20  H   UNL     1      16.996  24.259  15.951  0.00  0.00    +0.000 HD
ENDROOT
TORSDOF 0
ENDMDL
MODEL 6
REMARK VINA RESULT:    -3.175      3.430      6.554
REMARK INTER + INTRA:          -3.175
REMARK INTER:                  -3.175
REMARK INTRA:                   0.000
REMARK UNBOUND:                 0.000
REMARK  Name = /home/vital/Documents/PhD_2021/Malaria_codes/scripts/../data/pdbqt_ligands/ligand_230_temp.pdb
REMARK                            x       y       z     vdW  Elec       q    Type
REMARK                         _______ _______ _______ _____ _____    ______ ____
ROOT
ATOM      1  C   UNL     1      16.584  34.184  14.025  0.00  0.00    +0.037 C 
ATOM      2  O   UNL     1      16.819  33.725  15.352  0.00  0.00    -0.378 OA
ATOM      3  C   UNL     1      15.598  33.506  16.085  0.00  0.00    +0.075 C 
ATOM      4  C   UNL     1      15.168  34.824  16.726  0.00  0.00    -0.037 C 
ATOM      5  C   UNL     1      15.879  32.455  17.173  0.00  0.00    +0.069 C 
ATOM      6  N   UNL     1      15.681  31.086  16.687  0.00  0.00    -0.250 N 
ATOM      7  C   UNL     1      16.523  30.509  15.913  0.00  0.00    +0.195 C 
ATOM      8  N   UNL     1      17.636  31.080  15.366  0.00  0.00    -0.370 N 
ATOM      9  N   UNL     1      16.454  29.218  15.466  0.00  0.00    -0.326 N 
ATOM     10  C   UNL     1      15.496  28.222  15.735  0.00  0.00    +0.042 A 
ATOM     11  C   UNL     1      14.586  28.280  16.793  0.00  0.00    -0.038 A 
ATOM     12  C   UNL     1      13.690  27.234  17.037  0.00  0.00    -0.060 A 
ATOM     13  C   UNL     1      13.698  26.099  16.231  0.00  0.00    -0.059 A 
ATOM     14  C   UNL     1      14.601  26.003  15.171  0.00  0.00    -0.049 A 
ATOM     15  C   UNL     1      14.651  24.766  14.323  0.00  0.00    -0.040 C 
ATOM     16  C   UNL     1      15.503  27.056  14.946  0.00  0.00    -0.035 A 
ATOM     17  H   UNL     1      14.874  30.594  16.963  0.00  0.00    +0.000 HD
ATOM     18  H   UNL     1      17.860  32.017  15.571  0.00  0.00    +0.000 HD
ATOM     19  H   UNL     1      18.215  30.555  14.767  0.00  0.00    +0.000 HD
ATOM     20  H   UNL     1      17.186  28.944  14.865  0.00  0.00    +0.000 HD
ENDROOT
TORSDOF 0
ENDMDL
MODEL 7
REMARK VINA RESULT:    -3.158      2.512      3.811
REMARK INTER + INTRA:          -3.158
REMARK INTER:                  -3.158
REMARK INTRA:                   0.000
REMARK UNBOUND:                 0.000
REMARK  Name = /home/vital/Documents/PhD_2021/Malaria_codes/scripts/../data/pdbqt_ligands/ligand_230_temp.pdb
REMARK                            x       y       z     vdW  Elec       q    Type
REMARK                         _______ _______ _______ _____ _____    ______ ____
ROOT
ATOM      1  C   UNL     1      19.873  25.424  20.198  0.00  0.00    +0.037 C 
ATOM      2  O   UNL     1      19.295  24.526  19.255  0.00  0.00    -0.378 OA
ATOM      3  C   UNL     1      17.884  24.330  19.472  0.00  0.00    +0.075 C 
ATOM      4  C   UNL     1      17.696  23.213  20.497  0.00  0.00    -0.037 C 
ATOM      5  C   UNL     1      17.248  23.930  18.129  0.00  0.00    +0.069 C 
ATOM      6  N   UNL     1      16.834  25.096  17.342  0.00  0.00    -0.250 N 
ATOM      7  C   UNL     1      17.678  25.834  16.722  0.00  0.00    +0.195 C 
ATOM      8  N   UNL     1      19.037  25.718  16.770  0.00  0.00    -0.370 N 
ATOM      9  N   UNL     1      17.378  26.896  15.913  0.00  0.00    -0.326 N 
ATOM     10  C   UNL     1      16.126  27.427  15.550  0.00  0.00    +0.042 A 
ATOM     11  C   UNL     1      14.915  26.746  15.705  0.00  0.00    -0.038 A 
ATOM     12  C   UNL     1      13.707  27.308  15.280  0.00  0.00    -0.060 A 
ATOM     13  C   UNL     1      13.690  28.564  14.677  0.00  0.00    -0.059 A 
ATOM     14  C   UNL     1      14.882  29.268  14.498  0.00  0.00    -0.049 A 
ATOM     15  C   UNL     1      14.883  30.600  13.809  0.00  0.00    -0.040 C 
ATOM     16  C   UNL     1      16.088  28.684  14.918  0.00  0.00    -0.035 A 
ATOM     17  H   UNL     1      15.876  25.319  17.288  0.00  0.00    +0.000 HD
ATOM     18  H   UNL     1      19.451  25.004  17.306  0.00  0.00    +0.000 HD
ATOM     19  H   UNL     1      19.603  26.347  16.267  0.00  0.00    +0.000 HD
ATOM     20  H   UNL     1      18.157  27.359  15.525  0.00  0.00    +0.000 HD
ENDROOT
TORSDOF 0
ENDMDL
MODEL 8
REMARK VINA RESULT:    -3.153     20.499     22.588
REMARK INTER + INTRA:          -3.153
REMARK INTER:                  -3.153
REMARK INTRA:                   0.000
REMARK UNBOUND:                 0.000
REMARK  Name = /home/vital/Documents/PhD_2021/Malaria_codes/scripts/../data/pdbqt_ligands/ligand_230_temp.pdb
REMARK                            x       y       z     vdW  Elec       q    Type
REMARK                         _______ _______ _______ _____ _____    ______ ____
ROOT
ATOM      1  C   UNL     1      15.254  46.591  26.000  0.00  0.00    +0.037 C 
ATOM      2  O   UNL     1      14.195  45.813  26.549  0.00  0.00    -0.378 OA
ATOM      3  C   UNL     1      14.596  44.459  26.836  0.00  0.00    +0.075 C 
ATOM      4  C   UNL     1      14.422  43.618  25.573  0.00  0.00    -0.037 C 
ATOM      5  C   UNL     1      13.690  43.923  27.958  0.00  0.00    +0.069 C 
ATOM      6  N   UNL     1      14.220  44.226  29.292  0.00  0.00    -0.250 N 
ATOM      7  C   UNL     1      14.155  45.400  29.801  0.00  0.00    +0.195 C 
ATOM      8  N   UNL     1      13.693  46.522  29.177  0.00  0.00    -0.370 N 
ATOM      9  N   UNL     1      14.561  45.757  31.057  0.00  0.00    -0.326 N 
ATOM     10  C   UNL     1      15.116  44.968  32.083  0.00  0.00    +0.042 A 
ATOM     11  C   UNL     1      15.057  43.572  32.112  0.00  0.00    -0.038 A 
ATOM     12  C   UNL     1      15.585  42.847  33.185  0.00  0.00    -0.060 A 
ATOM     13  C   UNL     1      16.174  43.509  34.259  0.00  0.00    -0.059 A 
ATOM     14  C   UNL     1      16.241  44.903  34.267  0.00  0.00    -0.049 A 
ATOM     15  C   UNL     1      16.831  45.630  35.440  0.00  0.00    -0.040 C 
ATOM     16  C   UNL     1      15.694  45.618  33.190  0.00  0.00    -0.035 A 
ATOM     17  H   UNL     1      14.640  43.503  29.813  0.00  0.00    +0.000 HD
ATOM     18  H   UNL     1      13.353  46.469  28.255  0.00  0.00    +0.000 HD
ATOM     19  H   UNL     1      13.699  47.386  29.651  0.00  0.00    +0.000 HD
ATOM     20  H   UNL     1      14.447  46.711  31.278  0.00  0.00    +0.000 HD
ENDROOT
TORSDOF 0
ENDMDL
