MODEL 1
REMARK VINA RESULT:    -4.076      0.000      0.000
REMARK INTER + INTRA:          -4.076
REMARK INTER:                  -4.076
REMARK INTRA:                   0.000
REMARK UNBOUND:                 0.000
REMARK  Name = /home/vital/Documents/PhD_2021/Malaria_codes/scripts/../data/pdbqt_ligands/ligand_77_temp.pdb
REMARK                            x       y       z     vdW  Elec       q    Type
REMARK                         _______ _______ _______ _____ _____    ______ ____
ROOT
ATOM      1  N   UNL     1      19.534  25.171  19.741  0.00  0.00    -0.213 NA
ATOM      2  O   UNL     1      18.503  24.472  18.978  0.00  0.00    -0.284 OA
ATOM      3  C   UNL     1      18.090  25.286  17.867  0.00  0.00    +0.133 C 
ATOM      4  N   UNL     1      17.023  24.602  17.183  0.00  0.00    -0.304 N 
ATOM      5  C   UNL     1      16.367  25.154  16.115  0.00  0.00    +0.131 C 
ATOM      6  N   UNL     1      16.836  26.219  15.510  0.00  0.00    -0.255 N 
ATOM      7  C   UNL     1      16.045  26.754  14.326  0.00  0.00    +0.110 C 
ATOM      8  C   UNL     1      15.815  28.257  14.398  0.00  0.00    -0.017 A 
ATOM      9  C   UNL     1      15.526  28.976  13.227  0.00  0.00    -0.055 A 
ATOM     10  C   UNL     1      15.294  30.353  13.276  0.00  0.00    -0.042 A 
ATOM     11  C   UNL     1      15.342  31.032  14.496  0.00  0.00    +0.059 A 
ATOM     12 CL   UNL     1      15.038  32.733  14.481  0.00  0.00    -0.082 Cl
ATOM     13  C   UNL     1      15.624  30.330  15.671  0.00  0.00    +0.060 A 
ATOM     14 CL   UNL     1      15.691  31.098  17.217  0.00  0.00    -0.082 Cl
ATOM     15  C   UNL     1      15.858  28.951  15.619  0.00  0.00    -0.036 A 
ATOM     16  C   UNL     1      14.739  25.927  14.129  0.00  0.00    +0.024 C 
ATOM     17  C   UNL     1      14.954  24.653  14.343  0.00  0.00    -0.103 C 
ATOM     18  C   UNL     1      15.030  24.517  15.642  0.00  0.00    +0.057 C 
ATOM     19  C   UNL     1      13.874  25.317  16.099  0.00  0.00    -0.043 C 
ATOM     20  C   UNL     1      13.690  26.231  15.130  0.00  0.00    -0.047 C 
ATOM     21  H   UNL     1      19.826  24.591  20.528  0.00  0.00    +0.000 HD
ATOM     22  H   UNL     1      19.160  26.054  20.088  0.00  0.00    +0.000 HD
ATOM     23  H   UNL     1      16.757  23.706  17.494  0.00  0.00    +0.000 HD
ATOM     24  H   UNL     1      17.666  26.655  15.810  0.00  0.00    +0.000 HD
ENDROOT
TORSDOF 0
ENDMDL
MODEL 2
REMARK VINA RESULT:    -3.380      3.899      5.976
REMARK INTER + INTRA:          -3.380
REMARK INTER:                  -3.380
REMARK INTRA:                   0.000
REMARK UNBOUND:                 0.000
REMARK  Name = /home/vital/Documents/PhD_2021/Malaria_codes/scripts/../data/pdbqt_ligands/ligand_77_temp.pdb
REMARK                            x       y       z     vdW  Elec       q    Type
REMARK                         _______ _______ _______ _____ _____    ______ ____
ROOT
ATOM      1  N   UNL     1      19.461  32.218  19.273  0.00  0.00    -0.213 NA
ATOM      2  O   UNL     1      18.865  32.797  18.072  0.00  0.00    -0.284 OA
ATOM      3  C   UNL     1      17.839  31.922  17.572  0.00  0.00    +0.133 C 
ATOM      4  N   UNL     1      17.326  32.485  16.350  0.00  0.00    -0.304 N 
ATOM      5  C   UNL     1      16.379  31.849  15.593  0.00  0.00    +0.131 C 
ATOM      6  N   UNL     1      15.716  30.819  16.064  0.00  0.00    -0.255 N 
ATOM      7  C   UNL     1      14.676  30.185  15.154  0.00  0.00    +0.110 C 
ATOM      8  C   UNL     1      14.795  28.668  15.086  0.00  0.00    -0.017 A 
ATOM      9  C   UNL     1      13.690  27.898  14.690  0.00  0.00    -0.055 A 
ATOM     10  C   UNL     1      13.785  26.507  14.604  0.00  0.00    -0.042 A 
ATOM     11  C   UNL     1      14.988  25.864  14.908  0.00  0.00    +0.059 A 
ATOM     12 CL   UNL     1      15.035  24.141  14.773  0.00  0.00    -0.082 Cl
ATOM     13  C   UNL     1      16.098  26.617  15.300  0.00  0.00    +0.060 A 
ATOM     14 CL   UNL     1      17.621  25.894  15.682  0.00  0.00    -0.082 Cl
ATOM     15  C   UNL     1      16.000  28.010  15.387  0.00  0.00    -0.036 A 
ATOM     16  C   UNL     1      14.680  30.878  13.759  0.00  0.00    +0.024 C 
ATOM     17  C   UNL     1      14.848  32.172  13.879  0.00  0.00    -0.103 C 
ATOM     18  C   UNL     1      16.117  32.344  14.143  0.00  0.00    +0.057 C 
ATOM     19  C   UNL     1      16.757  31.448  13.156  0.00  0.00    -0.043 C 
ATOM     20  C   UNL     1      15.836  30.499  12.913  0.00  0.00    -0.047 C 
ATOM     21  H   UNL     1      20.188  32.841  19.626  0.00  0.00    +0.000 HD
ATOM     22  H   UNL     1      19.870  31.312  19.046  0.00  0.00    +0.000 HD
ATOM     23  H   UNL     1      17.668  33.358  16.049  0.00  0.00    +0.000 HD
ATOM     24  H   UNL     1      15.885  30.472  16.969  0.00  0.00    +0.000 HD
ENDROOT
TORSDOF 0
ENDMDL
MODEL 3
REMARK VINA RESULT:    -3.330      3.570      4.636
REMARK INTER + INTRA:          -3.330
REMARK INTER:                  -3.330
REMARK INTRA:                   0.000
REMARK UNBOUND:                 0.000
REMARK  Name = /home/vital/Documents/PhD_2021/Malaria_codes/scripts/../data/pdbqt_ligands/ligand_77_temp.pdb
REMARK                            x       y       z     vdW  Elec       q    Type
REMARK                         _______ _______ _______ _____ _____    ______ ____
ROOT
ATOM      1  N   UNL     1      15.156  22.591  18.072  0.00  0.00    -0.213 NA
ATOM      2  O   UNL     1      14.553  23.670  17.294  0.00  0.00    -0.284 OA
ATOM      3  C   UNL     1      15.573  24.348  16.540  0.00  0.00    +0.133 C 
ATOM      4  N   UNL     1      14.957  25.450  15.845  0.00  0.00    -0.304 N 
ATOM      5  C   UNL     1      15.681  26.334  15.089  0.00  0.00    +0.131 C 
ATOM      6  N   UNL     1      16.926  26.082  14.761  0.00  0.00    -0.255 N 
ATOM      7  C   UNL     1      17.645  27.116  13.911  0.00  0.00    +0.110 C 
ATOM      8  C   UNL     1      19.024  27.471  14.450  0.00  0.00    -0.017 A 
ATOM      9  C   UNL     1      19.987  28.029  13.594  0.00  0.00    -0.055 A 
ATOM     10  C   UNL     1      21.252  28.378  14.074  0.00  0.00    -0.042 A 
ATOM     11  C   UNL     1      21.573  28.179  15.419  0.00  0.00    +0.059 A 
ATOM     12 CL   UNL     1      23.153  28.640  15.946  0.00  0.00    -0.082 Cl
ATOM     13  C   UNL     1      20.624  27.628  16.286  0.00  0.00    +0.060 A 
ATOM     14 CL   UNL     1      20.944  27.361  17.963  0.00  0.00    -0.082 Cl
ATOM     15  C   UNL     1      19.358  27.278  15.801  0.00  0.00    -0.036 A 
ATOM     16  C   UNL     1      16.729  28.353  13.669  0.00  0.00    +0.024 C 
ATOM     17  C   UNL     1      15.488  27.984  13.470  0.00  0.00    -0.103 C 
ATOM     18  C   UNL     1      15.016  27.667  14.647  0.00  0.00    +0.057 C 
ATOM     19  C   UNL     1      15.490  28.794  15.479  0.00  0.00    -0.043 C 
ATOM     20  C   UNL     1      16.597  29.232  14.854  0.00  0.00    -0.047 C 
ATOM     21  H   UNL     1      14.431  22.110  18.606  0.00  0.00    +0.000 HD
ATOM     22  H   UNL     1      15.849  22.979  18.711  0.00  0.00    +0.000 HD
ATOM     23  H   UNL     1      13.983  25.571  15.916  0.00  0.00    +0.000 HD
ATOM     24  H   UNL     1      17.376  25.257  15.053  0.00  0.00    +0.000 HD
ENDROOT
TORSDOF 0
ENDMDL
MODEL 4
REMARK VINA RESULT:    -3.247      3.906      5.879
REMARK INTER + INTRA:          -3.247
REMARK INTER:                  -3.247
REMARK INTRA:                   0.000
REMARK UNBOUND:                 0.000
REMARK  Name = /home/vital/Documents/PhD_2021/Malaria_codes/scripts/../data/pdbqt_ligands/ligand_77_temp.pdb
REMARK                            x       y       z     vdW  Elec       q    Type
REMARK                         _______ _______ _______ _____ _____    ______ ____
ROOT
ATOM      1  N   UNL     1      16.180  32.421  20.008  0.00  0.00    -0.213 NA
ATOM      2  O   UNL     1      16.259  32.685  18.573  0.00  0.00    -0.284 OA
ATOM      3  C   UNL     1      15.756  31.551  17.845  0.00  0.00    +0.133 C 
ATOM      4  N   UNL     1      15.918  31.814  16.439  0.00  0.00    -0.304 N 
ATOM      5  C   UNL     1      15.593  30.891  15.480  0.00  0.00    +0.131 C 
ATOM      6  N   UNL     1      14.893  29.822  15.780  0.00  0.00    -0.255 N 
ATOM      7  C   UNL     1      14.571  28.860  14.647  0.00  0.00    +0.110 C 
ATOM      8  C   UNL     1      14.866  27.409  15.002  0.00  0.00    -0.017 A 
ATOM      9  C   UNL     1      14.230  26.375  14.296  0.00  0.00    -0.055 A 
ATOM     10  C   UNL     1      14.501  25.037  14.595  0.00  0.00    -0.042 A 
ATOM     11  C   UNL     1      15.416  24.712  15.599  0.00  0.00    +0.059 A 
ATOM     12 CL   UNL     1      15.708  23.037  15.909  0.00  0.00    -0.082 Cl
ATOM     13  C   UNL     1      16.061  25.730  16.308  0.00  0.00    +0.060 A 
ATOM     14 CL   UNL     1      17.211  25.406  17.556  0.00  0.00    -0.082 Cl
ATOM     15  C   UNL     1      15.786  27.069  16.008  0.00  0.00    -0.036 A 
ATOM     16  C   UNL     1      15.246  29.333  13.325  0.00  0.00    +0.024 C 
ATOM     17  C   UNL     1      15.187  30.637  13.210  0.00  0.00    -0.103 C 
ATOM     18  C   UNL     1      16.094  31.108  14.025  0.00  0.00    +0.057 C 
ATOM     19  C   UNL     1      17.252  30.237  13.730  0.00  0.00    -0.043 C 
ATOM     20  C   UNL     1      16.707  29.091  13.287  0.00  0.00    -0.047 C 
ATOM     21  H   UNL     1      16.537  33.227  20.522  0.00  0.00    +0.000 HD
ATOM     22  H   UNL     1      16.739  31.598  20.233  0.00  0.00    +0.000 HD
ATOM     23  H   UNL     1      16.274  32.688  16.157  0.00  0.00    +0.000 HD
ATOM     24  H   UNL     1      14.589  29.651  16.700  0.00  0.00    +0.000 HD
ENDROOT
TORSDOF 0
ENDMDL
MODEL 5
REMARK VINA RESULT:    -3.038      3.430      3.969
REMARK INTER + INTRA:          -3.038
REMARK INTER:                  -3.038
REMARK INTRA:                   0.000
REMARK UNBOUND:                 0.000
REMARK  Name = /home/vital/Documents/PhD_2021/Malaria_codes/scripts/../data/pdbqt_ligands/ligand_77_temp.pdb
REMARK                            x       y       z     vdW  Elec       q    Type
REMARK                         _______ _______ _______ _____ _____    ______ ____
ROOT
ATOM      1  N   UNL     1      14.583  27.521  21.315  0.00  0.00    -0.213 NA
ATOM      2  O   UNL     1      13.866  27.421  20.045  0.00  0.00    -0.284 OA
ATOM      3  C   UNL     1      14.809  27.262  18.971  0.00  0.00    +0.133 C 
ATOM      4  N   UNL     1      14.075  27.242  17.732  0.00  0.00    -0.304 N 
ATOM      5  C   UNL     1      14.698  27.170  16.514  0.00  0.00    +0.131 C 
ATOM      6  N   UNL     1      15.972  26.867  16.423  0.00  0.00    -0.255 N 
ATOM      7  C   UNL     1      16.573  26.799  15.029  0.00  0.00    +0.110 C 
ATOM      8  C   UNL     1      17.885  27.563  14.912  0.00  0.00    -0.017 A 
ATOM      9  C   UNL     1      18.788  27.248  13.884  0.00  0.00    -0.055 A 
ATOM     10  C   UNL     1      19.989  27.950  13.750  0.00  0.00    -0.042 A 
ATOM     11  C   UNL     1      20.303  28.981  14.637  0.00  0.00    +0.059 A 
ATOM     12 CL   UNL     1      21.802  29.811  14.407  0.00  0.00    -0.082 Cl
ATOM     13  C   UNL     1      19.413  29.311  15.663  0.00  0.00    +0.060 A 
ATOM     14 CL   UNL     1      19.728  30.580  16.793  0.00  0.00    -0.082 Cl
ATOM     15  C   UNL     1      18.212  28.605  15.797  0.00  0.00    -0.036 A 
ATOM     16  C   UNL     1      15.514  27.203  13.960  0.00  0.00    +0.024 C 
ATOM     17  C   UNL     1      14.334  26.725  14.266  0.00  0.00    -0.103 C 
ATOM     18  C   UNL     1      13.880  27.483  15.230  0.00  0.00    +0.057 C 
ATOM     19  C   UNL     1      14.191  28.837  14.724  0.00  0.00    -0.043 C 
ATOM     20  C   UNL     1      15.248  28.660  13.912  0.00  0.00    -0.047 C 
ATOM     21  H   UNL     1      13.913  27.634  22.076  0.00  0.00    +0.000 HD
ATOM     22  H   UNL     1      15.208  28.326  21.289  0.00  0.00    +0.000 HD
ATOM     23  H   UNL     1      13.091  27.283  17.761  0.00  0.00    +0.000 HD
ATOM     24  H   UNL     1      16.515  26.692  17.225  0.00  0.00    +0.000 HD
ENDROOT
TORSDOF 0
ENDMDL
MODEL 6
REMARK VINA RESULT:    -2.935      3.265      4.331
REMARK INTER + INTRA:          -2.935
REMARK INTER:                  -2.935
REMARK INTRA:                   0.000
REMARK UNBOUND:                 0.000
REMARK  Name = /home/vital/Documents/PhD_2021/Malaria_codes/scripts/../data/pdbqt_ligands/ligand_77_temp.pdb
REMARK                            x       y       z     vdW  Elec       q    Type
REMARK                         _______ _______ _______ _____ _____    ______ ____
ROOT
ATOM      1  N   UNL     1      21.062  26.951  16.193  0.00  0.00    -0.213 NA
ATOM      2  O   UNL     1      19.999  26.902  15.191  0.00  0.00    -0.284 OA
ATOM      3  C   UNL     1      19.291  28.153  15.179  0.00  0.00    +0.133 C 
ATOM      4  N   UNL     1      18.207  28.044  14.237  0.00  0.00    -0.304 N 
ATOM      5  C   UNL     1      17.302  29.054  14.044  0.00  0.00    +0.131 C 
ATOM      6  N   UNL     1      17.518  30.257  14.523  0.00  0.00    -0.255 N 
ATOM      7  C   UNL     1      16.462  31.315  14.249  0.00  0.00    +0.110 C 
ATOM      8  C   UNL     1      16.069  32.096  15.495  0.00  0.00    -0.017 A 
ATOM      9  C   UNL     1      15.482  33.365  15.369  0.00  0.00    -0.055 A 
ATOM     10  C   UNL     1      15.098  34.089  16.500  0.00  0.00    -0.042 A 
ATOM     11  C   UNL     1      15.289  33.554  17.776  0.00  0.00    +0.059 A 
ATOM     12 CL   UNL     1      14.783  34.501  19.130  0.00  0.00    -0.082 Cl
ATOM     13  C   UNL     1      15.868  32.289  17.919  0.00  0.00    +0.060 A 
ATOM     14 CL   UNL     1      16.127  31.557  19.463  0.00  0.00    -0.082 Cl
ATOM     15  C   UNL     1      16.253  31.567  16.784  0.00  0.00    -0.036 A 
ATOM     16  C   UNL     1      15.252  30.692  13.491  0.00  0.00    +0.024 C 
ATOM     17  C   UNL     1      15.656  29.821  12.599  0.00  0.00    -0.103 C 
ATOM     18  C   UNL     1      15.988  28.750  13.272  0.00  0.00    +0.057 C 
ATOM     19  C   UNL     1      14.848  28.611  14.204  0.00  0.00    -0.043 C 
ATOM     20  C   UNL     1      14.378  29.862  14.352  0.00  0.00    -0.047 C 
ATOM     21  H   UNL     1      21.564  26.062  16.200  0.00  0.00    +0.000 HD
ATOM     22  H   UNL     1      20.655  27.119  17.112  0.00  0.00    +0.000 HD
ATOM     23  H   UNL     1      18.114  27.216  13.714  0.00  0.00    +0.000 HD
ATOM     24  H   UNL     1      18.330  30.464  15.038  0.00  0.00    +0.000 HD
ENDROOT
TORSDOF 0
ENDMDL
MODEL 7
REMARK VINA RESULT:    -2.781      3.759      5.934
REMARK INTER + INTRA:          -2.781
REMARK INTER:                  -2.781
REMARK INTRA:                   0.000
REMARK UNBOUND:                 0.000
REMARK  Name = /home/vital/Documents/PhD_2021/Malaria_codes/scripts/../data/pdbqt_ligands/ligand_77_temp.pdb
REMARK                            x       y       z     vdW  Elec       q    Type
REMARK                         _______ _______ _______ _____ _____    ______ ____
ROOT
ATOM      1  N   UNL     1      15.867  32.177  13.740  0.00  0.00    -0.213 NA
ATOM      2  O   UNL     1      14.981  31.019  13.639  0.00  0.00    -0.284 OA
ATOM      3  C   UNL     1      15.384  30.020  14.591  0.00  0.00    +0.133 C 
ATOM      4  N   UNL     1      14.541  28.867  14.414  0.00  0.00    -0.304 N 
ATOM      5  C   UNL     1      14.718  27.713  15.131  0.00  0.00    +0.131 C 
ATOM      6  N   UNL     1      15.503  27.684  16.182  0.00  0.00    -0.255 N 
ATOM      7  C   UNL     1      15.629  26.362  16.921  0.00  0.00    +0.110 C 
ATOM      8  C   UNL     1      17.074  25.982  17.213  0.00  0.00    -0.017 A 
ATOM      9  C   UNL     1      17.364  25.076  18.245  0.00  0.00    -0.055 A 
ATOM     10  C   UNL     1      18.683  24.700  18.515  0.00  0.00    -0.042 A 
ATOM     11  C   UNL     1      19.732  25.221  17.754  0.00  0.00    +0.059 A 
ATOM     12 CL   UNL     1      21.336  24.707  18.139  0.00  0.00    -0.082 Cl
ATOM     13  C   UNL     1      19.460  26.121  16.719  0.00  0.00    +0.060 A 
ATOM     14 CL   UNL     1      20.703  26.799  15.729  0.00  0.00    -0.082 Cl
ATOM     15  C   UNL     1      18.138  26.496  16.452  0.00  0.00    -0.036 A 
ATOM     16  C   UNL     1      14.823  25.250  16.186  0.00  0.00    +0.024 C 
ATOM     17  C   UNL     1      13.690  25.720  15.725  0.00  0.00    -0.103 C 
ATOM     18  C   UNL     1      13.999  26.417  14.663  0.00  0.00    +0.057 C 
ATOM     19  C   UNL     1      14.939  25.513  13.968  0.00  0.00    -0.043 C 
ATOM     20  C   UNL     1      15.477  24.766  14.948  0.00  0.00    -0.047 C 
ATOM     21  H   UNL     1      15.579  32.885  13.064  0.00  0.00    +0.000 HD
ATOM     22  H   UNL     1      16.825  31.890  13.544  0.00  0.00    +0.000 HD
ATOM     23  H   UNL     1      13.811  28.909  13.754  0.00  0.00    +0.000 HD
ATOM     24  H   UNL     1      15.990  28.486  16.480  0.00  0.00    +0.000 HD
ENDROOT
TORSDOF 0
ENDMDL
MODEL 8
REMARK VINA RESULT:    -2.719     17.610     19.976
REMARK INTER + INTRA:          -2.719
REMARK INTER:                  -2.719
REMARK INTRA:                   0.000
REMARK UNBOUND:                 0.000
REMARK  Name = /home/vital/Documents/PhD_2021/Malaria_codes/scripts/../data/pdbqt_ligands/ligand_77_temp.pdb
REMARK                            x       y       z     vdW  Elec       q    Type
REMARK                         _______ _______ _______ _____ _____    ______ ____
ROOT
ATOM      1  N   UNL     1      20.406  45.948  27.864  0.00  0.00    -0.213 NA
ATOM      2  O   UNL     1      19.230  46.738  27.505  0.00  0.00    -0.284 OA
ATOM      3  C   UNL     1      18.205  45.869  26.992  0.00  0.00    +0.133 C 
ATOM      4  N   UNL     1      17.092  46.685  26.580  0.00  0.00    -0.304 N 
ATOM      5  C   UNL     1      15.979  46.156  25.983  0.00  0.00    +0.131 C 
ATOM      6  N   UNL     1      15.763  44.862  25.980  0.00  0.00    -0.255 N 
ATOM      7  C   UNL     1      14.495  44.368  25.303  0.00  0.00    +0.110 C 
ATOM      8  C   UNL     1      14.745  43.208  24.350  0.00  0.00    -0.017 A 
ATOM      9  C   UNL     1      13.690  42.350  24.002  0.00  0.00    -0.055 A 
ATOM     10  C   UNL     1      13.896  41.290  23.114  0.00  0.00    -0.042 A 
ATOM     11  C   UNL     1      15.159  41.075  22.557  0.00  0.00    +0.059 A 
ATOM     12 CL   UNL     1      15.340  39.750  21.462  0.00  0.00    -0.082 Cl
ATOM     13  C   UNL     1      16.219  41.923  22.890  0.00  0.00    +0.060 A 
ATOM     14 CL   UNL     1      17.806  41.726  22.235  0.00  0.00    -0.082 Cl
ATOM     15  C   UNL     1      16.010  42.983  23.781  0.00  0.00    -0.036 A 
ATOM     16  C   UNL     1      13.727  45.559  24.655  0.00  0.00    +0.024 C 
ATOM     17  C   UNL     1      13.776  46.620  25.421  0.00  0.00    -0.103 C 
ATOM     18  C   UNL     1      14.979  47.111  25.274  0.00  0.00    +0.057 C 
ATOM     19  C   UNL     1      15.151  47.061  23.806  0.00  0.00    -0.043 C 
ATOM     20  C   UNL     1      14.351  46.056  23.407  0.00  0.00    -0.047 C 
ATOM     21  H   UNL     1      21.132  46.566  28.228  0.00  0.00    +0.000 HD
ATOM     22  H   UNL     1      20.755  45.463  27.037  0.00  0.00    +0.000 HD
ATOM     23  H   UNL     1      17.134  47.657  26.732  0.00  0.00    +0.000 HD
ATOM     24  H   UNL     1      16.397  44.237  26.399  0.00  0.00    +0.000 HD
ENDROOT
TORSDOF 0
ENDMDL
