MODEL 1
REMARK VINA RESULT:    -2.990      0.000      0.000
REMARK INTER + INTRA:          -2.990
REMARK INTER:                  -2.990
REMARK INTRA:                   0.000
REMARK UNBOUND:                 0.000
REMARK  Name = /home/vital/Documents/PhD_2021/Malaria_codes/scripts/../data/pdbqt_ligands/ligand_138_temp.pdb
REMARK                            x       y       z     vdW  Elec       q    Type
REMARK                         _______ _______ _______ _____ _____    ______ ____
ROOT
ATOM      1  C1  UNL     1      20.396  27.339  16.250  0.00  0.00    -0.021 C 
ATOM      2  C2  UNL     1      19.115  26.545  16.214  0.00  0.00    +0.059 A 
ATOM      3  N1  UNL     1      18.197  26.937  15.258  0.00  0.00    -0.355 N 
ATOM      4  C3  UNL     1      17.000  26.243  15.048  0.00  0.00    +0.050 A 
ATOM      5  C4  UNL     1      16.096  26.651  14.063  0.00  0.00    -0.038 A 
ATOM      6  C5  UNL     1      14.889  25.969  13.883  0.00  0.00    -0.060 A 
ATOM      7  C6  UNL     1      14.569  24.879  14.693  0.00  0.00    -0.061 A 
ATOM      8  C7  UNL     1      15.456  24.470  15.689  0.00  0.00    -0.049 A 
ATOM      9  C8  UNL     1      16.663  25.156  15.866  0.00  0.00    +0.049 A 
ATOM     10  C9  UNL     1      17.614  24.737  16.923  0.00  0.00    +0.231 A 
ATOM     11  O1  UNL     1      17.363  23.776  17.646  0.00  0.00    -0.283 OA
ATOM     12  C10 UNL     1      18.888  25.525  17.068  0.00  0.00    +0.186 A 
ATOM     13  O2  UNL     1      19.827  25.121  18.002  0.00  0.00    -0.486 OA
ATOM     14  C11 UNL     1      19.394  25.419  19.339  0.00  0.00    +0.099 C 
ATOM     15  C12 UNL     1      20.343  24.709  20.301  0.00  0.00    +0.028 C 
ATOM     16  S1  UNL     1      19.893  25.013  22.042  0.00  0.00    -0.155 S 
ATOM     17  C13 UNL     1      19.105  23.410  22.465  0.00  0.00    -0.000 C 
ATOM     18  C14 UNL     1      17.800  23.196  21.705  0.00  0.00    -0.054 C 
ATOM     19  C15 UNL     1      18.854  23.387  23.972  0.00  0.00    -0.054 C 
ATOM     20  H   UNL     1      18.391  27.730  14.708  0.00  0.00    +0.000 HD
ENDROOT
TORSDOF 0
ENDMDL
MODEL 2
REMARK VINA RESULT:    -2.910     22.170     23.448
REMARK INTER + INTRA:          -2.910
REMARK INTER:                  -2.910
REMARK INTRA:                   0.000
REMARK UNBOUND:                 0.000
REMARK  Name = /home/vital/Documents/PhD_2021/Malaria_codes/scripts/../data/pdbqt_ligands/ligand_138_temp.pdb
REMARK                            x       y       z     vdW  Elec       q    Type
REMARK                         _______ _______ _______ _____ _____    ______ ____
ROOT
ATOM      1  C1  UNL     1      33.328  40.420  19.528  0.00  0.00    -0.021 C 
ATOM      2  C2  UNL     1      33.599  41.201  18.267  0.00  0.00    +0.059 A 
ATOM      3  N1  UNL     1      32.747  42.264  18.029  0.00  0.00    -0.355 N 
ATOM      4  C3  UNL     1      32.926  43.131  16.946  0.00  0.00    +0.050 A 
ATOM      5  C4  UNL     1      32.060  44.209  16.738  0.00  0.00    -0.038 A 
ATOM      6  C5  UNL     1      32.228  45.050  15.634  0.00  0.00    -0.060 A 
ATOM      7  C6  UNL     1      33.257  44.816  14.721  0.00  0.00    -0.061 A 
ATOM      8  C7  UNL     1      34.119  43.736  14.910  0.00  0.00    -0.049 A 
ATOM      9  C8  UNL     1      33.947  42.896  16.015  0.00  0.00    +0.049 A 
ATOM     10  C9  UNL     1      34.852  41.741  16.227  0.00  0.00    +0.231 A 
ATOM     11  O1  UNL     1      35.772  41.515  15.444  0.00  0.00    -0.283 OA
ATOM     12  C10 UNL     1      34.604  40.870  17.429  0.00  0.00    +0.186 A 
ATOM     13  O2  UNL     1      35.470  39.823  17.692  0.00  0.00    -0.486 OA
ATOM     14  C11 UNL     1      35.275  38.741  16.767  0.00  0.00    +0.099 C 
ATOM     15  C12 UNL     1      36.430  37.761  16.951  0.00  0.00    +0.028 C 
ATOM     16  S1  UNL     1      36.294  36.335  15.824  0.00  0.00    -0.155 S 
ATOM     17  C13 UNL     1      37.561  36.779  14.572  0.00  0.00    -0.000 C 
ATOM     18  C14 UNL     1      37.164  38.014  13.770  0.00  0.00    -0.054 C 
ATOM     19  C15 UNL     1      37.756  35.581  13.646  0.00  0.00    -0.054 C 
ATOM     20  H   UNL     1      31.991  42.415  18.641  0.00  0.00    +0.000 HD
ENDROOT
TORSDOF 0
ENDMDL
MODEL 3
REMARK VINA RESULT:    -2.637      4.270      5.692
REMARK INTER + INTRA:          -2.637
REMARK INTER:                  -2.637
REMARK INTRA:                   0.000
REMARK UNBOUND:                 0.000
REMARK  Name = /home/vital/Documents/PhD_2021/Malaria_codes/scripts/../data/pdbqt_ligands/ligand_138_temp.pdb
REMARK                            x       y       z     vdW  Elec       q    Type
REMARK                         _______ _______ _______ _____ _____    ______ ____
ROOT
ATOM      1  C1  UNL     1      16.717  29.614  12.220  0.00  0.00    -0.021 C 
ATOM      2  C2  UNL     1      16.812  28.550  13.284  0.00  0.00    +0.059 A 
ATOM      3  N1  UNL     1      15.827  27.581  13.249  0.00  0.00    -0.355 N 
ATOM      4  C3  UNL     1      15.832  26.484  14.116  0.00  0.00    +0.050 A 
ATOM      5  C4  UNL     1      14.832  25.509  14.048  0.00  0.00    -0.038 A 
ATOM      6  C5  UNL     1      14.829  24.434  14.942  0.00  0.00    -0.060 A 
ATOM      7  C6  UNL     1      15.820  24.329  15.919  0.00  0.00    -0.061 A 
ATOM      8  C7  UNL     1      16.815  25.302  16.007  0.00  0.00    -0.049 A 
ATOM      9  C8  UNL     1      16.814  26.377  15.111  0.00  0.00    +0.049 A 
ATOM     10  C9  UNL     1      17.862  27.422  15.194  0.00  0.00    +0.231 A 
ATOM     11  O1  UNL     1      18.751  27.351  16.039  0.00  0.00    -0.283 OA
ATOM     12  C10 UNL     1      17.796  28.557  14.208  0.00  0.00    +0.186 A 
ATOM     13  O2  UNL     1      18.795  29.515  14.217  0.00  0.00    -0.486 OA
ATOM     14  C11 UNL     1      18.673  30.386  15.352  0.00  0.00    +0.099 C 
ATOM     15  C12 UNL     1      19.946  31.224  15.431  0.00  0.00    +0.028 C 
ATOM     16  S1  UNL     1      19.911  32.377  16.843  0.00  0.00    -0.155 S 
ATOM     17  C13 UNL     1      21.035  31.510  18.007  0.00  0.00    -0.000 C 
ATOM     18  C14 UNL     1      20.444  30.193  18.499  0.00  0.00    -0.054 C 
ATOM     19  C15 UNL     1      21.313  32.444  19.184  0.00  0.00    -0.054 C 
ATOM     20  H   UNL     1      15.098  27.667  12.592  0.00  0.00    +0.000 HD
ENDROOT
TORSDOF 0
ENDMDL
MODEL 4
REMARK VINA RESULT:    -2.629      4.759      6.914
REMARK INTER + INTRA:          -2.629
REMARK INTER:                  -2.629
REMARK INTRA:                   0.000
REMARK UNBOUND:                 0.000
REMARK  Name = /home/vital/Documents/PhD_2021/Malaria_codes/scripts/../data/pdbqt_ligands/ligand_138_temp.pdb
REMARK                            x       y       z     vdW  Elec       q    Type
REMARK                         _______ _______ _______ _____ _____    ______ ____
ROOT
ATOM      1  C1  UNL     1      14.751  30.581  14.034  0.00  0.00    -0.021 C 
ATOM      2  C2  UNL     1      15.179  29.209  14.487  0.00  0.00    +0.059 A 
ATOM      3  N1  UNL     1      14.342  28.593  15.399  0.00  0.00    -0.355 N 
ATOM      4  C3  UNL     1      14.562  27.286  15.845  0.00  0.00    +0.050 A 
ATOM      5  C4  UNL     1      13.690  26.681  16.756  0.00  0.00    -0.038 A 
ATOM      6  C5  UNL     1      13.938  25.386  17.220  0.00  0.00    -0.060 A 
ATOM      7  C6  UNL     1      15.065  24.686  16.787  0.00  0.00    -0.061 A 
ATOM      8  C7  UNL     1      15.950  25.283  15.890  0.00  0.00    -0.049 A 
ATOM      9  C8  UNL     1      15.699  26.580  15.428  0.00  0.00    +0.049 A 
ATOM     10  C9  UNL     1      16.633  27.231  14.478  0.00  0.00    +0.231 A 
ATOM     11  O1  UNL     1      17.629  26.636  14.074  0.00  0.00    -0.283 OA
ATOM     12  C10 UNL     1      16.311  28.632  14.031  0.00  0.00    +0.186 A 
ATOM     13  O2  UNL     1      17.126  29.243  13.095  0.00  0.00    -0.486 OA
ATOM     14  C11 UNL     1      18.384  29.630  13.672  0.00  0.00    +0.099 C 
ATOM     15  C12 UNL     1      19.310  30.041  12.531  0.00  0.00    +0.028 C 
ATOM     16  S1  UNL     1      20.949  30.556  13.142  0.00  0.00    -0.155 S 
ATOM     17  C13 UNL     1      21.943  29.073  12.714  0.00  0.00    -0.000 C 
ATOM     18  C14 UNL     1      21.531  27.853  13.532  0.00  0.00    -0.054 C 
ATOM     19  C15 UNL     1      23.415  29.402  12.951  0.00  0.00    -0.054 C 
ATOM     20  H   UNL     1      13.567  29.092  15.746  0.00  0.00    +0.000 HD
ENDROOT
TORSDOF 0
ENDMDL
MODEL 5
REMARK VINA RESULT:    -2.446     20.524     21.461
REMARK INTER + INTRA:          -2.446
REMARK INTER:                  -2.446
REMARK INTRA:                   0.000
REMARK UNBOUND:                 0.000
REMARK  Name = /home/vital/Documents/PhD_2021/Malaria_codes/scripts/../data/pdbqt_ligands/ligand_138_temp.pdb
REMARK                            x       y       z     vdW  Elec       q    Type
REMARK                         _______ _______ _______ _____ _____    ______ ____
ROOT
ATOM      1  C1  UNL     1      19.356  46.672  19.129  0.00  0.00    -0.021 C 
ATOM      2  C2  UNL     1      20.768  46.597  18.607  0.00  0.00    +0.059 A 
ATOM      3  N1  UNL     1      20.901  46.685  17.234  0.00  0.00    -0.355 N 
ATOM      4  C3  UNL     1      22.153  46.717  16.609  0.00  0.00    +0.050 A 
ATOM      5  C4  UNL     1      22.260  46.824  15.219  0.00  0.00    -0.038 A 
ATOM      6  C5  UNL     1      23.515  46.822  14.603  0.00  0.00    -0.060 A 
ATOM      7  C6  UNL     1      24.675  46.703  15.370  0.00  0.00    -0.061 A 
ATOM      8  C7  UNL     1      24.581  46.581  16.756  0.00  0.00    -0.049 A 
ATOM      9  C8  UNL     1      23.323  46.583  17.369  0.00  0.00    +0.049 A 
ATOM     10  C9  UNL     1      23.206  46.450  18.840  0.00  0.00    +0.231 A 
ATOM     11  O1  UNL     1      24.211  46.352  19.541  0.00  0.00    -0.283 OA
ATOM     12  C10 UNL     1      21.824  46.447  19.434  0.00  0.00    +0.186 A 
ATOM     13  O2  UNL     1      21.682  46.389  20.810  0.00  0.00    -0.486 OA
ATOM     14  C11 UNL     1      21.988  45.079  21.311  0.00  0.00    +0.099 C 
ATOM     15  C12 UNL     1      22.071  45.174  22.832  0.00  0.00    +0.028 C 
ATOM     16  S1  UNL     1      22.459  43.562  23.591  0.00  0.00    -0.155 S 
ATOM     17  C13 UNL     1      24.230  43.807  24.004  0.00  0.00    -0.000 C 
ATOM     18  C14 UNL     1      25.097  43.926  22.755  0.00  0.00    -0.054 C 
ATOM     19  C15 UNL     1      24.687  42.627  24.861  0.00  0.00    -0.054 C 
ATOM     20  H   UNL     1      20.090  46.727  16.678  0.00  0.00    +0.000 HD
ENDROOT
TORSDOF 0
ENDMDL
MODEL 6
REMARK VINA RESULT:    -2.396      5.904      8.025
REMARK INTER + INTRA:          -2.396
REMARK INTER:                  -2.396
REMARK INTRA:                   0.000
REMARK UNBOUND:                 0.000
REMARK  Name = /home/vital/Documents/PhD_2021/Malaria_codes/scripts/../data/pdbqt_ligands/ligand_138_temp.pdb
REMARK                            x       y       z     vdW  Elec       q    Type
REMARK                         _______ _______ _______ _____ _____    ______ ____
ROOT
ATOM      1  C1  UNL     1      20.084  27.612  13.750  0.00  0.00    -0.021 C 
ATOM      2  C2  UNL     1      18.633  27.893  14.048  0.00  0.00    +0.059 A 
ATOM      3  N1  UNL     1      17.786  26.804  13.966  0.00  0.00    -0.355 N 
ATOM      4  C3  UNL     1      16.429  26.891  14.298  0.00  0.00    +0.050 A 
ATOM      5  C4  UNL     1      15.597  25.770  14.221  0.00  0.00    -0.038 A 
ATOM      6  C5  UNL     1      14.237  25.877  14.524  0.00  0.00    -0.060 A 
ATOM      7  C6  UNL     1      13.692  27.107  14.895  0.00  0.00    -0.061 A 
ATOM      8  C7  UNL     1      14.508  28.235  14.962  0.00  0.00    -0.049 A 
ATOM      9  C8  UNL     1      15.870  28.125  14.657  0.00  0.00    +0.049 A 
ATOM     10  C9  UNL     1      16.750  29.316  14.718  0.00  0.00    +0.231 A 
ATOM     11  O1  UNL     1      16.300  30.410  15.050  0.00  0.00    -0.283 OA
ATOM     12  C10 UNL     1      18.201  29.131  14.367  0.00  0.00    +0.186 A 
ATOM     13  O2  UNL     1      19.063  30.209  14.476  0.00  0.00    -0.486 OA
ATOM     14  C11 UNL     1      18.845  31.160  13.422  0.00  0.00    +0.099 C 
ATOM     15  C12 UNL     1      19.633  32.421  13.767  0.00  0.00    +0.028 C 
ATOM     16  S1  UNL     1      19.434  33.711  12.494  0.00  0.00    -0.155 S 
ATOM     17  C13 UNL     1      18.265  34.841  13.347  0.00  0.00    -0.000 C 
ATOM     18  C14 UNL     1      16.894  34.202  13.544  0.00  0.00    -0.054 C 
ATOM     19  C15 UNL     1      18.145  36.117  12.516  0.00  0.00    -0.054 C 
ATOM     20  H   UNL     1      18.148  25.940  13.664  0.00  0.00    +0.000 HD
ENDROOT
TORSDOF 0
ENDMDL
MODEL 7
REMARK VINA RESULT:    -2.387     21.789     22.175
REMARK INTER + INTRA:          -2.387
REMARK INTER:                  -2.387
REMARK INTRA:                   0.000
REMARK UNBOUND:                 0.000
REMARK  Name = /home/vital/Documents/PhD_2021/Malaria_codes/scripts/../data/pdbqt_ligands/ligand_138_temp.pdb
REMARK                            x       y       z     vdW  Elec       q    Type
REMARK                         _______ _______ _______ _____ _____    ______ ____
ROOT
ATOM      1  C1  UNL     1      27.478  45.360  18.947  0.00  0.00    -0.021 C 
ATOM      2  C2  UNL     1      26.094  45.686  18.445  0.00  0.00    +0.059 A 
ATOM      3  N1  UNL     1      26.014  46.066  17.118  0.00  0.00    -0.355 N 
ATOM      4  C3  UNL     1      24.790  46.316  16.489  0.00  0.00    +0.050 A 
ATOM      5  C4  UNL     1      24.737  46.682  15.141  0.00  0.00    -0.038 A 
ATOM      6  C5  UNL     1      23.511  46.961  14.530  0.00  0.00    -0.060 A 
ATOM      7  C6  UNL     1      22.326  46.887  15.265  0.00  0.00    -0.061 A 
ATOM      8  C7  UNL     1      22.367  46.537  16.614  0.00  0.00    -0.049 A 
ATOM      9  C8  UNL     1      23.596  46.259  17.221  0.00  0.00    +0.049 A 
ATOM     10  C9  UNL     1      23.657  45.890  18.655  0.00  0.00    +0.231 A 
ATOM     11  O1  UNL     1      22.630  45.810  19.325  0.00  0.00    -0.283 OA
ATOM     12  C10 UNL     1      25.012  45.616  19.250  0.00  0.00    +0.186 A 
ATOM     13  O2  UNL     1      25.099  45.206  20.569  0.00  0.00    -0.486 OA
ATOM     14  C11 UNL     1      24.833  46.292  21.471  0.00  0.00    +0.099 C 
ATOM     15  C12 UNL     1      24.682  45.704  22.871  0.00  0.00    +0.028 C 
ATOM     16  S1  UNL     1      24.339  46.994  24.113  0.00  0.00    -0.155 S 
ATOM     17  C13 UNL     1      22.542  46.730  24.378  0.00  0.00    -0.000 C 
ATOM     18  C14 UNL     1      21.724  47.082  23.141  0.00  0.00    -0.054 C 
ATOM     19  C15 UNL     1      22.106  47.584  25.567  0.00  0.00    -0.054 C 
ATOM     20  H   UNL     1      26.846  46.163  16.600  0.00  0.00    +0.000 HD
ENDROOT
TORSDOF 0
ENDMDL
MODEL 8
REMARK VINA RESULT:    -2.379     26.238     28.760
REMARK INTER + INTRA:          -2.379
REMARK INTER:                  -2.379
REMARK INTRA:                   0.000
REMARK UNBOUND:                 0.000
REMARK  Name = /home/vital/Documents/PhD_2021/Malaria_codes/scripts/../data/pdbqt_ligands/ligand_138_temp.pdb
REMARK                            x       y       z     vdW  Elec       q    Type
REMARK                         _______ _______ _______ _____ _____    ______ ____
ROOT
ATOM      1  C1  UNL     1      37.223  46.499  26.838  0.00  0.00    -0.021 C 
ATOM      2  C2  UNL     1      36.032  46.530  27.762  0.00  0.00    +0.059 A 
ATOM      3  N1  UNL     1      36.319  46.423  29.110  0.00  0.00    -0.355 N 
ATOM      4  C3  UNL     1      35.327  46.522  30.091  0.00  0.00    +0.050 A 
ATOM      5  C4  UNL     1      35.647  46.428  31.448  0.00  0.00    -0.038 A 
ATOM      6  C5  UNL     1      34.643  46.495  32.419  0.00  0.00    -0.060 A 
ATOM      7  C6  UNL     1      33.308  46.648  32.042  0.00  0.00    -0.061 A 
ATOM      8  C7  UNL     1      32.974  46.730  30.690  0.00  0.00    -0.049 A 
ATOM      9  C8  UNL     1      33.982  46.661  29.722  0.00  0.00    +0.049 A 
ATOM     10  C9  UNL     1      33.643  46.741  28.281  0.00  0.00    +0.231 A 
ATOM     11  O1  UNL     1      32.477  46.884  27.920  0.00  0.00    -0.283 OA
ATOM     12  C10 UNL     1      34.772  46.648  27.291  0.00  0.00    +0.186 A 
ATOM     13  O2  UNL     1      34.498  46.784  25.942  0.00  0.00    -0.486 OA
ATOM     14  C11 UNL     1      33.839  45.618  25.423  0.00  0.00    +0.099 C 
ATOM     15  C12 UNL     1      33.337  45.955  24.022  0.00  0.00    +0.028 C 
ATOM     16  S1  UNL     1      32.476  44.543  23.253  0.00  0.00    -0.155 S 
ATOM     17  C13 UNL     1      30.730  45.078  23.438  0.00  0.00    -0.000 C 
ATOM     18  C14 UNL     1      30.296  45.117  24.900  0.00  0.00    -0.054 C 
ATOM     19  C15 UNL     1      29.851  44.114  22.645  0.00  0.00    -0.054 C 
ATOM     20  H   UNL     1      37.252  46.272  29.388  0.00  0.00    +0.000 HD
ENDROOT
TORSDOF 0
ENDMDL
MODEL 9
REMARK VINA RESULT:    -2.335      6.295      7.657
REMARK INTER + INTRA:          -2.335
REMARK INTER:                  -2.335
REMARK INTRA:                   0.000
REMARK UNBOUND:                 0.000
REMARK  Name = /home/vital/Documents/PhD_2021/Malaria_codes/scripts/../data/pdbqt_ligands/ligand_138_temp.pdb
REMARK                            x       y       z     vdW  Elec       q    Type
REMARK                         _______ _______ _______ _____ _____    ______ ____
ROOT
ATOM      1  C1  UNL     1      14.744  31.606  13.216  0.00  0.00    -0.021 C 
ATOM      2  C2  UNL     1      14.865  30.636  14.363  0.00  0.00    +0.059 A 
ATOM      3  N1  UNL     1      14.233  29.420  14.185  0.00  0.00    -0.355 N 
ATOM      4  C3  UNL     1      14.329  28.388  15.125  0.00  0.00    +0.050 A 
ATOM      5  C4  UNL     1      13.693  27.161  14.912  0.00  0.00    -0.038 A 
ATOM      6  C5  UNL     1      13.768  26.148  15.873  0.00  0.00    -0.060 A 
ATOM      7  C6  UNL     1      14.472  26.356  17.061  0.00  0.00    -0.061 A 
ATOM      8  C7  UNL     1      15.098  27.580  17.291  0.00  0.00    -0.049 A 
ATOM      9  C8  UNL     1      15.020  28.591  16.327  0.00  0.00    +0.049 A 
ATOM     10  C9  UNL     1      15.677  29.900  16.559  0.00  0.00    +0.231 A 
ATOM     11  O1  UNL     1      16.309  30.108  17.592  0.00  0.00    -0.283 OA
ATOM     12  C10 UNL     1      15.543  30.948  15.488  0.00  0.00    +0.186 A 
ATOM     13  O2  UNL     1      16.198  32.157  15.644  0.00  0.00    -0.486 OA
ATOM     14  C11 UNL     1      15.556  32.974  16.636  0.00  0.00    +0.099 C 
ATOM     15  C12 UNL     1      16.481  34.150  16.936  0.00  0.00    +0.028 C 
ATOM     16  S1  UNL     1      15.771  35.266  18.192  0.00  0.00    -0.155 S 
ATOM     17  C13 UNL     1      16.765  34.789  19.660  0.00  0.00    -0.000 C 
ATOM     18  C14 UNL     1      16.464  33.365  20.115  0.00  0.00    -0.054 C 
ATOM     19  C15 UNL     1      16.465  35.783  20.780  0.00  0.00    -0.054 C 
ATOM     20  H   UNL     1      13.698  29.275  13.371  0.00  0.00    +0.000 HD
ENDROOT
TORSDOF 0
ENDMDL
