MODEL 1
REMARK VINA RESULT:    -4.664      0.000      0.000
REMARK INTER + INTRA:          -4.664
REMARK INTER:                  -4.664
REMARK INTRA:                   0.000
REMARK UNBOUND:                 0.000
REMARK  Name = /home/vital/Documents/PhD_2021/Malaria_codes/scripts/../data/pdbqt_ligands/ligand_60_temp.pdb
REMARK                            x       y       z     vdW  Elec       q    Type
REMARK                         _______ _______ _______ _____ _____    ______ ____
ROOT
ATOM      1 CL   UNL     1      21.435  23.644  20.101  0.00  0.00    -0.117 Cl
ATOM      2  C   UNL     1      19.836  24.228  20.673  0.00  0.00    +0.056 C 
ATOM      3  C   UNL     1      18.881  23.023  20.663  0.00  0.00    -0.064 C 
ATOM      4  C   UNL     1      17.747  22.956  19.926  0.00  0.00    -0.043 C 
ATOM      5  C   UNL     1      17.343  24.065  19.072  0.00  0.00    +0.037 C 
ATOM      6  N   UNL     1      16.225  24.037  18.299  0.00  0.00    -0.282 N 
ATOM      7  C   UNL     1      15.685  24.955  17.423  0.00  0.00    +0.239 C 
ATOM      8  N   UNL     1      16.208  26.125  17.182  0.00  0.00    -0.213 N 
ATOM      9  C   UNL     1      15.576  27.045  16.325  0.00  0.00    +0.071 A 
ATOM     10  C   UNL     1      15.238  28.284  16.889  0.00  0.00    -0.036 A 
ATOM     11  C   UNL     1      14.627  29.285  16.135  0.00  0.00    -0.060 A 
ATOM     12  C   UNL     1      14.351  29.063  14.791  0.00  0.00    -0.061 A 
ATOM     13  C   UNL     1      14.692  27.845  14.205  0.00  0.00    -0.057 A 
ATOM     14  C   UNL     1      15.314  26.828  14.955  0.00  0.00    -0.020 A 
ATOM     15  C   UNL     1      15.646  25.524  14.257  0.00  0.00    -0.004 C 
ATOM     16  C   UNL     1      14.597  24.431  14.508  0.00  0.00    +0.065 C 
ATOM     17  N   UNL     1      14.831  23.808  15.824  0.00  0.00    -0.184 NA
ATOM     18  N   UNL     1      14.529  24.585  16.758  0.00  0.00    -0.118 NA
ATOM     19  C   UNL     1      18.160  25.064  19.156  0.00  0.00    -0.020 C 
ATOM     20  C   UNL     1      19.383  25.470  19.836  0.00  0.00    -0.006 C 
ATOM     21  H   UNL     1      15.703  23.206  18.379  0.00  0.00    +0.000 HD
ATOM     22  H   UNL     1      17.061  26.369  17.608  0.00  0.00    +0.000 HD
ENDROOT
TORSDOF 0
ENDMDL
MODEL 2
REMARK VINA RESULT:    -4.556      3.527      6.964
REMARK INTER + INTRA:          -4.556
REMARK INTER:                  -4.556
REMARK INTRA:                   0.000
REMARK UNBOUND:                 0.000
REMARK  Name = /home/vital/Documents/PhD_2021/Malaria_codes/scripts/../data/pdbqt_ligands/ligand_60_temp.pdb
REMARK                            x       y       z     vdW  Elec       q    Type
REMARK                         _______ _______ _______ _____ _____    ______ ____
ROOT
ATOM      1 CL   UNL     1      17.486  31.813  12.295  0.00  0.00    -0.117 Cl
ATOM      2  C   UNL     1      16.037  30.753  12.224  0.00  0.00    +0.056 C 
ATOM      3  C   UNL     1      14.982  31.362  13.164  0.00  0.00    -0.064 C 
ATOM      4  C   UNL     1      14.463  30.725  14.239  0.00  0.00    -0.043 C 
ATOM      5  C   UNL     1      14.880  29.372  14.581  0.00  0.00    +0.037 C 
ATOM      6  N   UNL     1      14.402  28.699  15.662  0.00  0.00    -0.282 N 
ATOM      7  C   UNL     1      14.675  27.444  16.164  0.00  0.00    +0.239 C 
ATOM      8  N   UNL     1      15.513  26.609  15.616  0.00  0.00    -0.213 N 
ATOM      9  C   UNL     1      15.703  25.316  16.138  0.00  0.00    +0.071 A 
ATOM     10  C   UNL     1      15.429  24.251  15.268  0.00  0.00    -0.036 A 
ATOM     11  C   UNL     1      15.600  22.925  15.663  0.00  0.00    -0.060 A 
ATOM     12  C   UNL     1      16.060  22.642  16.944  0.00  0.00    -0.061 A 
ATOM     13  C   UNL     1      16.353  23.685  17.821  0.00  0.00    -0.057 A 
ATOM     14  C   UNL     1      16.190  25.029  17.431  0.00  0.00    -0.020 A 
ATOM     15  C   UNL     1      16.517  26.112  18.440  0.00  0.00    -0.004 C 
ATOM     16  C   UNL     1      15.271  26.651  19.158  0.00  0.00    +0.065 C 
ATOM     17  N   UNL     1      14.585  27.632  18.299  0.00  0.00    -0.184 NA
ATOM     18  N   UNL     1      14.023  27.076  17.328  0.00  0.00    -0.118 NA
ATOM     19  C   UNL     1      15.733  28.899  13.733  0.00  0.00    -0.020 C 
ATOM     20  C   UNL     1      16.439  29.269  12.514  0.00  0.00    -0.006 C 
ATOM     21  H   UNL     1      13.735  29.201  16.185  0.00  0.00    +0.000 HD
ATOM     22  H   UNL     1      16.023  26.888  14.821  0.00  0.00    +0.000 HD
ENDROOT
TORSDOF 0
ENDMDL
MODEL 3
REMARK VINA RESULT:    -4.463      4.096      4.496
REMARK INTER + INTRA:          -4.463
REMARK INTER:                  -4.463
REMARK INTRA:                   0.000
REMARK UNBOUND:                 0.000
REMARK  Name = /home/vital/Documents/PhD_2021/Malaria_codes/scripts/../data/pdbqt_ligands/ligand_60_temp.pdb
REMARK                            x       y       z     vdW  Elec       q    Type
REMARK                         _______ _______ _______ _____ _____    ______ ____
ROOT
ATOM      1 CL   UNL     1      16.298  29.154  22.551  0.00  0.00    -0.117 Cl
ATOM      2  C   UNL     1      14.851  29.536  21.558  0.00  0.00    +0.056 C 
ATOM      3  C   UNL     1      14.002  28.256  21.480  0.00  0.00    -0.064 C 
ATOM      4  C   UNL     1      13.690  27.618  20.327  0.00  0.00    -0.043 C 
ATOM      5  C   UNL     1      14.149  28.128  19.043  0.00  0.00    +0.037 C 
ATOM      6  N   UNL     1      13.879  27.513  17.860  0.00  0.00    -0.282 N 
ATOM      7  C   UNL     1      14.230  27.814  16.561  0.00  0.00    +0.239 C 
ATOM      8  N   UNL     1      14.938  28.854  16.222  0.00  0.00    -0.213 N 
ATOM      9  C   UNL     1      15.209  29.145  14.872  0.00  0.00    +0.071 A 
ATOM     10  C   UNL     1      14.762  30.389  14.404  0.00  0.00    -0.036 A 
ATOM     11  C   UNL     1      14.991  30.799  13.091  0.00  0.00    -0.060 A 
ATOM     12  C   UNL     1      15.683  29.966  12.221  0.00  0.00    -0.061 A 
ATOM     13  C   UNL     1      16.151  28.731  12.667  0.00  0.00    -0.057 A 
ATOM     14  C   UNL     1      15.932  28.308  13.994  0.00  0.00    -0.020 A 
ATOM     15  C   UNL     1      16.457  26.949  14.408  0.00  0.00    -0.004 C 
ATOM     16  C   UNL     1      15.378  25.857  14.370  0.00  0.00    +0.065 C 
ATOM     17  N   UNL     1      14.551  25.929  15.587  0.00  0.00    -0.184 NA
ATOM     18  N   UNL     1      13.808  26.937  15.576  0.00  0.00    -0.118 NA
ATOM     19  C   UNL     1      14.820  29.227  19.168  0.00  0.00    -0.020 C 
ATOM     20  C   UNL     1      15.284  30.157  20.189  0.00  0.00    -0.006 C 
ATOM     21  H   UNL     1      13.331  26.700  17.948  0.00  0.00    +0.000 HD
ATOM     22  H   UNL     1      15.289  29.449  16.924  0.00  0.00    +0.000 HD
ENDROOT
TORSDOF 0
ENDMDL
MODEL 4
REMARK VINA RESULT:    -4.187      1.515      1.522
REMARK INTER + INTRA:          -4.187
REMARK INTER:                  -4.187
REMARK INTRA:                   0.000
REMARK UNBOUND:                 0.000
REMARK  Name = /home/vital/Documents/PhD_2021/Malaria_codes/scripts/../data/pdbqt_ligands/ligand_60_temp.pdb
REMARK                            x       y       z     vdW  Elec       q    Type
REMARK                         _______ _______ _______ _____ _____    ______ ____
ROOT
ATOM      1 CL   UNL     1      22.032  23.174  17.110  0.00  0.00    -0.117 Cl
ATOM      2  C   UNL     1      20.936  24.024  18.251  0.00  0.00    +0.056 C 
ATOM      3  C   UNL     1      19.878  23.007  18.710  0.00  0.00    -0.064 C 
ATOM      4  C   UNL     1      18.546  23.149  18.510  0.00  0.00    -0.043 C 
ATOM      5  C   UNL     1      18.014  24.322  17.830  0.00  0.00    +0.037 C 
ATOM      6  N   UNL     1      16.687  24.501  17.588  0.00  0.00    -0.282 N 
ATOM      7  C   UNL     1      15.992  25.509  16.955  0.00  0.00    +0.239 C 
ATOM      8  N   UNL     1      16.553  26.571  16.447  0.00  0.00    -0.213 N 
ATOM      9  C   UNL     1      15.783  27.599  15.870  0.00  0.00    +0.071 A 
ATOM     10  C   UNL     1      15.920  28.871  16.443  0.00  0.00    -0.036 A 
ATOM     11  C   UNL     1      15.226  29.973  15.945  0.00  0.00    -0.060 A 
ATOM     12  C   UNL     1      14.383  29.818  14.851  0.00  0.00    -0.061 A 
ATOM     13  C   UNL     1      14.243  28.566  14.255  0.00  0.00    -0.057 A 
ATOM     14  C   UNL     1      14.944  27.446  14.745  0.00  0.00    -0.020 A 
ATOM     15  C   UNL     1      14.736  26.113  14.056  0.00  0.00    -0.004 C 
ATOM     16  C   UNL     1      13.721  25.219  14.785  0.00  0.00    +0.065 C 
ATOM     17  N   UNL     1      14.374  24.550  15.924  0.00  0.00    -0.184 NA
ATOM     18  N   UNL     1      14.620  25.357  16.849  0.00  0.00    -0.118 NA
ATOM     19  C   UNL     1      18.944  25.160  17.507  0.00  0.00    -0.020 C 
ATOM     20  C   UNL     1      20.387  25.336  17.597  0.00  0.00    -0.006 C 
ATOM     21  H   UNL     1      16.117  23.774  17.928  0.00  0.00    +0.000 HD
ATOM     22  H   UNL     1      17.534  26.656  16.468  0.00  0.00    +0.000 HD
ENDROOT
TORSDOF 0
ENDMDL
MODEL 5
REMARK VINA RESULT:    -4.092      3.518      6.151
REMARK INTER + INTRA:          -4.092
REMARK INTER:                  -4.092
REMARK INTRA:                   0.000
REMARK UNBOUND:                 0.000
REMARK  Name = /home/vital/Documents/PhD_2021/Malaria_codes/scripts/../data/pdbqt_ligands/ligand_60_temp.pdb
REMARK                            x       y       z     vdW  Elec       q    Type
REMARK                         _______ _______ _______ _____ _____    ______ ____
ROOT
ATOM      1 CL   UNL     1      17.721  33.924  17.255  0.00  0.00    -0.117 Cl
ATOM      2  C   UNL     1      16.052  33.268  17.345  0.00  0.00    +0.056 C 
ATOM      3  C   UNL     1      15.784  32.905  18.816  0.00  0.00    -0.064 C 
ATOM      4  C   UNL     1      15.489  31.658  19.251  0.00  0.00    -0.043 C 
ATOM      5  C   UNL     1      15.394  30.543  18.319  0.00  0.00    +0.037 C 
ATOM      6  N   UNL     1      15.120  29.269  18.710  0.00  0.00    -0.282 N 
ATOM      7  C   UNL     1      15.007  28.091  18.004  0.00  0.00    +0.239 C 
ATOM      8  N   UNL     1      15.146  28.002  16.711  0.00  0.00    -0.213 N 
ATOM      9  C   UNL     1      14.956  26.781  16.038  0.00  0.00    +0.071 A 
ATOM     10  C   UNL     1      13.958  26.766  15.053  0.00  0.00    -0.036 A 
ATOM     11  C   UNL     1      13.691  25.620  14.303  0.00  0.00    -0.060 A 
ATOM     12  C   UNL     1      14.430  24.465  14.525  0.00  0.00    -0.061 A 
ATOM     13  C   UNL     1      15.438  24.461  15.488  0.00  0.00    -0.057 A 
ATOM     14  C   UNL     1      15.722  25.614  16.247  0.00  0.00    -0.020 A 
ATOM     15  C   UNL     1      16.822  25.534  17.286  0.00  0.00    -0.004 C 
ATOM     16  C   UNL     1      16.285  25.293  18.704  0.00  0.00    +0.065 C 
ATOM     17  N   UNL     1      15.808  26.563  19.280  0.00  0.00    -0.184 NA
ATOM     18  N   UNL     1      14.747  26.943  18.733  0.00  0.00    -0.118 NA
ATOM     19  C   UNL     1      15.586  30.916  17.096  0.00  0.00    -0.020 C 
ATOM     20  C   UNL     1      15.870  32.109  16.310  0.00  0.00    -0.006 C 
ATOM     21  H   UNL     1      14.974  29.171  19.679  0.00  0.00    +0.000 HD
ATOM     22  H   UNL     1      15.388  28.805  16.195  0.00  0.00    +0.000 HD
ENDROOT
TORSDOF 0
ENDMDL
MODEL 6
REMARK VINA RESULT:    -3.675      4.200      6.343
REMARK INTER + INTRA:          -3.675
REMARK INTER:                  -3.675
REMARK INTRA:                   0.000
REMARK UNBOUND:                 0.000
REMARK  Name = /home/vital/Documents/PhD_2021/Malaria_codes/scripts/../data/pdbqt_ligands/ligand_60_temp.pdb
REMARK                            x       y       z     vdW  Elec       q    Type
REMARK                         _______ _______ _______ _____ _____    ______ ____
ROOT
ATOM      1 CL   UNL     1      15.630  24.338  17.076  0.00  0.00    -0.117 Cl
ATOM      2  C   UNL     1      14.374  25.621  17.034  0.00  0.00    +0.056 C 
ATOM      3  C   UNL     1      13.718  25.571  15.644  0.00  0.00    -0.064 C 
ATOM      4  C   UNL     1      13.721  26.598  14.763  0.00  0.00    -0.043 C 
ATOM      5  C   UNL     1      14.361  27.864  15.093  0.00  0.00    +0.037 C 
ATOM      6  N   UNL     1      14.408  28.918  14.234  0.00  0.00    -0.282 N 
ATOM      7  C   UNL     1      14.970  30.172  14.342  0.00  0.00    +0.239 C 
ATOM      8  N   UNL     1      15.601  30.598  15.400  0.00  0.00    -0.213 N 
ATOM      9  C   UNL     1      16.098  31.913  15.475  0.00  0.00    +0.071 A 
ATOM     10  C   UNL     1      15.606  32.701  16.525  0.00  0.00    -0.036 A 
ATOM     11  C   UNL     1      16.040  34.013  16.716  0.00  0.00    -0.060 A 
ATOM     12  C   UNL     1      16.987  34.557  15.857  0.00  0.00    -0.061 A 
ATOM     13  C   UNL     1      17.502  33.786  14.815  0.00  0.00    -0.057 A 
ATOM     14  C   UNL     1      17.076  32.458  14.616  0.00  0.00    -0.020 A 
ATOM     15  C   UNL     1      17.669  31.682  13.457  0.00  0.00    -0.004 C 
ATOM     16  C   UNL     1      16.759  31.673  12.220  0.00  0.00    +0.065 C 
ATOM     17  N   UNL     1      15.703  30.657  12.385  0.00  0.00    -0.184 NA
ATOM     18  N   UNL     1      14.861  31.007  13.243  0.00  0.00    -0.118 NA
ATOM     19  C   UNL     1      14.856  27.861  16.287  0.00  0.00    -0.020 C 
ATOM     20  C   UNL     1      14.992  26.996  17.452  0.00  0.00    -0.006 C 
ATOM     21  H   UNL     1      13.955  28.756  13.375  0.00  0.00    +0.000 HD
ATOM     22  H   UNL     1      15.732  29.988  16.162  0.00  0.00    +0.000 HD
ENDROOT
TORSDOF 0
ENDMDL
MODEL 7
REMARK VINA RESULT:    -3.601      3.854      6.901
REMARK INTER + INTRA:          -3.601
REMARK INTER:                  -3.601
REMARK INTRA:                   0.000
REMARK UNBOUND:                 0.000
REMARK  Name = /home/vital/Documents/PhD_2021/Malaria_codes/scripts/../data/pdbqt_ligands/ligand_60_temp.pdb
REMARK                            x       y       z     vdW  Elec       q    Type
REMARK                         _______ _______ _______ _____ _____    ______ ____
ROOT
ATOM      1 CL   UNL     1      16.804  33.550  13.911  0.00  0.00    -0.117 Cl
ATOM      2  C   UNL     1      17.414  32.052  13.130  0.00  0.00    +0.056 C 
ATOM      3  C   UNL     1      16.288  31.518  12.229  0.00  0.00    -0.064 C 
ATOM      4  C   UNL     1      15.708  30.303  12.374  0.00  0.00    -0.043 C 
ATOM      5  C   UNL     1      16.136  29.391  13.425  0.00  0.00    +0.037 C 
ATOM      6  N   UNL     1      15.571  28.170  13.624  0.00  0.00    -0.282 N 
ATOM      7  C   UNL     1      15.810  27.182  14.555  0.00  0.00    +0.239 C 
ATOM      8  N   UNL     1      16.722  27.263  15.483  0.00  0.00    -0.213 N 
ATOM      9  C   UNL     1      16.963  26.194  16.366  0.00  0.00    +0.071 A 
ATOM     10  C   UNL     1      18.263  25.668  16.360  0.00  0.00    -0.036 A 
ATOM     11  C   UNL     1      18.629  24.622  17.206  0.00  0.00    -0.060 A 
ATOM     12  C   UNL     1      17.695  24.087  18.084  0.00  0.00    -0.061 A 
ATOM     13  C   UNL     1      16.400  24.605  18.119  0.00  0.00    -0.057 A 
ATOM     14  C   UNL     1      16.020  25.666  17.274  0.00  0.00    -0.020 A 
ATOM     15  C   UNL     1      14.594  26.171  17.356  0.00  0.00    -0.004 C 
ATOM     16  C   UNL     1      13.691  25.585  16.261  0.00  0.00    +0.065 C 
ATOM     17  N   UNL     1      13.897  26.317  14.999  0.00  0.00    -0.184 NA
ATOM     18  N   UNL     1      15.012  26.052  14.493  0.00  0.00    -0.118 NA
ATOM     19  C   UNL     1      17.111  29.876  14.121  0.00  0.00    -0.020 C 
ATOM     20  C   UNL     1      17.955  31.060  14.212  0.00  0.00    -0.006 C 
ATOM     21  H   UNL     1      14.857  27.949  12.982  0.00  0.00    +0.000 HD
ATOM     22  H   UNL     1      17.252  28.089  15.568  0.00  0.00    +0.000 HD
ENDROOT
TORSDOF 0
ENDMDL
MODEL 8
REMARK VINA RESULT:    -3.534      2.964      4.584
REMARK INTER + INTRA:          -3.534
REMARK INTER:                  -3.534
REMARK INTRA:                   0.000
REMARK UNBOUND:                 0.000
REMARK  Name = /home/vital/Documents/PhD_2021/Malaria_codes/scripts/../data/pdbqt_ligands/ligand_60_temp.pdb
REMARK                            x       y       z     vdW  Elec       q    Type
REMARK                         _______ _______ _______ _____ _____    ______ ____
ROOT
ATOM      1 CL   UNL     1      18.088  22.886  17.215  0.00  0.00    -0.117 Cl
ATOM      2  C   UNL     1      16.515  23.722  17.443  0.00  0.00    +0.056 C 
ATOM      3  C   UNL     1      15.699  23.515  16.156  0.00  0.00    -0.064 C 
ATOM      4  C   UNL     1      15.259  24.520  15.362  0.00  0.00    -0.043 C 
ATOM      5  C   UNL     1      15.535  25.911  15.695  0.00  0.00    +0.037 C 
ATOM      6  N   UNL     1      15.133  26.953  14.919  0.00  0.00    -0.282 N 
ATOM      7  C   UNL     1      15.305  28.315  15.042  0.00  0.00    +0.239 C 
ATOM      8  N   UNL     1      15.934  28.883  16.033  0.00  0.00    -0.213 N 
ATOM      9  C   UNL     1      16.022  30.283  16.137  0.00  0.00    +0.071 A 
ATOM     10  C   UNL     1      15.484  30.852  17.300  0.00  0.00    -0.036 A 
ATOM     11  C   UNL     1      15.531  32.227  17.528  0.00  0.00    -0.060 A 
ATOM     12  C   UNL     1      16.128  33.060  16.590  0.00  0.00    -0.061 A 
ATOM     13  C   UNL     1      16.684  32.515  15.433  0.00  0.00    -0.057 A 
ATOM     14  C   UNL     1      16.648  31.127  15.195  0.00  0.00    -0.020 A 
ATOM     15  C   UNL     1      17.260  30.605  13.911  0.00  0.00    -0.004 C 
ATOM     16  C   UNL     1      16.216  30.354  12.813  0.00  0.00    +0.065 C 
ATOM     17  N   UNL     1      15.550  29.059  13.045  0.00  0.00    -0.184 NA
ATOM     18  N   UNL     1      14.784  29.109  14.034  0.00  0.00    -0.118 NA
ATOM     19  C   UNL     1      16.186  26.024  16.806  0.00  0.00    -0.020 C 
ATOM     20  C   UNL     1      16.751  25.208  17.873  0.00  0.00    -0.006 C 
ATOM     21  H   UNL     1      14.623  26.685  14.121  0.00  0.00    +0.000 HD
ATOM     22  H   UNL     1      16.357  28.320  16.722  0.00  0.00    +0.000 HD
ENDROOT
TORSDOF 0
ENDMDL
