MODEL 1
REMARK VINA RESULT:    -3.040      0.000      0.000
REMARK INTER + INTRA:          -3.040
REMARK INTER:                  -3.040
REMARK INTRA:                   0.000
REMARK UNBOUND:                 0.000
REMARK  Name = /home/vital/Documents/PhD_2021/Malaria_codes/scripts/../data/pdbqt_ligands/ligand_204_temp.pdb
REMARK                            x       y       z     vdW  Elec       q    Type
REMARK                         _______ _______ _______ _____ _____    ______ ____
ROOT
ATOM      1  C1  UNL     1      14.571  27.761  20.034  0.00  0.00    +0.080 C 
ATOM      2  O1  UNL     1      15.122  27.091  18.906  0.00  0.00    -0.479 OA
ATOM      3  C2  UNL     1      16.185  26.257  19.216  0.00  0.00    +0.226 A 
ATOM      4  N1  UNL     1      16.555  26.144  20.509  0.00  0.00    -0.201 NA
ATOM      5  C3  UNL     1      17.587  25.329  20.741  0.00  0.00    +0.120 A 
ATOM      6  N2  UNL     1      18.262  24.630  19.821  0.00  0.00    -0.240 NA
ATOM      7  C4  UNL     1      17.859  24.767  18.535  0.00  0.00    +0.053 A 
ATOM      8  C5  UNL     1      18.633  23.963  17.528  0.00  0.00    -0.022 C 
ATOM      9  C6  UNL     1      16.799  25.591  18.158  0.00  0.00    +0.065 A 
ATOM     10  C7  UNL     1      16.358  25.744  16.765  0.00  0.00    -0.011 A 
ATOM     11  C8  UNL     1      15.199  25.098  16.306  0.00  0.00    -0.051 A 
ATOM     12  C9  UNL     1      14.781  25.244  14.984  0.00  0.00    -0.026 A 
ATOM     13  C10 UNL     1      15.522  26.034  14.110  0.00  0.00    +0.129 A 
ATOM     14  F1  UNL     1      15.096  26.173  12.846  0.00  0.00    -0.205 F 
ATOM     15  C11 UNL     1      16.687  26.682  14.525  0.00  0.00    +0.014 A 
ATOM     16  C12 UNL     1      17.431  27.551  13.551  0.00  0.00    +0.072 C 
ATOM     17  O2  UNL     1      18.790  27.712  13.941  0.00  0.00    -0.390 OA
ATOM     18  C13 UNL     1      17.087  26.541  15.863  0.00  0.00    -0.046 A 
ATOM     19  H   UNL     1      18.829  28.138  14.811  0.00  0.00    +0.000 HD
ENDROOT
TORSDOF 0
ENDMDL
MODEL 2
REMARK VINA RESULT:    -2.990      3.072      5.077
REMARK INTER + INTRA:          -2.990
REMARK INTER:                  -2.990
REMARK INTRA:                   0.000
REMARK UNBOUND:                 0.000
REMARK  Name = /home/vital/Documents/PhD_2021/Malaria_codes/scripts/../data/pdbqt_ligands/ligand_204_temp.pdb
REMARK                            x       y       z     vdW  Elec       q    Type
REMARK                         _______ _______ _______ _____ _____    ______ ____
ROOT
ATOM      1  C1  UNL     1      20.529  27.487  13.090  0.00  0.00    +0.080 C 
ATOM      2  O1  UNL     1      19.273  27.271  13.723  0.00  0.00    -0.479 OA
ATOM      3  C2  UNL     1      18.983  28.192  14.718  0.00  0.00    +0.226 A 
ATOM      4  N1  UNL     1      19.869  29.181  14.953  0.00  0.00    -0.201 NA
ATOM      5  C3  UNL     1      19.534  30.033  15.925  0.00  0.00    +0.120 A 
ATOM      6  N2  UNL     1      18.417  29.990  16.661  0.00  0.00    -0.240 NA
ATOM      7  C4  UNL     1      17.549  28.984  16.392  0.00  0.00    +0.053 A 
ATOM      8  C5  UNL     1      16.301  28.968  17.231  0.00  0.00    -0.022 C 
ATOM      9  C6  UNL     1      17.784  28.025  15.407  0.00  0.00    +0.065 A 
ATOM     10  C7  UNL     1      16.847  26.933  15.112  0.00  0.00    -0.011 A 
ATOM     11  C8  UNL     1      16.019  26.986  13.980  0.00  0.00    -0.051 A 
ATOM     12  C9  UNL     1      15.131  25.948  13.700  0.00  0.00    -0.026 A 
ATOM     13  C10 UNL     1      15.062  24.852  14.554  0.00  0.00    +0.129 A 
ATOM     14  F1  UNL     1      14.211  23.857  14.260  0.00  0.00    -0.205 F 
ATOM     15  C11 UNL     1      15.860  24.767  15.697  0.00  0.00    +0.014 A 
ATOM     16  C12 UNL     1      15.772  23.545  16.566  0.00  0.00    +0.072 C 
ATOM     17  O2  UNL     1      16.230  23.819  17.885  0.00  0.00    -0.390 OA
ATOM     18  C13 UNL     1      16.762  25.811  15.957  0.00  0.00    -0.046 A 
ATOM     19  H   UNL     1      17.159  24.097  17.854  0.00  0.00    +0.000 HD
ENDROOT
TORSDOF 0
ENDMDL
MODEL 3
REMARK VINA RESULT:    -2.738      3.578      6.126
REMARK INTER + INTRA:          -2.738
REMARK INTER:                  -2.738
REMARK INTRA:                   0.000
REMARK UNBOUND:                 0.000
REMARK  Name = /home/vital/Documents/PhD_2021/Malaria_codes/scripts/../data/pdbqt_ligands/ligand_204_temp.pdb
REMARK                            x       y       z     vdW  Elec       q    Type
REMARK                         _______ _______ _______ _____ _____    ______ ____
ROOT
ATOM      1  C1  UNL     1      20.058  27.512  13.159  0.00  0.00    +0.080 C 
ATOM      2  O1  UNL     1      18.714  27.453  13.624  0.00  0.00    -0.479 OA
ATOM      3  C2  UNL     1      18.004  28.627  13.428  0.00  0.00    +0.226 A 
ATOM      4  N1  UNL     1      18.622  29.655  12.811  0.00  0.00    -0.201 NA
ATOM      5  C3  UNL     1      17.886  30.758  12.656  0.00  0.00    +0.120 A 
ATOM      6  N2  UNL     1      16.616  30.921  13.048  0.00  0.00    -0.240 NA
ATOM      7  C4  UNL     1      16.029  29.864  13.660  0.00  0.00    +0.053 A 
ATOM      8  C5  UNL     1      14.601  30.076  14.081  0.00  0.00    -0.022 C 
ATOM      9  C6  UNL     1      16.689  28.657  13.889  0.00  0.00    +0.065 A 
ATOM     10  C7  UNL     1      16.057  27.510  14.552  0.00  0.00    -0.011 A 
ATOM     11  C8  UNL     1      15.615  26.406  13.806  0.00  0.00    -0.051 A 
ATOM     12  C9  UNL     1      15.015  25.316  14.437  0.00  0.00    -0.026 A 
ATOM     13  C10 UNL     1      14.849  25.326  15.819  0.00  0.00    +0.129 A 
ATOM     14  F1  UNL     1      14.283  24.263  16.409  0.00  0.00    -0.205 F 
ATOM     15  C11 UNL     1      15.265  26.411  16.595  0.00  0.00    +0.014 A 
ATOM     16  C12 UNL     1      15.094  26.356  18.086  0.00  0.00    +0.072 C 
ATOM     17  O2  UNL     1      15.083  27.662  18.651  0.00  0.00    -0.390 OA
ATOM     18  C13 UNL     1      15.883  27.493  15.948  0.00  0.00    -0.046 A 
ATOM     19  H   UNL     1      15.926  28.103  18.462  0.00  0.00    +0.000 HD
ENDROOT
TORSDOF 0
ENDMDL
MODEL 4
REMARK VINA RESULT:    -2.723      2.862      4.340
REMARK INTER + INTRA:          -2.723
REMARK INTER:                  -2.723
REMARK INTRA:                   0.000
REMARK UNBOUND:                 0.000
REMARK  Name = /home/vital/Documents/PhD_2021/Malaria_codes/scripts/../data/pdbqt_ligands/ligand_204_temp.pdb
REMARK                            x       y       z     vdW  Elec       q    Type
REMARK                         _______ _______ _______ _____ _____    ______ ____
ROOT
ATOM      1  C1  UNL     1      18.471  29.744  15.837  0.00  0.00    +0.080 C 
ATOM      2  O1  UNL     1      17.431  28.795  16.043  0.00  0.00    -0.479 OA
ATOM      3  C2  UNL     1      16.632  29.073  17.141  0.00  0.00    +0.226 A 
ATOM      4  N1  UNL     1      16.888  30.189  17.855  0.00  0.00    -0.201 NA
ATOM      5  C3  UNL     1      16.086  30.399  18.901  0.00  0.00    +0.120 A 
ATOM      6  N2  UNL     1      15.070  29.616  19.285  0.00  0.00    -0.240 NA
ATOM      7  C4  UNL     1      14.842  28.506  18.542  0.00  0.00    +0.053 A 
ATOM      8  C5  UNL     1      13.690  27.653  18.995  0.00  0.00    -0.022 C 
ATOM      9  C6  UNL     1      15.611  28.170  17.428  0.00  0.00    +0.065 A 
ATOM     10  C7  UNL     1      15.367  26.968  16.618  0.00  0.00    -0.011 A 
ATOM     11  C8  UNL     1      14.732  27.063  15.370  0.00  0.00    -0.051 A 
ATOM     12  C9  UNL     1      14.502  25.923  14.601  0.00  0.00    -0.026 A 
ATOM     13  C10 UNL     1      14.901  24.679  15.079  0.00  0.00    +0.129 A 
ATOM     14  F1  UNL     1      14.684  23.595  14.319  0.00  0.00    -0.205 F 
ATOM     15  C11 UNL     1      15.525  24.541  16.321  0.00  0.00    +0.014 A 
ATOM     16  C12 UNL     1      15.967  23.179  16.775  0.00  0.00    +0.072 C 
ATOM     17  O2  UNL     1      16.103  23.127  18.190  0.00  0.00    -0.390 OA
ATOM     18  C13 UNL     1      15.766  25.700  17.076  0.00  0.00    -0.046 A 
ATOM     19  H   UNL     1      16.772  23.769  18.475  0.00  0.00    +0.000 HD
ENDROOT
TORSDOF 0
ENDMDL
MODEL 5
REMARK VINA RESULT:    -2.711      2.633      4.243
REMARK INTER + INTRA:          -2.711
REMARK INTER:                  -2.711
REMARK INTRA:                   0.000
REMARK UNBOUND:                 0.000
REMARK  Name = /home/vital/Documents/PhD_2021/Malaria_codes/scripts/../data/pdbqt_ligands/ligand_204_temp.pdb
REMARK                            x       y       z     vdW  Elec       q    Type
REMARK                         _______ _______ _______ _____ _____    ______ ____
ROOT
ATOM      1  C1  UNL     1      19.644  28.395  16.191  0.00  0.00    +0.080 C 
ATOM      2  O1  UNL     1      18.399  27.712  16.272  0.00  0.00    -0.479 OA
ATOM      3  C2  UNL     1      17.549  28.213  17.246  0.00  0.00    +0.226 A 
ATOM      4  N1  UNL     1      17.959  29.277  17.968  0.00  0.00    -0.201 NA
ATOM      5  C3  UNL     1      17.098  29.710  18.892  0.00  0.00    +0.120 A 
ATOM      6  N2  UNL     1      15.891  29.192  19.149  0.00  0.00    -0.240 NA
ATOM      7  C4  UNL     1      15.513  28.126  18.401  0.00  0.00    +0.053 A 
ATOM      8  C5  UNL     1      14.150  27.573  18.710  0.00  0.00    -0.022 C 
ATOM      9  C6  UNL     1      16.322  27.574  17.408  0.00  0.00    +0.065 A 
ATOM     10  C7  UNL     1      15.918  26.420  16.595  0.00  0.00    -0.011 A 
ATOM     11  C8  UNL     1      15.486  26.593  15.271  0.00  0.00    -0.051 A 
ATOM     12  C9  UNL     1      15.104  25.497  14.499  0.00  0.00    -0.026 A 
ATOM     13  C10 UNL     1      15.146  24.219  15.048  0.00  0.00    +0.129 A 
ATOM     14  F1  UNL     1      14.787  23.176  14.286  0.00  0.00    -0.205 F 
ATOM     15  C11 UNL     1      15.557  24.006  16.366  0.00  0.00    +0.014 A 
ATOM     16  C12 UNL     1      15.618  22.603  16.899  0.00  0.00    +0.072 C 
ATOM     17  O2  UNL     1      15.556  22.591  18.321  0.00  0.00    -0.390 OA
ATOM     18  C13 UNL     1      15.957  25.117  17.126  0.00  0.00    -0.046 A 
ATOM     19  H   UNL     1      16.311  23.081  18.682  0.00  0.00    +0.000 HD
ENDROOT
TORSDOF 0
ENDMDL
MODEL 6
REMARK VINA RESULT:    -2.592     21.564     24.521
REMARK INTER + INTRA:          -2.592
REMARK INTER:                  -2.592
REMARK INTRA:                   0.000
REMARK UNBOUND:                 0.000
REMARK  Name = /home/vital/Documents/PhD_2021/Malaria_codes/scripts/../data/pdbqt_ligands/ligand_204_temp.pdb
REMARK                            x       y       z     vdW  Elec       q    Type
REMARK                         _______ _______ _______ _____ _____    ______ ____
ROOT
ATOM      1  C1  UNL     1      16.312  39.994  31.960  0.00  0.00    +0.080 C 
ATOM      2  O1  UNL     1      15.911  41.258  32.475  0.00  0.00    -0.479 OA
ATOM      3  C2  UNL     1      15.316  42.081  31.531  0.00  0.00    +0.226 A 
ATOM      4  N1  UNL     1      15.154  41.607  30.278  0.00  0.00    -0.201 NA
ATOM      5  C3  UNL     1      14.578  42.449  29.416  0.00  0.00    +0.120 A 
ATOM      6  N2  UNL     1      14.155  43.690  29.688  0.00  0.00    -0.240 NA
ATOM      7  C4  UNL     1      14.333  44.129  30.958  0.00  0.00    +0.053 A 
ATOM      8  C5  UNL     1      13.840  45.522  31.233  0.00  0.00    -0.022 C 
ATOM      9  C6  UNL     1      14.926  43.351  31.952  0.00  0.00    +0.065 A 
ATOM     10  C7  UNL     1      15.120  43.822  33.330  0.00  0.00    -0.011 A 
ATOM     11  C8  UNL     1      14.278  43.381  34.363  0.00  0.00    -0.051 A 
ATOM     12  C9  UNL     1      14.464  43.827  35.671  0.00  0.00    -0.026 A 
ATOM     13  C10 UNL     1      15.491  44.722  35.953  0.00  0.00    +0.129 A 
ATOM     14  F1  UNL     1      15.662  45.130  37.219  0.00  0.00    -0.205 F 
ATOM     15  C11 UNL     1      16.342  45.194  34.952  0.00  0.00    +0.014 A 
ATOM     16  C12 UNL     1      17.457  46.132  35.316  0.00  0.00    +0.072 C 
ATOM     17  O2  UNL     1      17.885  46.885  34.188  0.00  0.00    -0.390 OA
ATOM     18  C13 UNL     1      16.155  44.722  33.643  0.00  0.00    -0.046 A 
ATOM     19  H   UNL     1      18.213  46.283  33.502  0.00  0.00    +0.000 HD
ENDROOT
TORSDOF 0
ENDMDL
MODEL 7
REMARK VINA RESULT:    -2.502      3.355      5.825
REMARK INTER + INTRA:          -2.502
REMARK INTER:                  -2.502
REMARK INTRA:                   0.000
REMARK UNBOUND:                 0.000
REMARK  Name = /home/vital/Documents/PhD_2021/Malaria_codes/scripts/../data/pdbqt_ligands/ligand_204_temp.pdb
REMARK                            x       y       z     vdW  Elec       q    Type
REMARK                         _______ _______ _______ _____ _____    ______ ____
ROOT
ATOM      1  C1  UNL     1      19.457  27.712  14.539  0.00  0.00    +0.080 C 
ATOM      2  O1  UNL     1      18.953  26.827  15.532  0.00  0.00    -0.479 OA
ATOM      3  C2  UNL     1      17.668  26.375  15.276  0.00  0.00    +0.226 A 
ATOM      4  N1  UNL     1      17.061  26.777  14.140  0.00  0.00    -0.201 NA
ATOM      5  C3  UNL     1      15.825  26.310  13.954  0.00  0.00    +0.120 A 
ATOM      6  N2  UNL     1      15.158  25.492  14.777  0.00  0.00    -0.240 NA
ATOM      7  C4  UNL     1      15.801  25.107  15.906  0.00  0.00    +0.053 A 
ATOM      8  C5  UNL     1      15.028  24.183  16.806  0.00  0.00    -0.022 C 
ATOM      9  C6  UNL     1      17.093  25.529  16.222  0.00  0.00    +0.065 A 
ATOM     10  C7  UNL     1      17.795  25.115  17.444  0.00  0.00    -0.011 A 
ATOM     11  C8  UNL     1      18.800  24.136  17.396  0.00  0.00    -0.051 A 
ATOM     12  C9  UNL     1      19.466  23.744  18.556  0.00  0.00    -0.026 A 
ATOM     13  C10 UNL     1      19.129  24.326  19.774  0.00  0.00    +0.129 A 
ATOM     14  F1  UNL     1      19.791  23.946  20.877  0.00  0.00    -0.205 F 
ATOM     15  C11 UNL     1      18.126  25.294  19.866  0.00  0.00    +0.014 A 
ATOM     16  C12 UNL     1      17.825  25.915  21.200  0.00  0.00    +0.072 C 
ATOM     17  O2  UNL     1      16.513  26.465  21.226  0.00  0.00    -0.390 OA
ATOM     18  C13 UNL     1      17.476  25.691  18.687  0.00  0.00    -0.046 A 
ATOM     19  H   UNL     1      16.438  27.157  20.550  0.00  0.00    +0.000 HD
ENDROOT
TORSDOF 0
ENDMDL
MODEL 8
REMARK VINA RESULT:    -2.381     22.695     24.050
REMARK INTER + INTRA:          -2.381
REMARK INTER:                  -2.381
REMARK INTRA:                   0.000
REMARK UNBOUND:                 0.000
REMARK  Name = /home/vital/Documents/PhD_2021/Malaria_codes/scripts/../data/pdbqt_ligands/ligand_204_temp.pdb
REMARK                            x       y       z     vdW  Elec       q    Type
REMARK                         _______ _______ _______ _____ _____    ______ ____
ROOT
ATOM      1  C1  UNL     1      30.726  41.697  19.252  0.00  0.00    +0.080 C 
ATOM      2  O1  UNL     1      31.079  42.739  18.349  0.00  0.00    -0.479 OA
ATOM      3  C2  UNL     1      30.731  44.005  18.794  0.00  0.00    +0.226 A 
ATOM      4  N1  UNL     1      30.146  44.120  20.004  0.00  0.00    -0.201 NA
ATOM      5  C3  UNL     1      29.832  45.364  20.373  0.00  0.00    +0.120 A 
ATOM      6  N2  UNL     1      30.050  46.477  19.662  0.00  0.00    -0.240 NA
ATOM      7  C4  UNL     1      30.642  46.320  18.453  0.00  0.00    +0.053 A 
ATOM      8  C5  UNL     1      30.879  47.589  17.682  0.00  0.00    -0.022 C 
ATOM      9  C6  UNL     1      31.014  45.075  17.948  0.00  0.00    +0.065 A 
ATOM     10  C7  UNL     1      31.656  44.899  16.638  0.00  0.00    -0.011 A 
ATOM     11  C8  UNL     1      33.034  44.651  16.544  0.00  0.00    -0.051 A 
ATOM     12  C9  UNL     1      33.643  44.483  15.300  0.00  0.00    -0.026 A 
ATOM     13  C10 UNL     1      32.877  44.569  14.142  0.00  0.00    +0.129 A 
ATOM     14  F1  UNL     1      33.478  44.391  12.956  0.00  0.00    -0.205 F 
ATOM     15  C11 UNL     1      31.505  44.827  14.193  0.00  0.00    +0.014 A 
ATOM     16  C12 UNL     1      30.718  44.874  12.914  0.00  0.00    +0.072 C 
ATOM     17  O2  UNL     1      29.515  45.615  13.079  0.00  0.00    -0.390 OA
ATOM     18  C13 UNL     1      30.903  44.975  15.452  0.00  0.00    -0.046 A 
ATOM     19  H   UNL     1      28.963  45.192  13.754  0.00  0.00    +0.000 HD
ENDROOT
TORSDOF 0
ENDMDL
MODEL 9
REMARK VINA RESULT:    -0.104     17.869     18.799
REMARK INTER + INTRA:          -0.104
REMARK INTER:                  -0.104
REMARK INTRA:                   0.000
REMARK UNBOUND:                 0.000
REMARK  Name = /home/vital/Documents/PhD_2021/Malaria_codes/scripts/../data/pdbqt_ligands/ligand_204_temp.pdb
REMARK                            x       y       z     vdW  Elec       q    Type
REMARK                         _______ _______ _______ _____ _____    ______ ____
ROOT
ATOM      1  C1  UNL     1      23.184  38.805  19.239  0.00  0.00    +0.080 C 
ATOM      2  O1  UNL     1      23.596  40.166  19.181  0.00  0.00    -0.479 OA
ATOM      3  C2  UNL     1      24.433  40.540  20.221  0.00  0.00    +0.226 A 
ATOM      4  N1  UNL     1      24.786  39.606  21.128  0.00  0.00    -0.201 NA
ATOM      5  C3  UNL     1      25.590  40.029  22.105  0.00  0.00    +0.120 A 
ATOM      6  N2  UNL     1      26.067  41.272  22.252  0.00  0.00    -0.240 NA
ATOM      7  C4  UNL     1      25.693  42.181  21.319  0.00  0.00    +0.053 A 
ATOM      8  C5  UNL     1      26.251  43.564  21.507  0.00  0.00    -0.022 C 
ATOM      9  C6  UNL     1      24.852  41.869  20.251  0.00  0.00    +0.065 A 
ATOM     10  C7  UNL     1      24.444  42.850  19.238  0.00  0.00    -0.011 A 
ATOM     11  C8  UNL     1      25.030  42.848  17.962  0.00  0.00    -0.051 A 
ATOM     12  C9  UNL     1      24.641  43.780  17.000  0.00  0.00    -0.026 A 
ATOM     13  C10 UNL     1      23.667  44.723  17.310  0.00  0.00    +0.129 A 
ATOM     14  F1  UNL     1      23.297  45.602  16.367  0.00  0.00    -0.205 F 
ATOM     15  C11 UNL     1      23.069  44.766  18.571  0.00  0.00    +0.014 A 
ATOM     16  C12 UNL     1      21.997  45.783  18.842  0.00  0.00    +0.072 C 
ATOM     17  O2  UNL     1      21.863  46.029  20.237  0.00  0.00    -0.390 OA
ATOM     18  C13 UNL     1      23.457  43.811  19.524  0.00  0.00    -0.046 A 
ATOM     19  H   UNL     1      21.617  45.207  20.689  0.00  0.00    +0.000 HD
ENDROOT
TORSDOF 0
ENDMDL
