MODEL 1
REMARK VINA RESULT:    -3.083      0.000      0.000
REMARK INTER + INTRA:          -3.083
REMARK INTER:                  -3.083
REMARK INTRA:                   0.000
REMARK UNBOUND:                 0.000
REMARK  Name = /home/vital/Documents/PhD_2021/Malaria_codes/scripts/../data/pdbqt_ligands/ligand_413_temp.pdb
REMARK                            x       y       z     vdW  Elec       q    Type
REMARK                         _______ _______ _______ _____ _____    ______ ____
ROOT
ATOM      1  C1  UNL     1      14.552  25.088  16.943  0.00  0.00    -0.061 C 
ATOM      2  C2  UNL     1      15.533  25.237  15.779  0.00  0.00    -0.031 C 
ATOM      3  C3  UNL     1      14.769  25.402  14.466  0.00  0.00    -0.061 C 
ATOM      4  C4  UNL     1      16.589  26.337  16.020  0.00  0.00    +0.014 C 
ATOM      5  N1  UNL     1      16.016  27.681  16.188  0.00  0.00    -0.333 N 
ATOM      6  C5  UNL     1      15.749  28.108  17.562  0.00  0.00    +0.001 C 
ATOM      7  C6  UNL     1      15.913  28.613  15.152  0.00  0.00    +0.031 A 
ATOM      8  C7  UNL     1      16.402  28.363  13.859  0.00  0.00    -0.040 A 
ATOM      9  C8  UNL     1      16.305  29.287  12.801  0.00  0.00    -0.051 A 
ATOM     10  C9  UNL     1      15.688  30.525  13.026  0.00  0.00    -0.000 A 
ATOM     11  C10 UNL     1      15.417  31.665  12.222  0.00  0.00    -0.037 A 
ATOM     12  C11 UNL     1      14.768  32.588  13.012  0.00  0.00    +0.003 A 
ATOM     13  N2  UNL     1      14.636  32.047  14.264  0.00  0.00    -0.361 N 
ATOM     14  C12 UNL     1      15.193  30.788  14.298  0.00  0.00    +0.048 A 
ATOM     15  C13 UNL     1      15.292  29.864  15.353  0.00  0.00    -0.017 A 
ATOM     16  H   UNL     1      14.205  32.493  15.028  0.00  0.00    +0.000 HD
ENDROOT
TORSDOF 0
ENDMDL
MODEL 2
REMARK VINA RESULT:    -2.951      1.540      5.698
REMARK INTER + INTRA:          -2.951
REMARK INTER:                  -2.951
REMARK INTRA:                   0.000
REMARK UNBOUND:                 0.000
REMARK  Name = /home/vital/Documents/PhD_2021/Malaria_codes/scripts/../data/pdbqt_ligands/ligand_413_temp.pdb
REMARK                            x       y       z     vdW  Elec       q    Type
REMARK                         _______ _______ _______ _____ _____    ______ ____
ROOT
ATOM      1  C1  UNL     1      16.407  31.327  13.748  0.00  0.00    -0.061 C 
ATOM      2  C2  UNL     1      15.332  30.379  13.213  0.00  0.00    -0.031 C 
ATOM      3  C3  UNL     1      15.979  29.258  12.400  0.00  0.00    -0.061 C 
ATOM      4  C4  UNL     1      14.379  29.870  14.316  0.00  0.00    +0.014 C 
ATOM      5  N1  UNL     1      15.051  29.100  15.372  0.00  0.00    -0.333 N 
ATOM      6  C5  UNL     1      15.474  29.849  16.555  0.00  0.00    +0.001 C 
ATOM      7  C6  UNL     1      15.117  27.704  15.389  0.00  0.00    +0.031 A 
ATOM      8  C7  UNL     1      14.493  26.906  14.416  0.00  0.00    -0.040 A 
ATOM      9  C8  UNL     1      14.551  25.499  14.414  0.00  0.00    -0.051 A 
ATOM     10  C9  UNL     1      15.266  24.840  15.423  0.00  0.00    -0.000 A 
ATOM     11  C10 UNL     1      15.534  23.478  15.728  0.00  0.00    -0.037 A 
ATOM     12  C11 UNL     1      16.313  23.451  16.863  0.00  0.00    +0.003 A 
ATOM     13  N2  UNL     1      16.526  24.746  17.254  0.00  0.00    -0.361 N 
ATOM     14  C12 UNL     1      15.894  25.613  16.391  0.00  0.00    +0.048 A 
ATOM     15  C13 UNL     1      15.835  27.018  16.392  0.00  0.00    -0.017 A 
ATOM     16  H   UNL     1      17.056  25.019  18.038  0.00  0.00    +0.000 HD
ENDROOT
TORSDOF 0
ENDMDL
MODEL 3
REMARK VINA RESULT:    -2.938      1.896      2.587
REMARK INTER + INTRA:          -2.938
REMARK INTER:                  -2.938
REMARK INTRA:                   0.000
REMARK UNBOUND:                 0.000
REMARK  Name = /home/vital/Documents/PhD_2021/Malaria_codes/scripts/../data/pdbqt_ligands/ligand_413_temp.pdb
REMARK                            x       y       z     vdW  Elec       q    Type
REMARK                         _______ _______ _______ _____ _____    ______ ____
ROOT
ATOM      1  C1  UNL     1      15.547  25.154  15.083  0.00  0.00    -0.061 C 
ATOM      2  C2  UNL     1      14.711  26.053  14.170  0.00  0.00    -0.031 C 
ATOM      3  C3  UNL     1      13.690  26.836  14.995  0.00  0.00    -0.061 C 
ATOM      4  C4  UNL     1      15.573  26.943  13.250  0.00  0.00    +0.014 C 
ATOM      5  N1  UNL     1      16.447  27.875  13.977  0.00  0.00    -0.333 N 
ATOM      6  C5  UNL     1      17.810  27.415  14.245  0.00  0.00    +0.001 C 
ATOM      7  C6  UNL     1      16.114  29.208  14.231  0.00  0.00    +0.031 A 
ATOM      8  C7  UNL     1      14.927  29.794  13.761  0.00  0.00    -0.040 A 
ATOM      9  C8  UNL     1      14.572  31.134  14.010  0.00  0.00    -0.051 A 
ATOM     10  C9  UNL     1      15.431  31.942  14.766  0.00  0.00    -0.000 A 
ATOM     11  C10 UNL     1      15.401  33.294  15.204  0.00  0.00    -0.037 A 
ATOM     12  C11 UNL     1      16.547  33.522  15.932  0.00  0.00    +0.003 A 
ATOM     13  N2  UNL     1      17.268  32.358  15.951  0.00  0.00    -0.361 N 
ATOM     14  C12 UNL     1      16.608  31.379  15.243  0.00  0.00    +0.048 A 
ATOM     15  C13 UNL     1      16.961  30.041  14.994  0.00  0.00    -0.017 A 
ATOM     16  H   UNL     1      18.133  32.238  16.406  0.00  0.00    +0.000 HD
ENDROOT
TORSDOF 0
ENDMDL
MODEL 4
REMARK VINA RESULT:    -2.600     24.185     25.955
REMARK INTER + INTRA:          -2.600
REMARK INTER:                  -2.600
REMARK INTRA:                   0.000
REMARK UNBOUND:                 0.000
REMARK  Name = /home/vital/Documents/PhD_2021/Malaria_codes/scripts/../data/pdbqt_ligands/ligand_413_temp.pdb
REMARK                            x       y       z     vdW  Elec       q    Type
REMARK                         _______ _______ _______ _____ _____    ______ ____
ROOT
ATOM      1  C1  UNL     1      14.313  41.286  32.821  0.00  0.00    -0.061 C 
ATOM      2  C2  UNL     1      14.110  41.693  34.282  0.00  0.00    -0.031 C 
ATOM      3  C3  UNL     1      15.336  41.311  35.109  0.00  0.00    -0.061 C 
ATOM      4  C4  UNL     1      13.695  43.172  34.440  0.00  0.00    +0.014 C 
ATOM      5  N1  UNL     1      14.694  44.125  33.932  0.00  0.00    -0.333 N 
ATOM      6  C5  UNL     1      14.519  44.575  32.551  0.00  0.00    +0.001 C 
ATOM      7  C6  UNL     1      15.643  44.755  34.741  0.00  0.00    +0.031 A 
ATOM      8  C7  UNL     1      15.692  44.571  36.133  0.00  0.00    -0.040 A 
ATOM      9  C8  UNL     1      16.644  45.194  36.964  0.00  0.00    -0.051 A 
ATOM     10  C9  UNL     1      17.603  46.041  36.393  0.00  0.00    -0.000 A 
ATOM     11  C10 UNL     1      18.682  46.812  36.904  0.00  0.00    -0.037 A 
ATOM     12  C11 UNL     1      19.281  47.447  35.839  0.00  0.00    +0.003 A 
ATOM     13  N2  UNL     1      18.605  47.087  34.704  0.00  0.00    -0.361 N 
ATOM     14  C12 UNL     1      17.573  46.231  35.017  0.00  0.00    +0.048 A 
ATOM     15  C13 UNL     1      16.622  45.609  34.189  0.00  0.00    -0.017 A 
ATOM     16  H   UNL     1      18.824  47.395  33.795  0.00  0.00    +0.000 HD
ENDROOT
TORSDOF 0
ENDMDL
MODEL 5
REMARK VINA RESULT:    -2.540     17.999     19.322
REMARK INTER + INTRA:          -2.540
REMARK INTER:                  -2.540
REMARK INTRA:                   0.000
REMARK UNBOUND:                 0.000
REMARK  Name = /home/vital/Documents/PhD_2021/Malaria_codes/scripts/../data/pdbqt_ligands/ligand_413_temp.pdb
REMARK                            x       y       z     vdW  Elec       q    Type
REMARK                         _______ _______ _______ _____ _____    ______ ____
ROOT
ATOM      1  C1  UNL     1      21.079  44.567  20.005  0.00  0.00    -0.061 C 
ATOM      2  C2  UNL     1      22.340  45.429  19.912  0.00  0.00    -0.031 C 
ATOM      3  C3  UNL     1      23.490  44.615  19.319  0.00  0.00    -0.061 C 
ATOM      4  C4  UNL     1      22.098  46.771  19.190  0.00  0.00    +0.014 C 
ATOM      5  N1  UNL     1      21.655  46.623  17.795  0.00  0.00    -0.333 N 
ATOM      6  C5  UNL     1      20.210  46.626  17.568  0.00  0.00    +0.001 C 
ATOM      7  C6  UNL     1      22.519  46.685  16.699  0.00  0.00    +0.031 A 
ATOM      8  C7  UNL     1      23.892  46.951  16.832  0.00  0.00    -0.040 A 
ATOM      9  C8  UNL     1      24.780  47.014  15.740  0.00  0.00    -0.051 A 
ATOM     10  C9  UNL     1      24.290  46.799  14.446  0.00  0.00    -0.000 A 
ATOM     11  C10 UNL     1      24.872  46.783  13.149  0.00  0.00    -0.037 A 
ATOM     12  C11 UNL     1      23.871  46.505  12.246  0.00  0.00    +0.003 A 
ATOM     13  N2  UNL     1      22.705  46.351  12.949  0.00  0.00    -0.361 N 
ATOM     14  C12 UNL     1      22.935  46.529  14.294  0.00  0.00    +0.048 A 
ATOM     15  C13 UNL     1      22.051  46.467  15.386  0.00  0.00    -0.017 A 
ATOM     16  H   UNL     1      21.830  46.143  12.550  0.00  0.00    +0.000 HD
ENDROOT
TORSDOF 0
ENDMDL
MODEL 6
REMARK VINA RESULT:    -2.448      1.528      2.516
REMARK INTER + INTRA:          -2.448
REMARK INTER:                  -2.448
REMARK INTRA:                   0.000
REMARK UNBOUND:                 0.000
REMARK  Name = /home/vital/Documents/PhD_2021/Malaria_codes/scripts/../data/pdbqt_ligands/ligand_413_temp.pdb
REMARK                            x       y       z     vdW  Elec       q    Type
REMARK                         _______ _______ _______ _____ _____    ______ ____
ROOT
ATOM      1  C1  UNL     1      16.455  24.359  16.836  0.00  0.00    -0.061 C 
ATOM      2  C2  UNL     1      16.338  25.569  17.766  0.00  0.00    -0.031 C 
ATOM      3  C3  UNL     1      17.510  26.522  17.537  0.00  0.00    -0.061 C 
ATOM      4  C4  UNL     1      14.958  26.257  17.685  0.00  0.00    +0.014 C 
ATOM      5  N1  UNL     1      14.639  26.789  16.352  0.00  0.00    -0.333 N 
ATOM      6  C5  UNL     1      13.877  25.910  15.465  0.00  0.00    +0.001 C 
ATOM      7  C6  UNL     1      14.842  28.121  15.983  0.00  0.00    +0.031 A 
ATOM      8  C7  UNL     1      15.324  29.090  16.879  0.00  0.00    -0.040 A 
ATOM      9  C8  UNL     1      15.539  30.436  16.526  0.00  0.00    -0.051 A 
ATOM     10  C9  UNL     1      15.269  30.852  15.215  0.00  0.00    -0.000 A 
ATOM     11  C10 UNL     1      15.365  32.089  14.522  0.00  0.00    -0.037 A 
ATOM     12  C11 UNL     1      14.956  31.873  13.225  0.00  0.00    +0.003 A 
ATOM     13  N2  UNL     1      14.617  30.551  13.109  0.00  0.00    -0.361 N 
ATOM     14  C12 UNL     1      14.797  29.907  14.312  0.00  0.00    +0.048 A 
ATOM     15  C13 UNL     1      14.582  28.564  14.668  0.00  0.00    -0.017 A 
ATOM     16  H   UNL     1      14.292  30.123  12.284  0.00  0.00    +0.000 HD
ENDROOT
TORSDOF 0
ENDMDL
MODEL 7
REMARK VINA RESULT:    -2.386      3.207      6.940
REMARK INTER + INTRA:          -2.386
REMARK INTER:                  -2.386
REMARK INTRA:                   0.000
REMARK UNBOUND:                 0.000
REMARK  Name = /home/vital/Documents/PhD_2021/Malaria_codes/scripts/../data/pdbqt_ligands/ligand_413_temp.pdb
REMARK                            x       y       z     vdW  Elec       q    Type
REMARK                         _______ _______ _______ _____ _____    ______ ____
ROOT
ATOM      1  C1  UNL     1      14.276  27.890  14.790  0.00  0.00    -0.061 C 
ATOM      2  C2  UNL     1      14.072  26.375  14.841  0.00  0.00    -0.031 C 
ATOM      3  C3  UNL     1      15.276  25.661  14.227  0.00  0.00    -0.061 C 
ATOM      4  C4  UNL     1      13.707  25.865  16.252  0.00  0.00    +0.014 C 
ATOM      5  N1  UNL     1      14.742  26.128  17.263  0.00  0.00    -0.333 N 
ATOM      6  C5  UNL     1      14.597  27.360  18.038  0.00  0.00    +0.001 C 
ATOM      7  C6  UNL     1      15.704  25.190  17.645  0.00  0.00    +0.031 A 
ATOM      8  C7  UNL     1      15.733  23.883  17.131  0.00  0.00    -0.040 A 
ATOM      9  C8  UNL     1      16.697  22.925  17.501  0.00  0.00    -0.051 A 
ATOM     10  C9  UNL     1      17.690  23.273  18.426  0.00  0.00    -0.000 A 
ATOM     11  C10 UNL     1      18.789  22.590  19.013  0.00  0.00    -0.037 A 
ATOM     12  C11 UNL     1      19.421  23.470  19.863  0.00  0.00    +0.003 A 
ATOM     13  N2  UNL     1      18.744  24.659  19.811  0.00  0.00    -0.361 N 
ATOM     14  C12 UNL     1      17.681  24.563  18.942  0.00  0.00    +0.048 A 
ATOM     15  C13 UNL     1      16.717  25.518  18.571  0.00  0.00    -0.017 A 
ATOM     16  H   UNL     1      18.983  25.467  20.321  0.00  0.00    +0.000 HD
ENDROOT
TORSDOF 0
ENDMDL
