MODEL 1
REMARK VINA RESULT:    -3.834      0.000      0.000
REMARK INTER + INTRA:          -3.834
REMARK INTER:                  -3.834
REMARK INTRA:                   0.000
REMARK UNBOUND:                 0.000
REMARK  Name = /home/vital/Documents/PhD_2021/Malaria_codes/scripts/../data/pdbqt_ligands/ligand_417_temp.pdb
REMARK                            x       y       z     vdW  Elec       q    Type
REMARK                         _______ _______ _______ _____ _____    ______ ____
ROOT
ATOM      1  C   UNL     1      33.392  43.896  12.414  0.00  0.00    -0.050 C 
ATOM      2  C   UNL     1      33.043  43.600  13.879  0.00  0.00    +0.004 C 
ATOM      3  C   UNL     1      34.112  44.210  14.790  0.00  0.00    -0.050 C 
ATOM      4  N   UNL     1      31.674  44.051  14.129  0.00  0.00    -0.303 N 
ATOM      5  C   UNL     1      31.485  45.460  14.442  0.00  0.00    -0.013 C 
ATOM      6  C   UNL     1      30.832  43.123  14.894  0.00  0.00    +0.000 C 
ATOM      7  C   UNL     1      31.232  42.751  16.336  0.00  0.00    -0.028 C 
ATOM      8  C   UNL     1      30.966  43.830  17.394  0.00  0.00    -0.003 C 
ATOM      9  N   UNL     1      29.533  44.095  17.513  0.00  0.00    -0.309 N 
ATOM     10  C   UNL     1      29.274  45.402  18.114  0.00  0.00    +0.055 C 
ATOM     11  C   UNL     1      27.825  45.574  18.410  0.00  0.00    +0.119 A 
ATOM     12  C   UNL     1      27.077  45.466  19.562  0.00  0.00    -0.019 A 
ATOM     13  C   UNL     1      25.740  45.757  19.196  0.00  0.00    -0.016 A 
ATOM     14  C   UNL     1      25.742  46.013  17.839  0.00  0.00    +0.135 A 
ATOM     15  C   UNL     1      24.711  46.344  16.859  0.00  0.00    +0.019 A 
ATOM     16  C   UNL     1      25.020  46.475  15.494  0.00  0.00    -0.051 A 
ATOM     17  C   UNL     1      24.029  46.768  14.555  0.00  0.00    -0.060 A 
ATOM     18  C   UNL     1      22.711  46.940  14.965  0.00  0.00    -0.043 A 
ATOM     19  C   UNL     1      22.393  46.819  16.315  0.00  0.00    +0.042 A 
ATOM     20 CL   UNL     1      20.764  47.027  16.827  0.00  0.00    -0.084 Cl
ATOM     21  C   UNL     1      23.379  46.524  17.258  0.00  0.00    -0.033 A 
ATOM     22  O   UNL     1      27.019  45.913  17.366  0.00  0.00    -0.458 OA
ATOM     23  H   UNL     1      31.285  44.006  13.187  0.00  0.00    +0.000 HD
ATOM     24  H   UNL     1      29.110  43.374  18.097  0.00  0.00    +0.000 HD
ATOM     25  H   UNL     1      29.130  44.090  16.576  0.00  0.00    +0.000 HD
ENDROOT
TORSDOF 0
ENDMDL
MODEL 2
REMARK VINA RESULT:    -3.432     20.907     22.035
REMARK INTER + INTRA:          -3.432
REMARK INTER:                  -3.432
REMARK INTRA:                   0.000
REMARK UNBOUND:                 0.000
REMARK  Name = /home/vital/Documents/PhD_2021/Malaria_codes/scripts/../data/pdbqt_ligands/ligand_417_temp.pdb
REMARK                            x       y       z     vdW  Elec       q    Type
REMARK                         _______ _______ _______ _____ _____    ______ ____
ROOT
ATOM      1  C   UNL     1      20.043  24.773  22.629  0.00  0.00    -0.050 C 
ATOM      2  C   UNL     1      19.743  24.086  21.291  0.00  0.00    +0.004 C 
ATOM      3  C   UNL     1      18.925  22.816  21.543  0.00  0.00    -0.050 C 
ATOM      4  N   UNL     1      19.122  25.065  20.397  0.00  0.00    -0.303 N 
ATOM      5  C   UNL     1      17.687  25.272  20.532  0.00  0.00    -0.013 C 
ATOM      6  C   UNL     1      19.627  25.071  19.018  0.00  0.00    +0.000 C 
ATOM      7  C   UNL     1      19.465  23.810  18.147  0.00  0.00    -0.028 C 
ATOM      8  C   UNL     1      18.052  23.558  17.604  0.00  0.00    -0.003 C 
ATOM      9  N   UNL     1      17.647  24.631  16.699  0.00  0.00    -0.309 N 
ATOM     10  C   UNL     1      16.195  24.698  16.555  0.00  0.00    +0.055 C 
ATOM     11  C   UNL     1      15.808  25.658  15.484  0.00  0.00    +0.119 A 
ATOM     12  C   UNL     1      15.418  25.503  14.172  0.00  0.00    -0.019 A 
ATOM     13  C   UNL     1      15.178  26.806  13.674  0.00  0.00    -0.016 A 
ATOM     14  C   UNL     1      15.446  27.687  14.703  0.00  0.00    +0.135 A 
ATOM     15  C   UNL     1      15.423  29.141  14.838  0.00  0.00    +0.019 A 
ATOM     16  C   UNL     1      15.835  29.768  16.027  0.00  0.00    -0.051 A 
ATOM     17  C   UNL     1      15.834  31.158  16.147  0.00  0.00    -0.060 A 
ATOM     18  C   UNL     1      15.417  31.948  15.080  0.00  0.00    -0.043 A 
ATOM     19  C   UNL     1      15.000  31.339  13.900  0.00  0.00    +0.042 A 
ATOM     20 CL   UNL     1      14.485  32.312  12.578  0.00  0.00    -0.084 Cl
ATOM     21  C   UNL     1      15.000  29.949  13.774  0.00  0.00    -0.033 A 
ATOM     22  O   UNL     1      15.819  26.980  15.810  0.00  0.00    -0.458 OA
ATOM     23  H   UNL     1      19.483  25.935  20.788  0.00  0.00    +0.000 HD
ATOM     24  H   UNL     1      18.062  24.466  15.782  0.00  0.00    +0.000 HD
ATOM     25  H   UNL     1      17.968  25.516  17.091  0.00  0.00    +0.000 HD
ENDROOT
TORSDOF 0
ENDMDL
MODEL 3
REMARK VINA RESULT:    -3.311     17.750     20.151
REMARK INTER + INTRA:          -3.311
REMARK INTER:                  -3.311
REMARK INTRA:                   0.000
REMARK UNBOUND:                 0.000
REMARK  Name = /home/vital/Documents/PhD_2021/Malaria_codes/scripts/../data/pdbqt_ligands/ligand_417_temp.pdb
REMARK                            x       y       z     vdW  Elec       q    Type
REMARK                         _______ _______ _______ _____ _____    ______ ____
ROOT
ATOM      1  C   UNL     1      15.094  36.062  22.377  0.00  0.00    -0.050 C 
ATOM      2  C   UNL     1      14.848  36.274  20.878  0.00  0.00    +0.004 C 
ATOM      3  C   UNL     1      15.866  37.279  20.332  0.00  0.00    -0.050 C 
ATOM      4  N   UNL     1      14.844  34.966  20.220  0.00  0.00    -0.303 N 
ATOM      5  C   UNL     1      16.135  34.401  19.857  0.00  0.00    -0.013 C 
ATOM      6  C   UNL     1      13.771  34.756  19.240  0.00  0.00    +0.000 C 
ATOM      7  C   UNL     1      13.700  35.656  17.990  0.00  0.00    -0.028 C 
ATOM      8  C   UNL     1      14.730  35.350  16.895  0.00  0.00    -0.003 C 
ATOM      9  N   UNL     1      14.517  34.013  16.344  0.00  0.00    -0.309 N 
ATOM     10  C   UNL     1      15.718  33.502  15.686  0.00  0.00    +0.055 C 
ATOM     11  C   UNL     1      15.430  32.234  14.961  0.00  0.00    +0.119 A 
ATOM     12  C   UNL     1      15.197  31.935  13.637  0.00  0.00    -0.019 A 
ATOM     13  C   UNL     1      14.991  30.535  13.577  0.00  0.00    -0.016 A 
ATOM     14  C   UNL     1      15.096  30.057  14.868  0.00  0.00    +0.135 A 
ATOM     15  C   UNL     1      14.967  28.740  15.486  0.00  0.00    +0.019 A 
ATOM     16  C   UNL     1      15.055  28.578  16.880  0.00  0.00    -0.051 A 
ATOM     17  C   UNL     1      14.908  27.322  17.470  0.00  0.00    -0.060 A 
ATOM     18  C   UNL     1      14.674  26.203  16.677  0.00  0.00    -0.043 A 
ATOM     19  C   UNL     1      14.591  26.349  15.295  0.00  0.00    +0.042 A 
ATOM     20 CL   UNL     1      14.299  24.969  14.310  0.00  0.00    -0.084 Cl
ATOM     21  C   UNL     1      14.736  27.603  14.699  0.00  0.00    -0.033 A 
ATOM     22  O   UNL     1      15.376  31.096  15.709  0.00  0.00    -0.458 OA
ATOM     23  H   UNL     1      14.578  34.363  20.999  0.00  0.00    +0.000 HD
ATOM     24  H   UNL     1      13.759  34.052  15.663  0.00  0.00    +0.000 HD
ATOM     25  H   UNL     1      14.285  33.385  17.113  0.00  0.00    +0.000 HD
ENDROOT
TORSDOF 0
ENDMDL
MODEL 4
REMARK VINA RESULT:    -2.913     14.414     16.691
REMARK INTER + INTRA:          -2.913
REMARK INTER:                  -2.913
REMARK INTRA:                   0.000
REMARK UNBOUND:                 0.000
REMARK  Name = /home/vital/Documents/PhD_2021/Malaria_codes/scripts/../data/pdbqt_ligands/ligand_417_temp.pdb
REMARK                            x       y       z     vdW  Elec       q    Type
REMARK                         _______ _______ _______ _____ _____    ______ ____
ROOT
ATOM      1  C   UNL     1      17.290  41.594  12.945  0.00  0.00    -0.050 C 
ATOM      2  C   UNL     1      17.464  40.897  14.300  0.00  0.00    +0.004 C 
ATOM      3  C   UNL     1      16.620  41.616  15.355  0.00  0.00    -0.050 C 
ATOM      4  N   UNL     1      17.174  39.472  14.129  0.00  0.00    -0.303 N 
ATOM      5  C   UNL     1      15.777  39.068  14.181  0.00  0.00    -0.013 C 
ATOM      6  C   UNL     1      18.116  38.553  14.781  0.00  0.00    +0.000 C 
ATOM      7  C   UNL     1      18.267  38.587  16.315  0.00  0.00    -0.028 C 
ATOM      8  C   UNL     1      17.123  37.942  17.107  0.00  0.00    -0.003 C 
ATOM      9  N   UNL     1      17.038  36.511  16.822  0.00  0.00    -0.309 N 
ATOM     10  C   UNL     1      15.720  35.972  17.145  0.00  0.00    +0.055 C 
ATOM     11  C   UNL     1      15.710  34.487  17.038  0.00  0.00    +0.119 A 
ATOM     12  C   UNL     1      15.787  33.473  17.967  0.00  0.00    -0.019 A 
ATOM     13  C   UNL     1      15.720  32.261  17.238  0.00  0.00    -0.016 A 
ATOM     14  C   UNL     1      15.617  32.600  15.903  0.00  0.00    +0.135 A 
ATOM     15  C   UNL     1      15.538  31.841  14.658  0.00  0.00    +0.019 A 
ATOM     16  C   UNL     1      15.520  32.490  13.410  0.00  0.00    -0.051 A 
ATOM     17  C   UNL     1      15.467  31.763  12.220  0.00  0.00    -0.060 A 
ATOM     18  C   UNL     1      15.429  30.372  12.255  0.00  0.00    -0.043 A 
ATOM     19  C   UNL     1      15.439  29.718  13.485  0.00  0.00    +0.042 A 
ATOM     20 CL   UNL     1      15.394  27.999  13.533  0.00  0.00    -0.084 Cl
ATOM     21  C   UNL     1      15.493  30.441  14.678  0.00  0.00    -0.033 A 
ATOM     22  O   UNL     1      15.600  33.960  15.787  0.00  0.00    -0.458 OA
ATOM     23  H   UNL     1      17.375  39.356  13.136  0.00  0.00    +0.000 HD
ATOM     24  H   UNL     1      17.740  36.021  17.376  0.00  0.00    +0.000 HD
ATOM     25  H   UNL     1      17.202  36.376  15.824  0.00  0.00    +0.000 HD
ENDROOT
TORSDOF 0
ENDMDL
MODEL 5
REMARK VINA RESULT:    -2.811     19.865     21.418
REMARK INTER + INTRA:          -2.811
REMARK INTER:                  -2.811
REMARK INTRA:                   0.000
REMARK UNBOUND:                 0.000
REMARK  Name = /home/vital/Documents/PhD_2021/Malaria_codes/scripts/../data/pdbqt_ligands/ligand_417_temp.pdb
REMARK                            x       y       z     vdW  Elec       q    Type
REMARK                         _______ _______ _______ _____ _____    ______ ____
ROOT
ATOM      1  C   UNL     1      17.909  35.238  14.374  0.00  0.00    -0.050 C 
ATOM      2  C   UNL     1      16.828  34.284  13.850  0.00  0.00    +0.004 C 
ATOM      3  C   UNL     1      16.892  34.233  12.321  0.00  0.00    -0.050 C 
ATOM      4  N   UNL     1      16.979  32.996  14.527  0.00  0.00    -0.303 N 
ATOM      5  C   UNL     1      17.962  32.070  13.982  0.00  0.00    -0.013 C 
ATOM      6  C   UNL     1      15.733  32.379  14.998  0.00  0.00    +0.000 C 
ATOM      7  C   UNL     1      14.648  31.988  13.974  0.00  0.00    -0.028 C 
ATOM      8  C   UNL     1      14.937  30.725  13.153  0.00  0.00    -0.003 C 
ATOM      9  N   UNL     1      15.003  29.549  14.019  0.00  0.00    -0.309 N 
ATOM     10  C   UNL     1      15.736  28.454  13.389  0.00  0.00    +0.055 C 
ATOM     11  C   UNL     1      15.626  27.206  14.192  0.00  0.00    +0.119 A 
ATOM     12  C   UNL     1      14.850  26.074  14.076  0.00  0.00    -0.019 A 
ATOM     13  C   UNL     1      15.213  25.232  15.156  0.00  0.00    -0.016 A 
ATOM     14  C   UNL     1      16.181  25.901  15.879  0.00  0.00    +0.135 A 
ATOM     15  C   UNL     1      16.937  25.606  17.094  0.00  0.00    +0.019 A 
ATOM     16  C   UNL     1      17.824  26.548  17.645  0.00  0.00    -0.051 A 
ATOM     17  C   UNL     1      18.528  26.274  18.819  0.00  0.00    -0.060 A 
ATOM     18  C   UNL     1      18.362  25.051  19.461  0.00  0.00    -0.043 A 
ATOM     19  C   UNL     1      17.491  24.108  18.921  0.00  0.00    +0.042 A 
ATOM     20 CL   UNL     1      17.280  22.595  19.713  0.00  0.00    -0.084 Cl
ATOM     21  C   UNL     1      16.783  24.377  17.749  0.00  0.00    -0.033 A 
ATOM     22  O   UNL     1      16.438  27.101  15.281  0.00  0.00    -0.458 OA
ATOM     23  H   UNL     1      17.442  33.288  15.388  0.00  0.00    +0.000 HD
ATOM     24  H   UNL     1      14.055  29.236  14.225  0.00  0.00    +0.000 HD
ATOM     25  H   UNL     1      15.495  29.811  14.873  0.00  0.00    +0.000 HD
ENDROOT
TORSDOF 0
ENDMDL
MODEL 6
REMARK VINA RESULT:    -2.550      6.028     10.505
REMARK INTER + INTRA:          -2.550
REMARK INTER:                  -2.550
REMARK INTRA:                   0.000
REMARK UNBOUND:                 0.000
REMARK  Name = /home/vital/Documents/PhD_2021/Malaria_codes/scripts/../data/pdbqt_ligands/ligand_417_temp.pdb
REMARK                            x       y       z     vdW  Elec       q    Type
REMARK                         _______ _______ _______ _____ _____    ______ ____
ROOT
ATOM      1  C   UNL     1      21.964  43.869  26.892  0.00  0.00    -0.050 C 
ATOM      2  C   UNL     1      20.811  44.290  25.971  0.00  0.00    +0.004 C 
ATOM      3  C   UNL     1      20.062  45.468  26.601  0.00  0.00    -0.050 C 
ATOM      4  N   UNL     1      21.352  44.534  24.633  0.00  0.00    -0.303 N 
ATOM      5  C   UNL     1      21.938  45.843  24.382  0.00  0.00    -0.013 C 
ATOM      6  C   UNL     1      20.568  43.976  23.524  0.00  0.00    +0.000 C 
ATOM      7  C   UNL     1      19.125  44.466  23.294  0.00  0.00    -0.028 C 
ATOM      8  C   UNL     1      18.991  45.856  22.660  0.00  0.00    -0.003 C 
ATOM      9  N   UNL     1      19.555  45.866  21.311  0.00  0.00    -0.309 N 
ATOM     10  C   UNL     1      19.891  47.219  20.875  0.00  0.00    +0.055 C 
ATOM     11  C   UNL     1      20.275  47.236  19.436  0.00  0.00    +0.119 A 
ATOM     12  C   UNL     1      19.604  47.582  18.284  0.00  0.00    -0.019 A 
ATOM     13  C   UNL     1      20.518  47.386  17.220  0.00  0.00    -0.016 A 
ATOM     14  C   UNL     1      21.691  46.919  17.778  0.00  0.00    +0.135 A 
ATOM     15  C   UNL     1      22.986  46.507  17.242  0.00  0.00    +0.019 A 
ATOM     16  C   UNL     1      23.989  45.989  18.080  0.00  0.00    -0.051 A 
ATOM     17  C   UNL     1      25.217  45.573  17.563  0.00  0.00    -0.060 A 
ATOM     18  C   UNL     1      25.466  45.671  16.198  0.00  0.00    -0.043 A 
ATOM     19  C   UNL     1      24.484  46.189  15.358  0.00  0.00    +0.042 A 
ATOM     20 CL   UNL     1      24.787  46.310  13.669  0.00  0.00    -0.084 Cl
ATOM     21  C   UNL     1      23.253  46.604  15.870  0.00  0.00    -0.033 A 
ATOM     22  O   UNL     1      21.543  46.841  19.133  0.00  0.00    -0.458 OA
ATOM     23  H   UNL     1      22.186  43.947  24.657  0.00  0.00    +0.000 HD
ATOM     24  H   UNL     1      18.872  45.471  20.665  0.00  0.00    +0.000 HD
ATOM     25  H   UNL     1      20.411  45.312  21.321  0.00  0.00    +0.000 HD
ENDROOT
TORSDOF 0
ENDMDL
MODEL 7
REMARK VINA RESULT:    -2.487     17.710     19.506
REMARK INTER + INTRA:          -2.487
REMARK INTER:                  -2.487
REMARK INTRA:                   0.000
REMARK UNBOUND:                 0.000
REMARK  Name = /home/vital/Documents/PhD_2021/Malaria_codes/scripts/../data/pdbqt_ligands/ligand_417_temp.pdb
REMARK                            x       y       z     vdW  Elec       q    Type
REMARK                         _______ _______ _______ _____ _____    ______ ____
ROOT
ATOM      1  C   UNL     1      19.859  34.839  21.418  0.00  0.00    -0.050 C 
ATOM      2  C   UNL     1      18.718  35.123  20.434  0.00  0.00    +0.004 C 
ATOM      3  C   UNL     1      19.118  36.277  19.510  0.00  0.00    -0.050 C 
ATOM      4  N   UNL     1      18.366  33.873  19.758  0.00  0.00    -0.303 N 
ATOM      5  C   UNL     1      19.171  33.491  18.607  0.00  0.00    -0.013 C 
ATOM      6  C   UNL     1      16.928  33.605  19.633  0.00  0.00    +0.000 C 
ATOM      7  C   UNL     1      16.045  34.575  18.822  0.00  0.00    -0.028 C 
ATOM      8  C   UNL     1      16.176  34.470  17.297  0.00  0.00    -0.003 C 
ATOM      9  N   UNL     1      15.730  33.158  16.829  0.00  0.00    -0.309 N 
ATOM     10  C   UNL     1      16.277  32.840  15.512  0.00  0.00    +0.055 C 
ATOM     11  C   UNL     1      15.661  31.600  14.964  0.00  0.00    +0.119 A 
ATOM     12  C   UNL     1      14.665  31.367  14.042  0.00  0.00    -0.019 A 
ATOM     13  C   UNL     1      14.536  29.961  13.944  0.00  0.00    -0.016 A 
ATOM     14  C   UNL     1      15.450  29.411  14.820  0.00  0.00    +0.135 A 
ATOM     15  C   UNL     1      15.802  28.048  15.211  0.00  0.00    +0.019 A 
ATOM     16  C   UNL     1      16.752  27.801  16.217  0.00  0.00    -0.051 A 
ATOM     17  C   UNL     1      17.069  26.499  16.606  0.00  0.00    -0.060 A 
ATOM     18  C   UNL     1      16.445  25.418  15.991  0.00  0.00    -0.043 A 
ATOM     19  C   UNL     1      15.507  25.648  14.988  0.00  0.00    +0.042 A 
ATOM     20 CL   UNL     1      14.731  24.315  14.227  0.00  0.00    -0.084 Cl
ATOM     21  C   UNL     1      15.185  26.949  14.597  0.00  0.00    -0.033 A 
ATOM     22  O   UNL     1      16.144  30.415  15.432  0.00  0.00    -0.458 OA
ATOM     23  H   UNL     1      18.677  33.191  20.450  0.00  0.00    +0.000 HD
ATOM     24  H   UNL     1      14.712  33.155  16.773  0.00  0.00    +0.000 HD
ATOM     25  H   UNL     1      16.063  32.456  17.489  0.00  0.00    +0.000 HD
ENDROOT
TORSDOF 0
ENDMDL
