MODEL 1
REMARK VINA RESULT:    -3.683      0.000      0.000
REMARK INTER + INTRA:          -3.683
REMARK INTER:                  -3.683
REMARK INTRA:                   0.000
REMARK UNBOUND:                 0.000
REMARK  Name = /home/vital/Documents/PhD_2021/Malaria_codes/scripts/../data/pdbqt_ligands/ligand_347_temp.pdb
REMARK                            x       y       z     vdW  Elec       q    Type
REMARK                         _______ _______ _______ _____ _____    ______ ____
ROOT
ATOM      1  C1  UNL     1      15.756  38.512  16.363  0.00  0.00    -0.062 C 
ATOM      2  C2  UNL     1      17.062  37.927  15.845  0.00  0.00    -0.021 C 
ATOM      3  C3  UNL     1      16.889  36.510  15.301  0.00  0.00    +0.089 C 
ATOM      4  O1  UNL     1      16.489  35.652  16.370  0.00  0.00    -0.492 OA
ATOM      5  C4  UNL     1      16.268  34.335  16.078  0.00  0.00    +0.124 A 
ATOM      6  C5  UNL     1      15.851  33.568  17.162  0.00  0.00    -0.019 A 
ATOM      7  C6  UNL     1      15.591  32.207  17.005  0.00  0.00    -0.043 A 
ATOM      8  C7  UNL     1      15.740  31.582  15.755  0.00  0.00    +0.079 A 
ATOM      9  C8  UNL     1      15.429  30.108  15.709  0.00  0.00    +0.253 C 
ATOM     10  O2  UNL     1      15.066  29.546  16.740  0.00  0.00    -0.270 OA
ATOM     11  N1  UNL     1      15.573  29.483  14.495  0.00  0.00    -0.264 N 
ATOM     12  C9  UNL     1      15.342  28.152  14.237  0.00  0.00    +0.168 A 
ATOM     13  C10 UNL     1      14.915  27.129  15.112  0.00  0.00    +0.022 A 
ATOM     14  C11 UNL     1      14.851  26.005  14.326  0.00  0.00    +0.136 A 
ATOM     15  C12 UNL     1      14.488  24.599  14.569  0.00  0.00    -0.004 C 
ATOM     16  O3  UNL     1      15.217  26.329  13.059  0.00  0.00    -0.358 OA
ATOM     17  N2  UNL     1      15.525  27.675  13.000  0.00  0.00    -0.063 NA
ATOM     18  C13 UNL     1      16.164  32.357  14.653  0.00  0.00    +0.136 A 
ATOM     19  O4  UNL     1      16.303  31.717  13.445  0.00  0.00    -0.494 OA
ATOM     20  C14 UNL     1      16.726  32.480  12.317  0.00  0.00    +0.079 C 
ATOM     21  C15 UNL     1      16.424  33.729  14.829  0.00  0.00    +0.023 A 
ATOM     22  H   UNL     1      15.870  30.039  13.739  0.00  0.00    +0.000 HD
ENDROOT
TORSDOF 0
ENDMDL
MODEL 2
REMARK VINA RESULT:    -3.536      2.118      7.869
REMARK INTER + INTRA:          -3.536
REMARK INTER:                  -3.536
REMARK INTRA:                   0.000
REMARK UNBOUND:                 0.000
REMARK  Name = /home/vital/Documents/PhD_2021/Malaria_codes/scripts/../data/pdbqt_ligands/ligand_347_temp.pdb
REMARK                            x       y       z     vdW  Elec       q    Type
REMARK                         _______ _______ _______ _____ _____    ______ ____
ROOT
ATOM      1  C1  UNL     1      15.824  23.986  16.000  0.00  0.00    -0.062 C 
ATOM      2  C2  UNL     1      14.669  24.572  15.202  0.00  0.00    -0.021 C 
ATOM      3  C3  UNL     1      14.912  26.029  14.812  0.00  0.00    +0.089 C 
ATOM      4  O1  UNL     1      14.989  26.817  16.000  0.00  0.00    -0.492 OA
ATOM      5  C4  UNL     1      15.218  28.157  15.858  0.00  0.00    +0.124 A 
ATOM      6  C5  UNL     1      15.312  28.854  17.059  0.00  0.00    -0.019 A 
ATOM      7  C6  UNL     1      15.544  30.229  17.061  0.00  0.00    -0.043 A 
ATOM      8  C7  UNL     1      15.689  30.940  15.856  0.00  0.00    +0.079 A 
ATOM      9  C8  UNL     1      15.937  32.420  15.986  0.00  0.00    +0.253 C 
ATOM     10  O2  UNL     1      16.000  32.915  17.109  0.00  0.00    -0.270 OA
ATOM     11  N1  UNL     1      16.078  33.128  14.817  0.00  0.00    -0.264 N 
ATOM     12  C9  UNL     1      16.309  34.480  14.713  0.00  0.00    +0.168 A 
ATOM     13  C10 UNL     1      16.454  35.448  15.730  0.00  0.00    +0.022 A 
ATOM     14  C11 UNL     1      16.666  36.627  15.060  0.00  0.00    +0.136 A 
ATOM     15  C12 UNL     1      16.893  38.020  15.476  0.00  0.00    -0.004 C 
ATOM     16  O3  UNL     1      16.649  36.386  13.723  0.00  0.00    -0.358 OA
ATOM     17  N2  UNL     1      16.425  35.040  13.502  0.00  0.00    -0.063 NA
ATOM     18  C13 UNL     1      15.594  30.236  14.636  0.00  0.00    +0.136 A 
ATOM     19  O4  UNL     1      15.738  30.957  13.476  0.00  0.00    -0.494 OA
ATOM     20  C14 UNL     1      15.650  30.267  12.232  0.00  0.00    +0.079 C 
ATOM     21  C15 UNL     1      15.359  28.848  14.652  0.00  0.00    +0.023 A 
ATOM     22  H   UNL     1      16.008  32.620  13.977  0.00  0.00    +0.000 HD
ENDROOT
TORSDOF 0
ENDMDL
MODEL 3
REMARK VINA RESULT:    -3.495     14.167     15.629
REMARK INTER + INTRA:          -3.495
REMARK INTER:                  -3.495
REMARK INTRA:                   0.000
REMARK UNBOUND:                 0.000
REMARK  Name = /home/vital/Documents/PhD_2021/Malaria_codes/scripts/../data/pdbqt_ligands/ligand_347_temp.pdb
REMARK                            x       y       z     vdW  Elec       q    Type
REMARK                         _______ _______ _______ _____ _____    ______ ____
ROOT
ATOM      1  C1  UNL     1      14.989  47.040  22.595  0.00  0.00    -0.062 C 
ATOM      2  C2  UNL     1      13.736  47.053  23.459  0.00  0.00    -0.021 C 
ATOM      3  C3  UNL     1      13.728  45.925  24.489  0.00  0.00    +0.089 C 
ATOM      4  O1  UNL     1      13.700  44.674  23.802  0.00  0.00    -0.492 OA
ATOM      5  C4  UNL     1      13.703  43.535  24.558  0.00  0.00    +0.124 A 
ATOM      6  C5  UNL     1      13.707  42.355  23.820  0.00  0.00    -0.019 A 
ATOM      7  C6  UNL     1      13.710  41.119  24.464  0.00  0.00    -0.043 A 
ATOM      8  C7  UNL     1      13.711  41.035  25.868  0.00  0.00    +0.079 A 
ATOM      9  C8  UNL     1      13.715  39.645  26.449  0.00  0.00    +0.253 C 
ATOM     10  O2  UNL     1      13.720  38.683  25.685  0.00  0.00    -0.270 OA
ATOM     11  N1  UNL     1      13.713  39.548  27.819  0.00  0.00    -0.264 N 
ATOM     12  C9  UNL     1      13.716  38.382  28.548  0.00  0.00    +0.168 A 
ATOM     13  C10 UNL     1      13.722  37.043  28.100  0.00  0.00    +0.022 A 
ATOM     14  C11 UNL     1      13.723  36.292  29.249  0.00  0.00    +0.136 A 
ATOM     15  C12 UNL     1      13.728  34.848  29.535  0.00  0.00    -0.004 C 
ATOM     16  O3  UNL     1      13.718  37.125  30.322  0.00  0.00    -0.358 OA
ATOM     17  N2  UNL     1      13.714  38.436  29.886  0.00  0.00    -0.063 NA
ATOM     18  C13 UNL     1      13.707  42.231  26.620  0.00  0.00    +0.136 A 
ATOM     19  O4  UNL     1      13.706  42.117  27.990  0.00  0.00    -0.494 OA
ATOM     20  C14 UNL     1      13.705  43.309  28.770  0.00  0.00    +0.079 C 
ATOM     21  C15 UNL     1      13.703  43.470  25.953  0.00  0.00    +0.023 A 
ATOM     22  H   UNL     1      13.709  40.392  28.327  0.00  0.00    +0.000 HD
ENDROOT
TORSDOF 0
ENDMDL
MODEL 4
REMARK VINA RESULT:    -3.488     14.258     17.639
REMARK INTER + INTRA:          -3.488
REMARK INTER:                  -3.488
REMARK INTRA:                   0.000
REMARK UNBOUND:                 0.000
REMARK  Name = /home/vital/Documents/PhD_2021/Malaria_codes/scripts/../data/pdbqt_ligands/ligand_347_temp.pdb
REMARK                            x       y       z     vdW  Elec       q    Type
REMARK                         _______ _______ _______ _____ _____    ______ ____
ROOT
ATOM      1  C1  UNL     1      15.109  36.157  31.849  0.00  0.00    -0.062 C 
ATOM      2  C2  UNL     1      13.867  36.034  30.979  0.00  0.00    -0.021 C 
ATOM      3  C3  UNL     1      13.849  37.056  29.844  0.00  0.00    +0.089 C 
ATOM      4  O1  UNL     1      13.788  38.367  30.405  0.00  0.00    -0.492 OA
ATOM      5  C4  UNL     1      13.778  39.427  29.543  0.00  0.00    +0.124 A 
ATOM      6  C5  UNL     1      13.749  40.673  30.162  0.00  0.00    -0.019 A 
ATOM      7  C6  UNL     1      13.736  41.840  29.401  0.00  0.00    -0.043 A 
ATOM      8  C7  UNL     1      13.752  41.787  27.995  0.00  0.00    +0.079 A 
ATOM      9  C8  UNL     1      13.735  43.114  27.282  0.00  0.00    +0.253 C 
ATOM     10  O2  UNL     1      13.712  44.146  27.949  0.00  0.00    -0.270 OA
ATOM     11  N1  UNL     1      13.748  43.078  25.909  0.00  0.00    -0.264 N 
ATOM     12  C9  UNL     1      13.737  44.168  25.070  0.00  0.00    +0.168 A 
ATOM     13  C10 UNL     1      13.711  45.544  25.386  0.00  0.00    +0.022 A 
ATOM     14  C11 UNL     1      13.711  46.179  24.170  0.00  0.00    +0.136 A 
ATOM     15  C12 UNL     1      13.690  47.588  23.745  0.00  0.00    -0.004 C 
ATOM     16  O3  UNL     1      13.735  45.247  23.182  0.00  0.00    -0.358 OA
ATOM     17  N2  UNL     1      13.751  43.984  23.744  0.00  0.00    -0.063 NA
ATOM     18  C13 UNL     1      13.780  40.525  27.363  0.00  0.00    +0.136 A 
ATOM     19  O4  UNL     1      13.793  40.505  25.989  0.00  0.00    -0.494 OA
ATOM     20  C14 UNL     1      13.826  39.243  25.328  0.00  0.00    +0.079 C 
ATOM     21  C15 UNL     1      13.793  39.356  28.148  0.00  0.00    +0.023 A 
ATOM     22  H   UNL     1      13.767  42.189  25.486  0.00  0.00    +0.000 HD
ENDROOT
TORSDOF 0
ENDMDL
MODEL 5
REMARK VINA RESULT:    -3.391      1.670      2.707
REMARK INTER + INTRA:          -3.391
REMARK INTER:                  -3.391
REMARK INTRA:                   0.000
REMARK UNBOUND:                 0.000
REMARK  Name = /home/vital/Documents/PhD_2021/Malaria_codes/scripts/../data/pdbqt_ligands/ligand_347_temp.pdb
REMARK                            x       y       z     vdW  Elec       q    Type
REMARK                         _______ _______ _______ _____ _____    ______ ____
ROOT
ATOM      1  C1  UNL     1      18.523  38.216  13.935  0.00  0.00    -0.062 C 
ATOM      2  C2  UNL     1      17.173  38.160  14.634  0.00  0.00    -0.021 C 
ATOM      3  C3  UNL     1      16.798  36.743  15.064  0.00  0.00    +0.089 C 
ATOM      4  O1  UNL     1      16.654  35.931  13.899  0.00  0.00    -0.492 OA
ATOM      5  C4  UNL     1      16.333  34.615  14.079  0.00  0.00    +0.124 A 
ATOM      6  C5  UNL     1      16.241  33.879  12.901  0.00  0.00    -0.019 A 
ATOM      7  C6  UNL     1      15.919  32.523  12.938  0.00  0.00    -0.043 A 
ATOM      8  C7  UNL     1      15.682  31.870  14.161  0.00  0.00    +0.079 A 
ATOM      9  C8  UNL     1      15.343  30.404  14.074  0.00  0.00    +0.253 C 
ATOM     10  O2  UNL     1      15.296  29.870  12.968  0.00  0.00    -0.270 OA
ATOM     11  N1  UNL     1      15.107  29.753  15.260  0.00  0.00    -0.264 N 
ATOM     12  C9  UNL     1      14.784  28.424  15.404  0.00  0.00    +0.168 A 
ATOM     13  C10 UNL     1      14.619  27.428  14.417  0.00  0.00    +0.022 A 
ATOM     14  C11 UNL     1      14.303  26.292  15.119  0.00  0.00    +0.136 A 
ATOM     15  C12 UNL     1      14.002  24.901  14.744  0.00  0.00    -0.004 C 
ATOM     16  O3  UNL     1      14.277  26.584  16.445  0.00  0.00    -0.358 OA
ATOM     17  N2  UNL     1      14.579  27.920  16.627  0.00  0.00    -0.063 NA
ATOM     18  C13 UNL     1      15.774  32.613  15.358  0.00  0.00    +0.136 A 
ATOM     19  O4  UNL     1      15.535  31.948  16.536  0.00  0.00    -0.494 OA
ATOM     20  C14 UNL     1      15.626  32.676  17.758  0.00  0.00    +0.079 C 
ATOM     21  C15 UNL     1      16.099  33.982  15.302  0.00  0.00    +0.023 A 
ATOM     22  H   UNL     1      15.174  30.288  16.084  0.00  0.00    +0.000 HD
ENDROOT
TORSDOF 0
ENDMDL
MODEL 6
REMARK VINA RESULT:    -3.377     16.520     19.425
REMARK INTER + INTRA:          -3.377
REMARK INTER:                  -3.377
REMARK INTRA:                   0.000
REMARK UNBOUND:                 0.000
REMARK  Name = /home/vital/Documents/PhD_2021/Malaria_codes/scripts/../data/pdbqt_ligands/ligand_347_temp.pdb
REMARK                            x       y       z     vdW  Elec       q    Type
REMARK                         _______ _______ _______ _____ _____    ______ ____
ROOT
ATOM      1  C1  UNL     1      15.727  41.508  34.685  0.00  0.00    -0.062 C 
ATOM      2  C2  UNL     1      14.363  41.145  34.118  0.00  0.00    -0.021 C 
ATOM      3  C3  UNL     1      14.244  41.472  32.631  0.00  0.00    +0.089 C 
ATOM      4  O1  UNL     1      14.360  42.884  32.459  0.00  0.00    -0.492 OA
ATOM      5  C4  UNL     1      14.293  43.376  31.186  0.00  0.00    +0.124 A 
ATOM      6  C5  UNL     1      14.446  44.756  31.094  0.00  0.00    -0.019 A 
ATOM      7  C6  UNL     1      14.398  45.391  29.853  0.00  0.00    -0.043 A 
ATOM      8  C7  UNL     1      14.198  44.655  28.672  0.00  0.00    +0.079 A 
ATOM      9  C8  UNL     1      14.166  45.451  27.393  0.00  0.00    +0.253 C 
ATOM     10  O2  UNL     1      14.316  46.670  27.448  0.00  0.00    -0.270 OA
ATOM     11  N1  UNL     1      13.968  44.746  26.231  0.00  0.00    -0.264 N 
ATOM     12  C9  UNL     1      13.906  45.276  24.963  0.00  0.00    +0.168 A 
ATOM     13  C10 UNL     1      14.024  46.619  24.544  0.00  0.00    +0.022 A 
ATOM     14  C11 UNL     1      13.884  46.571  23.180  0.00  0.00    +0.136 A 
ATOM     15  C12 UNL     1      13.898  47.579  22.108  0.00  0.00    -0.004 C 
ATOM     16  O3  UNL     1      13.693  45.281  22.799  0.00  0.00    -0.358 OA
ATOM     17  N2  UNL     1      13.707  44.466  23.916  0.00  0.00    -0.063 NA
ATOM     18  C13 UNL     1      14.042  43.255  28.761  0.00  0.00    +0.136 A 
ATOM     19  O4  UNL     1      13.846  42.563  27.590  0.00  0.00    -0.494 OA
ATOM     20  C14 UNL     1      13.690  41.148  27.655  0.00  0.00    +0.079 C 
ATOM     21  C15 UNL     1      14.092  42.630  30.022  0.00  0.00    +0.023 A 
ATOM     22  H   UNL     1      13.861  43.771  26.313  0.00  0.00    +0.000 HD
ENDROOT
TORSDOF 0
ENDMDL
MODEL 7
REMARK VINA RESULT:    -3.306      2.144      2.558
REMARK INTER + INTRA:          -3.306
REMARK INTER:                  -3.306
REMARK INTRA:                   0.000
REMARK UNBOUND:                 0.000
REMARK  Name = /home/vital/Documents/PhD_2021/Malaria_codes/scripts/../data/pdbqt_ligands/ligand_347_temp.pdb
REMARK                            x       y       z     vdW  Elec       q    Type
REMARK                         _______ _______ _______ _____ _____    ______ ____
ROOT
ATOM      1  C1  UNL     1      14.447  36.613  17.232  0.00  0.00    -0.062 C 
ATOM      2  C2  UNL     1      15.648  36.212  16.389  0.00  0.00    -0.021 C 
ATOM      3  C3  UNL     1      15.638  34.727  16.031  0.00  0.00    +0.089 C 
ATOM      4  O1  UNL     1      15.747  33.963  17.232  0.00  0.00    -0.492 OA
ATOM      5  C4  UNL     1      15.740  32.601  17.120  0.00  0.00    +0.124 A 
ATOM      6  C5  UNL     1      15.817  31.923  18.334  0.00  0.00    -0.019 A 
ATOM      7  C6  UNL     1      15.821  30.530  18.366  0.00  0.00    -0.043 A 
ATOM      8  C7  UNL     1      15.744  29.779  17.179  0.00  0.00    +0.079 A 
ATOM      9  C8  UNL     1      15.755  28.281  17.341  0.00  0.00    +0.253 C 
ATOM     10  O2  UNL     1      15.825  27.806  18.472  0.00  0.00    -0.270 OA
ATOM     11  N1  UNL     1      15.684  27.534  16.190  0.00  0.00    -0.264 N 
ATOM     12  C9  UNL     1      15.680  26.161  16.115  0.00  0.00    +0.168 A 
ATOM     13  C10 UNL     1      15.745  25.205  17.151  0.00  0.00    +0.022 A 
ATOM     14  C11 UNL     1      15.705  23.993  16.509  0.00  0.00    +0.136 A 
ATOM     15  C12 UNL     1      15.734  22.590  16.954  0.00  0.00    -0.004 C 
ATOM     16  O3  UNL     1      15.622  24.204  15.169  0.00  0.00    -0.358 OA
ATOM     17  N2  UNL     1      15.606  25.563  14.919  0.00  0.00    -0.063 NA
ATOM     18  C13 UNL     1      15.666  30.463  15.946  0.00  0.00    +0.136 A 
ATOM     19  O4  UNL     1      15.594  29.702  14.804  0.00  0.00    -0.494 OA
ATOM     20  C14 UNL     1      15.511  30.370  13.547  0.00  0.00    +0.079 C 
ATOM     21  C15 UNL     1      15.665  31.870  15.932  0.00  0.00    +0.023 A 
ATOM     22  H   UNL     1      15.631  28.028  15.340  0.00  0.00    +0.000 HD
ENDROOT
TORSDOF 0
ENDMDL
MODEL 8
REMARK VINA RESULT:    -1.416     16.670     17.626
REMARK INTER + INTRA:          -1.416
REMARK INTER:                  -1.416
REMARK INTRA:                   0.000
REMARK UNBOUND:                 0.000
REMARK  Name = /home/vital/Documents/PhD_2021/Malaria_codes/scripts/../data/pdbqt_ligands/ligand_347_temp.pdb
REMARK                            x       y       z     vdW  Elec       q    Type
REMARK                         _______ _______ _______ _____ _____    ______ ____
ROOT
ATOM      1  C1  UNL     1      22.822  46.040  15.659  0.00  0.00    -0.062 C 
ATOM      2  C2  UNL     1      23.539  46.527  16.909  0.00  0.00    -0.021 C 
ATOM      3  C3  UNL     1      22.742  46.250  18.182  0.00  0.00    +0.089 C 
ATOM      4  O1  UNL     1      21.523  46.992  18.133  0.00  0.00    -0.492 OA
ATOM      5  C4  UNL     1      20.660  46.864  19.185  0.00  0.00    +0.124 A 
ATOM      6  C5  UNL     1      19.480  47.590  19.052  0.00  0.00    -0.019 A 
ATOM      7  C6  UNL     1      18.511  47.551  20.053  0.00  0.00    -0.043 A 
ATOM      8  C7  UNL     1      18.700  46.780  21.213  0.00  0.00    +0.079 A 
ATOM      9  C8  UNL     1      17.582  46.816  22.223  0.00  0.00    +0.253 C 
ATOM     10  O2  UNL     1      16.588  47.498  21.984  0.00  0.00    -0.270 OA
ATOM     11  N1  UNL     1      17.754  46.069  23.363  0.00  0.00    -0.264 N 
ATOM     12  C9  UNL     1      16.861  45.964  24.404  0.00  0.00    +0.168 A 
ATOM     13  C10 UNL     1      15.595  46.567  24.566  0.00  0.00    +0.022 A 
ATOM     14  C11 UNL     1      15.148  46.116  25.783  0.00  0.00    +0.136 A 
ATOM     15  C12 UNL     1      13.928  46.333  26.576  0.00  0.00    -0.004 C 
ATOM     16  O3  UNL     1      16.086  45.294  26.322  0.00  0.00    -0.358 OA
ATOM     17  N2  UNL     1      17.161  45.196  25.459  0.00  0.00    -0.063 NA
ATOM     18  C13 UNL     1      19.896  46.042  21.352  0.00  0.00    +0.136 A 
ATOM     19  O4  UNL     1      20.052  45.299  22.497  0.00  0.00    -0.494 OA
ATOM     20  C14 UNL     1      21.250  44.543  22.657  0.00  0.00    +0.079 C 
ATOM     21  C15 UNL     1      20.865  46.093  20.332  0.00  0.00    +0.023 A 
ATOM     22  H   UNL     1      18.594  45.563  23.442  0.00  0.00    +0.000 HD
ENDROOT
TORSDOF 0
ENDMDL
