MODEL 1
REMARK VINA RESULT:    -3.673      0.000      0.000
REMARK INTER + INTRA:          -3.673
REMARK INTER:                  -3.673
REMARK INTRA:                   0.000
REMARK UNBOUND:                 0.000
REMARK  Name = /home/vital/Documents/PhD_2021/Malaria_codes/scripts/../data/pdbqt_ligands/ligand_234_temp.pdb
REMARK                            x       y       z     vdW  Elec       q    Type
REMARK                         _______ _______ _______ _____ _____    ______ ____
ROOT
ATOM      1  C1  UNL     1      21.044  27.476  17.939  0.00  0.00    -0.022 C 
ATOM      2  C2  UNL     1      20.788  27.394  16.453  0.00  0.00    +0.045 A 
ATOM      3  C3  UNL     1      19.363  27.249  16.016  0.00  0.00    -0.000 A 
ATOM      4  C4  UNL     1      19.131  27.149  14.693  0.00  0.00    +0.130 A 
ATOM      5  N1  UNL     1      17.897  27.036  14.069  0.00  0.00    -0.297 N 
ATOM      6  C5  UNL     1      16.682  26.459  14.484  0.00  0.00    +0.069 A 
ATOM      7  C6  UNL     1      16.544  25.652  15.619  0.00  0.00    -0.026 A 
ATOM      8  C7  UNL     1      15.287  25.152  16.018  0.00  0.00    +0.057 A 
ATOM      9  C8  UNL     1      15.180  24.258  17.232  0.00  0.00    +0.417 C 
ATOM     10  F1  UNL     1      15.407  22.951  16.933  0.00  0.00    -0.166 F 
ATOM     11  F2  UNL     1      16.077  24.583  18.204  0.00  0.00    -0.166 F 
ATOM     12  F3  UNL     1      13.956  24.304  17.825  0.00  0.00    -0.166 F 
ATOM     13  C9  UNL     1      14.151  25.462  15.256  0.00  0.00    -0.047 A 
ATOM     14  C10 UNL     1      14.267  26.264  14.124  0.00  0.00    -0.024 A 
ATOM     15  C11 UNL     1      15.517  26.754  13.755  0.00  0.00    +0.144 A 
ATOM     16  F4  UNL     1      15.604  27.527  12.661  0.00  0.00    -0.204 F 
ATOM     17  N2  UNL     1      20.250  27.240  13.835  0.00  0.00    -0.182 N 
ATOM     18  N3  UNL     1      20.273  27.210  12.473  0.00  0.00    -0.151 NA
ATOM     19  C12 UNL     1      21.576  27.333  12.221  0.00  0.00    +0.141 A 
ATOM     20  N4  UNL     1      22.387  27.443  13.308  0.00  0.00    -0.197 NA
ATOM     21  C13 UNL     1      21.552  27.389  14.323  0.00  0.00    +0.255 A 
ATOM     22  N5  UNL     1      21.814  27.459  15.660  0.00  0.00    -0.216 NA
ATOM     23  H   UNL     1      17.866  27.434  13.168  0.00  0.00    +0.000 HD
ENDROOT
TORSDOF 0
ENDMDL
MODEL 2
REMARK VINA RESULT:    -3.220      5.515      7.282
REMARK INTER + INTRA:          -3.220
REMARK INTER:                  -3.220
REMARK INTRA:                   0.000
REMARK UNBOUND:                 0.000
REMARK  Name = /home/vital/Documents/PhD_2021/Malaria_codes/scripts/../data/pdbqt_ligands/ligand_234_temp.pdb
REMARK                            x       y       z     vdW  Elec       q    Type
REMARK                         _______ _______ _______ _____ _____    ______ ____
ROOT
ATOM      1  C1  UNL     1      13.690  25.666  16.594  0.00  0.00    -0.022 C 
ATOM      2  C2  UNL     1      14.668  26.414  17.467  0.00  0.00    +0.045 A 
ATOM      3  C3  UNL     1      14.753  27.897  17.277  0.00  0.00    -0.000 A 
ATOM      4  C4  UNL     1      15.643  28.566  18.034  0.00  0.00    +0.130 A 
ATOM      5  N1  UNL     1      15.868  29.935  18.043  0.00  0.00    -0.297 N 
ATOM      6  C5  UNL     1      15.752  30.914  17.039  0.00  0.00    +0.069 A 
ATOM      7  C6  UNL     1      15.562  30.629  15.682  0.00  0.00    -0.026 A 
ATOM      8  C7  UNL     1      15.390  31.655  14.730  0.00  0.00    +0.057 A 
ATOM      9  C8  UNL     1      15.217  31.310  13.269  0.00  0.00    +0.417 C 
ATOM     10  F1  UNL     1      16.408  31.158  12.630  0.00  0.00    -0.166 F 
ATOM     11  F2  UNL     1      14.538  30.144  13.082  0.00  0.00    -0.166 F 
ATOM     12  F3  UNL     1      14.531  32.256  12.573  0.00  0.00    -0.166 F 
ATOM     13  C9  UNL     1      15.420  32.993  15.150  0.00  0.00    -0.047 A 
ATOM     14  C10 UNL     1      15.607  33.299  16.495  0.00  0.00    -0.024 A 
ATOM     15  C11 UNL     1      15.765  32.268  17.418  0.00  0.00    +0.144 A 
ATOM     16  F4  UNL     1      15.942  32.587  18.710  0.00  0.00    -0.204 F 
ATOM     17  N2  UNL     1      16.382  27.814  18.975  0.00  0.00    -0.182 N 
ATOM     18  N3  UNL     1      17.301  28.259  19.876  0.00  0.00    -0.151 NA
ATOM     19  C12 UNL     1      17.659  27.127  20.481  0.00  0.00    +0.141 A 
ATOM     20  N4  UNL     1      17.041  25.996  20.045  0.00  0.00    -0.197 NA
ATOM     21  C13 UNL     1      16.234  26.429  19.100  0.00  0.00    +0.255 A 
ATOM     22  N5  UNL     1      15.364  25.726  18.321  0.00  0.00    -0.216 NA
ATOM     23  H   UNL     1      16.165  30.287  18.914  0.00  0.00    +0.000 HD
ENDROOT
TORSDOF 0
ENDMDL
MODEL 3
REMARK VINA RESULT:    -3.163      5.202      7.224
REMARK INTER + INTRA:          -3.163
REMARK INTER:                  -3.163
REMARK INTRA:                   0.000
REMARK UNBOUND:                 0.000
REMARK  Name = /home/vital/Documents/PhD_2021/Malaria_codes/scripts/../data/pdbqt_ligands/ligand_234_temp.pdb
REMARK                            x       y       z     vdW  Elec       q    Type
REMARK                         _______ _______ _______ _____ _____    ______ ____
ROOT
ATOM      1  C1  UNL     1      18.058  30.945  20.074  0.00  0.00    -0.022 C 
ATOM      2  C2  UNL     1      16.926  30.020  20.454  0.00  0.00    +0.045 A 
ATOM      3  C3  UNL     1      16.393  29.122  19.381  0.00  0.00    -0.000 A 
ATOM      4  C4  UNL     1      15.366  28.314  19.707  0.00  0.00    +0.130 A 
ATOM      5  N1  UNL     1      14.739  27.389  18.885  0.00  0.00    -0.297 N 
ATOM      6  C5  UNL     1      14.524  27.359  17.495  0.00  0.00    +0.069 A 
ATOM      7  C6  UNL     1      14.750  28.445  16.642  0.00  0.00    -0.026 A 
ATOM      8  C7  UNL     1      14.576  28.335  15.247  0.00  0.00    +0.057 A 
ATOM      9  C8  UNL     1      14.800  29.538  14.360  0.00  0.00    +0.417 C 
ATOM     10  F1  UNL     1      13.692  30.319  14.259  0.00  0.00    -0.166 F 
ATOM     11  F2  UNL     1      15.793  30.350  14.817  0.00  0.00    -0.166 F 
ATOM     12  F3  UNL     1      15.148  29.207  13.086  0.00  0.00    -0.166 F 
ATOM     13  C9  UNL     1      14.157  27.113  14.701  0.00  0.00    -0.047 A 
ATOM     14  C10 UNL     1      13.927  26.020  15.532  0.00  0.00    -0.024 A 
ATOM     15  C11 UNL     1      14.115  26.150  16.906  0.00  0.00    +0.144 A 
ATOM     16  F4  UNL     1      13.889  25.081  17.687  0.00  0.00    -0.204 F 
ATOM     17  N2  UNL     1      14.917  28.353  21.046  0.00  0.00    -0.182 N 
ATOM     18  N3  UNL     1      13.934  27.611  21.629  0.00  0.00    -0.151 NA
ATOM     19  C12 UNL     1      13.953  28.068  22.880  0.00  0.00    +0.141 A 
ATOM     20  N4  UNL     1      14.869  29.038  23.147  0.00  0.00    -0.197 NA
ATOM     21  C13 UNL     1      15.479  29.213  21.995  0.00  0.00    +0.255 A 
ATOM     22  N5  UNL     1      16.497  30.064  21.678  0.00  0.00    -0.216 NA
ATOM     23  H   UNL     1      14.377  26.608  19.364  0.00  0.00    +0.000 HD
ENDROOT
TORSDOF 0
ENDMDL
MODEL 4
REMARK VINA RESULT:    -3.034      2.917      5.047
REMARK INTER + INTRA:          -3.034
REMARK INTER:                  -3.034
REMARK INTRA:                   0.000
REMARK UNBOUND:                 0.000
REMARK  Name = /home/vital/Documents/PhD_2021/Malaria_codes/scripts/../data/pdbqt_ligands/ligand_234_temp.pdb
REMARK                            x       y       z     vdW  Elec       q    Type
REMARK                         _______ _______ _______ _____ _____    ______ ____
ROOT
ATOM      1  C1  UNL     1      21.717  27.266  16.842  0.00  0.00    -0.022 C 
ATOM      2  C2  UNL     1      20.701  26.548  17.697  0.00  0.00    +0.045 A 
ATOM      3  C3  UNL     1      19.499  25.989  17.000  0.00  0.00    -0.000 A 
ATOM      4  C4  UNL     1      18.577  25.370  17.761  0.00  0.00    +0.130 A 
ATOM      5  N1  UNL     1      17.409  24.760  17.326  0.00  0.00    -0.297 N 
ATOM      6  C5  UNL     1      16.558  25.026  16.237  0.00  0.00    +0.069 A 
ATOM      7  C6  UNL     1      16.636  26.176  15.443  0.00  0.00    -0.026 A 
ATOM      8  C7  UNL     1      15.795  26.357  14.325  0.00  0.00    +0.057 A 
ATOM      9  C8  UNL     1      15.886  27.625  13.509  0.00  0.00    +0.417 C 
ATOM     10  F1  UNL     1      15.124  28.628  14.023  0.00  0.00    -0.166 F 
ATOM     11  F2  UNL     1      17.155  28.115  13.439  0.00  0.00    -0.166 F 
ATOM     12  F3  UNL     1      15.479  27.463  12.220  0.00  0.00    -0.166 F 
ATOM     13  C9  UNL     1      14.851  25.369  14.008  0.00  0.00    -0.047 A 
ATOM     14  C10 UNL     1      14.758  24.217  14.785  0.00  0.00    -0.024 A 
ATOM     15  C11 UNL     1      15.606  24.056  15.878  0.00  0.00    +0.144 A 
ATOM     16  F4  UNL     1      15.500  22.937  16.612  0.00  0.00    -0.204 F 
ATOM     17  N2  UNL     1      18.851  25.261  19.143  0.00  0.00    -0.182 N 
ATOM     18  N3  UNL     1      18.105  24.650  20.106  0.00  0.00    -0.151 NA
ATOM     19  C12 UNL     1      18.842  24.862  21.195  0.00  0.00    +0.141 A 
ATOM     20  N4  UNL     1      20.000  25.552  21.009  0.00  0.00    -0.197 NA
ATOM     21  C13 UNL     1      20.007  25.800  19.717  0.00  0.00    +0.255 A 
ATOM     22  N5  UNL     1      20.938  26.460  18.970  0.00  0.00    -0.216 NA
ATOM     23  H   UNL     1      17.123  24.000  17.883  0.00  0.00    +0.000 HD
ENDROOT
TORSDOF 0
ENDMDL
MODEL 5
REMARK VINA RESULT:    -3.025      1.449      1.628
REMARK INTER + INTRA:          -3.025
REMARK INTER:                  -3.025
REMARK INTRA:                   0.000
REMARK UNBOUND:                 0.000
REMARK  Name = /home/vital/Documents/PhD_2021/Malaria_codes/scripts/../data/pdbqt_ligands/ligand_234_temp.pdb
REMARK                            x       y       z     vdW  Elec       q    Type
REMARK                         _______ _______ _______ _____ _____    ______ ____
ROOT
ATOM      1  C1  UNL     1      21.419  25.591  17.262  0.00  0.00    -0.022 C 
ATOM      2  C2  UNL     1      21.277  26.351  15.965  0.00  0.00    +0.045 A 
ATOM      3  C3  UNL     1      19.903  26.818  15.597  0.00  0.00    -0.000 A 
ATOM      4  C4  UNL     1      19.766  27.473  14.429  0.00  0.00    +0.130 A 
ATOM      5  N1  UNL     1      18.600  28.014  13.907  0.00  0.00    -0.297 N 
ATOM      6  C5  UNL     1      17.250  27.637  14.032  0.00  0.00    +0.069 A 
ATOM      7  C6  UNL     1      16.821  26.428  14.593  0.00  0.00    -0.026 A 
ATOM      8  C7  UNL     1      15.451  26.133  14.748  0.00  0.00    +0.057 A 
ATOM      9  C8  UNL     1      15.025  24.804  15.329  0.00  0.00    +0.417 C 
ATOM     10  F1  UNL     1      14.947  23.828  14.385  0.00  0.00    -0.166 F 
ATOM     11  F2  UNL     1      15.888  24.344  16.276  0.00  0.00    -0.166 F 
ATOM     12  F3  UNL     1      13.804  24.849  15.928  0.00  0.00    -0.166 F 
ATOM     13  C9  UNL     1      14.495  27.066  14.321  0.00  0.00    -0.047 A 
ATOM     14  C10 UNL     1      14.900  28.275  13.762  0.00  0.00    -0.024 A 
ATOM     15  C11 UNL     1      16.259  28.548  13.628  0.00  0.00    +0.144 A 
ATOM     16  F4  UNL     1      16.626  29.721  13.088  0.00  0.00    -0.204 F 
ATOM     17  N2  UNL     1      20.941  27.703  13.679  0.00  0.00    -0.182 N 
ATOM     18  N3  UNL     1      21.072  28.372  12.499  0.00  0.00    -0.151 NA
ATOM     19  C12 UNL     1      22.381  28.271  12.273  0.00  0.00    +0.141 A 
ATOM     20  N4  UNL     1      23.099  27.598  13.212  0.00  0.00    -0.197 NA
ATOM     21  C13 UNL     1      22.194  27.244  14.099  0.00  0.00    +0.255 A 
ATOM     22  N5  UNL     1      22.351  26.550  15.262  0.00  0.00    -0.216 NA
ATOM     23  H   UNL     1      18.744  28.810  13.345  0.00  0.00    +0.000 HD
ENDROOT
TORSDOF 0
ENDMDL
MODEL 6
REMARK VINA RESULT:    -2.806      5.344      6.647
REMARK INTER + INTRA:          -2.806
REMARK INTER:                  -2.806
REMARK INTRA:                   0.000
REMARK UNBOUND:                 0.000
REMARK  Name = /home/vital/Documents/PhD_2021/Malaria_codes/scripts/../data/pdbqt_ligands/ligand_234_temp.pdb
REMARK                            x       y       z     vdW  Elec       q    Type
REMARK                         _______ _______ _______ _____ _____    ______ ____
ROOT
ATOM      1  C1  UNL     1      14.997  28.111  20.634  0.00  0.00    -0.022 C 
ATOM      2  C2  UNL     1      15.496  29.442  20.127  0.00  0.00    +0.045 A 
ATOM      3  C3  UNL     1      15.285  29.740  18.675  0.00  0.00    -0.000 A 
ATOM      4  C4  UNL     1      15.752  30.914  18.211  0.00  0.00    +0.130 A 
ATOM      5  N1  UNL     1      15.644  31.404  16.917  0.00  0.00    -0.297 N 
ATOM      6  C5  UNL     1      15.587  30.757  15.669  0.00  0.00    +0.069 A 
ATOM      7  C6  UNL     1      15.849  29.395  15.477  0.00  0.00    -0.026 A 
ATOM      8  C7  UNL     1      15.715  28.790  14.211  0.00  0.00    +0.057 A 
ATOM      9  C8  UNL     1      16.037  27.324  14.035  0.00  0.00    +0.417 C 
ATOM     10  F1  UNL     1      17.359  27.110  13.801  0.00  0.00    -0.166 F 
ATOM     11  F2  UNL     1      15.724  26.583  15.134  0.00  0.00    -0.166 F 
ATOM     12  F3  UNL     1      15.370  26.750  12.997  0.00  0.00    -0.166 F 
ATOM     13  C9  UNL     1      15.318  29.571  13.115  0.00  0.00    -0.047 A 
ATOM     14  C10 UNL     1      15.051  30.927  13.284  0.00  0.00    -0.024 A 
ATOM     15  C11 UNL     1      15.182  31.500  14.547  0.00  0.00    +0.144 A 
ATOM     16  F4  UNL     1      14.917  32.809  14.686  0.00  0.00    -0.204 F 
ATOM     17  N2  UNL     1      16.356  31.782  19.149  0.00  0.00    -0.182 N 
ATOM     18  N3  UNL     1      16.862  33.030  18.941  0.00  0.00    -0.151 NA
ATOM     19  C12 UNL     1      17.290  33.356  20.160  0.00  0.00    +0.141 A 
ATOM     20  N4  UNL     1      17.095  32.424  21.131  0.00  0.00    -0.197 NA
ATOM     21  C13 UNL     1      16.503  31.435  20.496  0.00  0.00    +0.255 A 
ATOM     22  N5  UNL     1      16.068  30.237  20.980  0.00  0.00    -0.216 NA
ATOM     23  H   UNL     1      15.599  32.386  16.863  0.00  0.00    +0.000 HD
ENDROOT
TORSDOF 0
ENDMDL
MODEL 7
REMARK VINA RESULT:    -2.598      3.865      4.484
REMARK INTER + INTRA:          -2.598
REMARK INTER:                  -2.598
REMARK INTRA:                   0.000
REMARK UNBOUND:                 0.000
REMARK  Name = /home/vital/Documents/PhD_2021/Malaria_codes/scripts/../data/pdbqt_ligands/ligand_234_temp.pdb
REMARK                            x       y       z     vdW  Elec       q    Type
REMARK                         _______ _______ _______ _____ _____    ______ ____
ROOT
ATOM      1  C1  UNL     1      15.996  31.174  17.899  0.00  0.00    -0.022 C 
ATOM      2  C2  UNL     1      15.936  30.562  16.521  0.00  0.00    +0.045 A 
ATOM      3  C3  UNL     1      15.745  29.079  16.443  0.00  0.00    -0.000 A 
ATOM      4  C4  UNL     1      15.716  28.523  15.217  0.00  0.00    +0.130 A 
ATOM      5  N1  UNL     1      15.524  27.183  14.912  0.00  0.00    -0.297 N 
ATOM      6  C5  UNL     1      15.849  26.004  15.609  0.00  0.00    +0.069 A 
ATOM      7  C6  UNL     1      16.671  25.962  16.741  0.00  0.00    -0.026 A 
ATOM      8  C7  UNL     1      16.909  24.757  17.433  0.00  0.00    +0.057 A 
ATOM      9  C8  UNL     1      17.827  24.744  18.634  0.00  0.00    +0.417 C 
ATOM     10  F1  UNL     1      19.133  24.596  18.284  0.00  0.00    -0.166 F 
ATOM     11  F2  UNL     1      17.760  25.895  19.359  0.00  0.00    -0.166 F 
ATOM     12  F3  UNL     1      17.552  23.738  19.507  0.00  0.00    -0.166 F 
ATOM     13  C9  UNL     1      16.318  23.571  16.972  0.00  0.00    -0.047 A 
ATOM     14  C10 UNL     1      15.496  23.592  15.849  0.00  0.00    -0.024 A 
ATOM     15  C11 UNL     1      15.268  24.796  15.187  0.00  0.00    +0.144 A 
ATOM     16  F4  UNL     1      14.470  24.791  14.107  0.00  0.00    -0.204 F 
ATOM     17  N2  UNL     1      15.820  29.398  14.112  0.00  0.00    -0.182 N 
ATOM     18  N3  UNL     1      15.776  29.091  12.785  0.00  0.00    -0.151 NA
ATOM     19  C12 UNL     1      15.923  30.290  12.223  0.00  0.00    +0.141 A 
ATOM     20  N4  UNL     1      16.053  31.339  13.080  0.00  0.00    -0.197 NA
ATOM     21  C13 UNL     1      15.984  30.778  14.268  0.00  0.00    +0.255 A 
ATOM     22  N5  UNL     1      16.049  31.358  15.501  0.00  0.00    -0.216 NA
ATOM     23  H   UNL     1      15.079  27.029  14.048  0.00  0.00    +0.000 HD
ENDROOT
TORSDOF 0
ENDMDL
MODEL 8
REMARK VINA RESULT:    -2.547     20.627     21.574
REMARK INTER + INTRA:          -2.547
REMARK INTER:                  -2.547
REMARK INTRA:                   0.000
REMARK UNBOUND:                 0.000
REMARK  Name = /home/vital/Documents/PhD_2021/Malaria_codes/scripts/../data/pdbqt_ligands/ligand_234_temp.pdb
REMARK                            x       y       z     vdW  Elec       q    Type
REMARK                         _______ _______ _______ _____ _____    ______ ____
ROOT
ATOM      1  C1  UNL     1      28.500  43.107  17.870  0.00  0.00    -0.022 C 
ATOM      2  C2  UNL     1      27.769  44.118  18.720  0.00  0.00    +0.045 A 
ATOM      3  C3  UNL     1      26.439  44.590  18.223  0.00  0.00    -0.000 A 
ATOM      4  C4  UNL     1      25.794  45.511  18.964  0.00  0.00    +0.130 A 
ATOM      5  N1  UNL     1      24.547  46.064  18.709  0.00  0.00    -0.297 N 
ATOM      6  C5  UNL     1      23.862  46.325  17.507  0.00  0.00    +0.069 A 
ATOM      7  C6  UNL     1      24.446  46.248  16.238  0.00  0.00    -0.026 A 
ATOM      8  C7  UNL     1      23.691  46.461  15.066  0.00  0.00    +0.057 A 
ATOM      9  C8  UNL     1      24.363  46.400  13.713  0.00  0.00    +0.417 C 
ATOM     10  F1  UNL     1      24.919  47.590  13.358  0.00  0.00    -0.166 F 
ATOM     11  F2  UNL     1      25.370  45.485  13.667  0.00  0.00    -0.166 F 
ATOM     12  F3  UNL     1      23.510  46.066  12.707  0.00  0.00    -0.166 F 
ATOM     13  C9  UNL     1      22.326  46.765  15.174  0.00  0.00    -0.047 A 
ATOM     14  C10 UNL     1      21.726  46.845  16.427  0.00  0.00    -0.024 A 
ATOM     15  C11 UNL     1      22.490  46.622  17.570  0.00  0.00    +0.144 A 
ATOM     16  F4  UNL     1      21.888  46.702  18.767  0.00  0.00    -0.204 F 
ATOM     17  N2  UNL     1      26.411  45.912  20.171  0.00  0.00    -0.182 N 
ATOM     18  N3  UNL     1      25.946  46.787  21.105  0.00  0.00    -0.151 NA
ATOM     19  C12 UNL     1      26.929  46.773  22.004  0.00  0.00    +0.141 A 
ATOM     20  N4  UNL     1      27.982  45.957  21.725  0.00  0.00    -0.197 NA
ATOM     21  C13 UNL     1      27.653  45.412  20.573  0.00  0.00    +0.255 A 
ATOM     22  N5  UNL     1      28.339  44.504  19.821  0.00  0.00    -0.216 NA
ATOM     23  H   UNL     1      24.050  46.321  19.519  0.00  0.00    +0.000 HD
ENDROOT
TORSDOF 0
ENDMDL
MODEL 9
REMARK VINA RESULT:    -2.509     17.136     19.056
REMARK INTER + INTRA:          -2.509
REMARK INTER:                  -2.509
REMARK INTRA:                   0.000
REMARK UNBOUND:                 0.000
REMARK  Name = /home/vital/Documents/PhD_2021/Malaria_codes/scripts/../data/pdbqt_ligands/ligand_234_temp.pdb
REMARK                            x       y       z     vdW  Elec       q    Type
REMARK                         _______ _______ _______ _____ _____    ______ ____
ROOT
ATOM      1  C1  UNL     1      20.105  40.674  14.526  0.00  0.00    -0.022 C 
ATOM      2  C2  UNL     1      19.950  41.002  15.991  0.00  0.00    +0.045 A 
ATOM      3  C3  UNL     1      20.101  42.438  16.387  0.00  0.00    -0.000 A 
ATOM      4  C4  UNL     1      19.990  42.733  17.696  0.00  0.00    +0.130 A 
ATOM      5  N1  UNL     1      20.068  43.990  18.278  0.00  0.00    -0.297 N 
ATOM      6  C5  UNL     1      20.777  45.151  17.917  0.00  0.00    +0.069 A 
ATOM      7  C6  UNL     1      21.771  45.191  16.932  0.00  0.00    -0.026 A 
ATOM      8  C7  UNL     1      22.403  46.398  16.571  0.00  0.00    +0.057 A 
ATOM      9  C8  UNL     1      23.494  46.397  15.525  0.00  0.00    +0.417 C 
ATOM     10  F1  UNL     1      24.716  46.121  16.053  0.00  0.00    -0.166 F 
ATOM     11  F2  UNL     1      23.286  45.469  14.551  0.00  0.00    -0.166 F 
ATOM     12  F3  UNL     1      23.620  47.590  14.882  0.00  0.00    -0.166 F 
ATOM     13  C9  UNL     1      22.035  47.586  17.220  0.00  0.00    -0.047 A 
ATOM     14  C10 UNL     1      21.048  47.569  18.202  0.00  0.00    -0.024 A 
ATOM     15  C11 UNL     1      20.432  46.366  18.535  0.00  0.00    +0.144 A 
ATOM     16  F4  UNL     1      19.481  46.374  19.483  0.00  0.00    -0.204 F 
ATOM     17  N2  UNL     1      19.691  41.666  18.573  0.00  0.00    -0.182 N 
ATOM     18  N3  UNL     1      19.489  41.711  19.919  0.00  0.00    -0.151 NA
ATOM     19  C12 UNL     1      19.250  40.431  20.201  0.00  0.00    +0.141 A 
ATOM     20  N4  UNL     1      19.278  39.572  19.147  0.00  0.00    -0.197 NA
ATOM     21  C13 UNL     1      19.551  40.349  18.121  0.00  0.00    +0.255 A 
ATOM     22  N5  UNL     1      19.693  40.023  16.805  0.00  0.00    -0.216 NA
ATOM     23  H   UNL     1      19.527  44.088  19.095  0.00  0.00    +0.000 HD
ENDROOT
TORSDOF 0
ENDMDL
