MODEL 1
REMARK VINA RESULT:    -2.955      0.000      0.000
REMARK INTER + INTRA:          -2.955
REMARK INTER:                  -2.955
REMARK INTRA:                   0.000
REMARK UNBOUND:                 0.000
REMARK  Name = /home/vital/Documents/PhD_2021/Malaria_codes/scripts/../data/pdbqt_ligands/ligand_327_temp.pdb
REMARK                            x       y       z     vdW  Elec       q    Type
REMARK                         _______ _______ _______ _____ _____    ______ ____
ROOT
ATOM      1  C1  UNL     1      20.086  24.407  18.505  0.00  0.00    -0.088 C 
ATOM      2  C2  UNL     1      18.870  24.172  19.033  0.00  0.00    +0.033 C 
ATOM      3  C3  UNL     1      18.581  23.912  20.483  0.00  0.00    +0.074 C 
ATOM      4  O1  UNL     1      19.721  24.184  21.292  0.00  0.00    -0.390 OA
ATOM      5  C4  UNL     1      17.660  24.094  18.156  0.00  0.00    +0.246 C 
ATOM      6  O2  UNL     1      16.804  23.246  18.379  0.00  0.00    -0.270 OA
ATOM      7  N1  UNL     1      17.598  25.074  17.197  0.00  0.00    -0.279 N 
ATOM      8  C5  UNL     1      16.621  25.300  16.196  0.00  0.00    +0.077 A 
ATOM      9  C6  UNL     1      16.838  26.447  15.413  0.00  0.00    -0.011 A 
ATOM     10  C7  UNL     1      15.959  26.792  14.379  0.00  0.00    +0.107 A 
ATOM     11  S1  UNL     1      16.292  28.237  13.407  0.00  0.00    +0.058 S 
ATOM     12  O3  UNL     1      17.729  28.389  13.335  0.00  0.00    -0.153 OA
ATOM     13  O4  UNL     1      15.467  28.212  12.220  0.00  0.00    -0.153 OA
ATOM     14  N2  UNL     1      15.742  29.465  14.409  0.00  0.00    -0.193 NA
ATOM     15  C8  UNL     1      14.323  29.797  14.387  0.00  0.00    +0.006 C 
ATOM     16  C9  UNL     1      14.859  25.994  14.085  0.00  0.00    -0.032 A 
ATOM     17  C10 UNL     1      14.630  24.857  14.854  0.00  0.00    -0.016 A 
ATOM     18  C11 UNL     1      15.496  24.512  15.901  0.00  0.00    +0.138 A 
ATOM     19  O5  UNL     1      15.130  23.369  16.549  0.00  0.00    -0.505 OA
ATOM     20  H   UNL     1      20.452  23.606  21.024  0.00  0.00    +0.000 HD
ATOM     21  H   UNL     1      18.345  25.716  17.207  0.00  0.00    +0.000 HD
ATOM     22  H   UNL     1      16.253  30.311  14.157  0.00  0.00    +0.000 HD
ATOM     23  H   UNL     1      15.643  23.052  17.265  0.00  0.00    +0.000 HD
ENDROOT
TORSDOF 0
ENDMDL
MODEL 2
REMARK VINA RESULT:    -2.850     21.125     22.895
REMARK INTER + INTRA:          -2.850
REMARK INTER:                  -2.850
REMARK INTRA:                   0.000
REMARK UNBOUND:                 0.000
REMARK  Name = /home/vital/Documents/PhD_2021/Malaria_codes/scripts/../data/pdbqt_ligands/ligand_327_temp.pdb
REMARK                            x       y       z     vdW  Elec       q    Type
REMARK                         _______ _______ _______ _____ _____    ______ ____
ROOT
ATOM      1  C1  UNL     1      37.282  32.141  17.889  0.00  0.00    -0.088 C 
ATOM      2  C2  UNL     1      36.748  32.058  16.656  0.00  0.00    +0.033 C 
ATOM      3  C3  UNL     1      35.850  30.960  16.163  0.00  0.00    +0.074 C 
ATOM      4  O1  UNL     1      35.421  30.127  17.236  0.00  0.00    -0.390 OA
ATOM      5  C4  UNL     1      37.074  33.080  15.613  0.00  0.00    +0.246 C 
ATOM      6  O2  UNL     1      37.261  32.726  14.455  0.00  0.00    -0.270 OA
ATOM      7  N1  UNL     1      37.054  34.374  16.070  0.00  0.00    -0.279 N 
ATOM      8  C5  UNL     1      37.323  35.582  15.380  0.00  0.00    +0.077 A 
ATOM      9  C6  UNL     1      37.145  36.747  16.146  0.00  0.00    -0.011 A 
ATOM     10  C7  UNL     1      37.384  38.014  15.599  0.00  0.00    +0.107 A 
ATOM     11  S1  UNL     1      37.167  39.450  16.615  0.00  0.00    +0.058 S 
ATOM     12  O3  UNL     1      37.503  39.075  17.971  0.00  0.00    -0.153 OA
ATOM     13  O4  UNL     1      37.774  40.589  15.964  0.00  0.00    -0.153 OA
ATOM     14  N2  UNL     1      35.500  39.648  16.585  0.00  0.00    -0.193 NA
ATOM     15  C8  UNL     1      34.906  40.370  15.467  0.00  0.00    +0.006 C 
ATOM     16  C9  UNL     1      37.826  38.150  14.287  0.00  0.00    -0.032 A 
ATOM     17  C10 UNL     1      38.003  37.005  13.516  0.00  0.00    -0.016 A 
ATOM     18  C11 UNL     1      37.752  35.734  14.050  0.00  0.00    +0.138 A 
ATOM     19  O5  UNL     1      37.979  34.722  13.164  0.00  0.00    -0.505 OA
ATOM     20  H   UNL     1      36.193  29.717  17.655  0.00  0.00    +0.000 HD
ATOM     21  H   UNL     1      36.817  34.478  17.020  0.00  0.00    +0.000 HD
ATOM     22  H   UNL     1      35.241  40.147  17.437  0.00  0.00    +0.000 HD
ATOM     23  H   UNL     1      37.841  33.833  13.424  0.00  0.00    +0.000 HD
ENDROOT
TORSDOF 0
ENDMDL
MODEL 3
REMARK VINA RESULT:    -2.788     22.380     24.486
REMARK INTER + INTRA:          -2.788
REMARK INTER:                  -2.788
REMARK INTRA:                   0.000
REMARK UNBOUND:                 0.000
REMARK  Name = /home/vital/Documents/PhD_2021/Malaria_codes/scripts/../data/pdbqt_ligands/ligand_327_temp.pdb
REMARK                            x       y       z     vdW  Elec       q    Type
REMARK                         _______ _______ _______ _____ _____    ______ ____
ROOT
ATOM      1  C1  UNL     1      26.129  45.741  16.800  0.00  0.00    -0.088 C 
ATOM      2  C2  UNL     1      26.736  45.826  17.998  0.00  0.00    +0.033 C 
ATOM      3  C3  UNL     1      26.086  45.577  19.328  0.00  0.00    +0.074 C 
ATOM      4  O1  UNL     1      24.795  44.996  19.168  0.00  0.00    -0.390 OA
ATOM      5  C4  UNL     1      28.167  46.251  18.100  0.00  0.00    +0.246 C 
ATOM      6  O2  UNL     1      28.513  47.002  19.004  0.00  0.00    -0.270 OA
ATOM      7  N1  UNL     1      28.993  45.669  17.172  0.00  0.00    -0.279 N 
ATOM      8  C5  UNL     1      30.384  45.844  16.961  0.00  0.00    +0.077 A 
ATOM      9  C6  UNL     1      30.930  45.033  15.952  0.00  0.00    -0.011 A 
ATOM     10  C7  UNL     1      32.291  45.104  15.626  0.00  0.00    +0.107 A 
ATOM     11  S1  UNL     1      32.924  44.075  14.329  0.00  0.00    +0.058 S 
ATOM     12  O3  UNL     1      31.866  43.901  13.359  0.00  0.00    -0.153 OA
ATOM     13  O4  UNL     1      34.239  44.544  13.950  0.00  0.00    -0.153 OA
ATOM     14  N2  UNL     1      33.092  42.597  15.107  0.00  0.00    -0.193 NA
ATOM     15  C8  UNL     1      34.307  42.350  15.875  0.00  0.00    +0.006 C 
ATOM     16  C9  UNL     1      33.133  45.997  16.280  0.00  0.00    -0.032 A 
ATOM     17  C10 UNL     1      32.605  46.804  17.284  0.00  0.00    -0.016 A 
ATOM     18  C11 UNL     1      31.248  46.729  17.627  0.00  0.00    +0.138 A 
ATOM     19  O5  UNL     1      30.896  47.589  18.625  0.00  0.00    -0.505 OA
ATOM     20  H   UNL     1      24.228  45.601  18.666  0.00  0.00    +0.000 HD
ATOM     21  H   UNL     1      28.553  45.035  16.560  0.00  0.00    +0.000 HD
ATOM     22  H   UNL     1      33.035  41.872  14.392  0.00  0.00    +0.000 HD
ATOM     23  H   UNL     1      30.010  47.617  18.929  0.00  0.00    +0.000 HD
ENDROOT
TORSDOF 0
ENDMDL
MODEL 4
REMARK VINA RESULT:    -2.762      1.675      2.157
REMARK INTER + INTRA:          -2.762
REMARK INTER:                  -2.762
REMARK INTRA:                   0.000
REMARK UNBOUND:                 0.000
REMARK  Name = /home/vital/Documents/PhD_2021/Malaria_codes/scripts/../data/pdbqt_ligands/ligand_327_temp.pdb
REMARK                            x       y       z     vdW  Elec       q    Type
REMARK                         _______ _______ _______ _____ _____    ______ ____
ROOT
ATOM      1  C1  UNL     1      21.192  25.205  19.547  0.00  0.00    -0.088 C 
ATOM      2  C2  UNL     1      20.110  25.021  20.326  0.00  0.00    +0.033 C 
ATOM      3  C3  UNL     1      20.040  25.276  21.804  0.00  0.00    +0.074 C 
ATOM      4  O1  UNL     1      21.194  25.977  22.258  0.00  0.00    -0.390 OA
ATOM      5  C4  UNL     1      18.844  24.464  19.753  0.00  0.00    +0.246 C 
ATOM      6  O2  UNL     1      18.193  23.651  20.398  0.00  0.00    -0.270 OA
ATOM      7  N1  UNL     1      18.491  25.005  18.542  0.00  0.00    -0.279 N 
ATOM      8  C5  UNL     1      17.381  24.714  17.710  0.00  0.00    +0.077 A 
ATOM      9  C6  UNL     1      17.290  25.510  16.556  0.00  0.00    -0.011 A 
ATOM     10  C7  UNL     1      16.250  25.329  15.635  0.00  0.00    +0.107 A 
ATOM     11  S1  UNL     1      16.194  26.346  14.183  0.00  0.00    +0.058 S 
ATOM     12  O3  UNL     1      17.559  26.652  13.816  0.00  0.00    -0.153 OA
ATOM     13  O4  UNL     1      15.258  25.775  13.240  0.00  0.00    -0.153 OA
ATOM     14  N2  UNL     1      15.540  27.771  14.782  0.00  0.00    -0.193 NA
ATOM     15  C8  UNL     1      14.090  27.878  14.894  0.00  0.00    +0.006 C 
ATOM     16  C9  UNL     1      15.292  24.339  15.828  0.00  0.00    -0.032 A 
ATOM     17  C10 UNL     1      15.370  23.545  16.968  0.00  0.00    -0.016 A 
ATOM     18  C11 UNL     1      16.398  23.729  17.904  0.00  0.00    +0.138 A 
ATOM     19  O5  UNL     1      16.329  22.866  18.958  0.00  0.00    -0.505 OA
ATOM     20  H   UNL     1      21.985  25.445  22.083  0.00  0.00    +0.000 HD
ATOM     21  H   UNL     1      19.100  25.699  18.201  0.00  0.00    +0.000 HD
ATOM     22  H   UNL     1      15.851  28.525  14.170  0.00  0.00    +0.000 HD
ATOM     23  H   UNL     1      16.971  22.907  19.639  0.00  0.00    +0.000 HD
ENDROOT
TORSDOF 0
ENDMDL
MODEL 5
REMARK VINA RESULT:    -2.595      3.984      6.349
REMARK INTER + INTRA:          -2.595
REMARK INTER:                  -2.595
REMARK INTRA:                   0.000
REMARK UNBOUND:                 0.000
REMARK  Name = /home/vital/Documents/PhD_2021/Malaria_codes/scripts/../data/pdbqt_ligands/ligand_327_temp.pdb
REMARK                            x       y       z     vdW  Elec       q    Type
REMARK                         _______ _______ _______ _____ _____    ______ ____
ROOT
ATOM      1  C1  UNL     1      15.992  26.338  17.094  0.00  0.00    -0.088 C 
ATOM      2  C2  UNL     1      14.886  26.575  16.365  0.00  0.00    +0.033 C 
ATOM      3  C3  UNL     1      13.696  25.666  16.258  0.00  0.00    +0.074 C 
ATOM      4  O1  UNL     1      13.761  24.619  17.222  0.00  0.00    -0.390 OA
ATOM      5  C4  UNL     1      14.781  27.803  15.516  0.00  0.00    +0.246 C 
ATOM      6  O2  UNL     1      14.272  27.729  14.404  0.00  0.00    -0.270 OA
ATOM      7  N1  UNL     1      15.218  28.949  16.131  0.00  0.00    -0.279 N 
ATOM      8  C5  UNL     1      15.282  30.275  15.634  0.00  0.00    +0.077 A 
ATOM      9  C6  UNL     1      15.728  31.229  16.566  0.00  0.00    -0.011 A 
ATOM     10  C7  UNL     1      15.850  32.579  16.213  0.00  0.00    +0.107 A 
ATOM     11  S1  UNL     1      16.439  33.737  17.419  0.00  0.00    +0.058 S 
ATOM     12  O3  UNL     1      17.369  33.035  18.277  0.00  0.00    -0.153 OA
ATOM     13  O4  UNL     1      16.794  34.973  16.758  0.00  0.00    -0.153 OA
ATOM     14  N2  UNL     1      15.064  34.007  18.343  0.00  0.00    -0.193 NA
ATOM     15  C8  UNL     1      14.101  35.000  17.883  0.00  0.00    +0.006 C 
ATOM     16  C9  UNL     1      15.554  33.007  14.924  0.00  0.00    -0.032 A 
ATOM     17  C10 UNL     1      15.109  32.074  13.992  0.00  0.00    -0.016 A 
ATOM     18  C11 UNL     1      14.969  30.723  14.340  0.00  0.00    +0.138 A 
ATOM     19  O5  UNL     1      14.527  29.945  13.311  0.00  0.00    -0.505 OA
ATOM     20  H   UNL     1      14.558  24.088  17.068  0.00  0.00    +0.000 HD
ATOM     21  H   UNL     1      15.536  28.833  17.056  0.00  0.00    +0.000 HD
ATOM     22  H   UNL     1      15.377  34.297  19.270  0.00  0.00    +0.000 HD
ATOM     23  H   UNL     1      14.400  29.025  13.440  0.00  0.00    +0.000 HD
ENDROOT
TORSDOF 0
ENDMDL
MODEL 6
REMARK VINA RESULT:    -2.501      3.069      6.910
REMARK INTER + INTRA:          -2.501
REMARK INTER:                  -2.501
REMARK INTRA:                   0.000
REMARK UNBOUND:                 0.000
REMARK  Name = /home/vital/Documents/PhD_2021/Malaria_codes/scripts/../data/pdbqt_ligands/ligand_327_temp.pdb
REMARK                            x       y       z     vdW  Elec       q    Type
REMARK                         _______ _______ _______ _____ _____    ______ ____
ROOT
ATOM      1  C1  UNL     1      15.805  32.944  16.179  0.00  0.00    -0.088 C 
ATOM      2  C2  UNL     1      16.634  32.449  15.241  0.00  0.00    +0.033 C 
ATOM      3  C3  UNL     1      17.875  33.120  14.727  0.00  0.00    +0.074 C 
ATOM      4  O1  UNL     1      18.218  34.248  15.526  0.00  0.00    -0.390 OA
ATOM      5  C4  UNL     1      16.333  31.148  14.567  0.00  0.00    +0.246 C 
ATOM      6  O2  UNL     1      16.538  31.026  13.364  0.00  0.00    -0.270 OA
ATOM      7  N1  UNL     1      15.909  30.159  15.419  0.00  0.00    -0.279 N 
ATOM      8  C5  UNL     1      15.525  28.824  15.137  0.00  0.00    +0.077 A 
ATOM      9  C6  UNL     1      15.204  28.055  16.268  0.00  0.00    -0.011 A 
ATOM     10  C7  UNL     1      14.798  26.720  16.143  0.00  0.00    +0.107 A 
ATOM     11  S1  UNL     1      14.382  25.802  17.601  0.00  0.00    +0.058 S 
ATOM     12  O3  UNL     1      13.823  26.734  18.555  0.00  0.00    -0.153 OA
ATOM     13  O4  UNL     1      13.690  24.591  17.219  0.00  0.00    -0.153 OA
ATOM     14  N2  UNL     1      15.897  25.382  18.191  0.00  0.00    -0.193 NA
ATOM     15  C8  UNL     1      16.550  24.197  17.650  0.00  0.00    +0.006 C 
ATOM     16  C9  UNL     1      14.680  26.128  14.890  0.00  0.00    -0.032 A 
ATOM     17  C10 UNL     1      14.997  26.877  13.761  0.00  0.00    -0.016 A 
ATOM     18  C11 UNL     1      15.419  28.209  13.878  0.00  0.00    +0.138 A 
ATOM     19  O5  UNL     1      15.685  28.797  12.677  0.00  0.00    -0.505 OA
ATOM     20  H   UNL     1      17.495  34.894  15.500  0.00  0.00    +0.000 HD
ATOM     21  H   UNL     1      15.866  30.415  16.368  0.00  0.00    +0.000 HD
ATOM     22  H   UNL     1      15.799  25.240  19.197  0.00  0.00    +0.000 HD
ATOM     23  H   UNL     1      15.974  29.688  12.645  0.00  0.00    +0.000 HD
ENDROOT
TORSDOF 0
ENDMDL
MODEL 7
REMARK VINA RESULT:    -2.497      4.523      8.177
REMARK INTER + INTRA:          -2.497
REMARK INTER:                  -2.497
REMARK INTRA:                   0.000
REMARK UNBOUND:                 0.000
REMARK  Name = /home/vital/Documents/PhD_2021/Malaria_codes/scripts/../data/pdbqt_ligands/ligand_327_temp.pdb
REMARK                            x       y       z     vdW  Elec       q    Type
REMARK                         _______ _______ _______ _____ _____    ______ ____
ROOT
ATOM      1  C1  UNL     1      14.412  34.392  18.161  0.00  0.00    -0.088 C 
ATOM      2  C2  UNL     1      15.404  34.778  17.338  0.00  0.00    +0.033 C 
ATOM      3  C3  UNL     1      16.415  35.850  17.628  0.00  0.00    +0.074 C 
ATOM      4  O1  UNL     1      16.358  36.254  18.992  0.00  0.00    -0.390 OA
ATOM      5  C4  UNL     1      15.545  34.173  15.977  0.00  0.00    +0.246 C 
ATOM      6  O2  UNL     1      15.846  34.884  15.026  0.00  0.00    -0.270 OA
ATOM      7  N1  UNL     1      15.388  32.810  15.950  0.00  0.00    -0.279 N 
ATOM      8  C5  UNL     1      15.437  31.914  14.853  0.00  0.00    +0.077 A 
ATOM      9  C6  UNL     1      15.295  30.559  15.196  0.00  0.00    -0.011 A 
ATOM     10  C7  UNL     1      15.314  29.560  14.214  0.00  0.00    +0.107 A 
ATOM     11  S1  UNL     1      15.108  27.867  14.698  0.00  0.00    +0.058 S 
ATOM     12  O3  UNL     1      14.241  27.850  15.856  0.00  0.00    -0.153 OA
ATOM     13  O4  UNL     1      14.833  27.068  13.525  0.00  0.00    -0.153 OA
ATOM     14  N2  UNL     1      16.642  27.476  15.258  0.00  0.00    -0.193 NA
ATOM     15  C8  UNL     1      17.650  27.060  14.290  0.00  0.00    +0.006 C 
ATOM     16  C9  UNL     1      15.452  29.887  12.869  0.00  0.00    -0.032 A 
ATOM     17  C10 UNL     1      15.595  31.225  12.515  0.00  0.00    -0.016 A 
ATOM     18  C11 UNL     1      15.593  32.231  13.493  0.00  0.00    +0.138 A 
ATOM     19  O5  UNL     1      15.740  33.484  12.977  0.00  0.00    -0.505 OA
ATOM     20  H   UNL     1      15.478  36.612  19.186  0.00  0.00    +0.000 HD
ATOM     21  H   UNL     1      15.214  32.392  16.825  0.00  0.00    +0.000 HD
ATOM     22  H   UNL     1      16.533  26.713  15.926  0.00  0.00    +0.000 HD
ATOM     23  H   UNL     1      15.751  34.228  13.547  0.00  0.00    +0.000 HD
ENDROOT
TORSDOF 0
ENDMDL
MODEL 8
REMARK VINA RESULT:    -2.295      2.584      6.598
REMARK INTER + INTRA:          -2.295
REMARK INTER:                  -2.295
REMARK INTRA:                   0.000
REMARK UNBOUND:                 0.000
REMARK  Name = /home/vital/Documents/PhD_2021/Malaria_codes/scripts/../data/pdbqt_ligands/ligand_327_temp.pdb
REMARK                            x       y       z     vdW  Elec       q    Type
REMARK                         _______ _______ _______ _____ _____    ______ ____
ROOT
ATOM      1  C1  UNL     1      15.746  29.922  15.572  0.00  0.00    -0.088 C 
ATOM      2  C2  UNL     1      15.672  29.126  14.489  0.00  0.00    +0.033 C 
ATOM      3  C3  UNL     1      15.713  29.586  13.060  0.00  0.00    +0.074 C 
ATOM      4  O1  UNL     1      16.089  30.957  12.973  0.00  0.00    -0.390 OA
ATOM      5  C4  UNL     1      15.477  27.650  14.639  0.00  0.00    +0.246 C 
ATOM      6  O2  UNL     1      14.727  27.057  13.873  0.00  0.00    -0.270 OA
ATOM      7  N1  UNL     1      16.252  27.078  15.616  0.00  0.00    -0.279 N 
ATOM      8  C5  UNL     1      16.321  25.728  16.043  0.00  0.00    +0.077 A 
ATOM      9  C6  UNL     1      17.281  25.476  17.037  0.00  0.00    -0.011 A 
ATOM     10  C7  UNL     1      17.455  24.190  17.563  0.00  0.00    +0.107 A 
ATOM     11  S1  UNL     1      18.666  23.930  18.832  0.00  0.00    +0.058 S 
ATOM     12  O3  UNL     1      18.739  25.144  19.616  0.00  0.00    -0.153 OA
ATOM     13  O4  UNL     1      18.446  22.638  19.442  0.00  0.00    -0.153 OA
ATOM     14  N2  UNL     1      20.090  23.861  17.946  0.00  0.00    -0.193 NA
ATOM     15  C8  UNL     1      20.473  22.590  17.343  0.00  0.00    +0.006 C 
ATOM     16  C9  UNL     1      16.664  23.131  17.130  0.00  0.00    -0.032 A 
ATOM     17  C10 UNL     1      15.710  23.366  16.144  0.00  0.00    -0.016 A 
ATOM     18  C11 UNL     1      15.539  24.647  15.601  0.00  0.00    +0.138 A 
ATOM     19  O5  UNL     1      14.562  24.704  14.651  0.00  0.00    -0.505 OA
ATOM     20  H   UNL     1      15.438  31.500  13.444  0.00  0.00    +0.000 HD
ATOM     21  H   UNL     1      16.850  27.699  16.092  0.00  0.00    +0.000 HD
ATOM     22  H   UNL     1      20.847  24.139  18.570  0.00  0.00    +0.000 HD
ATOM     23  H   UNL     1      14.369  25.517  14.226  0.00  0.00    +0.000 HD
ENDROOT
TORSDOF 0
ENDMDL
MODEL 9
REMARK VINA RESULT:    -2.212     20.595     22.127
REMARK INTER + INTRA:          -2.212
REMARK INTER:                  -2.212
REMARK INTRA:                   0.000
REMARK UNBOUND:                 0.000
REMARK  Name = /home/vital/Documents/PhD_2021/Malaria_codes/scripts/../data/pdbqt_ligands/ligand_327_temp.pdb
REMARK                            x       y       z     vdW  Elec       q    Type
REMARK                         _______ _______ _______ _____ _____    ______ ____
ROOT
ATOM      1  C1  UNL     1      24.910  46.614  16.375  0.00  0.00    -0.088 C 
ATOM      2  C2  UNL     1      23.789  46.158  15.786  0.00  0.00    +0.033 C 
ATOM      3  C3  UNL     1      23.734  45.296  14.557  0.00  0.00    +0.074 C 
ATOM      4  O1  UNL     1      25.027  44.806  14.216  0.00  0.00    -0.390 OA
ATOM      5  C4  UNL     1      22.441  46.543  16.310  0.00  0.00    +0.246 C 
ATOM      6  O2  UNL     1      21.537  46.802  15.524  0.00  0.00    -0.270 OA
ATOM      7  N1  UNL     1      22.334  46.489  17.677  0.00  0.00    -0.279 N 
ATOM      8  C5  UNL     1      21.230  46.795  18.511  0.00  0.00    +0.077 A 
ATOM      9  C6  UNL     1      21.449  46.565  19.880  0.00  0.00    -0.011 A 
ATOM     10  C7  UNL     1      20.450  46.832  20.825  0.00  0.00    +0.107 A 
ATOM     11  S1  UNL     1      20.785  46.546  22.543  0.00  0.00    +0.058 S 
ATOM     12  O3  UNL     1      22.193  46.800  22.757  0.00  0.00    -0.153 OA
ATOM     13  O4  UNL     1      19.764  47.187  23.339  0.00  0.00    -0.153 OA
ATOM     14  N2  UNL     1      20.587  44.884  22.664  0.00  0.00    -0.193 NA
ATOM     15  C8  UNL     1      19.241  44.356  22.856  0.00  0.00    +0.006 C 
ATOM     16  C9  UNL     1      19.221  47.353  20.434  0.00  0.00    -0.032 A 
ATOM     17  C10 UNL     1      18.990  47.582  19.081  0.00  0.00    -0.016 A 
ATOM     18  C11 UNL     1      19.978  47.304  18.126  0.00  0.00    +0.138 A 
ATOM     19  O5  UNL     1      19.591  47.590  16.850  0.00  0.00    -0.505 OA
ATOM     20  H   UNL     1      25.617  45.552  14.032  0.00  0.00    +0.000 HD
ATOM     21  H   UNL     1      23.146  46.194  18.149  0.00  0.00    +0.000 HD
ATOM     22  H   UNL     1      21.149  44.570  23.456  0.00  0.00    +0.000 HD
ATOM     23  H   UNL     1      20.180  47.440  16.137  0.00  0.00    +0.000 HD
ENDROOT
TORSDOF 0
ENDMDL
