MODEL 1
REMARK VINA RESULT:    -4.809      0.000      0.000
REMARK INTER + INTRA:          -4.809
REMARK INTER:                  -4.809
REMARK INTRA:                   0.000
REMARK UNBOUND:                 0.000
REMARK  Name = /home/vital/Documents/PhD_2021/Malaria_codes/scripts/../data/pdbqt_ligands/ligand_75_temp.pdb
REMARK                            x       y       z     vdW  Elec       q    Type
REMARK                         _______ _______ _______ _____ _____    ______ ____
ROOT
ATOM      1  C   UNL     1      29.871  45.751  17.645  0.00  0.00    -0.009 C 
ATOM      2  N   UNL     1      28.716  45.782  18.220  0.00  0.00    -0.270 NA
ATOM      3  C   UNL     1      28.676  45.319  19.512  0.00  0.00    +0.041 C 
ATOM      4  C   UNL     1      27.529  45.252  20.201  0.00  0.00    +0.012 C 
ATOM      5  N   UNL     1      26.294  45.615  19.727  0.00  0.00    -0.325 N 
ATOM      6  C   UNL     1      25.075  45.514  20.339  0.00  0.00    -0.007 C 
ATOM      7  C   UNL     1      23.864  45.861  19.881  0.00  0.00    -0.048 C 
ATOM      8  C   UNL     1      23.598  46.481  18.603  0.00  0.00    -0.064 C 
ATOM      9  C   UNL     1      22.386  46.744  18.086  0.00  0.00    -0.080 C 
ATOM     10  C   UNL     1      21.034  46.406  18.650  0.00  0.00    -0.015 C 
ATOM     11  C   UNL     1      20.396  47.590  19.315  0.00  0.00    -0.062 C 
ATOM     12  C   UNL     1      19.603  47.560  20.394  0.00  0.00    +0.021 C 
ATOM     13  N   UNL     1      19.198  46.479  21.133  0.00  0.00    -0.273 N 
ATOM     14  O   UNL     1      18.644  46.715  22.392  0.00  0.00    -0.273 OA
ATOM     15  C   UNL     1      17.318  46.178  22.363  0.00  0.00    +0.091 C 
ATOM     16  C   UNL     1      16.600  46.548  23.663  0.00  0.00    +0.036 C 
ATOM     17  N   UNL     1      15.194  46.147  23.611  0.00  0.00    -0.333 N 
ATOM     18  C   UNL     1      14.324  46.431  24.637  0.00  0.00    +0.076 C 
ATOM     19  N   UNL     1      14.349  46.263  25.901  0.00  0.00    -0.269 NA
ATOM     20  C   UNL     1      15.469  45.549  26.519  0.00  0.00    +0.101 C 
ATOM     21  C   UNL     1      15.100  44.925  27.856  0.00  0.00    +0.151 A 
ATOM     22  N   UNL     1      14.729  43.631  27.862  0.00  0.00    -0.234 NA
ATOM     23  C   UNL     1      14.354  43.096  29.050  0.00  0.00    +0.054 A 
ATOM     24  C   UNL     1      13.925  41.650  28.972  0.00  0.00    +0.003 C 
ATOM     25  C   UNL     1      15.094  40.668  29.127  0.00  0.00    +0.001 C 
ATOM     26  N   UNL     1      15.483  40.402  30.521  0.00  0.00    -0.319 N 
ATOM     27  C   UNL     1      14.607  39.428  31.161  0.00  0.00    -0.016 C 
ATOM     28  C   UNL     1      14.359  43.834  30.245  0.00  0.00    +0.022 A 
ATOM     29  C   UNL     1      13.984  43.350  31.524  0.00  0.00    -0.051 A 
ATOM     30  C   UNL     1      14.011  44.179  32.645  0.00  0.00    -0.061 A 
ATOM     31  C   UNL     1      14.411  45.500  32.503  0.00  0.00    -0.060 A 
ATOM     32  C   UNL     1      14.789  45.977  31.246  0.00  0.00    -0.036 A 
ATOM     33  C   UNL     1      14.772  45.169  30.114  0.00  0.00    +0.075 A 
ATOM     34  N   UNL     1      15.145  45.709  28.951  0.00  0.00    -0.230 NA
ATOM     35  H   UNL     1      26.285  46.001  18.822  0.00  0.00    +0.000 HD
ATOM     36  H   UNL     1      19.295  45.563  20.786  0.00  0.00    +0.000 HD
ATOM     37  H   UNL     1      14.862  45.662  22.822  0.00  0.00    +0.000 HD
ATOM     38  H   UNL     1      15.443  41.276  31.046  0.00  0.00    +0.000 HD
ATOM     39  H   UNL     1      16.428  40.018  30.515  0.00  0.00    +0.000 HD
ENDROOT
TORSDOF 0
ENDMDL
MODEL 2
REMARK VINA RESULT:    -4.753     11.632     17.861
REMARK INTER + INTRA:          -4.753
REMARK INTER:                  -4.753
REMARK INTRA:                   0.000
REMARK UNBOUND:                 0.000
REMARK  Name = /home/vital/Documents/PhD_2021/Malaria_codes/scripts/../data/pdbqt_ligands/ligand_75_temp.pdb
REMARK                            x       y       z     vdW  Elec       q    Type
REMARK                         _______ _______ _______ _____ _____    ______ ____
ROOT
ATOM      1  C   UNL     1      38.279  29.528  15.201  0.00  0.00    -0.009 C 
ATOM      2  N   UNL     1      37.789  30.716  15.323  0.00  0.00    -0.270 NA
ATOM      3  C   UNL     1      36.480  30.787  15.728  0.00  0.00    +0.041 C 
ATOM      4  C   UNL     1      35.841  31.959  15.844  0.00  0.00    +0.012 C 
ATOM      5  N   UNL     1      36.384  33.190  15.581  0.00  0.00    -0.325 N 
ATOM      6  C   UNL     1      35.783  34.419  15.610  0.00  0.00    -0.007 C 
ATOM      7  C   UNL     1      36.305  35.626  15.348  0.00  0.00    -0.048 C 
ATOM      8  C   UNL     1      37.686  35.885  15.009  0.00  0.00    -0.064 C 
ATOM      9  C   UNL     1      38.204  37.070  14.647  0.00  0.00    -0.080 C 
ATOM     10  C   UNL     1      37.493  38.378  14.436  0.00  0.00    -0.015 C 
ATOM     11  C   UNL     1      37.649  39.294  15.613  0.00  0.00    -0.062 C 
ATOM     12  C   UNL     1      36.737  40.165  16.066  0.00  0.00    +0.021 C 
ATOM     13  N   UNL     1      35.480  40.419  15.584  0.00  0.00    -0.273 N 
ATOM     14  O   UNL     1      34.594  41.125  16.402  0.00  0.00    -0.273 OA
ATOM     15  C   UNL     1      34.237  42.313  15.688  0.00  0.00    +0.091 C 
ATOM     16  C   UNL     1      33.393  43.208  16.598  0.00  0.00    +0.036 C 
ATOM     17  N   UNL     1      33.132  44.498  15.958  0.00  0.00    -0.333 N 
ATOM     18  C   UNL     1      32.449  45.499  16.606  0.00  0.00    +0.076 C 
ATOM     19  N   UNL     1      31.342  45.562  17.236  0.00  0.00    -0.269 NA
ATOM     20  C   UNL     1      30.467  44.388  17.289  0.00  0.00    +0.101 C 
ATOM     21  C   UNL     1      29.010  44.753  17.526  0.00  0.00    +0.151 A 
ATOM     22  N   UNL     1      28.209  44.864  16.450  0.00  0.00    -0.234 NA
ATOM     23  C   UNL     1      26.923  45.238  16.665  0.00  0.00    +0.054 A 
ATOM     24  C   UNL     1      26.096  45.369  15.409  0.00  0.00    +0.003 C 
ATOM     25  C   UNL     1      25.431  44.050  14.989  0.00  0.00    +0.001 C 
ATOM     26  N   UNL     1      24.177  43.750  15.698  0.00  0.00    -0.319 N 
ATOM     27  C   UNL     1      23.042  44.477  15.140  0.00  0.00    -0.016 C 
ATOM     28  C   UNL     1      26.417  45.489  17.950  0.00  0.00    +0.022 A 
ATOM     29  C   UNL     1      25.089  45.883  18.259  0.00  0.00    -0.051 A 
ATOM     30  C   UNL     1      24.697  46.123  19.576  0.00  0.00    -0.061 A 
ATOM     31  C   UNL     1      25.623  45.977  20.599  0.00  0.00    -0.060 A 
ATOM     32  C   UNL     1      26.928  45.581  20.297  0.00  0.00    -0.036 A 
ATOM     33  C   UNL     1      27.343  45.334  18.993  0.00  0.00    +0.075 A 
ATOM     34  N   UNL     1      28.612  44.965  18.796  0.00  0.00    -0.230 NA
ATOM     35  H   UNL     1      37.338  33.189  15.337  0.00  0.00    +0.000 HD
ATOM     36  H   UNL     1      35.208  40.114  14.689  0.00  0.00    +0.000 HD
ATOM     37  H   UNL     1      33.455  44.654  15.042  0.00  0.00    +0.000 HD
ATOM     38  H   UNL     1      24.283  44.009  16.679  0.00  0.00    +0.000 HD
ATOM     39  H   UNL     1      23.990  42.753  15.596  0.00  0.00    +0.000 HD
ENDROOT
TORSDOF 0
ENDMDL
MODEL 3
REMARK VINA RESULT:    -4.702     14.327     17.892
REMARK INTER + INTRA:          -4.702
REMARK INTER:                  -4.702
REMARK INTRA:                   0.000
REMARK UNBOUND:                 0.000
REMARK  Name = /home/vital/Documents/PhD_2021/Malaria_codes/scripts/../data/pdbqt_ligands/ligand_75_temp.pdb
REMARK                            x       y       z     vdW  Elec       q    Type
REMARK                         _______ _______ _______ _____ _____    ______ ____
ROOT
ATOM      1  C   UNL     1      13.762  41.349  29.636  0.00  0.00    -0.009 C 
ATOM      2  N   UNL     1      13.932  40.681  28.545  0.00  0.00    -0.270 NA
ATOM      3  C   UNL     1      13.818  39.317  28.652  0.00  0.00    +0.041 C 
ATOM      4  C   UNL     1      14.022  38.509  27.604  0.00  0.00    +0.012 C 
ATOM      5  N   UNL     1      14.361  38.916  26.339  0.00  0.00    -0.325 N 
ATOM      6  C   UNL     1      14.650  38.156  25.239  0.00  0.00    -0.007 C 
ATOM      7  C   UNL     1      14.989  38.546  24.002  0.00  0.00    -0.048 C 
ATOM      8  C   UNL     1      15.078  39.916  23.552  0.00  0.00    -0.064 C 
ATOM      9  C   UNL     1      15.510  40.329  22.349  0.00  0.00    -0.080 C 
ATOM     10  C   UNL     1      16.066  39.505  21.220  0.00  0.00    -0.015 C 
ATOM     11  C   UNL     1      15.042  39.259  20.152  0.00  0.00    -0.062 C 
ATOM     12  C   UNL     1      14.928  38.153  19.404  0.00  0.00    +0.021 C 
ATOM     13  N   UNL     1      15.689  37.014  19.433  0.00  0.00    -0.273 N 
ATOM     14  O   UNL     1      15.191  35.876  18.795  0.00  0.00    -0.273 OA
ATOM     15  C   UNL     1      16.142  35.523  17.786  0.00  0.00    +0.091 C 
ATOM     16  C   UNL     1      15.576  34.377  16.944  0.00  0.00    +0.036 C 
ATOM     17  N   UNL     1      16.452  34.087  15.808  0.00  0.00    -0.333 N 
ATOM     18  C   UNL     1      16.123  33.139  14.869  0.00  0.00    +0.076 C 
ATOM     19  N   UNL     1      15.750  31.921  14.922  0.00  0.00    -0.269 NA
ATOM     20  C   UNL     1      15.689  31.233  16.213  0.00  0.00    +0.101 C 
ATOM     21  C   UNL     1      15.814  29.723  16.080  0.00  0.00    +0.151 A 
ATOM     22  N   UNL     1      17.035  29.179  16.244  0.00  0.00    -0.234 NA
ATOM     23  C   UNL     1      17.146  27.838  16.075  0.00  0.00    +0.054 A 
ATOM     24  C   UNL     1      18.549  27.306  16.247  0.00  0.00    +0.003 C 
ATOM     25  C   UNL     1      18.880  26.947  17.702  0.00  0.00    +0.001 C 
ATOM     26  N   UNL     1      18.403  25.621  18.125  0.00  0.00    -0.319 N 
ATOM     27  C   UNL     1      19.287  24.550  17.681  0.00  0.00    -0.016 C 
ATOM     28  C   UNL     1      16.047  27.024  15.758  0.00  0.00    +0.022 A 
ATOM     29  C   UNL     1      16.081  25.619  15.565  0.00  0.00    -0.051 A 
ATOM     30  C   UNL     1      14.926  24.910  15.236  0.00  0.00    -0.061 A 
ATOM     31  C   UNL     1      13.727  25.592  15.091  0.00  0.00    -0.060 A 
ATOM     32  C   UNL     1      13.690  26.974  15.288  0.00  0.00    -0.036 A 
ATOM     33  C   UNL     1      14.828  27.703  15.620  0.00  0.00    +0.075 A 
ATOM     34  N   UNL     1      14.702  29.023  15.785  0.00  0.00    -0.230 NA
ATOM     35  H   UNL     1      14.403  39.890  26.205  0.00  0.00    +0.000 HD
ATOM     36  H   UNL     1      16.561  36.998  19.890  0.00  0.00    +0.000 HD
ATOM     37  H   UNL     1      17.297  34.582  15.715  0.00  0.00    +0.000 HD
ATOM     38  H   UNL     1      17.474  25.466  17.732  0.00  0.00    +0.000 HD
ATOM     39  H   UNL     1      18.380  25.607  19.144  0.00  0.00    +0.000 HD
ENDROOT
TORSDOF 0
ENDMDL
MODEL 4
REMARK VINA RESULT:    -4.609      1.074      1.208
REMARK INTER + INTRA:          -4.609
REMARK INTER:                  -4.609
REMARK INTRA:                   0.000
REMARK UNBOUND:                 0.000
REMARK  Name = /home/vital/Documents/PhD_2021/Malaria_codes/scripts/../data/pdbqt_ligands/ligand_75_temp.pdb
REMARK                            x       y       z     vdW  Elec       q    Type
REMARK                         _______ _______ _______ _____ _____    ______ ____
ROOT
ATOM      1  C   UNL     1      29.230  46.221  18.412  0.00  0.00    -0.009 C 
ATOM      2  N   UNL     1      28.087  46.172  19.008  0.00  0.00    -0.270 NA
ATOM      3  C   UNL     1      28.091  45.636  20.271  0.00  0.00    +0.041 C 
ATOM      4  C   UNL     1      26.961  45.482  20.975  0.00  0.00    +0.012 C 
ATOM      5  N   UNL     1      25.704  45.820  20.545  0.00  0.00    -0.325 N 
ATOM      6  C   UNL     1      24.502  45.635  21.172  0.00  0.00    -0.007 C 
ATOM      7  C   UNL     1      23.269  45.957  20.756  0.00  0.00    -0.048 C 
ATOM      8  C   UNL     1      22.954  46.637  19.521  0.00  0.00    -0.064 C 
ATOM      9  C   UNL     1      21.722  46.879  19.041  0.00  0.00    -0.080 C 
ATOM     10  C   UNL     1      20.396  46.455  19.608  0.00  0.00    -0.015 C 
ATOM     11  C   UNL     1      19.724  47.571  20.351  0.00  0.00    -0.062 C 
ATOM     12  C   UNL     1      18.955  47.447  21.441  0.00  0.00    +0.021 C 
ATOM     13  N   UNL     1      18.608  46.311  22.123  0.00  0.00    -0.273 N 
ATOM     14  O   UNL     1      18.071  46.452  23.404  0.00  0.00    -0.273 OA
ATOM     15  C   UNL     1      16.767  45.863  23.367  0.00  0.00    +0.091 C 
ATOM     16  C   UNL     1      16.060  46.129  24.699  0.00  0.00    +0.036 C 
ATOM     17  N   UNL     1      14.671  45.674  24.649  0.00  0.00    -0.333 N 
ATOM     18  C   UNL     1      13.811  45.864  25.705  0.00  0.00    +0.076 C 
ATOM     19  N   UNL     1      13.868  45.626  26.956  0.00  0.00    -0.269 NA
ATOM     20  C   UNL     1      15.028  44.924  27.512  0.00  0.00    +0.101 C 
ATOM     21  C   UNL     1      14.711  44.211  28.817  0.00  0.00    +0.151 A 
ATOM     22  N   UNL     1      14.392  42.904  28.755  0.00  0.00    -0.234 NA
ATOM     23  C   UNL     1      14.063  42.287  29.917  0.00  0.00    +0.054 A 
ATOM     24  C   UNL     1      13.690  40.832  29.763  0.00  0.00    +0.003 C 
ATOM     25  C   UNL     1      14.901  39.892  29.841  0.00  0.00    +0.001 C 
ATOM     26  N   UNL     1      15.328  39.563  31.210  0.00  0.00    -0.319 N 
ATOM     27  C   UNL     1      14.505  38.519  31.809  0.00  0.00    -0.016 C 
ATOM     28  C   UNL     1      14.062  42.956  31.152  0.00  0.00    +0.022 A 
ATOM     29  C   UNL     1      13.732  42.385  32.407  0.00  0.00    -0.051 A 
ATOM     30  C   UNL     1      13.749  43.150  33.574  0.00  0.00    -0.061 A 
ATOM     31  C   UNL     1      14.092  44.492  33.501  0.00  0.00    -0.060 A 
ATOM     32  C   UNL     1      14.426  45.054  32.267  0.00  0.00    -0.036 A 
ATOM     33  C   UNL     1      14.419  44.312  31.091  0.00  0.00    +0.075 A 
ATOM     34  N   UNL     1      14.746  44.932  29.954  0.00  0.00    -0.230 NA
ATOM     35  H   UNL     1      25.661  46.257  19.664  0.00  0.00    +0.000 HD
ATOM     36  H   UNL     1      18.735  45.420  21.722  0.00  0.00    +0.000 HD
ATOM     37  H   UNL     1      14.343  45.222  23.839  0.00  0.00    +0.000 HD
ATOM     38  H   UNL     1      15.263  40.403  31.785  0.00  0.00    +0.000 HD
ATOM     39  H   UNL     1      16.287  39.219  31.165  0.00  0.00    +0.000 HD
ENDROOT
TORSDOF 0
ENDMDL
MODEL 5
REMARK VINA RESULT:    -4.497     14.836     16.928
REMARK INTER + INTRA:          -4.497
REMARK INTER:                  -4.497
REMARK INTRA:                   0.000
REMARK UNBOUND:                 0.000
REMARK  Name = /home/vital/Documents/PhD_2021/Malaria_codes/scripts/../data/pdbqt_ligands/ligand_75_temp.pdb
REMARK                            x       y       z     vdW  Elec       q    Type
REMARK                         _______ _______ _______ _____ _____    ______ ____
ROOT
ATOM      1  C   UNL     1      20.774  45.618  21.010  0.00  0.00    -0.009 C 
ATOM      2  N   UNL     1      20.389  44.537  20.418  0.00  0.00    -0.270 NA
ATOM      3  C   UNL     1      20.354  43.406  21.195  0.00  0.00    +0.041 C 
ATOM      4  C   UNL     1      20.020  42.213  20.687  0.00  0.00    +0.012 C 
ATOM      5  N   UNL     1      19.687  41.970  19.380  0.00  0.00    -0.325 N 
ATOM      6  C   UNL     1      19.402  40.778  18.772  0.00  0.00    -0.007 C 
ATOM      7  C   UNL     1      19.082  40.531  17.494  0.00  0.00    -0.048 C 
ATOM      8  C   UNL     1      18.925  41.531  16.463  0.00  0.00    -0.064 C 
ATOM      9  C   UNL     1      18.703  41.297  15.158  0.00  0.00    -0.080 C 
ATOM     10  C   UNL     1      18.636  39.977  14.442  0.00  0.00    -0.015 C 
ATOM     11  C   UNL     1      17.221  39.549  14.192  0.00  0.00    -0.062 C 
ATOM     12  C   UNL     1      16.761  38.291  14.193  0.00  0.00    +0.021 C 
ATOM     13  N   UNL     1      17.446  37.126  14.420  0.00  0.00    -0.273 N 
ATOM     14  O   UNL     1      16.708  35.972  14.690  0.00  0.00    -0.273 OA
ATOM     15  C   UNL     1      17.039  35.027  13.668  0.00  0.00    +0.091 C 
ATOM     16  C   UNL     1      16.141  33.796  13.816  0.00  0.00    +0.036 C 
ATOM     17  N   UNL     1      16.343  32.870  12.701  0.00  0.00    -0.333 N 
ATOM     18  C   UNL     1      15.601  31.720  12.575  0.00  0.00    +0.076 C 
ATOM     19  N   UNL     1      15.313  30.754  13.356  0.00  0.00    -0.269 NA
ATOM     20  C   UNL     1      15.904  30.697  14.695  0.00  0.00    +0.101 C 
ATOM     21  C   UNL     1      15.959  29.284  15.253  0.00  0.00    +0.151 A 
ATOM     22  N   UNL     1      17.106  28.594  15.100  0.00  0.00    -0.234 NA
ATOM     23  C   UNL     1      17.130  27.318  15.557  0.00  0.00    +0.054 A 
ATOM     24  C   UNL     1      18.440  26.602  15.324  0.00  0.00    +0.003 C 
ATOM     25  C   UNL     1      19.449  26.814  16.461  0.00  0.00    +0.001 C 
ATOM     26  N   UNL     1      19.254  25.930  17.621  0.00  0.00    -0.319 N 
ATOM     27  C   UNL     1      19.812  24.601  17.401  0.00  0.00    -0.016 C 
ATOM     28  C   UNL     1      16.025  26.719  16.181  0.00  0.00    +0.022 A 
ATOM     29  C   UNL     1      15.971  25.394  16.684  0.00  0.00    -0.051 A 
ATOM     30  C   UNL     1      14.810  24.894  17.274  0.00  0.00    -0.061 A 
ATOM     31  C   UNL     1      13.690  25.708  17.367  0.00  0.00    -0.060 A 
ATOM     32  C   UNL     1      13.744  27.016  16.880  0.00  0.00    -0.036 A 
ATOM     33  C   UNL     1      14.891  27.537  16.290  0.00  0.00    +0.075 A 
ATOM     34  N   UNL     1      14.852  28.797  15.846  0.00  0.00    -0.230 NA
ATOM     35  H   UNL     1      19.649  42.763  18.798  0.00  0.00    +0.000 HD
ATOM     36  H   UNL     1      18.430  37.104  14.395  0.00  0.00    +0.000 HD
ATOM     37  H   UNL     1      17.027  33.075  12.024  0.00  0.00    +0.000 HD
ATOM     38  H   UNL     1      18.254  25.841  17.801  0.00  0.00    +0.000 HD
ATOM     39  H   UNL     1      19.738  26.345  18.416  0.00  0.00    +0.000 HD
ENDROOT
TORSDOF 0
ENDMDL
MODEL 6
REMARK VINA RESULT:    -4.252     18.761     21.281
REMARK INTER + INTRA:          -4.252
REMARK INTER:                  -4.252
REMARK INTRA:                   0.000
REMARK UNBOUND:                 0.000
REMARK  Name = /home/vital/Documents/PhD_2021/Malaria_codes/scripts/../data/pdbqt_ligands/ligand_75_temp.pdb
REMARK                            x       y       z     vdW  Elec       q    Type
REMARK                         _______ _______ _______ _____ _____    ______ ____
ROOT
ATOM      1  C   UNL     1      15.546  38.860  12.502  0.00  0.00    -0.009 C 
ATOM      2  N   UNL     1      15.802  37.690  12.982  0.00  0.00    -0.270 NA
ATOM      3  C   UNL     1      16.871  37.613  13.839  0.00  0.00    +0.041 C 
ATOM      4  C   UNL     1      17.270  36.447  14.365  0.00  0.00    +0.012 C 
ATOM      5  N   UNL     1      16.693  35.227  14.124  0.00  0.00    -0.325 N 
ATOM      6  C   UNL     1      17.080  33.991  14.565  0.00  0.00    -0.007 C 
ATOM      7  C   UNL     1      16.525  32.794  14.329  0.00  0.00    -0.048 C 
ATOM      8  C   UNL     1      15.324  32.564  13.559  0.00  0.00    -0.064 C 
ATOM      9  C   UNL     1      14.810  31.368  13.229  0.00  0.00    -0.080 C 
ATOM     10  C   UNL     1      15.371  30.000  13.502  0.00  0.00    -0.015 C 
ATOM     11  C   UNL     1      14.700  29.346  14.674  0.00  0.00    -0.062 C 
ATOM     12  C   UNL     1      15.278  28.523  15.559  0.00  0.00    +0.021 C 
ATOM     13  N   UNL     1      16.579  28.096  15.614  0.00  0.00    -0.273 N 
ATOM     14  O   UNL     1      17.027  27.508  16.798  0.00  0.00    -0.273 OA
ATOM     15  C   UNL     1      17.449  26.183  16.462  0.00  0.00    +0.091 C 
ATOM     16  C   UNL     1      17.802  25.430  17.747  0.00  0.00    +0.036 C 
ATOM     17  N   UNL     1      18.094  24.025  17.461  0.00  0.00    -0.333 N 
ATOM     18  C   UNL     1      18.375  23.128  18.465  0.00  0.00    +0.076 C 
ATOM     19  N   UNL     1      19.179  23.118  19.454  0.00  0.00    -0.269 NA
ATOM     20  C   UNL     1      20.129  24.218  19.631  0.00  0.00    +0.101 C 
ATOM     21  C   UNL     1      21.354  23.812  20.436  0.00  0.00    +0.151 A 
ATOM     22  N   UNL     1      22.454  23.438  19.755  0.00  0.00    -0.234 NA
ATOM     23  C   UNL     1      23.526  23.030  20.479  0.00  0.00    +0.054 A 
ATOM     24  C   UNL     1      24.710  22.600  19.646  0.00  0.00    +0.003 C 
ATOM     25  C   UNL     1      25.646  23.763  19.290  0.00  0.00    +0.001 C 
ATOM     26  N   UNL     1      26.608  24.113  20.347  0.00  0.00    -0.319 N 
ATOM     27  C   UNL     1      27.759  23.218  20.363  0.00  0.00    -0.016 C 
ATOM     28  C   UNL     1      23.522  23.003  21.882  0.00  0.00    +0.022 A 
ATOM     29  C   UNL     1      24.598  22.592  22.710  0.00  0.00    -0.051 A 
ATOM     30  C   UNL     1      24.478  22.590  24.100  0.00  0.00    -0.061 A 
ATOM     31  C   UNL     1      23.284  22.996  24.680  0.00  0.00    -0.060 A 
ATOM     32  C   UNL     1      22.227  23.409  23.867  0.00  0.00    -0.036 A 
ATOM     33  C   UNL     1      22.323  23.422  22.479  0.00  0.00    +0.075 A 
ATOM     34  N   UNL     1      21.259  23.828  21.779  0.00  0.00    -0.230 NA
ATOM     35  H   UNL     1      15.890  35.243  13.555  0.00  0.00    +0.000 HD
ATOM     36  H   UNL     1      17.179  28.201  14.841  0.00  0.00    +0.000 HD
ATOM     37  H   UNL     1      18.089  23.713  16.528  0.00  0.00    +0.000 HD
ATOM     38  H   UNL     1      26.138  24.060  21.251  0.00  0.00    +0.000 HD
ATOM     39  H   UNL     1      26.948  25.057  20.162  0.00  0.00    +0.000 HD
ENDROOT
TORSDOF 0
ENDMDL
MODEL 7
REMARK VINA RESULT:    -4.224     20.433     22.715
REMARK INTER + INTRA:          -4.224
REMARK INTER:                  -4.224
REMARK INTRA:                   0.000
REMARK UNBOUND:                 0.000
REMARK  Name = /home/vital/Documents/PhD_2021/Malaria_codes/scripts/../data/pdbqt_ligands/ligand_75_temp.pdb
REMARK                            x       y       z     vdW  Elec       q    Type
REMARK                         _______ _______ _______ _____ _____    ______ ____
ROOT
ATOM      1  C   UNL     1      35.172  23.104  16.263  0.00  0.00    -0.009 C 
ATOM      2  N   UNL     1      33.918  23.233  16.539  0.00  0.00    -0.270 NA
ATOM      3  C   UNL     1      33.123  23.695  15.520  0.00  0.00    +0.041 C 
ATOM      4  C   UNL     1      31.814  23.919  15.695  0.00  0.00    +0.012 C 
ATOM      5  N   UNL     1      31.124  23.731  16.865  0.00  0.00    -0.325 N 
ATOM      6  C   UNL     1      29.811  23.998  17.142  0.00  0.00    -0.007 C 
ATOM      7  C   UNL     1      29.131  23.822  18.283  0.00  0.00    -0.048 C 
ATOM      8  C   UNL     1      29.666  23.247  19.496  0.00  0.00    -0.064 C 
ATOM      9  C   UNL     1      29.031  23.154  20.677  0.00  0.00    -0.080 C 
ATOM     10  C   UNL     1      27.672  23.675  21.053  0.00  0.00    -0.015 C 
ATOM     11  C   UNL     1      26.636  22.590  21.038  0.00  0.00    -0.062 C 
ATOM     12  C   UNL     1      25.349  22.728  20.692  0.00  0.00    +0.021 C 
ATOM     13  N   UNL     1      24.687  23.854  20.276  0.00  0.00    -0.273 N 
ATOM     14  O   UNL     1      23.442  23.694  19.664  0.00  0.00    -0.273 OA
ATOM     15  C   UNL     1      22.498  24.410  20.467  0.00  0.00    +0.091 C 
ATOM     16  C   UNL     1      21.087  24.141  19.937  0.00  0.00    +0.036 C 
ATOM     17  N   UNL     1      20.081  24.732  20.820  0.00  0.00    -0.333 N 
ATOM     18  C   UNL     1      18.735  24.570  20.590  0.00  0.00    +0.076 C 
ATOM     19  N   UNL     1      17.976  24.731  19.579  0.00  0.00    -0.269 NA
ATOM     20  C   UNL     1      18.524  25.283  18.337  0.00  0.00    +0.101 C 
ATOM     21  C   UNL     1      17.465  25.950  17.474  0.00  0.00    +0.151 A 
ATOM     22  N   UNL     1      17.313  27.284  17.587  0.00  0.00    -0.234 NA
ATOM     23  C   UNL     1      16.334  27.864  16.851  0.00  0.00    +0.054 A 
ATOM     24  C   UNL     1      16.207  29.355  17.052  0.00  0.00    +0.003 C 
ATOM     25  C   UNL     1      17.113  30.166  16.116  0.00  0.00    +0.001 C 
ATOM     26  N   UNL     1      16.563  30.374  14.767  0.00  0.00    -0.319 N 
ATOM     27  C   UNL     1      15.589  31.459  14.731  0.00  0.00    -0.016 C 
ATOM     28  C   UNL     1      15.506  27.131  15.985  0.00  0.00    +0.022 A 
ATOM     29  C   UNL     1      14.463  27.661  15.183  0.00  0.00    -0.051 A 
ATOM     30  C   UNL     1      13.690  26.834  14.369  0.00  0.00    -0.061 A 
ATOM     31  C   UNL     1      13.946  25.471  14.346  0.00  0.00    -0.060 A 
ATOM     32  C   UNL     1      14.977  24.948  15.128  0.00  0.00    -0.036 A 
ATOM     33  C   UNL     1      15.764  25.752  15.946  0.00  0.00    +0.075 A 
ATOM     34  N   UNL     1      16.726  25.166  16.665  0.00  0.00    -0.230 NA
ATOM     35  H   UNL     1      31.645  23.350  17.608  0.00  0.00    +0.000 HD
ATOM     36  H   UNL     1      25.078  24.748  20.404  0.00  0.00    +0.000 HD
ATOM     37  H   UNL     1      20.374  25.260  21.597  0.00  0.00    +0.000 HD
ATOM     38  H   UNL     1      16.108  29.513  14.462  0.00  0.00    +0.000 HD
ATOM     39  H   UNL     1      17.334  30.624  14.149  0.00  0.00    +0.000 HD
ENDROOT
TORSDOF 0
ENDMDL
MODEL 8
REMARK VINA RESULT:    -4.206     14.196     18.216
REMARK INTER + INTRA:          -4.206
REMARK INTER:                  -4.206
REMARK INTRA:                   0.000
REMARK UNBOUND:                 0.000
REMARK  Name = /home/vital/Documents/PhD_2021/Malaria_codes/scripts/../data/pdbqt_ligands/ligand_75_temp.pdb
REMARK                            x       y       z     vdW  Elec       q    Type
REMARK                         _______ _______ _______ _____ _____    ______ ____
ROOT
ATOM      1  C   UNL     1      14.066  39.268  31.721  0.00  0.00    -0.009 C 
ATOM      2  N   UNL     1      14.210  38.753  30.546  0.00  0.00    -0.270 NA
ATOM      3  C   UNL     1      14.109  37.386  30.473  0.00  0.00    +0.041 C 
ATOM      4  C   UNL     1      14.289  36.727  29.321  0.00  0.00    +0.012 C 
ATOM      5  N   UNL     1      14.589  37.303  28.113  0.00  0.00    -0.325 N 
ATOM      6  C   UNL     1      14.852  36.700  26.914  0.00  0.00    -0.007 C 
ATOM      7  C   UNL     1      15.151  37.256  25.731  0.00  0.00    -0.048 C 
ATOM      8  C   UNL     1      15.217  38.675  25.466  0.00  0.00    -0.064 C 
ATOM      9  C   UNL     1      15.611  39.250  24.318  0.00  0.00    -0.080 C 
ATOM     10  C   UNL     1      16.141  38.591  23.074  0.00  0.00    -0.015 C 
ATOM     11  C   UNL     1      15.088  38.477  22.012  0.00  0.00    -0.062 C 
ATOM     12  C   UNL     1      14.961  37.481  21.125  0.00  0.00    +0.021 C 
ATOM     13  N   UNL     1      15.731  36.357  20.981  0.00  0.00    -0.273 N 
ATOM     14  O   UNL     1      15.223  35.308  20.210  0.00  0.00    -0.273 OA
ATOM     15  C   UNL     1      16.148  35.105  19.137  0.00  0.00    +0.091 C 
ATOM     16  C   UNL     1      15.567  34.075  18.165  0.00  0.00    +0.036 C 
ATOM     17  N   UNL     1      16.411  33.949  16.977  0.00  0.00    -0.333 N 
ATOM     18  C   UNL     1      16.063  33.131  15.928  0.00  0.00    +0.076 C 
ATOM     19  N   UNL     1      15.700  31.913  15.828  0.00  0.00    -0.269 NA
ATOM     20  C   UNL     1      15.683  31.058  17.017  0.00  0.00    +0.101 C 
ATOM     21  C   UNL     1      15.815  29.581  16.680  0.00  0.00    +0.151 A 
ATOM     22  N   UNL     1      17.044  29.034  16.735  0.00  0.00    -0.234 NA
ATOM     23  C   UNL     1      17.161  27.729  16.385  0.00  0.00    +0.054 A 
ATOM     24  C   UNL     1      18.573  27.195  16.446  0.00  0.00    +0.003 C 
ATOM     25  C   UNL     1      18.948  26.649  17.830  0.00  0.00    +0.001 C 
ATOM     26  N   UNL     1      18.493  25.273  18.085  0.00  0.00    -0.319 N 
ATOM     27  C   UNL     1      19.373  24.281  17.477  0.00  0.00    -0.016 C 
ATOM     28  C   UNL     1      16.060  26.952  15.992  0.00  0.00    +0.022 A 
ATOM     29  C   UNL     1      16.099  25.586  15.613  0.00  0.00    -0.051 A 
ATOM     30  C   UNL     1      14.941  24.914  15.223  0.00  0.00    -0.061 A 
ATOM     31  C   UNL     1      13.732  25.595  15.204  0.00  0.00    -0.060 A 
ATOM     32  C   UNL     1      13.691  26.938  15.585  0.00  0.00    -0.036 A 
ATOM     33  C   UNL     1      14.831  27.629  15.980  0.00  0.00    +0.075 A 
ATOM     34  N   UNL     1      14.700  28.914  16.324  0.00  0.00    -0.230 NA
ATOM     35  H   UNL     1      14.619  38.287  28.109  0.00  0.00    +0.000 HD
ATOM     36  H   UNL     1      16.616  36.290  21.407  0.00  0.00    +0.000 HD
ATOM     37  H   UNL     1      17.249  34.462  16.927  0.00  0.00    +0.000 HD
ATOM     38  H   UNL     1      17.555  25.161  17.700  0.00  0.00    +0.000 HD
ATOM     39  H   UNL     1      18.500  25.122  19.093  0.00  0.00    +0.000 HD
ENDROOT
TORSDOF 0
ENDMDL
