MODEL 1
REMARK VINA RESULT:    -3.647      0.000      0.000
REMARK INTER + INTRA:          -3.647
REMARK INTER:                  -3.647
REMARK INTRA:                   0.000
REMARK UNBOUND:                 0.000
REMARK  Name = /home/vital/Documents/PhD_2021/Malaria_codes/scripts/../data/pdbqt_ligands/ligand_273_temp.pdb
REMARK                            x       y       z     vdW  Elec       q    Type
REMARK                         _______ _______ _______ _____ _____    ______ ____
ROOT
ATOM      1  C   UNL     1      15.541  30.748  14.549  0.00  0.00    -0.057 C 
ATOM      2  C   UNL     1      14.774  29.700  15.353  0.00  0.00    +0.002 C 
ATOM      3  C   UNL     1      14.332  28.462  14.463  0.00  0.00    -0.026 C 
ATOM      4  C   UNL     1      15.420  27.634  13.787  0.00  0.00    -0.083 C 
ATOM      5  C   UNL     1      15.624  26.297  13.768  0.00  0.00    -0.065 C 
ATOM      6  C   UNL     1      14.764  25.219  14.225  0.00  0.00    -0.049 C 
ATOM      7  C   UNL     1      15.018  24.256  15.136  0.00  0.00    -0.010 C 
ATOM      8  N   UNL     1      16.049  24.111  16.082  0.00  0.00    -0.340 N 
ATOM      9  C   UNL     1      15.737  24.258  17.548  0.00  0.00    +0.057 C 
ATOM     10  C   UNL     1      14.692  25.349  17.676  0.00  0.00    -0.060 C 
ATOM     11  C   UNL     1      14.922  26.630  17.331  0.00  0.00    -0.064 C 
ATOM     12  C   UNL     1      16.192  27.063  16.756  0.00  0.00    -0.060 C 
ATOM     13  C   UNL     1      16.563  28.297  16.428  0.00  0.00    -0.041 C 
ATOM     14  C   UNL     1      15.575  29.345  16.628  0.00  0.00    +0.040 C 
ATOM     15  N   UNL     1      15.340  29.925  17.757  0.00  0.00    -0.273 NA
ATOM     16  C   UNL     1      15.928  29.486  19.050  0.00  0.00    +0.090 C 
ATOM     17  N   UNL     1      17.133  28.661  19.045  0.00  0.00    -0.293 N 
ATOM     18  C   UNL     1      17.378  27.858  20.268  0.00  0.00    +0.027 C 
ATOM     19  C   UNL     1      18.266  28.655  21.273  0.00  0.00    +0.030 C 
ATOM     20  N   UNL     1      19.423  29.337  20.673  0.00  0.00    -0.217 NA
ATOM     21 CL   UNL     1      20.775  28.272  20.287  0.00  0.00    -0.021 Cl
ATOM     22  C   UNL     1      19.841  30.544  21.406  0.00  0.00    +0.028 C 
ATOM     23  C   UNL     1      20.456  30.363  22.801  0.00  0.00    +0.037 C 
ATOM     24 CL   UNL     1      19.235  30.131  24.077  0.00  0.00    -0.124 Cl
ATOM     25  C   UNL     1      17.984  26.430  19.939  0.00  0.00    -0.018 C 
ATOM     26  C   UNL     1      16.937  25.448  19.442  0.00  0.00    -0.084 C 
ATOM     27  C   UNL     1      17.002  24.666  18.332  0.00  0.00    -0.064 C 
ATOM     28  H   UNL     1      16.968  23.915  15.788  0.00  0.00    +0.000 HD
ATOM     29  H   UNL     1      17.933  29.279  18.913  0.00  0.00    +0.000 HD
ATOM     30  H   UNL     1      16.999  27.984  18.294  0.00  0.00    +0.000 HD
ENDROOT
TORSDOF 0
ENDMDL
MODEL 2
REMARK VINA RESULT:    -3.646      0.036      0.036
REMARK INTER + INTRA:          -3.646
REMARK INTER:                  -3.646
REMARK INTRA:                   0.000
REMARK UNBOUND:                 0.000
REMARK  Name = /home/vital/Documents/PhD_2021/Malaria_codes/scripts/../data/pdbqt_ligands/ligand_273_temp.pdb
REMARK                            x       y       z     vdW  Elec       q    Type
REMARK                         _______ _______ _______ _____ _____    ______ ____
ROOT
ATOM      1  C   UNL     1      15.515  30.732  14.574  0.00  0.00    -0.057 C 
ATOM      2  C   UNL     1      14.758  29.676  15.377  0.00  0.00    +0.002 C 
ATOM      3  C   UNL     1      14.317  28.440  14.483  0.00  0.00    -0.026 C 
ATOM      4  C   UNL     1      15.405  27.621  13.796  0.00  0.00    -0.083 C 
ATOM      5  C   UNL     1      15.616  26.286  13.769  0.00  0.00    -0.065 C 
ATOM      6  C   UNL     1      14.764  25.201  14.226  0.00  0.00    -0.049 C 
ATOM      7  C   UNL     1      15.027  24.235  15.131  0.00  0.00    -0.010 C 
ATOM      8  N   UNL     1      16.065  24.090  16.070  0.00  0.00    -0.340 N 
ATOM      9  C   UNL     1      15.761  24.228  17.539  0.00  0.00    +0.057 C 
ATOM     10  C   UNL     1      14.711  25.313  17.678  0.00  0.00    -0.060 C 
ATOM     11  C   UNL     1      14.932  26.597  17.338  0.00  0.00    -0.064 C 
ATOM     12  C   UNL     1      16.197  27.039  16.758  0.00  0.00    -0.060 C 
ATOM     13  C   UNL     1      16.560  28.277  16.434  0.00  0.00    -0.041 C 
ATOM     14  C   UNL     1      15.568  29.319  16.645  0.00  0.00    +0.040 C 
ATOM     15  N   UNL     1      15.337  29.892  17.779  0.00  0.00    -0.273 NA
ATOM     16  C   UNL     1      15.934  29.449  19.065  0.00  0.00    +0.090 C 
ATOM     17  N   UNL     1      17.143  28.630  19.050  0.00  0.00    -0.293 N 
ATOM     18  C   UNL     1      17.399  27.823  20.267  0.00  0.00    +0.027 C 
ATOM     19  C   UNL     1      18.289  28.619  21.272  0.00  0.00    +0.030 C 
ATOM     20  N   UNL     1      19.440  29.310  20.668  0.00  0.00    -0.217 NA
ATOM     21 CL   UNL     1      20.794  28.253  20.269  0.00  0.00    -0.021 Cl
ATOM     22  C   UNL     1      19.856  30.515  21.405  0.00  0.00    +0.028 C 
ATOM     23  C   UNL     1      20.480  30.330  22.796  0.00  0.00    +0.037 C 
ATOM     24 CL   UNL     1      19.267  30.086  24.077  0.00  0.00    -0.124 Cl
ATOM     25  C   UNL     1      18.011  26.399  19.928  0.00  0.00    -0.018 C 
ATOM     26  C   UNL     1      16.965  25.414  19.431  0.00  0.00    -0.084 C 
ATOM     27  C   UNL     1      17.028  24.638  18.318  0.00  0.00    -0.064 C 
ATOM     28  H   UNL     1      16.983  23.900  15.770  0.00  0.00    +0.000 HD
ATOM     29  H   UNL     1      17.940  29.253  18.916  0.00  0.00    +0.000 HD
ATOM     30  H   UNL     1      17.009  27.956  18.296  0.00  0.00    +0.000 HD
ENDROOT
TORSDOF 0
ENDMDL
MODEL 3
REMARK VINA RESULT:    -3.621      0.147      0.147
REMARK INTER + INTRA:          -3.621
REMARK INTER:                  -3.621
REMARK INTRA:                   0.000
REMARK UNBOUND:                 0.000
REMARK  Name = /home/vital/Documents/PhD_2021/Malaria_codes/scripts/../data/pdbqt_ligands/ligand_273_temp.pdb
REMARK                            x       y       z     vdW  Elec       q    Type
REMARK                         _______ _______ _______ _____ _____    ______ ____
ROOT
ATOM      1  C   UNL     1      15.704  30.855  14.563  0.00  0.00    -0.057 C 
ATOM      2  C   UNL     1      14.897  29.832  15.360  0.00  0.00    +0.002 C 
ATOM      3  C   UNL     1      14.401  28.622  14.461  0.00  0.00    -0.026 C 
ATOM      4  C   UNL     1      15.452  27.756  13.773  0.00  0.00    -0.083 C 
ATOM      5  C   UNL     1      15.601  26.412  13.741  0.00  0.00    -0.065 C 
ATOM      6  C   UNL     1      14.699  25.366  14.191  0.00  0.00    -0.049 C 
ATOM      7  C   UNL     1      14.916  24.385  15.093  0.00  0.00    -0.010 C 
ATOM      8  N   UNL     1      15.944  24.189  16.033  0.00  0.00    -0.340 N 
ATOM      9  C   UNL     1      15.643  24.335  17.502  0.00  0.00    +0.057 C 
ATOM     10  C   UNL     1      14.644  25.466  17.644  0.00  0.00    -0.060 C 
ATOM     11  C   UNL     1      14.925  26.741  17.310  0.00  0.00    -0.064 C 
ATOM     12  C   UNL     1      16.210  27.126  16.734  0.00  0.00    -0.060 C 
ATOM     13  C   UNL     1      16.631  28.347  16.416  0.00  0.00    -0.041 C 
ATOM     14  C   UNL     1      15.687  29.433  16.629  0.00  0.00    +0.040 C 
ATOM     15  N   UNL     1      15.481  30.011  17.764  0.00  0.00    -0.273 NA
ATOM     16  C   UNL     1      16.054  29.536  19.050  0.00  0.00    +0.090 C 
ATOM     17  N   UNL     1      17.225  28.663  19.034  0.00  0.00    -0.293 N 
ATOM     18  C   UNL     1      17.440  27.839  20.248  0.00  0.00    +0.027 C 
ATOM     19  C   UNL     1      18.364  28.589  21.257  0.00  0.00    +0.030 C 
ATOM     20  N   UNL     1      19.546  29.229  20.658  0.00  0.00    -0.217 NA
ATOM     21 CL   UNL     1      20.852  28.113  20.258  0.00  0.00    -0.021 Cl
ATOM     22  C   UNL     1      20.016  30.411  21.401  0.00  0.00    +0.028 C 
ATOM     23  C   UNL     1      20.629  30.191  22.792  0.00  0.00    +0.037 C 
ATOM     24 CL   UNL     1      19.403  29.999  24.070  0.00  0.00    -0.124 Cl
ATOM     25  C   UNL     1      17.986  26.391  19.904  0.00  0.00    -0.018 C 
ATOM     26  C   UNL     1      16.897  25.457  19.402  0.00  0.00    -0.084 C 
ATOM     27  C   UNL     1      16.927  24.683  18.285  0.00  0.00    -0.064 C 
ATOM     28  H   UNL     1      16.852  23.958  15.734  0.00  0.00    +0.000 HD
ATOM     29  H   UNL     1      18.049  29.249  18.903  0.00  0.00    +0.000 HD
ATOM     30  H   UNL     1      17.060  27.998  18.277  0.00  0.00    +0.000 HD
ENDROOT
TORSDOF 0
ENDMDL
MODEL 4
REMARK VINA RESULT:    -3.572      4.065      4.686
REMARK INTER + INTRA:          -3.572
REMARK INTER:                  -3.572
REMARK INTRA:                   0.000
REMARK UNBOUND:                 0.000
REMARK  Name = /home/vital/Documents/PhD_2021/Malaria_codes/scripts/../data/pdbqt_ligands/ligand_273_temp.pdb
REMARK                            x       y       z     vdW  Elec       q    Type
REMARK                         _______ _______ _______ _____ _____    ______ ____
ROOT
ATOM      1  C   UNL     1      16.138  29.109  12.342  0.00  0.00    -0.057 C 
ATOM      2  C   UNL     1      16.067  28.879  13.851  0.00  0.00    +0.002 C 
ATOM      3  C   UNL     1      14.932  27.844  14.251  0.00  0.00    -0.026 C 
ATOM      4  C   UNL     1      15.023  26.424  13.700  0.00  0.00    -0.083 C 
ATOM      5  C   UNL     1      14.940  25.230  14.330  0.00  0.00    -0.065 C 
ATOM      6  C   UNL     1      14.548  24.924  15.695  0.00  0.00    -0.049 C 
ATOM      7  C   UNL     1      15.241  24.275  16.654  0.00  0.00    -0.010 C 
ATOM      8  N   UNL     1      16.595  23.903  16.741  0.00  0.00    -0.340 N 
ATOM      9  C   UNL     1      17.495  24.602  17.727  0.00  0.00    +0.057 C 
ATOM     10  C   UNL     1      17.067  26.055  17.770  0.00  0.00    -0.060 C 
ATOM     11  C   UNL     1      17.158  26.879  16.709  0.00  0.00    -0.064 C 
ATOM     12  C   UNL     1      17.635  26.419  15.408  0.00  0.00    -0.060 C 
ATOM     13  C   UNL     1      17.825  27.138  14.305  0.00  0.00    -0.041 C 
ATOM     14  C   UNL     1      17.481  28.549  14.385  0.00  0.00    +0.040 C 
ATOM     15  N   UNL     1      18.248  29.462  14.878  0.00  0.00    -0.273 NA
ATOM     16  C   UNL     1      19.521  29.178  15.589  0.00  0.00    +0.090 C 
ATOM     17  N   UNL     1      20.186  27.893  15.383  0.00  0.00    -0.293 N 
ATOM     18  C   UNL     1      21.127  27.468  16.447  0.00  0.00    +0.027 C 
ATOM     19  C   UNL     1      22.574  27.951  16.118  0.00  0.00    +0.030 C 
ATOM     20  N   UNL     1      22.995  27.743  14.724  0.00  0.00    -0.217 NA
ATOM     21 CL   UNL     1      23.438  26.080  14.339  0.00  0.00    -0.021 Cl
ATOM     22  C   UNL     1      23.995  28.720  14.259  0.00  0.00    +0.028 C 
ATOM     23  C   UNL     1      25.401  28.659  14.872  0.00  0.00    +0.037 C 
ATOM     24 CL   UNL     1      25.504  29.459  16.460  0.00  0.00    -0.124 Cl
ATOM     25  C   UNL     1      21.066  25.906  16.715  0.00  0.00    -0.018 C 
ATOM     26  C   UNL     1      19.861  25.499  17.547  0.00  0.00    -0.084 C 
ATOM     27  C   UNL     1      18.967  24.513  17.274  0.00  0.00    -0.064 C 
ATOM     28  H   UNL     1      16.953  23.192  16.162  0.00  0.00    +0.000 HD
ATOM     29  H   UNL     1      20.708  27.950  14.509  0.00  0.00    +0.000 HD
ATOM     30  H   UNL     1      19.441  27.196  15.380  0.00  0.00    +0.000 HD
ENDROOT
TORSDOF 0
ENDMDL
MODEL 5
REMARK VINA RESULT:    -3.550      2.299      4.560
REMARK INTER + INTRA:          -3.550
REMARK INTER:                  -3.550
REMARK INTRA:                   0.000
REMARK UNBOUND:                 0.000
REMARK  Name = /home/vital/Documents/PhD_2021/Malaria_codes/scripts/../data/pdbqt_ligands/ligand_273_temp.pdb
REMARK                            x       y       z     vdW  Elec       q    Type
REMARK                         _______ _______ _______ _____ _____    ______ ____
ROOT
ATOM      1  C   UNL     1      15.426  22.672  17.266  0.00  0.00    -0.057 C 
ATOM      2  C   UNL     1      16.290  23.870  16.878  0.00  0.00    +0.002 C 
ATOM      3  C   UNL     1      15.871  24.487  15.477  0.00  0.00    -0.026 C 
ATOM      4  C   UNL     1      14.454  25.032  15.323  0.00  0.00    -0.083 C 
ATOM      5  C   UNL     1      14.016  26.220  14.848  0.00  0.00    -0.065 C 
ATOM      6  C   UNL     1      14.744  27.272  14.160  0.00  0.00    -0.049 C 
ATOM      7  C   UNL     1      14.885  28.571  14.497  0.00  0.00    -0.010 C 
ATOM      8  N   UNL     1      14.598  29.266  15.687  0.00  0.00    -0.340 N 
ATOM      9  C   UNL     1      15.730  29.780  16.538  0.00  0.00    +0.057 C 
ATOM     10  C   UNL     1      16.844  28.755  16.467  0.00  0.00    -0.060 C 
ATOM     11  C   UNL     1      16.717  27.499  16.938  0.00  0.00    -0.064 C 
ATOM     12  C   UNL     1      15.468  27.009  17.514  0.00  0.00    -0.060 C 
ATOM     13  C   UNL     1      15.231  25.820  18.061  0.00  0.00    -0.041 C 
ATOM     14  C   UNL     1      16.335  24.873  18.055  0.00  0.00    +0.040 C 
ATOM     15  N   UNL     1      17.295  24.861  18.917  0.00  0.00    -0.273 NA
ATOM     16  C   UNL     1      17.500  25.920  19.940  0.00  0.00    +0.090 C 
ATOM     17  N   UNL     1      16.385  26.789  20.305  0.00  0.00    -0.293 N 
ATOM     18  C   UNL     1      16.747  28.092  20.915  0.00  0.00    +0.027 C 
ATOM     19  C   UNL     1      16.795  27.970  22.470  0.00  0.00    +0.030 C 
ATOM     20  N   UNL     1      15.670  27.235  23.069  0.00  0.00    -0.217 NA
ATOM     21 CL   UNL     1      14.169  28.157  23.165  0.00  0.00    -0.021 Cl
ATOM     22  C   UNL     1      16.010  26.570  24.339  0.00  0.00    +0.028 C 
ATOM     23  C   UNL     1      16.306  27.454  25.559  0.00  0.00    +0.037 C 
ATOM     24 CL   UNL     1      17.966  28.100  25.566  0.00  0.00    -0.124 Cl
ATOM     25  C   UNL     1      15.793  29.265  20.438  0.00  0.00    -0.018 C 
ATOM     26  C   UNL     1      16.130  29.766  19.043  0.00  0.00    -0.084 C 
ATOM     27  C   UNL     1      15.274  29.943  18.003  0.00  0.00    -0.064 C 
ATOM     28  H   UNL     1      13.664  29.414  15.962  0.00  0.00    +0.000 HD
ATOM     29  H   UNL     1      15.802  26.284  20.972  0.00  0.00    +0.000 HD
ATOM     30  H   UNL     1      15.916  27.017  19.429  0.00  0.00    +0.000 HD
ENDROOT
TORSDOF 0
ENDMDL
MODEL 6
REMARK VINA RESULT:    -3.167      3.170      5.364
REMARK INTER + INTRA:          -3.167
REMARK INTER:                  -3.167
REMARK INTRA:                   0.000
REMARK UNBOUND:                 0.000
REMARK  Name = /home/vital/Documents/PhD_2021/Malaria_codes/scripts/../data/pdbqt_ligands/ligand_273_temp.pdb
REMARK                            x       y       z     vdW  Elec       q    Type
REMARK                         _______ _______ _______ _____ _____    ______ ____
ROOT
ATOM      1  C   UNL     1      19.550  25.868  19.176  0.00  0.00    -0.057 C 
ATOM      2  C   UNL     1      19.267  25.858  17.675  0.00  0.00    +0.002 C 
ATOM      3  C   UNL     1      18.399  24.605  17.233  0.00  0.00    -0.026 C 
ATOM      4  C   UNL     1      17.007  24.441  17.837  0.00  0.00    -0.083 C 
ATOM      5  C   UNL     1      15.813  24.216  17.244  0.00  0.00    -0.065 C 
ATOM      6  C   UNL     1      15.509  23.869  15.867  0.00  0.00    -0.049 C 
ATOM      7  C   UNL     1      14.721  24.512  14.981  0.00  0.00    -0.010 C 
ATOM      8  N   UNL     1      14.145  25.796  15.000  0.00  0.00    -0.340 N 
ATOM      9  C   UNL     1      14.655  26.853  14.055  0.00  0.00    +0.057 C 
ATOM     10  C   UNL     1      16.153  26.657  13.933  0.00  0.00    -0.060 C 
ATOM     11  C   UNL     1      17.000  26.807  14.969  0.00  0.00    -0.064 C 
ATOM     12  C   UNL     1      16.532  27.124  16.315  0.00  0.00    -0.060 C 
ATOM     13  C   UNL     1      17.262  27.352  17.403  0.00  0.00    -0.041 C 
ATOM     14  C   UNL     1      18.703  27.236  17.252  0.00  0.00    +0.040 C 
ATOM     15  N   UNL     1      19.468  28.163  16.782  0.00  0.00    -0.273 NA
ATOM     16  C   UNL     1      18.962  29.420  16.171  0.00  0.00    +0.090 C 
ATOM     17  N   UNL     1      17.602  29.864  16.466  0.00  0.00    -0.293 N 
ATOM     18  C   UNL     1      16.993  30.794  15.485  0.00  0.00    +0.027 C 
ATOM     19  C   UNL     1      17.265  32.274  15.896  0.00  0.00    +0.030 C 
ATOM     20  N   UNL     1      17.058  32.570  17.323  0.00  0.00    -0.217 NA
ATOM     21 CL   UNL     1      15.366  32.727  17.794  0.00  0.00    -0.021 Cl
ATOM     22  C   UNL     1      17.893  33.677  17.822  0.00  0.00    +0.028 C 
ATOM     23  C   UNL     1      17.593  35.093  17.310  0.00  0.00    +0.037 C 
ATOM     24 CL   UNL     1      18.297  35.417  15.707  0.00  0.00    -0.124 Cl
ATOM     25  C   UNL     1      15.448  30.511  15.267  0.00  0.00    -0.018 C 
ATOM     26  C   UNL     1      15.191  29.313  14.368  0.00  0.00    -0.084 C 
ATOM     27  C   UNL     1      14.365  28.262  14.612  0.00  0.00    -0.064 C 
ATOM     28  H   UNL     1      13.414  26.003  15.627  0.00  0.00    +0.000 HD
ATOM     29  H   UNL     1      17.618  30.333  17.372  0.00  0.00    +0.000 HD
ATOM     30  H   UNL     1      17.027  29.022  16.441  0.00  0.00    +0.000 HD
ENDROOT
TORSDOF 0
ENDMDL
MODEL 7
REMARK VINA RESULT:    -3.059      2.995      5.091
REMARK INTER + INTRA:          -3.059
REMARK INTER:                  -3.059
REMARK INTRA:                   0.000
REMARK UNBOUND:                 0.000
REMARK  Name = /home/vital/Documents/PhD_2021/Malaria_codes/scripts/../data/pdbqt_ligands/ligand_273_temp.pdb
REMARK                            x       y       z     vdW  Elec       q    Type
REMARK                         _______ _______ _______ _____ _____    ______ ____
ROOT
ATOM      1  C   UNL     1      17.928  25.493  20.130  0.00  0.00    -0.057 C 
ATOM      2  C   UNL     1      18.207  25.584  18.631  0.00  0.00    +0.002 C 
ATOM      3  C   UNL     1      17.433  24.472  17.804  0.00  0.00    -0.026 C 
ATOM      4  C   UNL     1      15.909  24.461  17.860  0.00  0.00    -0.083 C 
ATOM      5  C   UNL     1      14.993  24.415  16.866  0.00  0.00    -0.065 C 
ATOM      6  C   UNL     1      15.174  24.169  15.445  0.00  0.00    -0.049 C 
ATOM      7  C   UNL     1      14.831  24.946  14.396  0.00  0.00    -0.010 C 
ATOM      8  N   UNL     1      14.424  26.290  14.321  0.00  0.00    -0.340 N 
ATOM      9  C   UNL     1      15.348  27.313  13.712  0.00  0.00    +0.057 C 
ATOM     10  C   UNL     1      16.760  26.933  14.112  0.00  0.00    -0.060 C 
ATOM     11  C   UNL     1      17.185  26.929  15.390  0.00  0.00    -0.064 C 
ATOM     12  C   UNL     1      16.297  27.246  16.504  0.00  0.00    -0.060 C 
ATOM     13  C   UNL     1      16.603  27.332  17.796  0.00  0.00    -0.041 C 
ATOM     14  C   UNL     1      17.982  27.039  18.155  0.00  0.00    +0.040 C 
ATOM     15  N   UNL     1      18.956  27.881  18.068  0.00  0.00    -0.273 NA
ATOM     16  C   UNL     1      18.839  29.217  17.427  0.00  0.00    +0.090 C 
ATOM     17  N   UNL     1      17.518  29.818  17.260  0.00  0.00    -0.293 N 
ATOM     18  C   UNL     1      17.405  30.859  16.210  0.00  0.00    +0.027 C 
ATOM     19  C   UNL     1      17.662  32.273  16.816  0.00  0.00    +0.030 C 
ATOM     20  N   UNL     1      16.984  32.532  18.097  0.00  0.00    -0.217 NA
ATOM     21 CL   UNL     1      15.262  32.883  17.950  0.00  0.00    -0.021 Cl
ATOM     22  C   UNL     1      17.692  33.500  18.952  0.00  0.00    +0.028 C 
ATOM     23  C   UNL     1      17.746  34.964  18.490  0.00  0.00    +0.037 C 
ATOM     24 CL   UNL     1      19.012  35.264  17.274  0.00  0.00    -0.124 Cl
ATOM     25  C   UNL     1      16.023  30.785  15.435  0.00  0.00    -0.018 C 
ATOM     26  C   UNL     1      15.987  29.669  14.404  0.00  0.00    -0.084 C 
ATOM     27  C   UNL     1      15.024  28.723  14.249  0.00  0.00    -0.064 C 
ATOM     28  H   UNL     1      13.542  26.561  14.663  0.00  0.00    +0.000 HD
ATOM     29  H   UNL     1      17.253  30.241  18.149  0.00  0.00    +0.000 HD
ATOM     30  H   UNL     1      16.907  29.058  16.960  0.00  0.00    +0.000 HD
ENDROOT
TORSDOF 0
ENDMDL
MODEL 8
REMARK VINA RESULT:    -2.963      3.664      6.201
REMARK INTER + INTRA:          -2.963
REMARK INTER:                  -2.963
REMARK INTRA:                   0.000
REMARK UNBOUND:                 0.000
REMARK  Name = /home/vital/Documents/PhD_2021/Malaria_codes/scripts/../data/pdbqt_ligands/ligand_273_temp.pdb
REMARK                            x       y       z     vdW  Elec       q    Type
REMARK                         _______ _______ _______ _____ _____    ______ ____
ROOT
ATOM      1  C   UNL     1      20.572  27.223  17.842  0.00  0.00    -0.057 C 
ATOM      2  C   UNL     1      19.802  26.696  16.632  0.00  0.00    +0.002 C 
ATOM      3  C   UNL     1      19.008  25.361  16.957  0.00  0.00    -0.026 C 
ATOM      4  C   UNL     1      17.937  25.403  18.042  0.00  0.00    -0.083 C 
ATOM      5  C   UNL     1      16.653  24.979  18.027  0.00  0.00    -0.065 C 
ATOM      6  C   UNL     1      15.949  24.178  17.040  0.00  0.00    -0.049 C 
ATOM      7  C   UNL     1      14.831  24.473  16.345  0.00  0.00    -0.010 C 
ATOM      8  N   UNL     1      14.132  25.681  16.164  0.00  0.00    -0.340 N 
ATOM      9  C   UNL     1      14.150  26.353  14.816  0.00  0.00    +0.057 C 
ATOM     10  C   UNL     1      15.530  26.139  14.228  0.00  0.00    -0.060 C 
ATOM     11  C   UNL     1      16.651  26.642  14.782  0.00  0.00    -0.064 C 
ATOM     12  C   UNL     1      16.627  27.398  16.031  0.00  0.00    -0.060 C 
ATOM     13  C   UNL     1      17.645  27.991  16.647  0.00  0.00    -0.041 C 
ATOM     14  C   UNL     1      18.953  27.841  16.029  0.00  0.00    +0.040 C 
ATOM     15  N   UNL     1      19.385  28.557  15.046  0.00  0.00    -0.273 NA
ATOM     16  C   UNL     1      18.542  29.524  14.295  0.00  0.00    +0.090 C 
ATOM     17  N   UNL     1      17.317  30.032  14.906  0.00  0.00    -0.293 N 
ATOM     18  C   UNL     1      16.295  30.564  13.973  0.00  0.00    +0.027 C 
ATOM     19  C   UNL     1      16.494  32.098  13.765  0.00  0.00    +0.030 C 
ATOM     20  N   UNL     1      16.745  32.863  14.997  0.00  0.00    -0.217 NA
ATOM     21 CL   UNL     1      15.306  33.159  15.974  0.00  0.00    -0.021 Cl
ATOM     22  C   UNL     1      17.546  34.080  14.781  0.00  0.00    +0.028 C 
ATOM     23  C   UNL     1      16.908  35.233  13.992  0.00  0.00    +0.037 C 
ATOM     24 CL   UNL     1      16.979  34.993  12.229  0.00  0.00    -0.124 Cl
ATOM     25  C   UNL     1      14.819  30.211  14.431  0.00  0.00    -0.018 C 
ATOM     26  C   UNL     1      14.433  28.776  14.116  0.00  0.00    -0.084 C 
ATOM     27  C   UNL     1      13.883  27.866  14.963  0.00  0.00    -0.064 C 
ATOM     28  H   UNL     1      13.637  26.084  16.913  0.00  0.00    +0.000 HD
ATOM     29  H   UNL     1      17.576  30.783  15.546  0.00  0.00    +0.000 HD
ATOM     30  H   UNL     1      16.883  29.228  15.360  0.00  0.00    +0.000 HD
ENDROOT
TORSDOF 0
ENDMDL
MODEL 9
REMARK VINA RESULT:    -2.936      2.836      4.384
REMARK INTER + INTRA:          -2.936
REMARK INTER:                  -2.936
REMARK INTRA:                   0.000
REMARK UNBOUND:                 0.000
REMARK  Name = /home/vital/Documents/PhD_2021/Malaria_codes/scripts/../data/pdbqt_ligands/ligand_273_temp.pdb
REMARK                            x       y       z     vdW  Elec       q    Type
REMARK                         _______ _______ _______ _____ _____    ______ ____
ROOT
ATOM      1  C   UNL     1      16.972  32.523  18.366  0.00  0.00    -0.057 C 
ATOM      2  C   UNL     1      15.878  31.686  17.706  0.00  0.00    +0.002 C 
ATOM      3  C   UNL     1      15.601  32.129  16.207  0.00  0.00    -0.026 C 
ATOM      4  C   UNL     1      16.746  32.034  15.203  0.00  0.00    -0.083 C 
ATOM      5  C   UNL     1      16.793  31.472  13.974  0.00  0.00    -0.065 C 
ATOM      6  C   UNL     1      15.718  30.954  13.147  0.00  0.00    -0.049 C 
ATOM      7  C   UNL     1      15.561  29.717  12.631  0.00  0.00    -0.010 C 
ATOM      8  N   UNL     1      16.220  28.502  12.896  0.00  0.00    -0.340 N 
ATOM      9  C   UNL     1      15.482  27.397  13.606  0.00  0.00    +0.057 C 
ATOM     10  C   UNL     1      14.579  28.051  14.633  0.00  0.00    -0.060 C 
ATOM     11  C   UNL     1      15.049  28.761  15.678  0.00  0.00    -0.064 C 
ATOM     12  C   UNL     1      16.476  28.998  15.875  0.00  0.00    -0.060 C 
ATOM     13  C   UNL     1      17.068  29.628  16.886  0.00  0.00    -0.041 C 
ATOM     14  C   UNL     1      16.192  30.184  17.905  0.00  0.00    +0.040 C 
ATOM     15  N   UNL     1      15.681  29.509  18.879  0.00  0.00    -0.273 NA
ATOM     16  C   UNL     1      15.779  28.032  19.003  0.00  0.00    +0.090 C 
ATOM     17  N   UNL     1      16.824  27.319  18.271  0.00  0.00    -0.293 N 
ATOM     18  C   UNL     1      16.579  25.878  18.025  0.00  0.00    +0.027 C 
ATOM     19  C   UNL     1      17.190  25.018  19.175  0.00  0.00    +0.030 C 
ATOM     20  N   UNL     1      18.547  25.411  19.589  0.00  0.00    -0.217 NA
ATOM     21 CL   UNL     1      19.822  24.886  18.489  0.00  0.00    -0.021 Cl
ATOM     22  C   UNL     1      18.847  25.099  20.997  0.00  0.00    +0.028 C 
ATOM     23  C   UNL     1      18.968  23.621  21.398  0.00  0.00    +0.037 C 
ATOM     24 CL   UNL     1      17.389  22.841  21.664  0.00  0.00    -0.124 Cl
ATOM     25  C   UNL     1      17.093  25.415  16.598  0.00  0.00    -0.018 C 
ATOM     26  C   UNL     1      16.151  25.818  15.476  0.00  0.00    -0.084 C 
ATOM     27  C   UNL     1      16.473  26.455  14.320  0.00  0.00    -0.064 C 
ATOM     28  H   UNL     1      17.156  28.375  12.620  0.00  0.00    +0.000 HD
ATOM     29  H   UNL     1      17.689  27.403  18.804  0.00  0.00    +0.000 HD
ATOM     30  H   UNL     1      16.857  27.753  17.349  0.00  0.00    +0.000 HD
ENDROOT
TORSDOF 0
ENDMDL
