MODEL 1
REMARK VINA RESULT:    -4.361      0.000      0.000
REMARK INTER + INTRA:          -4.361
REMARK INTER:                  -4.361
REMARK INTRA:                   0.000
REMARK UNBOUND:                 0.000
REMARK  Name = /home/vital/Documents/PhD_2021/Malaria_codes/scripts/../data/pdbqt_ligands/ligand_258_temp.pdb
REMARK                            x       y       z     vdW  Elec       q    Type
REMARK                         _______ _______ _______ _____ _____    ______ ____
ROOT
ATOM      1  C1  UNL     1      21.099  27.441  13.620  0.00  0.00    -0.060 C 
ATOM      2  C2  UNL     1      19.586  27.677  13.736  0.00  0.00    -0.013 C 
ATOM      3  C3  UNL     1      19.133  28.847  12.853  0.00  0.00    +0.027 C 
ATOM      4 CL1  UNL     1      19.940  30.391  13.233  0.00  0.00    -0.125 Cl
ATOM      5  C4  UNL     1      19.193  27.827  15.217  0.00  0.00    +0.035 C 
ATOM      6  N1  UNL     1      17.778  27.559  15.491  0.00  0.00    -0.231 N 
ATOM      7  C5  UNL     1      16.852  28.581  15.620  0.00  0.00    +0.099 C 
ATOM      8  N2  UNL     1      16.954  29.776  15.133  0.00  0.00    -0.247 NA
ATOM      9  C6  UNL     1      15.820  30.551  15.135  0.00  0.00    +0.029 C 
ATOM     10  C7  UNL     1      14.651  30.261  14.526  0.00  0.00    -0.044 C 
ATOM     11  C8  UNL     1      14.362  28.980  13.911  0.00  0.00    -0.060 C 
ATOM     12  C9  UNL     1      13.816  28.002  14.648  0.00  0.00    -0.060 C 
ATOM     13  C10 UNL     1      13.797  26.583  14.378  0.00  0.00    -0.044 C 
ATOM     14  C11 UNL     1      14.883  25.784  14.257  0.00  0.00    +0.022 C 
ATOM     15  C12 UNL     1      16.321  26.284  14.027  0.00  0.00    +0.082 C 
ATOM     16  N3  UNL     1      17.265  26.261  15.179  0.00  0.00    -0.098 NA
ATOM     17  O1  UNL     1      16.641  25.605  16.316  0.00  0.00    -0.277 OA
ATOM     18  C13 UNL     1      16.631  24.191  16.071  0.00  0.00    +0.087 C 
ATOM     19  C14 UNL     1      15.228  23.754  15.634  0.00  0.00    +0.034 C 
ATOM     20  N4  UNL     1      14.760  24.384  14.375  0.00  0.00    -0.344 N 
ATOM     21  H   UNL     1      14.376  23.843  13.647  0.00  0.00    +0.000 HD
ENDROOT
TORSDOF 0
ENDMDL
MODEL 2
REMARK VINA RESULT:    -4.201      1.327      1.565
REMARK INTER + INTRA:          -4.201
REMARK INTER:                  -4.201
REMARK INTRA:                   0.000
REMARK UNBOUND:                 0.000
REMARK  Name = /home/vital/Documents/PhD_2021/Malaria_codes/scripts/../data/pdbqt_ligands/ligand_258_temp.pdb
REMARK                            x       y       z     vdW  Elec       q    Type
REMARK                         _______ _______ _______ _____ _____    ______ ____
ROOT
ATOM      1  C1  UNL     1      20.882  28.066  15.439  0.00  0.00    -0.060 C 
ATOM      2  C2  UNL     1      19.376  27.829  15.256  0.00  0.00    -0.013 C 
ATOM      3  C3  UNL     1      18.816  28.660  14.093  0.00  0.00    +0.027 C 
ATOM      4 CL1  UNL     1      19.056  30.416  14.282  0.00  0.00    -0.125 Cl
ATOM      5  C4  UNL     1      18.645  28.058  16.592  0.00  0.00    +0.035 C 
ATOM      6  N1  UNL     1      17.337  27.401  16.680  0.00  0.00    -0.231 N 
ATOM      7  C5  UNL     1      16.158  28.088  16.448  0.00  0.00    +0.099 C 
ATOM      8  N2  UNL     1      16.024  29.173  15.753  0.00  0.00    -0.247 NA
ATOM      9  C6  UNL     1      14.746  29.545  15.413  0.00  0.00    +0.029 C 
ATOM     10  C7  UNL     1      13.865  28.819  14.692  0.00  0.00    -0.044 C 
ATOM     11  C8  UNL     1      14.087  27.438  14.310  0.00  0.00    -0.060 C 
ATOM     12  C9  UNL     1      13.690  26.454  15.129  0.00  0.00    -0.060 C 
ATOM     13  C10 UNL     1      14.128  25.077  15.151  0.00  0.00    -0.044 C 
ATOM     14  C11 UNL     1      15.393  24.651  15.372  0.00  0.00    +0.022 C 
ATOM     15  C12 UNL     1      16.648  25.539  15.284  0.00  0.00    +0.082 C 
ATOM     16  N3  UNL     1      17.288  25.978  16.555  0.00  0.00    -0.098 NA
ATOM     17  O1  UNL     1      16.642  25.328  17.684  0.00  0.00    -0.277 OA
ATOM     18  C13 UNL     1      17.081  23.962  17.731  0.00  0.00    +0.087 C 
ATOM     19  C14 UNL     1      15.986  23.050  17.168  0.00  0.00    +0.034 C 
ATOM     20  N4  UNL     1      15.644  23.315  15.748  0.00  0.00    -0.344 N 
ATOM     21  H   UNL     1      15.594  22.583  15.091  0.00  0.00    +0.000 HD
ENDROOT
TORSDOF 0
ENDMDL
MODEL 3
REMARK VINA RESULT:    -3.989      2.840      4.666
REMARK INTER + INTRA:          -3.989
REMARK INTER:                  -3.989
REMARK INTRA:                   0.000
REMARK UNBOUND:                 0.000
REMARK  Name = /home/vital/Documents/PhD_2021/Malaria_codes/scripts/../data/pdbqt_ligands/ligand_258_temp.pdb
REMARK                            x       y       z     vdW  Elec       q    Type
REMARK                         _______ _______ _______ _____ _____    ______ ____
ROOT
ATOM      1  C1  UNL     1      16.749  31.320  14.449  0.00  0.00    -0.060 C 
ATOM      2  C2  UNL     1      16.477  29.870  14.876  0.00  0.00    -0.013 C 
ATOM      3  C3  UNL     1      16.775  28.886  13.736  0.00  0.00    +0.027 C 
ATOM      4 CL1  UNL     1      15.828  29.188  12.257  0.00  0.00    -0.125 Cl
ATOM      5  C4  UNL     1      15.050  29.750  15.443  0.00  0.00    +0.035 C 
ATOM      6  N1  UNL     1      14.848  28.591  16.316  0.00  0.00    -0.231 N 
ATOM      7  C5  UNL     1      14.265  27.422  15.855  0.00  0.00    +0.099 C 
ATOM      8  N2  UNL     1      14.218  27.019  14.626  0.00  0.00    -0.247 NA
ATOM      9  C6  UNL     1      13.845  25.715  14.408  0.00  0.00    +0.029 C 
ATOM     10  C7  UNL     1      14.465  24.615  14.881  0.00  0.00    -0.044 C 
ATOM     11  C8  UNL     1      15.541  24.655  15.853  0.00  0.00    -0.060 C 
ATOM     12  C9  UNL     1      15.251  24.625  17.162  0.00  0.00    -0.060 C 
ATOM     13  C10 UNL     1      16.083  25.029  18.272  0.00  0.00    -0.044 C 
ATOM     14  C11 UNL     1      16.573  26.272  18.485  0.00  0.00    +0.022 C 
ATOM     15  C12 UNL     1      16.640  27.384  17.422  0.00  0.00    +0.082 C 
ATOM     16  N3  UNL     1      15.645  28.490  17.498  0.00  0.00    -0.098 NA
ATOM     17  O1  UNL     1      14.854  28.360  18.711  0.00  0.00    -0.277 OA
ATOM     18  C13 UNL     1      15.662  28.775  19.823  0.00  0.00    +0.087 C 
ATOM     19  C14 UNL     1      16.176  27.542  20.575  0.00  0.00    +0.034 C 
ATOM     20  N4  UNL     1      17.039  26.650  19.761  0.00  0.00    -0.344 N 
ATOM     21  H   UNL     1      17.907  26.333  20.101  0.00  0.00    +0.000 HD
ENDROOT
TORSDOF 0
ENDMDL
MODEL 4
REMARK VINA RESULT:    -3.801      2.304      3.241
REMARK INTER + INTRA:          -3.801
REMARK INTER:                  -3.801
REMARK INTRA:                   0.000
REMARK UNBOUND:                 0.000
REMARK  Name = /home/vital/Documents/PhD_2021/Malaria_codes/scripts/../data/pdbqt_ligands/ligand_258_temp.pdb
REMARK                            x       y       z     vdW  Elec       q    Type
REMARK                         _______ _______ _______ _____ _____    ______ ____
ROOT
ATOM      1  C1  UNL     1      19.196  30.323  16.821  0.00  0.00    -0.060 C 
ATOM      2  C2  UNL     1      18.233  29.223  16.351  0.00  0.00    -0.013 C 
ATOM      3  C3  UNL     1      17.801  29.442  14.895  0.00  0.00    +0.027 C 
ATOM      4 CL1  UNL     1      16.996  31.007  14.610  0.00  0.00    -0.125 Cl
ATOM      5  C4  UNL     1      17.056  29.103  17.338  0.00  0.00    +0.035 C 
ATOM      6  N1  UNL     1      16.365  27.811  17.290  0.00  0.00    -0.231 N 
ATOM      7  C5  UNL     1      15.187  27.639  16.583  0.00  0.00    +0.099 C 
ATOM      8  N2  UNL     1      14.775  28.359  15.589  0.00  0.00    -0.247 NA
ATOM      9  C6  UNL     1      13.726  27.865  14.851  0.00  0.00    +0.029 C 
ATOM     10  C7  UNL     1      13.698  26.693  14.183  0.00  0.00    -0.044 C 
ATOM     11  C8  UNL     1      14.733  25.683  14.292  0.00  0.00    -0.060 C 
ATOM     12  C9  UNL     1      14.640  24.741  15.240  0.00  0.00    -0.060 C 
ATOM     13  C10 UNL     1      15.688  23.902  15.775  0.00  0.00    -0.044 C 
ATOM     14  C11 UNL     1      16.799  24.332  16.416  0.00  0.00    +0.022 C 
ATOM     15  C12 UNL     1      17.329  25.778  16.382  0.00  0.00    +0.082 C 
ATOM     16  N3  UNL     1      17.118  26.632  17.583  0.00  0.00    -0.098 NA
ATOM     17  O1  UNL     1      16.543  25.840  18.658  0.00  0.00    -0.277 OA
ATOM     18  C13 UNL     1      17.577  25.013  19.212  0.00  0.00    +0.087 C 
ATOM     19  C14 UNL     1      17.424  23.579  18.692  0.00  0.00    +0.034 C 
ATOM     20  N4  UNL     1      17.551  23.450  17.219  0.00  0.00    -0.344 N 
ATOM     21  H   UNL     1      18.140  22.771  16.816  0.00  0.00    +0.000 HD
ENDROOT
TORSDOF 0
ENDMDL
MODEL 5
REMARK VINA RESULT:    -3.763      2.924      5.006
REMARK INTER + INTRA:          -3.763
REMARK INTER:                  -3.763
REMARK INTRA:                   0.000
REMARK UNBOUND:                 0.000
REMARK  Name = /home/vital/Documents/PhD_2021/Malaria_codes/scripts/../data/pdbqt_ligands/ligand_258_temp.pdb
REMARK                            x       y       z     vdW  Elec       q    Type
REMARK                         _______ _______ _______ _____ _____    ______ ____
ROOT
ATOM      1  C1  UNL     1      15.671  23.847  17.201  0.00  0.00    -0.060 C 
ATOM      2  C2  UNL     1      15.535  25.285  16.681  0.00  0.00    -0.013 C 
ATOM      3  C3  UNL     1      14.378  25.410  15.680  0.00  0.00    +0.027 C 
ATOM      4 CL1  UNL     1      14.537  24.346  14.258  0.00  0.00    -0.125 Cl
ATOM      5  C4  UNL     1      16.888  25.773  16.131  0.00  0.00    +0.035 C 
ATOM      6  N1  UNL     1      17.021  27.231  16.075  0.00  0.00    -0.231 N 
ATOM      7  C5  UNL     1      16.814  27.939  14.903  0.00  0.00    +0.099 C 
ATOM      8  N2  UNL     1      16.110  27.554  13.887  0.00  0.00    -0.247 NA
ATOM      9  C6  UNL     1      15.803  28.504  12.943  0.00  0.00    +0.029 C 
ATOM     10  C7  UNL     1      15.116  29.647  13.151  0.00  0.00    -0.044 C 
ATOM     11  C8  UNL     1      14.745  30.132  14.466  0.00  0.00    -0.060 C 
ATOM     12  C9  UNL     1      15.587  30.929  15.139  0.00  0.00    -0.060 C 
ATOM     13  C10 UNL     1      15.614  31.209  16.556  0.00  0.00    -0.044 C 
ATOM     14  C11 UNL     1      15.804  30.301  17.541  0.00  0.00    +0.022 C 
ATOM     15  C12 UNL     1      15.670  28.777  17.369  0.00  0.00    +0.082 C 
ATOM     16  N3  UNL     1      16.916  27.965  17.297  0.00  0.00    -0.098 NA
ATOM     17  O1  UNL     1      18.071  28.810  17.557  0.00  0.00    -0.277 OA
ATOM     18  C13 UNL     1      18.122  29.083  18.965  0.00  0.00    +0.087 C 
ATOM     19  C14 UNL     1      17.602  30.500  19.234  0.00  0.00    +0.034 C 
ATOM     20  N4  UNL     1      16.190  30.715  18.833  0.00  0.00    -0.344 N 
ATOM     21  H   UNL     1      15.544  31.132  19.448  0.00  0.00    +0.000 HD
ENDROOT
TORSDOF 0
ENDMDL
MODEL 6
REMARK VINA RESULT:    -3.745      2.849      4.901
REMARK INTER + INTRA:          -3.745
REMARK INTER:                  -3.745
REMARK INTRA:                   0.000
REMARK UNBOUND:                 0.000
REMARK  Name = /home/vital/Documents/PhD_2021/Malaria_codes/scripts/../data/pdbqt_ligands/ligand_258_temp.pdb
REMARK                            x       y       z     vdW  Elec       q    Type
REMARK                         _______ _______ _______ _____ _____    ______ ____
ROOT
ATOM      1  C1  UNL     1      19.417  26.588  19.164  0.00  0.00    -0.060 C 
ATOM      2  C2  UNL     1      18.204  26.754  18.238  0.00  0.00    -0.013 C 
ATOM      3  C3  UNL     1      16.946  26.116  18.844  0.00  0.00    +0.027 C 
ATOM      4 CL1  UNL     1      17.115  24.375  19.187  0.00  0.00    -0.125 Cl
ATOM      5  C4  UNL     1      18.546  26.236  16.829  0.00  0.00    +0.035 C 
ATOM      6  N1  UNL     1      17.692  26.777  15.768  0.00  0.00    -0.231 N 
ATOM      7  C5  UNL     1      16.615  26.068  15.263  0.00  0.00    +0.099 C 
ATOM      8  N2  UNL     1      15.967  25.124  15.866  0.00  0.00    -0.247 NA
ATOM      9  C6  UNL     1      14.769  24.737  15.316  0.00  0.00    +0.029 C 
ATOM     10  C7  UNL     1      13.692  25.523  15.109  0.00  0.00    -0.044 C 
ATOM     11  C8  UNL     1      13.703  26.963  15.285  0.00  0.00    -0.060 C 
ATOM     12  C9  UNL     1      14.037  27.751  14.254  0.00  0.00    -0.060 C 
ATOM     13  C10 UNL     1      14.480  29.126  14.286  0.00  0.00    -0.044 C 
ATOM     14  C11 UNL     1      15.592  29.587  14.902  0.00  0.00    +0.022 C 
ATOM     15  C12 UNL     1      16.389  28.815  15.970  0.00  0.00    +0.082 C 
ATOM     16  N3  UNL     1      17.682  28.193  15.568  0.00  0.00    -0.098 NA
ATOM     17  O1  UNL     1      18.014  28.580  14.207  0.00  0.00    -0.277 OA
ATOM     18  C13 UNL     1      18.474  29.940  14.224  0.00  0.00    +0.087 C 
ATOM     19  C14 UNL     1      17.358  30.866  13.726  0.00  0.00    +0.034 C 
ATOM     20  N4  UNL     1      16.132  30.845  14.561  0.00  0.00    -0.344 N 
ATOM     21  H   UNL     1      15.710  31.680  14.867  0.00  0.00    +0.000 HD
ENDROOT
TORSDOF 0
ENDMDL
MODEL 7
REMARK VINA RESULT:    -3.704      2.603      3.713
REMARK INTER + INTRA:          -3.704
REMARK INTER:                  -3.704
REMARK INTRA:                   0.000
REMARK UNBOUND:                 0.000
REMARK  Name = /home/vital/Documents/PhD_2021/Malaria_codes/scripts/../data/pdbqt_ligands/ligand_258_temp.pdb
REMARK                            x       y       z     vdW  Elec       q    Type
REMARK                         _______ _______ _______ _____ _____    ______ ____
ROOT
ATOM      1  C1  UNL     1      15.613  31.301  12.220  0.00  0.00    -0.060 C 
ATOM      2  C2  UNL     1      15.404  30.710  13.622  0.00  0.00    -0.013 C 
ATOM      3  C3  UNL     1      14.855  31.761  14.596  0.00  0.00    +0.027 C 
ATOM      4 CL1  UNL     1      15.902  33.192  14.777  0.00  0.00    -0.125 Cl
ATOM      5  C4  UNL     1      16.701  30.034  14.103  0.00  0.00    +0.035 C 
ATOM      6  N1  UNL     1      16.500  29.034  15.156  0.00  0.00    -0.231 N 
ATOM      7  C5  UNL     1      16.705  29.330  16.493  0.00  0.00    +0.099 C 
ATOM      8  N2  UNL     1      16.669  30.505  17.035  0.00  0.00    -0.247 NA
ATOM      9  C6  UNL     1      16.624  30.561  18.407  0.00  0.00    +0.029 C 
ATOM     10  C7  UNL     1      15.675  30.023  19.200  0.00  0.00    -0.044 C 
ATOM     11  C8  UNL     1      14.631  29.139  18.717  0.00  0.00    -0.060 C 
ATOM     12  C9  UNL     1      14.850  27.817  18.677  0.00  0.00    -0.060 C 
ATOM     13  C10 UNL     1      14.147  26.816  17.909  0.00  0.00    -0.044 C 
ATOM     14  C11 UNL     1      14.062  26.767  16.559  0.00  0.00    +0.022 C 
ATOM     15  C12 UNL     1      14.383  27.941  15.615  0.00  0.00    +0.082 C 
ATOM     16  N3  UNL     1      15.670  27.908  14.866  0.00  0.00    -0.098 NA
ATOM     17  O1  UNL     1      16.336  26.634  15.086  0.00  0.00    -0.277 OA
ATOM     18  C13 UNL     1      15.659  25.631  14.314  0.00  0.00    +0.087 C 
ATOM     19  C14 UNL     1      14.760  24.795  15.231  0.00  0.00    +0.034 C 
ATOM     20  N4  UNL     1      13.692  25.573  15.907  0.00  0.00    -0.344 N 
ATOM     21  H   UNL     1      12.756  25.265  15.900  0.00  0.00    +0.000 HD
ENDROOT
TORSDOF 0
ENDMDL
MODEL 8
REMARK VINA RESULT:    -3.599      2.549      4.394
REMARK INTER + INTRA:          -3.599
REMARK INTER:                  -3.599
REMARK INTRA:                   0.000
REMARK UNBOUND:                 0.000
REMARK  Name = /home/vital/Documents/PhD_2021/Malaria_codes/scripts/../data/pdbqt_ligands/ligand_258_temp.pdb
REMARK                            x       y       z     vdW  Elec       q    Type
REMARK                         _______ _______ _______ _____ _____    ______ ____
ROOT
ATOM      1  C1  UNL     1      20.684  28.361  17.329  0.00  0.00    -0.060 C 
ATOM      2  C2  UNL     1      19.205  28.029  17.087  0.00  0.00    -0.013 C 
ATOM      3  C3  UNL     1      18.512  27.584  18.382  0.00  0.00    +0.027 C 
ATOM      4 CL1  UNL     1      19.257  26.155  19.144  0.00  0.00    -0.125 Cl
ATOM      5  C4  UNL     1      19.078  27.015  15.934  0.00  0.00    +0.035 C 
ATOM      6  N1  UNL     1      17.761  27.000  15.291  0.00  0.00    -0.231 N 
ATOM      7  C5  UNL     1      16.801  26.055  15.612  0.00  0.00    +0.099 C 
ATOM      8  N2  UNL     1      16.723  25.384  16.717  0.00  0.00    -0.247 NA
ATOM      9  C6  UNL     1      15.553  24.704  16.954  0.00  0.00    +0.029 C 
ATOM     10  C7  UNL     1      14.318  25.239  17.039  0.00  0.00    -0.044 C 
ATOM     11  C8  UNL     1      14.018  26.621  16.715  0.00  0.00    -0.060 C 
ATOM     12  C9  UNL     1      13.690  26.948  15.457  0.00  0.00    -0.060 C 
ATOM     13  C10 UNL     1      13.728  28.250  14.832  0.00  0.00    -0.044 C 
ATOM     14  C11 UNL     1      14.830  29.018  14.666  0.00  0.00    +0.022 C 
ATOM     15  C12 UNL     1      16.161  28.820  15.415  0.00  0.00    +0.082 C 
ATOM     16  N3  UNL     1      17.299  28.205  14.677  0.00  0.00    -0.098 NA
ATOM     17  O1  UNL     1      16.943  28.033  13.278  0.00  0.00    -0.277 OA
ATOM     18  C13 UNL     1      16.994  29.317  12.638  0.00  0.00    +0.087 C 
ATOM     19  C14 UNL     1      15.572  29.859  12.456  0.00  0.00    +0.034 C 
ATOM     20  N4  UNL     1      14.835  30.071  13.727  0.00  0.00    -0.344 N 
ATOM     21  H   UNL     1      14.367  30.918  13.909  0.00  0.00    +0.000 HD
ENDROOT
TORSDOF 0
ENDMDL
