MODEL 1
REMARK VINA RESULT:    -4.001      0.000      0.000
REMARK INTER + INTRA:          -4.001
REMARK INTER:                  -4.001
REMARK INTRA:                   0.000
REMARK UNBOUND:                 0.000
REMARK  Name = /home/vital/Documents/PhD_2021/Malaria_codes/scripts/../data/pdbqt_ligands/ligand_139_temp.pdb
REMARK                            x       y       z     vdW  Elec       q    Type
REMARK                         _______ _______ _______ _____ _____    ______ ____
ROOT
ATOM      1  C1  UNL     1      25.106  43.123  17.502  0.00  0.00    -0.031 C 
ATOM      2  C2  UNL     1      25.930  44.359  17.569  0.00  0.00    +0.016 A 
ATOM      3  S1  UNL     1      27.637  44.263  17.684  0.00  0.00    -0.057 S 
ATOM      4  C3  UNL     1      27.756  45.985  17.651  0.00  0.00    +0.163 A 
ATOM      5  N1  UNL     1      28.909  46.687  17.755  0.00  0.00    -0.294 N 
ATOM      6  C4  UNL     1      30.201  46.401  17.274  0.00  0.00    +0.033 A 
ATOM      7  C5  UNL     1      30.482  45.440  16.297  0.00  0.00    -0.040 A 
ATOM      8  C6  UNL     1      31.797  45.183  15.899  0.00  0.00    -0.060 A 
ATOM      9  C7  UNL     1      32.856  45.880  16.476  0.00  0.00    -0.059 A 
ATOM     10  C8  UNL     1      32.607  46.852  17.448  0.00  0.00    -0.049 A 
ATOM     11  C9  UNL     1      33.741  47.580  18.105  0.00  0.00    -0.040 C 
ATOM     12  C10 UNL     1      31.284  47.092  17.847  0.00  0.00    -0.038 A 
ATOM     13  N2  UNL     1      26.594  46.599  17.622  0.00  0.00    -0.224 NA
ATOM     14  C11 UNL     1      25.554  45.690  17.568  0.00  0.00    +0.083 A 
ATOM     15  C12 UNL     1      24.172  46.144  17.506  0.00  0.00    +0.004 A 
ATOM     16  C13 UNL     1      23.311  45.846  18.577  0.00  0.00    -0.049 A 
ATOM     17  C14 UNL     1      21.973  46.258  18.563  0.00  0.00    -0.050 A 
ATOM     18  C15 UNL     1      21.075  45.963  19.728  0.00  0.00    -0.040 C 
ATOM     19  C16 UNL     1      21.506  47.004  17.479  0.00  0.00    -0.059 A 
ATOM     20  C17 UNL     1      22.356  47.314  16.414  0.00  0.00    -0.058 A 
ATOM     21  C18 UNL     1      23.692  46.885  16.410  0.00  0.00    -0.041 A 
ATOM     22  C19 UNL     1      24.578  47.257  15.252  0.00  0.00    -0.039 C 
ATOM     23  H   UNL     1      28.831  47.536  18.249  0.00  0.00    +0.000 HD
ENDROOT
TORSDOF 0
ENDMDL
MODEL 2
REMARK VINA RESULT:    -3.932      5.819     10.348
REMARK INTER + INTRA:          -3.932
REMARK INTER:                  -3.932
REMARK INTRA:                   0.000
REMARK UNBOUND:                 0.000
REMARK  Name = /home/vital/Documents/PhD_2021/Malaria_codes/scripts/../data/pdbqt_ligands/ligand_139_temp.pdb
REMARK                            x       y       z     vdW  Elec       q    Type
REMARK                         _______ _______ _______ _____ _____    ______ ____
ROOT
ATOM      1  C1  UNL     1      21.157  44.548  19.300  0.00  0.00    -0.031 C 
ATOM      2  C2  UNL     1      20.944  43.998  17.934  0.00  0.00    +0.016 A 
ATOM      3  S1  UNL     1      19.712  42.844  17.642  0.00  0.00    -0.057 S 
ATOM      4  C3  UNL     1      20.107  42.818  15.962  0.00  0.00    +0.163 A 
ATOM      5  N1  UNL     1      19.515  42.027  15.036  0.00  0.00    -0.294 N 
ATOM      6  C4  UNL     1      18.180  41.595  14.921  0.00  0.00    +0.033 A 
ATOM      7  C5  UNL     1      17.104  42.171  15.605  0.00  0.00    -0.040 A 
ATOM      8  C6  UNL     1      15.810  41.660  15.472  0.00  0.00    -0.060 A 
ATOM      9  C7  UNL     1      15.569  40.558  14.654  0.00  0.00    -0.059 A 
ATOM     10  C8  UNL     1      16.622  39.966  13.951  0.00  0.00    -0.049 A 
ATOM     11  C9  UNL     1      16.382  38.755  13.100  0.00  0.00    -0.040 C 
ATOM     12  C10 UNL     1      17.917  40.481  14.104  0.00  0.00    -0.038 A 
ATOM     13  N2  UNL     1      21.135  43.572  15.644  0.00  0.00    -0.224 NA
ATOM     14  C11 UNL     1      21.613  44.251  16.750  0.00  0.00    +0.083 A 
ATOM     15  C12 UNL     1      22.739  45.165  16.632  0.00  0.00    +0.004 A 
ATOM     16  C13 UNL     1      23.935  44.861  17.305  0.00  0.00    -0.049 A 
ATOM     17  C14 UNL     1      25.046  45.710  17.225  0.00  0.00    -0.050 A 
ATOM     18  C15 UNL     1      26.326  45.354  17.920  0.00  0.00    -0.040 C 
ATOM     19  C16 UNL     1      24.962  46.859  16.435  0.00  0.00    -0.059 A 
ATOM     20  C17 UNL     1      23.782  47.166  15.754  0.00  0.00    -0.058 A 
ATOM     21  C18 UNL     1      22.657  46.332  15.848  0.00  0.00    -0.041 A 
ATOM     22  C19 UNL     1      21.412  46.691  15.083  0.00  0.00    -0.039 C 
ATOM     23  H   UNL     1      20.117  41.701  14.327  0.00  0.00    +0.000 HD
ENDROOT
TORSDOF 0
ENDMDL
MODEL 3
REMARK VINA RESULT:    -3.683      2.316      8.382
REMARK INTER + INTRA:          -3.683
REMARK INTER:                  -3.683
REMARK INTRA:                   0.000
REMARK UNBOUND:                 0.000
REMARK  Name = /home/vital/Documents/PhD_2021/Malaria_codes/scripts/../data/pdbqt_ligands/ligand_139_temp.pdb
REMARK                            x       y       z     vdW  Elec       q    Type
REMARK                         _______ _______ _______ _____ _____    ______ ____
ROOT
ATOM      1  C1  UNL     1      30.487  46.070  18.625  0.00  0.00    -0.031 C 
ATOM      2  C2  UNL     1      29.581  45.525  17.578  0.00  0.00    +0.016 A 
ATOM      3  S1  UNL     1      27.883  45.710  17.714  0.00  0.00    -0.057 S 
ATOM      4  C3  UNL     1      27.655  44.918  16.197  0.00  0.00    +0.163 A 
ATOM      5  N1  UNL     1      26.455  44.646  15.633  0.00  0.00    -0.294 N 
ATOM      6  C4  UNL     1      25.253  45.381  15.643  0.00  0.00    +0.033 A 
ATOM      7  C5  UNL     1      25.157  46.730  16.000  0.00  0.00    -0.040 A 
ATOM      8  C6  UNL     1      23.921  47.381  16.026  0.00  0.00    -0.060 A 
ATOM      9  C7  UNL     1      22.755  46.691  15.698  0.00  0.00    -0.059 A 
ATOM     10  C8  UNL     1      22.819  45.346  15.329  0.00  0.00    -0.049 A 
ATOM     11  C9  UNL     1      21.568  44.583  15.014  0.00  0.00    -0.040 C 
ATOM     12  C10 UNL     1      24.065  44.701  15.320  0.00  0.00    -0.038 A 
ATOM     13  N2  UNL     1      28.769  44.483  15.650  0.00  0.00    -0.224 NA
ATOM     14  C11 UNL     1      29.866  44.827  16.419  0.00  0.00    +0.083 A 
ATOM     15  C12 UNL     1      31.212  44.467  15.997  0.00  0.00    +0.004 A 
ATOM     16  C13 UNL     1      31.953  43.569  16.783  0.00  0.00    -0.049 A 
ATOM     17  C14 UNL     1      33.253  43.194  16.422  0.00  0.00    -0.050 A 
ATOM     18  C15 UNL     1      34.018  42.208  17.252  0.00  0.00    -0.040 C 
ATOM     19  C16 UNL     1      33.799  43.702  15.241  0.00  0.00    -0.059 A 
ATOM     20  C17 UNL     1      33.067  44.587  14.446  0.00  0.00    -0.058 A 
ATOM     21  C18 UNL     1      31.773  44.986  14.814  0.00  0.00    -0.041 A 
ATOM     22  C19 UNL     1      31.012  45.927  13.919  0.00  0.00    -0.039 C 
ATOM     23  H   UNL     1      26.416  43.797  15.136  0.00  0.00    +0.000 HD
ENDROOT
TORSDOF 0
ENDMDL
MODEL 4
REMARK VINA RESULT:    -3.403     13.573     16.773
REMARK INTER + INTRA:          -3.403
REMARK INTER:                  -3.403
REMARK INTRA:                   0.000
REMARK UNBOUND:                 0.000
REMARK  Name = /home/vital/Documents/PhD_2021/Malaria_codes/scripts/../data/pdbqt_ligands/ligand_139_temp.pdb
REMARK                            x       y       z     vdW  Elec       q    Type
REMARK                         _______ _______ _______ _____ _____    ______ ____
ROOT
ATOM      1  C1  UNL     1      18.948  32.320  15.207  0.00  0.00    -0.031 C 
ATOM      2  C2  UNL     1      17.836  33.308  15.207  0.00  0.00    +0.016 A 
ATOM      3  S1  UNL     1      18.164  34.988  15.258  0.00  0.00    -0.057 S 
ATOM      4  C3  UNL     1      16.476  35.341  15.169  0.00  0.00    +0.163 A 
ATOM      5  N1  UNL     1      15.937  36.582  15.209  0.00  0.00    -0.294 N 
ATOM      6  C4  UNL     1      16.409  37.801  14.686  0.00  0.00    +0.033 A 
ATOM      7  C5  UNL     1      17.423  37.907  13.728  0.00  0.00    -0.040 A 
ATOM      8  C6  UNL     1      17.868  39.156  13.287  0.00  0.00    -0.060 A 
ATOM      9  C7  UNL     1      17.310  40.324  13.802  0.00  0.00    -0.059 A 
ATOM     10  C8  UNL     1      16.290  40.251  14.754  0.00  0.00    -0.049 A 
ATOM     11  C9  UNL     1      15.710  41.501  15.345  0.00  0.00    -0.040 C 
ATOM     12  C10 UNL     1      15.861  38.991  15.197  0.00  0.00    -0.038 A 
ATOM     13  N2  UNL     1      15.708  34.273  15.168  0.00  0.00    -0.224 NA
ATOM     14  C11 UNL     1      16.466  33.117  15.180  0.00  0.00    +0.083 A 
ATOM     15  C12 UNL     1      15.828  31.809  15.160  0.00  0.00    +0.004 A 
ATOM     16  C13 UNL     1      15.979  30.962  16.271  0.00  0.00    -0.049 A 
ATOM     17  C14 UNL     1      15.387  29.693  16.297  0.00  0.00    -0.050 A 
ATOM     18  C15 UNL     1      15.528  28.814  17.504  0.00  0.00    -0.040 C 
ATOM     19  C16 UNL     1      14.610  29.287  15.210  0.00  0.00    -0.059 A 
ATOM     20  C17 UNL     1      14.444  30.125  14.105  0.00  0.00    -0.058 A 
ATOM     21  C18 UNL     1      15.054  31.389  14.061  0.00  0.00    -0.041 A 
ATOM     22  C19 UNL     1      14.835  32.267  12.859  0.00  0.00    -0.039 C 
ATOM     23  H   UNL     1      15.074  36.641  15.680  0.00  0.00    +0.000 HD
ENDROOT
TORSDOF 0
ENDMDL
MODEL 5
REMARK VINA RESULT:    -3.321      2.018      2.410
REMARK INTER + INTRA:          -3.321
REMARK INTER:                  -3.321
REMARK INTRA:                   0.000
REMARK UNBOUND:                 0.000
REMARK  Name = /home/vital/Documents/PhD_2021/Malaria_codes/scripts/../data/pdbqt_ligands/ligand_139_temp.pdb
REMARK                            x       y       z     vdW  Elec       q    Type
REMARK                         _______ _______ _______ _____ _____    ______ ____
ROOT
ATOM      1  C1  UNL     1      24.524  42.611  16.770  0.00  0.00    -0.031 C 
ATOM      2  C2  UNL     1      25.642  43.567  16.550  0.00  0.00    +0.016 A 
ATOM      3  S1  UNL     1      27.218  42.998  16.192  0.00  0.00    -0.057 S 
ATOM      4  C3  UNL     1      27.793  44.619  16.047  0.00  0.00    +0.163 A 
ATOM      5  N1  UNL     1      29.076  44.970  15.796  0.00  0.00    -0.294 N 
ATOM      6  C4  UNL     1      30.052  44.353  14.990  0.00  0.00    +0.033 A 
ATOM      7  C5  UNL     1      29.774  43.385  14.019  0.00  0.00    -0.040 A 
ATOM      8  C6  UNL     1      30.802  42.786  13.285  0.00  0.00    -0.060 A 
ATOM      9  C7  UNL     1      32.129  43.143  13.513  0.00  0.00    -0.059 A 
ATOM     10  C8  UNL     1      32.438  44.113  14.470  0.00  0.00    -0.049 A 
ATOM     11  C9  UNL     1      33.865  44.475  14.753  0.00  0.00    -0.040 C 
ATOM     12  C10 UNL     1      31.398  44.696  15.208  0.00  0.00    -0.038 A 
ATOM     13  N2  UNL     1      26.885  45.532  16.312  0.00  0.00    -0.224 NA
ATOM     14  C11 UNL     1      25.662  44.949  16.590  0.00  0.00    +0.083 A 
ATOM     15  C12 UNL     1      24.499  45.771  16.893  0.00  0.00    +0.004 A 
ATOM     16  C13 UNL     1      23.923  45.688  18.172  0.00  0.00    -0.049 A 
ATOM     17  C14 UNL     1      22.801  46.455  18.511  0.00  0.00    -0.050 A 
ATOM     18  C15 UNL     1      22.219  46.382  19.890  0.00  0.00    -0.040 C 
ATOM     19  C16 UNL     1      22.275  47.337  17.564  0.00  0.00    -0.059 A 
ATOM     20  C17 UNL     1      22.846  47.435  16.293  0.00  0.00    -0.058 A 
ATOM     21  C18 UNL     1      23.956  46.652  15.938  0.00  0.00    -0.041 A 
ATOM     22  C19 UNL     1      24.551  46.803  14.565  0.00  0.00    -0.039 C 
ATOM     23  H   UNL     1      29.375  45.790  16.251  0.00  0.00    +0.000 HD
ENDROOT
TORSDOF 0
ENDMDL
MODEL 6
REMARK VINA RESULT:    -3.299      7.717     12.403
REMARK INTER + INTRA:          -3.299
REMARK INTER:                  -3.299
REMARK INTRA:                   0.000
REMARK UNBOUND:                 0.000
REMARK  Name = /home/vital/Documents/PhD_2021/Malaria_codes/scripts/../data/pdbqt_ligands/ligand_139_temp.pdb
REMARK                            x       y       z     vdW  Elec       q    Type
REMARK                         _______ _______ _______ _____ _____    ______ ____
ROOT
ATOM      1  C1  UNL     1      34.151  36.807  16.914  0.00  0.00    -0.031 C 
ATOM      2  C2  UNL     1      34.421  38.162  16.363  0.00  0.00    +0.016 A 
ATOM      3  S1  UNL     1      33.432  39.492  16.800  0.00  0.00    -0.057 S 
ATOM      4  C3  UNL     1      34.406  40.554  15.848  0.00  0.00    +0.163 A 
ATOM      5  N1  UNL     1      34.172  41.876  15.671  0.00  0.00    -0.294 N 
ATOM      6  C4  UNL     1      33.658  42.840  16.560  0.00  0.00    +0.033 A 
ATOM      7  C5  UNL     1      33.570  42.666  17.945  0.00  0.00    -0.040 A 
ATOM      8  C6  UNL     1      33.009  43.653  18.760  0.00  0.00    -0.060 A 
ATOM      9  C7  UNL     1      32.521  44.833  18.201  0.00  0.00    -0.059 A 
ATOM     10  C8  UNL     1      32.602  45.039  16.822  0.00  0.00    -0.049 A 
ATOM     11  C9  UNL     1      32.043  46.286  16.205  0.00  0.00    -0.040 C 
ATOM     12  C10 UNL     1      33.156  44.035  16.015  0.00  0.00    -0.038 A 
ATOM     13  N2  UNL     1      35.370  39.947  15.191  0.00  0.00    -0.224 NA
ATOM     14  C11 UNL     1      35.394  38.596  15.481  0.00  0.00    +0.083 A 
ATOM     15  C12 UNL     1      36.395  37.724  14.883  0.00  0.00    +0.004 A 
ATOM     16  C13 UNL     1      35.976  36.709  14.006  0.00  0.00    -0.049 A 
ATOM     17  C14 UNL     1      36.900  35.844  13.408  0.00  0.00    -0.050 A 
ATOM     18  C15 UNL     1      36.441  34.788  12.447  0.00  0.00    -0.040 C 
ATOM     19  C16 UNL     1      38.260  36.022  13.669  0.00  0.00    -0.059 A 
ATOM     20  C17 UNL     1      38.689  37.035  14.531  0.00  0.00    -0.058 A 
ATOM     21  C18 UNL     1      37.767  37.891  15.153  0.00  0.00    -0.041 A 
ATOM     22  C19 UNL     1      38.273  38.980  16.059  0.00  0.00    -0.039 C 
ATOM     23  H   UNL     1      34.398  42.218  14.776  0.00  0.00    +0.000 HD
ENDROOT
TORSDOF 0
ENDMDL
MODEL 7
REMARK VINA RESULT:    -3.298      7.110      9.862
REMARK INTER + INTRA:          -3.298
REMARK INTER:                  -3.298
REMARK INTRA:                   0.000
REMARK UNBOUND:                 0.000
REMARK  Name = /home/vital/Documents/PhD_2021/Malaria_codes/scripts/../data/pdbqt_ligands/ligand_139_temp.pdb
REMARK                            x       y       z     vdW  Elec       q    Type
REMARK                         _______ _______ _______ _____ _____    ______ ____
ROOT
ATOM      1  C1  UNL     1      30.803  41.408  16.796  0.00  0.00    -0.031 C 
ATOM      2  C2  UNL     1      32.221  41.264  16.371  0.00  0.00    +0.016 A 
ATOM      3  S1  UNL     1      32.845  39.733  15.923  0.00  0.00    -0.057 S 
ATOM      4  C3  UNL     1      34.377  40.441  15.558  0.00  0.00    +0.163 A 
ATOM      5  N1  UNL     1      35.472  39.759  15.149  0.00  0.00    -0.294 N 
ATOM      6  C4  UNL     1      35.588  38.626  14.320  0.00  0.00    +0.033 A 
ATOM      7  C5  UNL     1      34.569  38.155  13.485  0.00  0.00    -0.040 A 
ATOM      8  C6  UNL     1      34.744  36.998  12.721  0.00  0.00    -0.060 A 
ATOM      9  C7  UNL     1      35.941  36.288  12.782  0.00  0.00    -0.059 A 
ATOM     10  C8  UNL     1      36.980  36.738  13.600  0.00  0.00    -0.049 A 
ATOM     11  C9  UNL     1      38.258  35.961  13.705  0.00  0.00    -0.040 C 
ATOM     12  C10 UNL     1      36.787  37.894  14.371  0.00  0.00    -0.038 A 
ATOM     13  N2  UNL     1      34.443  41.729  15.814  0.00  0.00    -0.224 NA
ATOM     14  C11 UNL     1      33.227  42.208  16.267  0.00  0.00    +0.083 A 
ATOM     15  C12 UNL     1      33.058  43.616  16.595  0.00  0.00    +0.004 A 
ATOM     16  C13 UNL     1      32.784  43.976  17.925  0.00  0.00    -0.049 A 
ATOM     17  C14 UNL     1      32.610  45.316  18.290  0.00  0.00    -0.050 A 
ATOM     18  C15 UNL     1      32.353  45.688  19.720  0.00  0.00    -0.040 C 
ATOM     19  C16 UNL     1      32.745  46.306  17.313  0.00  0.00    -0.059 A 
ATOM     20  C17 UNL     1      33.028  45.960  15.990  0.00  0.00    -0.058 A 
ATOM     21  C18 UNL     1      33.180  44.617  15.612  0.00  0.00    -0.041 A 
ATOM     22  C19 UNL     1      33.502  44.290  14.179  0.00  0.00    -0.039 C 
ATOM     23  H   UNL     1      36.327  40.112  15.487  0.00  0.00    +0.000 HD
ENDROOT
TORSDOF 0
ENDMDL
MODEL 8
REMARK VINA RESULT:    -3.281     12.333     15.893
REMARK INTER + INTRA:          -3.281
REMARK INTER:                  -3.281
REMARK INTRA:                   0.000
REMARK UNBOUND:                 0.000
REMARK  Name = /home/vital/Documents/PhD_2021/Malaria_codes/scripts/../data/pdbqt_ligands/ligand_139_temp.pdb
REMARK                            x       y       z     vdW  Elec       q    Type
REMARK                         _______ _______ _______ _____ _____    ______ ____
ROOT
ATOM      1  C1  UNL     1      18.292  37.565  17.644  0.00  0.00    -0.031 C 
ATOM      2  C2  UNL     1      17.589  36.968  16.477  0.00  0.00    +0.016 A 
ATOM      3  S1  UNL     1      17.668  35.282  16.183  0.00  0.00    -0.057 S 
ATOM      4  C3  UNL     1      16.629  35.452  14.815  0.00  0.00    +0.163 A 
ATOM      5  N1  UNL     1      16.255  34.444  13.992  0.00  0.00    -0.294 N 
ATOM      6  C4  UNL     1      15.980  33.091  14.269  0.00  0.00    +0.033 A 
ATOM      7  C5  UNL     1      15.739  32.583  15.550  0.00  0.00    -0.040 A 
ATOM      8  C6  UNL     1      15.514  31.218  15.752  0.00  0.00    -0.060 A 
ATOM      9  C7  UNL     1      15.529  30.336  14.674  0.00  0.00    -0.059 A 
ATOM     10  C8  UNL     1      15.758  30.814  13.382  0.00  0.00    -0.049 A 
ATOM     11  C9  UNL     1      15.817  29.868  12.220  0.00  0.00    -0.040 C 
ATOM     12  C10 UNL     1      15.995  32.184  13.195  0.00  0.00    -0.038 A 
ATOM     13  N2  UNL     1      16.293  36.695  14.552  0.00  0.00    -0.224 NA
ATOM     14  C11 UNL     1      16.825  37.561  15.490  0.00  0.00    +0.083 A 
ATOM     15  C12 UNL     1      16.566  38.992  15.411  0.00  0.00    +0.004 A 
ATOM     16  C13 UNL     1      17.642  39.865  15.178  0.00  0.00    -0.049 A 
ATOM     17  C14 UNL     1      17.446  41.249  15.097  0.00  0.00    -0.050 A 
ATOM     18  C15 UNL     1      18.598  42.165  14.812  0.00  0.00    -0.040 C 
ATOM     19  C16 UNL     1      16.150  41.756  15.220  0.00  0.00    -0.059 A 
ATOM     20  C17 UNL     1      15.072  40.896  15.442  0.00  0.00    -0.058 A 
ATOM     21  C18 UNL     1      15.264  39.510  15.547  0.00  0.00    -0.041 A 
ATOM     22  C19 UNL     1      14.072  38.619  15.769  0.00  0.00    -0.039 C 
ATOM     23  H   UNL     1      16.161  34.699  13.045  0.00  0.00    +0.000 HD
ENDROOT
TORSDOF 0
ENDMDL
MODEL 9
REMARK VINA RESULT:    -3.193      7.884     12.390
REMARK INTER + INTRA:          -3.193
REMARK INTER:                  -3.193
REMARK INTRA:                   0.000
REMARK UNBOUND:                 0.000
REMARK  Name = /home/vital/Documents/PhD_2021/Malaria_codes/scripts/../data/pdbqt_ligands/ligand_139_temp.pdb
REMARK                            x       y       z     vdW  Elec       q    Type
REMARK                         _______ _______ _______ _____ _____    ______ ____
ROOT
ATOM      1  C1  UNL     1      37.696  38.987  16.538  0.00  0.00    -0.031 C 
ATOM      2  C2  UNL     1      36.351  39.288  15.978  0.00  0.00    +0.016 A 
ATOM      3  S1  UNL     1      35.563  40.763  16.350  0.00  0.00    -0.057 S 
ATOM      4  C3  UNL     1      34.235  40.333  15.334  0.00  0.00    +0.163 A 
ATOM      5  N1  UNL     1      33.117  41.076  15.159  0.00  0.00    -0.294 N 
ATOM      6  C4  UNL     1      32.945  42.473  15.110  0.00  0.00    +0.033 A 
ATOM      7  C5  UNL     1      33.987  43.388  14.926  0.00  0.00    -0.040 A 
ATOM      8  C6  UNL     1      33.744  44.765  14.930  0.00  0.00    -0.060 A 
ATOM      9  C7  UNL     1      32.453  45.251  15.124  0.00  0.00    -0.059 A 
ATOM     10  C8  UNL     1      31.390  44.362  15.302  0.00  0.00    -0.049 A 
ATOM     11  C9  UNL     1      30.003  44.873  15.552  0.00  0.00    -0.040 C 
ATOM     12  C10 UNL     1      31.650  42.983  15.308  0.00  0.00    -0.038 A 
ATOM     13  N2  UNL     1      34.339  39.137  14.799  0.00  0.00    -0.224 NA
ATOM     14  C11 UNL     1      35.535  38.539  15.150  0.00  0.00    +0.083 A 
ATOM     15  C12 UNL     1      35.877  37.213  14.655  0.00  0.00    +0.004 A 
ATOM     16  C13 UNL     1      36.006  36.157  15.572  0.00  0.00    -0.049 A 
ATOM     17  C14 UNL     1      36.337  34.865  15.146  0.00  0.00    -0.050 A 
ATOM     18  C15 UNL     1      36.437  33.741  16.133  0.00  0.00    -0.040 C 
ATOM     19  C16 UNL     1      36.507  34.627  13.780  0.00  0.00    -0.059 A 
ATOM     20  C17 UNL     1      36.371  35.667  12.858  0.00  0.00    -0.058 A 
ATOM     21  C18 UNL     1      36.063  36.970  13.280  0.00  0.00    -0.041 A 
ATOM     22  C19 UNL     1      35.907  38.057  12.251  0.00  0.00    -0.039 C 
ATOM     23  H   UNL     1      32.289  40.554  15.048  0.00  0.00    +0.000 HD
ENDROOT
TORSDOF 0
ENDMDL
