MODEL 1
REMARK VINA RESULT:    -4.896      0.000      0.000
REMARK INTER + INTRA:          -4.896
REMARK INTER:                  -4.896
REMARK INTRA:                   0.000
REMARK UNBOUND:                 0.000
REMARK  Name = /home/vital/Documents/PhD_2021/Malaria_codes/scripts/../data/pdbqt_ligands/ligand_447_temp.pdb
REMARK                            x       y       z     vdW  Elec       q    Type
REMARK                         _______ _______ _______ _____ _____    ______ ____
ROOT
ATOM      1  C1  UNL     1      14.679  29.605  15.081  0.00  0.00    -0.003 C 
ATOM      2  C2  UNL     1      15.008  28.210  14.782  0.00  0.00    -0.104 C 
ATOM      3  C3  UNL     1      15.273  27.062  14.542  0.00  0.00    -0.079 C 
ATOM      4  C4  UNL     1      15.605  25.667  14.237  0.00  0.00    +0.132 C 
ATOM      5  S1  UNL     1      15.123  24.594  15.582  0.00  0.00    +0.008 S 
ATOM      6  O1  UNL     1      15.712  23.288  15.338  0.00  0.00    -0.168 OA
ATOM      7  O2  UNL     1      13.694  24.713  15.812  0.00  0.00    -0.168 OA
ATOM      8  C5  UNL     1      15.954  25.252  17.017  0.00  0.00    +0.090 A 
ATOM      9  C6  UNL     1      15.268  26.120  17.873  0.00  0.00    -0.037 A 
ATOM     10  C7  UNL     1      15.904  26.601  19.016  0.00  0.00    -0.059 A 
ATOM     11  C8  UNL     1      17.215  26.210  19.301  0.00  0.00    -0.050 A 
ATOM     12  C9  UNL     1      17.902  25.335  18.446  0.00  0.00    +0.039 A 
ATOM     13  C10 UNL     1      19.293  24.935  18.816  0.00  0.00    +0.250 C 
ATOM     14  O3  UNL     1      19.582  24.907  20.005  0.00  0.00    -0.270 OA
ATOM     15  N1  UNL     1      20.121  24.677  17.749  0.00  0.00    -0.261 N 
ATOM     16  C11 UNL     1      21.431  24.273  17.798  0.00  0.00    +0.165 A 
ATOM     17  N2  UNL     1      22.125  24.138  16.694  0.00  0.00    -0.224 NA
ATOM     18  C12 UNL     1      23.416  23.734  16.998  0.00  0.00    +0.083 A 
ATOM     19  C13 UNL     1      24.385  23.533  15.931  0.00  0.00    +0.001 A 
ATOM     20  C14 UNL     1      25.667  24.093  15.990  0.00  0.00    -0.049 A 
ATOM     21  C15 UNL     1      26.582  23.896  14.946  0.00  0.00    -0.019 A 
ATOM     22  C16 UNL     1      26.221  23.143  13.829  0.00  0.00    +0.121 A 
ATOM     23  O4  UNL     1      27.009  22.866  12.749  0.00  0.00    -0.492 OA
ATOM     24  C17 UNL     1      28.287  23.492  12.646  0.00  0.00    +0.087 C 
ATOM     25  C18 UNL     1      29.355  22.652  13.325  0.00  0.00    -0.031 C 
ATOM     26  C19 UNL     1      24.939  22.592  13.766  0.00  0.00    -0.019 A 
ATOM     27  C20 UNL     1      24.024  22.790  14.803  0.00  0.00    -0.049 A 
ATOM     28  C21 UNL     1      23.661  23.514  18.344  0.00  0.00    +0.016 A 
ATOM     29  C22 UNL     1      24.877  23.026  19.050  0.00  0.00    -0.031 C 
ATOM     30  S2  UNL     1      22.245  23.895  19.239  0.00  0.00    -0.057 S 
ATOM     31  C23 UNL     1      17.261  24.838  17.304  0.00  0.00    -0.025 A 
ATOM     32  H   UNL     1      19.732  24.795  16.853  0.00  0.00    +0.000 HD
ENDROOT
TORSDOF 0
ENDMDL
MODEL 2
REMARK VINA RESULT:    -4.584      8.623     12.656
REMARK INTER + INTRA:          -4.584
REMARK INTER:                  -4.584
REMARK INTRA:                   0.000
REMARK UNBOUND:                 0.000
REMARK  Name = /home/vital/Documents/PhD_2021/Malaria_codes/scripts/../data/pdbqt_ligands/ligand_447_temp.pdb
REMARK                            x       y       z     vdW  Elec       q    Type
REMARK                         _______ _______ _______ _____ _____    ______ ____
ROOT
ATOM      1  C1  UNL     1      21.020  39.886  12.627  0.00  0.00    -0.003 C 
ATOM      2  C2  UNL     1      19.631  39.444  12.484  0.00  0.00    -0.104 C 
ATOM      3  C3  UNL     1      18.489  39.088  12.370  0.00  0.00    -0.079 C 
ATOM      4  C4  UNL     1      17.100  38.642  12.222  0.00  0.00    +0.132 C 
ATOM      5  S1  UNL     1      16.061  39.387  13.470  0.00  0.00    +0.008 S 
ATOM      6  O1  UNL     1      14.775  38.709  13.436  0.00  0.00    -0.168 OA
ATOM      7  O2  UNL     1      16.119  40.833  13.354  0.00  0.00    -0.168 OA
ATOM      8  C5  UNL     1      16.815  38.941  15.024  0.00  0.00    +0.090 A 
ATOM      9  C6  UNL     1      17.682  39.841  15.652  0.00  0.00    -0.037 A 
ATOM     10  C7  UNL     1      18.239  39.510  16.885  0.00  0.00    -0.059 A 
ATOM     11  C8  UNL     1      17.923  38.289  17.488  0.00  0.00    -0.050 A 
ATOM     12  C9  UNL     1      17.049  37.389  16.862  0.00  0.00    +0.039 A 
ATOM     13  C10 UNL     1      16.731  36.110  17.566  0.00  0.00    +0.250 C 
ATOM     14  O3  UNL     1      16.765  36.108  18.790  0.00  0.00    -0.270 OA
ATOM     15  N1  UNL     1      16.470  35.045  16.736  0.00  0.00    -0.261 N 
ATOM     16  C11 UNL     1      16.132  33.769  17.109  0.00  0.00    +0.165 A 
ATOM     17  N2  UNL     1      15.986  32.831  16.206  0.00  0.00    -0.224 NA
ATOM     18  C12 UNL     1      15.656  31.633  16.823  0.00  0.00    +0.083 A 
ATOM     19  C13 UNL     1      15.459  30.434  16.022  0.00  0.00    +0.001 A 
ATOM     20  C14 UNL     1      16.082  29.223  16.350  0.00  0.00    -0.049 A 
ATOM     21  C15 UNL     1      15.887  28.082  15.561  0.00  0.00    -0.019 A 
ATOM     22  C16 UNL     1      15.074  28.141  14.430  0.00  0.00    +0.121 A 
ATOM     23  O4  UNL     1      14.791  27.111  13.578  0.00  0.00    -0.492 OA
ATOM     24  C17 UNL     1      15.473  25.870  13.745  0.00  0.00    +0.087 C 
ATOM     25  C18 UNL     1      14.713  24.961  14.696  0.00  0.00    -0.031 C 
ATOM     26  C19 UNL     1      14.459  29.351  14.097  0.00  0.00    -0.019 A 
ATOM     27  C20 UNL     1      14.655  30.491  14.881  0.00  0.00    -0.049 A 
ATOM     28  C21 UNL     1      15.503  31.704  18.198  0.00  0.00    +0.016 A 
ATOM     29  C22 UNL     1      15.102  30.671  19.192  0.00  0.00    -0.031 C 
ATOM     30  S2  UNL     1      15.851  33.304  18.718  0.00  0.00    -0.057 S 
ATOM     31  C23 UNL     1      16.476  37.724  15.628  0.00  0.00    -0.025 A 
ATOM     32  H   UNL     1      16.533  35.216  15.769  0.00  0.00    +0.000 HD
ENDROOT
TORSDOF 0
ENDMDL
MODEL 3
REMARK VINA RESULT:    -4.474     21.532     24.589
REMARK INTER + INTRA:          -4.474
REMARK INTER:                  -4.474
REMARK INTRA:                   0.000
REMARK UNBOUND:                 0.000
REMARK  Name = /home/vital/Documents/PhD_2021/Malaria_codes/scripts/../data/pdbqt_ligands/ligand_447_temp.pdb
REMARK                            x       y       z     vdW  Elec       q    Type
REMARK                         _______ _______ _______ _____ _____    ______ ____
ROOT
ATOM      1  C1  UNL     1      18.569  46.889  22.048  0.00  0.00    -0.003 C 
ATOM      2  C2  UNL     1      17.911  45.694  22.580  0.00  0.00    -0.104 C 
ATOM      3  C3  UNL     1      17.365  44.715  23.013  0.00  0.00    -0.079 C 
ATOM      4  C4  UNL     1      16.712  43.516  23.546  0.00  0.00    +0.132 C 
ATOM      5  S1  UNL     1      14.946  43.757  23.665  0.00  0.00    +0.008 S 
ATOM      6  O1  UNL     1      14.400  42.652  24.437  0.00  0.00    -0.168 OA
ATOM      7  O2  UNL     1      14.405  44.058  22.351  0.00  0.00    -0.168 OA
ATOM      8  C5  UNL     1      14.747  45.214  24.675  0.00  0.00    +0.090 A 
ATOM      9  C6  UNL     1      14.563  46.457  24.062  0.00  0.00    -0.037 A 
ATOM     10  C7  UNL     1      14.366  47.589  24.852  0.00  0.00    -0.059 A 
ATOM     11  C8  UNL     1      14.347  47.473  26.244  0.00  0.00    -0.050 A 
ATOM     12  C9  UNL     1      14.525  46.225  26.859  0.00  0.00    +0.039 A 
ATOM     13  C10 UNL     1      14.472  46.161  28.351  0.00  0.00    +0.250 C 
ATOM     14  O3  UNL     1      13.780  46.986  28.934  0.00  0.00    -0.270 OA
ATOM     15  N1  UNL     1      15.258  45.184  28.915  0.00  0.00    -0.261 N 
ATOM     16  C11 UNL     1      15.382  44.889  30.248  0.00  0.00    +0.165 A 
ATOM     17  N2  UNL     1      16.233  43.975  30.648  0.00  0.00    -0.224 NA
ATOM     18  C12 UNL     1      16.185  43.864  32.030  0.00  0.00    +0.083 A 
ATOM     19  C13 UNL     1      17.058  42.921  32.713  0.00  0.00    +0.001 A 
ATOM     20  C14 UNL     1      17.829  43.303  33.817  0.00  0.00    -0.049 A 
ATOM     21  C15 UNL     1      18.671  42.381  34.456  0.00  0.00    -0.019 A 
ATOM     22  C16 UNL     1      18.756  41.069  33.991  0.00  0.00    +0.121 A 
ATOM     23  O4  UNL     1      19.524  40.070  34.517  0.00  0.00    -0.492 OA
ATOM     24  C17 UNL     1      20.444  40.382  35.561  0.00  0.00    +0.087 C 
ATOM     25  C18 UNL     1      19.781  40.247  36.921  0.00  0.00    -0.031 C 
ATOM     26  C19 UNL     1      17.993  40.690  32.884  0.00  0.00    -0.019 A 
ATOM     27  C20 UNL     1      17.155  41.608  32.244  0.00  0.00    -0.049 A 
ATOM     28  C21 UNL     1      15.246  44.670  32.653  0.00  0.00    +0.016 A 
ATOM     29  C22 UNL     1      14.857  44.793  34.084  0.00  0.00    -0.031 C 
ATOM     30  S2  UNL     1      14.461  45.632  31.465  0.00  0.00    -0.057 S 
ATOM     31  C23 UNL     1      14.709  45.083  26.069  0.00  0.00    -0.025 A 
ATOM     32  H   UNL     1      15.789  44.635  28.293  0.00  0.00    +0.000 HD
ENDROOT
TORSDOF 0
ENDMDL
MODEL 4
REMARK VINA RESULT:    -4.388      3.246      3.954
REMARK INTER + INTRA:          -4.388
REMARK INTER:                  -4.388
REMARK INTRA:                   0.000
REMARK UNBOUND:                 0.000
REMARK  Name = /home/vital/Documents/PhD_2021/Malaria_codes/scripts/../data/pdbqt_ligands/ligand_447_temp.pdb
REMARK                            x       y       z     vdW  Elec       q    Type
REMARK                         _______ _______ _______ _____ _____    ______ ____
ROOT
ATOM      1  C1  UNL     1      15.866  30.746  14.024  0.00  0.00    -0.003 C 
ATOM      2  C2  UNL     1      16.120  29.304  14.046  0.00  0.00    -0.104 C 
ATOM      3  C3  UNL     1      16.321  28.119  14.066  0.00  0.00    -0.079 C 
ATOM      4  C4  UNL     1      16.580  26.676  14.084  0.00  0.00    +0.132 C 
ATOM      5  S1  UNL     1      15.340  25.823  15.046  0.00  0.00    +0.008 S 
ATOM      6  O1  UNL     1      15.797  24.458  15.245  0.00  0.00    -0.168 OA
ATOM      7  O2  UNL     1      14.027  26.072  14.478  0.00  0.00    -0.168 OA
ATOM      8  C5  UNL     1      15.387  26.600  16.651  0.00  0.00    +0.090 A 
ATOM      9  C6  UNL     1      14.475  27.617  16.951  0.00  0.00    -0.037 A 
ATOM     10  C7  UNL     1      14.485  28.196  18.219  0.00  0.00    -0.059 A 
ATOM     11  C8  UNL     1      15.397  27.753  19.181  0.00  0.00    -0.050 A 
ATOM     12  C9  UNL     1      16.308  26.728  18.883  0.00  0.00    +0.039 A 
ATOM     13  C10 UNL     1      17.244  26.282  19.959  0.00  0.00    +0.250 C 
ATOM     14  O3  UNL     1      16.870  26.387  21.120  0.00  0.00    -0.270 OA
ATOM     15  N1  UNL     1      18.463  25.829  19.512  0.00  0.00    -0.261 N 
ATOM     16  C11 UNL     1      19.494  25.343  20.273  0.00  0.00    +0.165 A 
ATOM     17  N2  UNL     1      20.635  25.018  19.714  0.00  0.00    -0.224 NA
ATOM     18  C12 UNL     1      21.519  24.565  20.682  0.00  0.00    +0.083 A 
ATOM     19  C13 UNL     1      22.864  24.160  20.304  0.00  0.00    +0.001 A 
ATOM     20  C14 UNL     1      23.991  24.631  20.990  0.00  0.00    -0.049 A 
ATOM     21  C15 UNL     1      25.280  24.235  20.604  0.00  0.00    -0.019 A 
ATOM     22  C16 UNL     1      25.455  23.372  19.523  0.00  0.00    +0.121 A 
ATOM     23  O4  UNL     1      26.645  22.903  19.044  0.00  0.00    -0.492 OA
ATOM     24  C17 UNL     1      27.860  23.418  19.585  0.00  0.00    +0.087 C 
ATOM     25  C18 UNL     1      28.305  22.598  20.785  0.00  0.00    -0.031 C 
ATOM     26  C19 UNL     1      24.332  22.910  18.833  0.00  0.00    -0.019 A 
ATOM     27  C20 UNL     1      23.046  23.305  19.214  0.00  0.00    -0.049 A 
ATOM     28  C21 UNL     1      21.003  24.504  21.967  0.00  0.00    +0.016 A 
ATOM     29  C22 UNL     1      21.605  24.026  23.241  0.00  0.00    -0.031 C 
ATOM     30  S2  UNL     1      19.390  25.097  21.949  0.00  0.00    -0.057 S 
ATOM     31  C23 UNL     1      16.292  26.135  17.614  0.00  0.00    -0.025 A 
ATOM     32  H   UNL     1      18.611  25.858  18.539  0.00  0.00    +0.000 HD
ENDROOT
TORSDOF 0
ENDMDL
MODEL 5
REMARK VINA RESULT:    -4.360      1.885      2.029
REMARK INTER + INTRA:          -4.360
REMARK INTER:                  -4.360
REMARK INTRA:                   0.000
REMARK UNBOUND:                 0.000
REMARK  Name = /home/vital/Documents/PhD_2021/Malaria_codes/scripts/../data/pdbqt_ligands/ligand_447_temp.pdb
REMARK                            x       y       z     vdW  Elec       q    Type
REMARK                         _______ _______ _______ _____ _____    ______ ____
ROOT
ATOM      1  C1  UNL     1      15.086  31.893  14.116  0.00  0.00    -0.003 C 
ATOM      2  C2  UNL     1      15.331  30.491  13.775  0.00  0.00    -0.104 C 
ATOM      3  C3  UNL     1      15.525  29.337  13.499  0.00  0.00    -0.079 C 
ATOM      4  C4  UNL     1      15.773  27.934  13.152  0.00  0.00    +0.132 C 
ATOM      5  S1  UNL     1      15.121  26.847  14.410  0.00  0.00    +0.008 S 
ATOM      6  O1  UNL     1      15.627  25.511  14.144  0.00  0.00    -0.168 OA
ATOM      7  O2  UNL     1      13.692  27.066  14.550  0.00  0.00    -0.168 OA
ATOM      8  C5  UNL     1      15.897  27.378  15.926  0.00  0.00    +0.090 A 
ATOM      9  C6  UNL     1      15.219  28.260  16.775  0.00  0.00    -0.037 A 
ATOM     10  C7  UNL     1      15.808  28.642  17.978  0.00  0.00    -0.059 A 
ATOM     11  C8  UNL     1      17.063  28.140  18.331  0.00  0.00    -0.050 A 
ATOM     12  C9  UNL     1      17.741  27.251  17.483  0.00  0.00    +0.039 A 
ATOM     13  C10 UNL     1      19.070  26.730  17.925  0.00  0.00    +0.250 C 
ATOM     14  O3  UNL     1      19.272  26.630  19.129  0.00  0.00    -0.270 OA
ATOM     15  N1  UNL     1      19.949  26.453  16.905  0.00  0.00    -0.261 N 
ATOM     16  C11 UNL     1      21.218  25.948  17.021  0.00  0.00    +0.165 A 
ATOM     17  N2  UNL     1      21.975  25.806  15.960  0.00  0.00    -0.224 NA
ATOM     18  C12 UNL     1      23.208  25.290  16.330  0.00  0.00    +0.083 A 
ATOM     19  C13 UNL     1      24.232  25.060  15.321  0.00  0.00    +0.001 A 
ATOM     20  C14 UNL     1      25.544  25.517  15.491  0.00  0.00    -0.049 A 
ATOM     21  C15 UNL     1      26.513  25.293  14.502  0.00  0.00    -0.019 A 
ATOM     22  C16 UNL     1      26.176  24.618  13.330  0.00  0.00    +0.121 A 
ATOM     23  O4  UNL     1      27.015  24.326  12.292  0.00  0.00    -0.492 OA
ATOM     24  C17 UNL     1      28.339  24.855  12.303  0.00  0.00    +0.087 C 
ATOM     25  C18 UNL     1      29.292  23.907  13.012  0.00  0.00    -0.031 C 
ATOM     26  C19 UNL     1      24.864  24.170  13.156  0.00  0.00    -0.019 A 
ATOM     27  C20 UNL     1      23.896  24.395  14.139  0.00  0.00    -0.049 A 
ATOM     28  C21 UNL     1      23.342  24.996  17.678  0.00  0.00    +0.016 A 
ATOM     29  C22 UNL     1      24.466  24.386  18.439  0.00  0.00    -0.031 C 
ATOM     30  S2  UNL     1      21.899  25.448  18.494  0.00  0.00    -0.057 S 
ATOM     31  C23 UNL     1      17.146  26.853  16.279  0.00  0.00    -0.025 A 
ATOM     32  H   UNL     1      19.633  26.638  15.992  0.00  0.00    +0.000 HD
ENDROOT
TORSDOF 0
ENDMDL
MODEL 6
REMARK VINA RESULT:    -4.328     15.194     18.752
REMARK INTER + INTRA:          -4.328
REMARK INTER:                  -4.328
REMARK INTRA:                   0.000
REMARK UNBOUND:                 0.000
REMARK  Name = /home/vital/Documents/PhD_2021/Malaria_codes/scripts/../data/pdbqt_ligands/ligand_447_temp.pdb
REMARK                            x       y       z     vdW  Elec       q    Type
REMARK                         _______ _______ _______ _____ _____    ______ ____
ROOT
ATOM      1  C1  UNL     1      32.978  22.612  14.111  0.00  0.00    -0.003 C 
ATOM      2  C2  UNL     1      33.990  23.432  13.442  0.00  0.00    -0.104 C 
ATOM      3  C3  UNL     1      34.826  24.098  12.894  0.00  0.00    -0.079 C 
ATOM      4  C4  UNL     1      35.835  24.922  12.220  0.00  0.00    +0.132 C 
ATOM      5  S1  UNL     1      37.476  24.505  12.792  0.00  0.00    +0.008 S 
ATOM      6  O1  UNL     1      38.388  25.522  12.295  0.00  0.00    -0.168 OA
ATOM      7  O2  UNL     1      37.742  23.102  12.529  0.00  0.00    -0.168 OA
ATOM      8  C5  UNL     1      37.414  24.718  14.562  0.00  0.00    +0.090 A 
ATOM      9  C6  UNL     1      37.183  23.608  15.382  0.00  0.00    -0.037 A 
ATOM     10  C7  UNL     1      37.175  23.768  16.766  0.00  0.00    -0.059 A 
ATOM     11  C8  UNL     1      37.406  25.028  17.325  0.00  0.00    -0.050 A 
ATOM     12  C9  UNL     1      37.644  26.140  16.503  0.00  0.00    +0.039 A 
ATOM     13  C10 UNL     1      37.905  27.457  17.159  0.00  0.00    +0.250 C 
ATOM     14  O3  UNL     1      38.426  27.450  18.267  0.00  0.00    -0.270 OA
ATOM     15  N1  UNL     1      37.485  28.552  16.441  0.00  0.00    -0.261 N 
ATOM     16  C11 UNL     1      37.617  29.871  16.792  0.00  0.00    +0.165 A 
ATOM     17  N2  UNL     1      37.097  30.812  16.041  0.00  0.00    -0.224 NA
ATOM     18  C12 UNL     1      37.351  32.054  16.603  0.00  0.00    +0.083 A 
ATOM     19  C13 UNL     1      36.854  33.259  15.957  0.00  0.00    +0.001 A 
ATOM     20  C14 UNL     1      36.159  34.242  16.673  0.00  0.00    -0.049 A 
ATOM     21  C15 UNL     1      35.681  35.391  16.028  0.00  0.00    -0.019 A 
ATOM     22  C16 UNL     1      35.884  35.566  14.660  0.00  0.00    +0.121 A 
ATOM     23  O4  UNL     1      35.481  36.633  13.909  0.00  0.00    -0.492 OA
ATOM     24  C17 UNL     1      34.655  37.629  14.510  0.00  0.00    +0.087 C 
ATOM     25  C18 UNL     1      35.502  38.717  15.149  0.00  0.00    -0.031 C 
ATOM     26  C19 UNL     1      36.570  34.581  13.944  0.00  0.00    -0.019 A 
ATOM     27  C20 UNL     1      37.045  33.433  14.583  0.00  0.00    -0.049 A 
ATOM     28  C21 UNL     1      38.118  32.031  17.758  0.00  0.00    +0.016 A 
ATOM     29  C22 UNL     1      38.644  33.135  18.604  0.00  0.00    -0.031 C 
ATOM     30  S2  UNL     1      38.461  30.398  18.167  0.00  0.00    -0.057 S 
ATOM     31  C23 UNL     1      37.666  25.981  15.112  0.00  0.00    -0.025 A 
ATOM     32  H   UNL     1      37.041  28.369  15.582  0.00  0.00    +0.000 HD
ENDROOT
TORSDOF 0
ENDMDL
MODEL 7
REMARK VINA RESULT:    -3.977     21.269     22.602
REMARK INTER + INTRA:          -3.977
REMARK INTER:                  -3.977
REMARK INTRA:                   0.000
REMARK UNBOUND:                 0.000
REMARK  Name = /home/vital/Documents/PhD_2021/Malaria_codes/scripts/../data/pdbqt_ligands/ligand_447_temp.pdb
REMARK                            x       y       z     vdW  Elec       q    Type
REMARK                         _______ _______ _______ _____ _____    ______ ____
ROOT
ATOM      1  C1  UNL     1      21.035  42.460  17.581  0.00  0.00    -0.003 C 
ATOM      2  C2  UNL     1      21.687  43.753  17.368  0.00  0.00    -0.104 C 
ATOM      3  C3  UNL     1      22.219  44.816  17.185  0.00  0.00    -0.079 C 
ATOM      4  C4  UNL     1      22.872  46.112  16.978  0.00  0.00    +0.132 C 
ATOM      5  S1  UNL     1      23.090  46.438  15.235  0.00  0.00    +0.008 S 
ATOM      6  O1  UNL     1      23.967  47.590  15.108  0.00  0.00    -0.168 OA
ATOM      7  O2  UNL     1      21.798  46.436  14.573  0.00  0.00    -0.168 OA
ATOM      8  C5  UNL     1      24.013  45.042  14.618  0.00  0.00    +0.090 A 
ATOM      9  C6  UNL     1      23.333  43.978  14.017  0.00  0.00    -0.037 A 
ATOM     10  C7  UNL     1      24.057  42.906  13.498  0.00  0.00    -0.059 A 
ATOM     11  C8  UNL     1      25.452  42.905  13.574  0.00  0.00    -0.050 A 
ATOM     12  C9  UNL     1      26.135  43.975  14.171  0.00  0.00    +0.039 A 
ATOM     13  C10 UNL     1      27.629  43.927  14.203  0.00  0.00    +0.250 C 
ATOM     14  O3  UNL     1      28.200  43.321  13.305  0.00  0.00    -0.270 OA
ATOM     15  N1  UNL     1      28.202  44.552  15.284  0.00  0.00    -0.261 N 
ATOM     16  C11 UNL     1      29.541  44.679  15.552  0.00  0.00    +0.165 A 
ATOM     17  N2  UNL     1      29.944  45.237  16.668  0.00  0.00    -0.224 NA
ATOM     18  C12 UNL     1      31.330  45.242  16.716  0.00  0.00    +0.083 A 
ATOM     19  C13 UNL     1      32.015  45.797  17.874  0.00  0.00    +0.001 A 
ATOM     20  C14 UNL     1      33.039  45.097  18.525  0.00  0.00    -0.049 A 
ATOM     21  C15 UNL     1      33.680  45.646  19.644  0.00  0.00    -0.019 A 
ATOM     22  C16 UNL     1      33.298  46.896  20.130  0.00  0.00    +0.121 A 
ATOM     23  O4  UNL     1      33.837  47.550  21.201  0.00  0.00    -0.492 OA
ATOM     24  C17 UNL     1      34.795  46.874  22.013  0.00  0.00    +0.087 C 
ATOM     25  C18 UNL     1      36.202  47.100  21.485  0.00  0.00    -0.031 C 
ATOM     26  C19 UNL     1      32.271  47.590  19.486  0.00  0.00    -0.019 A 
ATOM     27  C20 UNL     1      31.628  47.044  18.371  0.00  0.00    -0.049 A 
ATOM     28  C21 UNL     1      31.959  44.728  15.592  0.00  0.00    +0.016 A 
ATOM     29  C22 UNL     1      33.401  44.617  15.244  0.00  0.00    -0.031 C 
ATOM     30  S2  UNL     1      30.764  44.171  14.491  0.00  0.00    -0.057 S 
ATOM     31  C23 UNL     1      25.412  45.060  14.681  0.00  0.00    -0.025 A 
ATOM     32  H   UNL     1      27.585  44.952  15.938  0.00  0.00    +0.000 HD
ENDROOT
TORSDOF 0
ENDMDL
