MODEL 1
REMARK VINA RESULT:    -3.522      0.000      0.000
REMARK INTER + INTRA:          -3.522
REMARK INTER:                  -3.522
REMARK INTRA:                   0.000
REMARK UNBOUND:                 0.000
REMARK  Name = /home/vital/Documents/PhD_2021/Malaria_codes/scripts/../data/pdbqt_ligands/ligand_168_temp.pdb
REMARK                            x       y       z     vdW  Elec       q    Type
REMARK                         _______ _______ _______ _____ _____    ______ ____
ROOT
ATOM      1  C1  UNL     1      35.699  36.212  17.170  0.00  0.00    -0.039 C 
ATOM      2  C2  UNL     1      36.439  36.659  15.941  0.00  0.00    -0.036 A 
ATOM      3  C3  UNL     1      36.935  35.692  15.050  0.00  0.00    -0.017 A 
ATOM      4  C4  UNL     1      37.640  36.075  13.912  0.00  0.00    +0.117 A 
ATOM      5  O1  UNL     1      38.090  35.088  13.088  0.00  0.00    -0.507 OA
ATOM      6  C5  UNL     1      37.877  37.416  13.634  0.00  0.00    -0.019 A 
ATOM      7  C6  UNL     1      37.399  38.390  14.512  0.00  0.00    -0.047 A 
ATOM      8  C7  UNL     1      36.677  38.018  15.659  0.00  0.00    +0.025 A 
ATOM      9  C8  UNL     1      36.201  39.081  16.581  0.00  0.00    +0.186 C 
ATOM     10  O2  UNL     1      36.430  39.021  17.783  0.00  0.00    -0.287 OA
ATOM     11  C9  UNL     1      35.424  40.191  15.964  0.00  0.00    -0.014 C 
ATOM     12  C10 UNL     1      35.046  41.234  16.720  0.00  0.00    -0.051 C 
ATOM     13  C11 UNL     1      34.255  42.367  16.223  0.00  0.00    -0.024 A 
ATOM     14  C12 UNL     1      34.441  42.906  14.940  0.00  0.00    -0.051 A 
ATOM     15  C13 UNL     1      33.686  44.001  14.513  0.00  0.00    -0.019 A 
ATOM     16  C14 UNL     1      32.750  44.570  15.368  0.00  0.00    +0.131 A 
ATOM     17  O3  UNL     1      32.041  45.638  14.894  0.00  0.00    -0.506 OA
ATOM     18  C15 UNL     1      32.565  44.056  16.650  0.00  0.00    +0.060 A 
ATOM     19 BR1  UNL     1      31.298  44.826  17.830  0.00  0.00    -0.047 Br
ATOM     20  C16 UNL     1      33.318  42.961  17.081  0.00  0.00    -0.037 A 
ATOM     21  H   UNL     1      37.919  34.190  13.295  0.00  0.00    +0.000 HD
ATOM     22  H   UNL     1      32.194  45.954  14.026  0.00  0.00    +0.000 HD
ENDROOT
TORSDOF 0
ENDMDL
MODEL 2
REMARK VINA RESULT:    -3.424     20.914     21.805
REMARK INTER + INTRA:          -3.424
REMARK INTER:                  -3.424
REMARK INTRA:                   0.000
REMARK UNBOUND:                 0.000
REMARK  Name = /home/vital/Documents/PhD_2021/Malaria_codes/scripts/../data/pdbqt_ligands/ligand_168_temp.pdb
REMARK                            x       y       z     vdW  Elec       q    Type
REMARK                         _______ _______ _______ _____ _____    ______ ____
ROOT
ATOM      1  C1  UNL     1      16.829  29.425  12.221  0.00  0.00    -0.039 C 
ATOM      2  C2  UNL     1      15.810  28.905  13.195  0.00  0.00    -0.036 A 
ATOM      3  C3  UNL     1      15.643  27.518  13.337  0.00  0.00    -0.017 A 
ATOM      4  C4  UNL     1      14.695  27.005  14.219  0.00  0.00    +0.117 A 
ATOM      5  O1  UNL     1      14.586  25.651  14.311  0.00  0.00    -0.507 OA
ATOM      6  C5  UNL     1      13.889  27.850  14.973  0.00  0.00    -0.019 A 
ATOM      7  C6  UNL     1      14.035  29.232  14.839  0.00  0.00    -0.047 A 
ATOM      8  C7  UNL     1      14.995  29.761  13.960  0.00  0.00    +0.025 A 
ATOM      9  C8  UNL     1      15.109  31.237  13.830  0.00  0.00    +0.186 C 
ATOM     10  O2  UNL     1      15.091  31.776  12.730  0.00  0.00    -0.287 OA
ATOM     11  C9  UNL     1      15.265  32.002  15.098  0.00  0.00    -0.014 C 
ATOM     12  C10 UNL     1      15.276  33.344  15.064  0.00  0.00    -0.051 C 
ATOM     13  C11 UNL     1      15.451  34.196  16.247  0.00  0.00    -0.024 A 
ATOM     14  C12 UNL     1      14.886  33.876  17.491  0.00  0.00    -0.051 A 
ATOM     15  C13 UNL     1      15.055  34.725  18.588  0.00  0.00    -0.019 A 
ATOM     16  C14 UNL     1      15.778  35.903  18.444  0.00  0.00    +0.131 A 
ATOM     17  O3  UNL     1      15.909  36.693  19.552  0.00  0.00    -0.506 OA
ATOM     18  C15 UNL     1      16.331  36.242  17.211  0.00  0.00    +0.060 A 
ATOM     19 BR1  UNL     1      17.314  37.849  16.998  0.00  0.00    -0.047 Br
ATOM     20  C16 UNL     1      16.165  35.395  16.112  0.00  0.00    -0.037 A 
ATOM     21  H   UNL     1      15.140  25.100  13.793  0.00  0.00    +0.000 HD
ATOM     22  H   UNL     1      15.522  36.430  20.363  0.00  0.00    +0.000 HD
ENDROOT
TORSDOF 0
ENDMDL
MODEL 3
REMARK VINA RESULT:    -3.389     21.210     22.213
REMARK INTER + INTRA:          -3.389
REMARK INTER:                  -3.389
REMARK INTRA:                   0.000
REMARK UNBOUND:                 0.000
REMARK  Name = /home/vital/Documents/PhD_2021/Malaria_codes/scripts/../data/pdbqt_ligands/ligand_168_temp.pdb
REMARK                            x       y       z     vdW  Elec       q    Type
REMARK                         _______ _______ _______ _____ _____    ______ ____
ROOT
ATOM      1  C1  UNL     1      18.920  25.926  16.709  0.00  0.00    -0.039 C 
ATOM      2  C2  UNL     1      17.497  25.612  16.344  0.00  0.00    -0.036 A 
ATOM      3  C3  UNL     1      16.796  24.647  17.085  0.00  0.00    -0.017 A 
ATOM      4  C4  UNL     1      15.481  24.323  16.760  0.00  0.00    +0.117 A 
ATOM      5  O1  UNL     1      14.857  23.380  17.521  0.00  0.00    -0.507 OA
ATOM      6  C5  UNL     1      14.835  24.937  15.695  0.00  0.00    -0.019 A 
ATOM      7  C6  UNL     1      15.518  25.893  14.941  0.00  0.00    -0.047 A 
ATOM      8  C7  UNL     1      16.842  26.237  15.265  0.00  0.00    +0.025 A 
ATOM      9  C8  UNL     1      17.544  27.245  14.429  0.00  0.00    +0.186 C 
ATOM     10  O2  UNL     1      18.653  27.013  13.962  0.00  0.00    -0.287 OA
ATOM     11  C9  UNL     1      16.836  28.538  14.219  0.00  0.00    -0.014 C 
ATOM     12  C10 UNL     1      17.367  29.456  13.397  0.00  0.00    -0.051 C 
ATOM     13  C11 UNL     1      16.770  30.773  13.138  0.00  0.00    -0.024 A 
ATOM     14  C12 UNL     1      15.383  30.959  13.033  0.00  0.00    -0.051 A 
ATOM     15  C13 UNL     1      14.854  32.224  12.762  0.00  0.00    -0.019 A 
ATOM     16  C14 UNL     1      15.709  33.305  12.583  0.00  0.00    +0.131 A 
ATOM     17  O3  UNL     1      15.134  34.517  12.320  0.00  0.00    -0.506 OA
ATOM     18  C15 UNL     1      17.089  33.132  12.668  0.00  0.00    +0.060 A 
ATOM     19 BR1  UNL     1      18.266  34.596  12.419  0.00  0.00    -0.047 Br
ATOM     20  C16 UNL     1      17.621  31.870  12.940  0.00  0.00    -0.037 A 
ATOM     21  H   UNL     1      15.312  22.979  18.236  0.00  0.00    +0.000 HD
ATOM     22  H   UNL     1      14.202  34.592  12.271  0.00  0.00    +0.000 HD
ENDROOT
TORSDOF 0
ENDMDL
MODEL 4
REMARK VINA RESULT:    -3.227     21.949     23.705
REMARK INTER + INTRA:          -3.227
REMARK INTER:                  -3.227
REMARK INTRA:                   0.000
REMARK UNBOUND:                 0.000
REMARK  Name = /home/vital/Documents/PhD_2021/Malaria_codes/scripts/../data/pdbqt_ligands/ligand_168_temp.pdb
REMARK                            x       y       z     vdW  Elec       q    Type
REMARK                         _______ _______ _______ _____ _____    ______ ____
ROOT
ATOM      1  C1  UNL     1      17.743  32.215  18.056  0.00  0.00    -0.039 C 
ATOM      2  C2  UNL     1      16.972  32.462  16.790  0.00  0.00    -0.036 A 
ATOM      3  C3  UNL     1      17.249  33.612  16.033  0.00  0.00    -0.017 A 
ATOM      4  C4  UNL     1      16.540  33.877  14.864  0.00  0.00    +0.117 A 
ATOM      5  O1  UNL     1      16.859  35.008  14.175  0.00  0.00    -0.507 OA
ATOM      6  C5  UNL     1      15.541  33.018  14.422  0.00  0.00    -0.019 A 
ATOM      7  C6  UNL     1      15.248  31.873  15.166  0.00  0.00    -0.047 A 
ATOM      8  C7  UNL     1      15.962  31.589  16.342  0.00  0.00    +0.025 A 
ATOM      9  C8  UNL     1      15.609  30.372  17.118  0.00  0.00    +0.186 C 
ATOM     10  O2  UNL     1      15.384  30.435  18.320  0.00  0.00    -0.287 OA
ATOM     11  C9  UNL     1      15.569  29.093  16.357  0.00  0.00    -0.014 C 
ATOM     12  C10 UNL     1      15.163  27.971  16.972  0.00  0.00    -0.051 C 
ATOM     13  C11 UNL     1      15.110  26.652  16.327  0.00  0.00    -0.024 A 
ATOM     14  C12 UNL     1      14.720  26.487  14.989  0.00  0.00    -0.051 A 
ATOM     15  C13 UNL     1      14.658  25.212  14.419  0.00  0.00    -0.019 A 
ATOM     16  C14 UNL     1      14.976  24.098  15.185  0.00  0.00    +0.131 A 
ATOM     17  O3  UNL     1      14.898  22.878  14.573  0.00  0.00    -0.506 OA
ATOM     18  C15 UNL     1      15.350  24.244  16.520  0.00  0.00    +0.060 A 
ATOM     19 BR1  UNL     1      15.778  22.732  17.578  0.00  0.00    -0.047 Br
ATOM     20  C16 UNL     1      15.412  25.517  17.093  0.00  0.00    -0.037 A 
ATOM     21  H   UNL     1      17.536  35.574  14.492  0.00  0.00    +0.000 HD
ATOM     22  H   UNL     1      14.643  22.821  13.674  0.00  0.00    +0.000 HD
ENDROOT
TORSDOF 0
ENDMDL
MODEL 5
REMARK VINA RESULT:    -2.856     18.768     20.136
REMARK INTER + INTRA:          -2.856
REMARK INTER:                  -2.856
REMARK INTRA:                   0.000
REMARK UNBOUND:                 0.000
REMARK  Name = /home/vital/Documents/PhD_2021/Malaria_codes/scripts/../data/pdbqt_ligands/ligand_168_temp.pdb
REMARK                            x       y       z     vdW  Elec       q    Type
REMARK                         _______ _______ _______ _____ _____    ______ ____
ROOT
ATOM      1  C1  UNL     1      17.564  32.755  16.710  0.00  0.00    -0.039 C 
ATOM      2  C2  UNL     1      16.380  33.159  17.542  0.00  0.00    -0.036 A 
ATOM      3  C3  UNL     1      16.104  32.459  18.727  0.00  0.00    -0.017 A 
ATOM      4  C4  UNL     1      15.003  32.799  19.510  0.00  0.00    +0.117 A 
ATOM      5  O1  UNL     1      14.794  32.082  20.649  0.00  0.00    -0.507 OA
ATOM      6  C5  UNL     1      14.150  33.830  19.136  0.00  0.00    -0.019 A 
ATOM      7  C6  UNL     1      14.404  34.532  17.957  0.00  0.00    -0.047 A 
ATOM      8  C7  UNL     1      15.517  34.206  17.163  0.00  0.00    +0.025 A 
ATOM      9  C8  UNL     1      15.745  34.962  15.905  0.00  0.00    +0.186 C 
ATOM     10  O2  UNL     1      15.927  34.378  14.843  0.00  0.00    -0.287 OA
ATOM     11  C9  UNL     1      15.759  36.447  16.020  0.00  0.00    -0.014 C 
ATOM     12  C10 UNL     1      15.863  37.195  14.910  0.00  0.00    -0.051 C 
ATOM     13  C11 UNL     1      15.914  38.662  14.909  0.00  0.00    -0.024 A 
ATOM     14  C12 UNL     1      15.150  39.440  15.793  0.00  0.00    -0.051 A 
ATOM     15  C13 UNL     1      15.207  40.835  15.744  0.00  0.00    -0.019 A 
ATOM     16  C14 UNL     1      16.019  41.460  14.805  0.00  0.00    +0.131 A 
ATOM     17  O3  UNL     1      16.034  42.827  14.805  0.00  0.00    -0.506 OA
ATOM     18  C15 UNL     1      16.771  40.701  13.910  0.00  0.00    +0.060 A 
ATOM     19 BR1  UNL     1      17.877  41.540  12.619  0.00  0.00    -0.047 Br
ATOM     20  C16 UNL     1      16.716  39.306  13.956  0.00  0.00    -0.037 A 
ATOM     21  H   UNL     1      15.382  31.390  20.883  0.00  0.00    +0.000 HD
ATOM     22  H   UNL     1      15.514  43.301  15.423  0.00  0.00    +0.000 HD
ENDROOT
TORSDOF 0
ENDMDL
MODEL 6
REMARK VINA RESULT:    -2.851     21.357     22.307
REMARK INTER + INTRA:          -2.851
REMARK INTER:                  -2.851
REMARK INTRA:                   0.000
REMARK UNBOUND:                 0.000
REMARK  Name = /home/vital/Documents/PhD_2021/Malaria_codes/scripts/../data/pdbqt_ligands/ligand_168_temp.pdb
REMARK                            x       y       z     vdW  Elec       q    Type
REMARK                         _______ _______ _______ _____ _____    ______ ____
ROOT
ATOM      1  C1  UNL     1      16.655  26.613  14.264  0.00  0.00    -0.039 C 
ATOM      2  C2  UNL     1      15.631  26.586  15.364  0.00  0.00    -0.036 A 
ATOM      3  C3  UNL     1      15.313  25.362  15.974  0.00  0.00    -0.017 A 
ATOM      4  C4  UNL     1      14.356  25.302  16.984  0.00  0.00    +0.117 A 
ATOM      5  O1  UNL     1      14.097  24.084  17.536  0.00  0.00    -0.507 OA
ATOM      6  C5  UNL     1      13.690  26.446  17.407  0.00  0.00    -0.019 A 
ATOM      7  C6  UNL     1      13.988  27.670  16.806  0.00  0.00    -0.047 A 
ATOM      8  C7  UNL     1      14.958  27.746  15.793  0.00  0.00    +0.025 A 
ATOM      9  C8  UNL     1      15.235  29.063  15.163  0.00  0.00    +0.186 C 
ATOM     10  O2  UNL     1      15.226  29.193  13.945  0.00  0.00    -0.287 OA
ATOM     11  C9  UNL     1      15.538  30.188  16.091  0.00  0.00    -0.014 C 
ATOM     12  C10 UNL     1      15.702  31.425  15.598  0.00  0.00    -0.051 C 
ATOM     13  C11 UNL     1      16.031  32.600  16.415  0.00  0.00    -0.024 A 
ATOM     14  C12 UNL     1      15.494  32.795  17.697  0.00  0.00    -0.051 A 
ATOM     15  C13 UNL     1      15.812  33.939  18.435  0.00  0.00    -0.019 A 
ATOM     16  C14 UNL     1      16.657  34.898  17.891  0.00  0.00    +0.131 A 
ATOM     17  O3  UNL     1      16.932  35.994  18.659  0.00  0.00    -0.506 OA
ATOM     18  C15 UNL     1      17.186  34.726  16.613  0.00  0.00    +0.060 A 
ATOM     19 BR1  UNL     1      18.335  36.029  15.855  0.00  0.00    -0.047 Br
ATOM     20  C16 UNL     1      16.871  33.583  15.873  0.00  0.00    -0.037 A 
ATOM     21  H   UNL     1      14.559  23.326  17.236  0.00  0.00    +0.000 HD
ATOM     22  H   UNL     1      16.557  36.073  19.513  0.00  0.00    +0.000 HD
ENDROOT
TORSDOF 0
ENDMDL
MODEL 7
REMARK VINA RESULT:    -2.833     13.126     16.316
REMARK INTER + INTRA:          -2.833
REMARK INTER:                  -2.833
REMARK INTRA:                   0.000
REMARK UNBOUND:                 0.000
REMARK  Name = /home/vital/Documents/PhD_2021/Malaria_codes/scripts/../data/pdbqt_ligands/ligand_168_temp.pdb
REMARK                            x       y       z     vdW  Elec       q    Type
REMARK                         _______ _______ _______ _____ _____    ______ ____
ROOT
ATOM      1  C1  UNL     1      24.264  44.276  18.315  0.00  0.00    -0.039 C 
ATOM      2  C2  UNL     1      23.650  45.114  17.228  0.00  0.00    -0.036 A 
ATOM      3  C3  UNL     1      24.470  45.976  16.482  0.00  0.00    -0.017 A 
ATOM      4  C4  UNL     1      23.928  46.777  15.480  0.00  0.00    +0.117 A 
ATOM      5  O1  UNL     1      24.778  47.588  14.792  0.00  0.00    -0.507 OA
ATOM      6  C5  UNL     1      22.567  46.749  15.200  0.00  0.00    -0.019 A 
ATOM      7  C6  UNL     1      21.735  45.904  15.937  0.00  0.00    -0.047 A 
ATOM      8  C7  UNL     1      22.272  45.083  16.943  0.00  0.00    +0.025 A 
ATOM      9  C8  UNL     1      21.353  44.211  17.720  0.00  0.00    +0.186 C 
ATOM     10  O2  UNL     1      21.366  44.216  18.945  0.00  0.00    -0.287 OA
ATOM     11  C9  UNL     1      20.450  43.332  16.928  0.00  0.00    -0.014 C 
ATOM     12  C10 UNL     1      19.528  42.589  17.561  0.00  0.00    -0.051 C 
ATOM     13  C11 UNL     1      18.606  41.669  16.883  0.00  0.00    -0.024 A 
ATOM     14  C12 UNL     1      18.031  41.966  15.638  0.00  0.00    -0.051 A 
ATOM     15  C13 UNL     1      17.138  41.075  15.036  0.00  0.00    -0.019 A 
ATOM     16  C14 UNL     1      16.806  39.890  15.681  0.00  0.00    +0.131 A 
ATOM     17  O3  UNL     1      15.929  39.058  15.044  0.00  0.00    -0.506 OA
ATOM     18  C15 UNL     1      17.357  39.588  16.925  0.00  0.00    +0.060 A 
ATOM     19 BR1  UNL     1      16.908  37.979  17.820  0.00  0.00    -0.047 Br
ATOM     20  C16 UNL     1      18.250  40.477  17.529  0.00  0.00    -0.037 A 
ATOM     21  H   UNL     1      25.693  47.591  14.997  0.00  0.00    +0.000 HD
ATOM     22  H   UNL     1      15.581  39.296  14.208  0.00  0.00    +0.000 HD
ENDROOT
TORSDOF 0
ENDMDL
MODEL 8
REMARK VINA RESULT:    -2.794     20.524     22.080
REMARK INTER + INTRA:          -2.794
REMARK INTER:                  -2.794
REMARK INTRA:                   0.000
REMARK UNBOUND:                 0.000
REMARK  Name = /home/vital/Documents/PhD_2021/Malaria_codes/scripts/../data/pdbqt_ligands/ligand_168_temp.pdb
REMARK                            x       y       z     vdW  Elec       q    Type
REMARK                         _______ _______ _______ _____ _____    ______ ____
ROOT
ATOM      1  C1  UNL     1      17.123  35.091  16.677  0.00  0.00    -0.039 C 
ATOM      2  C2  UNL     1      17.508  34.979  15.229  0.00  0.00    -0.036 A 
ATOM      3  C3  UNL     1      18.499  35.832  14.715  0.00  0.00    -0.017 A 
ATOM      4  C4  UNL     1      18.864  35.764  13.373  0.00  0.00    +0.117 A 
ATOM      5  O1  UNL     1      19.834  36.616  12.940  0.00  0.00    -0.507 OA
ATOM      6  C5  UNL     1      18.256  34.861  12.510  0.00  0.00    -0.019 A 
ATOM      7  C6  UNL     1      17.263  34.011  13.001  0.00  0.00    -0.047 A 
ATOM      8  C7  UNL     1      16.892  34.062  14.356  0.00  0.00    +0.025 A 
ATOM      9  C8  UNL     1      15.818  33.156  14.838  0.00  0.00    +0.186 C 
ATOM     10  O2  UNL     1      14.864  33.591  15.473  0.00  0.00    -0.287 OA
ATOM     11  C9  UNL     1      15.983  31.710  14.525  0.00  0.00    -0.014 C 
ATOM     12  C10 UNL     1      15.005  30.848  14.845  0.00  0.00    -0.051 C 
ATOM     13  C11 UNL     1      15.074  29.400  14.608  0.00  0.00    -0.024 A 
ATOM     14  C12 UNL     1      15.667  28.856  13.458  0.00  0.00    -0.051 A 
ATOM     15  C13 UNL     1      15.690  27.474  13.256  0.00  0.00    -0.019 A 
ATOM     16  C14 UNL     1      15.113  26.629  14.197  0.00  0.00    +0.131 A 
ATOM     17  O3  UNL     1      15.167  25.287  13.946  0.00  0.00    -0.506 OA
ATOM     18  C15 UNL     1      14.507  27.156  15.336  0.00  0.00    +0.060 A 
ATOM     19 BR1  UNL     1      13.709  26.016  16.623  0.00  0.00    -0.047 Br
ATOM     20  C16 UNL     1      14.481  28.537  15.541  0.00  0.00    -0.037 A 
ATOM     21  H   UNL     1      20.232  37.218  13.539  0.00  0.00    +0.000 HD
ATOM     22  H   UNL     1      15.584  24.972  13.168  0.00  0.00    +0.000 HD
ENDROOT
TORSDOF 0
ENDMDL
MODEL 9
REMARK VINA RESULT:    -2.672     21.498     23.153
REMARK INTER + INTRA:          -2.672
REMARK INTER:                  -2.672
REMARK INTRA:                   0.000
REMARK UNBOUND:                 0.000
REMARK  Name = /home/vital/Documents/PhD_2021/Malaria_codes/scripts/../data/pdbqt_ligands/ligand_168_temp.pdb
REMARK                            x       y       z     vdW  Elec       q    Type
REMARK                         _______ _______ _______ _____ _____    ______ ____
ROOT
ATOM      1  C1  UNL     1      18.424  32.979  16.331  0.00  0.00    -0.039 C 
ATOM      2  C2  UNL     1      17.474  33.071  15.170  0.00  0.00    -0.036 A 
ATOM      3  C3  UNL     1      17.669  34.071  14.203  0.00  0.00    -0.017 A 
ATOM      4  C4  UNL     1      16.795  34.193  13.125  0.00  0.00    +0.117 A 
ATOM      5  O1  UNL     1      17.044  35.181  12.221  0.00  0.00    -0.507 OA
ATOM      6  C5  UNL     1      15.709  33.338  12.984  0.00  0.00    -0.019 A 
ATOM      7  C6  UNL     1      15.494  32.344  13.940  0.00  0.00    -0.047 A 
ATOM      8  C7  UNL     1      16.374  32.203  15.027  0.00  0.00    +0.025 A 
ATOM      9  C8  UNL     1      16.103  31.146  16.035  0.00  0.00    +0.186 C 
ATOM     10  O2  UNL     1      16.072  31.410  17.232  0.00  0.00    -0.287 OA
ATOM     11  C9  UNL     1      15.897  29.769  15.509  0.00  0.00    -0.014 C 
ATOM     12  C10 UNL     1      15.552  28.783  16.353  0.00  0.00    -0.051 C 
ATOM     13  C11 UNL     1      15.351  27.386  15.948  0.00  0.00    -0.024 A 
ATOM     14  C12 UNL     1      14.749  27.038  14.729  0.00  0.00    -0.051 A 
ATOM     15  C13 UNL     1      14.552  25.697  14.390  0.00  0.00    -0.019 A 
ATOM     16  C14 UNL     1      14.945  24.698  15.273  0.00  0.00    +0.131 A 
ATOM     17  O3  UNL     1      14.727  23.405  14.887  0.00  0.00    -0.506 OA
ATOM     18  C15 UNL     1      15.529  25.028  16.494  0.00  0.00    +0.060 A 
ATOM     19 BR1  UNL     1      16.063  23.676  17.710  0.00  0.00    -0.047 Br
ATOM     20  C16 UNL     1      15.727  26.368  16.836  0.00  0.00    -0.037 A 
ATOM     21  H   UNL     1      17.783  35.746  12.335  0.00  0.00    +0.000 HD
ATOM     22  H   UNL     1      14.331  23.224  14.058  0.00  0.00    +0.000 HD
ENDROOT
TORSDOF 0
ENDMDL
