MODEL 1
REMARK VINA RESULT:    -4.530      0.000      0.000
REMARK INTER + INTRA:          -4.530
REMARK INTER:                  -4.530
REMARK INTRA:                   0.000
REMARK UNBOUND:                 0.000
REMARK  Name = /home/vital/Documents/PhD_2021/Malaria_codes/scripts/../data/pdbqt_ligands/ligand_67_temp.pdb
REMARK                            x       y       z     vdW  Elec       q    Type
REMARK                         _______ _______ _______ _____ _____    ______ ____
ROOT
ATOM      1  C1  UNL     1      14.752  31.984  12.314  0.00  0.00    -0.055 C 
ATOM      2  C2  UNL     1      14.814  31.678  13.616  0.00  0.00    +0.135 C 
ATOM      3  O1  UNL     1      14.497  32.632  14.572  0.00  0.00    -0.485 OA
ATOM      4  C3  UNL     1      15.672  33.209  15.175  0.00  0.00    +0.131 C 
ATOM      5  C4  UNL     1      16.450  32.106  15.890  0.00  0.00    +0.075 C 
ATOM      6  N1  UNL     1      15.865  31.626  16.923  0.00  0.00    -0.266 NA
ATOM      7  C5  UNL     1      16.097  30.292  17.413  0.00  0.00    +0.103 C 
ATOM      8  N2  UNL     1      14.802  29.608  17.534  0.00  0.00    -0.324 N 
ATOM      9  C6  UNL     1      14.639  28.417  16.802  0.00  0.00    +0.051 A 
ATOM     10  C7  UNL     1      14.909  27.192  17.431  0.00  0.00    -0.019 A 
ATOM     11  C8  UNL     1      14.813  25.985  16.730  0.00  0.00    +0.061 A 
ATOM     12 CL1  UNL     1      15.166  24.529  17.593  0.00  0.00    -0.082 Cl
ATOM     13  C9  UNL     1      14.455  25.986  15.379  0.00  0.00    +0.061 A 
ATOM     14 CL2  UNL     1      14.337  24.534  14.450  0.00  0.00    -0.082 Cl
ATOM     15  C10 UNL     1      14.194  27.195  14.733  0.00  0.00    -0.019 A 
ATOM     16  C11 UNL     1      14.270  28.411  15.431  0.00  0.00    +0.054 A 
ATOM     17  N3  UNL     1      14.051  29.616  14.689  0.00  0.00    -0.310 N 
ATOM     18  C12 UNL     1      15.114  30.312  14.090  0.00  0.00    +0.073 C 
ATOM     19  C13 UNL     1      16.384  29.841  14.094  0.00  0.00    -0.037 C 
ATOM     20  C14 UNL     1      17.570  30.666  14.216  0.00  0.00    -0.058 C 
ATOM     21  C15 UNL     1      17.665  31.639  15.140  0.00  0.00    -0.037 C 
ATOM     22  H   UNL     1      14.081  29.966  18.100  0.00  0.00    +0.000 HD
ATOM     23  H   UNL     1      13.135  29.964  14.596  0.00  0.00    +0.000 HD
ENDROOT
TORSDOF 0
ENDMDL
MODEL 2
REMARK VINA RESULT:    -4.152      3.678      6.103
REMARK INTER + INTRA:          -4.152
REMARK INTER:                  -4.152
REMARK INTRA:                   0.000
REMARK UNBOUND:                 0.000
REMARK  Name = /home/vital/Documents/PhD_2021/Malaria_codes/scripts/../data/pdbqt_ligands/ligand_67_temp.pdb
REMARK                            x       y       z     vdW  Elec       q    Type
REMARK                         _______ _______ _______ _____ _____    ______ ____
ROOT
ATOM      1  C1  UNL     1      17.405  26.887  19.978  0.00  0.00    -0.055 C 
ATOM      2  C2  UNL     1      16.532  26.799  18.967  0.00  0.00    +0.135 C 
ATOM      3  O1  UNL     1      15.522  25.850  18.999  0.00  0.00    -0.485 OA
ATOM      4  C3  UNL     1      15.819  24.711  18.169  0.00  0.00    +0.131 C 
ATOM      5  C4  UNL     1      15.942  25.178  16.719  0.00  0.00    +0.075 C 
ATOM      6  N1  UNL     1      14.844  25.575  16.193  0.00  0.00    -0.266 NA
ATOM      7  C5  UNL     1      14.786  26.525  15.112  0.00  0.00    +0.103 C 
ATOM      8  N2  UNL     1      13.892  27.623  15.505  0.00  0.00    -0.324 N 
ATOM      9  C6  UNL     1      14.439  28.919  15.511  0.00  0.00    +0.051 A 
ATOM     10  C7  UNL     1      14.294  29.723  14.370  0.00  0.00    -0.019 A 
ATOM     11  C8  UNL     1      14.866  30.998  14.308  0.00  0.00    +0.061 A 
ATOM     12 CL1  UNL     1      14.630  31.910  12.858  0.00  0.00    -0.082 Cl
ATOM     13  C9  UNL     1      15.606  31.487  15.388  0.00  0.00    +0.061 A 
ATOM     14 CL2  UNL     1      16.354  33.044  15.370  0.00  0.00    -0.082 Cl
ATOM     15  C10 UNL     1      15.771  30.699  16.527  0.00  0.00    -0.019 A 
ATOM     16  C11 UNL     1      15.187  29.424  16.607  0.00  0.00    +0.054 A 
ATOM     17  N3  UNL     1      15.451  28.647  17.780  0.00  0.00    -0.310 N 
ATOM     18  C12 UNL     1      16.535  27.754  17.839  0.00  0.00    +0.073 C 
ATOM     19  C13 UNL     1      17.443  27.646  16.840  0.00  0.00    -0.037 C 
ATOM     20  C14 UNL     1      18.070  26.407  16.425  0.00  0.00    -0.058 C 
ATOM     21  C15 UNL     1      17.361  25.280  16.236  0.00  0.00    -0.037 C 
ATOM     22  H   UNL     1      12.953  27.460  15.753  0.00  0.00    +0.000 HD
ATOM     23  H   UNL     1      14.861  28.739  18.563  0.00  0.00    +0.000 HD
ENDROOT
TORSDOF 0
ENDMDL
MODEL 3
REMARK VINA RESULT:    -4.011      3.564      5.737
REMARK INTER + INTRA:          -4.011
REMARK INTER:                  -4.011
REMARK INTRA:                   0.000
REMARK UNBOUND:                 0.000
REMARK  Name = /home/vital/Documents/PhD_2021/Malaria_codes/scripts/../data/pdbqt_ligands/ligand_67_temp.pdb
REMARK                            x       y       z     vdW  Elec       q    Type
REMARK                         _______ _______ _______ _____ _____    ______ ____
ROOT
ATOM      1  C1  UNL     1      14.450  24.894  14.241  0.00  0.00    -0.055 C 
ATOM      2  C2  UNL     1      15.285  25.692  14.917  0.00  0.00    +0.135 C 
ATOM      3  O1  UNL     1      16.384  25.157  15.572  0.00  0.00    -0.485 OA
ATOM      4  C3  UNL     1      16.165  25.038  16.992  0.00  0.00    +0.131 C 
ATOM      5  C4  UNL     1      15.938  26.432  17.573  0.00  0.00    +0.075 C 
ATOM      6  N1  UNL     1      16.970  27.191  17.555  0.00  0.00    -0.266 NA
ATOM      7  C5  UNL     1      16.891  28.629  17.521  0.00  0.00    +0.103 C 
ATOM      8  N2  UNL     1      17.689  29.113  16.386  0.00  0.00    -0.324 N 
ATOM      9  C6  UNL     1      17.019  29.883  15.418  0.00  0.00    +0.051 A 
ATOM     10  C7  UNL     1      17.039  31.281  15.531  0.00  0.00    -0.019 A 
ATOM     11  C8  UNL     1      16.343  32.088  14.624  0.00  0.00    +0.061 A 
ATOM     12 CL1  UNL     1      16.429  33.800  14.848  0.00  0.00    -0.082 Cl
ATOM     13  C9  UNL     1      15.604  31.505  13.591  0.00  0.00    +0.061 A 
ATOM     14 CL2  UNL     1      14.708  32.441  12.449  0.00  0.00    -0.082 Cl
ATOM     15  C10 UNL     1      15.563  30.115  13.469  0.00  0.00    -0.019 A 
ATOM     16  C11 UNL     1      16.271  29.297  14.363  0.00  0.00    +0.054 A 
ATOM     17  N3  UNL     1      16.132  27.879  14.216  0.00  0.00    -0.310 N 
ATOM     18  C12 UNL     1      15.144  27.163  14.913  0.00  0.00    +0.073 C 
ATOM     19  C13 UNL     1      14.211  27.773  15.682  0.00  0.00    -0.037 C 
ATOM     20  C14 UNL     1      13.690  27.241  16.925  0.00  0.00    -0.058 C 
ATOM     21  C15 UNL     1      14.497  26.735  17.874  0.00  0.00    -0.037 C 
ATOM     22  H   UNL     1      18.649  28.907  16.306  0.00  0.00    +0.000 HD
ATOM     23  H   UNL     1      16.742  27.395  13.613  0.00  0.00    +0.000 HD
ENDROOT
TORSDOF 0
ENDMDL
MODEL 4
REMARK VINA RESULT:    -3.897      4.145      6.357
REMARK INTER + INTRA:          -3.897
REMARK INTER:                  -3.897
REMARK INTRA:                   0.000
REMARK UNBOUND:                 0.000
REMARK  Name = /home/vital/Documents/PhD_2021/Malaria_codes/scripts/../data/pdbqt_ligands/ligand_67_temp.pdb
REMARK                            x       y       z     vdW  Elec       q    Type
REMARK                         _______ _______ _______ _____ _____    ______ ____
ROOT
ATOM      1  C1  UNL     1      16.260  28.622  15.362  0.00  0.00    -0.055 C 
ATOM      2  C2  UNL     1      16.351  27.298  15.536  0.00  0.00    +0.135 C 
ATOM      3  O1  UNL     1      16.475  26.457  14.441  0.00  0.00    -0.485 OA
ATOM      4  C3  UNL     1      15.230  25.813  14.105  0.00  0.00    +0.131 C 
ATOM      5  C4  UNL     1      14.793  24.945  15.283  0.00  0.00    +0.075 C 
ATOM      6  N1  UNL     1      15.537  23.924  15.497  0.00  0.00    -0.266 NA
ATOM      7  C5  UNL     1      15.672  23.304  16.790  0.00  0.00    +0.103 C 
ATOM      8  N2  UNL     1      17.101  23.230  17.124  0.00  0.00    -0.324 N 
ATOM      9  C6  UNL     1      17.512  23.866  18.310  0.00  0.00    +0.051 A 
ATOM     10  C7  UNL     1      17.592  23.114  19.491  0.00  0.00    -0.019 A 
ATOM     11  C8  UNL     1      17.944  23.714  20.706  0.00  0.00    +0.061 A 
ATOM     12 CL1  UNL     1      18.014  22.702  22.106  0.00  0.00    -0.082 Cl
ATOM     13  C9  UNL     1      18.213  25.084  20.759  0.00  0.00    +0.061 A 
ATOM     14 CL2  UNL     1      18.635  25.890  22.227  0.00  0.00    -0.082 Cl
ATOM     15  C10 UNL     1      18.128  25.851  19.596  0.00  0.00    -0.019 A 
ATOM     16  C11 UNL     1      17.792  25.257  18.369  0.00  0.00    +0.054 A 
ATOM     17  N3  UNL     1      17.663  26.116  17.231  0.00  0.00    -0.310 N 
ATOM     18  C12 UNL     1      16.427  26.685  16.878  0.00  0.00    +0.073 C 
ATOM     19  C13 UNL     1      15.316  26.537  17.639  0.00  0.00    -0.037 C 
ATOM     20  C14 UNL     1      13.972  26.391  17.116  0.00  0.00    -0.058 C 
ATOM     21  C15 UNL     1      13.691  25.550  16.105  0.00  0.00    -0.037 C 
ATOM     22  H   UNL     1      17.742  22.757  16.546  0.00  0.00    +0.000 HD
ATOM     23  H   UNL     1      18.457  26.313  16.683  0.00  0.00    +0.000 HD
ENDROOT
TORSDOF 0
ENDMDL
MODEL 5
REMARK VINA RESULT:    -3.825      3.537      6.034
REMARK INTER + INTRA:          -3.825
REMARK INTER:                  -3.825
REMARK INTRA:                   0.000
REMARK UNBOUND:                 0.000
REMARK  Name = /home/vital/Documents/PhD_2021/Malaria_codes/scripts/../data/pdbqt_ligands/ligand_67_temp.pdb
REMARK                            x       y       z     vdW  Elec       q    Type
REMARK                         _______ _______ _______ _____ _____    ______ ____
ROOT
ATOM      1  C1  UNL     1      17.479  24.871  17.192  0.00  0.00    -0.055 C 
ATOM      2  C2  UNL     1      16.617  25.871  16.970  0.00  0.00    +0.135 C 
ATOM      3  O1  UNL     1      15.553  26.079  17.835  0.00  0.00    -0.485 OA
ATOM      4  C3  UNL     1      14.313  25.573  17.303  0.00  0.00    +0.131 C 
ATOM      5  C4  UNL     1      13.989  26.323  16.013  0.00  0.00    +0.075 C 
ATOM      6  N1  UNL     1      13.690  27.558  16.176  0.00  0.00    -0.266 NA
ATOM      7  C5  UNL     1      13.882  28.557  15.157  0.00  0.00    +0.103 C 
ATOM      8  N2  UNL     1      14.677  29.656  15.725  0.00  0.00    -0.324 N 
ATOM      9  C6  UNL     1      15.891  29.962  15.083  0.00  0.00    +0.051 A 
ATOM     10  C7  UNL     1      15.907  30.969  14.107  0.00  0.00    -0.019 A 
ATOM     11  C8  UNL     1      17.078  31.273  13.404  0.00  0.00    +0.061 A 
ATOM     12 CL1  UNL     1      16.996  32.530  12.220  0.00  0.00    -0.082 Cl
ATOM     13  C9  UNL     1      18.254  30.562  13.660  0.00  0.00    +0.061 A 
ATOM     14 CL2  UNL     1      19.728  30.873  12.815  0.00  0.00    -0.082 Cl
ATOM     15  C10 UNL     1      18.255  29.549  14.619  0.00  0.00    -0.019 A 
ATOM     16  C11 UNL     1      17.090  29.247  15.343  0.00  0.00    +0.054 A 
ATOM     17  N3  UNL     1      17.149  28.154  16.266  0.00  0.00    -0.310 N 
ATOM     18  C12 UNL     1      16.808  26.847  15.877  0.00  0.00    +0.073 C 
ATOM     19  C13 UNL     1      16.502  26.527  14.598  0.00  0.00    -0.037 C 
ATOM     20  C14 UNL     1      15.499  25.556  14.208  0.00  0.00    -0.058 C 
ATOM     21  C15 UNL     1      14.275  25.535  14.766  0.00  0.00    -0.037 C 
ATOM     22  H   UNL     1      14.374  30.154  16.518  0.00  0.00    +0.000 HD
ATOM     23  H   UNL     1      17.434  28.321  17.194  0.00  0.00    +0.000 HD
ENDROOT
TORSDOF 0
ENDMDL
MODEL 6
REMARK VINA RESULT:    -3.805      4.176      5.714
REMARK INTER + INTRA:          -3.805
REMARK INTER:                  -3.805
REMARK INTRA:                   0.000
REMARK UNBOUND:                 0.000
REMARK  Name = /home/vital/Documents/PhD_2021/Malaria_codes/scripts/../data/pdbqt_ligands/ligand_67_temp.pdb
REMARK                            x       y       z     vdW  Elec       q    Type
REMARK                         _______ _______ _______ _____ _____    ______ ____
ROOT
ATOM      1  C1  UNL     1      17.661  27.275  14.246  0.00  0.00    -0.055 C 
ATOM      2  C2  UNL     1      16.902  26.940  15.296  0.00  0.00    +0.135 C 
ATOM      3  O1  UNL     1      16.786  25.612  15.677  0.00  0.00    -0.485 OA
ATOM      4  C3  UNL     1      15.544  25.027  15.240  0.00  0.00    +0.131 C 
ATOM      5  C4  UNL     1      14.388  25.779  15.897  0.00  0.00    +0.075 C 
ATOM      6  N1  UNL     1      14.296  25.611  17.164  0.00  0.00    -0.266 NA
ATOM      7  C5  UNL     1      13.693  26.577  18.045  0.00  0.00    +0.103 C 
ATOM      8  N2  UNL     1      14.651  26.895  19.114  0.00  0.00    -0.324 N 
ATOM      9  C6  UNL     1      15.030  28.243  19.249  0.00  0.00    +0.051 A 
ATOM     10  C7  UNL     1      14.337  29.055  20.158  0.00  0.00    -0.019 A 
ATOM     11  C8  UNL     1      14.642  30.415  20.290  0.00  0.00    +0.061 A 
ATOM     12 CL1  UNL     1      13.730  31.331  21.437  0.00  0.00    -0.082 Cl
ATOM     13  C9  UNL     1      15.644  30.987  19.501  0.00  0.00    +0.061 A 
ATOM     14 CL2  UNL     1      16.058  32.662  19.600  0.00  0.00    -0.082 Cl
ATOM     15  C10 UNL     1      16.338  30.198  18.583  0.00  0.00    -0.019 A 
ATOM     16  C11 UNL     1      16.052  28.830  18.455  0.00  0.00    +0.054 A 
ATOM     17  N3  UNL     1      16.759  28.096  17.449  0.00  0.00    -0.310 N 
ATOM     18  C12 UNL     1      16.245  27.953  16.148  0.00  0.00    +0.073 C 
ATOM     19  C13 UNL     1      15.112  28.573  15.743  0.00  0.00    -0.037 C 
ATOM     20  C14 UNL     1      14.137  28.000  14.836  0.00  0.00    -0.058 C 
ATOM     21  C15 UNL     1      13.690  26.740  14.977  0.00  0.00    -0.037 C 
ATOM     22  H   UNL     1      15.012  26.197  19.707  0.00  0.00    +0.000 HD
ATOM     23  H   UNL     1      17.624  27.683  17.672  0.00  0.00    +0.000 HD
ENDROOT
TORSDOF 0
ENDMDL
MODEL 7
REMARK VINA RESULT:    -3.683      3.949      5.454
REMARK INTER + INTRA:          -3.683
REMARK INTER:                  -3.683
REMARK INTRA:                   0.000
REMARK UNBOUND:                 0.000
REMARK  Name = /home/vital/Documents/PhD_2021/Malaria_codes/scripts/../data/pdbqt_ligands/ligand_67_temp.pdb
REMARK                            x       y       z     vdW  Elec       q    Type
REMARK                         _______ _______ _______ _____ _____    ______ ____
ROOT
ATOM      1  C1  UNL     1      15.700  28.664  13.128  0.00  0.00    -0.055 C 
ATOM      2  C2  UNL     1      15.674  27.582  13.916  0.00  0.00    +0.135 C 
ATOM      3  O1  UNL     1      14.950  26.462  13.537  0.00  0.00    -0.485 OA
ATOM      4  C3  UNL     1      13.690  26.368  14.230  0.00  0.00    +0.131 C 
ATOM      5  C4  UNL     1      13.960  26.236  15.727  0.00  0.00    +0.075 C 
ATOM      6  N1  UNL     1      14.504  25.129  16.074  0.00  0.00    -0.266 NA
ATOM      7  C5  UNL     1      15.322  24.988  17.252  0.00  0.00    +0.103 C 
ATOM      8  N2  UNL     1      16.611  24.402  16.857  0.00  0.00    -0.324 N 
ATOM      9  C6  UNL     1      17.767  25.146  17.157  0.00  0.00    +0.051 A 
ATOM     10  C7  UNL     1      18.451  24.883  18.352  0.00  0.00    -0.019 A 
ATOM     11  C8  UNL     1      19.575  25.631  18.719  0.00  0.00    +0.061 A 
ATOM     12 CL1  UNL     1      20.350  25.229  20.212  0.00  0.00    -0.082 Cl
ATOM     13  C9  UNL     1      20.026  26.667  17.898  0.00  0.00    +0.061 A 
ATOM     14 CL2  UNL     1      21.395  27.642  18.301  0.00  0.00    -0.082 Cl
ATOM     15  C10 UNL     1      19.352  26.952  16.710  0.00  0.00    -0.019 A 
ATOM     16  C11 UNL     1      18.234  26.197  16.323  0.00  0.00    +0.054 A 
ATOM     17  N3  UNL     1      17.554  26.586  15.124  0.00  0.00    -0.310 N 
ATOM     18  C12 UNL     1      16.478  27.489  15.152  0.00  0.00    +0.073 C 
ATOM     19  C13 UNL     1      16.084  28.116  16.286  0.00  0.00    -0.037 C 
ATOM     20  C14 UNL     1      14.708  28.417  16.627  0.00  0.00    -0.058 C 
ATOM     21  C15 UNL     1      13.729  27.505  16.497  0.00  0.00    -0.037 C 
ATOM     22  H   UNL     1      16.663  23.531  16.402  0.00  0.00    +0.000 HD
ATOM     23  H   UNL     1      17.847  26.212  14.261  0.00  0.00    +0.000 HD
ENDROOT
TORSDOF 0
ENDMDL
MODEL 8
REMARK VINA RESULT:    -3.606      3.759      5.425
REMARK INTER + INTRA:          -3.606
REMARK INTER:                  -3.606
REMARK INTRA:                   0.000
REMARK UNBOUND:                 0.000
REMARK  Name = /home/vital/Documents/PhD_2021/Malaria_codes/scripts/../data/pdbqt_ligands/ligand_67_temp.pdb
REMARK                            x       y       z     vdW  Elec       q    Type
REMARK                         _______ _______ _______ _____ _____    ______ ____
ROOT
ATOM      1  C1  UNL     1      14.689  24.480  14.219  0.00  0.00    -0.055 C 
ATOM      2  C2  UNL     1      14.767  25.265  15.300  0.00  0.00    +0.135 C 
ATOM      3  O1  UNL     1      13.690  26.059  15.664  0.00  0.00    -0.485 OA
ATOM      4  C3  UNL     1      13.876  27.436  15.281  0.00  0.00    +0.131 C 
ATOM      5  C4  UNL     1      15.100  27.989  16.008  0.00  0.00    +0.075 C 
ATOM      6  N1  UNL     1      14.955  28.113  17.275  0.00  0.00    -0.266 NA
ATOM      7  C5  UNL     1      16.056  28.076  18.202  0.00  0.00    +0.103 C 
ATOM      8  N2  UNL     1      15.771  27.061  19.225  0.00  0.00    -0.324 N 
ATOM      9  C6  UNL     1      16.703  26.016  19.364  0.00  0.00    +0.051 A 
ATOM     10  C7  UNL     1      17.721  26.138  20.320  0.00  0.00    -0.019 A 
ATOM     11  C8  UNL     1      18.702  25.149  20.459  0.00  0.00    +0.061 A 
ATOM     12 CL1  UNL     1      19.916  25.391  21.667  0.00  0.00    -0.082 Cl
ATOM     13  C9  UNL     1      18.685  24.024  19.631  0.00  0.00    +0.061 A 
ATOM     14 CL2  UNL     1      19.876  22.776  19.736  0.00  0.00    -0.082 Cl
ATOM     15  C10 UNL     1      17.686  23.890  18.665  0.00  0.00    -0.019 A 
ATOM     16  C11 UNL     1      16.687  24.867  18.529  0.00  0.00    +0.054 A 
ATOM     17  N3  UNL     1      15.732  24.695  17.476  0.00  0.00    -0.310 N 
ATOM     18  C12 UNL     1      15.938  25.250  16.201  0.00  0.00    +0.073 C 
ATOM     19  C13 UNL     1      17.083  25.890  15.864  0.00  0.00    -0.037 C 
ATOM     20  C14 UNL     1      17.155  27.050  14.998  0.00  0.00    -0.058 C 
ATOM     21  C15 UNL     1      16.322  28.095  15.141  0.00  0.00    -0.037 C 
ATOM     22  H   UNL     1      14.964  27.110  19.788  0.00  0.00    +0.000 HD
ATOM     23  H   UNL     1      14.913  24.177  17.649  0.00  0.00    +0.000 HD
ENDROOT
TORSDOF 0
ENDMDL
