MODEL 1
REMARK VINA RESULT:    -3.261      0.000      0.000
REMARK INTER + INTRA:          -3.261
REMARK INTER:                  -3.261
REMARK INTRA:                   0.000
REMARK UNBOUND:                 0.000
REMARK  Name = /home/vital/Documents/PhD_2021/Malaria_codes/scripts/../data/pdbqt_ligands/ligand_259_temp.pdb
REMARK                            x       y       z     vdW  Elec       q    Type
REMARK                         _______ _______ _______ _____ _____    ______ ____
ROOT
ATOM      1  C1  UNL     1      19.509  47.589  19.080  0.00  0.00    -0.050 C 
ATOM      2  C2  UNL     1      20.266  46.603  19.958  0.00  0.00    +0.009 C 
ATOM      3  N1  UNL     1      19.862  45.234  19.699  0.00  0.00    -0.314 N 
ATOM      4  C3  UNL     1      20.304  44.651  18.521  0.00  0.00    +0.221 A 
ATOM      5  N2  UNL     1      19.478  43.767  17.984  0.00  0.00    -0.181 NA
ATOM      6  C4  UNL     1      19.896  43.201  16.864  0.00  0.00    +0.221 A 
ATOM      7  N3  UNL     1      19.031  42.260  16.309  0.00  0.00    -0.312 N 
ATOM      8  C5  UNL     1      19.042  42.199  14.854  0.00  0.00    +0.031 C 
ATOM      9  C6  UNL     1      18.080  41.127  14.364  0.00  0.00    +0.081 C 
ATOM     10  S1  UNL     1      16.408  41.748  14.349  0.00  0.00    -0.027 S 
ATOM     11  O1  UNL     1      16.306  42.679  13.240  0.00  0.00    -0.174 OA
ATOM     12  O2  UNL     1      16.084  42.188  15.694  0.00  0.00    -0.174 OA
ATOM     13  C7  UNL     1      15.364  40.329  13.966  0.00  0.00    +0.071 C 
ATOM     14  C8  UNL     1      15.353  39.304  15.096  0.00  0.00    -0.043 C 
ATOM     15  C9  UNL     1      15.744  39.683  12.639  0.00  0.00    -0.043 C 
ATOM     16  N4  UNL     1      21.049  43.478  16.270  0.00  0.00    -0.181 NA
ATOM     17  C10 UNL     1      21.810  44.374  16.880  0.00  0.00    +0.221 A 
ATOM     18  N5  UNL     1      23.013  44.634  16.249  0.00  0.00    -0.309 N 
ATOM     19  C11 UNL     1      23.691  45.929  16.335  0.00  0.00    +0.026 C 
ATOM     20  C12 UNL     1      22.767  47.082  15.921  0.00  0.00    -0.044 C 
ATOM     21  C13 UNL     1      24.278  46.164  17.734  0.00  0.00    -0.044 C 
ATOM     22  C14 UNL     1      24.868  45.873  15.338  0.00  0.00    -0.044 C 
ATOM     23  N6  UNL     1      21.472  44.991  17.999  0.00  0.00    -0.181 NA
ATOM     24  H   UNL     1      19.297  44.738  20.335  0.00  0.00    +0.000 HD
ATOM     25  H   UNL     1      18.455  41.681  16.859  0.00  0.00    +0.000 HD
ATOM     26  H   UNL     1      23.431  43.917  15.719  0.00  0.00    +0.000 HD
ENDROOT
TORSDOF 0
ENDMDL
MODEL 2
REMARK VINA RESULT:    -2.750      6.823      9.569
REMARK INTER + INTRA:          -2.750
REMARK INTER:                  -2.750
REMARK INTRA:                   0.000
REMARK UNBOUND:                 0.000
REMARK  Name = /home/vital/Documents/PhD_2021/Malaria_codes/scripts/../data/pdbqt_ligands/ligand_259_temp.pdb
REMARK                            x       y       z     vdW  Elec       q    Type
REMARK                         _______ _______ _______ _____ _____    ______ ____
ROOT
ATOM      1  C1  UNL     1      32.210  47.590  17.501  0.00  0.00    -0.050 C 
ATOM      2  C2  UNL     1      32.131  46.419  18.470  0.00  0.00    +0.009 C 
ATOM      3  N1  UNL     1      30.763  45.981  18.671  0.00  0.00    -0.314 N 
ATOM      4  C3  UNL     1      30.162  45.275  17.640  0.00  0.00    +0.221 A 
ATOM      5  N2  UNL     1      28.856  45.454  17.518  0.00  0.00    -0.181 NA
ATOM      6  C4  UNL     1      28.275  44.778  16.541  0.00  0.00    +0.221 A 
ATOM      7  N3  UNL     1      26.899  44.958  16.425  0.00  0.00    -0.312 N 
ATOM      8  C5  UNL     1      26.385  44.898  15.064  0.00  0.00    +0.031 C 
ATOM      9  C6  UNL     1      24.875  45.085  15.062  0.00  0.00    +0.081 C 
ATOM     10  S1  UNL     1      24.459  46.816  15.168  0.00  0.00    -0.027 S 
ATOM     11  O1  UNL     1      24.771  47.412  13.881  0.00  0.00    -0.174 OA
ATOM     12  O2  UNL     1      25.066  47.346  16.375  0.00  0.00    -0.174 OA
ATOM     13  C7  UNL     1      22.670  46.877  15.377  0.00  0.00    +0.071 C 
ATOM     14  C8  UNL     1      22.231  46.322  16.728  0.00  0.00    -0.043 C 
ATOM     15  C9  UNL     1      21.939  46.185  14.232  0.00  0.00    -0.043 C 
ATOM     16  N4  UNL     1      28.915  43.974  15.703  0.00  0.00    -0.181 NA
ATOM     17  C10 UNL     1      30.219  43.855  15.902  0.00  0.00    +0.221 A 
ATOM     18  N5  UNL     1      30.861  43.000  15.025  0.00  0.00    -0.309 N 
ATOM     19  C11 UNL     1      32.262  43.170  14.633  0.00  0.00    +0.026 C 
ATOM     20  C12 UNL     1      32.532  44.577  14.085  0.00  0.00    -0.044 C 
ATOM     21  C13 UNL     1      33.213  42.831  15.790  0.00  0.00    -0.044 C 
ATOM     22  C14 UNL     1      32.524  42.153  13.501  0.00  0.00    -0.044 C 
ATOM     23  N6  UNL     1      30.883  44.494  16.849  0.00  0.00    -0.181 NA
ATOM     24  H   UNL     1      30.280  46.176  19.506  0.00  0.00    +0.000 HD
ATOM     25  H   UNL     1      26.317  45.114  17.204  0.00  0.00    +0.000 HD
ATOM     26  H   UNL     1      30.354  42.245  14.647  0.00  0.00    +0.000 HD
ENDROOT
TORSDOF 0
ENDMDL
MODEL 3
REMARK VINA RESULT:    -2.619     13.671     16.588
REMARK INTER + INTRA:          -2.619
REMARK INTER:                  -2.619
REMARK INTRA:                   0.000
REMARK UNBOUND:                 0.000
REMARK  Name = /home/vital/Documents/PhD_2021/Malaria_codes/scripts/../data/pdbqt_ligands/ligand_259_temp.pdb
REMARK                            x       y       z     vdW  Elec       q    Type
REMARK                         _______ _______ _______ _____ _____    ______ ____
ROOT
ATOM      1  C1  UNL     1      38.690  40.122  18.431  0.00  0.00    -0.050 C 
ATOM      2  C2  UNL     1      37.673  39.168  19.039  0.00  0.00    +0.009 C 
ATOM      3  N1  UNL     1      36.312  39.576  18.746  0.00  0.00    -0.314 N 
ATOM      4  C3  UNL     1      35.851  39.376  17.453  0.00  0.00    +0.221 A 
ATOM      5  N2  UNL     1      34.975  40.270  17.021  0.00  0.00    -0.181 NA
ATOM      6  C4  UNL     1      34.525  40.081  15.792  0.00  0.00    +0.221 A 
ATOM      7  N3  UNL     1      33.593  41.015  15.346  0.00  0.00    -0.312 N 
ATOM      8  C5  UNL     1      33.654  41.310  13.921  0.00  0.00    +0.031 C 
ATOM      9  C6  UNL     1      32.581  42.322  13.546  0.00  0.00    +0.081 C 
ATOM     10  S1  UNL     1      33.118  43.977  13.936  0.00  0.00    -0.027 S 
ATOM     11  O1  UNL     1      34.132  44.339  12.962  0.00  0.00    -0.174 OA
ATOM     12  O2  UNL     1      33.429  44.022  15.353  0.00  0.00    -0.174 OA
ATOM     13  C7  UNL     1      31.687  45.035  13.651  0.00  0.00    +0.071 C 
ATOM     14  C8  UNL     1      30.572  44.776  14.659  0.00  0.00    -0.043 C 
ATOM     15  C9  UNL     1      31.172  44.925  12.220  0.00  0.00    -0.043 C 
ATOM     16  N4  UNL     1      34.906  39.089  14.999  0.00  0.00    -0.181 NA
ATOM     17  C10 UNL     1      35.785  38.243  15.516  0.00  0.00    +0.221 A 
ATOM     18  N5  UNL     1      36.155  37.210  14.675  0.00  0.00    -0.309 N 
ATOM     19  C11 UNL     1      37.470  36.569  14.737  0.00  0.00    +0.026 C 
ATOM     20  C12 UNL     1      38.607  37.594  14.631  0.00  0.00    -0.044 C 
ATOM     21  C13 UNL     1      37.616  35.706  15.999  0.00  0.00    -0.044 C 
ATOM     22  C14 UNL     1      37.554  35.628  13.516  0.00  0.00    -0.044 C 
ATOM     23  N6  UNL     1      36.290  38.355  16.732  0.00  0.00    -0.181 NA
ATOM     24  H   UNL     1      35.738  39.978  19.437  0.00  0.00    +0.000 HD
ATOM     25  H   UNL     1      32.943  41.444  15.948  0.00  0.00    +0.000 HD
ATOM     26  H   UNL     1      35.506  36.891  14.006  0.00  0.00    +0.000 HD
ENDROOT
TORSDOF 0
ENDMDL
MODEL 4
REMARK VINA RESULT:    -2.612      6.423      8.522
REMARK INTER + INTRA:          -2.612
REMARK INTER:                  -2.612
REMARK INTRA:                   0.000
REMARK UNBOUND:                 0.000
REMARK  Name = /home/vital/Documents/PhD_2021/Malaria_codes/scripts/../data/pdbqt_ligands/ligand_259_temp.pdb
REMARK                            x       y       z     vdW  Elec       q    Type
REMARK                         _______ _______ _______ _____ _____    ______ ____
ROOT
ATOM      1  C1  UNL     1      15.720  38.758  19.711  0.00  0.00    -0.050 C 
ATOM      2  C2  UNL     1      17.228  38.906  19.579  0.00  0.00    +0.009 C 
ATOM      3  N1  UNL     1      17.821  37.773  18.896  0.00  0.00    -0.314 N 
ATOM      4  C3  UNL     1      17.627  37.682  17.526  0.00  0.00    +0.221 A 
ATOM      5  N2  UNL     1      17.557  36.450  17.046  0.00  0.00    -0.181 NA
ATOM      6  C4  UNL     1      17.380  36.355  15.738  0.00  0.00    +0.221 A 
ATOM      7  N3  UNL     1      17.322  35.057  15.235  0.00  0.00    -0.312 N 
ATOM      8  C5  UNL     1      16.437  34.882  14.091  0.00  0.00    +0.031 C 
ATOM      9  C6  UNL     1      16.471  33.437  13.616  0.00  0.00    +0.081 C 
ATOM     10  S1  UNL     1      15.406  32.423  14.624  0.00  0.00    -0.027 S 
ATOM     11  O1  UNL     1      14.038  32.754  14.271  0.00  0.00    -0.174 OA
ATOM     12  O2  UNL     1      15.847  32.546  16.001  0.00  0.00    -0.174 OA
ATOM     13  C7  UNL     1      15.708  30.725  14.098  0.00  0.00    +0.071 C 
ATOM     14  C8  UNL     1      17.109  30.250  14.470  0.00  0.00    -0.043 C 
ATOM     15  C9  UNL     1      15.438  30.533  12.611  0.00  0.00    -0.043 C 
ATOM     16  N4  UNL     1      17.258  37.392  14.922  0.00  0.00    -0.181 NA
ATOM     17  C10 UNL     1      17.342  38.586  15.491  0.00  0.00    +0.221 A 
ATOM     18  N5  UNL     1      17.226  39.651  14.617  0.00  0.00    -0.309 N 
ATOM     19  C11 UNL     1      16.677  40.949  15.016  0.00  0.00    +0.026 C 
ATOM     20  C12 UNL     1      15.289  40.806  15.654  0.00  0.00    -0.044 C 
ATOM     21  C13 UNL     1      17.639  41.705  15.942  0.00  0.00    -0.044 C 
ATOM     22  C14 UNL     1      16.529  41.776  13.720  0.00  0.00    -0.044 C 
ATOM     23  N6  UNL     1      17.515  38.775  16.788  0.00  0.00    -0.181 NA
ATOM     24  H   UNL     1      18.342  37.095  19.385  0.00  0.00    +0.000 HD
ATOM     25  H   UNL     1      17.839  34.315  15.623  0.00  0.00    +0.000 HD
ATOM     26  H   UNL     1      17.526  39.532  13.687  0.00  0.00    +0.000 HD
ENDROOT
TORSDOF 0
ENDMDL
MODEL 5
REMARK VINA RESULT:    -2.396     14.216     17.131
REMARK INTER + INTRA:          -2.396
REMARK INTER:                  -2.396
REMARK INTRA:                   0.000
REMARK UNBOUND:                 0.000
REMARK  Name = /home/vital/Documents/PhD_2021/Malaria_codes/scripts/../data/pdbqt_ligands/ligand_259_temp.pdb
REMARK                            x       y       z     vdW  Elec       q    Type
REMARK                         _______ _______ _______ _____ _____    ______ ____
ROOT
ATOM      1  C1  UNL     1      15.278  30.821  13.846  0.00  0.00    -0.050 C 
ATOM      2  C2  UNL     1      15.626  30.069  12.569  0.00  0.00    +0.009 C 
ATOM      3  N1  UNL     1      17.059  29.897  12.421  0.00  0.00    -0.314 N 
ATOM      4  C3  UNL     1      17.676  28.963  13.239  0.00  0.00    +0.221 A 
ATOM      5  N2  UNL     1      18.921  29.250  13.585  0.00  0.00    -0.181 NA
ATOM      6  C4  UNL     1      19.520  28.359  14.358  0.00  0.00    +0.221 A 
ATOM      7  N3  UNL     1      20.834  28.658  14.708  0.00  0.00    -0.312 N 
ATOM      8  C5  UNL     1      21.234  28.203  16.033  0.00  0.00    +0.031 C 
ATOM      9  C6  UNL     1      22.689  28.563  16.296  0.00  0.00    +0.081 C 
ATOM     10  S1  UNL     1      22.828  30.264  16.813  0.00  0.00    -0.027 S 
ATOM     11  O1  UNL     1      22.317  30.344  18.170  0.00  0.00    -0.174 OA
ATOM     12  O2  UNL     1      22.248  31.094  15.773  0.00  0.00    -0.174 OA
ATOM     13  C7  UNL     1      24.595  30.613  16.876  0.00  0.00    +0.071 C 
ATOM     14  C8  UNL     1      25.230  30.609  15.488  0.00  0.00    -0.043 C 
ATOM     15  C9  UNL     1      25.329  29.669  17.820  0.00  0.00    -0.043 C 
ATOM     16  N4  UNL     1      18.949  27.246  14.797  0.00  0.00    -0.181 NA
ATOM     17  C10 UNL     1      17.702  27.041  14.399  0.00  0.00    +0.221 A 
ATOM     18  N5  UNL     1      17.135  25.867  14.858  0.00  0.00    -0.309 N 
ATOM     19  C11 UNL     1      15.697  25.719  15.093  0.00  0.00    +0.026 C 
ATOM     20  C12 UNL     1      15.158  26.812  16.026  0.00  0.00    -0.044 C 
ATOM     21  C13 UNL     1      14.914  25.679  13.773  0.00  0.00    -0.044 C 
ATOM     22  C14 UNL     1      15.507  24.354  15.790  0.00  0.00    -0.044 C 
ATOM     23  N6  UNL     1      17.027  27.877  13.630  0.00  0.00    -0.181 NA
ATOM     24  H   UNL     1      17.572  30.423  11.766  0.00  0.00    +0.000 HD
ATOM     25  H   UNL     1      21.446  29.140  14.107  0.00  0.00    +0.000 HD
ATOM     26  H   UNL     1      17.723  25.097  15.035  0.00  0.00    +0.000 HD
ENDROOT
TORSDOF 0
ENDMDL
MODEL 6
REMARK VINA RESULT:    -2.285      4.975      8.109
REMARK INTER + INTRA:          -2.285
REMARK INTER:                  -2.285
REMARK INTRA:                   0.000
REMARK UNBOUND:                 0.000
REMARK  Name = /home/vital/Documents/PhD_2021/Malaria_codes/scripts/../data/pdbqt_ligands/ligand_259_temp.pdb
REMARK                            x       y       z     vdW  Elec       q    Type
REMARK                         _______ _______ _______ _____ _____    ______ ____
ROOT
ATOM      1  C1  UNL     1      18.714  43.096  24.589  0.00  0.00    -0.050 C 
ATOM      2  C2  UNL     1      19.078  44.424  25.238  0.00  0.00    +0.009 C 
ATOM      3  N1  UNL     1      19.863  45.258  24.348  0.00  0.00    -0.314 N 
ATOM      4  C3  UNL     1      19.199  45.862  23.290  0.00  0.00    +0.221 A 
ATOM      5  N2  UNL     1      19.921  46.030  22.194  0.00  0.00    -0.181 NA
ATOM      6  C4  UNL     1      19.298  46.613  21.183  0.00  0.00    +0.221 A 
ATOM      7  N3  UNL     1      20.064  46.802  20.036  0.00  0.00    -0.312 N 
ATOM      8  C5  UNL     1      19.328  46.705  18.783  0.00  0.00    +0.031 C 
ATOM      9  C6  UNL     1      20.259  46.949  17.604  0.00  0.00    +0.081 C 
ATOM     10  S1  UNL     1      21.170  45.468  17.210  0.00  0.00    -0.027 S 
ATOM     11  O1  UNL     1      20.240  44.544  16.587  0.00  0.00    -0.174 OA
ATOM     12  O2  UNL     1      21.901  45.066  18.398  0.00  0.00    -0.174 OA
ATOM     13  C7  UNL     1      22.375  45.954  15.960  0.00  0.00    +0.071 C 
ATOM     14  C8  UNL     1      23.440  46.889  16.524  0.00  0.00    -0.043 C 
ATOM     15  C9  UNL     1      21.708  46.557  14.730  0.00  0.00    -0.043 C 
ATOM     16  N4  UNL     1      18.031  47.005  21.210  0.00  0.00    -0.181 NA
ATOM     17  C10 UNL     1      17.388  46.797  22.350  0.00  0.00    +0.221 A 
ATOM     18  N5  UNL     1      16.075  47.227  22.358  0.00  0.00    -0.309 N 
ATOM     19  C11 UNL     1      15.036  46.594  23.174  0.00  0.00    +0.026 C 
ATOM     20  C12 UNL     1      14.958  45.083  22.921  0.00  0.00    -0.044 C 
ATOM     21  C13 UNL     1      15.233  46.897  24.667  0.00  0.00    -0.044 C 
ATOM     22  C14 UNL     1      13.696  47.226  22.742  0.00  0.00    -0.044 C 
ATOM     23  N6  UNL     1      17.930  46.220  23.409  0.00  0.00    -0.181 NA
ATOM     24  H   UNL     1      20.828  45.391  24.490  0.00  0.00    +0.000 HD
ATOM     25  H   UNL     1      21.031  46.987  20.069  0.00  0.00    +0.000 HD
ATOM     26  H   UNL     1      15.826  47.992  21.790  0.00  0.00    +0.000 HD
ENDROOT
TORSDOF 0
ENDMDL
MODEL 7
REMARK VINA RESULT:    -2.110     10.017     12.997
REMARK INTER + INTRA:          -2.110
REMARK INTER:                  -2.110
REMARK INTRA:                   0.000
REMARK UNBOUND:                 0.000
REMARK  Name = /home/vital/Documents/PhD_2021/Malaria_codes/scripts/../data/pdbqt_ligands/ligand_259_temp.pdb
REMARK                            x       y       z     vdW  Elec       q    Type
REMARK                         _______ _______ _______ _____ _____    ______ ____
ROOT
ATOM      1  C1  UNL     1      15.236  46.513  23.304  0.00  0.00    -0.050 C 
ATOM      2  C2  UNL     1      16.742  46.731  23.295  0.00  0.00    +0.009 C 
ATOM      3  N1  UNL     1      17.290  46.749  24.637  0.00  0.00    -0.314 N 
ATOM      4  C3  UNL     1      17.386  45.536  25.303  0.00  0.00    +0.221 A 
ATOM      5  N2  UNL     1      17.236  45.600  26.617  0.00  0.00    -0.181 NA
ATOM      6  C4  UNL     1      17.335  44.448  27.260  0.00  0.00    +0.221 A 
ATOM      7  N3  UNL     1      17.191  44.520  28.643  0.00  0.00    -0.312 N 
ATOM      8  C5  UNL     1      16.560  43.359  29.255  0.00  0.00    +0.031 C 
ATOM      9  C6  UNL     1      16.476  43.539  30.764  0.00  0.00    +0.081 C 
ATOM     10  S1  UNL     1      15.076  44.556  31.195  0.00  0.00    -0.027 S 
ATOM     11  O1  UNL     1      13.883  43.755  30.988  0.00  0.00    -0.174 OA
ATOM     12  O2  UNL     1      15.221  45.827  30.508  0.00  0.00    -0.174 OA
ATOM     13  C7  UNL     1      15.223  44.866  32.964  0.00  0.00    +0.071 C 
ATOM     14  C8  UNL     1      16.421  45.751  33.294  0.00  0.00    -0.043 C 
ATOM     15  C9  UNL     1      15.256  43.571  33.768  0.00  0.00    -0.043 C 
ATOM     16  N4  UNL     1      17.552  43.279  26.672  0.00  0.00    -0.181 NA
ATOM     17  C10 UNL     1      17.691  43.313  25.355  0.00  0.00    +0.221 A 
ATOM     18  N5  UNL     1      17.931  42.085  24.768  0.00  0.00    -0.309 N 
ATOM     19  C11 UNL     1      17.513  41.761  23.403  0.00  0.00    +0.026 C 
ATOM     20  C12 UNL     1      16.014  42.015  23.193  0.00  0.00    -0.044 C 
ATOM     21  C13 UNL     1      18.354  42.516  22.364  0.00  0.00    -0.044 C 
ATOM     22  C14 UNL     1      17.777  40.253  23.211  0.00  0.00    -0.044 C 
ATOM     23  N6  UNL     1      17.605  44.416  24.632  0.00  0.00    -0.181 NA
ATOM     24  H   UNL     1      17.582  47.589  25.060  0.00  0.00    +0.000 HD
ATOM     25  H   UNL     1      17.492  45.297  29.167  0.00  0.00    +0.000 HD
ATOM     26  H   UNL     1      18.405  41.397  25.291  0.00  0.00    +0.000 HD
ENDROOT
TORSDOF 0
ENDMDL
MODEL 8
REMARK VINA RESULT:    -2.058     13.044     15.324
REMARK INTER + INTRA:          -2.058
REMARK INTER:                  -2.058
REMARK INTRA:                   0.000
REMARK UNBOUND:                 0.000
REMARK  Name = /home/vital/Documents/PhD_2021/Malaria_codes/scripts/../data/pdbqt_ligands/ligand_259_temp.pdb
REMARK                            x       y       z     vdW  Elec       q    Type
REMARK                         _______ _______ _______ _____ _____    ______ ____
ROOT
ATOM      1  C1  UNL     1      31.072  41.499  19.475  0.00  0.00    -0.050 C 
ATOM      2  C2  UNL     1      32.270  42.379  19.798  0.00  0.00    +0.009 C 
ATOM      3  N1  UNL     1      33.502  41.825  19.272  0.00  0.00    -0.314 N 
ATOM      4  C3  UNL     1      33.704  41.909  17.902  0.00  0.00    +0.221 A 
ATOM      5  N2  UNL     1      34.393  40.911  17.371  0.00  0.00    -0.181 NA
ATOM      6  C4  UNL     1      34.598  40.989  16.066  0.00  0.00    +0.221 A 
ATOM      7  N3  UNL     1      35.335  39.945  15.513  0.00  0.00    -0.312 N 
ATOM      8  C5  UNL     1      34.960  39.583  14.153  0.00  0.00    +0.031 C 
ATOM      9  C6  UNL     1      35.843  38.452  13.647  0.00  0.00    +0.081 C 
ATOM     10  S1  UNL     1      35.257  36.881  14.253  0.00  0.00    -0.027 S 
ATOM     11  O1  UNL     1      34.039  36.569  13.528  0.00  0.00    -0.174 OA
ATOM     12  O2  UNL     1      35.239  36.942  15.703  0.00  0.00    -0.174 OA
ATOM     13  C7  UNL     1      36.504  35.673  13.767  0.00  0.00    +0.071 C 
ATOM     14  C8  UNL     1      37.819  35.875  14.513  0.00  0.00    -0.043 C 
ATOM     15  C9  UNL     1      36.723  35.656  12.258  0.00  0.00    -0.043 C 
ATOM     16  N4  UNL     1      34.149  41.970  15.295  0.00  0.00    -0.181 NA
ATOM     17  C10 UNL     1      33.471  42.925  15.914  0.00  0.00    +0.221 A 
ATOM     18  N5  UNL     1      33.027  43.944  15.092  0.00  0.00    -0.309 N 
ATOM     19  C11 UNL     1      31.812  44.714  15.367  0.00  0.00    +0.026 C 
ATOM     20  C12 UNL     1      30.593  43.802  15.562  0.00  0.00    -0.044 C 
ATOM     21  C13 UNL     1      32.001  45.652  16.567  0.00  0.00    -0.044 C 
ATOM     22  C14 UNL     1      31.561  45.592  14.122  0.00  0.00    -0.044 C 
ATOM     23  N6  UNL     1      33.217  42.928  17.212  0.00  0.00    -0.181 NA
ATOM     24  H   UNL     1      34.168  41.405  19.862  0.00  0.00    +0.000 HD
ATOM     25  H   UNL     1      36.056  39.488  16.003  0.00  0.00    +0.000 HD
ATOM     26  H   UNL     1      33.550  44.161  14.286  0.00  0.00    +0.000 HD
ENDROOT
TORSDOF 0
ENDMDL
