MODEL 1
REMARK VINA RESULT:    -3.057      0.000      0.000
REMARK INTER + INTRA:          -3.057
REMARK INTER:                  -3.057
REMARK INTRA:                   0.000
REMARK UNBOUND:                 0.000
REMARK  Name = /home/vital/Documents/PhD_2021/Malaria_codes/scripts/../data/pdbqt_ligands/ligand_235_temp.pdb
REMARK                            x       y       z     vdW  Elec       q    Type
REMARK                         _______ _______ _______ _____ _____    ______ ____
ROOT
ATOM      1  C   UNL     1      33.097  42.140  20.082  0.00  0.00    -0.022 C 
ATOM      2  C   UNL     1      33.428  42.351  18.633  0.00  0.00    +0.041 A 
ATOM      3  C   UNL     1      34.233  41.440  17.960  0.00  0.00    -0.019 A 
ATOM      4  C   UNL     1      34.559  41.659  16.619  0.00  0.00    +0.038 A 
ATOM      5  N   UNL     1      35.349  40.764  15.873  0.00  0.00    -0.341 N 
ATOM      6  C   UNL     1      35.994  39.585  16.447  0.00  0.00    +0.016 C 
ATOM      7  C   UNL     1      37.313  39.977  17.110  0.00  0.00    -0.047 C 
ATOM      8  C   UNL     1      36.202  38.583  15.289  0.00  0.00    -0.050 C 
ATOM      9  C   UNL     1      36.638  37.207  15.782  0.00  0.00    -0.090 C 
ATOM     10  N   UNL     1      36.713  36.178  14.669  0.00  0.00    +0.376 N 
ATOM     11  C   UNL     1      37.744  36.481  13.618  0.00  0.00    -0.104 C 
ATOM     12  C   UNL     1      35.378  35.826  14.067  0.00  0.00    -0.104 C 
ATOM     13  C   UNL     1      33.978  42.789  15.972  0.00  0.00    +0.024 A 
ATOM     14  C   UNL     1      34.150  43.087  14.599  0.00  0.00    -0.016 A 
ATOM     15  C   UNL     1      33.565  44.213  14.033  0.00  0.00    +0.124 A 
ATOM     16  F   UNL     1      33.749  44.467  12.731  0.00  0.00    -0.205 F 
ATOM     17  C   UNL     1      32.795  45.068  14.798  0.00  0.00    -0.024 A 
ATOM     18  C   UNL     1      32.604  44.777  16.149  0.00  0.00    -0.033 A 
ATOM     19  C   UNL     1      33.171  43.657  16.746  0.00  0.00    +0.073 A 
ATOM     20  N   UNL     1      32.913  43.447  18.042  0.00  0.00    -0.252 NA
ATOM     21  H   UNL     1      35.475  40.942  14.913  0.00  0.00    +0.000 HD
ATOM     22  H   UNL     1      37.038  35.336  15.145  0.00  0.00    +0.000 HD
ENDROOT
TORSDOF 0
ENDMDL
MODEL 2
REMARK VINA RESULT:    -3.057     20.254     22.478
REMARK INTER + INTRA:          -3.057
REMARK INTER:                  -3.057
REMARK INTRA:                   0.000
REMARK UNBOUND:                 0.000
REMARK  Name = /home/vital/Documents/PhD_2021/Malaria_codes/scripts/../data/pdbqt_ligands/ligand_235_temp.pdb
REMARK                            x       y       z     vdW  Elec       q    Type
REMARK                         _______ _______ _______ _____ _____    ______ ____
ROOT
ATOM      1  C   UNL     1      17.462  24.017  19.592  0.00  0.00    -0.022 C 
ATOM      2  C   UNL     1      17.271  24.648  18.244  0.00  0.00    +0.041 A 
ATOM      3  C   UNL     1      18.320  25.326  17.635  0.00  0.00    -0.019 A 
ATOM      4  C   UNL     1      18.125  25.934  16.392  0.00  0.00    +0.038 A 
ATOM      5  N   UNL     1      19.153  26.616  15.711  0.00  0.00    -0.341 N 
ATOM      6  C   UNL     1      20.480  26.850  16.277  0.00  0.00    +0.016 C 
ATOM      7  C   UNL     1      20.455  28.081  17.182  0.00  0.00    -0.047 C 
ATOM      8  C   UNL     1      21.446  27.026  15.085  0.00  0.00    -0.050 C 
ATOM      9  C   UNL     1      22.909  27.030  15.518  0.00  0.00    -0.090 C 
ATOM     10  N   UNL     1      23.872  27.064  14.345  0.00  0.00    +0.376 N 
ATOM     11  C   UNL     1      23.784  28.312  13.511  0.00  0.00    -0.104 C 
ATOM     12  C   UNL     1      23.856  25.818  13.501  0.00  0.00    -0.104 C 
ATOM     13  C   UNL     1      16.859  25.762  15.761  0.00  0.00    +0.024 A 
ATOM     14  C   UNL     1      16.549  26.249  14.468  0.00  0.00    -0.016 A 
ATOM     15  C   UNL     1      15.288  26.057  13.916  0.00  0.00    +0.124 A 
ATOM     16  F   UNL     1      15.027  26.531  12.691  0.00  0.00    -0.205 F 
ATOM     17  C   UNL     1      14.307  25.382  14.615  0.00  0.00    -0.024 A 
ATOM     18  C   UNL     1      14.604  24.885  15.884  0.00  0.00    -0.033 A 
ATOM     19  C   UNL     1      15.856  25.053  16.465  0.00  0.00    +0.073 A 
ATOM     20  N   UNL     1      16.056  24.521  17.675  0.00  0.00    -0.252 NA
ATOM     21  H   UNL     1      18.966  26.953  14.805  0.00  0.00    +0.000 HD
ATOM     22  H   UNL     1      24.789  27.091  14.792  0.00  0.00    +0.000 HD
ENDROOT
TORSDOF 0
ENDMDL
MODEL 3
REMARK VINA RESULT:    -3.055     20.149     22.381
REMARK INTER + INTRA:          -3.055
REMARK INTER:                  -3.055
REMARK INTRA:                   0.000
REMARK UNBOUND:                 0.000
REMARK  Name = /home/vital/Documents/PhD_2021/Malaria_codes/scripts/../data/pdbqt_ligands/ligand_235_temp.pdb
REMARK                            x       y       z     vdW  Elec       q    Type
REMARK                         _______ _______ _______ _____ _____    ______ ____
ROOT
ATOM      1  C   UNL     1      15.986  29.879  12.333  0.00  0.00    -0.022 C 
ATOM      2  C   UNL     1      16.239  28.659  13.169  0.00  0.00    +0.041 A 
ATOM      3  C   UNL     1      17.507  28.414  13.682  0.00  0.00    -0.019 A 
ATOM      4  C   UNL     1      17.742  27.261  14.435  0.00  0.00    +0.038 A 
ATOM      5  N   UNL     1      18.996  26.967  15.003  0.00  0.00    -0.341 N 
ATOM      6  C   UNL     1      20.195  27.770  14.774  0.00  0.00    +0.016 C 
ATOM      7  C   UNL     1      20.855  27.366  13.457  0.00  0.00    -0.047 C 
ATOM      8  C   UNL     1      21.126  27.535  15.984  0.00  0.00    -0.050 C 
ATOM      9  C   UNL     1      22.308  28.500  16.005  0.00  0.00    -0.090 C 
ATOM     10  N   UNL     1      23.153  28.371  17.259  0.00  0.00    +0.376 N 
ATOM     11  C   UNL     1      23.829  27.037  17.413  0.00  0.00    -0.104 C 
ATOM     12  C   UNL     1      22.449  28.796  18.521  0.00  0.00    -0.104 C 
ATOM     13  C   UNL     1      16.630  26.412  14.710  0.00  0.00    +0.024 A 
ATOM     14  C   UNL     1      16.702  25.259  15.528  0.00  0.00    -0.016 A 
ATOM     15  C   UNL     1      15.580  24.467  15.745  0.00  0.00    +0.124 A 
ATOM     16  F   UNL     1      15.682  23.381  16.523  0.00  0.00    -0.205 F 
ATOM     17  C   UNL     1      14.366  24.789  15.170  0.00  0.00    -0.024 A 
ATOM     18  C   UNL     1      14.279  25.931  14.374  0.00  0.00    -0.033 A 
ATOM     19  C   UNL     1      15.379  26.749  14.140  0.00  0.00    +0.073 A 
ATOM     20  N   UNL     1      15.194  27.836  13.384  0.00  0.00    -0.252 NA
ATOM     21  H   UNL     1      19.070  26.177  15.586  0.00  0.00    +0.000 HD
ATOM     22  H   UNL     1      23.901  29.049  17.112  0.00  0.00    +0.000 HD
ENDROOT
TORSDOF 0
ENDMDL
MODEL 4
REMARK VINA RESULT:    -3.054      7.388      9.915
REMARK INTER + INTRA:          -3.054
REMARK INTER:                  -3.054
REMARK INTRA:                   0.000
REMARK UNBOUND:                 0.000
REMARK  Name = /home/vital/Documents/PhD_2021/Malaria_codes/scripts/../data/pdbqt_ligands/ligand_235_temp.pdb
REMARK                            x       y       z     vdW  Elec       q    Type
REMARK                         _______ _______ _______ _____ _____    ______ ____
ROOT
ATOM      1  C   UNL     1      24.232  45.089  21.312  0.00  0.00    -0.022 C 
ATOM      2  C   UNL     1      24.503  45.546  19.908  0.00  0.00    +0.041 A 
ATOM      3  C   UNL     1      25.808  45.611  19.434  0.00  0.00    -0.019 A 
ATOM      4  C   UNL     1      26.054  46.065  18.136  0.00  0.00    +0.038 A 
ATOM      5  N   UNL     1      27.349  46.132  17.588  0.00  0.00    -0.341 N 
ATOM      6  C   UNL     1      28.564  45.844  18.347  0.00  0.00    +0.016 C 
ATOM      7  C   UNL     1      28.990  47.075  19.145  0.00  0.00    -0.047 C 
ATOM      8  C   UNL     1      29.638  45.416  17.323  0.00  0.00    -0.050 C 
ATOM      9  C   UNL     1      30.885  44.846  17.991  0.00  0.00    -0.090 C 
ATOM     10  N   UNL     1      31.890  44.297  16.995  0.00  0.00    +0.376 N 
ATOM     11  C   UNL     1      32.470  45.331  16.070  0.00  0.00    -0.104 C 
ATOM     12  C   UNL     1      31.414  43.077  16.251  0.00  0.00    -0.104 C 
ATOM     13  C   UNL     1      24.928  46.373  17.318  0.00  0.00    +0.024 A 
ATOM     14  C   UNL     1      25.023  46.762  15.960  0.00  0.00    -0.016 A 
ATOM     15  C   UNL     1      23.884  47.061  15.221  0.00  0.00    +0.124 A 
ATOM     16  F   UNL     1      24.008  47.427  13.939  0.00  0.00    -0.205 F 
ATOM     17  C   UNL     1      22.630  46.982  15.795  0.00  0.00    -0.024 A 
ATOM     18  C   UNL     1      22.522  46.586  17.128  0.00  0.00    -0.033 A 
ATOM     19  C   UNL     1      23.639  46.274  17.895  0.00  0.00    +0.073 A 
ATOM     20  N   UNL     1      23.436  45.881  19.157  0.00  0.00    -0.252 NA
ATOM     21  H   UNL     1      27.441  46.388  16.641  0.00  0.00    +0.000 HD
ATOM     22  H   UNL     1      32.661  43.984  17.584  0.00  0.00    +0.000 HD
ENDROOT
TORSDOF 0
ENDMDL
MODEL 5
REMARK VINA RESULT:    -2.922     21.701     23.262
REMARK INTER + INTRA:          -2.922
REMARK INTER:                  -2.922
REMARK INTRA:                   0.000
REMARK UNBOUND:                 0.000
REMARK  Name = /home/vital/Documents/PhD_2021/Malaria_codes/scripts/../data/pdbqt_ligands/ligand_235_temp.pdb
REMARK                            x       y       z     vdW  Elec       q    Type
REMARK                         _______ _______ _______ _____ _____    ______ ____
ROOT
ATOM      1  C   UNL     1      15.186  25.722  13.973  0.00  0.00    -0.022 C 
ATOM      2  C   UNL     1      15.173  27.150  14.435  0.00  0.00    +0.041 A 
ATOM      3  C   UNL     1      15.180  27.446  15.793  0.00  0.00    -0.019 A 
ATOM      4  C   UNL     1      15.139  28.777  16.214  0.00  0.00    +0.038 A 
ATOM      5  N   UNL     1      15.168  29.144  17.573  0.00  0.00    -0.341 N 
ATOM      6  C   UNL     1      15.132  28.181  18.672  0.00  0.00    +0.016 C 
ATOM      7  C   UNL     1      13.690  27.767  18.960  0.00  0.00    -0.047 C 
ATOM      8  C   UNL     1      15.792  28.868  19.888  0.00  0.00    -0.050 C 
ATOM      9  C   UNL     1      16.050  27.897  21.035  0.00  0.00    -0.090 C 
ATOM     10  N   UNL     1      16.820  28.528  22.181  0.00  0.00    +0.376 N 
ATOM     11  C   UNL     1      16.093  29.648  22.871  0.00  0.00    -0.104 C 
ATOM     12  C   UNL     1      18.237  28.902  21.835  0.00  0.00    -0.104 C 
ATOM     13  C   UNL     1      15.169  29.790  15.212  0.00  0.00    +0.024 A 
ATOM     14  C   UNL     1      15.217  31.177  15.494  0.00  0.00    -0.016 A 
ATOM     15  C   UNL     1      15.232  32.114  14.467  0.00  0.00    +0.124 A 
ATOM     16  F   UNL     1      15.277  33.418  14.768  0.00  0.00    -0.205 F 
ATOM     17  C   UNL     1      15.203  31.714  13.146  0.00  0.00    -0.024 A 
ATOM     18  C   UNL     1      15.170  30.350  12.855  0.00  0.00    -0.033 A 
ATOM     19  C   UNL     1      15.160  29.386  13.856  0.00  0.00    +0.073 A 
ATOM     20  N   UNL     1      15.152  28.102  13.481  0.00  0.00    -0.252 NA
ATOM     21  H   UNL     1      15.215  30.103  17.796  0.00  0.00    +0.000 HD
ATOM     22  H   UNL     1      16.887  27.774  22.865  0.00  0.00    +0.000 HD
ENDROOT
TORSDOF 0
ENDMDL
MODEL 6
REMARK VINA RESULT:    -2.718     21.761     23.835
REMARK INTER + INTRA:          -2.718
REMARK INTER:                  -2.718
REMARK INTRA:                   0.000
REMARK UNBOUND:                 0.000
REMARK  Name = /home/vital/Documents/PhD_2021/Malaria_codes/scripts/../data/pdbqt_ligands/ligand_235_temp.pdb
REMARK                            x       y       z     vdW  Elec       q    Type
REMARK                         _______ _______ _______ _____ _____    ______ ____
ROOT
ATOM      1  C   UNL     1      15.847  30.104  12.477  0.00  0.00    -0.022 C 
ATOM      2  C   UNL     1      15.700  29.195  13.662  0.00  0.00    +0.041 A 
ATOM      3  C   UNL     1      15.874  29.690  14.949  0.00  0.00    -0.019 A 
ATOM      4  C   UNL     1      15.763  28.831  16.045  0.00  0.00    +0.038 A 
ATOM      5  N   UNL     1      15.905  29.274  17.374  0.00  0.00    -0.341 N 
ATOM      6  C   UNL     1      16.288  30.638  17.735  0.00  0.00    +0.016 C 
ATOM      7  C   UNL     1      17.807  30.792  17.671  0.00  0.00    -0.047 C 
ATOM      8  C   UNL     1      15.739  30.892  19.157  0.00  0.00    -0.050 C 
ATOM      9  C   UNL     1      15.846  32.357  19.568  0.00  0.00    -0.090 C 
ATOM     10  N   UNL     1      15.187  32.645  20.905  0.00  0.00    +0.376 N 
ATOM     11  C   UNL     1      15.824  31.941  22.070  0.00  0.00    -0.104 C 
ATOM     12  C   UNL     1      13.690  32.487  20.898  0.00  0.00    -0.104 C 
ATOM     13  C   UNL     1      15.395  27.478  15.792  0.00  0.00    +0.024 A 
ATOM     14  C   UNL     1      15.164  26.519  16.808  0.00  0.00    -0.016 A 
ATOM     15  C   UNL     1      14.819  25.211  16.490  0.00  0.00    +0.124 A 
ATOM     16  F   UNL     1      14.609  24.329  17.476  0.00  0.00    -0.205 F 
ATOM     17  C   UNL     1      14.688  24.815  15.174  0.00  0.00    -0.024 A 
ATOM     18  C   UNL     1      14.899  25.754  14.163  0.00  0.00    -0.033 A 
ATOM     19  C   UNL     1      15.240  27.072  14.445  0.00  0.00    +0.073 A 
ATOM     20  N   UNL     1      15.398  27.906  13.412  0.00  0.00    -0.252 NA
ATOM     21  H   UNL     1      15.738  28.630  18.101  0.00  0.00    +0.000 HD
ATOM     22  H   UNL     1      15.365  33.639  21.047  0.00  0.00    +0.000 HD
ENDROOT
TORSDOF 0
ENDMDL
MODEL 7
REMARK VINA RESULT:    -2.392     21.989     24.044
REMARK INTER + INTRA:          -2.392
REMARK INTER:                  -2.392
REMARK INTRA:                   0.000
REMARK UNBOUND:                 0.000
REMARK  Name = /home/vital/Documents/PhD_2021/Malaria_codes/scripts/../data/pdbqt_ligands/ligand_235_temp.pdb
REMARK                            x       y       z     vdW  Elec       q    Type
REMARK                         _______ _______ _______ _____ _____    ______ ____
ROOT
ATOM      1  C   UNL     1      18.131  25.123  20.384  0.00  0.00    -0.022 C 
ATOM      2  C   UNL     1      17.215  25.585  19.288  0.00  0.00    +0.041 A 
ATOM      3  C   UNL     1      16.758  26.898  19.267  0.00  0.00    -0.019 A 
ATOM      4  C   UNL     1      15.883  27.312  18.259  0.00  0.00    +0.038 A 
ATOM      5  N   UNL     1      15.403  28.633  18.167  0.00  0.00    -0.341 N 
ATOM      6  C   UNL     1      15.678  29.664  19.164  0.00  0.00    +0.016 C 
ATOM      7  C   UNL     1      14.700  29.540  20.331  0.00  0.00    -0.047 C 
ATOM      8  C   UNL     1      15.551  31.025  18.444  0.00  0.00    -0.050 C 
ATOM      9  C   UNL     1      16.053  32.185  19.298  0.00  0.00    -0.090 C 
ATOM     10  N   UNL     1      16.062  33.507  18.553  0.00  0.00    +0.376 N 
ATOM     11  C   UNL     1      14.701  33.988  18.135  0.00  0.00    -0.104 C 
ATOM     12  C   UNL     1      17.056  33.568  17.423  0.00  0.00    -0.104 C 
ATOM     13  C   UNL     1      15.554  26.373  17.240  0.00  0.00    +0.024 A 
ATOM     14  C   UNL     1      14.750  26.678  16.115  0.00  0.00    -0.016 A 
ATOM     15  C   UNL     1      14.458  25.709  15.162  0.00  0.00    +0.124 A 
ATOM     16  F   UNL     1      13.693  26.030  14.111  0.00  0.00    -0.205 F 
ATOM     17  C   UNL     1      14.948  24.424  15.288  0.00  0.00    -0.024 A 
ATOM     18  C   UNL     1      15.754  24.114  16.384  0.00  0.00    -0.033 A 
ATOM     19  C   UNL     1      16.072  25.060  17.352  0.00  0.00    +0.073 A 
ATOM     20  N   UNL     1      16.870  24.678  18.355  0.00  0.00    -0.252 NA
ATOM     21  H   UNL     1      14.851  28.874  17.387  0.00  0.00    +0.000 HD
ATOM     22  H   UNL     1      16.391  34.172  19.254  0.00  0.00    +0.000 HD
ENDROOT
TORSDOF 0
ENDMDL
