MODEL 1
REMARK VINA RESULT:    -4.598      0.000      0.000
REMARK INTER + INTRA:          -4.598
REMARK INTER:                  -4.598
REMARK INTRA:                   0.000
REMARK UNBOUND:                 0.000
REMARK  Name = /home/vital/Documents/PhD_2021/Malaria_codes/scripts/../data/pdbqt_ligands/ligand_166_temp.pdb
REMARK                            x       y       z     vdW  Elec       q    Type
REMARK                         _______ _______ _______ _____ _____    ______ ____
ROOT
ATOM      1  N   UNL     1      13.757  25.947  14.273  0.00  0.00    +0.385 N 
ATOM      2  C   UNL     1      15.034  26.610  14.646  0.00  0.00    -0.031 C 
ATOM      3  C   UNL     1      15.361  26.496  16.127  0.00  0.00    -0.057 A 
ATOM      4  C   UNL     1      14.373  26.379  17.121  0.00  0.00    -0.056 A 
ATOM      5  C   UNL     1      14.729  26.282  18.468  0.00  0.00    -0.020 A 
ATOM      6  C   UNL     1      16.068  26.310  18.836  0.00  0.00    +0.117 A 
ATOM      7  O   UNL     1      16.356  26.213  20.163  0.00  0.00    -0.507 OA
ATOM      8  C   UNL     1      17.064  26.437  17.879  0.00  0.00    -0.020 A 
ATOM      9  C   UNL     1      16.711  26.533  16.530  0.00  0.00    -0.056 A 
ATOM     10  C   UNL     1      15.053  28.026  14.101  0.00  0.00    -0.058 A 
ATOM     11  C   UNL     1      15.716  28.297  12.889  0.00  0.00    -0.059 A 
ATOM     12  C   UNL     1      15.713  29.585  12.346  0.00  0.00    -0.048 A 
ATOM     13  C   UNL     1      15.045  30.613  13.004  0.00  0.00    +0.018 A 
ATOM     14 BR   UNL     1      15.041  32.353  12.268  0.00  0.00    -0.050 Br
ATOM     15  C   UNL     1      14.379  30.366  14.201  0.00  0.00    -0.048 A 
ATOM     16  C   UNL     1      14.379  29.079  14.747  0.00  0.00    -0.059 A 
ATOM     17  H   UNL     1      13.748  24.996  14.641  0.00  0.00    +0.000 HD
ATOM     18  H   UNL     1      13.673  25.919  13.257  0.00  0.00    +0.000 HD
ATOM     19  H   UNL     1      12.975  26.472  14.665  0.00  0.00    +0.000 HD
ATOM     20  H   UNL     1      15.663  26.128  20.788  0.00  0.00    +0.000 HD
ENDROOT
TORSDOF 0
ENDMDL
MODEL 2
REMARK VINA RESULT:    -4.154      3.786      6.086
REMARK INTER + INTRA:          -4.154
REMARK INTER:                  -4.154
REMARK INTRA:                   0.000
REMARK UNBOUND:                 0.000
REMARK  Name = /home/vital/Documents/PhD_2021/Malaria_codes/scripts/../data/pdbqt_ligands/ligand_166_temp.pdb
REMARK                            x       y       z     vdW  Elec       q    Type
REMARK                         _______ _______ _______ _____ _____    ______ ____
ROOT
ATOM      1  N   UNL     1      14.690  24.571  14.296  0.00  0.00    +0.385 N 
ATOM      2  C   UNL     1      14.699  25.727  15.231  0.00  0.00    -0.031 C 
ATOM      3  C   UNL     1      14.812  27.069  14.527  0.00  0.00    -0.057 A 
ATOM      4  C   UNL     1      15.455  27.230  13.286  0.00  0.00    -0.056 A 
ATOM      5  C   UNL     1      15.534  28.489  12.685  0.00  0.00    -0.020 A 
ATOM      6  C   UNL     1      14.983  29.596  13.318  0.00  0.00    +0.117 A 
ATOM      7  O   UNL     1      15.091  30.797  12.687  0.00  0.00    -0.507 OA
ATOM      8  C   UNL     1      14.354  29.470  14.548  0.00  0.00    -0.020 A 
ATOM      9  C   UNL     1      14.272  28.212  15.151  0.00  0.00    -0.056 A 
ATOM     10  C   UNL     1      15.730  25.495  16.321  0.00  0.00    -0.058 A 
ATOM     11  C   UNL     1      15.323  24.985  17.568  0.00  0.00    -0.059 A 
ATOM     12  C   UNL     1      16.259  24.725  18.573  0.00  0.00    -0.048 A 
ATOM     13  C   UNL     1      17.610  24.966  18.342  0.00  0.00    +0.018 A 
ATOM     14 BR   UNL     1      18.873  24.612  19.700  0.00  0.00    -0.050 Br
ATOM     15  C   UNL     1      18.034  25.465  17.113  0.00  0.00    -0.048 A 
ATOM     16  C   UNL     1      17.101  25.726  16.106  0.00  0.00    -0.059 A 
ATOM     17  H   UNL     1      13.997  24.731  13.566  0.00  0.00    +0.000 HD
ATOM     18  H   UNL     1      14.456  23.721  14.809  0.00  0.00    +0.000 HD
ATOM     19  H   UNL     1      15.613  24.469  13.874  0.00  0.00    +0.000 HD
ATOM     20  H   UNL     1      15.521  30.853  11.856  0.00  0.00    +0.000 HD
ENDROOT
TORSDOF 0
ENDMDL
MODEL 3
REMARK VINA RESULT:    -4.091      4.201      5.621
REMARK INTER + INTRA:          -4.091
REMARK INTER:                  -4.091
REMARK INTRA:                   0.000
REMARK UNBOUND:                 0.000
REMARK  Name = /home/vital/Documents/PhD_2021/Malaria_codes/scripts/../data/pdbqt_ligands/ligand_166_temp.pdb
REMARK                            x       y       z     vdW  Elec       q    Type
REMARK                         _______ _______ _______ _____ _____    ______ ____
ROOT
ATOM      1  N   UNL     1      14.833  29.480  16.119  0.00  0.00    +0.385 N 
ATOM      2  C   UNL     1      15.485  28.304  16.750  0.00  0.00    -0.031 C 
ATOM      3  C   UNL     1      15.194  26.996  16.033  0.00  0.00    -0.057 A 
ATOM      4  C   UNL     1      14.012  26.771  15.303  0.00  0.00    -0.056 A 
ATOM      5  C   UNL     1      13.794  25.547  14.666  0.00  0.00    -0.020 A 
ATOM      6  C   UNL     1      14.742  24.537  14.758  0.00  0.00    +0.117 A 
ATOM      7  O   UNL     1      14.475  23.366  14.118  0.00  0.00    -0.507 OA
ATOM      8  C   UNL     1      15.911  24.726  15.480  0.00  0.00    -0.020 A 
ATOM      9  C   UNL     1      16.134  25.949  16.118  0.00  0.00    -0.056 A 
ATOM     10  C   UNL     1      15.185  28.290  18.238  0.00  0.00    -0.058 A 
ATOM     11  C   UNL     1      16.127  28.812  19.145  0.00  0.00    -0.059 A 
ATOM     12  C   UNL     1      15.855  28.848  20.515  0.00  0.00    -0.048 A 
ATOM     13  C   UNL     1      14.640  28.368  20.994  0.00  0.00    +0.018 A 
ATOM     14 BR   UNL     1      14.274  28.418  22.846  0.00  0.00    -0.050 Br
ATOM     15  C   UNL     1      13.692  27.852  20.114  0.00  0.00    -0.048 A 
ATOM     16  C   UNL     1      13.960  27.815  18.743  0.00  0.00    -0.059 A 
ATOM     17  H   UNL     1      15.037  29.486  15.119  0.00  0.00    +0.000 HD
ATOM     18  H   UNL     1      15.189  30.336  16.544  0.00  0.00    +0.000 HD
ATOM     19  H   UNL     1      13.824  29.425  16.260  0.00  0.00    +0.000 HD
ATOM     20  H   UNL     1      13.677  23.266  13.637  0.00  0.00    +0.000 HD
ENDROOT
TORSDOF 0
ENDMDL
MODEL 4
REMARK VINA RESULT:    -4.073      3.615      5.998
REMARK INTER + INTRA:          -4.073
REMARK INTER:                  -4.073
REMARK INTRA:                   0.000
REMARK UNBOUND:                 0.000
REMARK  Name = /home/vital/Documents/PhD_2021/Malaria_codes/scripts/../data/pdbqt_ligands/ligand_166_temp.pdb
REMARK                            x       y       z     vdW  Elec       q    Type
REMARK                         _______ _______ _______ _____ _____    ______ ____
ROOT
ATOM      1  N   UNL     1      14.673  25.718  13.718  0.00  0.00    +0.385 N 
ATOM      2  C   UNL     1      14.469  26.857  14.650  0.00  0.00    -0.031 C 
ATOM      3  C   UNL     1      14.741  28.211  14.016  0.00  0.00    -0.057 A 
ATOM      4  C   UNL     1      15.651  28.390  12.958  0.00  0.00    -0.056 A 
ATOM      5  C   UNL     1      15.866  29.659  12.415  0.00  0.00    -0.020 A 
ATOM      6  C   UNL     1      15.186  30.758  12.924  0.00  0.00    +0.117 A 
ATOM      7  O   UNL     1      15.437  31.969  12.356  0.00  0.00    -0.507 OA
ATOM      8  C   UNL     1      14.292  30.613  13.974  0.00  0.00    -0.020 A 
ATOM      9  C   UNL     1      14.073  29.345  14.519  0.00  0.00    -0.056 A 
ATOM     10  C   UNL     1      15.222  26.601  15.943  0.00  0.00    -0.058 A 
ATOM     11  C   UNL     1      14.539  26.072  17.055  0.00  0.00    -0.059 A 
ATOM     12  C   UNL     1      15.220  25.790  18.242  0.00  0.00    -0.048 A 
ATOM     13  C   UNL     1      16.588  26.027  18.331  0.00  0.00    +0.018 A 
ATOM     14 BR   UNL     1      17.506  25.644  19.937  0.00  0.00    -0.050 Br
ATOM     15  C   UNL     1      17.283  26.546  17.242  0.00  0.00    -0.048 A 
ATOM     16  C   UNL     1      16.606  26.829  16.052  0.00  0.00    -0.059 A 
ATOM     17  H   UNL     1      14.166  25.893  12.851  0.00  0.00    +0.000 HD
ATOM     18  H   UNL     1      14.327  24.860  14.148  0.00  0.00    +0.000 HD
ATOM     19  H   UNL     1      15.668  25.619  13.516  0.00  0.00    +0.000 HD
ATOM     20  H   UNL     1      16.046  32.037  11.647  0.00  0.00    +0.000 HD
ENDROOT
TORSDOF 0
ENDMDL
MODEL 5
REMARK VINA RESULT:    -3.932      2.688      3.473
REMARK INTER + INTRA:          -3.932
REMARK INTER:                  -3.932
REMARK INTRA:                   0.000
REMARK UNBOUND:                 0.000
REMARK  Name = /home/vital/Documents/PhD_2021/Malaria_codes/scripts/../data/pdbqt_ligands/ligand_166_temp.pdb
REMARK                            x       y       z     vdW  Elec       q    Type
REMARK                         _______ _______ _______ _____ _____    ______ ____
ROOT
ATOM      1  N   UNL     1      15.325  28.948  17.455  0.00  0.00    +0.385 N 
ATOM      2  C   UNL     1      14.765  28.752  16.093  0.00  0.00    -0.031 C 
ATOM      3  C   UNL     1      14.740  27.296  15.657  0.00  0.00    -0.057 A 
ATOM      4  C   UNL     1      15.660  26.341  16.126  0.00  0.00    -0.056 A 
ATOM      5  C   UNL     1      15.594  25.016  15.688  0.00  0.00    -0.020 A 
ATOM      6  C   UNL     1      14.620  24.635  14.774  0.00  0.00    +0.117 A 
ATOM      7  O   UNL     1      14.604  23.331  14.382  0.00  0.00    -0.507 OA
ATOM      8  C   UNL     1      13.707  25.557  14.285  0.00  0.00    -0.020 A 
ATOM      9  C   UNL     1      13.769  26.883  14.722  0.00  0.00    -0.056 A 
ATOM     10  C   UNL     1      15.449  29.693  15.119  0.00  0.00    -0.058 A 
ATOM     11  C   UNL     1      14.832  30.911  14.776  0.00  0.00    -0.059 A 
ATOM     12  C   UNL     1      15.461  31.812  13.913  0.00  0.00    -0.048 A 
ATOM     13  C   UNL     1      16.713  31.510  13.388  0.00  0.00    +0.018 A 
ATOM     14 BR   UNL     1      17.563  32.730  12.222  0.00  0.00    -0.050 Br
ATOM     15  C   UNL     1      17.344  30.313  13.717  0.00  0.00    -0.048 A 
ATOM     16  C   UNL     1      16.718  29.410  14.581  0.00  0.00    -0.059 A 
ATOM     17  H   UNL     1      14.863  28.314  18.108  0.00  0.00    +0.000 HD
ATOM     18  H   UNL     1      15.171  29.912  17.751  0.00  0.00    +0.000 HD
ATOM     19  H   UNL     1      16.326  28.753  17.442  0.00  0.00    +0.000 HD
ATOM     20  H   UNL     1      15.233  22.730  14.730  0.00  0.00    +0.000 HD
ENDROOT
TORSDOF 0
ENDMDL
MODEL 6
REMARK VINA RESULT:    -3.678      2.305      2.901
REMARK INTER + INTRA:          -3.678
REMARK INTER:                  -3.678
REMARK INTRA:                   0.000
REMARK UNBOUND:                 0.000
REMARK  Name = /home/vital/Documents/PhD_2021/Malaria_codes/scripts/../data/pdbqt_ligands/ligand_166_temp.pdb
REMARK                            x       y       z     vdW  Elec       q    Type
REMARK                         _______ _______ _______ _____ _____    ______ ____
ROOT
ATOM      1  N   UNL     1      14.632  28.395  18.676  0.00  0.00    +0.385 N 
ATOM      2  C   UNL     1      14.600  27.389  17.583  0.00  0.00    -0.031 C 
ATOM      3  C   UNL     1      15.373  26.121  17.908  0.00  0.00    -0.057 A 
ATOM      4  C   UNL     1      16.478  26.102  18.778  0.00  0.00    -0.056 A 
ATOM      5  C   UNL     1      17.156  24.909  19.038  0.00  0.00    -0.020 A 
ATOM      6  C   UNL     1      16.746  23.730  18.429  0.00  0.00    +0.117 A 
ATOM      7  O   UNL     1      17.444  22.598  18.719  0.00  0.00    -0.507 OA
ATOM      8  C   UNL     1      15.667  23.721  17.557  0.00  0.00    -0.020 A 
ATOM      9  C   UNL     1      14.986  24.912  17.295  0.00  0.00    -0.056 A 
ATOM     10  C   UNL     1      14.986  28.048  16.271  0.00  0.00    -0.058 A 
ATOM     11  C   UNL     1      13.981  28.475  15.383  0.00  0.00    -0.059 A 
ATOM     12  C   UNL     1      14.312  29.120  14.188  0.00  0.00    -0.048 A 
ATOM     13  C   UNL     1      15.647  29.350  13.870  0.00  0.00    +0.018 A 
ATOM     14 BR   UNL     1      16.091  30.223  12.255  0.00  0.00    -0.050 Br
ATOM     15  C   UNL     1      16.656  28.940  14.736  0.00  0.00    -0.048 A 
ATOM     16  C   UNL     1      16.330  28.294  15.933  0.00  0.00    -0.059 A 
ATOM     17  H   UNL     1      14.372  27.949  19.556  0.00  0.00    +0.000 HD
ATOM     18  H   UNL     1      13.974  29.145  18.467  0.00  0.00    +0.000 HD
ATOM     19  H   UNL     1      15.573  28.781  18.755  0.00  0.00    +0.000 HD
ATOM     20  H   UNL     1      18.169  22.634  19.312  0.00  0.00    +0.000 HD
ENDROOT
TORSDOF 0
ENDMDL
MODEL 7
REMARK VINA RESULT:    -3.516      3.110      3.747
REMARK INTER + INTRA:          -3.516
REMARK INTER:                  -3.516
REMARK INTRA:                   0.000
REMARK UNBOUND:                 0.000
REMARK  Name = /home/vital/Documents/PhD_2021/Malaria_codes/scripts/../data/pdbqt_ligands/ligand_166_temp.pdb
REMARK                            x       y       z     vdW  Elec       q    Type
REMARK                         _______ _______ _______ _____ _____    ______ ____
ROOT
ATOM      1  N   UNL     1      15.666  29.392  12.378  0.00  0.00    +0.385 N 
ATOM      2  C   UNL     1      16.468  28.874  13.516  0.00  0.00    -0.031 C 
ATOM      3  C   UNL     1      16.003  27.514  14.011  0.00  0.00    -0.057 A 
ATOM      4  C   UNL     1      14.671  27.073  13.898  0.00  0.00    -0.056 A 
ATOM      5  C   UNL     1      14.298  25.814  14.373  0.00  0.00    -0.020 A 
ATOM      6  C   UNL     1      15.242  24.989  14.971  0.00  0.00    +0.117 A 
ATOM      7  O   UNL     1      14.820  23.774  15.417  0.00  0.00    -0.507 OA
ATOM      8  C   UNL     1      16.559  25.401  15.107  0.00  0.00    -0.020 A 
ATOM      9  C   UNL     1      16.937  26.660  14.632  0.00  0.00    -0.056 A 
ATOM     10  C   UNL     1      16.571  29.938  14.594  0.00  0.00    -0.058 A 
ATOM     11  C   UNL     1      17.717  30.753  14.662  0.00  0.00    -0.059 A 
ATOM     12  C   UNL     1      17.817  31.765  15.620  0.00  0.00    -0.048 A 
ATOM     13  C   UNL     1      16.774  31.978  16.516  0.00  0.00    +0.018 A 
ATOM     14 BR   UNL     1      16.911  33.348  17.809  0.00  0.00    -0.050 Br
ATOM     15  C   UNL     1      15.630  31.187  16.463  0.00  0.00    -0.048 A 
ATOM     16  C   UNL     1      15.526  30.173  15.506  0.00  0.00    -0.059 A 
ATOM     17  H   UNL     1      15.599  28.675  11.655  0.00  0.00    +0.000 HD
ATOM     18  H   UNL     1      16.118  30.221  11.993  0.00  0.00    +0.000 HD
ATOM     19  H   UNL     1      14.731  29.636  12.704  0.00  0.00    +0.000 HD
ATOM     20  H   UNL     1      13.924  23.522  15.311  0.00  0.00    +0.000 HD
ENDROOT
TORSDOF 0
ENDMDL
MODEL 8
REMARK VINA RESULT:    -3.334      1.413      1.546
REMARK INTER + INTRA:          -3.334
REMARK INTER:                  -3.334
REMARK INTRA:                   0.000
REMARK UNBOUND:                 0.000
REMARK  Name = /home/vital/Documents/PhD_2021/Malaria_codes/scripts/../data/pdbqt_ligands/ligand_166_temp.pdb
REMARK                            x       y       z     vdW  Elec       q    Type
REMARK                         _______ _______ _______ _____ _____    ______ ____
ROOT
ATOM      1  N   UNL     1      14.515  26.279  15.001  0.00  0.00    +0.385 N 
ATOM      2  C   UNL     1      15.492  27.151  15.702  0.00  0.00    -0.031 C 
ATOM      3  C   UNL     1      15.201  27.311  17.186  0.00  0.00    -0.057 A 
ATOM      4  C   UNL     1      13.904  27.221  17.724  0.00  0.00    -0.056 A 
ATOM      5  C   UNL     1      13.692  27.380  19.095  0.00  0.00    -0.020 A 
ATOM      6  C   UNL     1      14.765  27.638  19.938  0.00  0.00    +0.117 A 
ATOM      7  O   UNL     1      14.499  27.786  21.265  0.00  0.00    -0.507 OA
ATOM      8  C   UNL     1      16.053  27.744  19.435  0.00  0.00    -0.020 A 
ATOM      9  C   UNL     1      16.269  27.584  18.064  0.00  0.00    -0.056 A 
ATOM     10  C   UNL     1      15.648  28.456  14.944  0.00  0.00    -0.058 A 
ATOM     11  C   UNL     1      16.726  28.622  14.054  0.00  0.00    -0.059 A 
ATOM     12  C   UNL     1      16.868  29.799  13.314  0.00  0.00    -0.048 A 
ATOM     13  C   UNL     1      15.933  30.820  13.451  0.00  0.00    +0.018 A 
ATOM     14 BR   UNL     1      16.125  32.410  12.449  0.00  0.00    -0.050 Br
ATOM     15  C   UNL     1      14.856  30.676  14.322  0.00  0.00    -0.048 A 
ATOM     16  C   UNL     1      14.711  29.500  15.063  0.00  0.00    -0.059 A 
ATOM     17  H   UNL     1      14.413  25.402  15.513  0.00  0.00    +0.000 HD
ATOM     18  H   UNL     1      14.849  26.084  14.057  0.00  0.00    +0.000 HD
ATOM     19  H   UNL     1      13.613  26.751  14.951  0.00  0.00    +0.000 HD
ATOM     20  H   UNL     1      13.619  27.709  21.578  0.00  0.00    +0.000 HD
ENDROOT
TORSDOF 0
ENDMDL
MODEL 9
REMARK VINA RESULT:    -3.260      3.462      4.763
REMARK INTER + INTRA:          -3.260
REMARK INTER:                  -3.260
REMARK INTRA:                   0.000
REMARK UNBOUND:                 0.000
REMARK  Name = /home/vital/Documents/PhD_2021/Malaria_codes/scripts/../data/pdbqt_ligands/ligand_166_temp.pdb
REMARK                            x       y       z     vdW  Elec       q    Type
REMARK                         _______ _______ _______ _____ _____    ______ ____
ROOT
ATOM      1  N   UNL     1      15.678  22.595  18.205  0.00  0.00    +0.385 N 
ATOM      2  C   UNL     1      16.638  23.363  17.370  0.00  0.00    -0.031 C 
ATOM      3  C   UNL     1      17.959  23.638  18.070  0.00  0.00    -0.057 A 
ATOM      4  C   UNL     1      18.074  23.753  19.467  0.00  0.00    -0.056 A 
ATOM      5  C   UNL     1      19.313  24.012  20.058  0.00  0.00    -0.020 A 
ATOM      6  C   UNL     1      20.442  24.166  19.265  0.00  0.00    +0.117 A 
ATOM      7  O   UNL     1      21.622  24.418  19.895  0.00  0.00    -0.507 OA
ATOM      8  C   UNL     1      20.357  24.070  17.884  0.00  0.00    -0.020 A 
ATOM      9  C   UNL     1      19.119  23.810  17.289  0.00  0.00    -0.056 A 
ATOM     10  C   UNL     1      15.952  24.593  16.804  0.00  0.00    -0.058 A 
ATOM     11  C   UNL     1      15.435  24.564  15.496  0.00  0.00    -0.059 A 
ATOM     12  C   UNL     1      14.764  25.671  14.968  0.00  0.00    -0.048 A 
ATOM     13  C   UNL     1      14.598  26.815  15.742  0.00  0.00    +0.018 A 
ATOM     14 BR   UNL     1      13.690  28.309  15.028  0.00  0.00    -0.050 Br
ATOM     15  C   UNL     1      15.098  26.864  17.040  0.00  0.00    -0.048 A 
ATOM     16  C   UNL     1      15.769  25.759  17.572  0.00  0.00    -0.059 A 
ATOM     17  H   UNL     1      16.142  21.769  18.583  0.00  0.00    +0.000 HD
ATOM     18  H   UNL     1      14.884  22.307  17.633  0.00  0.00    +0.000 HD
ATOM     19  H   UNL     1      15.349  23.182  18.971  0.00  0.00    +0.000 HD
ATOM     20  H   UNL     1      21.650  24.477  20.830  0.00  0.00    +0.000 HD
ENDROOT
TORSDOF 0
ENDMDL
