MODEL 1
REMARK VINA RESULT:    -4.553      0.000      0.000
REMARK INTER + INTRA:          -4.553
REMARK INTER:                  -4.553
REMARK INTRA:                   0.000
REMARK UNBOUND:                 0.000
REMARK  Name = /home/vital/Documents/PhD_2021/Malaria_codes/scripts/../data/pdbqt_ligands/ligand_309_temp.pdb
REMARK                            x       y       z     vdW  Elec       q    Type
REMARK                         _______ _______ _______ _____ _____    ______ ____
ROOT
ATOM      1  C   UNL     1      22.929  44.955  25.105  0.00  0.00    -0.034 C 
ATOM      2  C   UNL     1      21.576  45.308  24.572  0.00  0.00    -0.006 C 
ATOM      3  C   UNL     1      21.145  46.543  24.473  0.00  0.00    +0.010 C 
ATOM      4  N   UNL     1      20.544  47.531  24.256  0.00  0.00    -0.101 NA
ATOM      5  N   UNL     1      20.306  47.589  22.882  0.00  0.00    -0.104 N 
ATOM      6  C   UNL     1      19.090  47.458  22.419  0.00  0.00    +0.242 C 
ATOM      7  N   UNL     1      18.821  47.475  21.070  0.00  0.00    -0.282 N 
ATOM      8  C   UNL     1      19.661  47.352  19.955  0.00  0.00    +0.035 A 
ATOM      9  C   UNL     1      19.112  47.589  18.683  0.00  0.00    -0.039 A 
ATOM     10  C   UNL     1      19.893  47.511  17.525  0.00  0.00    -0.040 A 
ATOM     11  C   UNL     1      21.248  47.197  17.616  0.00  0.00    +0.059 A 
ATOM     12 CL   UNL     1      22.156  47.108  16.149  0.00  0.00    -0.082 Cl
ATOM     13  C   UNL     1      21.817  46.968  18.870  0.00  0.00    +0.061 A 
ATOM     14 CL   UNL     1      23.488  46.569  19.066  0.00  0.00    -0.082 Cl
ATOM     15  C   UNL     1      21.027  47.054  20.026  0.00  0.00    -0.021 A 
ATOM     16  N   UNL     1      17.942  47.359  23.164  0.00  0.00    -0.198 N 
ATOM     17  C   UNL     1      17.629  46.369  23.949  0.00  0.00    +0.122 C 
ATOM     18  N   UNL     1      16.401  46.399  24.577  0.00  0.00    -0.327 N 
ATOM     19  C   UNL     1      15.326  47.293  24.168  0.00  0.00    +0.034 C 
ATOM     20  C   UNL     1      14.175  47.194  25.173  0.00  0.00    +0.060 C 
ATOM     21  O   UNL     1      13.697  45.848  25.232  0.00  0.00    -0.393 OA
ATOM     22  C   UNL     1      18.509  45.222  24.341  0.00  0.00    -0.025 C 
ATOM     23  C   UNL     1      19.393  44.623  23.527  0.00  0.00    -0.076 C 
ATOM     24  C   UNL     1      20.703  44.137  24.108  0.00  0.00    -0.004 C 
ATOM     25  H   UNL     1      21.055  47.730  22.259  0.00  0.00    +0.000 HD
ATOM     26  H   UNL     1      17.869  47.596  20.849  0.00  0.00    +0.000 HD
ATOM     27  H   UNL     1      17.298  48.101  23.099  0.00  0.00    +0.000 HD
ATOM     28  H   UNL     1      16.244  45.789  25.334  0.00  0.00    +0.000 HD
ATOM     29  H   UNL     1      13.379  45.578  24.356  0.00  0.00    +0.000 HD
ENDROOT
TORSDOF 0
ENDMDL
MODEL 2
REMARK VINA RESULT:    -4.102     17.687     19.072
REMARK INTER + INTRA:          -4.102
REMARK INTER:                  -4.102
REMARK INTRA:                   0.000
REMARK UNBOUND:                 0.000
REMARK  Name = /home/vital/Documents/PhD_2021/Malaria_codes/scripts/../data/pdbqt_ligands/ligand_309_temp.pdb
REMARK                            x       y       z     vdW  Elec       q    Type
REMARK                         _______ _______ _______ _____ _____    ______ ____
ROOT
ATOM      1  C   UNL     1      16.416  32.115  12.320  0.00  0.00    -0.034 C 
ATOM      2  C   UNL     1      16.128  31.063  13.345  0.00  0.00    -0.006 C 
ATOM      3  C   UNL     1      17.020  30.644  14.211  0.00  0.00    +0.010 C 
ATOM      4  N   UNL     1      17.605  30.129  15.092  0.00  0.00    -0.101 NA
ATOM      5  N   UNL     1      16.946  30.446  16.282  0.00  0.00    -0.104 N 
ATOM      6  C   UNL     1      16.315  29.517  16.953  0.00  0.00    +0.242 C 
ATOM      7  N   UNL     1      15.626  29.798  18.109  0.00  0.00    -0.282 N 
ATOM      8  C   UNL     1      15.203  31.013  18.665  0.00  0.00    +0.035 A 
ATOM      9  C   UNL     1      14.667  30.996  19.964  0.00  0.00    -0.039 A 
ATOM     10  C   UNL     1      14.247  32.171  20.596  0.00  0.00    -0.040 A 
ATOM     11  C   UNL     1      14.360  33.396  19.940  0.00  0.00    +0.059 A 
ATOM     12 CL   UNL     1      13.817  34.809  20.771  0.00  0.00    -0.082 Cl
ATOM     13  C   UNL     1      14.900  33.438  18.653  0.00  0.00    +0.061 A 
ATOM     14 CL   UNL     1      15.068  34.916  17.771  0.00  0.00    -0.082 Cl
ATOM     15  C   UNL     1      15.323  32.255  18.029  0.00  0.00    -0.021 A 
ATOM     16  N   UNL     1      16.299  28.176  16.666  0.00  0.00    -0.198 N 
ATOM     17  C   UNL     1      15.755  27.629  15.617  0.00  0.00    +0.122 C 
ATOM     18  N   UNL     1      15.773  26.253  15.516  0.00  0.00    -0.327 N 
ATOM     19  C   UNL     1      16.071  25.382  16.644  0.00  0.00    +0.034 C 
ATOM     20  C   UNL     1      16.177  23.936  16.154  0.00  0.00    +0.060 C 
ATOM     21  O   UNL     1      14.947  23.540  15.540  0.00  0.00    -0.393 OA
ATOM     22  C   UNL     1      15.188  28.341  14.427  0.00  0.00    -0.025 C 
ATOM     23  C   UNL     1      14.515  29.502  14.480  0.00  0.00    -0.076 C 
ATOM     24  C   UNL     1      14.703  30.502  13.359  0.00  0.00    -0.004 C 
ATOM     25  H   UNL     1      16.956  31.372  16.617  0.00  0.00    +0.000 HD
ATOM     26  H   UNL     1      15.388  29.005  18.641  0.00  0.00    +0.000 HD
ATOM     27  H   UNL     1      16.737  27.573  17.309  0.00  0.00    +0.000 HD
ATOM     28  H   UNL     1      15.576  25.843  14.643  0.00  0.00    +0.000 HD
ATOM     29  H   UNL     1      14.227  23.605  16.186  0.00  0.00    +0.000 HD
ENDROOT
TORSDOF 0
ENDMDL
MODEL 3
REMARK VINA RESULT:    -3.945      1.001      1.033
REMARK INTER + INTRA:          -3.945
REMARK INTER:                  -3.945
REMARK INTRA:                   0.000
REMARK UNBOUND:                 0.000
REMARK  Name = /home/vital/Documents/PhD_2021/Malaria_codes/scripts/../data/pdbqt_ligands/ligand_309_temp.pdb
REMARK                            x       y       z     vdW  Elec       q    Type
REMARK                         _______ _______ _______ _____ _____    ______ ____
ROOT
ATOM      1  C   UNL     1      22.891  43.916  25.244  0.00  0.00    -0.034 C 
ATOM      2  C   UNL     1      21.511  44.347  24.854  0.00  0.00    -0.006 C 
ATOM      3  C   UNL     1      21.088  45.583  24.969  0.00  0.00    +0.010 C 
ATOM      4  N   UNL     1      20.486  46.594  24.940  0.00  0.00    -0.101 NA
ATOM      5  N   UNL     1      20.166  46.859  23.607  0.00  0.00    -0.104 N 
ATOM      6  C   UNL     1      18.923  46.801  23.205  0.00  0.00    +0.242 C 
ATOM      7  N   UNL     1      18.573  47.021  21.893  0.00  0.00    -0.282 N 
ATOM      8  C   UNL     1      19.343  47.066  20.723  0.00  0.00    +0.035 A 
ATOM      9  C   UNL     1      18.722  47.493  19.537  0.00  0.00    -0.039 A 
ATOM     10  C   UNL     1      19.430  47.590  18.335  0.00  0.00    -0.040 A 
ATOM     11  C   UNL     1      20.785  47.264  18.295  0.00  0.00    +0.059 A 
ATOM     12 CL   UNL     1      21.602  47.396  16.778  0.00  0.00    -0.082 Cl
ATOM     13  C   UNL     1      21.426  46.848  19.463  0.00  0.00    +0.061 A 
ATOM     14 CL   UNL     1      23.102  46.422  19.494  0.00  0.00    -0.082 Cl
ATOM     15  C   UNL     1      20.709  46.759  20.665  0.00  0.00    -0.021 A 
ATOM     16  N   UNL     1      17.821  46.593  23.995  0.00  0.00    -0.198 N 
ATOM     17  C   UNL     1      17.546  45.495  24.640  0.00  0.00    +0.122 C 
ATOM     18  N   UNL     1      16.358  45.432  25.339  0.00  0.00    -0.327 N 
ATOM     19  C   UNL     1      15.270  46.379  25.136  0.00  0.00    +0.034 C 
ATOM     20  C   UNL     1      14.181  46.132  26.183  0.00  0.00    +0.060 C 
ATOM     21  O   UNL     1      13.692  44.792  26.068  0.00  0.00    -0.393 OA
ATOM     22  C   UNL     1      18.436  44.302  24.801  0.00  0.00    -0.025 C 
ATOM     23  C   UNL     1      19.262  43.831  23.853  0.00  0.00    -0.076 C 
ATOM     24  C   UNL     1      20.600  43.261  24.274  0.00  0.00    -0.004 C 
ATOM     25  H   UNL     1      20.878  47.091  22.968  0.00  0.00    +0.000 HD
ATOM     26  H   UNL     1      17.611  47.175  21.751  0.00  0.00    +0.000 HD
ATOM     27  H   UNL     1      17.183  47.336  24.082  0.00  0.00    +0.000 HD
ATOM     28  H   UNL     1      16.240  44.715  26.004  0.00  0.00    +0.000 HD
ATOM     29  H   UNL     1      13.319  44.658  25.183  0.00  0.00    +0.000 HD
ENDROOT
TORSDOF 0
ENDMDL
MODEL 4
REMARK VINA RESULT:    -3.866     18.641     19.717
REMARK INTER + INTRA:          -3.866
REMARK INTER:                  -3.866
REMARK INTRA:                   0.000
REMARK UNBOUND:                 0.000
REMARK  Name = /home/vital/Documents/PhD_2021/Malaria_codes/scripts/../data/pdbqt_ligands/ligand_309_temp.pdb
REMARK                            x       y       z     vdW  Elec       q    Type
REMARK                         _______ _______ _______ _____ _____    ______ ____
ROOT
ATOM      1  C   UNL     1      14.675  24.657  14.229  0.00  0.00    -0.034 C 
ATOM      2  C   UNL     1      15.139  25.488  15.383  0.00  0.00    -0.006 C 
ATOM      3  C   UNL     1      16.404  25.744  15.619  0.00  0.00    +0.010 C 
ATOM      4  N   UNL     1      17.435  26.139  16.025  0.00  0.00    -0.101 NA
ATOM      5  N   UNL     1      17.411  27.533  15.964  0.00  0.00    -0.104 N 
ATOM      6  C   UNL     1      17.385  28.241  17.063  0.00  0.00    +0.242 C 
ATOM      7  N   UNL     1      17.325  29.615  17.042  0.00  0.00    -0.282 N 
ATOM      8  C   UNL     1      17.015  30.513  16.012  0.00  0.00    +0.035 A 
ATOM      9  C   UNL     1      17.212  31.884  16.248  0.00  0.00    -0.039 A 
ATOM     10  C   UNL     1      16.950  32.840  15.261  0.00  0.00    -0.040 A 
ATOM     11  C   UNL     1      16.488  32.442  14.008  0.00  0.00    +0.059 A 
ATOM     12 CL   UNL     1      16.176  33.671  12.835  0.00  0.00    -0.082 Cl
ATOM     13  C   UNL     1      16.296  31.084  13.747  0.00  0.00    +0.061 A 
ATOM     14 CL   UNL     1      15.721  30.510  12.220  0.00  0.00    -0.082 Cl
ATOM     15  C   UNL     1      16.566  30.132  14.741  0.00  0.00    -0.021 A 
ATOM     16  N   UNL     1      17.482  27.757  18.344  0.00  0.00    -0.198 N 
ATOM     17  C   UNL     1      16.601  27.006  18.940  0.00  0.00    +0.122 C 
ATOM     18  N   UNL     1      16.825  26.661  20.258  0.00  0.00    -0.327 N 
ATOM     19  C   UNL     1      17.802  27.340  21.096  0.00  0.00    +0.034 C 
ATOM     20  C   UNL     1      17.920  26.604  22.434  0.00  0.00    +0.060 C 
ATOM     21  O   UNL     1      16.648  26.578  23.087  0.00  0.00    -0.393 OA
ATOM     22  C   UNL     1      15.395  26.372  18.319  0.00  0.00    -0.025 C 
ATOM     23  C   UNL     1      14.633  26.943  17.372  0.00  0.00    -0.076 C 
ATOM     24  C   UNL     1      14.045  26.067  16.286  0.00  0.00    -0.004 C 
ATOM     25  H   UNL     1      17.412  27.986  15.089  0.00  0.00    +0.000 HD
ATOM     26  H   UNL     1      17.538  30.042  17.902  0.00  0.00    +0.000 HD
ATOM     27  H   UNL     1      18.286  28.000  18.856  0.00  0.00    +0.000 HD
ATOM     28  H   UNL     1      16.300  25.925  20.647  0.00  0.00    +0.000 HD
ATOM     29  H   UNL     1      16.348  27.486  23.249  0.00  0.00    +0.000 HD
ENDROOT
TORSDOF 0
ENDMDL
MODEL 5
REMARK VINA RESULT:    -3.766     17.626     18.632
REMARK INTER + INTRA:          -3.766
REMARK INTER:                  -3.766
REMARK INTRA:                   0.000
REMARK UNBOUND:                 0.000
REMARK  Name = /home/vital/Documents/PhD_2021/Malaria_codes/scripts/../data/pdbqt_ligands/ligand_309_temp.pdb
REMARK                            x       y       z     vdW  Elec       q    Type
REMARK                         _______ _______ _______ _____ _____    ______ ____
ROOT
ATOM      1  C   UNL     1      15.177  24.701  16.182  0.00  0.00    -0.034 C 
ATOM      2  C   UNL     1      15.111  25.886  17.095  0.00  0.00    -0.006 C 
ATOM      3  C   UNL     1      16.177  26.507  17.540  0.00  0.00    +0.010 C 
ATOM      4  N   UNL     1      16.948  27.240  18.042  0.00  0.00    -0.101 NA
ATOM      5  N   UNL     1      16.702  28.521  17.542  0.00  0.00    -0.104 N 
ATOM      6  C   UNL     1      16.217  29.451  18.323  0.00  0.00    +0.242 C 
ATOM      7  N   UNL     1      15.930  30.713  17.858  0.00  0.00    -0.282 N 
ATOM      8  C   UNL     1      15.802  31.214  16.556  0.00  0.00    +0.035 A 
ATOM      9  C   UNL     1      15.676  32.604  16.391  0.00  0.00    -0.039 A 
ATOM     10  C   UNL     1      15.570  33.182  15.122  0.00  0.00    -0.040 A 
ATOM     11  C   UNL     1      15.594  32.378  13.984  0.00  0.00    +0.059 A 
ATOM     12 CL   UNL     1      15.452  33.152  12.446  0.00  0.00    -0.082 Cl
ATOM     13  C   UNL     1      15.730  30.995  14.123  0.00  0.00    +0.061 A 
ATOM     14 CL   UNL     1      15.763  29.930  12.761  0.00  0.00    -0.082 Cl
ATOM     15  C   UNL     1      15.840  30.425  15.399  0.00  0.00    -0.021 A 
ATOM     16  N   UNL     1      15.996  29.345  19.673  0.00  0.00    -0.198 N 
ATOM     17  C   UNL     1      15.117  28.568  20.240  0.00  0.00    +0.122 C 
ATOM     18  N   UNL     1      14.980  28.634  21.612  0.00  0.00    -0.327 N 
ATOM     19  C   UNL     1      15.518  29.727  22.408  0.00  0.00    +0.034 C 
ATOM     20  C   UNL     1      15.343  29.406  23.895  0.00  0.00    +0.060 C 
ATOM     21  O   UNL     1      13.956  29.220  24.191  0.00  0.00    -0.393 OA
ATOM     22  C   UNL     1      14.291  27.512  19.574  0.00  0.00    -0.025 C 
ATOM     23  C   UNL     1      13.772  27.613  18.340  0.00  0.00    -0.076 C 
ATOM     24  C   UNL     1      13.709  26.372  17.474  0.00  0.00    -0.004 C 
ATOM     25  H   UNL     1      16.895  28.724  16.599  0.00  0.00    +0.000 HD
ATOM     26  H   UNL     1      15.789  31.382  18.566  0.00  0.00    +0.000 HD
ATOM     27  H   UNL     1      16.548  29.905  20.265  0.00  0.00    +0.000 HD
ATOM     28  H   UNL     1      14.497  27.910  22.071  0.00  0.00    +0.000 HD
ATOM     29  H   UNL     1      13.468  30.032  23.981  0.00  0.00    +0.000 HD
ENDROOT
TORSDOF 0
ENDMDL
MODEL 6
REMARK VINA RESULT:    -3.738     17.235     18.246
REMARK INTER + INTRA:          -3.738
REMARK INTER:                  -3.738
REMARK INTRA:                   0.000
REMARK UNBOUND:                 0.000
REMARK  Name = /home/vital/Documents/PhD_2021/Malaria_codes/scripts/../data/pdbqt_ligands/ligand_309_temp.pdb
REMARK                            x       y       z     vdW  Elec       q    Type
REMARK                         _______ _______ _______ _____ _____    ______ ____
ROOT
ATOM      1  C   UNL     1      16.835  28.083  22.489  0.00  0.00    -0.034 C 
ATOM      2  C   UNL     1      16.296  29.021  21.454  0.00  0.00    -0.006 C 
ATOM      3  C   UNL     1      17.036  29.540  20.504  0.00  0.00    +0.010 C 
ATOM      4  N   UNL     1      17.458  30.103  19.560  0.00  0.00    -0.101 NA
ATOM      5  N   UNL     1      16.775  29.623  18.440  0.00  0.00    -0.104 N 
ATOM      6  C   UNL     1      15.948  30.400  17.791  0.00  0.00    +0.242 C 
ATOM      7  N   UNL     1      15.231  29.953  16.705  0.00  0.00    -0.282 N 
ATOM      8  C   UNL     1      14.981  28.659  16.229  0.00  0.00    +0.035 A 
ATOM      9  C   UNL     1      14.354  28.523  14.979  0.00  0.00    -0.039 A 
ATOM     10  C   UNL     1      14.094  27.266  14.425  0.00  0.00    -0.040 A 
ATOM     11  C   UNL     1      14.462  26.111  15.112  0.00  0.00    +0.059 A 
ATOM     12 CL   UNL     1      14.106  24.588  14.378  0.00  0.00    -0.082 Cl
ATOM     13  C   UNL     1      15.096  26.221  16.351  0.00  0.00    +0.061 A 
ATOM     14 CL   UNL     1      15.578  24.836  17.267  0.00  0.00    -0.082 Cl
ATOM     15  C   UNL     1      15.357  27.486  16.897  0.00  0.00    -0.021 A 
ATOM     16  N   UNL     1      15.725  31.733  18.031  0.00  0.00    -0.198 N 
ATOM     17  C   UNL     1      15.176  32.231  19.102  0.00  0.00    +0.122 C 
ATOM     18  N   UNL     1      14.967  33.594  19.152  0.00  0.00    -0.327 N 
ATOM     19  C   UNL     1      15.028  34.447  17.974  0.00  0.00    +0.034 C 
ATOM     20  C   UNL     1      14.923  35.912  18.403  0.00  0.00    +0.060 C 
ATOM     21  O   UNL     1      13.693  36.127  19.101  0.00  0.00    -0.393 OA
ATOM     22  C   UNL     1      14.829  31.493  20.358  0.00  0.00    -0.025 C 
ATOM     23  C   UNL     1      14.361  30.235  20.401  0.00  0.00    -0.076 C 
ATOM     24  C   UNL     1      14.799  29.336  21.538  0.00  0.00    -0.004 C 
ATOM     25  H   UNL     1      16.918  28.697  18.138  0.00  0.00    +0.000 HD
ATOM     26  H   UNL     1      14.823  30.669  16.167  0.00  0.00    +0.000 HD
ATOM     27  H   UNL     1      16.005  32.368  17.333  0.00  0.00    +0.000 HD
ATOM     28  H   UNL     1      14.769  34.007  20.023  0.00  0.00    +0.000 HD
ATOM     29  H   UNL     1      12.948  35.912  18.519  0.00  0.00    +0.000 HD
ENDROOT
TORSDOF 0
ENDMDL
MODEL 7
REMARK VINA RESULT:    -3.703     17.561     18.901
REMARK INTER + INTRA:          -3.703
REMARK INTER:                  -3.703
REMARK INTRA:                   0.000
REMARK UNBOUND:                 0.000
REMARK  Name = /home/vital/Documents/PhD_2021/Malaria_codes/scripts/../data/pdbqt_ligands/ligand_309_temp.pdb
REMARK                            x       y       z     vdW  Elec       q    Type
REMARK                         _______ _______ _______ _____ _____    ______ ____
ROOT
ATOM      1  C   UNL     1      17.700  33.081  19.580  0.00  0.00    -0.034 C 
ATOM      2  C   UNL     1      17.287  31.779  20.190  0.00  0.00    -0.006 C 
ATOM      3  C   UNL     1      16.073  31.547  20.629  0.00  0.00    +0.010 C 
ATOM      4  N   UNL     1      15.080  31.083  21.058  0.00  0.00    -0.101 NA
ATOM      5  N   UNL     1      14.743  29.989  20.258  0.00  0.00    -0.104 N 
ATOM      6  C   UNL     1      14.813  28.775  20.739  0.00  0.00    +0.242 C 
ATOM      7  N   UNL     1      14.523  27.671  19.971  0.00  0.00    -0.282 N 
ATOM      8  C   UNL     1      14.384  27.517  18.585  0.00  0.00    +0.035 A 
ATOM      9  C   UNL     1      13.904  26.288  18.100  0.00  0.00    -0.039 A 
ATOM     10  C   UNL     1      13.714  26.066  16.733  0.00  0.00    -0.040 A 
ATOM     11  C   UNL     1      13.998  27.077  15.816  0.00  0.00    +0.059 A 
ATOM     12 CL   UNL     1      13.750  26.738  14.140  0.00  0.00    -0.082 Cl
ATOM     13  C   UNL     1      14.465  28.310  16.274  0.00  0.00    +0.061 A 
ATOM     14 CL   UNL     1      14.844  29.611  15.200  0.00  0.00    -0.082 Cl
ATOM     15  C   UNL     1      14.648  28.524  17.648  0.00  0.00    -0.021 A 
ATOM     16  N   UNL     1      15.101  28.429  22.035  0.00  0.00    -0.198 N 
ATOM     17  C   UNL     1      16.243  28.611  22.634  0.00  0.00    +0.122 C 
ATOM     18  N   UNL     1      16.383  28.143  23.924  0.00  0.00    -0.327 N 
ATOM     19  C   UNL     1      15.458  27.194  24.525  0.00  0.00    +0.034 C 
ATOM     20  C   UNL     1      15.800  27.020  26.007  0.00  0.00    +0.060 C 
ATOM     21  O   UNL     1      17.143  26.549  26.143  0.00  0.00    -0.393 OA
ATOM     22  C   UNL     1      17.418  29.379  22.110  0.00  0.00    -0.025 C 
ATOM     23  C   UNL     1      17.806  29.401  20.825  0.00  0.00    -0.076 C 
ATOM     24  C   UNL     1      18.361  30.689  20.256  0.00  0.00    -0.004 C 
ATOM     25  H   UNL     1      14.452  30.132  19.328  0.00  0.00    +0.000 HD
ATOM     26  H   UNL     1      14.389  26.844  20.486  0.00  0.00    +0.000 HD
ATOM     27  H   UNL     1      14.383  28.006  22.558  0.00  0.00    +0.000 HD
ATOM     28  H   UNL     1      17.142  28.466  24.462  0.00  0.00    +0.000 HD
ATOM     29  H   UNL     1      17.234  25.694  25.694  0.00  0.00    +0.000 HD
ENDROOT
TORSDOF 0
ENDMDL
MODEL 8
REMARK VINA RESULT:    -3.535     16.122     17.251
REMARK INTER + INTRA:          -3.535
REMARK INTER:                  -3.535
REMARK INTRA:                   0.000
REMARK UNBOUND:                 0.000
REMARK  Name = /home/vital/Documents/PhD_2021/Malaria_codes/scripts/../data/pdbqt_ligands/ligand_309_temp.pdb
REMARK                            x       y       z     vdW  Elec       q    Type
REMARK                         _______ _______ _______ _____ _____    ______ ____
ROOT
ATOM      1  C   UNL     1      16.269  32.560  21.230  0.00  0.00    -0.034 C 
ATOM      2  C   UNL     1      16.101  32.825  19.767  0.00  0.00    -0.006 C 
ATOM      3  C   UNL     1      17.049  32.610  18.886  0.00  0.00    +0.010 C 
ATOM      4  N   UNL     1      17.701  32.480  17.916  0.00  0.00    -0.101 NA
ATOM      5  N   UNL     1      17.051  31.562  17.088  0.00  0.00    -0.104 N 
ATOM      6  C   UNL     1      16.522  31.954  15.959  0.00  0.00    +0.242 C 
ATOM      7  N   UNL     1      15.844  31.086  15.134  0.00  0.00    -0.282 N 
ATOM      8  C   UNL     1      15.335  29.800  15.360  0.00  0.00    +0.035 A 
ATOM      9  C   UNL     1      14.840  29.081  14.259  0.00  0.00    -0.039 A 
ATOM     10  C   UNL     1      14.339  27.783  14.399  0.00  0.00    -0.040 A 
ATOM     11  C   UNL     1      14.328  27.170  15.651  0.00  0.00    +0.059 A 
ATOM     12 CL   UNL     1      13.690  25.569  15.761  0.00  0.00    -0.082 Cl
ATOM     13  C   UNL     1      14.826  27.861  16.758  0.00  0.00    +0.061 A 
ATOM     14 CL   UNL     1      14.842  27.173  18.344  0.00  0.00    -0.082 Cl
ATOM     15  C   UNL     1      15.330  29.161  16.607  0.00  0.00    -0.021 A 
ATOM     16  N   UNL     1      16.612  33.208  15.409  0.00  0.00    -0.198 N 
ATOM     17  C   UNL     1      16.087  34.293  15.902  0.00  0.00    +0.122 C 
ATOM     18  N   UNL     1      16.219  35.464  15.185  0.00  0.00    -0.327 N 
ATOM     19  C   UNL     1      16.622  35.493  13.786  0.00  0.00    +0.034 C 
ATOM     20  C   UNL     1      16.837  36.944  13.350  0.00  0.00    +0.060 C 
ATOM     21  O   UNL     1      15.629  37.689  13.527  0.00  0.00    -0.393 OA
ATOM     22  C   UNL     1      15.428  34.443  17.238  0.00  0.00    -0.025 C 
ATOM     23  C   UNL     1      14.660  33.509  17.822  0.00  0.00    -0.076 C 
ATOM     24  C   UNL     1      14.729  33.346  19.325  0.00  0.00    -0.004 C 
ATOM     25  H   UNL     1      16.992  30.617  17.356  0.00  0.00    +0.000 HD
ATOM     26  H   UNL     1      15.690  31.429  14.224  0.00  0.00    +0.000 HD
ATOM     27  H   UNL     1      17.118  33.296  14.570  0.00  0.00    +0.000 HD
ATOM     28  H   UNL     1      16.033  36.318  15.639  0.00  0.00    +0.000 HD
ATOM     29  H   UNL     1      14.924  37.296  12.989  0.00  0.00    +0.000 HD
ENDROOT
TORSDOF 0
ENDMDL
