MODEL 1
REMARK VINA RESULT:    -3.420      0.000      0.000
REMARK INTER + INTRA:          -3.420
REMARK INTER:                  -3.420
REMARK INTRA:                   0.000
REMARK UNBOUND:                 0.000
REMARK  Name = /home/vital/Documents/PhD_2021/Malaria_codes/scripts/../data/pdbqt_ligands/ligand_298_temp.pdb
REMARK                            x       y       z     vdW  Elec       q    Type
REMARK                         _______ _______ _______ _____ _____    ______ ____
ROOT
ATOM      1  C   UNL     1      18.021  25.058  18.381  0.00  0.00    -0.040 C 
ATOM      2  C   UNL     1      17.078  24.900  17.224  0.00  0.00    -0.050 A 
ATOM      3  C   UNL     1      16.297  23.745  17.097  0.00  0.00    -0.056 A 
ATOM      4  C   UNL     1      15.403  23.618  16.035  0.00  0.00    -0.026 A 
ATOM      5  C   UNL     1      15.276  24.648  15.108  0.00  0.00    +0.128 A 
ATOM      6  F   UNL     1      14.414  24.495  14.092  0.00  0.00    -0.205 F 
ATOM      7  C   UNL     1      16.021  25.824  15.223  0.00  0.00    +0.002 A 
ATOM      8  C   UNL     1      15.888  26.921  14.195  0.00  0.00    +0.024 C 
ATOM      9  N   UNL     1      15.699  28.229  14.827  0.00  0.00    -0.307 N 
ATOM     10  C   UNL     1      15.535  29.322  13.850  0.00  0.00    +0.034 C 
ATOM     11  C   UNL     1      16.877  29.653  13.167  0.00  0.00    -0.035 C 
ATOM     12  C   UNL     1      16.926  31.058  12.557  0.00  0.00    -0.051 C 
ATOM     13  C   UNL     1      15.541  31.594  12.225  0.00  0.00    -0.051 C 
ATOM     14  C   UNL     1      14.639  31.675  13.461  0.00  0.00    -0.025 C 
ATOM     15  C   UNL     1      14.932  30.590  14.509  0.00  0.00    +0.071 C 
ATOM     16  O   UNL     1      15.834  31.122  15.486  0.00  0.00    -0.390 OA
ATOM     17  C   UNL     1      16.929  25.936  16.290  0.00  0.00    -0.052 A 
ATOM     18  H   UNL     1      16.513  28.431  15.406  0.00  0.00    +0.000 HD
ATOM     19  H   UNL     1      14.842  28.181  15.377  0.00  0.00    +0.000 HD
ATOM     20  H   UNL     1      16.662  31.381  15.053  0.00  0.00    +0.000 HD
ENDROOT
TORSDOF 0
ENDMDL
MODEL 2
REMARK VINA RESULT:    -3.324     14.234     16.896
REMARK INTER + INTRA:          -3.324
REMARK INTER:                  -3.324
REMARK INTRA:                   0.000
REMARK UNBOUND:                 0.000
REMARK  Name = /home/vital/Documents/PhD_2021/Malaria_codes/scripts/../data/pdbqt_ligands/ligand_298_temp.pdb
REMARK                            x       y       z     vdW  Elec       q    Type
REMARK                         _______ _______ _______ _____ _____    ______ ____
ROOT
ATOM      1  C   UNL     1      15.870  41.728  15.328  0.00  0.00    -0.040 C 
ATOM      2  C   UNL     1      17.220  41.333  15.850  0.00  0.00    -0.050 A 
ATOM      3  C   UNL     1      17.548  39.984  16.026  0.00  0.00    -0.056 A 
ATOM      4  C   UNL     1      18.814  39.624  16.485  0.00  0.00    -0.026 A 
ATOM      5  C   UNL     1      19.759  40.609  16.754  0.00  0.00    +0.128 A 
ATOM      6  F   UNL     1      20.967  40.235  17.202  0.00  0.00    -0.205 F 
ATOM      7  C   UNL     1      19.473  41.963  16.563  0.00  0.00    +0.002 A 
ATOM      8  C   UNL     1      20.502  43.019  16.883  0.00  0.00    +0.024 C 
ATOM      9  N   UNL     1      20.645  43.980  15.787  0.00  0.00    -0.307 N 
ATOM     10  C   UNL     1      21.665  45.010  16.053  0.00  0.00    +0.034 C 
ATOM     11  C   UNL     1      21.163  46.021  17.104  0.00  0.00    -0.035 C 
ATOM     12  C   UNL     1      21.897  47.366  17.062  0.00  0.00    -0.051 C 
ATOM     13  C   UNL     1      23.286  47.250  16.454  0.00  0.00    -0.051 C 
ATOM     14  C   UNL     1      23.248  46.717  15.018  0.00  0.00    -0.025 C 
ATOM     15  C   UNL     1      22.090  45.743  14.753  0.00  0.00    +0.071 C 
ATOM     16  O   UNL     1      20.986  46.473  14.209  0.00  0.00    -0.390 OA
ATOM     17  C   UNL     1      18.188  42.314  16.113  0.00  0.00    -0.052 A 
ATOM     18  H   UNL     1      19.748  44.442  15.641  0.00  0.00    +0.000 HD
ATOM     19  H   UNL     1      20.944  43.460  14.963  0.00  0.00    +0.000 HD
ATOM     20  H   UNL     1      20.698  47.146  14.844  0.00  0.00    +0.000 HD
ENDROOT
TORSDOF 0
ENDMDL
MODEL 3
REMARK VINA RESULT:    -3.007     13.497     16.400
REMARK INTER + INTRA:          -3.007
REMARK INTER:                  -3.007
REMARK INTRA:                   0.000
REMARK UNBOUND:                 0.000
REMARK  Name = /home/vital/Documents/PhD_2021/Malaria_codes/scripts/../data/pdbqt_ligands/ligand_298_temp.pdb
REMARK                            x       y       z     vdW  Elec       q    Type
REMARK                         _______ _______ _______ _____ _____    ______ ____
ROOT
ATOM      1  C   UNL     1      20.193  47.013  18.528  0.00  0.00    -0.040 C 
ATOM      2  C   UNL     1      20.258  45.553  18.869  0.00  0.00    -0.050 A 
ATOM      3  C   UNL     1      20.663  45.138  20.142  0.00  0.00    -0.056 A 
ATOM      4  C   UNL     1      20.694  43.781  20.460  0.00  0.00    -0.026 A 
ATOM      5  C   UNL     1      20.306  42.838  19.513  0.00  0.00    +0.128 A 
ATOM      6  F   UNL     1      20.353  41.539  19.844  0.00  0.00    -0.205 F 
ATOM      7  C   UNL     1      19.870  43.222  18.243  0.00  0.00    +0.002 A 
ATOM      8  C   UNL     1      19.476  42.184  17.221  0.00  0.00    +0.024 C 
ATOM      9  N   UNL     1      18.187  42.502  16.602  0.00  0.00    -0.307 N 
ATOM     10  C   UNL     1      17.755  41.492  15.618  0.00  0.00    +0.034 C 
ATOM     11  C   UNL     1      18.594  41.590  14.328  0.00  0.00    -0.035 C 
ATOM     12  C   UNL     1      17.910  40.973  13.102  0.00  0.00    -0.051 C 
ATOM     13  C   UNL     1      16.883  39.917  13.482  0.00  0.00    -0.051 C 
ATOM     14  C   UNL     1      15.773  40.482  14.375  0.00  0.00    -0.025 C 
ATOM     15  C   UNL     1      16.243  41.620  15.295  0.00  0.00    +0.071 C 
ATOM     16  O   UNL     1      15.973  42.872  14.656  0.00  0.00    -0.390 OA
ATOM     17  C   UNL     1      19.856  44.591  17.929  0.00  0.00    -0.052 A 
ATOM     18  H   UNL     1      18.266  43.402  16.129  0.00  0.00    +0.000 HD
ATOM     19  H   UNL     1      17.489  42.522  17.345  0.00  0.00    +0.000 HD
ATOM     20  H   UNL     1      16.457  42.919  13.818  0.00  0.00    +0.000 HD
ENDROOT
TORSDOF 0
ENDMDL
MODEL 4
REMARK VINA RESULT:    -2.907      3.186      6.794
REMARK INTER + INTRA:          -2.907
REMARK INTER:                  -2.907
REMARK INTRA:                   0.000
REMARK UNBOUND:                 0.000
REMARK  Name = /home/vital/Documents/PhD_2021/Malaria_codes/scripts/../data/pdbqt_ligands/ligand_298_temp.pdb
REMARK                            x       y       z     vdW  Elec       q    Type
REMARK                         _______ _______ _______ _____ _____    ______ ____
ROOT
ATOM      1  C   UNL     1      16.037  28.009  13.522  0.00  0.00    -0.040 C 
ATOM      2  C   UNL     1      15.838  26.720  14.264  0.00  0.00    -0.050 A 
ATOM      3  C   UNL     1      14.828  25.829  13.884  0.00  0.00    -0.056 A 
ATOM      4  C   UNL     1      14.668  24.621  14.561  0.00  0.00    -0.026 A 
ATOM      5  C   UNL     1      15.524  24.294  15.608  0.00  0.00    +0.128 A 
ATOM      6  F   UNL     1      15.343  23.128  16.247  0.00  0.00    -0.205 F 
ATOM      7  C   UNL     1      16.560  25.149  15.993  0.00  0.00    +0.002 A 
ATOM      8  C   UNL     1      17.464  24.789  17.147  0.00  0.00    +0.024 C 
ATOM      9  N   UNL     1      18.876  24.958  16.795  0.00  0.00    -0.307 N 
ATOM     10  C   UNL     1      19.791  24.585  17.889  0.00  0.00    +0.034 C 
ATOM     11  C   UNL     1      19.765  25.645  19.010  0.00  0.00    -0.035 C 
ATOM     12  C   UNL     1      21.012  25.626  19.901  0.00  0.00    -0.051 C 
ATOM     13  C   UNL     1      21.706  24.273  19.899  0.00  0.00    -0.051 C 
ATOM     14  C   UNL     1      22.155  23.854  18.495  0.00  0.00    -0.025 C 
ATOM     15  C   UNL     1      21.239  24.372  17.376  0.00  0.00    +0.071 C 
ATOM     16  O   UNL     1      21.775  25.600  16.870  0.00  0.00    -0.390 OA
ATOM     17  C   UNL     1      16.703  26.370  15.313  0.00  0.00    -0.052 A 
ATOM     18  H   UNL     1      19.037  25.935  16.556  0.00  0.00    +0.000 HD
ATOM     19  H   UNL     1      19.071  24.336  16.010  0.00  0.00    +0.000 HD
ATOM     20  H   UNL     1      21.810  26.255  17.584  0.00  0.00    +0.000 HD
ENDROOT
TORSDOF 0
ENDMDL
MODEL 5
REMARK VINA RESULT:    -2.900      3.077      6.783
REMARK INTER + INTRA:          -2.900
REMARK INTER:                  -2.900
REMARK INTRA:                   0.000
REMARK UNBOUND:                 0.000
REMARK  Name = /home/vital/Documents/PhD_2021/Malaria_codes/scripts/../data/pdbqt_ligands/ligand_298_temp.pdb
REMARK                            x       y       z     vdW  Elec       q    Type
REMARK                         _______ _______ _______ _____ _____    ______ ____
ROOT
ATOM      1  C   UNL     1      19.259  32.894  14.675  0.00  0.00    -0.040 C 
ATOM      2  C   UNL     1      17.906  32.725  14.050  0.00  0.00    -0.050 A 
ATOM      3  C   UNL     1      17.437  33.649  13.110  0.00  0.00    -0.056 A 
ATOM      4  C   UNL     1      16.189  33.470  12.513  0.00  0.00    -0.026 A 
ATOM      5  C   UNL     1      15.416  32.361  12.843  0.00  0.00    +0.128 A 
ATOM      6  F   UNL     1      14.217  32.218  12.259  0.00  0.00    -0.205 F 
ATOM      7  C   UNL     1      15.868  31.406  13.757  0.00  0.00    +0.002 A 
ATOM      8  C   UNL     1      15.005  30.223  14.121  0.00  0.00    +0.024 C 
ATOM      9  N   UNL     1      15.757  28.968  14.047  0.00  0.00    -0.307 N 
ATOM     10  C   UNL     1      14.936  27.785  14.366  0.00  0.00    +0.034 C 
ATOM     11  C   UNL     1      14.637  27.718  15.878  0.00  0.00    -0.035 C 
ATOM     12  C   UNL     1      14.263  26.315  16.368  0.00  0.00    -0.051 C 
ATOM     13  C   UNL     1      13.700  25.443  15.255  0.00  0.00    -0.051 C 
ATOM     14  C   UNL     1      14.692  25.263  14.102  0.00  0.00    -0.025 C 
ATOM     15  C   UNL     1      15.613  26.474  13.887  0.00  0.00    +0.071 C 
ATOM     16  O   UNL     1      16.837  26.256  14.596  0.00  0.00    -0.390 OA
ATOM     17  C   UNL     1      17.120  31.605  14.362  0.00  0.00    -0.052 A 
ATOM     18  H   UNL     1      16.532  29.013  14.708  0.00  0.00    +0.000 HD
ATOM     19  H   UNL     1      16.081  28.863  13.086  0.00  0.00    +0.000 HD
ATOM     20  H   UNL     1      16.650  26.160  15.542  0.00  0.00    +0.000 HD
ENDROOT
TORSDOF 0
ENDMDL
MODEL 6
REMARK VINA RESULT:    -2.849      3.516      4.277
REMARK INTER + INTRA:          -2.849
REMARK INTER:                  -2.849
REMARK INTRA:                   0.000
REMARK UNBOUND:                 0.000
REMARK  Name = /home/vital/Documents/PhD_2021/Malaria_codes/scripts/../data/pdbqt_ligands/ligand_298_temp.pdb
REMARK                            x       y       z     vdW  Elec       q    Type
REMARK                         _______ _______ _______ _____ _____    ______ ____
ROOT
ATOM      1  C   UNL     1      15.732  23.734  17.079  0.00  0.00    -0.040 C 
ATOM      2  C   UNL     1      15.695  24.700  15.932  0.00  0.00    -0.050 A 
ATOM      3  C   UNL     1      14.523  24.873  15.187  0.00  0.00    -0.056 A 
ATOM      4  C   UNL     1      14.487  25.793  14.140  0.00  0.00    -0.026 A 
ATOM      5  C   UNL     1      15.617  26.551  13.844  0.00  0.00    +0.128 A 
ATOM      6  F   UNL     1      15.557  27.423  12.826  0.00  0.00    -0.205 F 
ATOM      7  C   UNL     1      16.793  26.421  14.586  0.00  0.00    +0.002 A 
ATOM      8  C   UNL     1      18.015  27.233  14.236  0.00  0.00    +0.024 C 
ATOM      9  N   UNL     1      18.590  27.877  15.420  0.00  0.00    -0.307 N 
ATOM     10  C   UNL     1      19.770  28.705  15.110  0.00  0.00    +0.034 C 
ATOM     11  C   UNL     1      20.991  27.820  14.786  0.00  0.00    -0.035 C 
ATOM     12  C   UNL     1      22.334  28.537  14.964  0.00  0.00    -0.051 C 
ATOM     13  C   UNL     1      22.205  30.048  14.842  0.00  0.00    -0.051 C 
ATOM     14  C   UNL     1      21.244  30.634  15.882  0.00  0.00    -0.025 C 
ATOM     15  C   UNL     1      20.100  29.684  16.267  0.00  0.00    +0.071 C 
ATOM     16  O   UNL     1      20.476  28.959  17.443  0.00  0.00    -0.390 OA
ATOM     17  C   UNL     1      16.821  25.481  15.631  0.00  0.00    -0.052 A 
ATOM     18  H   UNL     1      18.866  27.152  16.082  0.00  0.00    +0.000 HD
ATOM     19  H   UNL     1      17.877  28.494  15.807  0.00  0.00    +0.000 HD
ATOM     20  H   UNL     1      21.275  28.441  17.261  0.00  0.00    +0.000 HD
ENDROOT
TORSDOF 0
ENDMDL
MODEL 7
REMARK VINA RESULT:    -2.669      2.292      6.614
REMARK INTER + INTRA:          -2.669
REMARK INTER:                  -2.669
REMARK INTRA:                   0.000
REMARK UNBOUND:                 0.000
REMARK  Name = /home/vital/Documents/PhD_2021/Malaria_codes/scripts/../data/pdbqt_ligands/ligand_298_temp.pdb
REMARK                            x       y       z     vdW  Elec       q    Type
REMARK                         _______ _______ _______ _____ _____    ______ ____
ROOT
ATOM      1  C   UNL     1      15.653  33.422  15.993  0.00  0.00    -0.040 C 
ATOM      2  C   UNL     1      15.507  32.310  14.996  0.00  0.00    -0.050 A 
ATOM      3  C   UNL     1      15.333  32.594  13.637  0.00  0.00    -0.056 A 
ATOM      4  C   UNL     1      15.225  31.555  12.712  0.00  0.00    -0.026 A 
ATOM      5  C   UNL     1      15.306  30.234  13.141  0.00  0.00    +0.128 A 
ATOM      6  F   UNL     1      15.192  29.255  12.232  0.00  0.00    -0.205 F 
ATOM      7  C   UNL     1      15.507  29.919  14.488  0.00  0.00    +0.002 A 
ATOM      8  C   UNL     1      15.567  28.480  14.938  0.00  0.00    +0.024 C 
ATOM      9  N   UNL     1      16.726  28.236  15.801  0.00  0.00    -0.307 N 
ATOM     10  C   UNL     1      16.834  26.831  16.236  0.00  0.00    +0.034 C 
ATOM     11  C   UNL     1      15.761  26.500  17.292  0.00  0.00    -0.035 C 
ATOM     12  C   UNL     1      16.106  25.283  18.158  0.00  0.00    -0.051 C 
ATOM     13  C   UNL     1      17.072  24.334  17.465  0.00  0.00    -0.051 C 
ATOM     14  C   UNL     1      18.396  25.015  17.105  0.00  0.00    -0.025 C 
ATOM     15  C   UNL     1      18.251  26.510  16.781  0.00  0.00    +0.071 C 
ATOM     16  O   UNL     1      18.513  27.268  17.966  0.00  0.00    -0.390 OA
ATOM     17  C   UNL     1      15.600  30.973  15.412  0.00  0.00    -0.052 A 
ATOM     18  H   UNL     1      16.646  28.826  16.628  0.00  0.00    +0.000 HD
ATOM     19  H   UNL     1      17.561  28.452  15.257  0.00  0.00    +0.000 HD
ATOM     20  H   UNL     1      17.873  27.026  18.653  0.00  0.00    +0.000 HD
ENDROOT
TORSDOF 0
ENDMDL
MODEL 8
REMARK VINA RESULT:    -2.588      4.675      5.935
REMARK INTER + INTRA:          -2.588
REMARK INTER:                  -2.588
REMARK INTRA:                   0.000
REMARK UNBOUND:                 0.000
REMARK  Name = /home/vital/Documents/PhD_2021/Malaria_codes/scripts/../data/pdbqt_ligands/ligand_298_temp.pdb
REMARK                            x       y       z     vdW  Elec       q    Type
REMARK                         _______ _______ _______ _____ _____    ______ ____
ROOT
ATOM      1  C   UNL     1      15.601  23.913  15.921  0.00  0.00    -0.040 C 
ATOM      2  C   UNL     1      15.312  25.367  15.684  0.00  0.00    -0.050 A 
ATOM      3  C   UNL     1      14.874  25.809  14.431  0.00  0.00    -0.056 A 
ATOM      4  C   UNL     1      14.581  27.157  14.226  0.00  0.00    -0.026 A 
ATOM      5  C   UNL     1      14.712  28.061  15.275  0.00  0.00    +0.128 A 
ATOM      6  F   UNL     1      14.431  29.353  15.049  0.00  0.00    -0.205 F 
ATOM      7  C   UNL     1      15.121  27.647  16.545  0.00  0.00    +0.002 A 
ATOM      8  C   UNL     1      15.280  28.646  17.665  0.00  0.00    +0.024 C 
ATOM      9  N   UNL     1      14.615  28.191  18.889  0.00  0.00    -0.307 N 
ATOM     10  C   UNL     1      14.724  29.158  19.997  0.00  0.00    +0.034 C 
ATOM     11  C   UNL     1      16.155  29.172  20.573  0.00  0.00    -0.035 C 
ATOM     12  C   UNL     1      16.236  29.722  22.001  0.00  0.00    -0.051 C 
ATOM     13  C   UNL     1      15.077  30.650  22.332  0.00  0.00    -0.051 C 
ATOM     14  C   UNL     1      13.719  29.952  22.199  0.00  0.00    -0.025 C 
ATOM     15  C   UNL     1      13.690  28.864  21.115  0.00  0.00    +0.071 C 
ATOM     16  O   UNL     1      13.961  27.597  21.724  0.00  0.00    -0.390 OA
ATOM     17  C   UNL     1      15.426  26.288  16.736  0.00  0.00    -0.052 A 
ATOM     18  H   UNL     1      15.040  27.312  19.182  0.00  0.00    +0.000 HD
ATOM     19  H   UNL     1      13.624  28.083  18.675  0.00  0.00    +0.000 HD
ATOM     20  H   UNL     1      14.839  27.616  22.135  0.00  0.00    +0.000 HD
ENDROOT
TORSDOF 0
ENDMDL
MODEL 9
REMARK VINA RESULT:    -1.701     22.672     24.038
REMARK INTER + INTRA:          -1.701
REMARK INTER:                  -1.701
REMARK INTRA:                   0.000
REMARK UNBOUND:                 0.000
REMARK  Name = /home/vital/Documents/PhD_2021/Malaria_codes/scripts/../data/pdbqt_ligands/ligand_298_temp.pdb
REMARK                            x       y       z     vdW  Elec       q    Type
REMARK                         _______ _______ _______ _____ _____    ______ ____
ROOT
ATOM      1  C   UNL     1      33.365  44.463  14.108  0.00  0.00    -0.040 C 
ATOM      2  C   UNL     1      33.541  43.632  15.344  0.00  0.00    -0.050 A 
ATOM      3  C   UNL     1      32.776  43.889  16.488  0.00  0.00    -0.056 A 
ATOM      4  C   UNL     1      32.925  43.094  17.624  0.00  0.00    -0.026 A 
ATOM      5  C   UNL     1      33.826  42.034  17.615  0.00  0.00    +0.128 A 
ATOM      6  F   UNL     1      33.954  41.290  18.724  0.00  0.00    -0.205 F 
ATOM      7  C   UNL     1      34.584  41.734  16.480  0.00  0.00    +0.002 A 
ATOM      8  C   UNL     1      35.574  40.596  16.496  0.00  0.00    +0.024 C 
ATOM      9  N   UNL     1      35.417  39.731  15.324  0.00  0.00    -0.307 N 
ATOM     10  C   UNL     1      36.349  38.589  15.322  0.00  0.00    +0.034 C 
ATOM     11  C   UNL     1      37.785  39.053  15.003  0.00  0.00    -0.035 C 
ATOM     12  C   UNL     1      38.690  37.934  14.476  0.00  0.00    -0.051 C 
ATOM     13  C   UNL     1      38.220  36.555  14.913  0.00  0.00    -0.051 C 
ATOM     14  C   UNL     1      36.799  36.245  14.428  0.00  0.00    -0.025 C 
ATOM     15  C   UNL     1      35.900  37.487  14.326  0.00  0.00    +0.071 C 
ATOM     16  O   UNL     1      35.944  37.981  12.983  0.00  0.00    -0.390 OA
ATOM     17  C   UNL     1      34.435  42.551  15.346  0.00  0.00    -0.052 A 
ATOM     18  H   UNL     1      35.584  40.287  14.486  0.00  0.00    +0.000 HD
ATOM     19  H   UNL     1      34.471  39.353  15.348  0.00  0.00    +0.000 HD
ATOM     20  H   UNL     1      36.855  38.226  12.758  0.00  0.00    +0.000 HD
ENDROOT
TORSDOF 0
ENDMDL
