MODEL 1
REMARK VINA RESULT:    -3.816      0.000      0.000
REMARK INTER + INTRA:          -3.816
REMARK INTER:                  -3.816
REMARK INTRA:                   0.000
REMARK UNBOUND:                 0.000
REMARK  Name = /home/vital/Documents/PhD_2021/Malaria_codes/scripts/../data/pdbqt_ligands/ligand_368_temp.pdb
REMARK                            x       y       z     vdW  Elec       q    Type
REMARK                         _______ _______ _______ _____ _____    ______ ____
ROOT
ATOM      1  C   UNL     1      31.858  46.471  19.557  0.00  0.00    -0.014 C 
ATOM      2  C   UNL     1      31.025  45.891  18.416  0.00  0.00    +0.182 C 
ATOM      3  C   UNL     1      29.832  46.739  18.200  0.00  0.00    +0.107 C 
ATOM      4  N   UNL     1      28.885  47.398  18.058  0.00  0.00    -0.193 NA
ATOM      5  O   UNL     1      31.808  45.878  17.215  0.00  0.00    -0.475 OA
ATOM      6  C   UNL     1      32.545  44.770  16.911  0.00  0.00    +0.122 A 
ATOM      7  C   UNL     1      32.804  43.689  17.751  0.00  0.00    -0.020 A 
ATOM      8  C   UNL     1      33.588  42.620  17.300  0.00  0.00    -0.054 A 
ATOM      9  C   UNL     1      34.129  42.619  16.007  0.00  0.00    -0.033 A 
ATOM     10  C   UNL     1      34.967  41.455  15.527  0.00  0.00    +0.021 C 
ATOM     11  N   UNL     1      34.135  40.261  15.360  0.00  0.00    -0.309 N 
ATOM     12  C   UNL     1      34.843  39.177  14.650  0.00  0.00    +0.026 C 
ATOM     13  C   UNL     1      36.108  38.622  15.355  0.00  0.00    +0.093 C 
ATOM     14  O   UNL     1      37.211  39.521  15.181  0.00  0.00    -0.386 OA
ATOM     15  C   UNL     1      36.502  37.262  14.814  0.00  0.00    -0.018 A 
ATOM     16  C   UNL     1      37.027  37.123  13.519  0.00  0.00    -0.056 A 
ATOM     17  C   UNL     1      37.382  35.866  13.027  0.00  0.00    -0.061 A 
ATOM     18  C   UNL     1      37.216  34.734  13.822  0.00  0.00    -0.062 A 
ATOM     19  C   UNL     1      36.694  34.857  15.108  0.00  0.00    -0.061 A 
ATOM     20  C   UNL     1      36.338  36.114  15.602  0.00  0.00    -0.056 A 
ATOM     21  C   UNL     1      33.868  43.709  15.170  0.00  0.00    -0.054 A 
ATOM     22  C   UNL     1      33.087  44.775  15.623  0.00  0.00    -0.020 A 
ATOM     23  H   UNL     1      33.303  40.512  14.826  0.00  0.00    +0.000 HD
ATOM     24  H   UNL     1      33.893  39.917  16.290  0.00  0.00    +0.000 HD
ATOM     25  H   UNL     1      37.417  39.601  14.237  0.00  0.00    +0.000 HD
ENDROOT
TORSDOF 0
ENDMDL
MODEL 2
REMARK VINA RESULT:    -3.270      9.792     14.122
REMARK INTER + INTRA:          -3.270
REMARK INTER:                  -3.270
REMARK INTRA:                   0.000
REMARK UNBOUND:                 0.000
REMARK  Name = /home/vital/Documents/PhD_2021/Malaria_codes/scripts/../data/pdbqt_ligands/ligand_368_temp.pdb
REMARK                            x       y       z     vdW  Elec       q    Type
REMARK                         _______ _______ _______ _____ _____    ______ ____
ROOT
ATOM      1  C   UNL     1      28.738  45.064  17.164  0.00  0.00    -0.014 C 
ATOM      2  C   UNL     1      27.745  45.767  18.086  0.00  0.00    +0.182 C 
ATOM      3  C   UNL     1      28.454  46.800  18.874  0.00  0.00    +0.107 C 
ATOM      4  N   UNL     1      29.027  47.589  19.506  0.00  0.00    -0.193 NA
ATOM      5  O   UNL     1      26.731  46.403  17.297  0.00  0.00    -0.475 OA
ATOM      6  C   UNL     1      25.589  45.715  16.999  0.00  0.00    +0.122 A 
ATOM      7  C   UNL     1      25.363  44.354  17.200  0.00  0.00    -0.020 A 
ATOM      8  C   UNL     1      24.136  43.785  16.836  0.00  0.00    -0.054 A 
ATOM      9  C   UNL     1      23.122  44.564  16.262  0.00  0.00    -0.033 A 
ATOM     10  C   UNL     1      21.798  43.940  15.881  0.00  0.00    +0.021 C 
ATOM     11  N   UNL     1      21.052  43.553  17.081  0.00  0.00    -0.309 N 
ATOM     12  C   UNL     1      19.655  43.183  16.778  0.00  0.00    +0.026 C 
ATOM     13  C   UNL     1      19.468  41.960  15.844  0.00  0.00    +0.093 C 
ATOM     14  O   UNL     1      19.714  42.330  14.482  0.00  0.00    -0.386 OA
ATOM     15  C   UNL     1      18.068  41.385  15.944  0.00  0.00    -0.018 A 
ATOM     16  C   UNL     1      16.961  42.084  15.436  0.00  0.00    -0.056 A 
ATOM     17  C   UNL     1      15.676  41.550  15.537  0.00  0.00    -0.061 A 
ATOM     18  C   UNL     1      15.481  40.313  16.148  0.00  0.00    -0.062 A 
ATOM     19  C   UNL     1      16.570  39.610  16.659  0.00  0.00    -0.061 A 
ATOM     20  C   UNL     1      17.857  40.142  16.559  0.00  0.00    -0.056 A 
ATOM     21  C   UNL     1      23.358  45.929  16.060  0.00  0.00    -0.054 A 
ATOM     22  C   UNL     1      24.583  46.494  16.423  0.00  0.00    -0.020 A 
ATOM     23  H   UNL     1      21.049  44.337  17.733  0.00  0.00    +0.000 HD
ATOM     24  H   UNL     1      21.510  42.735  17.483  0.00  0.00    +0.000 HD
ATOM     25  H   UNL     1      19.072  43.004  14.209  0.00  0.00    +0.000 HD
ENDROOT
TORSDOF 0
ENDMDL
MODEL 3
REMARK VINA RESULT:    -3.214     19.096     19.777
REMARK INTER + INTRA:          -3.214
REMARK INTER:                  -3.214
REMARK INTRA:                   0.000
REMARK UNBOUND:                 0.000
REMARK  Name = /home/vital/Documents/PhD_2021/Malaria_codes/scripts/../data/pdbqt_ligands/ligand_368_temp.pdb
REMARK                            x       y       z     vdW  Elec       q    Type
REMARK                         _______ _______ _______ _____ _____    ______ ____
ROOT
ATOM      1  C   UNL     1      17.899  40.311  16.701  0.00  0.00    -0.014 C 
ATOM      2  C   UNL     1      16.719  40.121  15.750  0.00  0.00    +0.182 C 
ATOM      3  C   UNL     1      16.251  41.443  15.279  0.00  0.00    +0.107 C 
ATOM      4  N   UNL     1      15.875  42.489  14.937  0.00  0.00    -0.193 NA
ATOM      5  O   UNL     1      17.141  39.349  14.618  0.00  0.00    -0.475 OA
ATOM      6  C   UNL     1      17.014  37.989  14.652  0.00  0.00    +0.122 A 
ATOM      7  C   UNL     1      16.705  37.213  15.767  0.00  0.00    -0.020 A 
ATOM      8  C   UNL     1      16.615  35.820  15.650  0.00  0.00    -0.054 A 
ATOM      9  C   UNL     1      16.839  35.184  14.422  0.00  0.00    -0.033 A 
ATOM     10  C   UNL     1      16.730  33.681  14.306  0.00  0.00    +0.021 C 
ATOM     11  N   UNL     1      15.338  33.255  14.461  0.00  0.00    -0.309 N 
ATOM     12  C   UNL     1      15.139  31.838  14.099  0.00  0.00    +0.026 C 
ATOM     13  C   UNL     1      15.915  30.806  14.959  0.00  0.00    +0.093 C 
ATOM     14  O   UNL     1      17.292  30.763  14.564  0.00  0.00    -0.386 OA
ATOM     15  C   UNL     1      15.330  29.413  14.828  0.00  0.00    -0.018 A 
ATOM     16  C   UNL     1      15.459  28.683  13.636  0.00  0.00    -0.056 A 
ATOM     17  C   UNL     1      14.913  27.404  13.523  0.00  0.00    -0.061 A 
ATOM     18  C   UNL     1      14.232  26.839  14.599  0.00  0.00    -0.062 A 
ATOM     19  C   UNL     1      14.094  27.554  15.788  0.00  0.00    -0.061 A 
ATOM     20  C   UNL     1      14.640  28.834  15.903  0.00  0.00    -0.056 A 
ATOM     21  C   UNL     1      17.153  35.970  13.307  0.00  0.00    -0.054 A 
ATOM     22  C   UNL     1      17.243  37.359  13.427  0.00  0.00    -0.020 A 
ATOM     23  H   UNL     1      14.749  33.832  13.860  0.00  0.00    +0.000 HD
ATOM     24  H   UNL     1      15.087  33.363  15.444  0.00  0.00    +0.000 HD
ATOM     25  H   UNL     1      17.355  30.475  13.640  0.00  0.00    +0.000 HD
ENDROOT
TORSDOF 0
ENDMDL
MODEL 4
REMARK VINA RESULT:    -3.198     20.027     22.460
REMARK INTER + INTRA:          -3.198
REMARK INTER:                  -3.198
REMARK INTRA:                   0.000
REMARK UNBOUND:                 0.000
REMARK  Name = /home/vital/Documents/PhD_2021/Malaria_codes/scripts/../data/pdbqt_ligands/ligand_368_temp.pdb
REMARK                            x       y       z     vdW  Elec       q    Type
REMARK                         _______ _______ _______ _____ _____    ______ ____
ROOT
ATOM      1  C   UNL     1      15.683  26.469  14.414  0.00  0.00    -0.014 C 
ATOM      2  C   UNL     1      14.798  26.970  15.553  0.00  0.00    +0.182 C 
ATOM      3  C   UNL     1      14.187  25.814  16.245  0.00  0.00    +0.107 C 
ATOM      4  N   UNL     1      13.693  24.898  16.763  0.00  0.00    -0.193 NA
ATOM      5  O   UNL     1      15.599  27.701  16.492  0.00  0.00    -0.475 OA
ATOM      6  C   UNL     1      15.741  29.051  16.339  0.00  0.00    +0.122 A 
ATOM      7  C   UNL     1      15.361  29.805  15.230  0.00  0.00    -0.020 A 
ATOM      8  C   UNL     1      15.578  31.188  15.214  0.00  0.00    -0.054 A 
ATOM      9  C   UNL     1      16.183  31.836  16.299  0.00  0.00    -0.033 A 
ATOM     10  C   UNL     1      16.404  33.331  16.274  0.00  0.00    +0.021 C 
ATOM     11  N   UNL     1      15.124  34.039  16.351  0.00  0.00    -0.309 N 
ATOM     12  C   UNL     1      15.295  35.485  16.592  0.00  0.00    +0.026 C 
ATOM     13  C   UNL     1      16.058  36.268  15.492  0.00  0.00    +0.093 C 
ATOM     14  O   UNL     1      17.468  36.035  15.601  0.00  0.00    -0.386 OA
ATOM     15  C   UNL     1      15.805  37.760  15.586  0.00  0.00    -0.018 A 
ATOM     16  C   UNL     1      16.330  38.518  16.646  0.00  0.00    -0.056 A 
ATOM     17  C   UNL     1      16.088  39.889  16.726  0.00  0.00    -0.061 A 
ATOM     18  C   UNL     1      15.317  40.520  15.751  0.00  0.00    -0.062 A 
ATOM     19  C   UNL     1      14.788  39.780  14.696  0.00  0.00    -0.061 A 
ATOM     20  C   UNL     1      15.029  38.407  14.613  0.00  0.00    -0.056 A 
ATOM     21  C   UNL     1      16.565  31.071  17.407  0.00  0.00    -0.054 A 
ATOM     22  C   UNL     1      16.349  29.691  17.421  0.00  0.00    -0.020 A 
ATOM     23  H   UNL     1      14.575  33.643  17.114  0.00  0.00    +0.000 HD
ATOM     24  H   UNL     1      14.652  33.927  15.454  0.00  0.00    +0.000 HD
ATOM     25  H   UNL     1      17.783  36.359  16.459  0.00  0.00    +0.000 HD
ENDROOT
TORSDOF 0
ENDMDL
MODEL 5
REMARK VINA RESULT:    -2.927     19.345     20.135
REMARK INTER + INTRA:          -2.927
REMARK INTER:                  -2.927
REMARK INTRA:                   0.000
REMARK UNBOUND:                 0.000
REMARK  Name = /home/vital/Documents/PhD_2021/Malaria_codes/scripts/../data/pdbqt_ligands/ligand_368_temp.pdb
REMARK                            x       y       z     vdW  Elec       q    Type
REMARK                         _______ _______ _______ _____ _____    ______ ____
ROOT
ATOM      1  C   UNL     1      18.706  39.438  16.499  0.00  0.00    -0.014 C 
ATOM      2  C   UNL     1      18.519  38.607  17.767  0.00  0.00    +0.182 C 
ATOM      3  C   UNL     1      18.815  39.445  18.950  0.00  0.00    +0.107 C 
ATOM      4  N   UNL     1      19.075  40.105  19.871  0.00  0.00    -0.193 NA
ATOM      5  O   UNL     1      17.160  38.158  17.846  0.00  0.00    -0.475 OA
ATOM      6  C   UNL     1      16.823  36.951  17.302  0.00  0.00    +0.122 A 
ATOM      7  C   UNL     1      17.619  36.164  16.471  0.00  0.00    -0.020 A 
ATOM      8  C   UNL     1      17.133  34.946  15.981  0.00  0.00    -0.054 A 
ATOM      9  C   UNL     1      15.846  34.499  16.308  0.00  0.00    -0.033 A 
ATOM     10  C   UNL     1      15.335  33.177  15.781  0.00  0.00    +0.021 C 
ATOM     11  N   UNL     1      16.059  32.065  16.401  0.00  0.00    -0.309 N 
ATOM     12  C   UNL     1      15.429  30.759  16.122  0.00  0.00    +0.026 C 
ATOM     13  C   UNL     1      15.370  30.344  14.630  0.00  0.00    +0.093 C 
ATOM     14  O   UNL     1      14.318  31.048  13.957  0.00  0.00    -0.386 OA
ATOM     15  C   UNL     1      15.135  28.855  14.469  0.00  0.00    -0.018 A 
ATOM     16  C   UNL     1      13.896  28.278  14.795  0.00  0.00    -0.056 A 
ATOM     17  C   UNL     1      13.690  26.906  14.649  0.00  0.00    -0.061 A 
ATOM     18  C   UNL     1      14.719  26.093  14.178  0.00  0.00    -0.062 A 
ATOM     19  C   UNL     1      15.955  26.651  13.854  0.00  0.00    -0.061 A 
ATOM     20  C   UNL     1      16.163  28.024  13.999  0.00  0.00    -0.056 A 
ATOM     21  C   UNL     1      15.051  35.296  17.140  0.00  0.00    -0.054 A 
ATOM     22  C   UNL     1      15.538  36.512  17.626  0.00  0.00    -0.020 A 
ATOM     23  H   UNL     1      16.079  32.210  17.411  0.00  0.00    +0.000 HD
ATOM     24  H   UNL     1      17.000  32.047  16.007  0.00  0.00    +0.000 HD
ATOM     25  H   UNL     1      13.466  30.814  14.357  0.00  0.00    +0.000 HD
ENDROOT
TORSDOF 0
ENDMDL
MODEL 6
REMARK VINA RESULT:    -2.700     18.860     21.513
REMARK INTER + INTRA:          -2.700
REMARK INTER:                  -2.700
REMARK INTRA:                   0.000
REMARK UNBOUND:                 0.000
REMARK  Name = /home/vital/Documents/PhD_2021/Malaria_codes/scripts/../data/pdbqt_ligands/ligand_368_temp.pdb
REMARK                            x       y       z     vdW  Elec       q    Type
REMARK                         _______ _______ _______ _____ _____    ______ ____
ROOT
ATOM      1  C   UNL     1      16.297  30.109  22.637  0.00  0.00    -0.014 C 
ATOM      2  C   UNL     1      15.831  29.931  21.193  0.00  0.00    +0.182 C 
ATOM      3  C   UNL     1      15.434  28.522  20.976  0.00  0.00    +0.107 C 
ATOM      4  N   UNL     1      15.151  27.407  20.811  0.00  0.00    -0.193 NA
ATOM      5  O   UNL     1      14.696  30.774  20.952  0.00  0.00    -0.475 OA
ATOM      6  C   UNL     1      14.894  32.037  20.473  0.00  0.00    +0.122 A 
ATOM      7  C   UNL     1      16.112  32.708  20.376  0.00  0.00    -0.020 A 
ATOM      8  C   UNL     1      16.158  34.011  19.867  0.00  0.00    -0.054 A 
ATOM      9  C   UNL     1      14.989  34.665  19.453  0.00  0.00    -0.033 A 
ATOM     10  C   UNL     1      15.052  36.069  18.896  0.00  0.00    +0.021 C 
ATOM     11  N   UNL     1      15.715  36.072  17.590  0.00  0.00    -0.309 N 
ATOM     12  C   UNL     1      15.572  37.363  16.889  0.00  0.00    +0.026 C 
ATOM     13  C   UNL     1      16.200  38.590  17.599  0.00  0.00    +0.093 C 
ATOM     14  O   UNL     1      15.361  39.027  18.676  0.00  0.00    -0.386 OA
ATOM     15  C   UNL     1      16.404  39.750  16.644  0.00  0.00    -0.018 A 
ATOM     16  C   UNL     1      15.310  40.466  16.131  0.00  0.00    -0.056 A 
ATOM     17  C   UNL     1      15.507  41.528  15.248  0.00  0.00    -0.061 A 
ATOM     18  C   UNL     1      16.798  41.886  14.865  0.00  0.00    -0.062 A 
ATOM     19  C   UNL     1      17.893  41.182  15.364  0.00  0.00    -0.061 A 
ATOM     20  C   UNL     1      17.698  40.119  16.248  0.00  0.00    -0.056 A 
ATOM     21  C   UNL     1      13.769  33.987  19.556  0.00  0.00    -0.054 A 
ATOM     22  C   UNL     1      13.726  32.687  20.066  0.00  0.00    -0.020 A 
ATOM     23  H   UNL     1      15.305  35.339  17.012  0.00  0.00    +0.000 HD
ATOM     24  H   UNL     1      16.711  35.912  17.746  0.00  0.00    +0.000 HD
ATOM     25  H   UNL     1      14.502  39.306  18.323  0.00  0.00    +0.000 HD
ENDROOT
TORSDOF 0
ENDMDL
MODEL 7
REMARK VINA RESULT:    -2.619      4.000      4.395
REMARK INTER + INTRA:          -2.619
REMARK INTER:                  -2.619
REMARK INTRA:                   0.000
REMARK UNBOUND:                 0.000
REMARK  Name = /home/vital/Documents/PhD_2021/Malaria_codes/scripts/../data/pdbqt_ligands/ligand_368_temp.pdb
REMARK                            x       y       z     vdW  Elec       q    Type
REMARK                         _______ _______ _______ _____ _____    ______ ____
ROOT
ATOM      1  C   UNL     1      33.720  44.280  23.039  0.00  0.00    -0.014 C 
ATOM      2  C   UNL     1      34.680  44.862  22.004  0.00  0.00    +0.182 C 
ATOM      3  C   UNL     1      35.034  46.246  22.387  0.00  0.00    +0.107 C 
ATOM      4  N   UNL     1      35.283  47.342  22.685  0.00  0.00    -0.193 NA
ATOM      5  O   UNL     1      35.876  44.071  21.968  0.00  0.00    -0.475 OA
ATOM      6  C   UNL     1      35.958  43.025  21.093  0.00  0.00    +0.122 A 
ATOM      7  C   UNL     1      34.912  42.483  20.348  0.00  0.00    -0.020 A 
ATOM      8  C   UNL     1      35.148  41.400  19.492  0.00  0.00    -0.054 A 
ATOM      9  C   UNL     1      36.427  40.840  19.374  0.00  0.00    -0.033 A 
ATOM     10  C   UNL     1      36.672  39.676  18.440  0.00  0.00    +0.021 C 
ATOM     11  N   UNL     1      36.549  40.105  17.045  0.00  0.00    -0.309 N 
ATOM     12  C   UNL     1      37.031  39.081  16.097  0.00  0.00    +0.026 C 
ATOM     13  C   UNL     1      36.266  37.733  16.114  0.00  0.00    +0.093 C 
ATOM     14  O   UNL     1      36.667  36.945  17.242  0.00  0.00    -0.386 OA
ATOM     15  C   UNL     1      36.513  36.931  14.851  0.00  0.00    -0.018 A 
ATOM     16  C   UNL     1      37.765  36.345  14.599  0.00  0.00    -0.056 A 
ATOM     17  C   UNL     1      37.985  35.613  13.432  0.00  0.00    -0.061 A 
ATOM     18  C   UNL     1      36.959  35.458  12.502  0.00  0.00    -0.062 A 
ATOM     19  C   UNL     1      35.712  36.036  12.738  0.00  0.00    -0.061 A 
ATOM     20  C   UNL     1      35.490  36.769  13.905  0.00  0.00    -0.056 A 
ATOM     21  C   UNL     1      37.471  41.388  20.128  0.00  0.00    -0.054 A 
ATOM     22  C   UNL     1      37.233  42.468  20.982  0.00  0.00    -0.020 A 
ATOM     23  H   UNL     1      37.096  40.956  16.914  0.00  0.00    +0.000 HD
ATOM     24  H   UNL     1      35.560  40.265  16.854  0.00  0.00    +0.000 HD
ATOM     25  H   UNL     1      37.612  36.741  17.173  0.00  0.00    +0.000 HD
ENDROOT
TORSDOF 0
ENDMDL
MODEL 8
REMARK VINA RESULT:    -2.376     23.819     24.411
REMARK INTER + INTRA:          -2.376
REMARK INTER:                  -2.376
REMARK INTRA:                   0.000
REMARK UNBOUND:                 0.000
REMARK  Name = /home/vital/Documents/PhD_2021/Malaria_codes/scripts/../data/pdbqt_ligands/ligand_368_temp.pdb
REMARK                            x       y       z     vdW  Elec       q    Type
REMARK                         _______ _______ _______ _____ _____    ______ ____
ROOT
ATOM      1  C   UNL     1      16.567  28.075  27.826  0.00  0.00    -0.014 C 
ATOM      2  C   UNL     1      15.175  28.406  27.293  0.00  0.00    +0.182 C 
ATOM      3  C   UNL     1      14.343  28.941  28.394  0.00  0.00    +0.107 C 
ATOM      4  N   UNL     1      13.692  29.334  29.273  0.00  0.00    -0.193 NA
ATOM      5  O   UNL     1      15.283  29.403  26.268  0.00  0.00    -0.475 OA
ATOM      6  C   UNL     1      15.417  29.010  24.967  0.00  0.00    +0.122 A 
ATOM      7  C   UNL     1      15.677  27.718  24.513  0.00  0.00    -0.020 A 
ATOM      8  C   UNL     1      15.797  27.467  23.141  0.00  0.00    -0.054 A 
ATOM      9  C   UNL     1      15.665  28.502  22.204  0.00  0.00    -0.033 A 
ATOM     10  C   UNL     1      15.786  28.217  20.724  0.00  0.00    +0.021 C 
ATOM     11  N   UNL     1      14.644  27.427  20.260  0.00  0.00    -0.309 N 
ATOM     12  C   UNL     1      14.579  27.345  18.787  0.00  0.00    +0.026 C 
ATOM     13  C   UNL     1      15.782  26.654  18.096  0.00  0.00    +0.093 C 
ATOM     14  O   UNL     1      16.905  27.542  18.043  0.00  0.00    -0.386 OA
ATOM     15  C   UNL     1      15.445  26.217  16.683  0.00  0.00    -0.018 A 
ATOM     16  C   UNL     1      15.255  27.160  15.660  0.00  0.00    -0.056 A 
ATOM     17  C   UNL     1      14.939  26.750  14.365  0.00  0.00    -0.061 A 
ATOM     18  C   UNL     1      14.807  25.393  14.076  0.00  0.00    -0.062 A 
ATOM     19  C   UNL     1      14.991  24.446  15.082  0.00  0.00    -0.061 A 
ATOM     20  C   UNL     1      15.307  24.855  16.380  0.00  0.00    -0.056 A 
ATOM     21  C   UNL     1      15.407  29.797  22.668  0.00  0.00    -0.054 A 
ATOM     22  C   UNL     1      15.290  30.045  24.038  0.00  0.00    -0.020 A 
ATOM     23  H   UNL     1      13.786  27.858  20.602  0.00  0.00    +0.000 HD
ATOM     24  H   UNL     1      14.755  26.478  20.620  0.00  0.00    +0.000 HD
ATOM     25  H   UNL     1      16.676  28.322  17.514  0.00  0.00    +0.000 HD
ENDROOT
TORSDOF 0
ENDMDL
