MODEL 1
REMARK VINA RESULT:    -2.945      0.000      0.000
REMARK INTER + INTRA:          -2.945
REMARK INTER:                  -2.945
REMARK INTRA:                   0.000
REMARK UNBOUND:                 0.000
REMARK  Name = /home/vital/Documents/PhD_2021/Malaria_codes/scripts/../data/pdbqt_ligands/ligand_94_temp.pdb
REMARK                            x       y       z     vdW  Elec       q    Type
REMARK                         _______ _______ _______ _____ _____    ______ ____
ROOT
ATOM      1  C   UNL     1      19.464  27.628  13.741  0.00  0.00    -0.076 C 
ATOM      2  C   UNL     1      18.202  27.653  14.188  0.00  0.00    +0.060 C 
ATOM      3  N   UNL     1      17.263  26.784  13.691  0.00  0.00    -0.218 N 
ATOM      4  C   UNL     1      16.035  27.233  13.672  0.00  0.00    +0.221 C 
ATOM      5  N   UNL     1      15.742  28.576  13.799  0.00  0.00    -0.202 N 
ATOM      6  C   UNL     1      16.532  29.259  14.581  0.00  0.00    +0.120 C 
ATOM      7  N   UNL     1      16.324  30.608  14.822  0.00  0.00    -0.329 N 
ATOM      8  C   UNL     1      15.068  31.273  14.479  0.00  0.00    +0.033 C 
ATOM      9  C   UNL     1      15.021  31.623  12.990  0.00  0.00    +0.060 C 
ATOM     10  O   UNL     1      16.142  32.440  12.646  0.00  0.00    -0.393 OA
ATOM     11  C   UNL     1      17.712  28.571  15.288  0.00  0.00    +0.118 C 
ATOM     12  C   UNL     1      17.199  27.800  16.446  0.00  0.00    -0.079 C 
ATOM     13  C   UNL     1      16.625  27.145  17.276  0.00  0.00    -0.054 C 
ATOM     14  P   UNL     1      15.545  26.266  18.465  0.00  0.00    +0.092 P 
ATOM     15 CL   UNL     1      13.695  27.084  17.897  0.00  0.00    -0.077 Cl
ATOM     16  C   UNL     1      15.332  24.548  17.823  0.00  0.00    -0.034 C 
ATOM     17  C   UNL     1      15.382  24.065  16.573  0.00  0.00    -0.058 C 
ATOM     18  C   UNL     1      15.638  24.790  15.358  0.00  0.00    -0.048 C 
ATOM     19  C   UNL     1      14.720  25.489  14.674  0.00  0.00    -0.004 C 
ATOM     20  N   UNL     1      14.945  26.389  13.632  0.00  0.00    -0.290 N 
ATOM     21  H   UNL     1      17.498  25.883  13.371  0.00  0.00    +0.000 HD
ATOM     22  H   UNL     1      14.984  28.992  13.329  0.00  0.00    +0.000 HD
ATOM     23  H   UNL     1      17.044  31.135  15.238  0.00  0.00    +0.000 HD
ATOM     24  H   UNL     1      16.116  33.259  13.165  0.00  0.00    +0.000 HD
ATOM     25  H   UNL     1      15.966  26.329  19.778  0.00  0.00    +0.000 HD
ATOM     26  H   UNL     1      14.324  26.423  12.868  0.00  0.00    +0.000 HD
ENDROOT
TORSDOF 0
ENDMDL
MODEL 2
REMARK VINA RESULT:    -2.667      2.372      3.951
REMARK INTER + INTRA:          -2.667
REMARK INTER:                  -2.667
REMARK INTRA:                   0.000
REMARK UNBOUND:                 0.000
REMARK  Name = /home/vital/Documents/PhD_2021/Malaria_codes/scripts/../data/pdbqt_ligands/ligand_94_temp.pdb
REMARK                            x       y       z     vdW  Elec       q    Type
REMARK                         _______ _______ _______ _____ _____    ______ ____
ROOT
ATOM      1  C   UNL     1      14.749  31.084  13.486  0.00  0.00    -0.076 C 
ATOM      2  C   UNL     1      15.387  30.066  14.076  0.00  0.00    +0.060 C 
ATOM      3  N   UNL     1      15.536  30.025  15.440  0.00  0.00    -0.218 N 
ATOM      4  C   UNL     1      16.616  29.427  15.870  0.00  0.00    +0.221 C 
ATOM      5  N   UNL     1      17.692  29.172  15.045  0.00  0.00    -0.202 N 
ATOM      6  C   UNL     1      17.404  28.891  13.804  0.00  0.00    +0.120 C 
ATOM      7  N   UNL     1      18.391  28.579  12.883  0.00  0.00    -0.329 N 
ATOM      8  C   UNL     1      19.756  28.249  13.290  0.00  0.00    +0.033 C 
ATOM      9  C   UNL     1      20.562  29.515  13.591  0.00  0.00    +0.060 C 
ATOM     10  O   UNL     1      20.564  30.373  12.450  0.00  0.00    -0.393 OA
ATOM     11  C   UNL     1      15.940  28.869  13.332  0.00  0.00    +0.118 C 
ATOM     12  C   UNL     1      15.305  27.609  13.787  0.00  0.00    -0.079 C 
ATOM     13  C   UNL     1      14.904  26.602  14.310  0.00  0.00    -0.054 C 
ATOM     14  P   UNL     1      14.533  25.032  15.175  0.00  0.00    +0.092 P 
ATOM     15 CL   UNL     1      16.452  24.599  15.912  0.00  0.00    -0.077 Cl
ATOM     16  C   UNL     1      13.690  25.479  16.755  0.00  0.00    -0.034 C 
ATOM     17  C   UNL     1      13.766  26.586  17.509  0.00  0.00    -0.058 C 
ATOM     18  C   UNL     1      14.550  27.767  17.263  0.00  0.00    -0.048 C 
ATOM     19  C   UNL     1      15.850  27.901  17.560  0.00  0.00    -0.004 C 
ATOM     20  N   UNL     1      16.714  28.916  17.147  0.00  0.00    -0.290 N 
ATOM     21  H   UNL     1      14.874  30.419  16.053  0.00  0.00    +0.000 HD
ATOM     22  H   UNL     1      18.621  29.200  15.372  0.00  0.00    +0.000 HD
ATOM     23  H   UNL     1      18.167  28.580  11.924  0.00  0.00    +0.000 HD
ATOM     24  H   UNL     1      20.968  29.912  11.699  0.00  0.00    +0.000 HD
ATOM     25  H   UNL     1      13.848  24.106  14.414  0.00  0.00    +0.000 HD
ATOM     26  H   UNL     1      17.393  29.267  17.768  0.00  0.00    +0.000 HD
ENDROOT
TORSDOF 0
ENDMDL
MODEL 3
REMARK VINA RESULT:    -2.666      4.110      6.162
REMARK INTER + INTRA:          -2.666
REMARK INTER:                  -2.666
REMARK INTRA:                   0.000
REMARK UNBOUND:                 0.000
REMARK  Name = /home/vital/Documents/PhD_2021/Malaria_codes/scripts/../data/pdbqt_ligands/ligand_94_temp.pdb
REMARK                            x       y       z     vdW  Elec       q    Type
REMARK                         _______ _______ _______ _____ _____    ______ ____
ROOT
ATOM      1  C   UNL     1      13.690  27.375  19.003  0.00  0.00    -0.076 C 
ATOM      2  C   UNL     1      14.581  26.895  18.126  0.00  0.00    +0.060 C 
ATOM      3  N   UNL     1      14.169  26.289  16.965  0.00  0.00    -0.218 N 
ATOM      4  C   UNL     1      14.958  25.351  16.511  0.00  0.00    +0.221 C 
ATOM      5  N   UNL     1      15.929  24.763  17.295  0.00  0.00    -0.202 N 
ATOM      6  C   UNL     1      16.503  25.543  18.170  0.00  0.00    +0.120 C 
ATOM      7  N   UNL     1      17.520  25.085  18.993  0.00  0.00    -0.329 N 
ATOM      8  C   UNL     1      18.215  23.824  18.740  0.00  0.00    +0.033 C 
ATOM      9  C   UNL     1      17.395  22.634  19.240  0.00  0.00    +0.060 C 
ATOM     10  O   UNL     1      17.110  22.789  20.631  0.00  0.00    -0.393 OA
ATOM     11  C   UNL     1      16.082  27.017  18.291  0.00  0.00    +0.118 C 
ATOM     12  C   UNL     1      16.686  27.786  17.177  0.00  0.00    -0.079 C 
ATOM     13  C   UNL     1      17.156  28.248  16.170  0.00  0.00    -0.054 C 
ATOM     14  P   UNL     1      17.976  28.727  14.605  0.00  0.00    +0.092 P 
ATOM     15 CL   UNL     1      18.867  26.887  14.123  0.00  0.00    -0.077 Cl
ATOM     16  C   UNL     1      16.663  28.783  13.309  0.00  0.00    -0.034 C 
ATOM     17  C   UNL     1      15.498  28.125  13.210  0.00  0.00    -0.058 C 
ATOM     18  C   UNL     1      14.943  27.173  14.134  0.00  0.00    -0.048 C 
ATOM     19  C   UNL     1      15.269  25.873  14.186  0.00  0.00    -0.004 C 
ATOM     20  N   UNL     1      14.946  24.958  15.188  0.00  0.00    -0.290 N 
ATOM     21  H   UNL     1      13.336  26.544  16.506  0.00  0.00    +0.000 HD
ATOM     22  H   UNL     1      16.175  23.814  17.201  0.00  0.00    +0.000 HD
ATOM     23  H   UNL     1      17.781  25.625  19.773  0.00  0.00    +0.000 HD
ATOM     24  H   UNL     1      17.942  22.831  21.128  0.00  0.00    +0.000 HD
ATOM     25  H   UNL     1      18.737  29.876  14.685  0.00  0.00    +0.000 HD
ATOM     26  H   UNL     1      14.710  24.032  14.952  0.00  0.00    +0.000 HD
ENDROOT
TORSDOF 0
ENDMDL
MODEL 4
REMARK VINA RESULT:    -2.656      2.300      2.899
REMARK INTER + INTRA:          -2.656
REMARK INTER:                  -2.656
REMARK INTRA:                   0.000
REMARK UNBOUND:                 0.000
REMARK  Name = /home/vital/Documents/PhD_2021/Malaria_codes/scripts/../data/pdbqt_ligands/ligand_94_temp.pdb
REMARK                            x       y       z     vdW  Elec       q    Type
REMARK                         _______ _______ _______ _____ _____    ______ ____
ROOT
ATOM      1  C   UNL     1      20.345  27.405  13.229  0.00  0.00    -0.076 C 
ATOM      2  C   UNL     1      19.276  27.579  14.016  0.00  0.00    +0.060 C 
ATOM      3  N   UNL     1      18.042  27.845  13.477  0.00  0.00    -0.218 N 
ATOM      4  C   UNL     1      17.253  28.582  14.214  0.00  0.00    +0.221 C 
ATOM      5  N   UNL     1      17.725  29.331  15.273  0.00  0.00    -0.202 N 
ATOM      6  C   UNL     1      18.720  28.811  15.939  0.00  0.00    +0.120 C 
ATOM      7  N   UNL     1      19.261  29.445  17.046  0.00  0.00    -0.329 N 
ATOM      8  C   UNL     1      18.581  30.553  17.716  0.00  0.00    +0.033 C 
ATOM      9  C   UNL     1      18.803  31.868  16.966  0.00  0.00    +0.060 C 
ATOM     10  O   UNL     1      20.202  32.128  16.843  0.00  0.00    -0.393 OA
ATOM     11  C   UNL     1      19.306  27.451  15.525  0.00  0.00    +0.118 C 
ATOM     12  C   UNL     1      18.403  26.373  15.993  0.00  0.00    -0.079 C 
ATOM     13  C   UNL     1      17.527  25.624  16.340  0.00  0.00    -0.054 C 
ATOM     14  P   UNL     1      16.087  24.686  16.971  0.00  0.00    +0.092 P 
ATOM     15 CL   UNL     1      15.001  26.276  17.813  0.00  0.00    -0.077 Cl
ATOM     16  C   UNL     1      15.012  24.315  15.518  0.00  0.00    -0.034 C 
ATOM     17  C   UNL     1      14.854  24.962  14.354  0.00  0.00    -0.058 C 
ATOM     18  C   UNL     1      15.519  26.159  13.915  0.00  0.00    -0.048 C 
ATOM     19  C   UNL     1      15.159  27.406  14.253  0.00  0.00    -0.004 C 
ATOM     20  N   UNL     1      15.883  28.581  14.053  0.00  0.00    -0.290 N 
ATOM     21  H   UNL     1      17.769  27.502  12.596  0.00  0.00    +0.000 HD
ATOM     22  H   UNL     1      17.336  30.203  15.512  0.00  0.00    +0.000 HD
ATOM     23  H   UNL     1      20.131  29.141  17.393  0.00  0.00    +0.000 HD
ATOM     24  H   UNL     1      20.597  32.196  17.726  0.00  0.00    +0.000 HD
ATOM     25  H   UNL     1      16.411  23.580  17.730  0.00  0.00    +0.000 HD
ATOM     26  H   UNL     1      15.417  29.410  13.798  0.00  0.00    +0.000 HD
ENDROOT
TORSDOF 0
ENDMDL
MODEL 5
REMARK VINA RESULT:    -2.636      4.121      5.506
REMARK INTER + INTRA:          -2.636
REMARK INTER:                  -2.636
REMARK INTRA:                   0.000
REMARK UNBOUND:                 0.000
REMARK  Name = /home/vital/Documents/PhD_2021/Malaria_codes/scripts/../data/pdbqt_ligands/ligand_94_temp.pdb
REMARK                            x       y       z     vdW  Elec       q    Type
REMARK                         _______ _______ _______ _____ _____    ______ ____
ROOT
ATOM      1  C   UNL     1      13.690  28.415  19.945  0.00  0.00    -0.076 C 
ATOM      2  C   UNL     1      14.683  27.933  19.187  0.00  0.00    +0.060 C 
ATOM      3  N   UNL     1      14.898  26.581  19.086  0.00  0.00    -0.218 N 
ATOM      4  C   UNL     1      16.141  26.223  18.895  0.00  0.00    +0.221 C 
ATOM      5  N   UNL     1      17.197  27.080  19.128  0.00  0.00    -0.202 N 
ATOM      6  C   UNL     1      16.976  28.339  18.869  0.00  0.00    +0.120 C 
ATOM      7  N   UNL     1      17.966  29.297  19.025  0.00  0.00    -0.329 N 
ATOM      8  C   UNL     1      19.374  28.938  19.188  0.00  0.00    +0.033 C 
ATOM      9  C   UNL     1      19.672  28.523  20.630  0.00  0.00    +0.060 C 
ATOM     10  O   UNL     1      19.307  29.575  21.525  0.00  0.00    -0.393 OA
ATOM     11  C   UNL     1      15.603  28.796  18.348  0.00  0.00    +0.118 C 
ATOM     12  C   UNL     1      15.494  28.459  16.909  0.00  0.00    -0.079 C 
ATOM     13  C   UNL     1      15.515  28.032  15.784  0.00  0.00    -0.054 C 
ATOM     14  P   UNL     1      15.785  27.321  14.119  0.00  0.00    +0.092 P 
ATOM     15 CL   UNL     1      17.761  26.650  14.363  0.00  0.00    -0.077 Cl
ATOM     16  C   UNL     1      14.910  25.696  14.085  0.00  0.00    -0.034 C 
ATOM     17  C   UNL     1      14.608  24.839  15.072  0.00  0.00    -0.058 C 
ATOM     18  C   UNL     1      14.893  24.977  16.475  0.00  0.00    -0.048 C 
ATOM     19  C   UNL     1      16.066  24.682  17.053  0.00  0.00    -0.004 C 
ATOM     20  N   UNL     1      16.477  25.002  18.347  0.00  0.00    -0.290 N 
ATOM     21  H   UNL     1      14.166  25.926  19.153  0.00  0.00    +0.000 HD
ATOM     22  H   UNL     1      18.065  26.761  19.468  0.00  0.00    +0.000 HD
ATOM     23  H   UNL     1      17.714  30.248  19.026  0.00  0.00    +0.000 HD
ATOM     24  H   UNL     1      19.817  30.372  21.312  0.00  0.00    +0.000 HD
ATOM     25  H   UNL     1      15.453  28.161  13.076  0.00  0.00    +0.000 HD
ATOM     26  H   UNL     1      17.008  24.358  18.869  0.00  0.00    +0.000 HD
ENDROOT
TORSDOF 0
ENDMDL
MODEL 6
REMARK VINA RESULT:    -2.419      4.492      6.295
REMARK INTER + INTRA:          -2.419
REMARK INTER:                  -2.419
REMARK INTRA:                   0.000
REMARK UNBOUND:                 0.000
REMARK  Name = /home/vital/Documents/PhD_2021/Malaria_codes/scripts/../data/pdbqt_ligands/ligand_94_temp.pdb
REMARK                            x       y       z     vdW  Elec       q    Type
REMARK                         _______ _______ _______ _____ _____    ______ ____
ROOT
ATOM      1  C   UNL     1      19.037  28.281  18.765  0.00  0.00    -0.076 C 
ATOM      2  C   UNL     1      18.089  27.425  18.362  0.00  0.00    +0.060 C 
ATOM      3  N   UNL     1      16.775  27.615  18.714  0.00  0.00    -0.218 N 
ATOM      4  C   UNL     1      16.066  26.526  18.847  0.00  0.00    +0.221 C 
ATOM      5  N   UNL     1      16.648  25.281  18.978  0.00  0.00    -0.202 N 
ATOM      6  C   UNL     1      17.757  25.099  18.316  0.00  0.00    +0.120 C 
ATOM      7  N   UNL     1      18.421  23.883  18.335  0.00  0.00    -0.329 N 
ATOM      8  C   UNL     1      17.788  22.660  18.828  0.00  0.00    +0.033 C 
ATOM      9  C   UNL     1      17.824  22.601  20.356  0.00  0.00    +0.060 C 
ATOM     10  O   UNL     1      19.172  22.698  20.816  0.00  0.00    -0.393 OA
ATOM     11  C   UNL     1      18.349  26.234  17.464  0.00  0.00    +0.118 C 
ATOM     12  C   UNL     1      17.586  26.337  16.198  0.00  0.00    -0.079 C 
ATOM     13  C   UNL     1      16.814  26.365  15.275  0.00  0.00    -0.054 C 
ATOM     14  P   UNL     1      15.538  26.203  13.973  0.00  0.00    +0.092 P 
ATOM     15 CL   UNL     1      14.503  24.539  14.730  0.00  0.00    -0.077 Cl
ATOM     16  C   UNL     1      14.281  27.517  14.290  0.00  0.00    -0.034 C 
ATOM     17  C   UNL     1      13.917  28.128  15.427  0.00  0.00    -0.058 C 
ATOM     18  C   UNL     1      14.442  27.915  16.749  0.00  0.00    -0.048 C 
ATOM     19  C   UNL     1      14.068  26.926  17.574  0.00  0.00    -0.004 C 
ATOM     20  N   UNL     1      14.689  26.530  18.758  0.00  0.00    -0.290 N 
ATOM     21  H   UNL     1      16.394  28.512  18.855  0.00  0.00    +0.000 HD
ATOM     22  H   UNL     1      16.251  24.574  19.537  0.00  0.00    +0.000 HD
ATOM     23  H   UNL     1      19.348  23.840  18.006  0.00  0.00    +0.000 HD
ATOM     24  H   UNL     1      19.690  21.960  20.459  0.00  0.00    +0.000 HD
ATOM     25  H   UNL     1      16.031  26.195  12.684  0.00  0.00    +0.000 HD
ATOM     26  H   UNL     1      14.145  26.253  19.531  0.00  0.00    +0.000 HD
ENDROOT
TORSDOF 0
ENDMDL
MODEL 7
REMARK VINA RESULT:    -2.398      1.981      2.693
REMARK INTER + INTRA:          -2.398
REMARK INTER:                  -2.398
REMARK INTRA:                   0.000
REMARK UNBOUND:                 0.000
REMARK  Name = /home/vital/Documents/PhD_2021/Malaria_codes/scripts/../data/pdbqt_ligands/ligand_94_temp.pdb
REMARK                            x       y       z     vdW  Elec       q    Type
REMARK                         _______ _______ _______ _____ _____    ______ ____
ROOT
ATOM      1  C   UNL     1      17.764  30.447  18.305  0.00  0.00    -0.076 C 
ATOM      2  C   UNL     1      17.196  29.797  17.280  0.00  0.00    +0.060 C 
ATOM      3  N   UNL     1      17.928  28.933  16.505  0.00  0.00    -0.218 N 
ATOM      4  C   UNL     1      17.551  28.842  15.256  0.00  0.00    +0.221 C 
ATOM      5  N   UNL     1      16.730  29.781  14.666  0.00  0.00    -0.202 N 
ATOM      6  C   UNL     1      15.827  30.314  15.442  0.00  0.00    +0.120 C 
ATOM      7  N   UNL     1      14.916  31.243  14.963  0.00  0.00    -0.329 N 
ATOM      8  C   UNL     1      14.705  31.456  13.532  0.00  0.00    +0.033 C 
ATOM      9  C   UNL     1      15.795  32.353  12.943  0.00  0.00    +0.060 C 
ATOM     10  O   UNL     1      15.832  33.598  13.643  0.00  0.00    -0.393 OA
ATOM     11  C   UNL     1      15.729  29.901  16.920  0.00  0.00    +0.118 C 
ATOM     12  C   UNL     1      15.057  28.583  17.010  0.00  0.00    -0.079 C 
ATOM     13  C   UNL     1      14.597  27.475  16.914  0.00  0.00    -0.054 C 
ATOM     14  P   UNL     1      13.874  25.839  16.524  0.00  0.00    +0.092 P 
ATOM     15 CL   UNL     1      13.696  26.045  14.441  0.00  0.00    -0.077 Cl
ATOM     16  C   UNL     1      15.254  24.615  16.595  0.00  0.00    -0.034 C 
ATOM     17  C   UNL     1      16.572  24.763  16.392  0.00  0.00    -0.058 C 
ATOM     18  C   UNL     1      17.281  25.970  16.061  0.00  0.00    -0.048 C 
ATOM     19  C   UNL     1      17.390  26.483  14.827  0.00  0.00    -0.004 C 
ATOM     20  N   UNL     1      17.859  27.748  14.474  0.00  0.00    -0.290 N 
ATOM     21  H   UNL     1      18.685  28.416  16.864  0.00  0.00    +0.000 HD
ATOM     22  H   UNL     1      16.819  30.032  13.718  0.00  0.00    +0.000 HD
ATOM     23  H   UNL     1      14.396  31.777  15.606  0.00  0.00    +0.000 HD
ATOM     24  H   UNL     1      14.975  34.043  13.558  0.00  0.00    +0.000 HD
ATOM     25  H   UNL     1      12.779  25.498  17.291  0.00  0.00    +0.000 HD
ATOM     26  H   UNL     1      18.410  27.861  13.665  0.00  0.00    +0.000 HD
ENDROOT
TORSDOF 0
ENDMDL
MODEL 8
REMARK VINA RESULT:    -2.292      3.590      5.552
REMARK INTER + INTRA:          -2.292
REMARK INTER:                  -2.292
REMARK INTRA:                   0.000
REMARK UNBOUND:                 0.000
REMARK  Name = /home/vital/Documents/PhD_2021/Malaria_codes/scripts/../data/pdbqt_ligands/ligand_94_temp.pdb
REMARK                            x       y       z     vdW  Elec       q    Type
REMARK                         _______ _______ _______ _____ _____    ______ ____
ROOT
ATOM      1  C   UNL     1      19.807  27.144  16.313  0.00  0.00    -0.076 C 
ATOM      2  C   UNL     1      18.628  27.696  15.998  0.00  0.00    +0.060 C 
ATOM      3  N   UNL     1      17.878  28.342  16.949  0.00  0.00    -0.218 N 
ATOM      4  C   UNL     1      16.583  28.289  16.774  0.00  0.00    +0.221 C 
ATOM      5  N   UNL     1      15.993  27.377  15.923  0.00  0.00    -0.202 N 
ATOM      6  C   UNL     1      16.674  27.076  14.851  0.00  0.00    +0.120 C 
ATOM      7  N   UNL     1      16.176  26.200  13.899  0.00  0.00    -0.329 N 
ATOM      8  C   UNL     1      14.769  25.803  13.869  0.00  0.00    +0.033 C 
ATOM      9  C   UNL     1      14.487  24.704  14.897  0.00  0.00    +0.060 C 
ATOM     10  O   UNL     1      15.339  23.583  14.657  0.00  0.00    -0.393 OA
ATOM     11  C   UNL     1      18.050  27.714  14.599  0.00  0.00    +0.118 C 
ATOM     12  C   UNL     1      17.857  29.101  14.112  0.00  0.00    -0.079 C 
ATOM     13  C   UNL     1      17.545  30.229  13.831  0.00  0.00    -0.054 C 
ATOM     14  P   UNL     1      16.834  31.862  13.411  0.00  0.00    +0.092 P 
ATOM     15 CL   UNL     1      14.794  31.369  13.510  0.00  0.00    -0.077 Cl
ATOM     16  C   UNL     1      16.971  32.911  14.923  0.00  0.00    -0.034 C 
ATOM     17  C   UNL     1      17.007  32.578  16.222  0.00  0.00    -0.058 C 
ATOM     18  C   UNL     1      16.955  31.260  16.796  0.00  0.00    -0.048 C 
ATOM     19  C   UNL     1      15.832  30.559  17.009  0.00  0.00    -0.004 C 
ATOM     20  N   UNL     1      15.727  29.209  17.343  0.00  0.00    -0.290 N 
ATOM     21  H   UNL     1      18.287  28.812  17.711  0.00  0.00    +0.000 HD
ATOM     22  H   UNL     1      15.113  26.977  16.113  0.00  0.00    +0.000 HD
ATOM     23  H   UNL     1      16.788  25.834  13.220  0.00  0.00    +0.000 HD
ATOM     24  H   UNL     1      15.172  23.235  13.767  0.00  0.00    +0.000 HD
ATOM     25  H   UNL     1      17.361  32.441  12.274  0.00  0.00    +0.000 HD
ATOM     26  H   UNL     1      15.042  28.912  17.984  0.00  0.00    +0.000 HD
ENDROOT
TORSDOF 0
ENDMDL
MODEL 9
REMARK VINA RESULT:    -2.047      4.347      6.339
REMARK INTER + INTRA:          -2.047
REMARK INTER:                  -2.047
REMARK INTRA:                   0.000
REMARK UNBOUND:                 0.000
REMARK  Name = /home/vital/Documents/PhD_2021/Malaria_codes/scripts/../data/pdbqt_ligands/ligand_94_temp.pdb
REMARK                            x       y       z     vdW  Elec       q    Type
REMARK                         _______ _______ _______ _____ _____    ______ ____
ROOT
ATOM      1  C   UNL     1      15.828  28.444  18.383  0.00  0.00    -0.076 C 
ATOM      2  C   UNL     1      16.724  27.684  17.740  0.00  0.00    +0.060 C 
ATOM      3  N   UNL     1      16.929  27.829  16.390  0.00  0.00    -0.218 N 
ATOM      4  C   UNL     1      17.284  26.742  15.756  0.00  0.00    +0.221 C 
ATOM      5  N   UNL     1      17.126  25.486  16.305  0.00  0.00    -0.202 N 
ATOM      6  C   UNL     1      17.283  25.406  17.598  0.00  0.00    +0.120 C 
ATOM      7  N   UNL     1      17.187  24.196  18.266  0.00  0.00    -0.329 N 
ATOM      8  C   UNL     1      17.210  22.915  17.561  0.00  0.00    +0.033 C 
ATOM      9  C   UNL     1      15.839  22.592  16.963  0.00  0.00    +0.060 C 
ATOM     10  O   UNL     1      14.848  22.590  17.991  0.00  0.00    -0.393 OA
ATOM     11  C   UNL     1      17.612  26.663  18.420  0.00  0.00    +0.118 C 
ATOM     12  C   UNL     1      19.046  26.994  18.246  0.00  0.00    -0.079 C 
ATOM     13  C   UNL     1      20.189  27.191  17.925  0.00  0.00    -0.054 C 
ATOM     14  P   UNL     1      21.913  27.275  17.316  0.00  0.00    +0.092 P 
ATOM     15 CL   UNL     1      21.941  25.519  16.163  0.00  0.00    -0.077 Cl
ATOM     16  C   UNL     1      21.942  28.531  15.964  0.00  0.00    -0.034 C 
ATOM     17  C   UNL     1      20.979  28.942  15.125  0.00  0.00    -0.058 C 
ATOM     18  C   UNL     1      19.613  28.496  15.068  0.00  0.00    -0.048 C 
ATOM     19  C   UNL     1      19.193  27.384  14.445  0.00  0.00    -0.004 C 
ATOM     20  N   UNL     1      17.939  26.781  14.542  0.00  0.00    -0.290 N 
ATOM     21  H   UNL     1      16.816  28.693  15.931  0.00  0.00    +0.000 HD
ATOM     22  H   UNL     1      16.908  24.699  15.755  0.00  0.00    +0.000 HD
ATOM     23  H   UNL     1      17.100  24.198  19.247  0.00  0.00    +0.000 HD
ATOM     24  H   UNL     1      15.070  21.918  18.654  0.00  0.00    +0.000 HD
ATOM     25  H   UNL     1      22.860  27.483  18.299  0.00  0.00    +0.000 HD
ATOM     26  H   UNL     1      17.522  26.382  13.745  0.00  0.00    +0.000 HD
ENDROOT
TORSDOF 0
ENDMDL
