MODEL 1
REMARK VINA RESULT:    -4.310      0.000      0.000
REMARK INTER + INTRA:          -4.310
REMARK INTER:                  -4.310
REMARK INTRA:                   0.000
REMARK UNBOUND:                 0.000
REMARK  Name = /home/vital/Documents/PhD_2021/Malaria_codes/scripts/../data/pdbqt_ligands/ligand_161_temp.pdb
REMARK                            x       y       z     vdW  Elec       q    Type
REMARK                         _______ _______ _______ _____ _____    ______ ____
ROOT
ATOM      1  C1  UNL     1      14.765  28.758  17.663  0.00  0.00    -0.038 C 
ATOM      2  C2  UNL     1      15.231  27.323  17.723  0.00  0.00    -0.024 A 
ATOM      3  C3  UNL     1      14.999  26.472  16.528  0.00  0.00    +0.002 A 
ATOM      4  C4  UNL     1      14.383  26.940  15.357  0.00  0.00    -0.052 A 
ATOM      5  C5  UNL     1      14.182  26.097  14.258  0.00  0.00    -0.061 A 
ATOM      6  C6  UNL     1      14.593  24.768  14.311  0.00  0.00    -0.060 A 
ATOM      7  C7  UNL     1      15.207  24.281  15.464  0.00  0.00    -0.038 A 
ATOM      8  C8  UNL     1      15.405  25.130  16.558  0.00  0.00    +0.049 A 
ATOM      9  N1  UNL     1      16.028  24.621  17.696  0.00  0.00    -0.321 N 
ATOM     10  C9  UNL     1      16.287  25.359  18.823  0.00  0.00    +0.262 A 
ATOM     11  O1  UNL     1      16.879  24.818  19.755  0.00  0.00    -0.267 OA
ATOM     12  C10 UNL     1      15.832  26.782  18.812  0.00  0.00    +0.108 A 
ATOM     13  C11 UNL     1      16.067  27.646  20.005  0.00  0.00    +0.294 C 
ATOM     14  O2  UNL     1      17.013  28.433  20.006  0.00  0.00    -0.266 OA
ATOM     15  N2  UNL     1      15.116  27.435  20.926  0.00  0.00    -0.058 NA
ATOM     16  O3  UNL     1      15.109  28.431  21.972  0.00  0.00    -0.257 OA
ATOM     17  C12 UNL     1      15.915  27.952  23.052  0.00  0.00    +0.078 C 
ATOM     18  C13 UNL     1      15.874  28.972  24.198  0.00  0.00    -0.021 C 
ATOM     19  C14 UNL     1      16.827  28.555  25.318  0.00  0.00    -0.061 C 
ATOM     20  C15 UNL     1      14.455  29.140  24.744  0.00  0.00    -0.061 C 
ATOM     21  H   UNL     1      16.298  23.675  17.691  0.00  0.00    +0.000 HD
ENDROOT
TORSDOF 0
ENDMDL
MODEL 2
REMARK VINA RESULT:    -4.117      2.101      3.384
REMARK INTER + INTRA:          -4.117
REMARK INTER:                  -4.117
REMARK INTRA:                   0.000
REMARK UNBOUND:                 0.000
REMARK  Name = /home/vital/Documents/PhD_2021/Malaria_codes/scripts/../data/pdbqt_ligands/ligand_161_temp.pdb
REMARK                            x       y       z     vdW  Elec       q    Type
REMARK                         _______ _______ _______ _____ _____    ______ ____
ROOT
ATOM      1  C1  UNL     1      14.621  26.085  18.150  0.00  0.00    -0.038 C 
ATOM      2  C2  UNL     1      14.849  27.570  18.008  0.00  0.00    -0.024 A 
ATOM      3  C3  UNL     1      14.836  28.143  16.637  0.00  0.00    +0.002 A 
ATOM      4  C4  UNL     1      14.613  27.374  15.484  0.00  0.00    -0.052 A 
ATOM      5  C5  UNL     1      14.616  27.959  14.212  0.00  0.00    -0.061 A 
ATOM      6  C6  UNL     1      14.842  29.325  14.071  0.00  0.00    -0.060 A 
ATOM      7  C7  UNL     1      15.065  30.108  15.202  0.00  0.00    -0.038 A 
ATOM      8  C8  UNL     1      15.061  29.517  16.470  0.00  0.00    +0.049 A 
ATOM      9  N1  UNL     1      15.279  30.323  17.586  0.00  0.00    -0.321 N 
ATOM     10  C9  UNL     1      15.286  29.859  18.877  0.00  0.00    +0.262 A 
ATOM     11  O1  UNL     1      15.447  30.667  19.789  0.00  0.00    -0.267 OA
ATOM     12  C10 UNL     1      15.075  28.392  19.064  0.00  0.00    +0.108 A 
ATOM     13  C11 UNL     1      15.081  27.810  20.437  0.00  0.00    +0.294 C 
ATOM     14  O2  UNL     1      14.011  27.563  20.994  0.00  0.00    -0.266 OA
ATOM     15  N2  UNL     1      16.339  27.599  20.848  0.00  0.00    -0.058 NA
ATOM     16  O3  UNL     1      16.418  26.779  22.034  0.00  0.00    -0.257 OA
ATOM     17  C12 UNL     1      16.452  27.642  23.174  0.00  0.00    +0.078 C 
ATOM     18  C13 UNL     1      16.594  26.789  24.443  0.00  0.00    -0.021 C 
ATOM     19  C14 UNL     1      16.503  27.669  25.689  0.00  0.00    -0.061 C 
ATOM     20  C15 UNL     1      17.906  26.003  24.442  0.00  0.00    -0.061 C 
ATOM     21  H   UNL     1      15.439  31.283  17.438  0.00  0.00    +0.000 HD
ENDROOT
TORSDOF 0
ENDMDL
MODEL 3
REMARK VINA RESULT:    -3.913      2.759      3.081
REMARK INTER + INTRA:          -3.913
REMARK INTER:                  -3.913
REMARK INTRA:                   0.000
REMARK UNBOUND:                 0.000
REMARK  Name = /home/vital/Documents/PhD_2021/Malaria_codes/scripts/../data/pdbqt_ligands/ligand_161_temp.pdb
REMARK                            x       y       z     vdW  Elec       q    Type
REMARK                         _______ _______ _______ _____ _____    ______ ____
ROOT
ATOM      1  C1  UNL     1      15.769  30.143  16.352  0.00  0.00    -0.038 C 
ATOM      2  C2  UNL     1      15.221  28.935  17.071  0.00  0.00    -0.024 A 
ATOM      3  C3  UNL     1      14.718  27.808  16.243  0.00  0.00    +0.002 A 
ATOM      4  C4  UNL     1      14.741  27.814  14.839  0.00  0.00    -0.052 A 
ATOM      5  C5  UNL     1      14.250  26.730  14.103  0.00  0.00    -0.061 A 
ATOM      6  C6  UNL     1      13.727  25.619  14.758  0.00  0.00    -0.060 A 
ATOM      7  C7  UNL     1      13.695  25.591  16.151  0.00  0.00    -0.038 A 
ATOM      8  C8  UNL     1      14.187  26.678  16.880  0.00  0.00    +0.049 A 
ATOM      9  N1  UNL     1      14.150  26.622  18.272  0.00  0.00    -0.321 N 
ATOM     10  C9  UNL     1      14.614  27.620  19.092  0.00  0.00    +0.262 A 
ATOM     11  O1  UNL     1      14.570  27.447  20.308  0.00  0.00    -0.267 OA
ATOM     12  C10 UNL     1      15.155  28.840  18.423  0.00  0.00    +0.108 A 
ATOM     13  C11 UNL     1      15.668  29.973  19.246  0.00  0.00    +0.294 C 
ATOM     14  O2  UNL     1      16.880  30.097  19.420  0.00  0.00    -0.266 OA
ATOM     15  N2  UNL     1      14.653  30.748  19.655  0.00  0.00    -0.058 NA
ATOM     16  O3  UNL     1      15.088  32.010  20.205  0.00  0.00    -0.257 OA
ATOM     17  C12 UNL     1      15.220  31.860  21.621  0.00  0.00    +0.078 C 
ATOM     18  C13 UNL     1      15.627  33.208  22.231  0.00  0.00    -0.021 C 
ATOM     19  C14 UNL     1      15.903  33.055  23.726  0.00  0.00    -0.061 C 
ATOM     20  C15 UNL     1      14.555  34.274  21.996  0.00  0.00    -0.061 C 
ATOM     21  H   UNL     1      13.768  25.819  18.693  0.00  0.00    +0.000 HD
ENDROOT
TORSDOF 0
ENDMDL
MODEL 4
REMARK VINA RESULT:    -3.756      2.869      3.922
REMARK INTER + INTRA:          -3.756
REMARK INTER:                  -3.756
REMARK INTRA:                   0.000
REMARK UNBOUND:                 0.000
REMARK  Name = /home/vital/Documents/PhD_2021/Malaria_codes/scripts/../data/pdbqt_ligands/ligand_161_temp.pdb
REMARK                            x       y       z     vdW  Elec       q    Type
REMARK                         _______ _______ _______ _____ _____    ______ ____
ROOT
ATOM      1  C1  UNL     1      17.825  23.896  17.233  0.00  0.00    -0.038 C 
ATOM      2  C2  UNL     1      16.748  24.892  17.588  0.00  0.00    -0.024 A 
ATOM      3  C3  UNL     1      15.707  25.177  16.567  0.00  0.00    +0.002 A 
ATOM      4  C4  UNL     1      15.676  24.560  15.306  0.00  0.00    -0.052 A 
ATOM      5  C5  UNL     1      14.677  24.866  14.375  0.00  0.00    -0.061 A 
ATOM      6  C6  UNL     1      13.690  25.796  14.688  0.00  0.00    -0.060 A 
ATOM      7  C7  UNL     1      13.701  26.420  15.934  0.00  0.00    -0.038 A 
ATOM      8  C8  UNL     1      14.702  26.109  16.860  0.00  0.00    +0.049 A 
ATOM      9  N1  UNL     1      14.686  26.742  18.101  0.00  0.00    -0.321 N 
ATOM     10  C9  UNL     1      15.607  26.510  19.092  0.00  0.00    +0.262 A 
ATOM     11  O1  UNL     1      15.473  27.094  20.165  0.00  0.00    -0.267 OA
ATOM     12  C10 UNL     1      16.698  25.539  18.779  0.00  0.00    +0.108 A 
ATOM     13  C11 UNL     1      17.743  25.243  19.801  0.00  0.00    +0.294 C 
ATOM     14  O2  UNL     1      17.657  24.217  20.476  0.00  0.00    -0.266 OA
ATOM     15  N2  UNL     1      18.692  26.189  19.784  0.00  0.00    -0.058 NA
ATOM     16  O3  UNL     1      19.872  25.823  20.533  0.00  0.00    -0.257 OA
ATOM     17  C12 UNL     1      19.734  26.332  21.862  0.00  0.00    +0.078 C 
ATOM     18  C13 UNL     1      21.004  26.002  22.658  0.00  0.00    -0.021 C 
ATOM     19  C14 UNL     1      20.841  26.417  24.120  0.00  0.00    -0.061 C 
ATOM     20  C15 UNL     1      22.235  26.678  22.050  0.00  0.00    -0.061 C 
ATOM     21  H   UNL     1      13.972  27.396  18.278  0.00  0.00    +0.000 HD
ENDROOT
TORSDOF 0
ENDMDL
MODEL 5
REMARK VINA RESULT:    -3.688     19.880     21.935
REMARK INTER + INTRA:          -3.688
REMARK INTER:                  -3.688
REMARK INTRA:                   0.000
REMARK UNBOUND:                 0.000
REMARK  Name = /home/vital/Documents/PhD_2021/Malaria_codes/scripts/../data/pdbqt_ligands/ligand_161_temp.pdb
REMARK                            x       y       z     vdW  Elec       q    Type
REMARK                         _______ _______ _______ _____ _____    ______ ____
ROOT
ATOM      1  C1  UNL     1      17.031  43.496  29.490  0.00  0.00    -0.038 C 
ATOM      2  C2  UNL     1      16.018  44.600  29.299  0.00  0.00    -0.024 A 
ATOM      3  C3  UNL     1      15.654  44.967  27.906  0.00  0.00    +0.002 A 
ATOM      4  C4  UNL     1      16.194  44.334  26.775  0.00  0.00    -0.052 A 
ATOM      5  C5  UNL     1      15.823  44.720  25.482  0.00  0.00    -0.061 A 
ATOM      6  C6  UNL     1      14.903  45.748  25.296  0.00  0.00    -0.060 A 
ATOM      7  C7  UNL     1      14.353  46.390  26.404  0.00  0.00    -0.038 A 
ATOM      8  C8  UNL     1      14.728  45.999  27.693  0.00  0.00    +0.049 A 
ATOM      9  N1  UNL     1      14.159  46.652  28.784  0.00  0.00    -0.321 N 
ATOM     10  C9  UNL     1      14.439  46.349  30.092  0.00  0.00    +0.262 A 
ATOM     11  O1  UNL     1      13.846  46.962  30.977  0.00  0.00    -0.267 OA
ATOM     12  C10 UNL     1      15.445  45.270  30.329  0.00  0.00    +0.108 A 
ATOM     13  C11 UNL     1      15.812  44.890  31.724  0.00  0.00    +0.294 C 
ATOM     14  O2  UNL     1      15.307  43.890  32.233  0.00  0.00    -0.266 OA
ATOM     15  N2  UNL     1      16.729  45.738  32.211  0.00  0.00    -0.058 NA
ATOM     16  O3  UNL     1      17.341  45.272  33.433  0.00  0.00    -0.257 OA
ATOM     17  C12 UNL     1      16.610  45.816  34.536  0.00  0.00    +0.078 C 
ATOM     18  C13 UNL     1      17.281  45.377  35.845  0.00  0.00    -0.021 C 
ATOM     19  C14 UNL     1      16.453  45.832  37.046  0.00  0.00    -0.061 C 
ATOM     20  C15 UNL     1      18.708  45.918  35.949  0.00  0.00    -0.061 C 
ATOM     21  H   UNL     1      13.516  47.376  28.605  0.00  0.00    +0.000 HD
ENDROOT
TORSDOF 0
ENDMDL
MODEL 6
REMARK VINA RESULT:    -3.620      4.610      6.236
REMARK INTER + INTRA:          -3.620
REMARK INTER:                  -3.620
REMARK INTRA:                   0.000
REMARK UNBOUND:                 0.000
REMARK  Name = /home/vital/Documents/PhD_2021/Malaria_codes/scripts/../data/pdbqt_ligands/ligand_161_temp.pdb
REMARK                            x       y       z     vdW  Elec       q    Type
REMARK                         _______ _______ _______ _____ _____    ______ ____
ROOT
ATOM      1  C1  UNL     1      15.693  29.956  13.640  0.00  0.00    -0.038 C 
ATOM      2  C2  UNL     1      15.445  29.462  15.044  0.00  0.00    -0.024 A 
ATOM      3  C3  UNL     1      14.843  28.113  15.206  0.00  0.00    +0.002 A 
ATOM      4  C4  UNL     1      14.509  27.284  14.123  0.00  0.00    -0.052 A 
ATOM      5  C5  UNL     1      13.938  26.023  14.326  0.00  0.00    -0.061 A 
ATOM      6  C6  UNL     1      13.691  25.567  15.618  0.00  0.00    -0.060 A 
ATOM      7  C7  UNL     1      14.014  26.372  16.707  0.00  0.00    -0.038 A 
ATOM      8  C8  UNL     1      14.585  27.632  16.497  0.00  0.00    +0.049 A 
ATOM      9  N1  UNL     1      14.906  28.415  17.604  0.00  0.00    -0.321 N 
ATOM     10  C9  UNL     1      15.480  29.659  17.523  0.00  0.00    +0.262 A 
ATOM     11  O1  UNL     1      15.759  30.245  18.567  0.00  0.00    -0.267 OA
ATOM     12  C10 UNL     1      15.732  30.193  16.151  0.00  0.00    +0.108 A 
ATOM     13  C11 UNL     1      16.342  31.543  15.980  0.00  0.00    +0.294 C 
ATOM     14  O2  UNL     1      17.544  31.638  15.735  0.00  0.00    -0.266 OA
ATOM     15  N2  UNL     1      15.404  32.494  16.088  0.00  0.00    -0.058 NA
ATOM     16  O3  UNL     1      15.860  33.793  15.651  0.00  0.00    -0.257 OA
ATOM     17  C12 UNL     1      16.358  34.499  16.790  0.00  0.00    +0.078 C 
ATOM     18  C13 UNL     1      16.795  35.906  16.355  0.00  0.00    -0.021 C 
ATOM     19  C14 UNL     1      17.452  36.644  17.520  0.00  0.00    -0.061 C 
ATOM     20  C15 UNL     1      15.614  36.713  15.812  0.00  0.00    -0.061 C 
ATOM     21  H   UNL     1      14.710  28.054  18.498  0.00  0.00    +0.000 HD
ENDROOT
TORSDOF 0
ENDMDL
MODEL 7
REMARK VINA RESULT:    -3.586      4.236      5.176
REMARK INTER + INTRA:          -3.586
REMARK INTER:                  -3.586
REMARK INTRA:                   0.000
REMARK UNBOUND:                 0.000
REMARK  Name = /home/vital/Documents/PhD_2021/Malaria_codes/scripts/../data/pdbqt_ligands/ligand_161_temp.pdb
REMARK                            x       y       z     vdW  Elec       q    Type
REMARK                         _______ _______ _______ _____ _____    ______ ____
ROOT
ATOM      1  C1  UNL     1      14.444  29.735  14.220  0.00  0.00    -0.038 C 
ATOM      2  C2  UNL     1      15.276  28.867  15.132  0.00  0.00    -0.024 A 
ATOM      3  C3  UNL     1      15.051  27.399  15.082  0.00  0.00    +0.002 A 
ATOM      4  C4  UNL     1      14.118  26.791  14.227  0.00  0.00    -0.052 A 
ATOM      5  C5  UNL     1      13.939  25.403  14.220  0.00  0.00    -0.061 A 
ATOM      6  C6  UNL     1      14.690  24.597  15.070  0.00  0.00    -0.060 A 
ATOM      7  C7  UNL     1      15.622  25.178  15.928  0.00  0.00    -0.038 A 
ATOM      8  C8  UNL     1      15.797  26.566  15.929  0.00  0.00    +0.049 A 
ATOM      9  N1  UNL     1      16.740  27.122  16.790  0.00  0.00    -0.321 N 
ATOM     10  C9  UNL     1      17.007  28.465  16.871  0.00  0.00    +0.262 A 
ATOM     11  O1  UNL     1      17.891  28.842  17.638  0.00  0.00    -0.267 OA
ATOM     12  C10 UNL     1      16.198  29.364  15.994  0.00  0.00    +0.108 A 
ATOM     13  C11 UNL     1      16.422  30.838  16.033  0.00  0.00    +0.294 C 
ATOM     14  O2  UNL     1      17.106  31.370  15.160  0.00  0.00    -0.266 OA
ATOM     15  N2  UNL     1      15.758  31.381  17.063  0.00  0.00    -0.058 NA
ATOM     16  O3  UNL     1      15.690  32.823  16.997  0.00  0.00    -0.257 OA
ATOM     17  C12 UNL     1      16.787  33.358  17.740  0.00  0.00    +0.078 C 
ATOM     18  C13 UNL     1      16.700  34.890  17.729  0.00  0.00    -0.021 C 
ATOM     19  C14 UNL     1      17.927  35.500  18.405  0.00  0.00    -0.061 C 
ATOM     20  C15 UNL     1      15.420  35.380  18.411  0.00  0.00    -0.061 C 
ATOM     21  H   UNL     1      17.245  26.514  17.377  0.00  0.00    +0.000 HD
ENDROOT
TORSDOF 0
ENDMDL
MODEL 8
REMARK VINA RESULT:    -3.481     20.661     21.476
REMARK INTER + INTRA:          -3.481
REMARK INTER:                  -3.481
REMARK INTRA:                   0.000
REMARK UNBOUND:                 0.000
REMARK  Name = /home/vital/Documents/PhD_2021/Malaria_codes/scripts/../data/pdbqt_ligands/ligand_161_temp.pdb
REMARK                            x       y       z     vdW  Elec       q    Type
REMARK                         _______ _______ _______ _____ _____    ______ ____
ROOT
ATOM      1  C1  UNL     1      33.966  26.145  13.466  0.00  0.00    -0.038 C 
ATOM      2  C2  UNL     1      35.460  26.227  13.267  0.00  0.00    -0.024 A 
ATOM      3  C3  UNL     1      36.176  24.977  12.903  0.00  0.00    +0.002 A 
ATOM      4  C4  UNL     1      35.532  23.743  12.727  0.00  0.00    -0.052 A 
ATOM      5  C5  UNL     1      36.251  22.591  12.389  0.00  0.00    -0.061 A 
ATOM      6  C6  UNL     1      37.632  22.654  12.220  0.00  0.00    -0.060 A 
ATOM      7  C7  UNL     1      38.293  23.868  12.389  0.00  0.00    -0.038 A 
ATOM      8  C8  UNL     1      37.567  25.015  12.727  0.00  0.00    +0.049 A 
ATOM      9  N1  UNL     1      38.251  26.219  12.883  0.00  0.00    -0.321 N 
ATOM     10  C9  UNL     1      37.646  27.410  13.201  0.00  0.00    +0.262 A 
ATOM     11  O1  UNL     1      38.342  28.420  13.273  0.00  0.00    -0.267 OA
ATOM     12  C10 UNL     1      36.168  27.373  13.418  0.00  0.00    +0.108 A 
ATOM     13  C11 UNL     1      35.440  28.624  13.778  0.00  0.00    +0.294 C 
ATOM     14  O2  UNL     1      34.829  29.242  12.906  0.00  0.00    -0.266 OA
ATOM     15  N2  UNL     1      35.545  28.861  15.093  0.00  0.00    -0.058 NA
ATOM     16  O3  UNL     1      34.636  29.882  15.560  0.00  0.00    -0.257 OA
ATOM     17  C12 UNL     1      35.318  31.138  15.528  0.00  0.00    +0.078 C 
ATOM     18  C13 UNL     1      34.386  32.228  16.075  0.00  0.00    -0.021 C 
ATOM     19  C14 UNL     1      35.034  33.604  15.936  0.00  0.00    -0.061 C 
ATOM     20  C15 UNL     1      34.013  31.962  17.535  0.00  0.00    -0.061 C 
ATOM     21  H   UNL     1      39.227  26.216  12.758  0.00  0.00    +0.000 HD
ENDROOT
TORSDOF 0
ENDMDL
