MODEL 1
REMARK VINA RESULT:    -3.735      0.000      0.000
REMARK INTER + INTRA:          -3.735
REMARK INTER:                  -3.735
REMARK INTRA:                   0.000
REMARK UNBOUND:                 0.000
REMARK  Name = /home/vital/Documents/PhD_2021/Malaria_codes/scripts/../data/pdbqt_ligands/ligand_177_temp.pdb
REMARK                            x       y       z     vdW  Elec       q    Type
REMARK                         _______ _______ _______ _____ _____    ______ ____
ROOT
ATOM      1  C1  UNL     1      16.757  42.222  14.698  0.00  0.00    +0.079 C 
ATOM      2  O1  UNL     1      15.633  41.365  14.553  0.00  0.00    -0.495 OA
ATOM      3  C2  UNL     1      15.669  40.180  15.235  0.00  0.00    +0.120 A 
ATOM      4  C3  UNL     1      16.710  39.732  16.051  0.00  0.00    -0.018 A 
ATOM      5  C4  UNL     1      16.617  38.492  16.692  0.00  0.00    -0.035 A 
ATOM      6  C5  UNL     1      15.482  37.694  16.520  0.00  0.00    +0.062 A 
ATOM      7  N1  UNL     1      15.354  36.424  17.173  0.00  0.00    -0.123 N 
ATOM      8  C6  UNL     1      16.123  35.372  16.638  0.00  0.00    +0.333 C 
ATOM      9  O2  UNL     1      16.773  35.534  15.604  0.00  0.00    -0.250 OA
ATOM     10  N2  UNL     1      16.074  34.114  17.256  0.00  0.00    -0.248 N 
ATOM     11  C7  UNL     1      16.842  33.044  16.598  0.00  0.00    +0.049 C 
ATOM     12  C8  UNL     1      16.034  32.171  15.661  0.00  0.00    +0.005 A 
ATOM     13  C9  UNL     1      15.198  32.707  14.671  0.00  0.00    -0.054 A 
ATOM     14  C10 UNL     1      14.490  31.869  13.805  0.00  0.00    -0.061 A 
ATOM     15  C11 UNL     1      14.617  30.484  13.906  0.00  0.00    -0.059 A 
ATOM     16  C12 UNL     1      15.461  29.937  14.869  0.00  0.00    -0.026 A 
ATOM     17  C13 UNL     1      16.163  30.778  15.728  0.00  0.00    +0.128 A 
ATOM     18  F1  UNL     1      16.969  30.227  16.646  0.00  0.00    -0.205 F 
ATOM     19  C14 UNL     1      15.290  33.820  18.419  0.00  0.00    +0.065 A 
ATOM     20  C15 UNL     1      15.089  32.499  18.862  0.00  0.00    -0.038 A 
ATOM     21  C16 UNL     1      14.299  32.204  19.982  0.00  0.00    -0.060 A 
ATOM     22  C17 UNL     1      13.692  33.224  20.702  0.00  0.00    -0.060 A 
ATOM     23  C18 UNL     1      13.890  34.540  20.305  0.00  0.00    -0.033 A 
ATOM     24  C19 UNL     1      14.691  34.819  19.184  0.00  0.00    +0.131 A 
ATOM     25  S1  UNL     1      14.965  36.497  18.786  0.00  0.00    +0.084 S 
ATOM     26  O3  UNL     1      13.690  37.175  18.925  0.00  0.00    -0.149 OA
ATOM     27  O4  UNL     1      16.126  36.920  19.542  0.00  0.00    -0.149 OA
ATOM     28  C20 UNL     1      14.438  38.139  15.708  0.00  0.00    -0.035 A 
ATOM     29  C21 UNL     1      14.536  39.378  15.070  0.00  0.00    -0.018 A 
ENDROOT
TORSDOF 0
ENDMDL
MODEL 2
REMARK VINA RESULT:    -3.588     19.359     21.653
REMARK INTER + INTRA:          -3.588
REMARK INTER:                  -3.588
REMARK INTRA:                   0.000
REMARK UNBOUND:                 0.000
REMARK  Name = /home/vital/Documents/PhD_2021/Malaria_codes/scripts/../data/pdbqt_ligands/ligand_177_temp.pdb
REMARK                            x       y       z     vdW  Elec       q    Type
REMARK                         _______ _______ _______ _____ _____    ______ ____
ROOT
ATOM      1  C1  UNL     1      37.315  34.661  13.186  0.00  0.00    +0.079 C 
ATOM      2  O1  UNL     1      37.777  36.005  13.194  0.00  0.00    -0.495 OA
ATOM      3  C2  UNL     1      37.286  36.820  14.177  0.00  0.00    +0.120 A 
ATOM      4  C3  UNL     1      36.370  36.455  15.165  0.00  0.00    -0.018 A 
ATOM      5  C4  UNL     1      35.949  37.393  16.114  0.00  0.00    -0.035 A 
ATOM      6  C5  UNL     1      36.443  38.700  16.079  0.00  0.00    +0.062 A 
ATOM      7  N1  UNL     1      36.038  39.680  17.045  0.00  0.00    -0.123 N 
ATOM      8  C6  UNL     1      34.744  40.210  16.884  0.00  0.00    +0.333 C 
ATOM      9  O2  UNL     1      34.064  39.914  15.901  0.00  0.00    -0.250 OA
ATOM     10  N2  UNL     1      34.272  41.143  17.819  0.00  0.00    -0.248 N 
ATOM     11  C7  UNL     1      32.942  41.712  17.546  0.00  0.00    +0.049 C 
ATOM     12  C8  UNL     1      32.961  43.043  16.825  0.00  0.00    +0.005 A 
ATOM     13  C9  UNL     1      33.715  43.255  15.662  0.00  0.00    -0.054 A 
ATOM     14  C10 UNL     1      33.684  44.490  15.007  0.00  0.00    -0.061 A 
ATOM     15  C11 UNL     1      32.888  45.526  15.496  0.00  0.00    -0.059 A 
ATOM     16  C12 UNL     1      32.117  45.323  16.637  0.00  0.00    -0.026 A 
ATOM     17  C13 UNL     1      32.153  44.091  17.284  0.00  0.00    +0.128 A 
ATOM     18  F1  UNL     1      31.400  43.921  18.379  0.00  0.00    -0.205 F 
ATOM     19  C14 UNL     1      35.025  41.596  18.952  0.00  0.00    +0.065 A 
ATOM     20  C15 UNL     1      34.609  42.697  19.725  0.00  0.00    -0.038 A 
ATOM     21  C16 UNL     1      35.356  43.162  20.816  0.00  0.00    -0.060 A 
ATOM     22  C17 UNL     1      36.540  42.533  21.175  0.00  0.00    -0.060 A 
ATOM     23  C18 UNL     1      36.966  41.430  20.448  0.00  0.00    -0.033 A 
ATOM     24  C19 UNL     1      36.201  40.972  19.361  0.00  0.00    +0.131 A 
ATOM     25  S1  UNL     1      36.750  39.533  18.539  0.00  0.00    +0.084 S 
ATOM     26  O3  UNL     1      38.186  39.659  18.383  0.00  0.00    -0.149 OA
ATOM     27  O4  UNL     1      36.168  38.405  19.238  0.00  0.00    -0.149 OA
ATOM     28  C20 UNL     1      37.362  39.068  15.095  0.00  0.00    -0.035 A 
ATOM     29  C21 UNL     1      37.779  38.128  14.150  0.00  0.00    -0.018 A 
ENDROOT
TORSDOF 0
ENDMDL
MODEL 3
REMARK VINA RESULT:    -3.527     14.747     17.235
REMARK INTER + INTRA:          -3.527
REMARK INTER:                  -3.527
REMARK INTRA:                   0.000
REMARK UNBOUND:                 0.000
REMARK  Name = /home/vital/Documents/PhD_2021/Malaria_codes/scripts/../data/pdbqt_ligands/ligand_177_temp.pdb
REMARK                            x       y       z     vdW  Elec       q    Type
REMARK                         _______ _______ _______ _____ _____    ______ ____
ROOT
ATOM      1  C1  UNL     1      14.522  43.074  23.273  0.00  0.00    +0.079 C 
ATOM      2  O1  UNL     1      14.496  44.215  24.120  0.00  0.00    -0.495 OA
ATOM      3  C2  UNL     1      15.469  44.294  25.077  0.00  0.00    +0.120 A 
ATOM      4  C3  UNL     1      16.478  43.355  25.304  0.00  0.00    -0.018 A 
ATOM      5  C4  UNL     1      17.413  43.561  26.324  0.00  0.00    -0.035 A 
ATOM      6  C5  UNL     1      17.345  44.707  27.121  0.00  0.00    +0.062 A 
ATOM      7  N1  UNL     1      18.296  44.950  28.166  0.00  0.00    -0.123 N 
ATOM      8  C6  UNL     1      18.143  44.180  29.334  0.00  0.00    +0.333 C 
ATOM      9  O2  UNL     1      17.176  43.429  29.467  0.00  0.00    -0.250 OA
ATOM     10  N2  UNL     1      19.066  44.340  30.378  0.00  0.00    -0.248 N 
ATOM     11  C7  UNL     1      18.799  43.560  31.599  0.00  0.00    +0.049 C 
ATOM     12  C8  UNL     1      18.052  44.312  32.678  0.00  0.00    +0.005 A 
ATOM     13  C9  UNL     1      16.875  45.027  32.416  0.00  0.00    -0.054 A 
ATOM     14  C10 UNL     1      16.195  45.685  33.446  0.00  0.00    -0.061 A 
ATOM     15  C11 UNL     1      16.675  45.626  34.755  0.00  0.00    -0.059 A 
ATOM     16  C12 UNL     1      17.830  44.902  35.034  0.00  0.00    -0.026 A 
ATOM     17  C13 UNL     1      18.500  44.249  34.004  0.00  0.00    +0.128 A 
ATOM     18  F1  UNL     1      19.610  43.558  34.299  0.00  0.00    -0.205 F 
ATOM     19  C14 UNL     1      20.179  45.243  30.335  0.00  0.00    +0.065 A 
ATOM     20  C15 UNL     1      20.935  45.541  31.485  0.00  0.00    -0.038 A 
ATOM     21  C16 UNL     1      22.006  46.445  31.455  0.00  0.00    -0.060 A 
ATOM     22  C17 UNL     1      22.361  47.073  30.269  0.00  0.00    -0.060 A 
ATOM     23  C18 UNL     1      21.651  46.783  29.112  0.00  0.00    -0.033 A 
ATOM     24  C19 UNL     1      20.583  45.869  29.159  0.00  0.00    +0.131 A 
ATOM     25  S1  UNL     1      19.783  45.487  27.655  0.00  0.00    +0.084 S 
ATOM     26  O3  UNL     1      19.604  46.739  26.944  0.00  0.00    -0.149 OA
ATOM     27  O4  UNL     1      20.513  44.385  27.061  0.00  0.00    -0.149 OA
ATOM     28  C20 UNL     1      16.341  45.650  26.895  0.00  0.00    -0.035 A 
ATOM     29  C21 UNL     1      15.409  45.440  25.876  0.00  0.00    -0.018 A 
ENDROOT
TORSDOF 0
ENDMDL
MODEL 4
REMARK VINA RESULT:    -3.359      6.960     10.385
REMARK INTER + INTRA:          -3.359
REMARK INTER:                  -3.359
REMARK INTRA:                   0.000
REMARK UNBOUND:                 0.000
REMARK  Name = /home/vital/Documents/PhD_2021/Malaria_codes/scripts/../data/pdbqt_ligands/ligand_177_temp.pdb
REMARK                            x       y       z     vdW  Elec       q    Type
REMARK                         _______ _______ _______ _____ _____    ______ ____
ROOT
ATOM      1  C1  UNL     1      22.713  27.211  22.609  0.00  0.00    +0.079 C 
ATOM      2  O1  UNL     1      21.333  27.543  22.528  0.00  0.00    -0.495 OA
ATOM      3  C2  UNL     1      20.700  27.270  21.347  0.00  0.00    +0.120 A 
ATOM      4  C3  UNL     1      21.287  26.705  20.213  0.00  0.00    -0.018 A 
ATOM      5  C4  UNL     1      20.520  26.479  19.064  0.00  0.00    -0.035 A 
ATOM      6  C5  UNL     1      19.164  26.818  19.045  0.00  0.00    +0.062 A 
ATOM      7  N1  UNL     1      18.351  26.588  17.886  0.00  0.00    -0.123 N 
ATOM      8  C6  UNL     1      18.544  27.474  16.809  0.00  0.00    +0.333 C 
ATOM      9  O2  UNL     1      19.293  28.445  16.923  0.00  0.00    -0.250 OA
ATOM     10  N2  UNL     1      17.810  27.279  15.630  0.00  0.00    -0.248 N 
ATOM     11  C7  UNL     1      18.005  28.288  14.575  0.00  0.00    +0.049 C 
ATOM     12  C8  UNL     1      16.974  29.395  14.561  0.00  0.00    +0.005 A 
ATOM     13  C9  UNL     1      16.626  30.111  15.716  0.00  0.00    -0.054 A 
ATOM     14  C10 UNL     1      15.690  31.149  15.658  0.00  0.00    -0.061 A 
ATOM     15  C11 UNL     1      15.098  31.494  14.444  0.00  0.00    -0.059 A 
ATOM     16  C12 UNL     1      15.449  30.808  13.285  0.00  0.00    -0.026 A 
ATOM     17  C13 UNL     1      16.382  29.777  13.351  0.00  0.00    +0.128 A 
ATOM     18  F1  UNL     1      16.704  29.132  12.221  0.00  0.00    -0.205 F 
ATOM     19  C14 UNL     1      16.865  26.218  15.438  0.00  0.00    +0.065 A 
ATOM     20  C15 UNL     1      15.986  26.199  14.339  0.00  0.00    -0.038 A 
ATOM     21  C16 UNL     1      15.041  25.178  14.162  0.00  0.00    -0.060 A 
ATOM     22  C17 UNL     1      14.953  24.138  15.076  0.00  0.00    -0.060 A 
ATOM     23  C18 UNL     1      15.821  24.114  16.159  0.00  0.00    -0.033 A 
ATOM     24  C19 UNL     1      16.767  25.142  16.318  0.00  0.00    +0.131 A 
ATOM     25  S1  UNL     1      17.882  25.012  17.655  0.00  0.00    +0.084 S 
ATOM     26  O3  UNL     1      17.110  24.585  18.806  0.00  0.00    -0.149 OA
ATOM     27  O4  UNL     1      19.013  24.239  17.182  0.00  0.00    -0.149 OA
ATOM     28  C20 UNL     1      18.574  27.380  20.178  0.00  0.00    -0.035 A 
ATOM     29  C21 UNL     1      19.343  27.604  21.322  0.00  0.00    -0.018 A 
ENDROOT
TORSDOF 0
ENDMDL
MODEL 5
REMARK VINA RESULT:    -3.258      7.161     10.244
REMARK INTER + INTRA:          -3.258
REMARK INTER:                  -3.258
REMARK INTRA:                   0.000
REMARK UNBOUND:                 0.000
REMARK  Name = /home/vital/Documents/PhD_2021/Malaria_codes/scripts/../data/pdbqt_ligands/ligand_177_temp.pdb
REMARK                            x       y       z     vdW  Elec       q    Type
REMARK                         _______ _______ _______ _____ _____    ______ ____
ROOT
ATOM      1  C1  UNL     1      16.645  26.587  26.844  0.00  0.00    +0.079 C 
ATOM      2  O1  UNL     1      17.387  25.986  25.791  0.00  0.00    -0.495 OA
ATOM      3  C2  UNL     1      17.239  26.528  24.544  0.00  0.00    +0.120 A 
ATOM      4  C3  UNL     1      16.423  27.611  24.210  0.00  0.00    -0.018 A 
ATOM      5  C4  UNL     1      16.365  28.066  22.888  0.00  0.00    -0.035 A 
ATOM      6  C5  UNL     1      17.123  27.440  21.895  0.00  0.00    +0.062 A 
ATOM      7  N1  UNL     1      17.093  27.891  20.534  0.00  0.00    -0.123 N 
ATOM      8  C6  UNL     1      15.938  27.563  19.799  0.00  0.00    +0.333 C 
ATOM      9  O2  UNL     1      15.070  26.838  20.286  0.00  0.00    -0.250 OA
ATOM     10  N2  UNL     1      15.827  28.011  18.474  0.00  0.00    -0.248 N 
ATOM     11  C7  UNL     1      14.629  27.566  17.742  0.00  0.00    +0.049 C 
ATOM     12  C8  UNL     1      14.832  26.333  16.888  0.00  0.00    +0.005 A 
ATOM     13  C9  UNL     1      15.433  25.167  17.385  0.00  0.00    -0.054 A 
ATOM     14  C10 UNL     1      15.576  24.037  16.573  0.00  0.00    -0.061 A 
ATOM     15  C11 UNL     1      15.109  24.052  15.259  0.00  0.00    -0.059 A 
ATOM     16  C12 UNL     1      14.491  25.194  14.759  0.00  0.00    -0.026 A 
ATOM     17  C13 UNL     1      14.352  26.314  15.573  0.00  0.00    +0.128 A 
ATOM     18  F1  UNL     1      13.752  27.401  15.068  0.00  0.00    -0.205 F 
ATOM     19  C14 UNL     1      16.821  28.799  17.806  0.00  0.00    +0.065 A 
ATOM     20  C15 UNL     1      16.777  29.024  16.417  0.00  0.00    -0.038 A 
ATOM     21  C16 UNL     1      17.763  29.769  15.755  0.00  0.00    -0.060 A 
ATOM     22  C17 UNL     1      18.819  30.323  16.464  0.00  0.00    -0.060 A 
ATOM     23  C18 UNL     1      18.879  30.139  17.839  0.00  0.00    -0.033 A 
ATOM     24  C19 UNL     1      17.879  29.395  18.489  0.00  0.00    +0.131 A 
ATOM     25  S1  UNL     1      17.969  29.269  20.228  0.00  0.00    +0.084 S 
ATOM     26  O3  UNL     1      19.358  29.018  20.560  0.00  0.00    -0.149 OA
ATOM     27  O4  UNL     1      17.264  30.415  20.766  0.00  0.00    -0.149 OA
ATOM     28  C20 UNL     1      17.943  26.360  22.225  0.00  0.00    -0.035 A 
ATOM     29  C21 UNL     1      17.998  25.909  23.546  0.00  0.00    -0.018 A 
ENDROOT
TORSDOF 0
ENDMDL
MODEL 6
REMARK VINA RESULT:    -3.182      6.182     10.377
REMARK INTER + INTRA:          -3.182
REMARK INTER:                  -3.182
REMARK INTRA:                   0.000
REMARK UNBOUND:                 0.000
REMARK  Name = /home/vital/Documents/PhD_2021/Malaria_codes/scripts/../data/pdbqt_ligands/ligand_177_temp.pdb
REMARK                            x       y       z     vdW  Elec       q    Type
REMARK                         _______ _______ _______ _____ _____    ______ ____
ROOT
ATOM      1  C1  UNL     1      23.121  23.326  17.655  0.00  0.00    +0.079 C 
ATOM      2  O1  UNL     1      21.709  23.310  17.821  0.00  0.00    -0.495 OA
ATOM      3  C2  UNL     1      21.021  24.399  17.362  0.00  0.00    +0.120 A 
ATOM      4  C3  UNL     1      21.578  25.527  16.755  0.00  0.00    -0.018 A 
ATOM      5  C4  UNL     1      20.755  26.575  16.331  0.00  0.00    -0.035 A 
ATOM      6  C5  UNL     1      19.371  26.501  16.513  0.00  0.00    +0.062 A 
ATOM      7  N1  UNL     1      18.501  27.556  16.079  0.00  0.00    -0.123 N 
ATOM      8  C6  UNL     1      18.500  28.721  16.868  0.00  0.00    +0.333 C 
ATOM      9  O2  UNL     1      19.134  28.764  17.923  0.00  0.00    -0.250 OA
ATOM     10  N2  UNL     1      17.702  29.806  16.476  0.00  0.00    -0.248 N 
ATOM     11  C7  UNL     1      17.689  30.961  17.389  0.00  0.00    +0.049 C 
ATOM     12  C8  UNL     1      16.535  30.981  18.367  0.00  0.00    +0.005 A 
ATOM     13  C9  UNL     1      16.198  29.868  19.152  0.00  0.00    -0.054 A 
ATOM     14  C10 UNL     1      15.144  29.934  20.068  0.00  0.00    -0.061 A 
ATOM     15  C11 UNL     1      14.419  31.116  20.222  0.00  0.00    -0.059 A 
ATOM     16  C12 UNL     1      14.756  32.235  19.466  0.00  0.00    -0.026 A 
ATOM     17  C13 UNL     1      15.807  32.162  18.557  0.00  0.00    +0.128 A 
ATOM     18  F1  UNL     1      16.113  33.254  17.842  0.00  0.00    -0.205 F 
ATOM     19  C14 UNL     1      16.879  29.814  15.301  0.00  0.00    +0.065 A 
ATOM     20  C15 UNL     1      15.923  30.822  15.074  0.00  0.00    -0.038 A 
ATOM     21  C16 UNL     1      15.096  30.820  13.942  0.00  0.00    -0.060 A 
ATOM     22  C17 UNL     1      15.206  29.811  12.995  0.00  0.00    -0.060 A 
ATOM     23  C18 UNL     1      16.155  28.814  13.177  0.00  0.00    -0.033 A 
ATOM     24  C19 UNL     1      16.981  28.836  14.315  0.00  0.00    +0.131 A 
ATOM     25  S1  UNL     1      18.207  27.599  14.445  0.00  0.00    +0.084 S 
ATOM     26  O3  UNL     1      17.586  26.349  14.052  0.00  0.00    -0.149 OA
ATOM     27  O4  UNL     1      19.381  28.102  13.759  0.00  0.00    -0.149 OA
ATOM     28  C20 UNL     1      18.810  25.375  17.116  0.00  0.00    -0.035 A 
ATOM     29  C21 UNL     1      19.636  24.330  17.538  0.00  0.00    -0.018 A 
ENDROOT
TORSDOF 0
ENDMDL
MODEL 7
REMARK VINA RESULT:    -3.109     17.830     19.555
REMARK INTER + INTRA:          -3.109
REMARK INTER:                  -3.109
REMARK INTRA:                   0.000
REMARK UNBOUND:                 0.000
REMARK  Name = /home/vital/Documents/PhD_2021/Malaria_codes/scripts/../data/pdbqt_ligands/ligand_177_temp.pdb
REMARK                            x       y       z     vdW  Elec       q    Type
REMARK                         _______ _______ _______ _____ _____    ______ ____
ROOT
ATOM      1  C1  UNL     1      25.346  44.133  27.820  0.00  0.00    +0.079 C 
ATOM      2  O1  UNL     1      24.391  45.184  27.877  0.00  0.00    -0.495 OA
ATOM      3  C2  UNL     1      23.543  45.189  28.950  0.00  0.00    +0.120 A 
ATOM      4  C3  UNL     1      23.524  44.254  29.987  0.00  0.00    -0.018 A 
ATOM      5  C4  UNL     1      22.598  44.379  31.028  0.00  0.00    -0.035 A 
ATOM      6  C5  UNL     1      21.687  45.439  31.037  0.00  0.00    +0.062 A 
ATOM      7  N1  UNL     1      20.734  45.598  32.097  0.00  0.00    -0.123 N 
ATOM      8  C6  UNL     1      19.639  44.714  32.083  0.00  0.00    +0.333 C 
ATOM      9  O2  UNL     1      19.476  43.933  31.144  0.00  0.00    -0.250 OA
ATOM     10  N2  UNL     1      18.692  44.790  33.114  0.00  0.00    -0.248 N 
ATOM     11  C7  UNL     1      17.534  43.888  32.994  0.00  0.00    +0.049 C 
ATOM     12  C8  UNL     1      16.308  44.514  32.364  0.00  0.00    +0.005 A 
ATOM     13  C9  UNL     1      16.367  45.226  31.157  0.00  0.00    -0.054 A 
ATOM     14  C10 UNL     1      15.207  45.764  30.590  0.00  0.00    -0.061 A 
ATOM     15  C11 UNL     1      13.972  45.587  31.213  0.00  0.00    -0.059 A 
ATOM     16  C12 UNL     1      13.895  44.864  32.400  0.00  0.00    -0.026 A 
ATOM     17  C13 UNL     1      15.053  44.331  32.958  0.00  0.00    +0.128 A 
ATOM     18  F1  UNL     1      14.953  43.637  34.100  0.00  0.00    -0.205 F 
ATOM     19  C14 UNL     1      18.766  45.716  34.206  0.00  0.00    +0.065 A 
ATOM     20  C15 UNL     1      17.682  45.916  35.083  0.00  0.00    -0.038 A 
ATOM     21  C16 UNL     1      17.739  46.841  36.134  0.00  0.00    -0.060 A 
ATOM     22  C17 UNL     1      18.887  47.590  36.349  0.00  0.00    -0.060 A 
ATOM     23  C18 UNL     1      19.983  47.400  35.517  0.00  0.00    -0.033 A 
ATOM     24  C19 UNL     1      19.911  46.463  34.471  0.00  0.00    +0.131 A 
ATOM     25  S1  UNL     1      21.349  46.215  33.511  0.00  0.00    +0.084 S 
ATOM     26  O3  UNL     1      21.906  47.526  33.242  0.00  0.00    -0.149 OA
ATOM     27  O4  UNL     1      22.126  45.192  34.182  0.00  0.00    -0.149 OA
ATOM     28  C20 UNL     1      21.705  46.378  30.005  0.00  0.00    -0.035 A 
ATOM     29  C21 UNL     1      22.631  46.249  28.967  0.00  0.00    -0.018 A 
ENDROOT
TORSDOF 0
ENDMDL
MODEL 8
REMARK VINA RESULT:    -3.074      5.077      9.297
REMARK INTER + INTRA:          -3.074
REMARK INTER:                  -3.074
REMARK INTRA:                   0.000
REMARK UNBOUND:                 0.000
REMARK  Name = /home/vital/Documents/PhD_2021/Malaria_codes/scripts/../data/pdbqt_ligands/ligand_177_temp.pdb
REMARK                            x       y       z     vdW  Elec       q    Type
REMARK                         _______ _______ _______ _____ _____    ______ ____
ROOT
ATOM      1  C1  UNL     1      16.698  26.820  26.091  0.00  0.00    +0.079 C 
ATOM      2  O1  UNL     1      15.531  27.284  25.425  0.00  0.00    -0.495 OA
ATOM      3  C2  UNL     1      15.685  27.705  24.133  0.00  0.00    +0.120 A 
ATOM      4  C3  UNL     1      16.882  27.729  23.413  0.00  0.00    -0.018 A 
ATOM      5  C4  UNL     1      16.898  28.187  22.092  0.00  0.00    -0.035 A 
ATOM      6  C5  UNL     1      15.718  28.624  21.484  0.00  0.00    +0.062 A 
ATOM      7  N1  UNL     1      15.702  29.089  20.127  0.00  0.00    -0.123 N 
ATOM      8  C6  UNL     1      16.240  30.371  19.906  0.00  0.00    +0.333 C 
ATOM      9  O2  UNL     1      16.596  31.074  20.853  0.00  0.00    -0.250 OA
ATOM     10  N2  UNL     1      16.292  30.868  18.596  0.00  0.00    -0.248 N 
ATOM     11  C7  UNL     1      16.795  32.244  18.448  0.00  0.00    +0.049 C 
ATOM     12  C8  UNL     1      15.720  33.307  18.382  0.00  0.00    +0.005 A 
ATOM     13  C9  UNL     1      14.678  33.378  19.319  0.00  0.00    -0.054 A 
ATOM     14  C10 UNL     1      13.719  34.393  19.243  0.00  0.00    -0.061 A 
ATOM     15  C11 UNL     1      13.794  35.358  18.239  0.00  0.00    -0.059 A 
ATOM     16  C12 UNL     1      14.835  35.313  17.316  0.00  0.00    -0.026 A 
ATOM     17  C13 UNL     1      15.786  34.301  17.398  0.00  0.00    +0.128 A 
ATOM     18  F1  UNL     1      16.779  34.281  16.498  0.00  0.00    -0.205 F 
ATOM     19  C14 UNL     1      15.835  30.147  17.444  0.00  0.00    +0.065 A 
ATOM     20  C15 UNL     1      15.690  30.769  16.190  0.00  0.00    -0.038 A 
ATOM     21  C16 UNL     1      15.216  30.076  15.067  0.00  0.00    -0.060 A 
ATOM     22  C17 UNL     1      14.881  28.733  15.162  0.00  0.00    -0.060 A 
ATOM     23  C18 UNL     1      15.035  28.082  16.379  0.00  0.00    -0.033 A 
ATOM     24  C19 UNL     1      15.518  28.791  17.493  0.00  0.00    +0.131 A 
ATOM     25  S1  UNL     1      15.765  27.897  18.973  0.00  0.00    +0.084 S 
ATOM     26  O3  UNL     1      14.614  27.031  19.137  0.00  0.00    -0.149 OA
ATOM     27  O4  UNL     1      17.108  27.356  18.914  0.00  0.00    -0.149 OA
ATOM     28  C20 UNL     1      14.519  28.599  22.198  0.00  0.00    -0.035 A 
ATOM     29  C21 UNL     1      14.508  28.140  23.517  0.00  0.00    -0.018 A 
ENDROOT
TORSDOF 0
ENDMDL
MODEL 9
REMARK VINA RESULT:    -2.821      5.545      7.536
REMARK INTER + INTRA:          -2.821
REMARK INTER:                  -2.821
REMARK INTRA:                   0.000
REMARK UNBOUND:                 0.000
REMARK  Name = /home/vital/Documents/PhD_2021/Malaria_codes/scripts/../data/pdbqt_ligands/ligand_177_temp.pdb
REMARK                            x       y       z     vdW  Elec       q    Type
REMARK                         _______ _______ _______ _____ _____    ______ ____
ROOT
ATOM      1  C1  UNL     1      17.883  33.044  24.433  0.00  0.00    +0.079 C 
ATOM      2  O1  UNL     1      16.715  33.122  23.627  0.00  0.00    -0.495 OA
ATOM      3  C2  UNL     1      16.609  32.219  22.605  0.00  0.00    +0.120 A 
ATOM      4  C3  UNL     1      17.544  31.235  22.278  0.00  0.00    -0.018 A 
ATOM      5  C4  UNL     1      17.309  30.373  21.201  0.00  0.00    -0.035 A 
ATOM      6  C5  UNL     1      16.137  30.492  20.448  0.00  0.00    +0.062 A 
ATOM      7  N1  UNL     1      15.864  29.615  19.346  0.00  0.00    -0.123 N 
ATOM      8  C6  UNL     1      16.596  29.855  18.167  0.00  0.00    +0.333 C 
ATOM      9  O2  UNL     1      17.339  30.834  18.080  0.00  0.00    -0.250 OA
ATOM     10  N2  UNL     1      16.406  29.008  17.066  0.00  0.00    -0.248 N 
ATOM     11  C7  UNL     1      17.146  29.365  15.843  0.00  0.00    +0.049 C 
ATOM     12  C8  UNL     1      16.357  30.183  14.844  0.00  0.00    +0.005 A 
ATOM     13  C9  UNL     1      15.646  31.334  15.212  0.00  0.00    -0.054 A 
ATOM     14  C10 UNL     1      14.953  32.081  14.254  0.00  0.00    -0.061 A 
ATOM     15  C11 UNL     1      14.971  31.696  12.914  0.00  0.00    -0.059 A 
ATOM     16  C12 UNL     1      15.690  30.568  12.530  0.00  0.00    -0.026 A 
ATOM     17  C13 UNL     1      16.378  29.830  13.489  0.00  0.00    +0.128 A 
ATOM     18  F1  UNL     1      17.064  28.749  13.093  0.00  0.00    -0.205 F 
ATOM     19  C14 UNL     1      15.509  27.890  17.058  0.00  0.00    +0.065 A 
ATOM     20  C15 UNL     1      15.177  27.215  15.868  0.00  0.00    -0.038 A 
ATOM     21  C16 UNL     1      14.278  26.140  15.850  0.00  0.00    -0.060 A 
ATOM     22  C17 UNL     1      13.690  25.697  17.027  0.00  0.00    -0.060 A 
ATOM     23  C18 UNL     1      14.014  26.326  18.222  0.00  0.00    -0.033 A 
ATOM     24  C19 UNL     1      14.923  27.399  18.222  0.00  0.00    +0.131 A 
ATOM     25  S1  UNL     1      15.349  28.093  19.767  0.00  0.00    +0.084 S 
ATOM     26  O3  UNL     1      14.120  28.213  20.527  0.00  0.00    -0.149 OA
ATOM     27  O4  UNL     1      16.472  27.329  20.272  0.00  0.00    -0.149 OA
ATOM     28  C20 UNL     1      15.199  31.471  20.774  0.00  0.00    -0.035 A 
ATOM     29  C21 UNL     1      15.438  32.329  21.849  0.00  0.00    -0.018 A 
ENDROOT
TORSDOF 0
ENDMDL
