MODEL 1
REMARK VINA RESULT:    -3.767      0.000      0.000
REMARK INTER + INTRA:          -3.767
REMARK INTER:                  -3.767
REMARK INTRA:                   0.000
REMARK UNBOUND:                 0.000
REMARK  Name = /home/vital/Documents/PhD_2021/Malaria_codes/scripts/../data/pdbqt_ligands/ligand_362_temp.pdb
REMARK                            x       y       z     vdW  Elec       q    Type
REMARK                         _______ _______ _______ _____ _____    ______ ____
ROOT
ATOM      1  N   UNL     1      16.705  22.643  19.094  0.00  0.00    -0.327 N 
ATOM      2  C   UNL     1      16.064  22.590  17.792  0.00  0.00    +0.012 C 
ATOM      3  C   UNL     1      15.828  23.975  17.279  0.00  0.00    -0.073 C 
ATOM      4  C   UNL     1      16.376  24.464  16.152  0.00  0.00    -0.065 C 
ATOM      5  C   UNL     1      16.129  25.854  15.608  0.00  0.00    +0.062 C 
ATOM      6  C   UNL     1      15.498  25.726  14.205  0.00  0.00    +0.064 C 
ATOM      7  N   UNL     1      14.982  27.017  13.758  0.00  0.00    -0.267 N 
ATOM      8  C   UNL     1      15.840  27.926  13.452  0.00  0.00    +0.129 C 
ATOM      9  C   UNL     1      15.327  29.289  13.003  0.00  0.00    +0.026 C 
ATOM     10  C   UNL     1      15.142  30.164  14.209  0.00  0.00    -0.066 C 
ATOM     11  C   UNL     1      15.914  31.219  14.483  0.00  0.00    +0.001 C 
ATOM     12 CL   UNL     1      15.688  32.193  15.873  0.00  0.00    -0.092 Cl
ATOM     13  N   UNL     1      17.202  27.822  13.477  0.00  0.00    -0.225 NA
ATOM     14  C   UNL     1      17.821  27.280  14.466  0.00  0.00    +0.086 C 
ATOM     15  N   UNL     1      17.410  26.570  15.570  0.00  0.00    -0.311 N 
ATOM     16  C   UNL     1      18.130  26.755  16.844  0.00  0.00    +0.037 C 
ATOM     17  C   UNL     1      19.371  25.859  16.946  0.00  0.00    +0.060 C 
ATOM     18  O   UNL     1      20.445  26.382  16.167  0.00  0.00    -0.393 OA
ATOM     19  H   UNL     1      16.862  21.695  19.435  0.00  0.00    +0.000 HD
ATOM     20  H   UNL     1      16.105  23.144  19.749  0.00  0.00    +0.000 HD
ATOM     21  H   UNL     1      17.599  23.127  19.013  0.00  0.00    +0.000 HD
ATOM     22  H   UNL     1      14.013  27.185  13.693  0.00  0.00    +0.000 HD
ATOM     23  H   UNL     1      20.179  26.422  15.235  0.00  0.00    +0.000 HD
ENDROOT
TORSDOF 0
ENDMDL
MODEL 2
REMARK VINA RESULT:    -3.433      3.547      6.404
REMARK INTER + INTRA:          -3.433
REMARK INTER:                  -3.433
REMARK INTRA:                   0.000
REMARK UNBOUND:                 0.000
REMARK  Name = /home/vital/Documents/PhD_2021/Malaria_codes/scripts/../data/pdbqt_ligands/ligand_362_temp.pdb
REMARK                            x       y       z     vdW  Elec       q    Type
REMARK                         _______ _______ _______ _____ _____    ______ ____
ROOT
ATOM      1  N   UNL     1      16.112  32.596  12.899  0.00  0.00    -0.327 N 
ATOM      2  C   UNL     1      14.931  31.751  12.904  0.00  0.00    +0.012 C 
ATOM      3  C   UNL     1      15.258  30.413  13.487  0.00  0.00    -0.073 C 
ATOM      4  C   UNL     1      14.693  29.920  14.604  0.00  0.00    -0.065 C 
ATOM      5  C   UNL     1      14.996  28.560  15.194  0.00  0.00    +0.062 C 
ATOM      6  C   UNL     1      13.692  27.735  15.218  0.00  0.00    +0.064 C 
ATOM      7  N   UNL     1      13.980  26.333  15.508  0.00  0.00    -0.267 N 
ATOM      8  C   UNL     1      14.364  26.040  16.701  0.00  0.00    +0.129 C 
ATOM      9  C   UNL     1      14.691  24.587  17.024  0.00  0.00    +0.026 C 
ATOM     10  C   UNL     1      16.140  24.333  16.720  0.00  0.00    -0.066 C 
ATOM     11  C   UNL     1      17.066  24.117  17.658  0.00  0.00    +0.001 C 
ATOM     12 CL   UNL     1      18.713  23.842  17.283  0.00  0.00    -0.092 Cl
ATOM     13  N   UNL     1      14.519  26.896  17.755  0.00  0.00    -0.225 NA
ATOM     14  C   UNL     1      15.108  28.032  17.624  0.00  0.00    +0.086 C 
ATOM     15  N   UNL     1      15.550  28.753  16.539  0.00  0.00    -0.311 N 
ATOM     16  C   UNL     1      16.794  29.535  16.663  0.00  0.00    +0.037 C 
ATOM     17  C   UNL     1      16.550  30.924  17.267  0.00  0.00    +0.060 C 
ATOM     18  O   UNL     1      16.362  30.843  18.678  0.00  0.00    -0.393 OA
ATOM     19  H   UNL     1      15.879  33.504  12.500  0.00  0.00    +0.000 HD
ATOM     20  H   UNL     1      16.842  32.156  12.338  0.00  0.00    +0.000 HD
ATOM     21  H   UNL     1      16.446  32.720  13.854  0.00  0.00    +0.000 HD
ATOM     22  H   UNL     1      13.884  25.638  14.817  0.00  0.00    +0.000 HD
ATOM     23  H   UNL     1      15.588  30.290  18.870  0.00  0.00    +0.000 HD
ENDROOT
TORSDOF 0
ENDMDL
MODEL 3
REMARK VINA RESULT:    -3.407      3.473      6.268
REMARK INTER + INTRA:          -3.407
REMARK INTER:                  -3.407
REMARK INTRA:                   0.000
REMARK UNBOUND:                 0.000
REMARK  Name = /home/vital/Documents/PhD_2021/Malaria_codes/scripts/../data/pdbqt_ligands/ligand_362_temp.pdb
REMARK                            x       y       z     vdW  Elec       q    Type
REMARK                         _______ _______ _______ _____ _____    ______ ____
ROOT
ATOM      1  N   UNL     1      16.544  31.114  12.605  0.00  0.00    -0.327 N 
ATOM      2  C   UNL     1      15.690  29.978  12.304  0.00  0.00    +0.012 C 
ATOM      3  C   UNL     1      16.093  28.799  13.131  0.00  0.00    -0.073 C 
ATOM      4  C   UNL     1      15.291  28.203  14.033  0.00  0.00    -0.065 C 
ATOM      5  C   UNL     1      15.675  26.996  14.861  0.00  0.00    +0.062 C 
ATOM      6  C   UNL     1      14.699  25.846  14.533  0.00  0.00    +0.064 C 
ATOM      7  N   UNL     1      15.192  24.586  15.082  0.00  0.00    -0.267 N 
ATOM      8  C   UNL     1      15.163  24.445  16.361  0.00  0.00    +0.129 C 
ATOM      9  C   UNL     1      15.691  23.148  16.962  0.00  0.00    +0.026 C 
ATOM     10  C   UNL     1      17.163  23.291  17.220  0.00  0.00    -0.066 C 
ATOM     11  C   UNL     1      17.696  23.365  18.442  0.00  0.00    +0.001 C 
ATOM     12 CL   UNL     1      19.378  23.541  18.708  0.00  0.00    -0.092 Cl
ATOM     13  N   UNL     1      14.702  25.341  17.284  0.00  0.00    -0.225 NA
ATOM     14  C   UNL     1      15.000  26.590  17.223  0.00  0.00    +0.086 C 
ATOM     15  N   UNL     1      15.624  27.373  16.278  0.00  0.00    -0.311 N 
ATOM     16  C   UNL     1      16.501  28.469  16.729  0.00  0.00    +0.037 C 
ATOM     17  C   UNL     1      15.719  29.755  17.026  0.00  0.00    +0.060 C 
ATOM     18  O   UNL     1      15.045  29.667  18.279  0.00  0.00    -0.393 OA
ATOM     19  H   UNL     1      16.262  31.912  12.036  0.00  0.00    +0.000 HD
ATOM     20  H   UNL     1      17.513  30.875  12.397  0.00  0.00    +0.000 HD
ATOM     21  H   UNL     1      16.457  31.352  13.593  0.00  0.00    +0.000 HD
ATOM     22  H   UNL     1      15.533  23.872  14.497  0.00  0.00    +0.000 HD
ATOM     23  H   UNL     1      14.415  28.930  18.256  0.00  0.00    +0.000 HD
ENDROOT
TORSDOF 0
ENDMDL
MODEL 4
REMARK VINA RESULT:    -3.387     21.657     23.496
REMARK INTER + INTRA:          -3.387
REMARK INTER:                  -3.387
REMARK INTRA:                   0.000
REMARK UNBOUND:                 0.000
REMARK  Name = /home/vital/Documents/PhD_2021/Malaria_codes/scripts/../data/pdbqt_ligands/ligand_362_temp.pdb
REMARK                            x       y       z     vdW  Elec       q    Type
REMARK                         _______ _______ _______ _____ _____    ______ ____
ROOT
ATOM      1  N   UNL     1      17.999  44.638  35.003  0.00  0.00    -0.327 N 
ATOM      2  C   UNL     1      16.789  45.400  34.746  0.00  0.00    +0.012 C 
ATOM      3  C   UNL     1      16.631  45.635  33.277  0.00  0.00    -0.073 C 
ATOM      4  C   UNL     1      15.597  45.177  32.549  0.00  0.00    -0.065 C 
ATOM      5  C   UNL     1      15.412  45.425  31.067  0.00  0.00    +0.062 C 
ATOM      6  C   UNL     1      14.087  46.189  30.861  0.00  0.00    +0.064 C 
ATOM      7  N   UNL     1      14.000  46.699  29.495  0.00  0.00    -0.267 N 
ATOM      8  C   UNL     1      13.826  45.842  28.551  0.00  0.00    +0.129 C 
ATOM      9  C   UNL     1      13.753  46.346  27.115  0.00  0.00    +0.026 C 
ATOM     10  C   UNL     1      15.139  46.386  26.539  0.00  0.00    -0.066 C 
ATOM     11  C   UNL     1      15.568  45.556  25.585  0.00  0.00    +0.001 C 
ATOM     12 CL   UNL     1      17.159  45.616  24.955  0.00  0.00    -0.092 Cl
ATOM     13  N   UNL     1      13.691  44.487  28.675  0.00  0.00    -0.225 NA
ATOM     14  C   UNL     1      14.464  43.798  29.439  0.00  0.00    +0.086 C 
ATOM     15  N   UNL     1      15.412  44.128  30.379  0.00  0.00    -0.311 N 
ATOM     16  C   UNL     1      16.617  43.287  30.502  0.00  0.00    +0.037 C 
ATOM     17  C   UNL     1      16.388  42.073  31.412  0.00  0.00    +0.060 C 
ATOM     18  O   UNL     1      15.646  41.059  30.738  0.00  0.00    -0.393 OA
ATOM     19  H   UNL     1      18.097  44.484  36.006  0.00  0.00    +0.000 HD
ATOM     20  H   UNL     1      18.807  45.157  34.659  0.00  0.00    +0.000 HD
ATOM     21  H   UNL     1      17.942  43.739  34.525  0.00  0.00    +0.000 HD
ATOM     22  H   UNL     1      14.071  47.662  29.304  0.00  0.00    +0.000 HD
ATOM     23  H   UNL     1      14.780  41.410  30.480  0.00  0.00    +0.000 HD
ENDROOT
TORSDOF 0
ENDMDL
MODEL 5
REMARK VINA RESULT:    -3.272      3.549      5.873
REMARK INTER + INTRA:          -3.272
REMARK INTER:                  -3.272
REMARK INTRA:                   0.000
REMARK UNBOUND:                 0.000
REMARK  Name = /home/vital/Documents/PhD_2021/Malaria_codes/scripts/../data/pdbqt_ligands/ligand_362_temp.pdb
REMARK                            x       y       z     vdW  Elec       q    Type
REMARK                         _______ _______ _______ _____ _____    ______ ____
ROOT
ATOM      1  N   UNL     1      20.347  30.551  12.738  0.00  0.00    -0.327 N 
ATOM      2  C   UNL     1      19.737  29.261  12.466  0.00  0.00    +0.012 C 
ATOM      3  C   UNL     1      18.917  28.822  13.637  0.00  0.00    -0.073 C 
ATOM      4  C   UNL     1      17.588  28.615  13.590  0.00  0.00    -0.065 C 
ATOM      5  C   UNL     1      16.748  28.150  14.760  0.00  0.00    +0.062 C 
ATOM      6  C   UNL     1      16.089  26.806  14.385  0.00  0.00    +0.064 C 
ATOM      7  N   UNL     1      15.504  26.177  15.566  0.00  0.00    -0.267 N 
ATOM      8  C   UNL     1      14.453  26.722  16.070  0.00  0.00    +0.129 C 
ATOM      9  C   UNL     1      13.835  26.099  17.315  0.00  0.00    +0.026 C 
ATOM     10  C   UNL     1      14.476  26.701  18.533  0.00  0.00    -0.066 C 
ATOM     11  C   UNL     1      13.843  27.526  19.371  0.00  0.00    +0.001 C 
ATOM     12 CL   UNL     1      14.601  28.207  20.746  0.00  0.00    -0.092 Cl
ATOM     13  N   UNL     1      13.794  27.829  15.613  0.00  0.00    -0.225 NA
ATOM     14  C   UNL     1      14.423  28.891  15.253  0.00  0.00    +0.086 C 
ATOM     15  N   UNL     1      15.752  29.187  15.054  0.00  0.00    -0.311 N 
ATOM     16  C   UNL     1      16.245  30.528  15.417  0.00  0.00    +0.037 C 
ATOM     17  C   UNL     1      16.029  31.551  14.295  0.00  0.00    +0.060 C 
ATOM     18  O   UNL     1      14.668  31.974  14.242  0.00  0.00    -0.393 OA
ATOM     19  H   UNL     1      20.903  30.841  11.934  0.00  0.00    +0.000 HD
ATOM     20  H   UNL     1      20.948  30.477  13.558  0.00  0.00    +0.000 HD
ATOM     21  H   UNL     1      19.617  31.242  12.913  0.00  0.00    +0.000 HD
ATOM     22  H   UNL     1      15.900  25.367  15.963  0.00  0.00    +0.000 HD
ATOM     23  H   UNL     1      14.098  31.209  14.067  0.00  0.00    +0.000 HD
ENDROOT
TORSDOF 0
ENDMDL
MODEL 6
REMARK VINA RESULT:    -2.988      4.127      4.546
REMARK INTER + INTRA:          -2.988
REMARK INTER:                  -2.988
REMARK INTRA:                   0.000
REMARK UNBOUND:                 0.000
REMARK  Name = /home/vital/Documents/PhD_2021/Malaria_codes/scripts/../data/pdbqt_ligands/ligand_362_temp.pdb
REMARK                            x       y       z     vdW  Elec       q    Type
REMARK                         _______ _______ _______ _____ _____    ______ ____
ROOT
ATOM      1  N   UNL     1      14.305  29.742  23.123  0.00  0.00    -0.327 N 
ATOM      2  C   UNL     1      13.690  28.584  22.498  0.00  0.00    +0.012 C 
ATOM      3  C   UNL     1      13.796  28.687  21.009  0.00  0.00    -0.073 C 
ATOM      4  C   UNL     1      14.463  27.807  20.240  0.00  0.00    -0.065 C 
ATOM      5  C   UNL     1      14.560  27.884  18.731  0.00  0.00    +0.062 C 
ATOM      6  C   UNL     1      13.939  26.604  18.135  0.00  0.00    +0.064 C 
ATOM      7  N   UNL     1      13.750  26.752  16.694  0.00  0.00    -0.267 N 
ATOM      8  C   UNL     1      14.803  26.764  15.955  0.00  0.00    +0.129 C 
ATOM      9  C   UNL     1      14.634  26.939  14.451  0.00  0.00    +0.026 C 
ATOM     10  C   UNL     1      14.642  28.405  14.124  0.00  0.00    -0.066 C 
ATOM     11  C   UNL     1      15.637  29.013  13.472  0.00  0.00    +0.001 C 
ATOM     12 CL   UNL     1      15.625  30.689  13.124  0.00  0.00    -0.092 Cl
ATOM     13  N   UNL     1      16.102  26.635  16.360  0.00  0.00    -0.225 NA
ATOM     14  C   UNL     1      16.560  27.271  17.380  0.00  0.00    +0.086 C 
ATOM     15  N   UNL     1      15.975  28.030  18.367  0.00  0.00    -0.311 N 
ATOM     16  C   UNL     1      16.697  29.209  18.881  0.00  0.00    +0.037 C 
ATOM     17  C   UNL     1      17.690  28.844  19.992  0.00  0.00    +0.060 C 
ATOM     18  O   UNL     1      18.869  28.252  19.451  0.00  0.00    -0.393 OA
ATOM     19  H   UNL     1      14.227  29.662  24.136  0.00  0.00    +0.000 HD
ATOM     20  H   UNL     1      13.830  30.589  22.811  0.00  0.00    +0.000 HD
ATOM     21  H   UNL     1      15.289  29.788  22.860  0.00  0.00    +0.000 HD
ATOM     22  H   UNL     1      12.850  26.839  16.303  0.00  0.00    +0.000 HD
ATOM     23  H   UNL     1      18.635  27.439  18.977  0.00  0.00    +0.000 HD
ENDROOT
TORSDOF 0
ENDMDL
