MODEL 1
REMARK VINA RESULT:    -3.859      0.000      0.000
REMARK INTER + INTRA:          -3.859
REMARK INTER:                  -3.859
REMARK INTRA:                   0.000
REMARK UNBOUND:                 0.000
REMARK  Name = /home/vital/Documents/PhD_2021/Malaria_codes/scripts/../data/pdbqt_ligands/ligand_55_temp.pdb
REMARK                            x       y       z     vdW  Elec       q    Type
REMARK                         _______ _______ _______ _____ _____    ______ ____
ROOT
ATOM      1  C   UNL     1      16.130  28.448  14.251  0.00  0.00    -0.061 C 
ATOM      2  C   UNL     1      14.659  28.041  14.156  0.00  0.00    -0.027 C 
ATOM      3  C   UNL     1      13.873  28.583  15.351  0.00  0.00    -0.061 C 
ATOM      4  C   UNL     1      14.494  26.520  14.002  0.00  0.00    +0.046 C 
ATOM      5  N   UNL     1      15.046  25.833  15.162  0.00  0.00    -0.252 N 
ATOM      6  C   UNL     1      15.076  24.553  15.209  0.00  0.00    +0.195 C 
ATOM      7  N   UNL     1      14.598  23.707  14.247  0.00  0.00    -0.370 N 
ATOM      8  N   UNL     1      15.599  23.796  16.223  0.00  0.00    -0.326 N 
ATOM      9  C   UNL     1      16.180  24.217  17.438  0.00  0.00    +0.045 A 
ATOM     10  C   UNL     1      15.985  25.485  17.997  0.00  0.00    -0.038 A 
ATOM     11  C   UNL     1      16.547  25.831  19.231  0.00  0.00    -0.056 A 
ATOM     12  C   UNL     1      17.302  24.903  19.943  0.00  0.00    -0.020 A 
ATOM     13  C   UNL     1      17.479  23.632  19.413  0.00  0.00    +0.119 A 
ATOM     14  O   UNL     1      18.198  22.681  20.075  0.00  0.00    -0.507 OA
ATOM     15  C   UNL     1      16.921  23.285  18.184  0.00  0.00    +0.003 A 
ATOM     16  H   UNL     1      15.400  26.357  15.917  0.00  0.00    +0.000 HD
ATOM     17  H   UNL     1      14.181  24.073  13.434  0.00  0.00    +0.000 HD
ATOM     18  H   UNL     1      14.671  22.733  14.369  0.00  0.00    +0.000 HD
ATOM     19  H   UNL     1      15.566  22.821  16.085  0.00  0.00    +0.000 HD
ATOM     20  H   UNL     1      18.587  22.880  20.904  0.00  0.00    +0.000 HD
ENDROOT
TORSDOF 0
ENDMDL
MODEL 2
REMARK VINA RESULT:    -3.733      3.592      6.474
REMARK INTER + INTRA:          -3.733
REMARK INTER:                  -3.733
REMARK INTRA:                   0.000
REMARK UNBOUND:                 0.000
REMARK  Name = /home/vital/Documents/PhD_2021/Malaria_codes/scripts/../data/pdbqt_ligands/ligand_55_temp.pdb
REMARK                            x       y       z     vdW  Elec       q    Type
REMARK                         _______ _______ _______ _____ _____    ______ ____
ROOT
ATOM      1  C   UNL     1      17.730  24.809  17.240  0.00  0.00    -0.061 C 
ATOM      2  C   UNL     1      16.348  24.196  17.473  0.00  0.00    -0.027 C 
ATOM      3  C   UNL     1      15.861  23.474  16.216  0.00  0.00    -0.061 C 
ATOM      4  C   UNL     1      15.333  25.242  17.964  0.00  0.00    +0.046 C 
ATOM      5  N   UNL     1      15.166  26.289  16.965  0.00  0.00    -0.252 N 
ATOM      6  C   UNL     1      14.415  27.301  17.200  0.00  0.00    +0.195 C 
ATOM      7  N   UNL     1      13.691  27.510  18.340  0.00  0.00    -0.370 N 
ATOM      8  N   UNL     1      14.207  28.362  16.361  0.00  0.00    -0.326 N 
ATOM      9  C   UNL     1      14.716  28.582  15.063  0.00  0.00    +0.045 A 
ATOM     10  C   UNL     1      15.233  27.570  14.246  0.00  0.00    -0.038 A 
ATOM     11  C   UNL     1      15.680  27.839  12.947  0.00  0.00    -0.056 A 
ATOM     12  C   UNL     1      15.600  29.130  12.431  0.00  0.00    -0.020 A 
ATOM     13  C   UNL     1      15.064  30.137  13.222  0.00  0.00    +0.119 A 
ATOM     14  O   UNL     1      14.950  31.417  12.761  0.00  0.00    -0.507 OA
ATOM     15  C   UNL     1      14.619  29.872  14.516  0.00  0.00    +0.003 A 
ATOM     16  H   UNL     1      15.634  26.220  16.102  0.00  0.00    +0.000 HD
ATOM     17  H   UNL     1      13.715  26.846  19.067  0.00  0.00    +0.000 HD
ATOM     18  H   UNL     1      13.145  28.324  18.434  0.00  0.00    +0.000 HD
ATOM     19  H   UNL     1      13.620  29.071  16.711  0.00  0.00    +0.000 HD
ATOM     20  H   UNL     1      15.240  31.630  11.896  0.00  0.00    +0.000 HD
ENDROOT
TORSDOF 0
ENDMDL
MODEL 3
REMARK VINA RESULT:    -3.680      3.312      4.746
REMARK INTER + INTRA:          -3.680
REMARK INTER:                  -3.680
REMARK INTRA:                   0.000
REMARK UNBOUND:                 0.000
REMARK  Name = /home/vital/Documents/PhD_2021/Malaria_codes/scripts/../data/pdbqt_ligands/ligand_55_temp.pdb
REMARK                            x       y       z     vdW  Elec       q    Type
REMARK                         _______ _______ _______ _____ _____    ______ ____
ROOT
ATOM      1  C   UNL     1      17.818  30.651  17.235  0.00  0.00    -0.061 C 
ATOM      2  C   UNL     1      16.506  31.430  17.131  0.00  0.00    -0.027 C 
ATOM      3  C   UNL     1      15.576  31.075  18.292  0.00  0.00    -0.061 C 
ATOM      4  C   UNL     1      15.825  31.226  15.767  0.00  0.00    +0.046 C 
ATOM      5  N   UNL     1      15.496  29.819  15.574  0.00  0.00    -0.252 N 
ATOM      6  C   UNL     1      14.983  29.415  14.472  0.00  0.00    +0.195 C 
ATOM      7  N   UNL     1      14.669  30.204  13.401  0.00  0.00    -0.370 N 
ATOM      8  N   UNL     1      14.665  28.121  14.158  0.00  0.00    -0.326 N 
ATOM      9  C   UNL     1      14.782  26.959  14.951  0.00  0.00    +0.045 A 
ATOM     10  C   UNL     1      14.898  26.976  16.346  0.00  0.00    -0.038 A 
ATOM     11  C   UNL     1      14.961  25.789  17.085  0.00  0.00    -0.056 A 
ATOM     12  C   UNL     1      14.891  24.557  16.442  0.00  0.00    -0.020 A 
ATOM     13  C   UNL     1      14.748  24.527  15.061  0.00  0.00    +0.119 A 
ATOM     14  O   UNL     1      14.661  23.347  14.382  0.00  0.00    -0.507 OA
ATOM     15  C   UNL     1      14.686  25.707  14.322  0.00  0.00    +0.003 A 
ATOM     16  H   UNL     1      15.669  29.174  16.297  0.00  0.00    +0.000 HD
ATOM     17  H   UNL     1      14.829  31.174  13.440  0.00  0.00    +0.000 HD
ATOM     18  H   UNL     1      14.282  29.801  12.590  0.00  0.00    +0.000 HD
ATOM     19  H   UNL     1      14.304  27.981  13.252  0.00  0.00    +0.000 HD
ATOM     20  H   UNL     1      14.700  22.535  14.847  0.00  0.00    +0.000 HD
ENDROOT
TORSDOF 0
ENDMDL
MODEL 4
REMARK VINA RESULT:    -3.484      3.305      5.933
REMARK INTER + INTRA:          -3.484
REMARK INTER:                  -3.484
REMARK INTRA:                   0.000
REMARK UNBOUND:                 0.000
REMARK  Name = /home/vital/Documents/PhD_2021/Malaria_codes/scripts/../data/pdbqt_ligands/ligand_55_temp.pdb
REMARK                            x       y       z     vdW  Elec       q    Type
REMARK                         _______ _______ _______ _____ _____    ______ ____
ROOT
ATOM      1  C   UNL     1      16.681  24.965  18.750  0.00  0.00    -0.061 C 
ATOM      2  C   UNL     1      17.381  24.199  17.626  0.00  0.00    -0.027 C 
ATOM      3  C   UNL     1      18.726  24.845  17.292  0.00  0.00    -0.061 C 
ATOM      4  C   UNL     1      16.485  24.062  16.384  0.00  0.00    +0.046 C 
ATOM      5  N   UNL     1      16.154  25.378  15.853  0.00  0.00    -0.252 N 
ATOM      6  C   UNL     1      15.358  25.497  14.856  0.00  0.00    +0.195 C 
ATOM      7  N   UNL     1      14.768  24.468  14.178  0.00  0.00    -0.370 N 
ATOM      8  N   UNL     1      14.943  26.674  14.293  0.00  0.00    -0.326 N 
ATOM      9  C   UNL     1      15.303  27.997  14.630  0.00  0.00    +0.045 A 
ATOM     10  C   UNL     1      16.446  28.330  15.367  0.00  0.00    -0.038 A 
ATOM     11  C   UNL     1      16.779  29.664  15.630  0.00  0.00    -0.056 A 
ATOM     12  C   UNL     1      15.981  30.696  15.143  0.00  0.00    -0.020 A 
ATOM     13  C   UNL     1      14.860  30.379  14.388  0.00  0.00    +0.119 A 
ATOM     14  O   UNL     1      14.052  31.351  13.876  0.00  0.00    -0.507 OA
ATOM     15  C   UNL     1      14.526  29.052  14.125  0.00  0.00    +0.003 A 
ATOM     16  H   UNL     1      16.544  26.182  16.264  0.00  0.00    +0.000 HD
ATOM     17  H   UNL     1      14.948  23.537  14.442  0.00  0.00    +0.000 HD
ATOM     18  H   UNL     1      14.162  24.658  13.425  0.00  0.00    +0.000 HD
ATOM     19  H   UNL     1      14.305  26.586  13.548  0.00  0.00    +0.000 HD
ATOM     20  H   UNL     1      14.247  32.254  14.034  0.00  0.00    +0.000 HD
ENDROOT
TORSDOF 0
ENDMDL
MODEL 5
REMARK VINA RESULT:    -3.443      3.232      4.648
REMARK INTER + INTRA:          -3.443
REMARK INTER:                  -3.443
REMARK INTRA:                   0.000
REMARK UNBOUND:                 0.000
REMARK  Name = /home/vital/Documents/PhD_2021/Malaria_codes/scripts/../data/pdbqt_ligands/ligand_55_temp.pdb
REMARK                            x       y       z     vdW  Elec       q    Type
REMARK                         _______ _______ _______ _____ _____    ______ ____
ROOT
ATOM      1  C   UNL     1      15.817  32.102  15.467  0.00  0.00    -0.061 C 
ATOM      2  C   UNL     1      16.030  32.059  13.953  0.00  0.00    -0.027 C 
ATOM      3  C   UNL     1      14.705  31.811  13.231  0.00  0.00    -0.061 C 
ATOM      4  C   UNL     1      17.102  31.031  13.555  0.00  0.00    +0.046 C 
ATOM      5  N   UNL     1      16.692  29.693  13.961  0.00  0.00    -0.252 N 
ATOM      6  C   UNL     1      17.472  28.691  13.787  0.00  0.00    +0.195 C 
ATOM      7  N   UNL     1      18.709  28.733  13.208  0.00  0.00    -0.370 N 
ATOM      8  N   UNL     1      17.217  27.398  14.158  0.00  0.00    -0.326 N 
ATOM      9  C   UNL     1      16.063  26.858  14.765  0.00  0.00    +0.045 A 
ATOM     10  C   UNL     1      14.812  27.486  14.758  0.00  0.00    -0.038 A 
ATOM     11  C   UNL     1      13.690  26.880  15.334  0.00  0.00    -0.056 A 
ATOM     12  C   UNL     1      13.794  25.618  15.914  0.00  0.00    -0.020 A 
ATOM     13  C   UNL     1      15.023  24.973  15.903  0.00  0.00    +0.119 A 
ATOM     14  O   UNL     1      15.177  23.731  16.445  0.00  0.00    -0.507 OA
ATOM     15  C   UNL     1      16.142  25.574  15.330  0.00  0.00    +0.003 A 
ATOM     16  H   UNL     1      15.808  29.557  14.373  0.00  0.00    +0.000 HD
ATOM     17  H   UNL     1      19.068  29.588  12.876  0.00  0.00    +0.000 HD
ATOM     18  H   UNL     1      19.241  27.909  13.124  0.00  0.00    +0.000 HD
ATOM     19  H   UNL     1      17.940  26.754  13.975  0.00  0.00    +0.000 HD
ATOM     20  H   UNL     1      14.446  23.297  16.839  0.00  0.00    +0.000 HD
ENDROOT
TORSDOF 0
ENDMDL
MODEL 6
REMARK VINA RESULT:    -3.375      3.362      3.877
REMARK INTER + INTRA:          -3.375
REMARK INTER:                  -3.375
REMARK INTRA:                   0.000
REMARK UNBOUND:                 0.000
REMARK  Name = /home/vital/Documents/PhD_2021/Malaria_codes/scripts/../data/pdbqt_ligands/ligand_55_temp.pdb
REMARK                            x       y       z     vdW  Elec       q    Type
REMARK                         _______ _______ _______ _____ _____    ______ ____
ROOT
ATOM      1  C   UNL     1      17.668  29.080  13.399  0.00  0.00    -0.061 C 
ATOM      2  C   UNL     1      16.317  29.282  12.711  0.00  0.00    -0.027 C 
ATOM      3  C   UNL     1      15.744  30.660  13.044  0.00  0.00    -0.061 C 
ATOM      4  C   UNL     1      15.330  28.152  13.047  0.00  0.00    +0.046 C 
ATOM      5  N   UNL     1      15.071  28.119  14.481  0.00  0.00    -0.252 N 
ATOM      6  C   UNL     1      14.326  27.207  14.988  0.00  0.00    +0.195 C 
ATOM      7  N   UNL     1      13.691  26.217  14.293  0.00  0.00    -0.370 N 
ATOM      8  N   UNL     1      14.039  27.049  16.317  0.00  0.00    -0.326 N 
ATOM      9  C   UNL     1      14.443  27.840  17.414  0.00  0.00    +0.045 A 
ATOM     10  C   UNL     1      14.908  29.155  17.298  0.00  0.00    -0.038 A 
ATOM     11  C   UNL     1      15.248  29.910  18.427  0.00  0.00    -0.056 A 
ATOM     12  C   UNL     1      15.111  29.367  19.701  0.00  0.00    -0.020 A 
ATOM     13  C   UNL     1      14.625  28.073  19.831  0.00  0.00    +0.119 A 
ATOM     14  O   UNL     1      14.458  27.497  21.057  0.00  0.00    -0.507 OA
ATOM     15  C   UNL     1      14.286  27.319  18.709  0.00  0.00    +0.003 A 
ATOM     16  H   UNL     1      15.471  28.803  15.065  0.00  0.00    +0.000 HD
ATOM     17  H   UNL     1      13.781  26.167  13.314  0.00  0.00    +0.000 HD
ATOM     18  H   UNL     1      13.142  25.554  14.772  0.00  0.00    +0.000 HD
ATOM     19  H   UNL     1      13.472  26.276  16.539  0.00  0.00    +0.000 HD
ATOM     20  H   UNL     1      14.676  27.975  21.832  0.00  0.00    +0.000 HD
ENDROOT
TORSDOF 0
ENDMDL
MODEL 7
REMARK VINA RESULT:    -3.336      3.046      4.576
REMARK INTER + INTRA:          -3.336
REMARK INTER:                  -3.336
REMARK INTRA:                   0.000
REMARK UNBOUND:                 0.000
REMARK  Name = /home/vital/Documents/PhD_2021/Malaria_codes/scripts/../data/pdbqt_ligands/ligand_55_temp.pdb
REMARK                            x       y       z     vdW  Elec       q    Type
REMARK                         _______ _______ _______ _____ _____    ______ ____
ROOT
ATOM      1  C   UNL     1      14.692  31.103  13.354  0.00  0.00    -0.061 C 
ATOM      2  C   UNL     1      16.209  31.300  13.352  0.00  0.00    -0.027 C 
ATOM      3  C   UNL     1      16.857  30.480  12.236  0.00  0.00    -0.061 C 
ATOM      4  C   UNL     1      16.828  30.990  14.725  0.00  0.00    +0.046 C 
ATOM      5  N   UNL     1      16.585  29.599  15.085  0.00  0.00    -0.252 N 
ATOM      6  C   UNL     1      16.956  29.146  16.225  0.00  0.00    +0.195 C 
ATOM      7  N   UNL     1      17.616  29.854  17.190  0.00  0.00    -0.370 N 
ATOM      8  N   UNL     1      16.753  27.874  16.691  0.00  0.00    -0.326 N 
ATOM      9  C   UNL     1      16.143  26.778  16.046  0.00  0.00    +0.045 A 
ATOM     10  C   UNL     1      15.966  26.688  14.660  0.00  0.00    -0.038 A 
ATOM     11  C   UNL     1      15.398  25.553  14.071  0.00  0.00    -0.056 A 
ATOM     12  C   UNL     1      15.011  24.472  14.859  0.00  0.00    -0.020 A 
ATOM     13  C   UNL     1      15.206  24.538  16.231  0.00  0.00    +0.119 A 
ATOM     14  O   UNL     1      14.857  23.502  17.048  0.00  0.00    -0.507 OA
ATOM     15  C   UNL     1      15.771  25.667  16.821  0.00  0.00    +0.003 A 
ATOM     16  H   UNL     1      16.131  29.002  14.448  0.00  0.00    +0.000 HD
ATOM     17  H   UNL     1      17.850  30.798  17.034  0.00  0.00    +0.000 HD
ATOM     18  H   UNL     1      17.856  29.421  18.041  0.00  0.00    +0.000 HD
ATOM     19  H   UNL     1      17.079  27.701  17.604  0.00  0.00    +0.000 HD
ATOM     20  H   UNL     1      14.474  22.728  16.685  0.00  0.00    +0.000 HD
ENDROOT
TORSDOF 0
ENDMDL
