MODEL 1
REMARK VINA RESULT:    -2.468      0.000      0.000
REMARK INTER + INTRA:          -2.468
REMARK INTER:                  -2.468
REMARK INTRA:                   0.000
REMARK UNBOUND:                 0.000
REMARK  Name = /home/vital/Documents/PhD_2021/Malaria_codes/scripts/../data/pdbqt_ligands/ligand_269_temp.pdb
REMARK                            x       y       z     vdW  Elec       q    Type
REMARK                         _______ _______ _______ _____ _____    ______ ____
ROOT
ATOM      1  C1  UNL     1      19.414  42.193  17.083  0.00  0.00    +0.079 C 
ATOM      2  O1  UNL     1      18.753  42.347  15.835  0.00  0.00    -0.491 OA
ATOM      3  C2  UNL     1      17.679  41.532  15.574  0.00  0.00    +0.164 A 
ATOM      4  C3  UNL     1      17.188  40.563  16.457  0.00  0.00    +0.010 A 
ATOM      5  C4  UNL     1      16.096  39.763  16.140  0.00  0.00    +0.081 A 
ATOM      6  N1  UNL     1      15.674  38.865  17.034  0.00  0.00    -0.222 NA
ATOM      7  C5  UNL     1      14.613  38.114  16.704  0.00  0.00    +0.190 A 
ATOM      8  S1  UNL     1      14.020  36.905  17.864  0.00  0.00    -0.089 S 
ATOM      9  C6  UNL     1      14.935  37.399  19.344  0.00  0.00    -0.011 C 
ATOM     10  N2  UNL     1      13.958  38.183  15.540  0.00  0.00    -0.207 NA
ATOM     11  C7  UNL     1      14.402  39.078  14.652  0.00  0.00    +0.128 A 
ATOM     12  N3  UNL     1      13.693  39.111  13.445  0.00  0.00    -0.343 N 
ATOM     13  C8  UNL     1      15.483  39.931  14.897  0.00  0.00    +0.044 A 
ATOM     14  C9  UNL     1      15.961  40.915  13.996  0.00  0.00    -0.004 A 
ATOM     15  C10 UNL     1      17.053  41.716  14.329  0.00  0.00    +0.162 A 
ATOM     16  O2  UNL     1      17.583  42.687  13.519  0.00  0.00    -0.491 OA
ATOM     17  C11 UNL     1      16.902  42.982  12.309  0.00  0.00    +0.079 C 
ATOM     18  H   UNL     1      12.937  38.498  13.300  0.00  0.00    +0.000 HD
ATOM     19  H   UNL     1      13.952  39.748  12.740  0.00  0.00    +0.000 HD
ENDROOT
TORSDOF 0
ENDMDL
MODEL 2
REMARK VINA RESULT:    -2.438     21.767     24.372
REMARK INTER + INTRA:          -2.438
REMARK INTER:                  -2.438
REMARK INTRA:                   0.000
REMARK UNBOUND:                 0.000
REMARK  Name = /home/vital/Documents/PhD_2021/Malaria_codes/scripts/../data/pdbqt_ligands/ligand_269_temp.pdb
REMARK                            x       y       z     vdW  Elec       q    Type
REMARK                         _______ _______ _______ _____ _____    ______ ____
ROOT
ATOM      1  C1  UNL     1      36.613  46.648  25.694  0.00  0.00    +0.079 C 
ATOM      2  O1  UNL     1      35.243  46.856  26.007  0.00  0.00    -0.491 OA
ATOM      3  C2  UNL     1      34.865  46.769  27.324  0.00  0.00    +0.164 A 
ATOM      4  C3  UNL     1      35.741  46.494  28.381  0.00  0.00    +0.010 A 
ATOM      5  C4  UNL     1      35.303  46.417  29.698  0.00  0.00    +0.081 A 
ATOM      6  N1  UNL     1      36.195  46.161  30.660  0.00  0.00    -0.222 NA
ATOM      7  C5  UNL     1      35.746  46.101  31.922  0.00  0.00    +0.190 A 
ATOM      8  S1  UNL     1      36.899  45.761  33.231  0.00  0.00    -0.089 S 
ATOM      9  C6  UNL     1      38.463  45.972  32.348  0.00  0.00    -0.011 C 
ATOM     10  N2  UNL     1      34.469  46.258  32.289  0.00  0.00    -0.207 NA
ATOM     11  C7  UNL     1      33.589  46.499  31.312  0.00  0.00    +0.128 A 
ATOM     12  N3  UNL     1      32.263  46.650  31.739  0.00  0.00    -0.343 N 
ATOM     13  C8  UNL     1      33.946  46.609  29.965  0.00  0.00    +0.044 A 
ATOM     14  C9  UNL     1      33.049  46.898  28.907  0.00  0.00    -0.004 A 
ATOM     15  C10 UNL     1      33.502  46.981  27.591  0.00  0.00    +0.162 A 
ATOM     16  O2  UNL     1      32.705  47.251  26.508  0.00  0.00    -0.491 OA
ATOM     17  C11 UNL     1      31.348  47.590  26.755  0.00  0.00    +0.079 C 
ATOM     18  H   UNL     1      32.040  46.567  32.695  0.00  0.00    +0.000 HD
ATOM     19  H   UNL     1      31.553  46.838  31.083  0.00  0.00    +0.000 HD
ENDROOT
TORSDOF 0
ENDMDL
MODEL 3
REMARK VINA RESULT:    -2.379     21.469     24.028
REMARK INTER + INTRA:          -2.379
REMARK INTER:                  -2.379
REMARK INTRA:                   0.000
REMARK UNBOUND:                 0.000
REMARK  Name = /home/vital/Documents/PhD_2021/Malaria_codes/scripts/../data/pdbqt_ligands/ligand_269_temp.pdb
REMARK                            x       y       z     vdW  Elec       q    Type
REMARK                         _______ _______ _______ _____ _____    ______ ____
ROOT
ATOM      1  C1  UNL     1      31.143  47.299  26.626  0.00  0.00    +0.079 C 
ATOM      2  O1  UNL     1      32.526  47.133  26.350  0.00  0.00    -0.491 OA
ATOM      3  C2  UNL     1      33.372  46.927  27.412  0.00  0.00    +0.164 A 
ATOM      4  C3  UNL     1      32.962  46.865  28.749  0.00  0.00    +0.010 A 
ATOM      5  C4  UNL     1      33.863  46.655  29.787  0.00  0.00    +0.081 A 
ATOM      6  N1  UNL     1      33.401  46.596  31.039  0.00  0.00    -0.222 NA
ATOM      7  C5  UNL     1      34.292  46.383  32.018  0.00  0.00    +0.190 A 
ATOM      8  S1  UNL     1      33.720  46.300  33.700  0.00  0.00    -0.089 S 
ATOM      9  C6  UNL     1      31.936  46.185  33.429  0.00  0.00    -0.011 C 
ATOM     10  N2  UNL     1      35.611  46.246  31.839  0.00  0.00    -0.207 NA
ATOM     11  C7  UNL     1      36.056  46.321  30.581  0.00  0.00    +0.128 A 
ATOM     12  N3  UNL     1      37.442  46.180  30.438  0.00  0.00    -0.343 N 
ATOM     13  C8  UNL     1      35.217  46.514  29.478  0.00  0.00    +0.044 A 
ATOM     14  C9  UNL     1      35.647  46.564  28.130  0.00  0.00    -0.004 A 
ATOM     15  C10 UNL     1      34.732  46.768  27.097  0.00  0.00    +0.162 A 
ATOM     16  O2  UNL     1      35.060  46.834  25.767  0.00  0.00    -0.491 OA
ATOM     17  C11 UNL     1      36.404  46.557  25.403  0.00  0.00    +0.079 C 
ATOM     18  H   UNL     1      38.008  46.046  31.232  0.00  0.00    +0.000 HD
ATOM     19  H   UNL     1      37.851  46.215  29.543  0.00  0.00    +0.000 HD
ENDROOT
TORSDOF 0
ENDMDL
MODEL 4
REMARK VINA RESULT:    -2.364     16.715     18.804
REMARK INTER + INTRA:          -2.364
REMARK INTER:                  -2.364
REMARK INTRA:                   0.000
REMARK UNBOUND:                 0.000
REMARK  Name = /home/vital/Documents/PhD_2021/Malaria_codes/scripts/../data/pdbqt_ligands/ligand_269_temp.pdb
REMARK                            x       y       z     vdW  Elec       q    Type
REMARK                         _______ _______ _______ _____ _____    ______ ____
ROOT
ATOM      1  C1  UNL     1      20.340  45.711  32.014  0.00  0.00    +0.079 C 
ATOM      2  O1  UNL     1      19.727  46.053  33.249  0.00  0.00    -0.491 OA
ATOM      3  C2  UNL     1      18.458  45.586  33.487  0.00  0.00    +0.164 A 
ATOM      4  C3  UNL     1      17.728  44.790  32.595  0.00  0.00    +0.010 A 
ATOM      5  C4  UNL     1      16.444  44.345  32.886  0.00  0.00    +0.081 A 
ATOM      6  N1  UNL     1      15.809  43.579  31.994  0.00  0.00    -0.222 NA
ATOM      7  C5  UNL     1      14.576  43.157  32.307  0.00  0.00    +0.190 A 
ATOM      8  S1  UNL     1      13.694  42.139  31.146  0.00  0.00    -0.089 S 
ATOM      9  C6  UNL     1      15.032  41.720  30.003  0.00  0.00    -0.011 C 
ATOM     10  N2  UNL     1      13.924  43.461  33.435  0.00  0.00    -0.207 NA
ATOM     11  C7  UNL     1      14.569  44.239  34.310  0.00  0.00    +0.128 A 
ATOM     12  N3  UNL     1      13.850  44.539  35.473  0.00  0.00    -0.343 N 
ATOM     13  C8  UNL     1      15.868  44.717  34.103  0.00  0.00    +0.044 A 
ATOM     14  C9  UNL     1      16.596  45.512  35.020  0.00  0.00    -0.004 A 
ATOM     15  C10 UNL     1      17.887  45.947  34.719  0.00  0.00    +0.162 A 
ATOM     16  O2  UNL     1      18.661  46.721  35.544  0.00  0.00    -0.491 OA
ATOM     17  C11 UNL     1      18.164  47.002  36.844  0.00  0.00    +0.079 C 
ATOM     18  H   UNL     1      12.937  44.189  35.592  0.00  0.00    +0.000 HD
ATOM     19  H   UNL     1      14.256  45.100  36.173  0.00  0.00    +0.000 HD
ENDROOT
TORSDOF 0
ENDMDL
MODEL 5
REMARK VINA RESULT:    -2.309     12.711     14.025
REMARK INTER + INTRA:          -2.309
REMARK INTER:                  -2.309
REMARK INTRA:                   0.000
REMARK UNBOUND:                 0.000
REMARK  Name = /home/vital/Documents/PhD_2021/Malaria_codes/scripts/../data/pdbqt_ligands/ligand_269_temp.pdb
REMARK                            x       y       z     vdW  Elec       q    Type
REMARK                         _______ _______ _______ _____ _____    ______ ____
ROOT
ATOM      1  C1  UNL     1      19.853  29.174  16.261  0.00  0.00    +0.079 C 
ATOM      2  O1  UNL     1      18.851  29.080  15.258  0.00  0.00    -0.491 OA
ATOM      3  C2  UNL     1      18.028  27.982  15.275  0.00  0.00    +0.164 A 
ATOM      4  C3  UNL     1      18.106  26.949  16.216  0.00  0.00    +0.010 A 
ATOM      5  C4  UNL     1      17.247  25.857  16.185  0.00  0.00    +0.081 A 
ATOM      6  N1  UNL     1      17.371  24.912  17.122  0.00  0.00    -0.222 NA
ATOM      7  C5  UNL     1      16.522  23.875  17.071  0.00  0.00    +0.190 A 
ATOM      8  S1  UNL     1      16.654  22.594  18.297  0.00  0.00    -0.089 S 
ATOM      9  C6  UNL     1      17.768  23.391  19.479  0.00  0.00    -0.011 C 
ATOM     10  N2  UNL     1      15.574  23.705  16.143  0.00  0.00    -0.207 NA
ATOM     11  C7  UNL     1      15.473  24.653  15.207  0.00  0.00    +0.128 A 
ATOM     12  N3  UNL     1      14.473  24.433  14.251  0.00  0.00    -0.343 N 
ATOM     13  C8  UNL     1      16.286  25.791  15.174  0.00  0.00    +0.044 A 
ATOM     14  C9  UNL     1      16.187  26.833  14.220  0.00  0.00    -0.004 A 
ATOM     15  C10 UNL     1      17.051  27.927  14.266  0.00  0.00    +0.162 A 
ATOM     16  O2  UNL     1      17.029  28.976  13.383  0.00  0.00    -0.491 OA
ATOM     17  C11 UNL     1      15.979  29.013  12.428  0.00  0.00    +0.079 C 
ATOM     18  H   UNL     1      13.916  23.623  14.298  0.00  0.00    +0.000 HD
ATOM     19  H   UNL     1      14.328  25.088  13.530  0.00  0.00    +0.000 HD
ENDROOT
TORSDOF 0
ENDMDL
MODEL 6
REMARK VINA RESULT:    -2.183     13.724     15.451
REMARK INTER + INTRA:          -2.183
REMARK INTER:                  -2.183
REMARK INTRA:                   0.000
REMARK UNBOUND:                 0.000
REMARK  Name = /home/vital/Documents/PhD_2021/Malaria_codes/scripts/../data/pdbqt_ligands/ligand_269_temp.pdb
REMARK                            x       y       z     vdW  Elec       q    Type
REMARK                         _______ _______ _______ _____ _____    ______ ____
ROOT
ATOM      1  C1  UNL     1      18.820  28.036  13.945  0.00  0.00    +0.079 C 
ATOM      2  O1  UNL     1      17.675  27.213  14.119  0.00  0.00    -0.491 OA
ATOM      3  C2  UNL     1      17.629  26.403  15.226  0.00  0.00    +0.164 A 
ATOM      4  C3  UNL     1      18.634  26.336  16.199  0.00  0.00    +0.010 A 
ATOM      5  C4  UNL     1      18.537  25.495  17.301  0.00  0.00    +0.081 A 
ATOM      6  N1  UNL     1      19.529  25.489  18.197  0.00  0.00    -0.222 NA
ATOM      7  C5  UNL     1      19.403  24.674  19.254  0.00  0.00    +0.190 A 
ATOM      8  S1  UNL     1      20.701  24.634  20.469  0.00  0.00    -0.089 S 
ATOM      9  C6  UNL     1      21.656  26.087  19.970  0.00  0.00    -0.011 C 
ATOM     10  N2  UNL     1      18.370  23.853  19.470  0.00  0.00    -0.207 NA
ATOM     11  C7  UNL     1      17.394  23.862  18.558  0.00  0.00    +0.128 A 
ATOM     12  N3  UNL     1      16.335  22.982  18.818  0.00  0.00    -0.343 N 
ATOM     13  C8  UNL     1      17.405  24.688  17.429  0.00  0.00    +0.044 A 
ATOM     14  C9  UNL     1      16.374  24.752  16.459  0.00  0.00    -0.004 A 
ATOM     15  C10 UNL     1      16.481  25.605  15.361  0.00  0.00    +0.162 A 
ATOM     16  O2  UNL     1      15.536  25.728  14.375  0.00  0.00    -0.491 OA
ATOM     17  C11 UNL     1      14.311  25.029  14.543  0.00  0.00    +0.079 C 
ATOM     18  H   UNL     1      16.355  22.412  19.621  0.00  0.00    +0.000 HD
ATOM     19  H   UNL     1      15.572  22.934  18.199  0.00  0.00    +0.000 HD
ENDROOT
TORSDOF 0
ENDMDL
MODEL 7
REMARK VINA RESULT:    -2.061     22.090     23.872
REMARK INTER + INTRA:          -2.061
REMARK INTER:                  -2.061
REMARK INTRA:                   0.000
REMARK UNBOUND:                 0.000
REMARK  Name = /home/vital/Documents/PhD_2021/Malaria_codes/scripts/../data/pdbqt_ligands/ligand_269_temp.pdb
REMARK                            x       y       z     vdW  Elec       q    Type
REMARK                         _______ _______ _______ _____ _____    ______ ____
ROOT
ATOM      1  C1  UNL     1      34.448  46.070  33.618  0.00  0.00    +0.079 C 
ATOM      2  O1  UNL     1      33.217  46.278  32.940  0.00  0.00    -0.491 OA
ATOM      3  C2  UNL     1      33.254  46.433  31.576  0.00  0.00    +0.164 A 
ATOM      4  C3  UNL     1      34.423  46.396  30.807  0.00  0.00    +0.010 A 
ATOM      5  C4  UNL     1      34.403  46.560  29.427  0.00  0.00    +0.081 A 
ATOM      6  N1  UNL     1      35.555  46.503  28.754  0.00  0.00    -0.222 NA
ATOM      7  C5  UNL     1      35.503  46.656  27.423  0.00  0.00    +0.190 A 
ATOM      8  S1  UNL     1      37.015  46.588  26.489  0.00  0.00    -0.089 S 
ATOM      9  C6  UNL     1      38.143  45.941  27.745  0.00  0.00    -0.011 C 
ATOM     10  N2  UNL     1      34.388  46.882  26.720  0.00  0.00    -0.207 NA
ATOM     11  C7  UNL     1      33.246  46.950  27.412  0.00  0.00    +0.128 A 
ATOM     12  N3  UNL     1      32.104  47.196  26.639  0.00  0.00    -0.343 N 
ATOM     13  C8  UNL     1      33.175  46.780  28.798  0.00  0.00    +0.044 A 
ATOM     14  C9  UNL     1      31.982  46.811  29.560  0.00  0.00    -0.004 A 
ATOM     15  C10 UNL     1      32.016  46.637  30.944  0.00  0.00    +0.162 A 
ATOM     16  O2  UNL     1      30.913  46.655  31.758  0.00  0.00    -0.491 OA
ATOM     17  C11 UNL     1      29.636  46.737  31.141  0.00  0.00    +0.079 C 
ATOM     18  H   UNL     1      32.183  47.312  25.664  0.00  0.00    +0.000 HD
ATOM     19  H   UNL     1      31.221  47.253  27.071  0.00  0.00    +0.000 HD
ENDROOT
TORSDOF 0
ENDMDL
MODEL 8
REMARK VINA RESULT:    -1.955     14.979     16.870
REMARK INTER + INTRA:          -1.955
REMARK INTER:                  -1.955
REMARK INTRA:                   0.000
REMARK UNBOUND:                 0.000
REMARK  Name = /home/vital/Documents/PhD_2021/Malaria_codes/scripts/../data/pdbqt_ligands/ligand_269_temp.pdb
REMARK                            x       y       z     vdW  Elec       q    Type
REMARK                         _______ _______ _______ _____ _____    ______ ____
ROOT
ATOM      1  C1  UNL     1      17.775  25.036  23.261  0.00  0.00    +0.079 C 
ATOM      2  O1  UNL     1      16.695  25.955  23.173  0.00  0.00    -0.491 OA
ATOM      3  C2  UNL     1      16.381  26.685  24.292  0.00  0.00    +0.164 A 
ATOM      4  C3  UNL     1      17.057  26.588  25.515  0.00  0.00    +0.010 A 
ATOM      5  C4  UNL     1      16.696  27.351  26.618  0.00  0.00    +0.081 A 
ATOM      6  N1  UNL     1      17.391  27.216  27.752  0.00  0.00    -0.222 NA
ATOM      7  C5  UNL     1      17.025  27.972  28.796  0.00  0.00    +0.190 A 
ATOM      8  S1  UNL     1      17.923  27.822  30.324  0.00  0.00    -0.089 S 
ATOM      9  C6  UNL     1      19.350  26.861  29.767  0.00  0.00    -0.011 C 
ATOM     10  N2  UNL     1      16.004  28.837  28.797  0.00  0.00    -0.207 NA
ATOM     11  C7  UNL     1      15.312  28.949  27.660  0.00  0.00    +0.128 A 
ATOM     12  N3  UNL     1      14.248  29.859  27.706  0.00  0.00    -0.343 N 
ATOM     13  C8  UNL     1      15.618  28.231  26.499  0.00  0.00    +0.044 A 
ATOM     14  C9  UNL     1      14.930  28.348  25.266  0.00  0.00    -0.004 A 
ATOM     15  C10 UNL     1      15.308  27.582  24.164  0.00  0.00    +0.162 A 
ATOM     16  O2  UNL     1      14.697  27.628  22.937  0.00  0.00    -0.491 OA
ATOM     17  C11 UNL     1      13.690  28.609  22.737  0.00  0.00    +0.079 C 
ATOM     18  H   UNL     1      14.055  30.350  28.537  0.00  0.00    +0.000 HD
ATOM     19  H   UNL     1      13.692  30.007  26.907  0.00  0.00    +0.000 HD
ENDROOT
TORSDOF 0
ENDMDL
MODEL 9
REMARK VINA RESULT:    -1.849     20.063     23.060
REMARK INTER + INTRA:          -1.849
REMARK INTER:                  -1.849
REMARK INTRA:                   0.000
REMARK UNBOUND:                 0.000
REMARK  Name = /home/vital/Documents/PhD_2021/Malaria_codes/scripts/../data/pdbqt_ligands/ligand_269_temp.pdb
REMARK                            x       y       z     vdW  Elec       q    Type
REMARK                         _______ _______ _______ _____ _____    ______ ____
ROOT
ATOM      1  C1  UNL     1      29.986  46.465  32.474  0.00  0.00    +0.079 C 
ATOM      2  O1  UNL     1      31.407  46.474  32.480  0.00  0.00    -0.491 OA
ATOM      3  C2  UNL     1      32.054  46.585  31.274  0.00  0.00    +0.164 A 
ATOM      4  C3  UNL     1      31.407  46.694  30.037  0.00  0.00    +0.010 A 
ATOM      5  C4  UNL     1      32.112  46.802  28.845  0.00  0.00    +0.081 A 
ATOM      6  N1  UNL     1      31.431  46.914  27.701  0.00  0.00    -0.222 NA
ATOM      7  C5  UNL     1      32.138  47.026  26.567  0.00  0.00    +0.190 A 
ATOM      8  S1  UNL     1      31.271  47.175  25.022  0.00  0.00    -0.089 S 
ATOM      9  C6  UNL     1      29.594  47.490  25.622  0.00  0.00    -0.011 C 
ATOM     10  N2  UNL     1      33.474  47.014  26.492  0.00  0.00    -0.207 NA
ATOM     11  C7  UNL     1      34.138  46.888  27.645  0.00  0.00    +0.128 A 
ATOM     12  N3  UNL     1      35.534  46.872  27.521  0.00  0.00    -0.343 N 
ATOM     13  C8  UNL     1      33.508  46.789  28.890  0.00  0.00    +0.044 A 
ATOM     14  C9  UNL     1      34.177  46.690  30.134  0.00  0.00    -0.004 A 
ATOM     15  C10 UNL     1      33.458  46.589  31.324  0.00  0.00    +0.162 A 
ATOM     16  O2  UNL     1      34.022  46.485  32.569  0.00  0.00    -0.491 OA
ATOM     17  C11 UNL     1      35.434  46.609  32.668  0.00  0.00    +0.079 C 
ATOM     18  H   UNL     1      35.950  46.943  26.632  0.00  0.00    +0.000 HD
ATOM     19  H   UNL     1      36.098  46.790  28.324  0.00  0.00    +0.000 HD
ENDROOT
TORSDOF 0
ENDMDL
