MODEL 1
REMARK VINA RESULT:    -3.330      0.000      0.000
REMARK INTER + INTRA:          -3.330
REMARK INTER:                  -3.330
REMARK INTRA:                   0.000
REMARK UNBOUND:                 0.000
REMARK  Name = /home/vital/Documents/PhD_2021/Malaria_codes/scripts/../data/pdbqt_ligands/ligand_91_temp.pdb
REMARK                            x       y       z     vdW  Elec       q    Type
REMARK                         _______ _______ _______ _____ _____    ______ ____
ROOT
ATOM      1  C1  UNL     1      24.311  47.260  15.266  0.00  0.00    -0.031 C 
ATOM      2  C2  UNL     1      23.722  46.776  16.579  0.00  0.00    +0.087 C 
ATOM      3  O1  UNL     1      22.426  47.356  16.723  0.00  0.00    -0.492 OA
ATOM      4  C3  UNL     1      21.716  47.026  17.842  0.00  0.00    +0.121 A 
ATOM      5  C4  UNL     1      22.149  46.202  18.879  0.00  0.00    -0.019 A 
ATOM      6  C5  UNL     1      21.309  45.938  19.973  0.00  0.00    -0.049 A 
ATOM      7  C6  UNL     1      20.024  46.493  20.046  0.00  0.00    +0.002 A 
ATOM      8  C7  UNL     1      19.131  46.210  21.178  0.00  0.00    +0.094 A 
ATOM      9  C8  UNL     1      19.275  45.215  22.183  0.00  0.00    -0.006 A 
ATOM     10  C9  UNL     1      18.172  45.351  22.993  0.00  0.00    +0.099 A 
ATOM     11  C10 UNL     1      17.661  44.694  24.161  0.00  0.00    +0.123 A 
ATOM     12  S1  UNL     1      18.605  43.369  24.786  0.00  0.00    -0.094 S 
ATOM     13  C11 UNL     1      17.276  42.227  25.259  0.00  0.00    +0.077 C 
ATOM     14  C12 UNL     1      16.884  42.324  26.728  0.00  0.00    +0.228 C 
ATOM     15  O2  UNL     1      16.690  41.295  27.373  0.00  0.00    -0.275 OA
ATOM     16  N1  UNL     1      16.635  43.610  27.170  0.00  0.00    -0.282 N 
ATOM     17  C13 UNL     1      16.342  44.018  28.490  0.00  0.00    +0.077 A 
ATOM     18  C14 UNL     1      15.551  45.168  28.619  0.00  0.00    -0.019 A 
ATOM     19  C15 UNL     1      15.197  45.645  29.881  0.00  0.00    +0.043 A 
ATOM     20 CL1  UNL     1      14.210  47.048  30.015  0.00  0.00    -0.083 Cl
ATOM     21  C16 UNL     1      15.644  45.003  31.031  0.00  0.00    -0.040 A 
ATOM     22  C17 UNL     1      16.467  43.883  30.918  0.00  0.00    -0.017 A 
ATOM     23  C18 UNL     1      16.820  43.387  29.652  0.00  0.00    +0.141 A 
ATOM     24  O3  UNL     1      17.772  42.406  29.551  0.00  0.00    -0.493 OA
ATOM     25  C19 UNL     1      17.435  41.226  30.281  0.00  0.00    +0.079 C 
ATOM     26  N2  UNL     1      16.552  45.050  24.750  0.00  0.00    -0.245 NA
ATOM     27  C20 UNL     1      15.855  46.107  24.195  0.00  0.00    +0.047 A 
ATOM     28  C21 UNL     1      16.256  46.770  23.101  0.00  0.00    +0.048 A 
ATOM     29  N3  UNL     1      17.435  46.393  22.478  0.00  0.00    -0.235 N 
ATOM     30  N4  UNL     1      18.003  46.914  21.374  0.00  0.00    -0.166 NA
ATOM     31  C22 UNL     1      19.604  47.328  19.001  0.00  0.00    -0.049 A 
ATOM     32  C23 UNL     1      20.443  47.590  17.912  0.00  0.00    -0.019 A 
ATOM     33  H   UNL     1      16.664  44.321  26.489  0.00  0.00    +0.000 HD
ENDROOT
TORSDOF 0
ENDMDL
MODEL 2
REMARK VINA RESULT:    -3.324     10.134     15.384
REMARK INTER + INTRA:          -3.324
REMARK INTER:                  -3.324
REMARK INTRA:                   0.000
REMARK UNBOUND:                 0.000
REMARK  Name = /home/vital/Documents/PhD_2021/Malaria_codes/scripts/../data/pdbqt_ligands/ligand_91_temp.pdb
REMARK                            x       y       z     vdW  Elec       q    Type
REMARK                         _______ _______ _______ _____ _____    ______ ____
ROOT
ATOM      1  C1  UNL     1      18.720  47.590  18.375  0.00  0.00    -0.031 C 
ATOM      2  C2  UNL     1      20.155  47.151  18.605  0.00  0.00    +0.087 C 
ATOM      3  O1  UNL     1      20.790  47.036  17.332  0.00  0.00    -0.492 OA
ATOM      4  C3  UNL     1      22.106  46.667  17.323  0.00  0.00    +0.121 A 
ATOM      5  C4  UNL     1      22.882  46.357  18.438  0.00  0.00    -0.019 A 
ATOM      6  C5  UNL     1      24.231  45.999  18.286  0.00  0.00    -0.049 A 
ATOM      7  C6  UNL     1      24.824  45.945  17.016  0.00  0.00    +0.002 A 
ATOM      8  C7  UNL     1      26.239  45.588  16.847  0.00  0.00    +0.094 A 
ATOM      9  C8  UNL     1      27.247  45.494  17.845  0.00  0.00    -0.006 A 
ATOM     10  C9  UNL     1      28.396  45.146  17.173  0.00  0.00    +0.099 A 
ATOM     11  C10 UNL     1      29.764  44.902  17.526  0.00  0.00    +0.123 A 
ATOM     12  S1  UNL     1      30.177  45.065  19.211  0.00  0.00    -0.094 S 
ATOM     13  C11 UNL     1      31.804  45.855  19.065  0.00  0.00    +0.077 C 
ATOM     14  C12 UNL     1      32.966  44.871  19.125  0.00  0.00    +0.228 C 
ATOM     15  O2  UNL     1      33.960  45.148  19.795  0.00  0.00    -0.275 OA
ATOM     16  N1  UNL     1      32.845  43.789  18.273  0.00  0.00    -0.282 N 
ATOM     17  C13 UNL     1      33.711  42.679  18.174  0.00  0.00    +0.077 A 
ATOM     18  C14 UNL     1      33.777  42.058  16.918  0.00  0.00    -0.019 A 
ATOM     19  C15 UNL     1      34.612  40.960  16.715  0.00  0.00    +0.043 A 
ATOM     20 CL1  UNL     1      34.690  40.225  15.162  0.00  0.00    -0.083 Cl
ATOM     21  C16 UNL     1      35.374  40.447  17.760  0.00  0.00    -0.040 A 
ATOM     22  C17 UNL     1      35.286  41.029  19.024  0.00  0.00    -0.017 A 
ATOM     23  C18 UNL     1      34.457  42.142  19.238  0.00  0.00    +0.141 A 
ATOM     24  O3  UNL     1      34.237  42.588  20.515  0.00  0.00    -0.493 OA
ATOM     25  C19 UNL     1      35.441  42.943  21.195  0.00  0.00    +0.079 C 
ATOM     26  N2  UNL     1      30.675  44.567  16.653  0.00  0.00    -0.245 NA
ATOM     27  C20 UNL     1      30.275  44.461  15.333  0.00  0.00    +0.047 A 
ATOM     28  C21 UNL     1      29.019  44.682  14.917  0.00  0.00    +0.048 A 
ATOM     29  N3  UNL     1      28.053  45.034  15.846  0.00  0.00    -0.235 N 
ATOM     30  N4  UNL     1      26.751  45.307  15.637  0.00  0.00    -0.166 NA
ATOM     31  C22 UNL     1      24.030  46.250  15.902  0.00  0.00    -0.049 A 
ATOM     32  C23 UNL     1      22.685  46.606  16.056  0.00  0.00    -0.019 A 
ATOM     33  H   UNL     1      32.068  43.793  17.668  0.00  0.00    +0.000 HD
ENDROOT
TORSDOF 0
ENDMDL
MODEL 3
REMARK VINA RESULT:    -3.149     12.781     14.789
REMARK INTER + INTRA:          -3.149
REMARK INTER:                  -3.149
REMARK INTRA:                   0.000
REMARK UNBOUND:                 0.000
REMARK  Name = /home/vital/Documents/PhD_2021/Malaria_codes/scripts/../data/pdbqt_ligands/ligand_91_temp.pdb
REMARK                            x       y       z     vdW  Elec       q    Type
REMARK                         _______ _______ _______ _____ _____    ______ ____
ROOT
ATOM      1  C1  UNL     1      14.653  24.620  14.275  0.00  0.00    -0.031 C 
ATOM      2  C2  UNL     1      14.879  25.957  14.959  0.00  0.00    +0.087 C 
ATOM      3  O1  UNL     1      15.039  26.949  13.945  0.00  0.00    -0.492 OA
ATOM      4  C3  UNL     1      15.236  28.236  14.358  0.00  0.00    +0.121 A 
ATOM      5  C4  UNL     1      15.332  28.672  15.678  0.00  0.00    -0.019 A 
ATOM      6  C5  UNL     1      15.528  30.033  15.964  0.00  0.00    -0.049 A 
ATOM      7  C6  UNL     1      15.631  30.978  14.934  0.00  0.00    +0.002 A 
ATOM      8  C7  UNL     1      15.820  32.406  15.221  0.00  0.00    +0.094 A 
ATOM      9  C8  UNL     1      15.685  33.077  16.467  0.00  0.00    -0.006 A 
ATOM     10  C9  UNL     1      15.947  34.400  16.201  0.00  0.00    +0.099 A 
ATOM     11  C10 UNL     1      15.979  35.619  16.956  0.00  0.00    +0.123 A 
ATOM     12  S1  UNL     1      15.597  35.496  18.652  0.00  0.00    -0.094 S 
ATOM     13  C11 UNL     1      14.624  37.012  18.871  0.00  0.00    +0.077 C 
ATOM     14  C12 UNL     1      15.441  38.191  19.387  0.00  0.00    +0.228 C 
ATOM     15  O2  UNL     1      14.974  38.911  20.269  0.00  0.00    -0.275 OA
ATOM     16  N1  UNL     1      16.609  38.429  18.687  0.00  0.00    -0.282 N 
ATOM     17  C13 UNL     1      17.603  39.384  18.985  0.00  0.00    +0.077 A 
ATOM     18  C14 UNL     1      18.333  39.878  17.894  0.00  0.00    -0.019 A 
ATOM     19  C15 UNL     1      19.329  40.834  18.083  0.00  0.00    +0.043 A 
ATOM     20 CL1  UNL     1      20.200  41.438  16.727  0.00  0.00    -0.083 Cl
ATOM     21  C16 UNL     1      19.634  41.296  19.359  0.00  0.00    -0.040 A 
ATOM     22  C17 UNL     1      18.946  40.783  20.458  0.00  0.00    -0.017 A 
ATOM     23  C18 UNL     1      17.932  39.828  20.279  0.00  0.00    +0.141 A 
ATOM     24  O3  UNL     1      17.393  39.199  21.371  0.00  0.00    -0.493 OA
ATOM     25  C19 UNL     1      16.821  40.108  22.311  0.00  0.00    +0.079 C 
ATOM     26  N2  UNL     1      16.279  36.775  16.430  0.00  0.00    -0.245 NA
ATOM     27  C20 UNL     1      16.567  36.796  15.077  0.00  0.00    +0.047 A 
ATOM     28  C21 UNL     1      16.551  35.706  14.297  0.00  0.00    +0.048 A 
ATOM     29  N3  UNL     1      16.234  34.479  14.858  0.00  0.00    -0.235 N 
ATOM     30  N4  UNL     1      16.152  33.278  14.254  0.00  0.00    -0.166 NA
ATOM     31  C22 UNL     1      15.542  30.525  13.610  0.00  0.00    -0.049 A 
ATOM     32  C23 UNL     1      15.347  29.169  13.328  0.00  0.00    -0.019 A 
ATOM     33  H   UNL     1      16.764  37.869  17.891  0.00  0.00    +0.000 HD
ENDROOT
TORSDOF 0
ENDMDL
MODEL 4
REMARK VINA RESULT:    -3.009     10.026     15.180
REMARK INTER + INTRA:          -3.009
REMARK INTER:                  -3.009
REMARK INTRA:                   0.000
REMARK UNBOUND:                 0.000
REMARK  Name = /home/vital/Documents/PhD_2021/Malaria_codes/scripts/../data/pdbqt_ligands/ligand_91_temp.pdb
REMARK                            x       y       z     vdW  Elec       q    Type
REMARK                         _______ _______ _______ _____ _____    ______ ____
ROOT
ATOM      1  C1  UNL     1      15.868  41.811  15.398  0.00  0.00    -0.031 C 
ATOM      2  C2  UNL     1      17.373  41.760  15.203  0.00  0.00    +0.087 C 
ATOM      3  O1  UNL     1      17.985  42.418  16.311  0.00  0.00    -0.492 OA
ATOM      4  C3  UNL     1      19.350  42.465  16.334  0.00  0.00    +0.121 A 
ATOM      5  C4  UNL     1      20.207  41.959  15.358  0.00  0.00    -0.019 A 
ATOM      6  C5  UNL     1      21.598  42.066  15.512  0.00  0.00    -0.049 A 
ATOM      7  C6  UNL     1      22.154  42.681  16.643  0.00  0.00    +0.002 A 
ATOM      8  C7  UNL     1      23.608  42.784  16.821  0.00  0.00    +0.094 A 
ATOM      9  C8  UNL     1      24.632  42.120  16.092  0.00  0.00    -0.006 A 
ATOM     10  C9  UNL     1      25.814  42.540  16.656  0.00  0.00    +0.099 A 
ATOM     11  C10 UNL     1      27.209  42.277  16.448  0.00  0.00    +0.123 A 
ATOM     12  S1  UNL     1      27.609  41.149  15.181  0.00  0.00    -0.094 S 
ATOM     13  C11 UNL     1      28.981  40.260  15.970  0.00  0.00    +0.077 C 
ATOM     14  C12 UNL     1      30.354  40.800  15.591  0.00  0.00    +0.228 C 
ATOM     15  O2  UNL     1      31.263  40.014  15.327  0.00  0.00    -0.275 OA
ATOM     16  N1  UNL     1      30.488  42.170  15.725  0.00  0.00    -0.282 N 
ATOM     17  C13 UNL     1      31.602  42.958  15.367  0.00  0.00    +0.077 A 
ATOM     18  C14 UNL     1      31.791  44.133  16.110  0.00  0.00    -0.019 A 
ATOM     19  C15 UNL     1      32.870  44.974  15.841  0.00  0.00    +0.043 A 
ATOM     20 CL1  UNL     1      33.091  46.401  16.776  0.00  0.00    -0.083 Cl
ATOM     21  C16 UNL     1      33.763  44.676  14.816  0.00  0.00    -0.040 A 
ATOM     22  C17 UNL     1      33.563  43.533  14.043  0.00  0.00    -0.017 A 
ATOM     23  C18 UNL     1      32.486  42.672  14.312  0.00  0.00    +0.141 A 
ATOM     24  O3  UNL     1      32.193  41.659  13.436  0.00  0.00    -0.493 OA
ATOM     25  C19 UNL     1      33.285  40.762  13.238  0.00  0.00    +0.079 C 
ATOM     26  N2  UNL     1      28.152  42.843  17.150  0.00  0.00    -0.245 NA
ATOM     27  C20 UNL     1      27.759  43.725  18.140  0.00  0.00    +0.047 A 
ATOM     28  C21 UNL     1      26.478  44.018  18.407  0.00  0.00    +0.048 A 
ATOM     29  N3  UNL     1      25.478  43.420  17.659  0.00  0.00    -0.235 N 
ATOM     30  N4  UNL     1      24.144  43.568  17.772  0.00  0.00    -0.166 NA
ATOM     31  C22 UNL     1      21.281  43.193  17.612  0.00  0.00    -0.049 A 
ATOM     32  C23 UNL     1      19.894  43.085  17.457  0.00  0.00    -0.019 A 
ATOM     33  H   UNL     1      29.720  42.649  16.114  0.00  0.00    +0.000 HD
ENDROOT
TORSDOF 0
ENDMDL
MODEL 5
REMARK VINA RESULT:    -3.002     21.300     22.994
REMARK INTER + INTRA:          -3.002
REMARK INTER:                  -3.002
REMARK INTRA:                   0.000
REMARK UNBOUND:                 0.000
REMARK  Name = /home/vital/Documents/PhD_2021/Malaria_codes/scripts/../data/pdbqt_ligands/ligand_91_temp.pdb
REMARK                            x       y       z     vdW  Elec       q    Type
REMARK                         _______ _______ _______ _____ _____    ______ ____
ROOT
ATOM      1  C1  UNL     1      32.959  23.568  14.214  0.00  0.00    -0.031 C 
ATOM      2  C2  UNL     1      31.486  23.931  14.141  0.00  0.00    +0.087 C 
ATOM      3  O1  UNL     1      30.871  23.529  15.364  0.00  0.00    -0.492 OA
ATOM      4  C3  UNL     1      29.537  23.787  15.506  0.00  0.00    +0.121 A 
ATOM      5  C4  UNL     1      28.707  24.376  14.554  0.00  0.00    -0.019 A 
ATOM      6  C5  UNL     1      27.348  24.593  14.835  0.00  0.00    -0.049 A 
ATOM      7  C6  UNL     1      26.799  24.224  16.071  0.00  0.00    +0.002 A 
ATOM      8  C7  UNL     1      25.383  24.460  16.381  0.00  0.00    +0.094 A 
ATOM      9  C8  UNL     1      24.450  25.263  15.670  0.00  0.00    -0.006 A 
ATOM     10  C9  UNL     1      23.273  25.168  16.375  0.00  0.00    +0.099 A 
ATOM     11  C10 UNL     1      21.951  25.711  16.255  0.00  0.00    +0.123 A 
ATOM     12  S1  UNL     1      21.665  26.777  14.907  0.00  0.00    -0.094 S 
ATOM     13  C11 UNL     1      20.602  28.016  15.701  0.00  0.00    +0.077 C 
ATOM     14  C12 UNL     1      19.113  27.758  15.503  0.00  0.00    +0.228 C 
ATOM     15  O2  UNL     1      18.368  28.697  15.229  0.00  0.00    -0.275 OA
ATOM     16  N1  UNL     1      18.710  26.470  15.802  0.00  0.00    -0.282 N 
ATOM     17  C13 UNL     1      17.423  25.917  15.631  0.00  0.00    +0.077 A 
ATOM     18  C14 UNL     1      17.072  24.886  16.515  0.00  0.00    -0.019 A 
ATOM     19  C15 UNL     1      15.818  24.283  16.435  0.00  0.00    +0.043 A 
ATOM     20 CL1  UNL     1      15.401  23.032  17.541  0.00  0.00    -0.083 Cl
ATOM     21  C16 UNL     1      14.904  24.674  15.461  0.00  0.00    -0.040 A 
ATOM     22  C17 UNL     1      15.256  25.668  14.549  0.00  0.00    -0.017 A 
ATOM     23  C18 UNL     1      16.512  26.292  14.627  0.00  0.00    +0.141 A 
ATOM     24  O3  UNL     1      16.917  27.129  13.621  0.00  0.00    -0.493 OA
ATOM     25  C19 UNL     1      16.023  28.223  13.414  0.00  0.00    +0.079 C 
ATOM     26  N2  UNL     1      20.990  25.434  17.094  0.00  0.00    -0.245 NA
ATOM     27  C20 UNL     1      21.292  24.583  18.141  0.00  0.00    +0.047 A 
ATOM     28  C21 UNL     1      22.503  24.040  18.332  0.00  0.00    +0.048 A 
ATOM     29  N3  UNL     1      23.522  24.332  17.439  0.00  0.00    -0.235 N 
ATOM     30  N4  UNL     1      24.799  23.905  17.457  0.00  0.00    -0.166 NA
ATOM     31  C22 UNL     1      27.643  23.624  17.016  0.00  0.00    -0.049 A 
ATOM     32  C23 UNL     1      28.997  23.409  16.734  0.00  0.00    -0.019 A 
ATOM     33  H   UNL     1      19.397  25.872  16.177  0.00  0.00    +0.000 HD
ENDROOT
TORSDOF 0
ENDMDL
MODEL 6
REMARK VINA RESULT:    -2.745     17.540     21.275
REMARK INTER + INTRA:          -2.745
REMARK INTER:                  -2.745
REMARK INTRA:                   0.000
REMARK UNBOUND:                 0.000
REMARK  Name = /home/vital/Documents/PhD_2021/Malaria_codes/scripts/../data/pdbqt_ligands/ligand_91_temp.pdb
REMARK                            x       y       z     vdW  Elec       q    Type
REMARK                         _______ _______ _______ _____ _____    ______ ____
ROOT
ATOM      1  C1  UNL     1      14.212  28.999  33.921  0.00  0.00    -0.031 C 
ATOM      2  C2  UNL     1      14.640  28.438  32.576  0.00  0.00    +0.087 C 
ATOM      3  O1  UNL     1      14.048  29.240  31.555  0.00  0.00    -0.492 OA
ATOM      4  C3  UNL     1      14.328  28.908  30.260  0.00  0.00    +0.121 A 
ATOM      5  C4  UNL     1      15.111  27.836  29.836  0.00  0.00    -0.019 A 
ATOM      6  C5  UNL     1      15.327  27.613  28.467  0.00  0.00    -0.049 A 
ATOM      7  C6  UNL     1      14.762  28.458  27.500  0.00  0.00    +0.002 A 
ATOM      8  C7  UNL     1      14.994  28.243  26.066  0.00  0.00    +0.094 A 
ATOM      9  C8  UNL     1      15.948  27.389  25.449  0.00  0.00    -0.006 A 
ATOM     10  C9  UNL     1      15.774  27.563  24.096  0.00  0.00    +0.099 A 
ATOM     11  C10 UNL     1      16.380  27.050  22.901  0.00  0.00    +0.123 A 
ATOM     12  S1  UNL     1      17.683  25.912  23.116  0.00  0.00    -0.094 S 
ATOM     13  C11 UNL     1      18.799  26.452  21.789  0.00  0.00    +0.077 C 
ATOM     14  C12 UNL     1      18.639  25.659  20.499  0.00  0.00    +0.228 C 
ATOM     15  O2  UNL     1      19.640  25.297  19.883  0.00  0.00    -0.275 OA
ATOM     16  N1  UNL     1      17.335  25.544  20.054  0.00  0.00    -0.282 N 
ATOM     17  C13 UNL     1      16.872  24.798  18.949  0.00  0.00    +0.077 A 
ATOM     18  C14 UNL     1      15.714  25.279  18.321  0.00  0.00    -0.019 A 
ATOM     19  C15 UNL     1      15.184  24.620  17.213  0.00  0.00    +0.043 A 
ATOM     20 CL1  UNL     1      13.772  25.237  16.449  0.00  0.00    -0.083 Cl
ATOM     21  C16 UNL     1      15.780  23.460  16.727  0.00  0.00    -0.040 A 
ATOM     22  C17 UNL     1      16.908  22.947  17.368  0.00  0.00    -0.017 A 
ATOM     23  C18 UNL     1      17.457  23.609  18.477  0.00  0.00    +0.141 A 
ATOM     24  O3  UNL     1      18.446  23.002  19.207  0.00  0.00    -0.493 OA
ATOM     25  C19 UNL     1      19.593  22.674  18.424  0.00  0.00    +0.079 C 
ATOM     26  N2  UNL     1      15.995  27.394  21.703  0.00  0.00    -0.245 NA
ATOM     27  C20 UNL     1      14.958  28.305  21.611  0.00  0.00    +0.047 A 
ATOM     28  C21 UNL     1      14.343  28.840  22.676  0.00  0.00    +0.048 A 
ATOM     29  N3  UNL     1      14.751  28.471  23.947  0.00  0.00    -0.235 N 
ATOM     30  N4  UNL     1      14.278  28.895  25.135  0.00  0.00    -0.166 NA
ATOM     31  C22 UNL     1      13.969  29.527  27.940  0.00  0.00    -0.049 A 
ATOM     32  C23 UNL     1      13.756  29.747  29.305  0.00  0.00    -0.019 A 
ATOM     33  H   UNL     1      16.653  26.036  20.566  0.00  0.00    +0.000 HD
ENDROOT
TORSDOF 0
ENDMDL
MODEL 7
REMARK VINA RESULT:    -2.717      4.498      6.239
REMARK INTER + INTRA:          -2.717
REMARK INTER:                  -2.717
REMARK INTRA:                   0.000
REMARK UNBOUND:                 0.000
REMARK  Name = /home/vital/Documents/PhD_2021/Malaria_codes/scripts/../data/pdbqt_ligands/ligand_91_temp.pdb
REMARK                            x       y       z     vdW  Elec       q    Type
REMARK                         _______ _______ _______ _____ _____    ______ ____
ROOT
ATOM      1  C1  UNL     1      20.803  47.210  18.473  0.00  0.00    -0.031 C 
ATOM      2  C2  UNL     1      20.853  47.218  19.991  0.00  0.00    +0.087 C 
ATOM      3  O1  UNL     1      20.013  46.166  20.465  0.00  0.00    -0.492 OA
ATOM      4  C3  UNL     1      19.935  45.992  21.818  0.00  0.00    +0.121 A 
ATOM      5  C4  UNL     1      20.572  46.767  22.785  0.00  0.00    -0.019 A 
ATOM      6  C5  UNL     1      20.412  46.472  24.149  0.00  0.00    -0.049 A 
ATOM      7  C6  UNL     1      19.614  45.397  24.565  0.00  0.00    +0.002 A 
ATOM      8  C7  UNL     1      19.452  45.069  25.988  0.00  0.00    +0.094 A 
ATOM      9  C8  UNL     1      20.202  45.558  27.092  0.00  0.00    -0.006 A 
ATOM     10  C9  UNL     1      19.673  44.935  28.198  0.00  0.00    +0.099 A 
ATOM     11  C10 UNL     1      19.936  44.934  29.608  0.00  0.00    +0.123 A 
ATOM     12  S1  UNL     1      21.243  45.947  30.158  0.00  0.00    -0.094 S 
ATOM     13  C11 UNL     1      21.966  44.871  31.429  0.00  0.00    +0.077 C 
ATOM     14  C12 UNL     1      21.463  45.170  32.836  0.00  0.00    +0.228 C 
ATOM     15  O2  UNL     1      22.262  45.195  33.772  0.00  0.00    -0.275 OA
ATOM     16  N1  UNL     1      20.087  45.243  32.950  0.00  0.00    -0.282 N 
ATOM     17  C13 UNL     1      19.343  45.590  34.097  0.00  0.00    +0.077 A 
ATOM     18  C14 UNL     1      18.061  45.030  34.194  0.00  0.00    -0.019 A 
ATOM     19  C15 UNL     1      17.251  45.303  35.296  0.00  0.00    +0.043 A 
ATOM     20 CL1  UNL     1      15.688  44.590  35.402  0.00  0.00    -0.083 Cl
ATOM     21  C16 UNL     1      17.690  46.155  36.304  0.00  0.00    -0.040 A 
ATOM     22  C17 UNL     1      18.946  46.752  36.200  0.00  0.00    -0.017 A 
ATOM     23  C18 UNL     1      19.775  46.476  35.101  0.00  0.00    +0.141 A 
ATOM     24  O3  UNL     1      20.920  47.206  34.916  0.00  0.00    -0.493 OA
ATOM     25  C19 UNL     1      21.815  47.128  36.026  0.00  0.00    +0.079 C 
ATOM     26  N2  UNL     1      19.246  44.227  30.461  0.00  0.00    -0.245 NA
ATOM     27  C20 UNL     1      18.226  43.444  29.951  0.00  0.00    +0.047 A 
ATOM     28  C21 UNL     1      17.920  43.379  28.647  0.00  0.00    +0.048 A 
ATOM     29  N3  UNL     1      18.652  44.133  27.743  0.00  0.00    -0.235 N 
ATOM     30  N4  UNL     1      18.516  44.201  26.405  0.00  0.00    -0.166 NA
ATOM     31  C22 UNL     1      18.972  44.631  23.582  0.00  0.00    -0.049 A 
ATOM     32  C23 UNL     1      19.132  44.928  22.224  0.00  0.00    -0.019 A 
ATOM     33  H   UNL     1      19.569  45.029  32.140  0.00  0.00    +0.000 HD
ENDROOT
TORSDOF 0
ENDMDL
MODEL 8
REMARK VINA RESULT:    -2.208     15.945     17.381
REMARK INTER + INTRA:          -2.208
REMARK INTER:                  -2.208
REMARK INTRA:                   0.000
REMARK UNBOUND:                 0.000
REMARK  Name = /home/vital/Documents/PhD_2021/Malaria_codes/scripts/../data/pdbqt_ligands/ligand_91_temp.pdb
REMARK                            x       y       z     vdW  Elec       q    Type
REMARK                         _______ _______ _______ _____ _____    ______ ____
ROOT
ATOM      1  C1  UNL     1      16.690  42.478  13.803  0.00  0.00    -0.031 C 
ATOM      2  C2  UNL     1      16.830  41.042  14.277  0.00  0.00    +0.087 C 
ATOM      3  O1  UNL     1      16.657  40.186  13.149  0.00  0.00    -0.492 OA
ATOM      4  C3  UNL     1      16.766  38.841  13.364  0.00  0.00    +0.121 A 
ATOM      5  C4  UNL     1      16.996  38.219  14.590  0.00  0.00    -0.019 A 
ATOM      6  C5  UNL     1      17.095  36.821  14.668  0.00  0.00    -0.049 A 
ATOM      7  C6  UNL     1      16.965  36.023  13.522  0.00  0.00    +0.002 A 
ATOM      8  C7  UNL     1      17.083  34.561  13.590  0.00  0.00    +0.094 A 
ATOM      9  C8  UNL     1      17.563  33.767  14.667  0.00  0.00    -0.006 A 
ATOM     10  C9  UNL     1      17.488  32.467  14.226  0.00  0.00    +0.099 A 
ATOM     11  C10 UNL     1      17.810  31.175  14.759  0.00  0.00    +0.123 A 
ATOM     12  S1  UNL     1      18.475  31.140  16.370  0.00  0.00    -0.094 S 
ATOM     13  C11 UNL     1      19.719  29.833  16.172  0.00  0.00    +0.077 C 
ATOM     14  C12 UNL     1      19.229  28.456  16.604  0.00  0.00    +0.228 C 
ATOM     15  O2  UNL     1      19.970  27.730  17.266  0.00  0.00    -0.275 OA
ATOM     16  N1  UNL     1      18.010  28.087  16.067  0.00  0.00    -0.282 N 
ATOM     17  C13 UNL     1      17.269  26.920  16.353  0.00  0.00    +0.077 A 
ATOM     18  C14 UNL     1      16.444  26.445  15.323  0.00  0.00    -0.019 A 
ATOM     19  C15 UNL     1      15.681  25.292  15.503  0.00  0.00    +0.043 A 
ATOM     20 CL1  UNL     1      14.690  24.717  14.220  0.00  0.00    -0.083 Cl
ATOM     21  C16 UNL     1      15.705  24.609  16.715  0.00  0.00    -0.040 A 
ATOM     22  C17 UNL     1      16.488  25.095  17.762  0.00  0.00    -0.017 A 
ATOM     23  C18 UNL     1      17.270  26.248  17.588  0.00  0.00    +0.141 A 
ATOM     24  O3  UNL     1      17.887  26.818  18.672  0.00  0.00    -0.493 OA
ATOM     25  C19 UNL     1      18.773  25.922  19.342  0.00  0.00    +0.079 C 
ATOM     26  N2  UNL     1      17.620  30.065  14.099  0.00  0.00    -0.245 NA
ATOM     27  C20 UNL     1      17.092  30.172  12.825  0.00  0.00    +0.047 A 
ATOM     28  C21 UNL     1      16.773  31.339  12.248  0.00  0.00    +0.048 A 
ATOM     29  N3  UNL     1      16.972  32.516  12.951  0.00  0.00    -0.235 N 
ATOM     30  N4  UNL     1      16.732  33.780  12.554  0.00  0.00    -0.166 NA
ATOM     31  C22 UNL     1      16.725  36.661  12.297  0.00  0.00    -0.049 A 
ATOM     32  C23 UNL     1      16.627  38.055  12.221  0.00  0.00    -0.019 A 
ATOM     33  H   UNL     1      17.614  28.707  15.413  0.00  0.00    +0.000 HD
ENDROOT
TORSDOF 0
ENDMDL
