MODEL 1
REMARK VINA RESULT:    -3.360      0.000      0.000
REMARK INTER + INTRA:          -3.360
REMARK INTER:                  -3.360
REMARK INTRA:                   0.000
REMARK UNBOUND:                 0.000
REMARK  Name = /home/vital/Documents/PhD_2021/Malaria_codes/scripts/../data/pdbqt_ligands/ligand_85_temp.pdb
REMARK                            x       y       z     vdW  Elec       q    Type
REMARK                         _______ _______ _______ _____ _____    ______ ____
ROOT
ATOM      1  C1  UNL     1      20.300  25.582  17.075  0.00  0.00    -0.085 C 
ATOM      2  C2  UNL     1      19.550  25.570  18.178  0.00  0.00    -0.017 C 
ATOM      3  N1  UNL     1      19.803  24.847  19.314  0.00  0.00    -0.343 N 
ATOM      4  C3  UNL     1      18.899  24.652  20.462  0.00  0.00    +0.063 C 
ATOM      5  C4  UNL     1      17.820  23.578  20.191  0.00  0.00    +0.061 C 
ATOM      6  N2  UNL     1      16.870  23.984  19.140  0.00  0.00    -0.275 NA
ATOM      7  C5  UNL     1      17.067  23.421  18.002  0.00  0.00    +0.076 C 
ATOM      8  N3  UNL     1      16.340  23.648  16.866  0.00  0.00    -0.332 N 
ATOM      9  C6  UNL     1      15.499  24.820  16.768  0.00  0.00    +0.029 C 
ATOM     10  C7  UNL     1      14.764  24.731  15.464  0.00  0.00    -0.059 C 
ATOM     11  C8  UNL     1      15.022  25.411  14.338  0.00  0.00    -0.012 C 
ATOM     12  C9  UNL     1      16.102  26.326  14.202  0.00  0.00    -0.039 C 
ATOM     13  C10 UNL     1      17.024  27.085  14.075  0.00  0.00    +0.110 C 
ATOM     14  F1  UNL     1      18.062  27.923  13.933  0.00  0.00    -0.143 F 
ATOM     15  C11 UNL     1      18.302  25.975  20.984  0.00  0.00    +0.068 C 
ATOM     16  O1  UNL     1      17.814  25.847  22.327  0.00  0.00    -0.378 OA
ATOM     17  C12 UNL     1      18.812  26.131  23.306  0.00  0.00    +0.048 C 
ATOM     18  C13 UNL     1      18.230  25.905  24.699  0.00  0.00    -0.029 C 
ATOM     19  C14 UNL     1      17.053  26.840  24.994  0.00  0.00    -0.049 C 
ATOM     20  C15 UNL     1      16.534  26.642  26.419  0.00  0.00    -0.033 C 
ATOM     21  C16 UNL     1      15.350  27.561  26.714  0.00  0.00    +0.039 C 
ATOM     22  N4  UNL     1      14.942  27.354  28.107  0.00  0.00    -0.299 NA
ATOM     23  C17 UNL     1      13.959  28.102  28.462  0.00  0.00    -0.014 C 
ATOM     24  H   UNL     1      20.684  24.410  19.369  0.00  0.00    +0.000 HD
ATOM     25  H   UNL     1      16.388  23.013  16.115  0.00  0.00    +0.000 HD
ENDROOT
TORSDOF 0
ENDMDL
MODEL 2
REMARK VINA RESULT:    -2.652     17.493     20.020
REMARK INTER + INTRA:          -2.652
REMARK INTER:                  -2.652
REMARK INTRA:                   0.000
REMARK UNBOUND:                 0.000
REMARK  Name = /home/vital/Documents/PhD_2021/Malaria_codes/scripts/../data/pdbqt_ligands/ligand_85_temp.pdb
REMARK                            x       y       z     vdW  Elec       q    Type
REMARK                         _______ _______ _______ _____ _____    ______ ____
ROOT
ATOM      1  C1  UNL     1      14.700  42.263  22.819  0.00  0.00    -0.085 C 
ATOM      2  C2  UNL     1      15.022  42.907  23.942  0.00  0.00    -0.017 C 
ATOM      3  N1  UNL     1      14.200  43.738  24.656  0.00  0.00    -0.343 N 
ATOM      4  C3  UNL     1      14.583  44.617  25.776  0.00  0.00    +0.063 C 
ATOM      5  C4  UNL     1      15.252  45.927  25.298  0.00  0.00    +0.061 C 
ATOM      6  N2  UNL     1      16.557  45.693  24.655  0.00  0.00    -0.275 NA
ATOM      7  C5  UNL     1      16.537  45.769  23.373  0.00  0.00    +0.076 C 
ATOM      8  N3  UNL     1      17.609  45.569  22.547  0.00  0.00    -0.332 N 
ATOM      9  C6  UNL     1      18.790  44.898  23.045  0.00  0.00    +0.029 C 
ATOM     10  C7  UNL     1      19.811  44.925  21.948  0.00  0.00    -0.059 C 
ATOM     11  C8  UNL     1      20.162  43.914  21.140  0.00  0.00    -0.012 C 
ATOM     12  C9  UNL     1      19.562  42.625  21.188  0.00  0.00    -0.039 C 
ATOM     13  C10 UNL     1      19.045  41.542  21.209  0.00  0.00    +0.110 C 
ATOM     14  F1  UNL     1      18.457  40.335  21.228  0.00  0.00    -0.143 F 
ATOM     15  C11 UNL     1      15.409  43.887  26.855  0.00  0.00    +0.068 C 
ATOM     16  O1  UNL     1      15.385  44.585  28.108  0.00  0.00    -0.378 OA
ATOM     17  C12 UNL     1      14.298  44.188  28.941  0.00  0.00    +0.048 C 
ATOM     18  C13 UNL     1      14.309  45.025  30.218  0.00  0.00    -0.029 C 
ATOM     19  C14 UNL     1      15.585  44.814  31.038  0.00  0.00    -0.049 C 
ATOM     20  C15 UNL     1      15.540  45.608  32.344  0.00  0.00    -0.033 C 
ATOM     21  C16 UNL     1      16.817  45.413  33.159  0.00  0.00    +0.039 C 
ATOM     22  N4  UNL     1      16.680  46.159  34.414  0.00  0.00    -0.299 NA
ATOM     23  C17 UNL     1      17.702  46.041  35.186  0.00  0.00    -0.014 C 
ATOM     24  H   UNL     1      13.251  43.748  24.394  0.00  0.00    +0.000 HD
ATOM     25  H   UNL     1      17.577  45.880  21.614  0.00  0.00    +0.000 HD
ENDROOT
TORSDOF 0
ENDMDL
MODEL 3
REMARK VINA RESULT:    -2.634      3.257      4.493
REMARK INTER + INTRA:          -2.634
REMARK INTER:                  -2.634
REMARK INTRA:                   0.000
REMARK UNBOUND:                 0.000
REMARK  Name = /home/vital/Documents/PhD_2021/Malaria_codes/scripts/../data/pdbqt_ligands/ligand_85_temp.pdb
REMARK                            x       y       z     vdW  Elec       q    Type
REMARK                         _______ _______ _______ _____ _____    ______ ____
ROOT
ATOM      1  C1  UNL     1      19.520  27.655  13.704  0.00  0.00    -0.085 C 
ATOM      2  C2  UNL     1      18.936  27.498  14.893  0.00  0.00    -0.017 C 
ATOM      3  N1  UNL     1      18.682  26.304  15.512  0.00  0.00    -0.343 N 
ATOM      4  C3  UNL     1      17.864  26.086  16.719  0.00  0.00    +0.063 C 
ATOM      5  C4  UNL     1      16.347  26.086  16.415  0.00  0.00    +0.061 C 
ATOM      6  N2  UNL     1      15.861  27.405  15.969  0.00  0.00    -0.275 NA
ATOM      7  C5  UNL     1      15.653  27.493  14.705  0.00  0.00    +0.076 C 
ATOM      8  N3  UNL     1      15.227  28.612  14.044  0.00  0.00    -0.332 N 
ATOM      9  C6  UNL     1      15.313  29.906  14.684  0.00  0.00    +0.029 C 
ATOM     10  C7  UNL     1      14.680  30.901  13.759  0.00  0.00    -0.059 C 
ATOM     11  C8  UNL     1      15.304  31.785  12.967  0.00  0.00    -0.012 C 
ATOM     12  C9  UNL     1      16.719  31.882  12.858  0.00  0.00    -0.039 C 
ATOM     13  C10 UNL     1      17.912  31.955  12.746  0.00  0.00    +0.110 C 
ATOM     14  F1  UNL     1      19.245  32.025  12.615  0.00  0.00    -0.143 F 
ATOM     15  C11 UNL     1      18.238  27.037  17.875  0.00  0.00    +0.068 C 
ATOM     16  O1  UNL     1      17.785  26.540  19.143  0.00  0.00    -0.378 OA
ATOM     17  C12 UNL     1      18.743  25.695  19.778  0.00  0.00    +0.048 C 
ATOM     18  C13 UNL     1      18.156  25.158  21.081  0.00  0.00    -0.029 C 
ATOM     19  C14 UNL     1      17.834  26.277  22.076  0.00  0.00    -0.049 C 
ATOM     20  C15 UNL     1      17.314  25.709  23.397  0.00  0.00    -0.033 C 
ATOM     21  C16 UNL     1      16.977  26.821  24.388  0.00  0.00    +0.039 C 
ATOM     22  N4  UNL     1      16.537  26.202  25.642  0.00  0.00    -0.299 NA
ATOM     23  C17 UNL     1      16.248  27.061  26.555  0.00  0.00    -0.014 C 
ATOM     24  H   UNL     1      19.090  25.504  15.108  0.00  0.00    +0.000 HD
ATOM     25  H   UNL     1      14.860  28.537  13.134  0.00  0.00    +0.000 HD
ENDROOT
TORSDOF 0
ENDMDL
MODEL 4
REMARK VINA RESULT:    -2.527     18.077     19.278
REMARK INTER + INTRA:          -2.527
REMARK INTER:                  -2.527
REMARK INTRA:                   0.000
REMARK UNBOUND:                 0.000
REMARK  Name = /home/vital/Documents/PhD_2021/Malaria_codes/scripts/../data/pdbqt_ligands/ligand_85_temp.pdb
REMARK                            x       y       z     vdW  Elec       q    Type
REMARK                         _______ _______ _______ _____ _____    ______ ____
ROOT
ATOM      1  C1  UNL     1      19.318  47.130  18.524  0.00  0.00    -0.085 C 
ATOM      2  C2  UNL     1      19.723  46.075  19.232  0.00  0.00    -0.017 C 
ATOM      3  N1  UNL     1      19.502  45.870  20.568  0.00  0.00    -0.343 N 
ATOM      4  C3  UNL     1      20.105  44.827  21.418  0.00  0.00    +0.063 C 
ATOM      5  C4  UNL     1      21.546  45.180  21.858  0.00  0.00    +0.061 C 
ATOM      6  N2  UNL     1      22.489  45.213  20.726  0.00  0.00    -0.275 NA
ATOM      7  C5  UNL     1      22.805  46.394  20.334  0.00  0.00    +0.076 C 
ATOM      8  N3  UNL     1      23.640  46.690  19.291  0.00  0.00    -0.332 N 
ATOM      9  C6  UNL     1      23.961  45.675  18.312  0.00  0.00    +0.029 C 
ATOM     10  C7  UNL     1      24.965  46.270  17.371  0.00  0.00    -0.059 C 
ATOM     11  C8  UNL     1      24.746  46.720  16.127  0.00  0.00    -0.012 C 
ATOM     12  C9  UNL     1      23.464  46.733  15.510  0.00  0.00    -0.039 C 
ATOM     13  C10 UNL     1      22.382  46.766  14.992  0.00  0.00    +0.110 C 
ATOM     14  F1  UNL     1      21.168  46.811  14.421  0.00  0.00    -0.143 F 
ATOM     15  C11 UNL     1      20.002  43.418  20.800  0.00  0.00    +0.068 C 
ATOM     16  O1  UNL     1      20.161  42.389  21.787  0.00  0.00    -0.378 OA
ATOM     17  C12 UNL     1      18.927  42.009  22.392  0.00  0.00    +0.048 C 
ATOM     18  C13 UNL     1      19.196  40.964  23.472  0.00  0.00    -0.029 C 
ATOM     19  C14 UNL     1      19.812  39.685  22.901  0.00  0.00    -0.049 C 
ATOM     20  C15 UNL     1      20.007  38.630  23.991  0.00  0.00    -0.033 C 
ATOM     21  C16 UNL     1      20.636  37.357  23.430  0.00  0.00    +0.039 C 
ATOM     22  N4  UNL     1      20.743  36.378  24.516  0.00  0.00    -0.299 NA
ATOM     23  C17 UNL     1      21.245  35.256  24.138  0.00  0.00    -0.014 C 
ATOM     24  H   UNL     1      18.873  46.486  21.008  0.00  0.00    +0.000 HD
ATOM     25  H   UNL     1      24.023  47.593  19.207  0.00  0.00    +0.000 HD
ENDROOT
TORSDOF 0
ENDMDL
MODEL 5
REMARK VINA RESULT:    -2.286     17.684     18.677
REMARK INTER + INTRA:          -2.286
REMARK INTER:                  -2.286
REMARK INTRA:                   0.000
REMARK UNBOUND:                 0.000
REMARK  Name = /home/vital/Documents/PhD_2021/Malaria_codes/scripts/../data/pdbqt_ligands/ligand_85_temp.pdb
REMARK                            x       y       z     vdW  Elec       q    Type
REMARK                         _______ _______ _______ _____ _____    ______ ____
ROOT
ATOM      1  C1  UNL     1      24.142  41.657  18.436  0.00  0.00    -0.085 C 
ATOM      2  C2  UNL     1      22.950  42.015  18.914  0.00  0.00    -0.017 C 
ATOM      3  N1  UNL     1      21.883  41.182  19.119  0.00  0.00    -0.343 N 
ATOM      4  C3  UNL     1      20.500  41.574  19.449  0.00  0.00    +0.063 C 
ATOM      5  C4  UNL     1      19.707  42.048  18.209  0.00  0.00    +0.061 C 
ATOM      6  N2  UNL     1      20.237  43.303  17.645  0.00  0.00    -0.275 NA
ATOM      7  C5  UNL     1      20.934  43.150  16.577  0.00  0.00    +0.076 C 
ATOM      8  N3  UNL     1      21.552  44.152  15.880  0.00  0.00    -0.332 N 
ATOM      9  C6  UNL     1      21.763  45.440  16.500  0.00  0.00    +0.029 C 
ATOM     10  C7  UNL     1      22.360  46.341  15.461  0.00  0.00    -0.059 C 
ATOM     11  C8  UNL     1      23.641  46.719  15.353  0.00  0.00    -0.012 C 
ATOM     12  C9  UNL     1      24.670  46.269  16.226  0.00  0.00    -0.039 C 
ATOM     13  C10 UNL     1      25.546  45.877  16.947  0.00  0.00    +0.110 C 
ATOM     14  F1  UNL     1      26.525  45.427  17.748  0.00  0.00    -0.143 F 
ATOM     15  C11 UNL     1      20.426  42.576  20.620  0.00  0.00    +0.068 C 
ATOM     16  O1  UNL     1      19.123  42.599  21.221  0.00  0.00    -0.378 OA
ATOM     17  C12 UNL     1      18.984  41.647  22.273  0.00  0.00    +0.048 C 
ATOM     18  C13 UNL     1      17.554  41.692  22.807  0.00  0.00    -0.029 C 
ATOM     19  C14 UNL     1      17.201  43.057  23.405  0.00  0.00    -0.049 C 
ATOM     20  C15 UNL     1      15.790  43.054  23.995  0.00  0.00    -0.033 C 
ATOM     21  C16 UNL     1      15.427  44.418  24.579  0.00  0.00    +0.039 C 
ATOM     22  N4  UNL     1      14.088  44.324  25.170  0.00  0.00    -0.299 NA
ATOM     23  C17 UNL     1      13.696  45.423  25.710  0.00  0.00    -0.014 C 
ATOM     24  H   UNL     1      22.058  40.216  19.038  0.00  0.00    +0.000 HD
ATOM     25  H   UNL     1      21.853  43.995  14.956  0.00  0.00    +0.000 HD
ENDROOT
TORSDOF 0
ENDMDL
MODEL 6
REMARK VINA RESULT:    -2.262      6.779     10.535
REMARK INTER + INTRA:          -2.262
REMARK INTER:                  -2.262
REMARK INTRA:                   0.000
REMARK UNBOUND:                 0.000
REMARK  Name = /home/vital/Documents/PhD_2021/Malaria_codes/scripts/../data/pdbqt_ligands/ligand_85_temp.pdb
REMARK                            x       y       z     vdW  Elec       q    Type
REMARK                         _______ _______ _______ _____ _____    ______ ____
ROOT
ATOM      1  C1  UNL     1      16.017  30.345  16.977  0.00  0.00    -0.085 C 
ATOM      2  C2  UNL     1      17.097  30.072  16.244  0.00  0.00    -0.017 C 
ATOM      3  N1  UNL     1      17.748  30.947  15.415  0.00  0.00    -0.343 N 
ATOM      4  C3  UNL     1      18.810  30.626  14.444  0.00  0.00    +0.063 C 
ATOM      5  C4  UNL     1      18.253  30.022  13.134  0.00  0.00    +0.061 C 
ATOM      6  N2  UNL     1      17.637  28.698  13.338  0.00  0.00    -0.275 NA
ATOM      7  C5  UNL     1      16.354  28.707  13.347  0.00  0.00    +0.076 C 
ATOM      8  N3  UNL     1      15.552  27.616  13.543  0.00  0.00    -0.332 N 
ATOM      9  C6  UNL     1      16.103  26.407  14.114  0.00  0.00    +0.029 C 
ATOM     10  C7  UNL     1      15.015  25.376  14.103  0.00  0.00    -0.059 C 
ATOM     11  C8  UNL     1      14.279  24.961  15.145  0.00  0.00    -0.012 C 
ATOM     12  C9  UNL     1      14.407  25.491  16.458  0.00  0.00    -0.039 C 
ATOM     13  C10 UNL     1      14.495  25.949  17.565  0.00  0.00    +0.110 C 
ATOM     14  F1  UNL     1      14.589  26.471  18.797  0.00  0.00    -0.143 F 
ATOM     15  C11 UNL     1      19.942  29.774  15.056  0.00  0.00    +0.068 C 
ATOM     16  O1  UNL     1      21.146  29.851  14.279  0.00  0.00    -0.378 OA
ATOM     17  C12 UNL     1      21.994  30.925  14.680  0.00  0.00    +0.048 C 
ATOM     18  C13 UNL     1      23.213  30.975  13.762  0.00  0.00    -0.029 C 
ATOM     19  C14 UNL     1      24.056  29.700  13.849  0.00  0.00    -0.049 C 
ATOM     20  C15 UNL     1      25.306  29.803  12.974  0.00  0.00    -0.033 C 
ATOM     21  C16 UNL     1      26.144  28.528  13.045  0.00  0.00    +0.039 C 
ATOM     22  N4  UNL     1      27.346  28.720  12.227  0.00  0.00    -0.299 NA
ATOM     23  C17 UNL     1      28.132  27.702  12.238  0.00  0.00    -0.014 C 
ATOM     24  H   UNL     1      17.477  31.892  15.473  0.00  0.00    +0.000 HD
ATOM     25  H   UNL     1      14.600  27.653  13.295  0.00  0.00    +0.000 HD
ENDROOT
TORSDOF 0
ENDMDL
MODEL 7
REMARK VINA RESULT:    -2.208      8.550     11.999
REMARK INTER + INTRA:          -2.208
REMARK INTER:                  -2.208
REMARK INTRA:                   0.000
REMARK UNBOUND:                 0.000
REMARK  Name = /home/vital/Documents/PhD_2021/Malaria_codes/scripts/../data/pdbqt_ligands/ligand_85_temp.pdb
REMARK                            x       y       z     vdW  Elec       q    Type
REMARK                         _______ _______ _______ _____ _____    ______ ____
ROOT
ATOM      1  C1  UNL     1      17.645  37.507  16.873  0.00  0.00    -0.085 C 
ATOM      2  C2  UNL     1      17.147  36.270  16.845  0.00  0.00    -0.017 C 
ATOM      3  N1  UNL     1      15.975  35.889  16.246  0.00  0.00    -0.343 N 
ATOM      4  C3  UNL     1      15.299  34.585  16.369  0.00  0.00    +0.063 C 
ATOM      5  C4  UNL     1      14.499  34.454  17.686  0.00  0.00    +0.061 C 
ATOM      6  N2  UNL     1      15.369  34.443  18.876  0.00  0.00    -0.275 NA
ATOM      7  C5  UNL     1      15.389  35.548  19.529  0.00  0.00    +0.076 C 
ATOM      8  N3  UNL     1      16.133  35.798  20.649  0.00  0.00    -0.332 N 
ATOM      9  C6  UNL     1      17.241  34.933  20.988  0.00  0.00    +0.029 C 
ATOM     10  C7  UNL     1      17.781  35.402  22.306  0.00  0.00    -0.059 C 
ATOM     11  C8  UNL     1      18.896  36.116  22.519  0.00  0.00    -0.012 C 
ATOM     12  C9  UNL     1      19.742  36.583  21.475  0.00  0.00    -0.039 C 
ATOM     13  C10 UNL     1      20.449  36.998  20.598  0.00  0.00    +0.110 C 
ATOM     14  F1  UNL     1      21.230  37.470  19.614  0.00  0.00    -0.143 F 
ATOM     15  C11 UNL     1      16.249  33.393  16.130  0.00  0.00    +0.068 C 
ATOM     16  O1  UNL     1      15.530  32.195  15.803  0.00  0.00    -0.378 OA
ATOM     17  C12 UNL     1      15.303  32.053  14.402  0.00  0.00    +0.048 C 
ATOM     18  C13 UNL     1      14.478  30.793  14.150  0.00  0.00    -0.029 C 
ATOM     19  C14 UNL     1      15.203  29.524  14.605  0.00  0.00    -0.049 C 
ATOM     20  C15 UNL     1      14.386  28.273  14.279  0.00  0.00    -0.033 C 
ATOM     21  C16 UNL     1      15.097  27.005  14.744  0.00  0.00    +0.039 C 
ATOM     22  N4  UNL     1      14.283  25.850  14.353  0.00  0.00    -0.299 NA
ATOM     23  C17 UNL     1      14.811  24.724  14.683  0.00  0.00    -0.014 C 
ATOM     24  H   UNL     1      15.539  36.558  15.670  0.00  0.00    +0.000 HD
ATOM     25  H   UNL     1      15.914  36.566  21.224  0.00  0.00    +0.000 HD
ENDROOT
TORSDOF 0
ENDMDL
MODEL 8
REMARK VINA RESULT:    -2.050     18.248     21.377
REMARK INTER + INTRA:          -2.050
REMARK INTER:                  -2.050
REMARK INTRA:                   0.000
REMARK UNBOUND:                 0.000
REMARK  Name = /home/vital/Documents/PhD_2021/Malaria_codes/scripts/../data/pdbqt_ligands/ligand_85_temp.pdb
REMARK                            x       y       z     vdW  Elec       q    Type
REMARK                         _______ _______ _______ _____ _____    ______ ____
ROOT
ATOM      1  C1  UNL     1      18.184  45.513  28.063  0.00  0.00    -0.085 C 
ATOM      2  C2  UNL     1      18.329  45.427  26.740  0.00  0.00    -0.017 C 
ATOM      3  N1  UNL     1      17.482  45.955  25.803  0.00  0.00    -0.343 N 
ATOM      4  C3  UNL     1      17.500  45.707  24.349  0.00  0.00    +0.063 C 
ATOM      5  C4  UNL     1      16.845  44.358  23.970  0.00  0.00    +0.061 C 
ATOM      6  N2  UNL     1      17.607  43.200  24.472  0.00  0.00    -0.275 NA
ATOM      7  C5  UNL     1      17.096  42.638  25.507  0.00  0.00    +0.076 C 
ATOM      8  N3  UNL     1      17.624  41.566  26.173  0.00  0.00    -0.332 N 
ATOM      9  C6  UNL     1      19.006  41.195  25.965  0.00  0.00    +0.029 C 
ATOM     10  C7  UNL     1      19.250  39.937  26.743  0.00  0.00    -0.059 C 
ATOM     11  C8  UNL     1      19.893  39.818  27.913  0.00  0.00    -0.012 C 
ATOM     12  C9  UNL     1      20.428  40.922  28.633  0.00  0.00    -0.039 C 
ATOM     13  C10 UNL     1      20.862  41.852  29.255  0.00  0.00    +0.110 C 
ATOM     14  F1  UNL     1      21.337  42.896  29.953  0.00  0.00    -0.143 F 
ATOM     15  C11 UNL     1      18.903  45.881  23.730  0.00  0.00    +0.068 C 
ATOM     16  O1  UNL     1      18.838  46.089  22.312  0.00  0.00    -0.378 OA
ATOM     17  C12 UNL     1      18.718  47.466  21.961  0.00  0.00    +0.048 C 
ATOM     18  C13 UNL     1      18.587  47.590  20.445  0.00  0.00    -0.029 C 
ATOM     19  C14 UNL     1      19.822  47.059  19.711  0.00  0.00    -0.049 C 
ATOM     20  C15 UNL     1      19.695  47.259  18.200  0.00  0.00    -0.033 C 
ATOM     21  C16 UNL     1      20.917  46.717  17.461  0.00  0.00    +0.039 C 
ATOM     22  N4  UNL     1      20.749  46.989  16.030  0.00  0.00    -0.299 NA
ATOM     23  C17 UNL     1      21.742  46.587  15.319  0.00  0.00    -0.014 C 
ATOM     24  H   UNL     1      16.786  46.567  26.135  0.00  0.00    +0.000 HD
ATOM     25  H   UNL     1      17.064  41.047  26.793  0.00  0.00    +0.000 HD
ENDROOT
TORSDOF 0
ENDMDL
