MODEL 1
REMARK VINA RESULT:    -4.149      0.000      0.000
REMARK INTER + INTRA:          -4.149
REMARK INTER:                  -4.149
REMARK INTRA:                   0.000
REMARK UNBOUND:                 0.000
REMARK  Name = /home/vital/Documents/PhD_2021/Malaria_codes/scripts/../data/pdbqt_ligands/ligand_106_temp.pdb
REMARK                            x       y       z     vdW  Elec       q    Type
REMARK                         _______ _______ _______ _____ _____    ______ ____
ROOT
ATOM      1  C1  UNL     1      20.532  24.518  20.950  0.00  0.00    -0.118 C 
ATOM      2  C2  UNL     1      20.044  23.946  20.012  0.00  0.00    -0.095 C 
ATOM      3  C3  UNL     1      19.452  23.247  18.866  0.00  0.00    +0.055 C 
ATOM      4  S1  UNL     1      17.688  23.645  18.690  0.00  0.00    -0.146 S 
ATOM      5  C4  UNL     1      17.313  22.590  17.252  0.00  0.00    +0.010 C 
ATOM      6  C5  UNL     1      15.874  22.737  16.735  0.00  0.00    +0.018 C 
ATOM      7  N1  UNL     1      15.666  23.950  15.940  0.00  0.00    -0.343 N 
ATOM      8  C6  UNL     1      15.198  25.165  16.464  0.00  0.00    +0.038 A 
ATOM      9  C7  UNL     1      14.645  25.262  17.741  0.00  0.00    -0.022 A 
ATOM     10  C8  UNL     1      14.176  26.482  18.189  0.00  0.00    +0.030 A 
ATOM     11  N2  UNL     1      14.182  27.608  17.453  0.00  0.00    -0.255 NA
ATOM     12  C9  UNL     1      14.653  27.530  16.203  0.00  0.00    +0.074 A 
ATOM     13  C10 UNL     1      14.621  28.688  15.442  0.00  0.00    -0.017 A 
ATOM     14  C11 UNL     1      15.063  28.699  14.122  0.00  0.00    +0.043 A 
ATOM     15 CL1  UNL     1      15.003  30.156  13.209  0.00  0.00    -0.083 Cl
ATOM     16  C12 UNL     1      15.543  27.538  13.536  0.00  0.00    -0.043 A 
ATOM     17  C13 UNL     1      15.587  26.364  14.288  0.00  0.00    -0.049 A 
ATOM     18  C14 UNL     1      15.159  26.331  15.639  0.00  0.00    +0.021 A 
ATOM     19  H   UNL     1      15.869  23.910  14.977  0.00  0.00    +0.000 HD
ENDROOT
TORSDOF 0
ENDMDL
MODEL 2
REMARK VINA RESULT:    -3.750      1.899      2.936
REMARK INTER + INTRA:          -3.750
REMARK INTER:                  -3.750
REMARK INTRA:                   0.000
REMARK UNBOUND:                 0.000
REMARK  Name = /home/vital/Documents/PhD_2021/Malaria_codes/scripts/../data/pdbqt_ligands/ligand_106_temp.pdb
REMARK                            x       y       z     vdW  Elec       q    Type
REMARK                         _______ _______ _______ _____ _____    ______ ____
ROOT
ATOM      1  C1  UNL     1      19.870  23.756  18.400  0.00  0.00    -0.118 C 
ATOM      2  C2  UNL     1      18.736  23.719  18.007  0.00  0.00    -0.095 C 
ATOM      3  C3  UNL     1      17.351  23.670  17.523  0.00  0.00    +0.055 C 
ATOM      4  S1  UNL     1      16.390  25.087  18.134  0.00  0.00    -0.146 S 
ATOM      5  C4  UNL     1      14.778  24.661  17.395  0.00  0.00    +0.010 C 
ATOM      6  C5  UNL     1      13.691  25.721  17.628  0.00  0.00    +0.018 C 
ATOM      7  N1  UNL     1      13.823  26.886  16.750  0.00  0.00    -0.343 N 
ATOM      8  C6  UNL     1      14.508  28.061  17.097  0.00  0.00    +0.038 A 
ATOM      9  C7  UNL     1      14.912  28.329  18.405  0.00  0.00    -0.022 A 
ATOM     10  C8  UNL     1      15.558  29.518  18.687  0.00  0.00    +0.030 A 
ATOM     11  N2  UNL     1      15.804  30.477  17.777  0.00  0.00    -0.255 NA
ATOM     12  C9  UNL     1      15.374  30.271  16.526  0.00  0.00    +0.074 A 
ATOM     13  C10 UNL     1      15.601  31.281  15.605  0.00  0.00    -0.017 A 
ATOM     14  C11 UNL     1      15.167  31.171  14.287  0.00  0.00    +0.043 A 
ATOM     15 CL1  UNL     1      15.465  32.449  13.175  0.00  0.00    -0.083 Cl
ATOM     16  C12 UNL     1      14.487  30.038  13.869  0.00  0.00    -0.043 A 
ATOM     17  C13 UNL     1      14.253  29.008  14.781  0.00  0.00    -0.049 A 
ATOM     18  C14 UNL     1      14.701  29.090  16.124  0.00  0.00    +0.021 A 
ATOM     19  H   UNL     1      13.404  26.842  15.859  0.00  0.00    +0.000 HD
ENDROOT
TORSDOF 0
ENDMDL
MODEL 3
REMARK VINA RESULT:    -3.455     20.637     22.673
REMARK INTER + INTRA:          -3.455
REMARK INTER:                  -3.455
REMARK INTRA:                   0.000
REMARK UNBOUND:                 0.000
REMARK  Name = /home/vital/Documents/PhD_2021/Malaria_codes/scripts/../data/pdbqt_ligands/ligand_106_temp.pdb
REMARK                            x       y       z     vdW  Elec       q    Type
REMARK                         _______ _______ _______ _____ _____    ______ ____
ROOT
ATOM      1  C1  UNL     1      20.158  45.204  22.628  0.00  0.00    -0.118 C 
ATOM      2  C2  UNL     1      19.222  45.945  22.759  0.00  0.00    -0.095 C 
ATOM      3  C3  UNL     1      18.082  46.855  22.919  0.00  0.00    +0.055 C 
ATOM      4  S1  UNL     1      16.577  45.950  23.387  0.00  0.00    -0.146 S 
ATOM      5  C4  UNL     1      15.417  47.356  23.437  0.00  0.00    +0.010 C 
ATOM      6  C5  UNL     1      14.005  46.977  23.906  0.00  0.00    +0.018 C 
ATOM      7  N1  UNL     1      13.905  46.803  25.357  0.00  0.00    -0.343 N 
ATOM      8  C6  UNL     1      14.042  45.569  26.013  0.00  0.00    +0.038 A 
ATOM      9  C7  UNL     1      14.034  44.355  25.326  0.00  0.00    -0.022 A 
ATOM     10  C8  UNL     1      14.144  43.173  26.033  0.00  0.00    +0.030 A 
ATOM     11  N2  UNL     1      14.228  43.101  27.373  0.00  0.00    -0.255 NA
ATOM     12  C9  UNL     1      14.179  44.247  28.061  0.00  0.00    +0.074 A 
ATOM     13  C10 UNL     1      14.230  44.159  29.443  0.00  0.00    -0.017 A 
ATOM     14  C11 UNL     1      14.158  45.295  30.245  0.00  0.00    +0.043 A 
ATOM     15 CL1  UNL     1      14.221  45.143  31.957  0.00  0.00    -0.083 Cl
ATOM     16  C12 UNL     1      14.027  46.549  29.669  0.00  0.00    -0.043 A 
ATOM     17  C13 UNL     1      13.978  46.658  28.279  0.00  0.00    -0.049 A 
ATOM     18  C14 UNL     1      14.067  45.518  27.441  0.00  0.00    +0.021 A 
ATOM     19  H   UNL     1      13.731  47.601  25.907  0.00  0.00    +0.000 HD
ENDROOT
TORSDOF 0
ENDMDL
MODEL 4
REMARK VINA RESULT:    -3.420      4.826      6.882
REMARK INTER + INTRA:          -3.420
REMARK INTER:                  -3.420
REMARK INTRA:                   0.000
REMARK UNBOUND:                 0.000
REMARK  Name = /home/vital/Documents/PhD_2021/Malaria_codes/scripts/../data/pdbqt_ligands/ligand_106_temp.pdb
REMARK                            x       y       z     vdW  Elec       q    Type
REMARK                         _______ _______ _______ _____ _____    ______ ____
ROOT
ATOM      1  C1  UNL     1      18.564  32.838  20.377  0.00  0.00    -0.118 C 
ATOM      2  C2  UNL     1      17.647  33.032  19.626  0.00  0.00    -0.095 C 
ATOM      3  C3  UNL     1      16.525  33.269  18.712  0.00  0.00    +0.055 C 
ATOM      4  S1  UNL     1      16.899  32.669  17.038  0.00  0.00    -0.146 S 
ATOM      5  C4  UNL     1      15.351  33.171  16.216  0.00  0.00    +0.010 C 
ATOM      6  C5  UNL     1      15.259  32.730  14.747  0.00  0.00    +0.018 C 
ATOM      7  N1  UNL     1      14.921  31.313  14.590  0.00  0.00    -0.343 N 
ATOM      8  C6  UNL     1      15.869  30.289  14.442  0.00  0.00    +0.038 A 
ATOM      9  C7  UNL     1      17.214  30.551  14.177  0.00  0.00    -0.022 A 
ATOM     10  C8  UNL     1      18.093  29.498  14.014  0.00  0.00    +0.030 A 
ATOM     11  N2  UNL     1      17.734  28.202  14.060  0.00  0.00    -0.255 NA
ATOM     12  C9  UNL     1      16.440  27.922  14.253  0.00  0.00    +0.074 A 
ATOM     13  C10 UNL     1      16.076  26.585  14.263  0.00  0.00    -0.017 A 
ATOM     14  C11 UNL     1      14.750  26.197  14.430  0.00  0.00    +0.043 A 
ATOM     15 CL1  UNL     1      14.338  24.527  14.432  0.00  0.00    -0.083 Cl
ATOM     16  C12 UNL     1      13.757  27.152  14.587  0.00  0.00    -0.043 A 
ATOM     17  C13 UNL     1      14.105  28.503  14.585  0.00  0.00    -0.049 A 
ATOM     18  C14 UNL     1      15.451  28.923  14.433  0.00  0.00    +0.021 A 
ATOM     19  H   UNL     1      13.968  31.063  14.588  0.00  0.00    +0.000 HD
ENDROOT
TORSDOF 0
ENDMDL
MODEL 5
REMARK VINA RESULT:    -3.382     20.122     21.759
REMARK INTER + INTRA:          -3.382
REMARK INTER:                  -3.382
REMARK INTRA:                   0.000
REMARK UNBOUND:                 0.000
REMARK  Name = /home/vital/Documents/PhD_2021/Malaria_codes/scripts/../data/pdbqt_ligands/ligand_106_temp.pdb
REMARK                            x       y       z     vdW  Elec       q    Type
REMARK                         _______ _______ _______ _____ _____    ______ ____
ROOT
ATOM      1  C1  UNL     1      14.705  46.590  31.224  0.00  0.00    -0.118 C 
ATOM      2  C2  UNL     1      14.808  45.624  30.518  0.00  0.00    -0.095 C 
ATOM      3  C3  UNL     1      14.937  44.443  29.658  0.00  0.00    +0.055 C 
ATOM      4  S1  UNL     1      14.189  44.729  28.027  0.00  0.00    -0.146 S 
ATOM      5  C4  UNL     1      14.489  43.086  27.296  0.00  0.00    +0.010 C 
ATOM      6  C5  UNL     1      14.056  42.974  25.827  0.00  0.00    +0.018 C 
ATOM      7  N1  UNL     1      15.002  43.596  24.897  0.00  0.00    -0.343 N 
ATOM      8  C6  UNL     1      14.896  44.916  24.431  0.00  0.00    +0.038 A 
ATOM      9  C7  UNL     1      13.742  45.679  24.611  0.00  0.00    -0.022 A 
ATOM     10  C8  UNL     1      13.690  46.963  24.104  0.00  0.00    +0.030 A 
ATOM     11  N2  UNL     1      14.683  47.537  23.402  0.00  0.00    -0.255 NA
ATOM     12  C9  UNL     1      15.779  46.807  23.164  0.00  0.00    +0.074 A 
ATOM     13  C10 UNL     1      16.781  47.396  22.409  0.00  0.00    -0.017 A 
ATOM     14  C11 UNL     1      17.945  46.705  22.086  0.00  0.00    +0.043 A 
ATOM     15 CL1  UNL     1      19.164  47.470  21.143  0.00  0.00    -0.083 Cl
ATOM     16  C12 UNL     1      18.124  45.399  22.514  0.00  0.00    -0.043 A 
ATOM     17  C13 UNL     1      17.128  44.791  23.279  0.00  0.00    -0.049 A 
ATOM     18  C14 UNL     1      15.941  45.479  23.635  0.00  0.00    +0.021 A 
ATOM     19  H   UNL     1      15.760  43.054  24.578  0.00  0.00    +0.000 HD
ENDROOT
TORSDOF 0
ENDMDL
MODEL 6
REMARK VINA RESULT:    -3.332      3.638      5.010
REMARK INTER + INTRA:          -3.332
REMARK INTER:                  -3.332
REMARK INTRA:                   0.000
REMARK UNBOUND:                 0.000
REMARK  Name = /home/vital/Documents/PhD_2021/Malaria_codes/scripts/../data/pdbqt_ligands/ligand_106_temp.pdb
REMARK                            x       y       z     vdW  Elec       q    Type
REMARK                         _______ _______ _______ _____ _____    ______ ____
ROOT
ATOM      1  C1  UNL     1      19.832  27.884  23.548  0.00  0.00    -0.118 C 
ATOM      2  C2  UNL     1      18.633  27.817  23.525  0.00  0.00    -0.095 C 
ATOM      3  C3  UNL     1      17.169  27.731  23.501  0.00  0.00    +0.055 C 
ATOM      4  S1  UNL     1      16.478  28.651  22.094  0.00  0.00    -0.146 S 
ATOM      5  C4  UNL     1      14.708  28.364  22.423  0.00  0.00    +0.010 C 
ATOM      6  C5  UNL     1      13.777  28.939  21.345  0.00  0.00    +0.018 C 
ATOM      7  N1  UNL     1      13.718  28.116  20.134  0.00  0.00    -0.343 N 
ATOM      8  C6  UNL     1      14.526  28.318  19.005  0.00  0.00    +0.038 A 
ATOM      9  C7  UNL     1      15.284  29.476  18.828  0.00  0.00    -0.022 A 
ATOM     10  C8  UNL     1      16.037  29.627  17.680  0.00  0.00    +0.030 A 
ATOM     11  N2  UNL     1      16.071  28.732  16.676  0.00  0.00    -0.255 NA
ATOM     12  C9  UNL     1      15.307  27.640  16.793  0.00  0.00    +0.074 A 
ATOM     13  C10 UNL     1      15.321  26.742  15.737  0.00  0.00    -0.017 A 
ATOM     14  C11 UNL     1      14.539  25.591  15.755  0.00  0.00    +0.043 A 
ATOM     15 CL1  UNL     1      14.582  24.503  14.423  0.00  0.00    -0.083 Cl
ATOM     16  C12 UNL     1      13.718  25.321  16.839  0.00  0.00    -0.043 A 
ATOM     17  C13 UNL     1      13.694  26.210  17.913  0.00  0.00    -0.049 A 
ATOM     18  C14 UNL     1      14.494  27.381  17.926  0.00  0.00    +0.021 A 
ATOM     19  H   UNL     1      13.071  27.374  20.112  0.00  0.00    +0.000 HD
ENDROOT
TORSDOF 0
ENDMDL
MODEL 7
REMARK VINA RESULT:    -3.318      4.024      5.477
REMARK INTER + INTRA:          -3.318
REMARK INTER:                  -3.318
REMARK INTRA:                   0.000
REMARK UNBOUND:                 0.000
REMARK  Name = /home/vital/Documents/PhD_2021/Malaria_codes/scripts/../data/pdbqt_ligands/ligand_106_temp.pdb
REMARK                            x       y       z     vdW  Elec       q    Type
REMARK                         _______ _______ _______ _____ _____    ______ ____
ROOT
ATOM      1  C1  UNL     1      13.690  28.349  20.363  0.00  0.00    -0.118 C 
ATOM      2  C2  UNL     1      13.948  27.629  19.437  0.00  0.00    -0.095 C 
ATOM      3  C3  UNL     1      14.266  26.746  18.309  0.00  0.00    +0.055 C 
ATOM      4  S1  UNL     1      14.035  27.597  16.720  0.00  0.00    -0.146 S 
ATOM      5  C4  UNL     1      14.458  26.216  15.607  0.00  0.00    +0.010 C 
ATOM      6  C5  UNL     1      14.463  26.599  14.120  0.00  0.00    +0.018 C 
ATOM      7  N1  UNL     1      15.665  27.335  13.717  0.00  0.00    -0.343 N 
ATOM      8  C6  UNL     1      15.759  28.735  13.687  0.00  0.00    +0.038 A 
ATOM      9  C7  UNL     1      14.638  29.559  13.795  0.00  0.00    -0.022 A 
ATOM     10  C8  UNL     1      14.794  30.930  13.730  0.00  0.00    +0.030 A 
ATOM     11  N2  UNL     1      15.972  31.547  13.532  0.00  0.00    -0.255 NA
ATOM     12  C9  UNL     1      17.055  30.779  13.367  0.00  0.00    +0.074 A 
ATOM     13  C10 UNL     1      18.258  31.423  13.128  0.00  0.00    -0.017 A 
ATOM     14  C11 UNL     1      19.434  30.708  12.915  0.00  0.00    +0.043 A 
ATOM     15 CL1  UNL     1      20.906  31.546  12.618  0.00  0.00    -0.083 Cl
ATOM     16  C12 UNL     1      19.421  29.322  12.935  0.00  0.00    -0.043 A 
ATOM     17  C13 UNL     1      18.220  28.656  13.178  0.00  0.00    -0.049 A 
ATOM     18  C14 UNL     1      17.013  29.362  13.414  0.00  0.00    +0.021 A 
ATOM     19  H   UNL     1      16.457  26.814  13.451  0.00  0.00    +0.000 HD
ENDROOT
TORSDOF 0
ENDMDL
MODEL 8
REMARK VINA RESULT:    -2.976     19.721     21.520
REMARK INTER + INTRA:          -2.976
REMARK INTER:                  -2.976
REMARK INTRA:                   0.000
REMARK UNBOUND:                 0.000
REMARK  Name = /home/vital/Documents/PhD_2021/Malaria_codes/scripts/../data/pdbqt_ligands/ligand_106_temp.pdb
REMARK                            x       y       z     vdW  Elec       q    Type
REMARK                         _______ _______ _______ _____ _____    ______ ____
ROOT
ATOM      1  C1  UNL     1      15.322  44.340  23.320  0.00  0.00    -0.118 C 
ATOM      2  C2  UNL     1      16.105  45.250  23.357  0.00  0.00    -0.095 C 
ATOM      3  C3  UNL     1      17.058  46.365  23.403  0.00  0.00    +0.055 C 
ATOM      4  S1  UNL     1      18.741  45.811  23.001  0.00  0.00    -0.146 S 
ATOM      5  C4  UNL     1      19.608  47.401  23.207  0.00  0.00    +0.010 C 
ATOM      6  C5  UNL     1      21.101  47.344  22.848  0.00  0.00    +0.018 C 
ATOM      7  N1  UNL     1      21.348  47.360  21.404  0.00  0.00    -0.343 N 
ATOM      8  C6  UNL     1      21.504  46.206  20.619  0.00  0.00    +0.038 A 
ATOM      9  C7  UNL     1      21.691  44.943  21.180  0.00  0.00    -0.022 A 
ATOM     10  C8  UNL     1      21.867  43.850  20.353  0.00  0.00    +0.030 A 
ATOM     11  N2  UNL     1      21.906  43.920  19.010  0.00  0.00    -0.255 NA
ATOM     12  C9  UNL     1      21.789  45.128  18.447  0.00  0.00    +0.074 A 
ATOM     13  C10 UNL     1      21.866  45.192  17.065  0.00  0.00    -0.017 A 
ATOM     14  C11 UNL     1      21.782  46.407  16.391  0.00  0.00    +0.043 A 
ATOM     15 CL1  UNL     1      21.887  46.445  14.674  0.00  0.00    -0.083 Cl
ATOM     16  C12 UNL     1      21.623  47.589  17.098  0.00  0.00    -0.043 A 
ATOM     17  C13 UNL     1      21.538  47.544  18.489  0.00  0.00    -0.049 A 
ATOM     18  C14 UNL     1      21.604  46.317  19.198  0.00  0.00    +0.021 A 
ATOM     19  H   UNL     1      21.408  48.234  20.955  0.00  0.00    +0.000 HD
ENDROOT
TORSDOF 0
ENDMDL
