MODEL 1
REMARK VINA RESULT:    -2.990      0.000      0.000
REMARK INTER + INTRA:          -2.990
REMARK INTER:                  -2.990
REMARK INTRA:                   0.000
REMARK UNBOUND:                 0.000
REMARK  Name = /home/vital/Documents/PhD_2021/Malaria_codes/scripts/../data/pdbqt_ligands/ligand_376_temp.pdb
REMARK                            x       y       z     vdW  Elec       q    Type
REMARK                         _______ _______ _______ _____ _____    ______ ____
ROOT
ATOM      1  C   UNL     1      15.042  32.204  13.344  0.00  0.00    -0.047 C 
ATOM      2  C   UNL     1      14.573  30.921  13.954  0.00  0.00    -0.091 C 
ATOM      3  C   UNL     1      15.070  30.282  15.026  0.00  0.00    -0.084 C 
ATOM      4  C   UNL     1      16.246  30.680  15.877  0.00  0.00    -0.008 C 
ATOM      5  C   UNL     1      15.829  31.079  17.279  0.00  0.00    -0.021 A 
ATOM      6  C   UNL     1      15.728  32.482  17.486  0.00  0.00    -0.037 A 
ATOM      7  C   UNL     1      15.278  33.027  18.687  0.00  0.00    +0.060 A 
ATOM      8 CL   UNL     1      15.223  34.745  18.828  0.00  0.00    -0.082 Cl
ATOM      9  C   UNL     1      14.888  32.175  19.707  0.00  0.00    +0.061 A 
ATOM     10 CL   UNL     1      14.299  32.745  21.227  0.00  0.00    -0.082 Cl
ATOM     11  C   UNL     1      14.975  30.791  19.516  0.00  0.00    -0.021 A 
ATOM     12  C   UNL     1      15.478  30.202  18.327  0.00  0.00    +0.033 A 
ATOM     13  N   UNL     1      15.478  28.811  18.321  0.00  0.00    -0.337 N 
ATOM     14  C   UNL     1      16.309  27.894  17.534  0.00  0.00    +0.043 C 
ATOM     15  C   UNL     1      15.573  26.569  17.576  0.00  0.00    -0.034 C 
ATOM     16  C   UNL     1      16.026  25.309  17.539  0.00  0.00    +0.083 C 
ATOM     17  C   UNL     1      17.386  24.898  17.441  0.00  0.00    -0.026 C 
ATOM     18  C   UNL     1      17.755  23.761  17.400  0.00  0.00    +0.042 C 
ATOM     19  N   UNL     1      17.090  22.591  17.428  0.00  0.00    -0.189 NA
ATOM     20  C   UNL     1      15.808  22.857  17.520  0.00  0.00    +0.096 C 
ATOM     21  N   UNL     1      15.245  24.141  17.572  0.00  0.00    -0.298 N 
ATOM     22  C   UNL     1      17.783  27.950  17.989  0.00  0.00    -0.018 C 
ATOM     23  C   UNL     1      18.071  27.523  19.439  0.00  0.00    -0.002 C 
ATOM     24  N   UNL     1      17.818  28.572  20.433  0.00  0.00    -0.314 N 
ATOM     25  C   UNL     1      19.006  29.396  20.678  0.00  0.00    +0.019 C 
ATOM     26  C   UNL     1      18.720  30.491  21.714  0.00  0.00    +0.057 C 
ATOM     27  O   UNL     1      19.858  31.333  21.880  0.00  0.00    -0.394 OA
ATOM     28  H   UNL     1      14.832  28.383  18.928  0.00  0.00    +0.000 HD
ATOM     29  H   UNL     1      14.267  24.228  17.634  0.00  0.00    +0.000 HD
ATOM     30  H   UNL     1      17.535  28.133  21.310  0.00  0.00    +0.000 HD
ATOM     31  H   UNL     1      17.083  29.179  20.071  0.00  0.00    +0.000 HD
ATOM     32  H   UNL     1      20.609  30.803  22.192  0.00  0.00    +0.000 HD
ENDROOT
TORSDOF 0
ENDMDL
MODEL 2
REMARK VINA RESULT:    -2.987      4.033      7.170
REMARK INTER + INTRA:          -2.987
REMARK INTER:                  -2.987
REMARK INTRA:                   0.000
REMARK UNBOUND:                 0.000
REMARK  Name = /home/vital/Documents/PhD_2021/Malaria_codes/scripts/../data/pdbqt_ligands/ligand_376_temp.pdb
REMARK                            x       y       z     vdW  Elec       q    Type
REMARK                         _______ _______ _______ _____ _____    ______ ____
ROOT
ATOM      1  C   UNL     1      14.319  25.870  14.702  0.00  0.00    -0.047 C 
ATOM      2  C   UNL     1      14.944  27.194  15.011  0.00  0.00    -0.091 C 
ATOM      3  C   UNL     1      15.088  27.784  16.209  0.00  0.00    -0.084 C 
ATOM      4  C   UNL     1      14.635  27.276  17.551  0.00  0.00    -0.008 C 
ATOM      5  C   UNL     1      15.801  26.921  18.454  0.00  0.00    -0.021 A 
ATOM      6  C   UNL     1      16.115  25.536  18.492  0.00  0.00    -0.037 A 
ATOM      7  C   UNL     1      17.207  25.039  19.203  0.00  0.00    +0.060 A 
ATOM      8 CL   UNL     1      17.471  23.335  19.197  0.00  0.00    -0.082 Cl
ATOM      9  C   UNL     1      18.033  25.927  19.872  0.00  0.00    +0.061 A 
ATOM     10 CL   UNL     1      19.421  25.420  20.765  0.00  0.00    -0.082 Cl
ATOM     11  C   UNL     1      17.741  27.295  19.836  0.00  0.00    -0.021 A 
ATOM     12  C   UNL     1      16.609  27.830  19.168  0.00  0.00    +0.033 A 
ATOM     13  N   UNL     1      16.492  29.215  19.237  0.00  0.00    -0.337 N 
ATOM     14  C   UNL     1      15.291  30.045  19.103  0.00  0.00    +0.043 C 
ATOM     15  C   UNL     1      15.811  31.436  18.795  0.00  0.00    -0.034 C 
ATOM     16  C   UNL     1      15.316  32.646  19.086  0.00  0.00    +0.083 C 
ATOM     17  C   UNL     1      14.109  32.922  19.790  0.00  0.00    -0.026 C 
ATOM     18  C   UNL     1      13.690  34.018  20.024  0.00  0.00    +0.042 C 
ATOM     19  N   UNL     1      14.158  35.246  19.736  0.00  0.00    -0.189 NA
ATOM     20  C   UNL     1      15.284  35.107  19.078  0.00  0.00    +0.096 C 
ATOM     21  N   UNL     1      15.881  33.884  18.737  0.00  0.00    -0.298 N 
ATOM     22  C   UNL     1      14.341  29.847  20.304  0.00  0.00    -0.018 C 
ATOM     23  C   UNL     1      14.888  30.247  21.685  0.00  0.00    -0.002 C 
ATOM     24  N   UNL     1      15.742  29.230  22.308  0.00  0.00    -0.314 N 
ATOM     25  C   UNL     1      14.971  28.295  23.134  0.00  0.00    +0.019 C 
ATOM     26  C   UNL     1      15.880  27.235  23.770  0.00  0.00    +0.057 C 
ATOM     27  O   UNL     1      15.107  26.286  24.502  0.00  0.00    -0.394 OA
ATOM     28  H   UNL     1      17.330  29.705  19.398  0.00  0.00    +0.000 HD
ATOM     29  H   UNL     1      16.727  33.893  18.234  0.00  0.00    +0.000 HD
ATOM     30  H   UNL     1      16.433  29.695  22.896  0.00  0.00    +0.000 HD
ATOM     31  H   UNL     1      16.191  28.697  21.564  0.00  0.00    +0.000 HD
ATOM     32  H   UNL     1      14.622  26.741  25.209  0.00  0.00    +0.000 HD
ENDROOT
TORSDOF 0
ENDMDL
MODEL 3
REMARK VINA RESULT:    -2.861      4.848      6.767
REMARK INTER + INTRA:          -2.861
REMARK INTER:                  -2.861
REMARK INTRA:                   0.000
REMARK UNBOUND:                 0.000
REMARK  Name = /home/vital/Documents/PhD_2021/Malaria_codes/scripts/../data/pdbqt_ligands/ligand_376_temp.pdb
REMARK                            x       y       z     vdW  Elec       q    Type
REMARK                         _______ _______ _______ _____ _____    ______ ____
ROOT
ATOM      1  C   UNL     1      19.321  31.646  18.435  0.00  0.00    -0.047 C 
ATOM      2  C   UNL     1      20.262  30.722  17.729  0.00  0.00    -0.091 C 
ATOM      3  C   UNL     1      20.163  29.390  17.583  0.00  0.00    -0.084 C 
ATOM      4  C   UNL     1      19.089  28.479  18.114  0.00  0.00    -0.008 C 
ATOM      5  C   UNL     1      18.243  27.882  17.006  0.00  0.00    -0.021 A 
ATOM      6  C   UNL     1      17.004  28.543  16.791  0.00  0.00    -0.037 A 
ATOM      7  C   UNL     1      16.136  28.184  15.761  0.00  0.00    +0.060 A 
ATOM      8 CL   UNL     1      14.648  29.042  15.617  0.00  0.00    -0.082 Cl
ATOM      9  C   UNL     1      16.506  27.166  14.896  0.00  0.00    +0.061 A 
ATOM     10 CL   UNL     1      15.515  26.656  13.577  0.00  0.00    -0.082 Cl
ATOM     11  C   UNL     1      17.728  26.512  15.090  0.00  0.00    -0.021 A 
ATOM     12  C   UNL     1      18.610  26.815  16.159  0.00  0.00    +0.033 A 
ATOM     13  N   UNL     1      19.780  26.063  16.181  0.00  0.00    -0.337 N 
ATOM     14  C   UNL     1      20.656  25.756  17.315  0.00  0.00    +0.043 C 
ATOM     15  C   UNL     1      21.970  25.331  16.689  0.00  0.00    -0.034 C 
ATOM     16  C   UNL     1      22.908  24.471  17.108  0.00  0.00    +0.083 C 
ATOM     17  C   UNL     1      22.888  23.714  18.314  0.00  0.00    -0.026 C 
ATOM     18  C   UNL     1      23.750  22.961  18.662  0.00  0.00    +0.042 C 
ATOM     19  N   UNL     1      24.918  22.600  18.100  0.00  0.00    -0.189 NA
ATOM     20  C   UNL     1      25.039  23.248  16.966  0.00  0.00    +0.096 C 
ATOM     21  N   UNL     1      24.107  24.159  16.446  0.00  0.00    -0.298 N 
ATOM     22  C   UNL     1      19.959  24.808  18.315  0.00  0.00    -0.018 C 
ATOM     23  C   UNL     1      19.573  23.415  17.787  0.00  0.00    -0.002 C 
ATOM     24  N   UNL     1      18.319  23.390  17.027  0.00  0.00    -0.314 N 
ATOM     25  C   UNL     1      17.159  23.137  17.888  0.00  0.00    +0.019 C 
ATOM     26  C   UNL     1      15.857  23.122  17.077  0.00  0.00    +0.057 C 
ATOM     27  O   UNL     1      14.732  22.956  17.938  0.00  0.00    -0.394 OA
ATOM     28  H   UNL     1      20.058  25.684  15.316  0.00  0.00    +0.000 HD
ATOM     29  H   UNL     1      24.301  24.596  15.585  0.00  0.00    +0.000 HD
ATOM     30  H   UNL     1      18.374  22.653  16.324  0.00  0.00    +0.000 HD
ATOM     31  H   UNL     1      18.195  24.304  16.593  0.00  0.00    +0.000 HD
ATOM     32  H   UNL     1      14.810  22.113  18.412  0.00  0.00    +0.000 HD
ENDROOT
TORSDOF 0
ENDMDL
MODEL 4
REMARK VINA RESULT:    -2.848     19.238     20.922
REMARK INTER + INTRA:          -2.848
REMARK INTER:                  -2.848
REMARK INTRA:                   0.000
REMARK UNBOUND:                 0.000
REMARK  Name = /home/vital/Documents/PhD_2021/Malaria_codes/scripts/../data/pdbqt_ligands/ligand_376_temp.pdb
REMARK                            x       y       z     vdW  Elec       q    Type
REMARK                         _______ _______ _______ _____ _____    ______ ____
ROOT
ATOM      1  C   UNL     1      33.722  44.662  15.088  0.00  0.00    -0.047 C 
ATOM      2  C   UNL     1      33.603  43.328  14.422  0.00  0.00    -0.091 C 
ATOM      3  C   UNL     1      33.902  42.119  14.927  0.00  0.00    -0.084 C 
ATOM      4  C   UNL     1      34.459  41.797  16.287  0.00  0.00    -0.008 C 
ATOM      5  C   UNL     1      33.462  41.051  17.153  0.00  0.00    -0.021 A 
ATOM      6  C   UNL     1      32.764  41.868  18.084  0.00  0.00    -0.037 A 
ATOM      7  C   UNL     1      31.752  41.367  18.902  0.00  0.00    +0.060 A 
ATOM      8 CL   UNL     1      30.996  42.449  20.011  0.00  0.00    -0.082 Cl
ATOM      9  C   UNL     1      31.393  40.034  18.786  0.00  0.00    +0.061 A 
ATOM     10 CL   UNL     1      30.142  39.318  19.737  0.00  0.00    -0.082 Cl
ATOM     11  C   UNL     1      32.066  39.220  17.868  0.00  0.00    -0.021 A 
ATOM     12  C   UNL     1      33.135  39.682  17.058  0.00  0.00    +0.033 A 
ATOM     13  N   UNL     1      33.672  38.727  16.201  0.00  0.00    -0.337 N 
ATOM     14  C   UNL     1      35.009  38.677  15.600  0.00  0.00    +0.043 C 
ATOM     15  C   UNL     1      34.875  37.721  14.431  0.00  0.00    -0.034 C 
ATOM     16  C   UNL     1      35.759  36.885  13.871  0.00  0.00    +0.083 C 
ATOM     17  C   UNL     1      37.115  36.695  14.264  0.00  0.00    -0.026 C 
ATOM     18  C   UNL     1      37.882  35.947  13.734  0.00  0.00    +0.042 C 
ATOM     19  N   UNL     1      37.753  35.108  12.689  0.00  0.00    -0.189 NA
ATOM     20  C   UNL     1      36.522  35.204  12.242  0.00  0.00    +0.096 C 
ATOM     21  N   UNL     1      35.529  36.043  12.770  0.00  0.00    -0.298 N 
ATOM     22  C   UNL     1      36.090  38.411  16.669  0.00  0.00    -0.018 C 
ATOM     23  C   UNL     1      35.997  37.072  17.421  0.00  0.00    -0.002 C 
ATOM     24  N   UNL     1      35.032  37.071  18.526  0.00  0.00    -0.314 N 
ATOM     25  C   UNL     1      35.647  37.482  19.793  0.00  0.00    +0.019 C 
ATOM     26  C   UNL     1      34.621  37.483  20.933  0.00  0.00    +0.057 C 
ATOM     27  O   UNL     1      35.213  37.963  22.139  0.00  0.00    -0.394 OA
ATOM     28  H   UNL     1      33.074  37.981  15.966  0.00  0.00    +0.000 HD
ATOM     29  H   UNL     1      34.637  36.042  12.353  0.00  0.00    +0.000 HD
ATOM     30  H   UNL     1      34.655  36.130  18.633  0.00  0.00    +0.000 HD
ATOM     31  H   UNL     1      34.296  37.740  18.302  0.00  0.00    +0.000 HD
ATOM     32  H   UNL     1      35.951  37.384  22.389  0.00  0.00    +0.000 HD
ENDROOT
TORSDOF 0
ENDMDL
MODEL 5
REMARK VINA RESULT:    -2.808     19.729     21.853
REMARK INTER + INTRA:          -2.808
REMARK INTER:                  -2.808
REMARK INTRA:                   0.000
REMARK UNBOUND:                 0.000
REMARK  Name = /home/vital/Documents/PhD_2021/Malaria_codes/scripts/../data/pdbqt_ligands/ligand_376_temp.pdb
REMARK                            x       y       z     vdW  Elec       q    Type
REMARK                         _______ _______ _______ _____ _____    ______ ____
ROOT
ATOM      1  C   UNL     1      35.713  41.830  21.236  0.00  0.00    -0.047 C 
ATOM      2  C   UNL     1      36.449  41.302  20.045  0.00  0.00    -0.091 C 
ATOM      3  C   UNL     1      35.938  40.838  18.893  0.00  0.00    -0.084 C 
ATOM      4  C   UNL     1      34.488  40.709  18.510  0.00  0.00    -0.008 C 
ATOM      5  C   UNL     1      34.102  41.662  17.396  0.00  0.00    -0.021 A 
ATOM      6  C   UNL     1      33.456  42.849  17.835  0.00  0.00    -0.037 A 
ATOM      7  C   UNL     1      33.106  43.875  16.958  0.00  0.00    +0.060 A 
ATOM      8 CL   UNL     1      32.301  45.256  17.604  0.00  0.00    -0.082 Cl
ATOM      9  C   UNL     1      33.422  43.748  15.615  0.00  0.00    +0.061 A 
ATOM     10 CL   UNL     1      33.050  44.966  14.448  0.00  0.00    -0.082 Cl
ATOM     11  C   UNL     1      34.066  42.588  15.169  0.00  0.00    -0.021 A 
ATOM     12  C   UNL     1      34.389  41.502  16.023  0.00  0.00    +0.033 A 
ATOM     13  N   UNL     1      35.035  40.440  15.398  0.00  0.00    -0.337 N 
ATOM     14  C   UNL     1      35.094  39.032  15.802  0.00  0.00    +0.043 C 
ATOM     15  C   UNL     1      36.279  38.460  15.050  0.00  0.00    -0.034 C 
ATOM     16  C   UNL     1      36.513  37.227  14.581  0.00  0.00    +0.083 C 
ATOM     17  C   UNL     1      35.652  36.099  14.693  0.00  0.00    -0.026 C 
ATOM     18  C   UNL     1      35.898  35.007  14.271  0.00  0.00    +0.042 C 
ATOM     19  N   UNL     1      36.961  34.509  13.612  0.00  0.00    -0.189 NA
ATOM     20  C   UNL     1      37.829  35.480  13.452  0.00  0.00    +0.096 C 
ATOM     21  N   UNL     1      37.666  36.799  13.900  0.00  0.00    -0.298 N 
ATOM     22  C   UNL     1      33.714  38.354  15.658  0.00  0.00    -0.018 C 
ATOM     23  C   UNL     1      33.128  38.284  14.238  0.00  0.00    -0.002 C 
ATOM     24  N   UNL     1      32.467  39.519  13.801  0.00  0.00    -0.314 N 
ATOM     25  C   UNL     1      31.041  39.530  14.146  0.00  0.00    +0.019 C 
ATOM     26  C   UNL     1      30.369  40.831  13.689  0.00  0.00    +0.057 C 
ATOM     27  O   UNL     1      29.005  40.862  14.103  0.00  0.00    -0.394 OA
ATOM     28  H   UNL     1      35.518  40.664  14.570  0.00  0.00    +0.000 HD
ATOM     29  H   UNL     1      38.385  37.450  13.732  0.00  0.00    +0.000 HD
ATOM     30  H   UNL     1      32.561  39.603  12.789  0.00  0.00    +0.000 HD
ATOM     31  H   UNL     1      32.912  40.301  14.279  0.00  0.00    +0.000 HD
ATOM     32  H   UNL     1      28.530  40.115  13.706  0.00  0.00    +0.000 HD
ENDROOT
TORSDOF 0
ENDMDL
MODEL 6
REMARK VINA RESULT:    -2.666      6.273     10.272
REMARK INTER + INTRA:          -2.666
REMARK INTER:                  -2.666
REMARK INTRA:                   0.000
REMARK UNBOUND:                 0.000
REMARK  Name = /home/vital/Documents/PhD_2021/Malaria_codes/scripts/../data/pdbqt_ligands/ligand_376_temp.pdb
REMARK                            x       y       z     vdW  Elec       q    Type
REMARK                         _______ _______ _______ _____ _____    ______ ____
ROOT
ATOM      1  C   UNL     1      13.982  33.157  20.774  0.00  0.00    -0.047 C 
ATOM      2  C   UNL     1      13.692  34.289  19.839  0.00  0.00    -0.091 C 
ATOM      3  C   UNL     1      14.470  34.771  18.854  0.00  0.00    -0.084 C 
ATOM      4  C   UNL     1      15.844  34.310  18.452  0.00  0.00    -0.008 C 
ATOM      5  C   UNL     1      15.854  33.657  17.084  0.00  0.00    -0.021 A 
ATOM      6  C   UNL     1      15.833  32.236  17.110  0.00  0.00    -0.037 A 
ATOM      7  C   UNL     1      15.754  31.471  15.947  0.00  0.00    +0.060 A 
ATOM      8 CL   UNL     1      15.763  29.754  16.104  0.00  0.00    -0.082 Cl
ATOM      9  C   UNL     1      15.664  32.115  14.724  0.00  0.00    +0.061 A 
ATOM     10 CL   UNL     1      15.543  31.263  13.226  0.00  0.00    -0.082 Cl
ATOM     11  C   UNL     1      15.675  33.514  14.683  0.00  0.00    -0.021 A 
ATOM     12  C   UNL     1      15.807  34.323  15.841  0.00  0.00    +0.033 A 
ATOM     13  N   UNL     1      15.789  35.694  15.600  0.00  0.00    -0.337 N 
ATOM     14  C   UNL     1      16.348  36.778  16.412  0.00  0.00    +0.043 C 
ATOM     15  C   UNL     1      15.639  38.030  15.930  0.00  0.00    -0.034 C 
ATOM     16  C   UNL     1      16.048  39.304  15.868  0.00  0.00    +0.083 C 
ATOM     17  C   UNL     1      17.317  39.810  16.270  0.00  0.00    -0.026 C 
ATOM     18  C   UNL     1      17.645  40.959  16.210  0.00  0.00    +0.042 C 
ATOM     19  N   UNL     1      17.001  42.063  15.789  0.00  0.00    -0.189 NA
ATOM     20  C   UNL     1      15.803  41.706  15.390  0.00  0.00    +0.096 C 
ATOM     21  N   UNL     1      15.295  40.399  15.410  0.00  0.00    -0.298 N 
ATOM     22  C   UNL     1      17.891  36.739  16.407  0.00  0.00    -0.018 C 
ATOM     23  C   UNL     1      18.578  36.936  15.044  0.00  0.00    -0.002 C 
ATOM     24  N   UNL     1      18.635  35.722  14.222  0.00  0.00    -0.314 N 
ATOM     25  C   UNL     1      19.853  34.945  14.471  0.00  0.00    +0.019 C 
ATOM     26  C   UNL     1      19.889  33.677  13.608  0.00  0.00    +0.057 C 
ATOM     27  O   UNL     1      21.038  32.891  13.921  0.00  0.00    -0.394 OA
ATOM     28  H   UNL     1      15.340  35.973  14.770  0.00  0.00    +0.000 HD
ATOM     29  H   UNL     1      14.377  40.242  15.092  0.00  0.00    +0.000 HD
ATOM     30  H   UNL     1      18.610  35.990  13.238  0.00  0.00    +0.000 HD
ATOM     31  H   UNL     1      17.834  35.140  14.465  0.00  0.00    +0.000 HD
ATOM     32  H   UNL     1      21.840  33.407  13.744  0.00  0.00    +0.000 HD
ENDROOT
TORSDOF 0
ENDMDL
MODEL 7
REMARK VINA RESULT:    -2.598     12.618     15.382
REMARK INTER + INTRA:          -2.598
REMARK INTER:                  -2.598
REMARK INTRA:                   0.000
REMARK UNBOUND:                 0.000
REMARK  Name = /home/vital/Documents/PhD_2021/Malaria_codes/scripts/../data/pdbqt_ligands/ligand_376_temp.pdb
REMARK                            x       y       z     vdW  Elec       q    Type
REMARK                         _______ _______ _______ _____ _____    ______ ____
ROOT
ATOM      1  C   UNL     1      23.939  46.862  14.921  0.00  0.00    -0.047 C 
ATOM      2  C   UNL     1      22.493  46.481  14.854  0.00  0.00    -0.091 C 
ATOM      3  C   UNL     1      21.838  45.579  15.604  0.00  0.00    -0.084 C 
ATOM      4  C   UNL     1      22.395  44.700  16.690  0.00  0.00    -0.008 C 
ATOM      5  C   UNL     1      21.861  45.073  18.060  0.00  0.00    -0.021 A 
ATOM      6  C   UNL     1      22.737  45.883  18.832  0.00  0.00    -0.037 A 
ATOM      7  C   UNL     1      22.377  46.389  20.080  0.00  0.00    +0.060 A 
ATOM      8 CL   UNL     1      23.535  47.338  20.935  0.00  0.00    -0.082 Cl
ATOM      9  C   UNL     1      21.112  46.118  20.575  0.00  0.00    +0.061 A 
ATOM     10 CL   UNL     1      20.559  46.711  22.100  0.00  0.00    -0.082 Cl
ATOM     11  C   UNL     1      20.235  45.329  19.822  0.00  0.00    -0.021 A 
ATOM     12  C   UNL     1      20.586  44.754  18.574  0.00  0.00    +0.033 A 
ATOM     13  N   UNL     1      19.579  44.007  17.972  0.00  0.00    -0.337 N 
ATOM     14  C   UNL     1      19.696  42.928  16.986  0.00  0.00    +0.043 C 
ATOM     15  C   UNL     1      18.320  42.823  16.358  0.00  0.00    -0.034 C 
ATOM     16  C   UNL     1      17.664  41.774  15.845  0.00  0.00    +0.083 C 
ATOM     17  C   UNL     1      18.139  40.434  15.761  0.00  0.00    -0.026 C 
ATOM     18  C   UNL     1      17.529  39.521  15.286  0.00  0.00    +0.042 C 
ATOM     19  N   UNL     1      16.310  39.443  14.722  0.00  0.00    -0.189 NA
ATOM     20  C   UNL     1      15.774  40.641  14.748  0.00  0.00    +0.096 C 
ATOM     21  N   UNL     1      16.382  41.792  15.271  0.00  0.00    -0.298 N 
ATOM     22  C   UNL     1      20.335  41.670  17.612  0.00  0.00    -0.018 C 
ATOM     23  C   UNL     1      19.559  41.006  18.763  0.00  0.00    -0.002 C 
ATOM     24  N   UNL     1      19.759  41.646  20.067  0.00  0.00    -0.314 N 
ATOM     25  C   UNL     1      20.892  41.066  20.796  0.00  0.00    +0.019 C 
ATOM     26  C   UNL     1      21.090  41.754  22.153  0.00  0.00    +0.057 C 
ATOM     27  O   UNL     1      22.243  41.236  22.814  0.00  0.00    -0.394 OA
ATOM     28  H   UNL     1      18.661  44.233  18.245  0.00  0.00    +0.000 HD
ATOM     29  H   UNL     1      15.892  42.645  15.234  0.00  0.00    +0.000 HD
ATOM     30  H   UNL     1      18.914  41.528  20.625  0.00  0.00    +0.000 HD
ATOM     31  H   UNL     1      19.960  42.633  19.906  0.00  0.00    +0.000 HD
ATOM     32  H   UNL     1      22.129  40.284  22.964  0.00  0.00    +0.000 HD
ENDROOT
TORSDOF 0
ENDMDL
MODEL 8
REMARK VINA RESULT:    -2.526     12.461     15.649
REMARK INTER + INTRA:          -2.526
REMARK INTER:                  -2.526
REMARK INTRA:                   0.000
REMARK UNBOUND:                 0.000
REMARK  Name = /home/vital/Documents/PhD_2021/Malaria_codes/scripts/../data/pdbqt_ligands/ligand_376_temp.pdb
REMARK                            x       y       z     vdW  Elec       q    Type
REMARK                         _______ _______ _______ _____ _____    ______ ____
ROOT
ATOM      1  C   UNL     1      16.003  41.201  15.219  0.00  0.00    -0.047 C 
ATOM      2  C   UNL     1      17.317  41.604  14.626  0.00  0.00    -0.091 C 
ATOM      3  C   UNL     1      18.456  41.912  15.268  0.00  0.00    -0.084 C 
ATOM      4  C   UNL     1      18.700  41.953  16.752  0.00  0.00    -0.008 C 
ATOM      5  C   UNL     1      19.650  40.863  17.208  0.00  0.00    -0.021 A 
ATOM      6  C   UNL     1      19.012  39.719  17.759  0.00  0.00    -0.037 A 
ATOM      7  C   UNL     1      19.723  38.586  18.153  0.00  0.00    +0.060 A 
ATOM      8 CL   UNL     1      18.841  37.271  18.833  0.00  0.00    -0.082 Cl
ATOM      9  C   UNL     1      21.097  38.561  17.976  0.00  0.00    +0.061 A 
ATOM     10 CL   UNL     1      22.070  37.203  18.412  0.00  0.00    -0.082 Cl
ATOM     11  C   UNL     1      21.738  39.678  17.427  0.00  0.00    -0.021 A 
ATOM     12  C   UNL     1      21.054  40.866  17.065  0.00  0.00    +0.033 A 
ATOM     13  N   UNL     1      21.862  41.864  16.527  0.00  0.00    -0.337 N 
ATOM     14  C   UNL     1      21.632  43.311  16.485  0.00  0.00    +0.043 C 
ATOM     15  C   UNL     1      22.564  43.822  15.404  0.00  0.00    -0.034 C 
ATOM     16  C   UNL     1      23.194  44.996  15.267  0.00  0.00    +0.083 C 
ATOM     17  C   UNL     1      23.126  46.105  16.158  0.00  0.00    -0.026 C 
ATOM     18  C   UNL     1      23.695  47.145  15.999  0.00  0.00    +0.042 C 
ATOM     19  N   UNL     1      24.513  47.590  15.027  0.00  0.00    -0.189 NA
ATOM     20  C   UNL     1      24.648  46.632  14.141  0.00  0.00    +0.096 C 
ATOM     21  N   UNL     1      24.035  45.372  14.206  0.00  0.00    -0.298 N 
ATOM     22  C   UNL     1      21.710  43.927  17.898  0.00  0.00    -0.018 C 
ATOM     23  C   UNL     1      23.062  43.811  18.625  0.00  0.00    -0.002 C 
ATOM     24  N   UNL     1      23.281  42.515  19.276  0.00  0.00    -0.314 N 
ATOM     25  C   UNL     1      22.793  42.505  20.659  0.00  0.00    +0.019 C 
ATOM     26  C   UNL     1      23.024  41.140  21.320  0.00  0.00    +0.057 C 
ATOM     27  O   UNL     1      22.471  41.119  22.634  0.00  0.00    -0.394 OA
ATOM     28  H   UNL     1      22.703  41.556  16.119  0.00  0.00    +0.000 HD
ATOM     29  H   UNL     1      24.199  44.727  13.481  0.00  0.00    +0.000 HD
ATOM     30  H   UNL     1      24.281  42.313  19.278  0.00  0.00    +0.000 HD
ATOM     31  H   UNL     1      22.764  41.808  18.754  0.00  0.00    +0.000 HD
ATOM     32  H   UNL     1      22.900  41.801  23.176  0.00  0.00    +0.000 HD
ENDROOT
TORSDOF 0
ENDMDL
