MODEL 1
REMARK VINA RESULT:    -5.002      0.000      0.000
REMARK INTER + INTRA:          -5.002
REMARK INTER:                  -5.002
REMARK INTRA:                   0.000
REMARK UNBOUND:                 0.000
REMARK  Name = /home/vital/Documents/PhD_2021/Malaria_codes/scripts/../data/pdbqt_ligands/ligand_395_temp.pdb
REMARK                            x       y       z     vdW  Elec       q    Type
REMARK                         _______ _______ _______ _____ _____    ______ ____
ROOT
ATOM      1  C   UNL     1      13.712  33.275  21.317  0.00  0.00    +0.079 C 
ATOM      2  O   UNL     1      14.726  32.630  22.075  0.00  0.00    -0.491 OA
ATOM      3  C   UNL     1      15.314  31.510  21.540  0.00  0.00    +0.162 A 
ATOM      4  C   UNL     1      15.127  31.077  20.218  0.00  0.00    -0.003 A 
ATOM      5  C   UNL     1      15.768  29.923  19.739  0.00  0.00    +0.051 A 
ATOM      6  C   UNL     1      15.513  29.459  18.379  0.00  0.00    +0.142 A 
ATOM      7  N   UNL     1      15.268  28.216  18.031  0.00  0.00    -0.227 NA
ATOM      8  C   UNL     1      15.116  28.217  16.660  0.00  0.00    +0.097 A 
ATOM      9  C   UNL     1      14.846  26.993  15.922  0.00  0.00    +0.002 A 
ATOM     10  C   UNL     1      15.424  25.792  16.360  0.00  0.00    -0.052 A 
ATOM     11  C   UNL     1      15.185  24.596  15.680  0.00  0.00    -0.061 A 
ATOM     12  C   UNL     1      14.356  24.587  14.558  0.00  0.00    -0.062 A 
ATOM     13  C   UNL     1      13.763  25.770  14.123  0.00  0.00    -0.061 A 
ATOM     14  C   UNL     1      14.002  26.967  14.804  0.00  0.00    -0.052 A 
ATOM     15  C   UNL     1      15.287  29.497  16.151  0.00  0.00    +0.074 A 
ATOM     16  C   UNL     1      15.331  30.057  14.807  0.00  0.00    +0.000 A 
ATOM     17  C   UNL     1      16.184  29.511  13.840  0.00  0.00    -0.053 A 
ATOM     18  C   UNL     1      16.236  30.055  12.554  0.00  0.00    -0.061 A 
ATOM     19  C   UNL     1      15.438  31.149  12.226  0.00  0.00    -0.062 A 
ATOM     20  C   UNL     1      14.586  31.700  13.181  0.00  0.00    -0.061 A 
ATOM     21  C   UNL     1      14.533  31.157  14.468  0.00  0.00    -0.053 A 
ATOM     22  N   UNL     1      15.524  30.266  17.270  0.00  0.00    -0.337 N 
ATOM     23  C   UNL     1      16.595  29.221  20.624  0.00  0.00    +0.140 A 
ATOM     24  N   UNL     1      17.344  28.060  20.175  0.00  0.00    +0.057 N 
ATOM     25  O   UNL     1      17.135  26.991  20.766  0.00  0.00    -0.126 OA
ATOM     26  O   UNL     1      18.209  28.252  19.308  0.00  0.00    -0.126 OA
ATOM     27  C   UNL     1      16.796  29.634  21.949  0.00  0.00    +0.015 A 
ATOM     28  C   UNL     1      16.156  30.783  22.411  0.00  0.00    +0.164 A 
ATOM     29  O   UNL     1      16.285  31.285  23.681  0.00  0.00    -0.491 OA
ATOM     30  C   UNL     1      17.039  30.530  24.620  0.00  0.00    +0.079 C 
ATOM     31  H   UNL     1      15.677  31.238  17.273  0.00  0.00    +0.000 HD
ENDROOT
TORSDOF 0
ENDMDL
MODEL 2
REMARK VINA RESULT:    -4.783      2.140      2.723
REMARK INTER + INTRA:          -4.783
REMARK INTER:                  -4.783
REMARK INTRA:                   0.000
REMARK UNBOUND:                 0.000
REMARK  Name = /home/vital/Documents/PhD_2021/Malaria_codes/scripts/../data/pdbqt_ligands/ligand_395_temp.pdb
REMARK                            x       y       z     vdW  Elec       q    Type
REMARK                         _______ _______ _______ _____ _____    ______ ____
ROOT
ATOM      1  C   UNL     1      15.056  30.376  23.831  0.00  0.00    +0.079 C 
ATOM      2  O   UNL     1      15.953  29.367  24.275  0.00  0.00    -0.491 OA
ATOM      3  C   UNL     1      16.375  28.433  23.361  0.00  0.00    +0.162 A 
ATOM      4  C   UNL     1      16.141  28.523  21.979  0.00  0.00    -0.003 A 
ATOM      5  C   UNL     1      16.609  27.529  21.103  0.00  0.00    +0.051 A 
ATOM      6  C   UNL     1      16.304  27.612  19.678  0.00  0.00    +0.142 A 
ATOM      7  N   UNL     1      15.881  26.618  18.930  0.00  0.00    -0.227 NA
ATOM      8  C   UNL     1      15.747  27.121  17.652  0.00  0.00    +0.097 A 
ATOM      9  C   UNL     1      15.307  26.285  16.547  0.00  0.00    +0.002 A 
ATOM     10  C   UNL     1      15.695  24.937  16.516  0.00  0.00    -0.052 A 
ATOM     11  C   UNL     1      15.289  24.102  15.472  0.00  0.00    -0.061 A 
ATOM     12  C   UNL     1      14.481  24.605  14.453  0.00  0.00    -0.062 A 
ATOM     13  C   UNL     1      14.076  25.937  14.481  0.00  0.00    -0.061 A 
ATOM     14  C   UNL     1      14.482  26.773  15.525  0.00  0.00    -0.052 A 
ATOM     15  C   UNL     1      16.113  28.459  17.614  0.00  0.00    +0.074 A 
ATOM     16  C   UNL     1      16.256  29.442  16.548  0.00  0.00    +0.000 A 
ATOM     17  C   UNL     1      17.030  29.153  15.417  0.00  0.00    -0.053 A 
ATOM     18  C   UNL     1      17.178  30.098  14.399  0.00  0.00    -0.061 A 
ATOM     19  C   UNL     1      16.555  31.340  14.505  0.00  0.00    -0.062 A 
ATOM     20  C   UNL     1      15.783  31.639  15.626  0.00  0.00    -0.061 A 
ATOM     21  C   UNL     1      15.635  30.694  16.645  0.00  0.00    -0.053 A 
ATOM     22  N   UNL     1      16.449  28.745  18.919  0.00  0.00    -0.337 N 
ATOM     23  C   UNL     1      17.311  26.451  21.654  0.00  0.00    +0.140 A 
ATOM     24  N   UNL     1      17.885  25.426  20.799  0.00  0.00    +0.057 N 
ATOM     25  O   UNL     1      17.512  24.260  20.990  0.00  0.00    -0.126 OA
ATOM     26  O   UNL     1      18.780  25.783  20.018  0.00  0.00    -0.126 OA
ATOM     27  C   UNL     1      17.556  26.341  23.030  0.00  0.00    +0.015 A 
ATOM     28  C   UNL     1      17.088  27.335  23.889  0.00  0.00    +0.164 A 
ATOM     29  O   UNL     1      17.276  27.337  25.247  0.00  0.00    -0.491 OA
ATOM     30  C   UNL     1      17.898  26.201  25.834  0.00  0.00    +0.079 C 
ATOM     31  H   UNL     1      16.745  29.623  19.254  0.00  0.00    +0.000 HD
ENDROOT
TORSDOF 0
ENDMDL
MODEL 3
REMARK VINA RESULT:    -4.768      1.607      1.941
REMARK INTER + INTRA:          -4.768
REMARK INTER:                  -4.768
REMARK INTRA:                   0.000
REMARK UNBOUND:                 0.000
REMARK  Name = /home/vital/Documents/PhD_2021/Malaria_codes/scripts/../data/pdbqt_ligands/ligand_395_temp.pdb
REMARK                            x       y       z     vdW  Elec       q    Type
REMARK                         _______ _______ _______ _____ _____    ______ ____
ROOT
ATOM      1  C   UNL     1      13.775  34.512  19.361  0.00  0.00    +0.079 C 
ATOM      2  O   UNL     1      14.015  33.793  20.563  0.00  0.00    -0.491 OA
ATOM      3  C   UNL     1      14.377  32.473  20.463  0.00  0.00    +0.162 A 
ATOM      4  C   UNL     1      14.721  31.841  19.257  0.00  0.00    -0.003 A 
ATOM      5  C   UNL     1      15.087  30.485  19.232  0.00  0.00    +0.051 A 
ATOM      6  C   UNL     1      15.384  29.833  17.961  0.00  0.00    +0.142 A 
ATOM      7  N   UNL     1      14.941  28.654  17.587  0.00  0.00    -0.227 NA
ATOM      8  C   UNL     1      15.481  28.412  16.341  0.00  0.00    +0.097 A 
ATOM      9  C   UNL     1      15.212  27.176  15.621  0.00  0.00    +0.002 A 
ATOM     10  C   UNL     1      15.069  25.984  16.345  0.00  0.00    -0.052 A 
ATOM     11  C   UNL     1      14.806  24.779  15.690  0.00  0.00    -0.061 A 
ATOM     12  C   UNL     1      14.674  24.756  14.302  0.00  0.00    -0.062 A 
ATOM     13  C   UNL     1      14.798  25.937  13.573  0.00  0.00    -0.061 A 
ATOM     14  C   UNL     1      15.061  27.143  14.229  0.00  0.00    -0.052 A 
ATOM     15  C   UNL     1      16.291  29.467  15.947  0.00  0.00    +0.074 A 
ATOM     16  C   UNL     1      17.164  29.705  14.804  0.00  0.00    +0.000 A 
ATOM     17  C   UNL     1      18.140  28.765  14.451  0.00  0.00    -0.053 A 
ATOM     18  C   UNL     1      18.985  28.997  13.363  0.00  0.00    -0.061 A 
ATOM     19  C   UNL     1      18.861  30.170  12.621  0.00  0.00    -0.062 A 
ATOM     20  C   UNL     1      17.893  31.112  12.964  0.00  0.00    -0.061 A 
ATOM     21  C   UNL     1      17.048  30.881  14.053  0.00  0.00    -0.053 A 
ATOM     22  N   UNL     1      16.198  30.360  16.991  0.00  0.00    -0.337 N 
ATOM     23  C   UNL     1      15.095  29.789  20.447  0.00  0.00    +0.140 A 
ATOM     24  N   UNL     1      15.533  28.405  20.505  0.00  0.00    +0.057 N 
ATOM     25  O   UNL     1      14.722  27.575  20.942  0.00  0.00    -0.126 OA
ATOM     26  O   UNL     1      16.717  28.178  20.214  0.00  0.00    -0.126 OA
ATOM     27  C   UNL     1      14.755  30.399  21.663  0.00  0.00    +0.015 A 
ATOM     28  C   UNL     1      14.395  31.746  21.674  0.00  0.00    +0.164 A 
ATOM     29  O   UNL     1      14.053  32.448  22.801  0.00  0.00    -0.491 OA
ATOM     30  C   UNL     1      13.958  31.733  24.026  0.00  0.00    +0.079 C 
ATOM     31  H   UNL     1      16.644  31.237  17.035  0.00  0.00    +0.000 HD
ENDROOT
TORSDOF 0
ENDMDL
MODEL 4
REMARK VINA RESULT:    -4.461      3.079      5.356
REMARK INTER + INTRA:          -4.461
REMARK INTER:                  -4.461
REMARK INTRA:                   0.000
REMARK UNBOUND:                 0.000
REMARK  Name = /home/vital/Documents/PhD_2021/Malaria_codes/scripts/../data/pdbqt_ligands/ligand_395_temp.pdb
REMARK                            x       y       z     vdW  Elec       q    Type
REMARK                         _______ _______ _______ _____ _____    ______ ____
ROOT
ATOM      1  C   UNL     1      15.218  31.839  21.599  0.00  0.00    +0.079 C 
ATOM      2  O   UNL     1      14.865  33.010  20.875  0.00  0.00    -0.491 OA
ATOM      3  C   UNL     1      15.089  33.020  19.520  0.00  0.00    +0.162 A 
ATOM      4  C   UNL     1      15.453  31.887  18.774  0.00  0.00    -0.003 A 
ATOM      5  C   UNL     1      15.660  31.973  17.387  0.00  0.00    +0.051 A 
ATOM      6  C   UNL     1      16.095  30.797  16.641  0.00  0.00    +0.142 A 
ATOM      7  N   UNL     1      17.051  30.776  15.741  0.00  0.00    -0.227 NA
ATOM      8  C   UNL     1      17.113  29.481  15.268  0.00  0.00    +0.097 A 
ATOM      9  C   UNL     1      18.062  29.091  14.236  0.00  0.00    +0.002 A 
ATOM     10  C   UNL     1      18.384  30.009  13.225  0.00  0.00    -0.052 A 
ATOM     11  C   UNL     1      19.293  29.672  12.220  0.00  0.00    -0.061 A 
ATOM     12  C   UNL     1      19.898  28.416  12.221  0.00  0.00    -0.062 A 
ATOM     13  C   UNL     1      19.599  27.502  13.228  0.00  0.00    -0.061 A 
ATOM     14  C   UNL     1      18.689  27.839  14.235  0.00  0.00    -0.052 A 
ATOM     15  C   UNL     1      16.156  28.689  15.886  0.00  0.00    +0.074 A 
ATOM     16  C   UNL     1      15.715  27.311  15.717  0.00  0.00    +0.000 A 
ATOM     17  C   UNL     1      15.356  26.833  14.451  0.00  0.00    -0.053 A 
ATOM     18  C   UNL     1      14.922  25.514  14.288  0.00  0.00    -0.061 A 
ATOM     19  C   UNL     1      14.843  24.666  15.390  0.00  0.00    -0.062 A 
ATOM     20  C   UNL     1      15.197  25.131  16.655  0.00  0.00    -0.061 A 
ATOM     21  C   UNL     1      15.631  26.450  16.819  0.00  0.00    -0.053 A 
ATOM     22  N   UNL     1      15.534  29.551  16.763  0.00  0.00    -0.337 N 
ATOM     23  C   UNL     1      15.494  33.223  16.778  0.00  0.00    +0.140 A 
ATOM     24  N   UNL     1      15.623  33.369  15.339  0.00  0.00    +0.057 N 
ATOM     25  O   UNL     1      16.480  34.163  14.927  0.00  0.00    -0.126 OA
ATOM     26  O   UNL     1      14.794  32.769  14.638  0.00  0.00    -0.126 OA
ATOM     27  C   UNL     1      15.132  34.368  17.504  0.00  0.00    +0.015 A 
ATOM     28  C   UNL     1      14.927  34.268  18.879  0.00  0.00    +0.164 A 
ATOM     29  O   UNL     1      14.563  35.315  19.686  0.00  0.00    -0.491 OA
ATOM     30  C   UNL     1      14.489  36.609  19.103  0.00  0.00    +0.079 C 
ATOM     31  H   UNL     1      14.805  29.311  17.379  0.00  0.00    +0.000 HD
ENDROOT
TORSDOF 0
ENDMDL
MODEL 5
REMARK VINA RESULT:    -4.380      1.919      4.727
REMARK INTER + INTRA:          -4.380
REMARK INTER:                  -4.380
REMARK INTRA:                   0.000
REMARK UNBOUND:                 0.000
REMARK  Name = /home/vital/Documents/PhD_2021/Malaria_codes/scripts/../data/pdbqt_ligands/ligand_395_temp.pdb
REMARK                            x       y       z     vdW  Elec       q    Type
REMARK                         _______ _______ _______ _____ _____    ______ ____
ROOT
ATOM      1  C   UNL     1      18.519  25.632  22.988  0.00  0.00    +0.079 C 
ATOM      2  O   UNL     1      17.723  26.586  23.676  0.00  0.00    -0.491 OA
ATOM      3  C   UNL     1      17.027  27.504  22.928  0.00  0.00    +0.162 A 
ATOM      4  C   UNL     1      16.889  27.438  21.532  0.00  0.00    -0.003 A 
ATOM      5  C   UNL     1      16.156  28.412  20.834  0.00  0.00    +0.051 A 
ATOM      6  C   UNL     1      16.074  28.358  19.378  0.00  0.00    +0.142 A 
ATOM      7  N   UNL     1      16.232  29.379  18.567  0.00  0.00    -0.227 NA
ATOM      8  C   UNL     1      16.046  28.894  17.288  0.00  0.00    +0.097 A 
ATOM      9  C   UNL     1      16.134  29.763  16.125  0.00  0.00    +0.002 A 
ATOM     10  C   UNL     1      15.685  31.088  16.228  0.00  0.00    -0.052 A 
ATOM     11  C   UNL     1      15.756  31.952  15.133  0.00  0.00    -0.061 A 
ATOM     12  C   UNL     1      16.288  31.502  13.925  0.00  0.00    -0.062 A 
ATOM     13  C   UNL     1      16.752  30.193  13.814  0.00  0.00    -0.061 A 
ATOM     14  C   UNL     1      16.680  29.328  14.910  0.00  0.00    -0.052 A 
ATOM     15  C   UNL     1      15.751  27.539  17.319  0.00  0.00    +0.074 A 
ATOM     16  C   UNL     1      15.378  26.559  16.307  0.00  0.00    +0.000 A 
ATOM     17  C   UNL     1      14.318  26.815  15.429  0.00  0.00    -0.053 A 
ATOM     18  C   UNL     1      13.952  25.871  14.466  0.00  0.00    -0.061 A 
ATOM     19  C   UNL     1      14.642  24.664  14.375  0.00  0.00    -0.062 A 
ATOM     20  C   UNL     1      15.698  24.399  15.244  0.00  0.00    -0.061 A 
ATOM     21  C   UNL     1      16.065  25.342  16.208  0.00  0.00    -0.053 A 
ATOM     22  N   UNL     1      15.790  27.224  18.660  0.00  0.00    -0.337 N 
ATOM     23  C   UNL     1      15.572  29.446  21.575  0.00  0.00    +0.140 A 
ATOM     24  N   UNL     1      14.741  30.446  20.927  0.00  0.00    +0.057 N 
ATOM     25  O   UNL     1      15.093  31.629  21.038  0.00  0.00    -0.126 OA
ATOM     26  O   UNL     1      13.690  30.047  20.404  0.00  0.00    -0.126 OA
ATOM     27  C   UNL     1      15.698  29.532  22.970  0.00  0.00    +0.015 A 
ATOM     28  C   UNL     1      16.426  28.557  23.651  0.00  0.00    +0.164 A 
ATOM     29  O   UNL     1      16.607  28.534  25.010  0.00  0.00    -0.491 OA
ATOM     30  C   UNL     1      16.108  29.630  25.766  0.00  0.00    +0.079 C 
ATOM     31  H   UNL     1      15.638  26.330  19.041  0.00  0.00    +0.000 HD
ENDROOT
TORSDOF 0
ENDMDL
MODEL 6
REMARK VINA RESULT:    -4.319      3.185      5.788
REMARK INTER + INTRA:          -4.319
REMARK INTER:                  -4.319
REMARK INTRA:                   0.000
REMARK UNBOUND:                 0.000
REMARK  Name = /home/vital/Documents/PhD_2021/Malaria_codes/scripts/../data/pdbqt_ligands/ligand_395_temp.pdb
REMARK                            x       y       z     vdW  Elec       q    Type
REMARK                         _______ _______ _______ _____ _____    ______ ____
ROOT
ATOM      1  C   UNL     1      20.689  23.282  20.690  0.00  0.00    +0.079 C 
ATOM      2  O   UNL     1      20.140  23.660  21.945  0.00  0.00    -0.491 OA
ATOM      3  C   UNL     1      19.238  24.696  21.967  0.00  0.00    +0.162 A 
ATOM      4  C   UNL     1      18.672  25.271  20.819  0.00  0.00    -0.003 A 
ATOM      5  C   UNL     1      17.750  26.326  20.920  0.00  0.00    +0.051 A 
ATOM      6  C   UNL     1      17.219  26.948  19.711  0.00  0.00    +0.142 A 
ATOM      7  N   UNL     1      17.108  28.241  19.506  0.00  0.00    -0.227 NA
ATOM      8  C   UNL     1      16.537  28.390  18.258  0.00  0.00    +0.097 A 
ATOM      9  C   UNL     1      16.250  29.704  17.704  0.00  0.00    +0.002 A 
ATOM     10  C   UNL     1      15.845  30.734  18.565  0.00  0.00    -0.052 A 
ATOM     11  C   UNL     1      15.565  32.009  18.070  0.00  0.00    -0.061 A 
ATOM     12  C   UNL     1      15.697  32.270  16.707  0.00  0.00    -0.062 A 
ATOM     13  C   UNL     1      16.114  31.260  15.843  0.00  0.00    -0.061 A 
ATOM     14  C   UNL     1      16.395  29.984  16.339  0.00  0.00    -0.052 A 
ATOM     15  C   UNL     1      16.277  27.151  17.690  0.00  0.00    +0.074 A 
ATOM     16  C   UNL     1      15.614  26.714  16.468  0.00  0.00    +0.000 A 
ATOM     17  C   UNL     1      14.331  27.177  16.152  0.00  0.00    -0.053 A 
ATOM     18  C   UNL     1      13.691  26.750  14.986  0.00  0.00    -0.061 A 
ATOM     19  C   UNL     1      14.328  25.856  14.129  0.00  0.00    -0.062 A 
ATOM     20  C   UNL     1      15.604  25.388  14.433  0.00  0.00    -0.061 A 
ATOM     21  C   UNL     1      16.246  25.814  15.599  0.00  0.00    -0.053 A 
ATOM     22  N   UNL     1      16.734  26.255  18.632  0.00  0.00    -0.337 N 
ATOM     23  C   UNL     1      17.418  26.783  22.201  0.00  0.00    +0.140 A 
ATOM     24  N   UNL     1      16.419  27.821  22.382  0.00  0.00    +0.057 N 
ATOM     25  O   UNL     1      16.778  28.853  22.967  0.00  0.00    -0.126 OA
ATOM     26  O   UNL     1      15.260  27.551  22.033  0.00  0.00    -0.126 OA
ATOM     27  C   UNL     1      17.972  26.223  23.362  0.00  0.00    +0.015 A 
ATOM     28  C   UNL     1      18.884  25.175  23.248  0.00  0.00    +0.164 A 
ATOM     29  O   UNL     1      19.480  24.547  24.311  0.00  0.00    -0.491 OA
ATOM     30  C   UNL     1      19.233  25.064  25.612  0.00  0.00    +0.079 C 
ATOM     31  H   UNL     1      16.715  25.275  18.544  0.00  0.00    +0.000 HD
ENDROOT
TORSDOF 0
ENDMDL
MODEL 7
REMARK VINA RESULT:    -4.212      4.491      6.655
REMARK INTER + INTRA:          -4.212
REMARK INTER:                  -4.212
REMARK INTRA:                   0.000
REMARK UNBOUND:                 0.000
REMARK  Name = /home/vital/Documents/PhD_2021/Malaria_codes/scripts/../data/pdbqt_ligands/ligand_395_temp.pdb
REMARK                            x       y       z     vdW  Elec       q    Type
REMARK                         _______ _______ _______ _____ _____    ______ ____
ROOT
ATOM      1  C   UNL     1      15.039  35.426  18.978  0.00  0.00    +0.079 C 
ATOM      2  O   UNL     1      15.260  36.260  17.849  0.00  0.00    -0.491 OA
ATOM      3  C   UNL     1      15.766  35.681  16.711  0.00  0.00    +0.162 A 
ATOM      4  C   UNL     1      15.890  34.296  16.520  0.00  0.00    -0.003 A 
ATOM      5  C   UNL     1      16.412  33.776  15.325  0.00  0.00    +0.051 A 
ATOM      6  C   UNL     1      16.587  32.335  15.171  0.00  0.00    +0.142 A 
ATOM      7  N   UNL     1      17.655  31.745  14.686  0.00  0.00    -0.227 NA
ATOM      8  C   UNL     1      17.389  30.390  14.693  0.00  0.00    +0.097 A 
ATOM      9  C   UNL     1      18.358  29.422  14.204  0.00  0.00    +0.002 A 
ATOM     10  C   UNL     1      19.177  29.765  13.119  0.00  0.00    -0.052 A 
ATOM     11  C   UNL     1      20.121  28.863  12.624  0.00  0.00    -0.061 A 
ATOM     12  C   UNL     1      20.263  27.609  13.218  0.00  0.00    -0.062 A 
ATOM     13  C   UNL     1      19.466  27.262  14.306  0.00  0.00    -0.061 A 
ATOM     14  C   UNL     1      18.521  28.165  14.801  0.00  0.00    -0.052 A 
ATOM     15  C   UNL     1      16.114  30.146  15.182  0.00  0.00    +0.074 A 
ATOM     16  C   UNL     1      15.292  28.951  15.321  0.00  0.00    +0.000 A 
ATOM     17  C   UNL     1      15.081  28.104  14.226  0.00  0.00    -0.053 A 
ATOM     18  C   UNL     1      14.284  26.964  14.356  0.00  0.00    -0.061 A 
ATOM     19  C   UNL     1      13.690  26.664  15.580  0.00  0.00    -0.062 A 
ATOM     20  C   UNL     1      13.893  27.500  16.676  0.00  0.00    -0.061 A 
ATOM     21  C   UNL     1      14.690  28.641  16.548  0.00  0.00    -0.053 A 
ATOM     22  N   UNL     1      15.635  31.401  15.490  0.00  0.00    -0.337 N 
ATOM     23  C   UNL     1      16.804  34.684  14.334  0.00  0.00    +0.140 A 
ATOM     24  N   UNL     1      17.285  34.215  13.046  0.00  0.00    +0.057 N 
ATOM     25  O   UNL     1      18.424  34.566  12.708  0.00  0.00    -0.126 OA
ATOM     26  O   UNL     1      16.480  33.589  12.341  0.00  0.00    -0.126 OA
ATOM     27  C   UNL     1      16.690  36.072  14.503  0.00  0.00    +0.015 A 
ATOM     28  C   UNL     1      16.168  36.575  15.694  0.00  0.00    +0.164 A 
ATOM     29  O   UNL     1      16.002  37.909  15.965  0.00  0.00    -0.491 OA
ATOM     30  C   UNL     1      16.488  38.846  15.013  0.00  0.00    +0.079 C 
ATOM     31  H   UNL     1      14.751  31.596  15.878  0.00  0.00    +0.000 HD
ENDROOT
TORSDOF 0
ENDMDL
MODEL 8
REMARK VINA RESULT:    -4.083      3.205      4.256
REMARK INTER + INTRA:          -4.083
REMARK INTER:                  -4.083
REMARK INTRA:                   0.000
REMARK UNBOUND:                 0.000
REMARK  Name = /home/vital/Documents/PhD_2021/Malaria_codes/scripts/../data/pdbqt_ligands/ligand_395_temp.pdb
REMARK                            x       y       z     vdW  Elec       q    Type
REMARK                         _______ _______ _______ _____ _____    ______ ____
ROOT
ATOM      1  C   UNL     1      17.275  28.240  24.360  0.00  0.00    +0.079 C 
ATOM      2  O   UNL     1      18.026  27.035  24.300  0.00  0.00    -0.491 OA
ATOM      3  C   UNL     1      18.076  26.367  23.102  0.00  0.00    +0.162 A 
ATOM      4  C   UNL     1      17.606  26.893  21.887  0.00  0.00    -0.003 A 
ATOM      5  C   UNL     1      17.695  26.152  20.697  0.00  0.00    +0.051 A 
ATOM      6  C   UNL     1      17.148  26.694  19.458  0.00  0.00    +0.142 A 
ATOM      7  N   UNL     1      16.405  26.032  18.600  0.00  0.00    -0.227 NA
ATOM      8  C   UNL     1      16.132  26.906  17.567  0.00  0.00    +0.097 A 
ATOM      9  C   UNL     1      15.335  26.502  16.419  0.00  0.00    +0.002 A 
ATOM     10  C   UNL     1      15.439  25.185  15.947  0.00  0.00    -0.052 A 
ATOM     11  C   UNL     1      14.686  24.759  14.850  0.00  0.00    -0.061 A 
ATOM     12  C   UNL     1      13.814  25.645  14.218  0.00  0.00    -0.062 A 
ATOM     13  C   UNL     1      13.690  26.951  14.688  0.00  0.00    -0.061 A 
ATOM     14  C   UNL     1      14.443  27.377  15.786  0.00  0.00    -0.052 A 
ATOM     15  C   UNL     1      16.738  28.133  17.792  0.00  0.00    +0.074 A 
ATOM     16  C   UNL     1      16.866  29.360  17.016  0.00  0.00    +0.000 A 
ATOM     17  C   UNL     1      17.339  29.319  15.699  0.00  0.00    -0.053 A 
ATOM     18  C   UNL     1      17.473  30.495  14.958  0.00  0.00    -0.061 A 
ATOM     19  C   UNL     1      17.136  31.721  15.528  0.00  0.00    -0.062 A 
ATOM     20  C   UNL     1      16.665  31.773  16.838  0.00  0.00    -0.061 A 
ATOM     21  C   UNL     1      16.531  30.597  17.581  0.00  0.00    -0.053 A 
ATOM     22  N   UNL     1      17.365  27.971  19.009  0.00  0.00    -0.337 N 
ATOM     23  C   UNL     1      18.265  24.875  20.765  0.00  0.00    +0.140 A 
ATOM     24  N   UNL     1      18.454  24.083  19.562  0.00  0.00    +0.057 N 
ATOM     25  O   UNL     1      17.904  22.973  19.526  0.00  0.00    -0.126 OA
ATOM     26  O   UNL     1      19.237  24.532  18.712  0.00  0.00    -0.126 OA
ATOM     27  C   UNL     1      18.740  24.329  21.967  0.00  0.00    +0.015 A 
ATOM     28  C   UNL     1      18.648  25.077  23.140  0.00  0.00    +0.164 A 
ATOM     29  O   UNL     1      19.086  24.650  24.367  0.00  0.00    -0.491 OA
ATOM     30  C   UNL     1      19.574  23.319  24.473  0.00  0.00    +0.079 C 
ATOM     31  H   UNL     1      17.884  28.662  19.480  0.00  0.00    +0.000 HD
ENDROOT
TORSDOF 0
ENDMDL
MODEL 9
REMARK VINA RESULT:    -3.898      2.685      5.100
REMARK INTER + INTRA:          -3.898
REMARK INTER:                  -3.898
REMARK INTRA:                   0.000
REMARK UNBOUND:                 0.000
REMARK  Name = /home/vital/Documents/PhD_2021/Malaria_codes/scripts/../data/pdbqt_ligands/ligand_395_temp.pdb
REMARK                            x       y       z     vdW  Elec       q    Type
REMARK                         _______ _______ _______ _____ _____    ______ ____
ROOT
ATOM      1  C   UNL     1      20.471  29.397  23.633  0.00  0.00    +0.079 C 
ATOM      2  O   UNL     1      19.232  29.713  24.253  0.00  0.00    -0.491 OA
ATOM      3  C   UNL     1      18.079  29.479  23.544  0.00  0.00    +0.162 A 
ATOM      4  C   UNL     1      18.029  28.765  22.336  0.00  0.00    -0.003 A 
ATOM      5  C   UNL     1      16.810  28.560  21.669  0.00  0.00    +0.051 A 
ATOM      6  C   UNL     1      16.789  27.867  20.385  0.00  0.00    +0.142 A 
ATOM      7  N   UNL     1      16.120  28.252  19.323  0.00  0.00    -0.227 NA
ATOM      8  C   UNL     1      16.355  27.303  18.349  0.00  0.00    +0.097 A 
ATOM      9  C   UNL     1      15.753  27.402  17.028  0.00  0.00    +0.002 A 
ATOM     10  C   UNL     1      14.461  27.934  16.906  0.00  0.00    -0.052 A 
ATOM     11  C   UNL     1      13.852  28.048  15.654  0.00  0.00    -0.061 A 
ATOM     12  C   UNL     1      14.534  27.639  14.509  0.00  0.00    -0.062 A 
ATOM     13  C   UNL     1      15.824  27.123  14.615  0.00  0.00    -0.061 A 
ATOM     14  C   UNL     1      16.433  27.009  15.868  0.00  0.00    -0.052 A 
ATOM     15  C   UNL     1      17.180  26.299  18.835  0.00  0.00    +0.074 A 
ATOM     16  C   UNL     1      17.665  25.035  18.297  0.00  0.00    +0.000 A 
ATOM     17  C   UNL     1      16.769  24.101  17.764  0.00  0.00    -0.053 A 
ATOM     18  C   UNL     1      17.233  22.884  17.258  0.00  0.00    -0.061 A 
ATOM     19  C   UNL     1      18.594  22.591  17.284  0.00  0.00    -0.062 A 
ATOM     20  C   UNL     1      19.495  23.513  17.812  0.00  0.00    -0.061 A 
ATOM     21  C   UNL     1      19.033  24.731  18.319  0.00  0.00    -0.053 A 
ATOM     22  N   UNL     1      17.449  26.693  20.128  0.00  0.00    -0.337 N 
ATOM     23  C   UNL     1      15.651  29.092  22.249  0.00  0.00    +0.140 A 
ATOM     24  N   UNL     1      14.349  28.856  21.652  0.00  0.00    +0.057 N 
ATOM     25  O   UNL     1      13.691  29.853  21.323  0.00  0.00    -0.126 OA
ATOM     26  O   UNL     1      13.952  27.682  21.615  0.00  0.00    -0.126 OA
ATOM     27  C   UNL     1      15.678  29.808  23.455  0.00  0.00    +0.015 A 
ATOM     28  C   UNL     1      16.895  30.002  24.107  0.00  0.00    +0.164 A 
ATOM     29  O   UNL     1      17.039  30.677  25.293  0.00  0.00    -0.491 OA
ATOM     30  C   UNL     1      15.890  31.309  25.842  0.00  0.00    +0.079 C 
ATOM     31  H   UNL     1      18.024  26.210  20.764  0.00  0.00    +0.000 HD
ENDROOT
TORSDOF 0
ENDMDL
