MODEL 1
REMARK VINA RESULT:    -3.418      0.000      0.000
REMARK INTER + INTRA:          -3.418
REMARK INTER:                  -3.418
REMARK INTRA:                   0.000
REMARK UNBOUND:                 0.000
REMARK  Name = /home/vital/Documents/PhD_2021/Malaria_codes/scripts/../data/pdbqt_ligands/ligand_169_temp.pdb
REMARK                            x       y       z     vdW  Elec       q    Type
REMARK                         _______ _______ _______ _____ _____    ______ ____
ROOT
ATOM      1  C1  UNL     1      24.159  45.202  13.761  0.00  0.00    -0.061 C 
ATOM      2  C2  UNL     1      23.895  46.651  14.142  0.00  0.00    -0.031 C 
ATOM      3  C3  UNL     1      23.109  46.760  15.423  0.00  0.00    -0.048 A 
ATOM      4  C4  UNL     1      23.765  46.819  16.657  0.00  0.00    -0.058 A 
ATOM      5  C5  UNL     1      23.031  46.903  17.844  0.00  0.00    -0.051 A 
ATOM      6  C6  UNL     1      21.629  46.927  17.832  0.00  0.00    +0.017 A 
ATOM      7  C7  UNL     1      20.906  47.018  19.107  0.00  0.00    +0.139 A 
ATOM      8  N1  UNL     1      21.453  46.974  20.311  0.00  0.00    -0.228 NA
ATOM      9  C8  UNL     1      20.424  47.098  21.209  0.00  0.00    +0.090 A 
ATOM     10  C9  UNL     1      20.449  47.133  22.608  0.00  0.00    -0.032 A 
ATOM     11  C10 UNL     1      19.234  47.274  23.297  0.00  0.00    -0.039 A 
ATOM     12  C11 UNL     1      18.011  47.335  22.619  0.00  0.00    +0.027 A 
ATOM     13  N2  UNL     1      16.831  47.589  23.335  0.00  0.00    -0.358 N 
ATOM     14  C12 UNL     1      17.988  47.361  21.217  0.00  0.00    -0.016 A 
ATOM     15  C13 UNL     1      19.209  47.218  20.552  0.00  0.00    +0.068 A 
ATOM     16  N3  UNL     1      19.542  47.178  19.223  0.00  0.00    -0.338 N 
ATOM     17  C14 UNL     1      20.978  46.857  16.592  0.00  0.00    -0.051 A 
ATOM     18  C15 UNL     1      21.710  46.773  15.402  0.00  0.00    -0.058 A 
ATOM     19  H   UNL     1      16.840  47.572  24.320  0.00  0.00    +0.000 HD
ATOM     20  H   UNL     1      15.995  47.785  22.853  0.00  0.00    +0.000 HD
ATOM     21  H   UNL     1      18.909  47.251  18.472  0.00  0.00    +0.000 HD
ENDROOT
TORSDOF 0
ENDMDL
MODEL 2
REMARK VINA RESULT:    -3.304     18.986     19.851
REMARK INTER + INTRA:          -3.304
REMARK INTER:                  -3.304
REMARK INTRA:                   0.000
REMARK UNBOUND:                 0.000
REMARK  Name = /home/vital/Documents/PhD_2021/Malaria_codes/scripts/../data/pdbqt_ligands/ligand_169_temp.pdb
REMARK                            x       y       z     vdW  Elec       q    Type
REMARK                         _______ _______ _______ _____ _____    ______ ____
ROOT
ATOM      1  C1  UNL     1      17.124  35.092  15.911  0.00  0.00    -0.061 C 
ATOM      2  C2  UNL     1      15.723  34.576  16.197  0.00  0.00    -0.031 C 
ATOM      3  C3  UNL     1      15.645  33.074  16.090  0.00  0.00    -0.048 A 
ATOM      4  C4  UNL     1      15.896  32.269  17.205  0.00  0.00    -0.058 A 
ATOM      5  C5  UNL     1      15.840  30.876  17.098  0.00  0.00    -0.051 A 
ATOM      6  C6  UNL     1      15.536  30.253  15.880  0.00  0.00    +0.017 A 
ATOM      7  C7  UNL     1      15.488  28.786  15.821  0.00  0.00    +0.139 A 
ATOM      8  N1  UNL     1      15.813  27.962  16.804  0.00  0.00    -0.228 NA
ATOM      9  C8  UNL     1      15.618  26.691  16.325  0.00  0.00    +0.090 A 
ATOM     10  C9  UNL     1      15.791  25.455  16.957  0.00  0.00    -0.032 A 
ATOM     11  C10 UNL     1      15.512  24.286  16.231  0.00  0.00    -0.039 A 
ATOM     12  C11 UNL     1      15.112  24.335  14.890  0.00  0.00    +0.027 A 
ATOM     13  N2  UNL     1      14.734  23.154  14.234  0.00  0.00    -0.358 N 
ATOM     14  C12 UNL     1      14.880  25.573  14.274  0.00  0.00    -0.016 A 
ATOM     15  C13 UNL     1      15.165  26.723  15.015  0.00  0.00    +0.068 A 
ATOM     16  N3  UNL     1      15.079  28.060  14.724  0.00  0.00    -0.338 N 
ATOM     17  C14 UNL     1      15.295  31.066  14.763  0.00  0.00    -0.051 A 
ATOM     18  C15 UNL     1      15.351  32.461  14.867  0.00  0.00    -0.058 A 
ATOM     19  H   UNL     1      14.894  22.280  14.661  0.00  0.00    +0.000 HD
ATOM     20  H   UNL     1      14.309  23.197  13.347  0.00  0.00    +0.000 HD
ATOM     21  H   UNL     1      14.774  28.440  13.868  0.00  0.00    +0.000 HD
ENDROOT
TORSDOF 0
ENDMDL
MODEL 3
REMARK VINA RESULT:    -3.178      7.343     12.334
REMARK INTER + INTRA:          -3.178
REMARK INTER:                  -3.178
REMARK INTRA:                   0.000
REMARK UNBOUND:                 0.000
REMARK  Name = /home/vital/Documents/PhD_2021/Malaria_codes/scripts/../data/pdbqt_ligands/ligand_169_temp.pdb
REMARK                            x       y       z     vdW  Elec       q    Type
REMARK                         _______ _______ _______ _____ _____    ______ ____
ROOT
ATOM      1  C1  UNL     1      16.579  45.864  34.003  0.00  0.00    -0.061 C 
ATOM      2  C2  UNL     1      15.675  44.889  33.265  0.00  0.00    -0.031 C 
ATOM      3  C3  UNL     1      15.666  45.147  31.780  0.00  0.00    -0.048 A 
ATOM      4  C4  UNL     1      16.598  44.523  30.945  0.00  0.00    -0.058 A 
ATOM      5  C5  UNL     1      16.598  44.779  29.570  0.00  0.00    -0.051 A 
ATOM      6  C6  UNL     1      15.674  45.662  28.995  0.00  0.00    +0.017 A 
ATOM      7  C7  UNL     1      15.715  45.894  27.545  0.00  0.00    +0.139 A 
ATOM      8  N1  UNL     1      16.627  45.422  26.712  0.00  0.00    -0.228 NA
ATOM      9  C8  UNL     1      16.284  45.874  25.464  0.00  0.00    +0.090 A 
ATOM     10  C9  UNL     1      16.897  45.651  24.225  0.00  0.00    -0.032 A 
ATOM     11  C10 UNL     1      16.331  46.236  23.082  0.00  0.00    -0.039 A 
ATOM     12  C11 UNL     1      15.204  47.064  23.164  0.00  0.00    +0.027 A 
ATOM     13  N2  UNL     1      14.602  47.537  21.989  0.00  0.00    -0.358 N 
ATOM     14  C12 UNL     1      14.553  47.238  24.394  0.00  0.00    -0.016 A 
ATOM     15  C13 UNL     1      15.135  46.648  25.519  0.00  0.00    +0.068 A 
ATOM     16  N3  UNL     1      14.787  46.635  26.845  0.00  0.00    -0.338 N 
ATOM     17  C14 UNL     1      14.748  46.293  29.840  0.00  0.00    -0.051 A 
ATOM     18  C15 UNL     1      14.746  46.039  31.216  0.00  0.00    -0.058 A 
ATOM     19  H   UNL     1      15.053  47.418  21.122  0.00  0.00    +0.000 HD
ATOM     20  H   UNL     1      13.728  47.988  22.031  0.00  0.00    +0.000 HD
ATOM     21  H   UNL     1      14.001  47.083  27.234  0.00  0.00    +0.000 HD
ENDROOT
TORSDOF 0
ENDMDL
MODEL 4
REMARK VINA RESULT:    -3.136     17.433     18.508
REMARK INTER + INTRA:          -3.136
REMARK INTER:                  -3.136
REMARK INTRA:                   0.000
REMARK UNBOUND:                 0.000
REMARK  Name = /home/vital/Documents/PhD_2021/Malaria_codes/scripts/../data/pdbqt_ligands/ligand_169_temp.pdb
REMARK                            x       y       z     vdW  Elec       q    Type
REMARK                         _______ _______ _______ _____ _____    ______ ____
ROOT
ATOM      1  C1  UNL     1      15.249  24.216  15.188  0.00  0.00    -0.061 C 
ATOM      2  C2  UNL     1      14.244  25.057  14.415  0.00  0.00    -0.031 C 
ATOM      3  C3  UNL     1      14.594  26.523  14.452  0.00  0.00    -0.048 A 
ATOM      4  C4  UNL     1      15.428  27.079  13.478  0.00  0.00    -0.058 A 
ATOM      5  C5  UNL     1      15.764  28.435  13.525  0.00  0.00    -0.051 A 
ATOM      6  C6  UNL     1      15.280  29.268  14.544  0.00  0.00    +0.017 A 
ATOM      7  C7  UNL     1      15.661  30.687  14.547  0.00  0.00    +0.139 A 
ATOM      8  N1  UNL     1      16.523  31.258  13.722  0.00  0.00    -0.228 NA
ATOM      9  C8  UNL     1      16.575  32.583  14.072  0.00  0.00    +0.090 A 
ATOM     10  C9  UNL     1      17.311  33.634  13.512  0.00  0.00    -0.032 A 
ATOM     11  C10 UNL     1      17.176  34.916  14.065  0.00  0.00    -0.039 A 
ATOM     12  C11 UNL     1      16.363  35.151  15.181  0.00  0.00    +0.027 A 
ATOM     13  N2  UNL     1      16.166  36.464  15.634  0.00  0.00    -0.358 N 
ATOM     14  C12 UNL     1      15.578  34.113  15.705  0.00  0.00    -0.016 A 
ATOM     15  C13 UNL     1      15.730  32.844  15.139  0.00  0.00    +0.068 A 
ATOM     16  N3  UNL     1      15.153  31.631  15.413  0.00  0.00    -0.338 N 
ATOM     17  C14 UNL     1      14.451  28.702  15.524  0.00  0.00    -0.051 A 
ATOM     18  C15 UNL     1      14.114  27.344  15.479  0.00  0.00    -0.058 A 
ATOM     19  H   UNL     1      16.713  37.198  15.270  0.00  0.00    +0.000 HD
ATOM     20  H   UNL     1      15.481  36.652  16.315  0.00  0.00    +0.000 HD
ATOM     21  H   UNL     1      14.484  31.462  16.116  0.00  0.00    +0.000 HD
ENDROOT
TORSDOF 0
ENDMDL
MODEL 5
REMARK VINA RESULT:    -3.059      0.823      0.870
REMARK INTER + INTRA:          -3.059
REMARK INTER:                  -3.059
REMARK INTRA:                   0.000
REMARK UNBOUND:                 0.000
REMARK  Name = /home/vital/Documents/PhD_2021/Malaria_codes/scripts/../data/pdbqt_ligands/ligand_169_temp.pdb
REMARK                            x       y       z     vdW  Elec       q    Type
REMARK                         _______ _______ _______ _____ _____    ______ ____
ROOT
ATOM      1  C1  UNL     1      24.783  44.896  13.304  0.00  0.00    -0.061 C 
ATOM      2  C2  UNL     1      24.613  46.352  13.709  0.00  0.00    -0.031 C 
ATOM      3  C3  UNL     1      23.829  46.490  14.990  0.00  0.00    -0.048 A 
ATOM      4  C4  UNL     1      24.482  46.485  16.226  0.00  0.00    -0.058 A 
ATOM      5  C5  UNL     1      23.750  46.596  17.412  0.00  0.00    -0.051 A 
ATOM      6  C6  UNL     1      22.353  46.712  17.396  0.00  0.00    +0.017 A 
ATOM      7  C7  UNL     1      21.631  46.828  18.670  0.00  0.00    +0.139 A 
ATOM      8  N1  UNL     1      22.168  46.727  19.874  0.00  0.00    -0.228 NA
ATOM      9  C8  UNL     1      21.145  46.902  20.771  0.00  0.00    +0.090 A 
ATOM     10  C9  UNL     1      21.167  46.911  22.171  0.00  0.00    -0.032 A 
ATOM     11  C10 UNL     1      19.961  47.119  22.858  0.00  0.00    -0.039 A 
ATOM     12  C11 UNL     1      18.747  47.271  22.177  0.00  0.00    +0.027 A 
ATOM     13  N2  UNL     1      17.583  47.590  22.893  0.00  0.00    -0.358 N 
ATOM     14  C12 UNL     1      18.732  47.324  20.775  0.00  0.00    -0.016 A 
ATOM     15  C13 UNL     1      19.944  47.113  20.112  0.00  0.00    +0.068 A 
ATOM     16  N3  UNL     1      20.280  47.074  18.784  0.00  0.00    -0.338 N 
ATOM     17  C14 UNL     1      21.704  46.707  16.152  0.00  0.00    -0.051 A 
ATOM     18  C15 UNL     1      22.434  46.595  14.963  0.00  0.00    -0.058 A 
ATOM     19  H   UNL     1      17.586  47.555  23.878  0.00  0.00    +0.000 HD
ATOM     20  H   UNL     1      16.764  47.848  22.412  0.00  0.00    +0.000 HD
ATOM     21  H   UNL     1      19.657  47.202  18.032  0.00  0.00    +0.000 HD
ENDROOT
TORSDOF 0
ENDMDL
MODEL 6
REMARK VINA RESULT:    -2.924     19.104     19.835
REMARK INTER + INTRA:          -2.924
REMARK INTER:                  -2.924
REMARK INTRA:                   0.000
REMARK UNBOUND:                 0.000
REMARK  Name = /home/vital/Documents/PhD_2021/Malaria_codes/scripts/../data/pdbqt_ligands/ligand_169_temp.pdb
REMARK                            x       y       z     vdW  Elec       q    Type
REMARK                         _______ _______ _______ _____ _____    ______ ____
ROOT
ATOM      1  C1  UNL     1      14.542  35.111  16.953  0.00  0.00    -0.061 C 
ATOM      2  C2  UNL     1      15.921  34.471  16.997  0.00  0.00    -0.031 C 
ATOM      3  C3  UNL     1      15.842  32.966  16.967  0.00  0.00    -0.048 A 
ATOM      4  C4  UNL     1      15.840  32.279  15.749  0.00  0.00    -0.058 A 
ATOM      5  C5  UNL     1      15.749  30.884  15.725  0.00  0.00    -0.051 A 
ATOM      6  C6  UNL     1      15.655  30.141  16.910  0.00  0.00    +0.017 A 
ATOM      7  C7  UNL     1      15.564  28.677  16.830  0.00  0.00    +0.139 A 
ATOM      8  N1  UNL     1      15.453  27.970  15.718  0.00  0.00    -0.228 NA
ATOM      9  C8  UNL     1      15.404  26.653  16.100  0.00  0.00    +0.090 A 
ATOM     10  C9  UNL     1      15.309  25.493  15.322  0.00  0.00    -0.032 A 
ATOM     11  C10 UNL     1      15.281  24.250  15.973  0.00  0.00    -0.039 A 
ATOM     12  C11 UNL     1      15.302  24.154  17.369  0.00  0.00    +0.027 A 
ATOM     13  N2  UNL     1      15.387  22.893  17.978  0.00  0.00    -0.358 N 
ATOM     14  C12 UNL     1      15.459  25.310  18.148  0.00  0.00    -0.016 A 
ATOM     15  C13 UNL     1      15.482  26.537  17.479  0.00  0.00    +0.068 A 
ATOM     16  N3  UNL     1      15.596  27.831  17.917  0.00  0.00    -0.338 N 
ATOM     17  C14 UNL     1      15.648  30.837  18.128  0.00  0.00    -0.051 A 
ATOM     18  C15 UNL     1      15.738  32.234  18.155  0.00  0.00    -0.058 A 
ATOM     19  H   UNL     1      15.278  22.077  17.438  0.00  0.00    +0.000 HD
ATOM     20  H   UNL     1      15.555  22.824  18.946  0.00  0.00    +0.000 HD
ATOM     21  H   UNL     1      15.686  28.110  18.857  0.00  0.00    +0.000 HD
ENDROOT
TORSDOF 0
ENDMDL
MODEL 7
REMARK VINA RESULT:    -2.680     18.366     19.545
REMARK INTER + INTRA:          -2.680
REMARK INTER:                  -2.680
REMARK INTRA:                   0.000
REMARK UNBOUND:                 0.000
REMARK  Name = /home/vital/Documents/PhD_2021/Malaria_codes/scripts/../data/pdbqt_ligands/ligand_169_temp.pdb
REMARK                            x       y       z     vdW  Elec       q    Type
REMARK                         _______ _______ _______ _____ _____    ______ ____
ROOT
ATOM      1  C1  UNL     1      15.784  23.614  16.831  0.00  0.00    -0.061 C 
ATOM      2  C2  UNL     1      14.632  24.544  17.178  0.00  0.00    -0.031 C 
ATOM      3  C3  UNL     1      14.812  25.911  16.568  0.00  0.00    -0.048 A 
ATOM      4  C4  UNL     1      14.318  26.188  15.289  0.00  0.00    -0.058 A 
ATOM      5  C5  UNL     1      14.502  27.452  14.720  0.00  0.00    -0.051 A 
ATOM      6  C6  UNL     1      15.183  28.467  15.407  0.00  0.00    +0.017 A 
ATOM      7  C7  UNL     1      15.347  29.778  14.765  0.00  0.00    +0.139 A 
ATOM      8  N1  UNL     1      14.999  30.079  13.524  0.00  0.00    -0.228 NA
ATOM      9  C8  UNL     1      15.323  31.400  13.342  0.00  0.00    +0.090 A 
ATOM     10  C9  UNL     1      15.150  32.223  12.223  0.00  0.00    -0.032 A 
ATOM     11  C10 UNL     1      15.571  33.559  12.302  0.00  0.00    -0.039 A 
ATOM     12  C11 UNL     1      16.193  34.064  13.450  0.00  0.00    +0.027 A 
ATOM     13  N2  UNL     1      16.497  35.431  13.532  0.00  0.00    -0.358 N 
ATOM     14  C12 UNL     1      16.313  33.259  14.593  0.00  0.00    -0.016 A 
ATOM     15  C13 UNL     1      15.888  31.932  14.491  0.00  0.00    +0.068 A 
ATOM     16  N3  UNL     1      15.880  30.889  15.380  0.00  0.00    -0.338 N 
ATOM     17  C14 UNL     1      15.684  28.179  16.685  0.00  0.00    -0.051 A 
ATOM     18  C15 UNL     1      15.502  26.914  17.257  0.00  0.00    -0.058 A 
ATOM     19  H   UNL     1      16.415  36.003  12.734  0.00  0.00    +0.000 HD
ATOM     20  H   UNL     1      16.791  35.820  14.388  0.00  0.00    +0.000 HD
ATOM     21  H   UNL     1      16.203  30.928  16.310  0.00  0.00    +0.000 HD
ENDROOT
TORSDOF 0
ENDMDL
MODEL 8
REMARK VINA RESULT:    -2.605     15.810     16.925
REMARK INTER + INTRA:          -2.605
REMARK INTER:                  -2.605
REMARK INTRA:                   0.000
REMARK UNBOUND:                 0.000
REMARK  Name = /home/vital/Documents/PhD_2021/Malaria_codes/scripts/../data/pdbqt_ligands/ligand_169_temp.pdb
REMARK                            x       y       z     vdW  Elec       q    Type
REMARK                         _______ _______ _______ _____ _____    ______ ____
ROOT
ATOM      1  C1  UNL     1      38.340  45.201  21.184  0.00  0.00    -0.061 C 
ATOM      2  C2  UNL     1      38.079  46.609  21.696  0.00  0.00    -0.031 C 
ATOM      3  C3  UNL     1      37.488  46.602  23.083  0.00  0.00    -0.048 A 
ATOM      4  C4  UNL     1      38.317  46.618  24.209  0.00  0.00    -0.058 A 
ATOM      5  C5  UNL     1      37.765  46.593  25.493  0.00  0.00    -0.051 A 
ATOM      6  C6  UNL     1      36.377  46.549  25.687  0.00  0.00    +0.017 A 
ATOM      7  C7  UNL     1      35.848  46.527  27.057  0.00  0.00    +0.139 A 
ATOM      8  N1  UNL     1      36.569  46.437  28.163  0.00  0.00    -0.228 NA
ATOM      9  C8  UNL     1      35.681  46.455  29.207  0.00  0.00    +0.090 A 
ATOM     10  C9  UNL     1      35.913  46.407  30.587  0.00  0.00    -0.032 A 
ATOM     11  C10 UNL     1      34.809  46.446  31.454  0.00  0.00    -0.039 A 
ATOM     12  C11 UNL     1      33.497  46.487  30.967  0.00  0.00    +0.027 A 
ATOM     13  N2  UNL     1      32.428  46.639  31.863  0.00  0.00    -0.358 N 
ATOM     14  C12 UNL     1      33.265  46.598  29.588  0.00  0.00    -0.016 A 
ATOM     15  C13 UNL     1      34.378  46.555  28.744  0.00  0.00    +0.068 A 
ATOM     16  N3  UNL     1      34.512  46.612  27.381  0.00  0.00    -0.338 N 
ATOM     17  C14 UNL     1      35.552  46.523  24.553  0.00  0.00    -0.051 A 
ATOM     18  C15 UNL     1      36.102  46.547  23.266  0.00  0.00    -0.058 A 
ATOM     19  H   UNL     1      32.583  46.563  32.833  0.00  0.00    +0.000 HD
ATOM     20  H   UNL     1      31.522  46.822  31.522  0.00  0.00    +0.000 HD
ATOM     21  H   UNL     1      33.772  46.699  26.737  0.00  0.00    +0.000 HD
ENDROOT
TORSDOF 0
ENDMDL
MODEL 9
REMARK VINA RESULT:    -2.520     15.277     16.604
REMARK INTER + INTRA:          -2.520
REMARK INTER:                  -2.520
REMARK INTRA:                   0.000
REMARK UNBOUND:                 0.000
REMARK  Name = /home/vital/Documents/PhD_2021/Malaria_codes/scripts/../data/pdbqt_ligands/ligand_169_temp.pdb
REMARK                            x       y       z     vdW  Elec       q    Type
REMARK                         _______ _______ _______ _____ _____    ______ ____
ROOT
ATOM      1  C1  UNL     1      38.687  47.590  21.203  0.00  0.00    -0.061 C 
ATOM      2  C2  UNL     1      38.451  46.211  21.800  0.00  0.00    -0.031 C 
ATOM      3  C3  UNL     1      37.658  46.283  23.081  0.00  0.00    -0.048 A 
ATOM      4  C4  UNL     1      36.261  46.234  23.056  0.00  0.00    -0.058 A 
ATOM      5  C5  UNL     1      35.530  46.317  24.244  0.00  0.00    -0.051 A 
ATOM      6  C6  UNL     1      36.170  46.455  25.483  0.00  0.00    +0.017 A 
ATOM      7  C7  UNL     1      35.355  46.537  26.703  0.00  0.00    +0.139 A 
ATOM      8  N1  UNL     1      34.034  46.600  26.747  0.00  0.00    -0.228 NA
ATOM      9  C8  UNL     1      33.693  46.659  28.074  0.00  0.00    +0.090 A 
ATOM     10  C9  UNL     1      32.431  46.718  28.677  0.00  0.00    -0.032 A 
ATOM     11  C10 UNL     1      32.360  46.767  30.078  0.00  0.00    -0.039 A 
ATOM     12  C11 UNL     1      33.515  46.802  30.869  0.00  0.00    +0.027 A 
ATOM     13  N2  UNL     1      33.402  46.736  32.266  0.00  0.00    -0.358 N 
ATOM     14  C12 UNL     1      34.777  46.681  30.270  0.00  0.00    -0.016 A 
ATOM     15  C13 UNL     1      34.824  46.636  28.875  0.00  0.00    +0.068 A 
ATOM     16  N3  UNL     1      35.862  46.545  27.984  0.00  0.00    -0.338 N 
ATOM     17  C14 UNL     1      37.571  46.514  25.501  0.00  0.00    -0.051 A 
ATOM     18  C15 UNL     1      38.306  46.430  24.312  0.00  0.00    -0.058 A 
ATOM     19  H   UNL     1      32.519  46.820  32.694  0.00  0.00    +0.000 HD
ATOM     20  H   UNL     1      34.207  46.606  32.820  0.00  0.00    +0.000 HD
ATOM     21  H   UNL     1      36.817  46.494  28.221  0.00  0.00    +0.000 HD
ENDROOT
TORSDOF 0
ENDMDL
