MODEL 1
REMARK VINA RESULT:    -4.350      0.000      0.000
REMARK INTER + INTRA:          -4.350
REMARK INTER:                  -4.350
REMARK INTRA:                   0.000
REMARK UNBOUND:                 0.000
REMARK  Name = /home/vital/Documents/PhD_2021/Malaria_codes/scripts/../data/pdbqt_ligands/ligand_388_temp.pdb
REMARK                            x       y       z     vdW  Elec       q    Type
REMARK                         _______ _______ _______ _____ _____    ______ ____
ROOT
ATOM      1  C1  UNL     1      15.098  29.585  14.360  0.00  0.00    -0.077 C 
ATOM      2  C2  UNL     1      14.864  28.569  15.212  0.00  0.00    +0.044 C 
ATOM      3  N1  UNL     1      13.709  27.815  15.136  0.00  0.00    -0.268 N 
ATOM      4  O1  UNL     1      13.691  26.480  15.553  0.00  0.00    -0.257 OA
ATOM      5  C3  UNL     1      13.717  25.619  14.400  0.00  0.00    +0.148 C 
ATOM      6  N2  UNL     1      14.979  24.894  14.278  0.00  0.00    -0.173 NA
ATOM      7  O2  UNL     1      16.012  25.928  14.210  0.00  0.00    -0.297 OA
ATOM      8  C4  UNL     1      16.775  25.996  15.421  0.00  0.00    +0.070 C 
ATOM      9  C5  UNL     1      17.106  27.445  15.754  0.00  0.00    -0.011 C 
ATOM     10  C6  UNL     1      15.900  28.249  16.302  0.00  0.00    +0.054 C 
ATOM     11  C7  UNL     1      16.388  29.548  17.022  0.00  0.00    -0.072 C 
ATOM     12  C8  UNL     1      15.911  29.190  18.226  0.00  0.00    -0.066 C 
ATOM     13  C9  UNL     1      15.256  27.930  17.726  0.00  0.00    +0.053 C 
ATOM     14  N3  UNL     1      15.711  26.732  18.381  0.00  0.00    -0.342 N 
ATOM     15  C10 UNL     1      16.849  26.500  19.109  0.00  0.00    -0.010 C 
ATOM     16  C11 UNL     1      17.145  25.373  19.769  0.00  0.00    -0.047 C 
ATOM     17  C12 UNL     1      18.364  25.204  20.536  0.00  0.00    -0.044 C 
ATOM     18  C13 UNL     1      18.719  24.136  21.274  0.00  0.00    +0.043 C 
ATOM     19 CL1  UNL     1      17.697  22.722  21.369  0.00  0.00    -0.086 Cl
ATOM     20  C14 UNL     1      20.011  23.995  22.075  0.00  0.00    +0.089 C 
ATOM     21  C15 UNL     1      21.135  24.975  21.719  0.00  0.00    -0.037 C 
ATOM     22  N4  UNL     1      19.716  24.070  23.523  0.00  0.00    -0.250 N 
ATOM     23  C16 UNL     1      19.158  25.170  24.159  0.00  0.00    +0.047 C 
ATOM     24  C17 UNL     1      18.994  25.437  25.463  0.00  0.00    +0.045 C 
ATOM     25  N5  UNL     1      19.322  24.713  26.576  0.00  0.00    -0.264 NA
ATOM     26  C18 UNL     1      19.689  23.470  26.492  0.00  0.00    +0.033 C 
ATOM     27  C19 UNL     1      19.817  22.604  25.263  0.00  0.00    +0.111 C 
ATOM     28  O3  UNL     1      20.584  23.253  24.261  0.00  0.00    -0.266 OA
ATOM     29  H   UNL     1      12.886  28.224  14.783  0.00  0.00    +0.000 HD
ATOM     30  H   UNL     1      14.985  24.327  13.430  0.00  0.00    +0.000 HD
ATOM     31  H   UNL     1      15.111  25.956  18.291  0.00  0.00    +0.000 HD
ENDROOT
TORSDOF 0
ENDMDL
MODEL 2
REMARK VINA RESULT:    -4.312      3.992      5.202
REMARK INTER + INTRA:          -4.312
REMARK INTER:                  -4.312
REMARK INTRA:                   0.000
REMARK UNBOUND:                 0.000
REMARK  Name = /home/vital/Documents/PhD_2021/Malaria_codes/scripts/../data/pdbqt_ligands/ligand_388_temp.pdb
REMARK                            x       y       z     vdW  Elec       q    Type
REMARK                         _______ _______ _______ _____ _____    ______ ____
ROOT
ATOM      1  C1  UNL     1      14.709  24.695  14.238  0.00  0.00    -0.077 C 
ATOM      2  C2  UNL     1      15.358  25.678  14.891  0.00  0.00    +0.044 C 
ATOM      3  N1  UNL     1      16.263  26.497  14.244  0.00  0.00    -0.268 N 
ATOM      4  O1  UNL     1      16.485  27.808  14.678  0.00  0.00    -0.257 OA
ATOM      5  C3  UNL     1      15.809  28.723  13.797  0.00  0.00    +0.148 C 
ATOM      6  N2  UNL     1      14.678  29.383  14.446  0.00  0.00    -0.173 NA
ATOM      7  O2  UNL     1      13.800  28.299  14.885  0.00  0.00    -0.297 OA
ATOM      8  C4  UNL     1      13.838  28.127  16.307  0.00  0.00    +0.070 C 
ATOM      9  C5  UNL     1      13.774  26.647  16.662  0.00  0.00    -0.011 C 
ATOM     10  C6  UNL     1      15.095  25.884  16.391  0.00  0.00    +0.054 C 
ATOM     11  C7  UNL     1      15.112  24.525  17.164  0.00  0.00    -0.072 C 
ATOM     12  C8  UNL     1      16.171  24.847  17.926  0.00  0.00    -0.066 C 
ATOM     13  C9  UNL     1      16.416  26.165  17.241  0.00  0.00    +0.053 C 
ATOM     14  N3  UNL     1      16.379  27.302  18.123  0.00  0.00    -0.342 N 
ATOM     15  C10 UNL     1      15.833  27.433  19.373  0.00  0.00    -0.010 C 
ATOM     16  C11 UNL     1      15.933  28.507  20.167  0.00  0.00    -0.047 C 
ATOM     17  C12 UNL     1      15.341  28.569  21.490  0.00  0.00    -0.044 C 
ATOM     18  C13 UNL     1      15.437  29.578  22.377  0.00  0.00    +0.043 C 
ATOM     19 CL1  UNL     1      16.315  31.039  21.993  0.00  0.00    -0.086 Cl
ATOM     20  C14 UNL     1      14.805  29.607  23.765  0.00  0.00    +0.089 C 
ATOM     21  C15 UNL     1      13.690  28.585  24.020  0.00  0.00    -0.037 C 
ATOM     22  N4  UNL     1      15.855  29.474  24.799  0.00  0.00    -0.250 N 
ATOM     23  C16 UNL     1      16.691  28.376  24.939  0.00  0.00    +0.047 C 
ATOM     24  C17 UNL     1      17.556  28.052  25.912  0.00  0.00    +0.045 C 
ATOM     25  N5  UNL     1      17.889  28.700  27.071  0.00  0.00    -0.264 NA
ATOM     26  C18 UNL     1      17.514  29.924  27.294  0.00  0.00    +0.033 C 
ATOM     27  C19 UNL     1      16.710  30.842  26.407  0.00  0.00    +0.111 C 
ATOM     28  O3  UNL     1      15.528  30.204  25.951  0.00  0.00    -0.266 OA
ATOM     29  H   UNL     1      16.759  26.153  13.466  0.00  0.00    +0.000 HD
ATOM     30  H   UNL     1      14.193  29.992  13.786  0.00  0.00    +0.000 HD
ATOM     31  H   UNL     1      16.815  28.113  17.774  0.00  0.00    +0.000 HD
ENDROOT
TORSDOF 0
ENDMDL
MODEL 3
REMARK VINA RESULT:    -4.273      5.339      9.114
REMARK INTER + INTRA:          -4.273
REMARK INTER:                  -4.273
REMARK INTRA:                   0.000
REMARK UNBOUND:                 0.000
REMARK  Name = /home/vital/Documents/PhD_2021/Malaria_codes/scripts/../data/pdbqt_ligands/ligand_388_temp.pdb
REMARK                            x       y       z     vdW  Elec       q    Type
REMARK                         _______ _______ _______ _____ _____    ______ ____
ROOT
ATOM      1  C1  UNL     1      14.690  24.694  14.286  0.00  0.00    -0.077 C 
ATOM      2  C2  UNL     1      14.874  25.434  15.396  0.00  0.00    +0.044 C 
ATOM      3  N1  UNL     1      14.771  24.880  16.657  0.00  0.00    -0.268 N 
ATOM      4  O1  UNL     1      15.493  25.402  17.735  0.00  0.00    -0.257 OA
ATOM      5  C3  UNL     1      16.618  24.549  18.014  0.00  0.00    +0.148 C 
ATOM      6  N2  UNL     1      17.892  25.184  17.682  0.00  0.00    -0.173 NA
ATOM      7  O2  UNL     1      17.797  25.516  16.260  0.00  0.00    -0.297 OA
ATOM      8  C4  UNL     1      17.642  26.926  16.053  0.00  0.00    +0.070 C 
ATOM      9  C5  UNL     1      16.681  27.186  14.899  0.00  0.00    -0.011 C 
ATOM     10  C6  UNL     1      15.195  26.930  15.256  0.00  0.00    +0.054 C 
ATOM     11  C7  UNL     1      14.255  27.620  14.214  0.00  0.00    -0.072 C 
ATOM     12  C8  UNL     1      13.690  28.447  15.109  0.00  0.00    -0.066 C 
ATOM     13  C9  UNL     1      14.410  27.855  16.292  0.00  0.00    +0.053 C 
ATOM     14  N3  UNL     1      15.201  28.802  17.033  0.00  0.00    -0.342 N 
ATOM     15  C10 UNL     1      15.681  30.031  16.665  0.00  0.00    -0.010 C 
ATOM     16  C11 UNL     1      16.330  30.893  17.459  0.00  0.00    -0.047 C 
ATOM     17  C12 UNL     1      16.797  32.188  17.004  0.00  0.00    -0.044 C 
ATOM     18  C13 UNL     1      17.404  33.139  17.740  0.00  0.00    +0.043 C 
ATOM     19 CL1  UNL     1      17.754  32.885  19.433  0.00  0.00    -0.086 Cl
ATOM     20  C14 UNL     1      17.877  34.496  17.229  0.00  0.00    +0.089 C 
ATOM     21  C15 UNL     1      18.000  34.638  15.706  0.00  0.00    -0.037 C 
ATOM     22  N4  UNL     1      17.007  35.567  17.764  0.00  0.00    -0.250 N 
ATOM     23  C16 UNL     1      15.647  35.678  17.516  0.00  0.00    +0.047 C 
ATOM     24  C17 UNL     1      14.784  36.667  17.792  0.00  0.00    +0.045 C 
ATOM     25  N5  UNL     1      14.970  37.877  18.404  0.00  0.00    -0.264 NA
ATOM     26  C18 UNL     1      16.074  38.157  19.029  0.00  0.00    +0.033 C 
ATOM     27  C19 UNL     1      17.295  37.291  19.224  0.00  0.00    +0.111 C 
ATOM     28  O3  UNL     1      17.734  36.745  17.991  0.00  0.00    -0.266 OA
ATOM     29  H   UNL     1      14.179  24.106  16.799  0.00  0.00    +0.000 HD
ATOM     30  H   UNL     1      18.666  24.542  17.849  0.00  0.00    +0.000 HD
ATOM     31  H   UNL     1      15.434  28.523  17.948  0.00  0.00    +0.000 HD
ENDROOT
TORSDOF 0
ENDMDL
MODEL 4
REMARK VINA RESULT:    -4.259      6.563     10.043
REMARK INTER + INTRA:          -4.259
REMARK INTER:                  -4.259
REMARK INTRA:                   0.000
REMARK UNBOUND:                 0.000
REMARK  Name = /home/vital/Documents/PhD_2021/Malaria_codes/scripts/../data/pdbqt_ligands/ligand_388_temp.pdb
REMARK                            x       y       z     vdW  Elec       q    Type
REMARK                         _______ _______ _______ _____ _____    ______ ____
ROOT
ATOM      1  C1  UNL     1      17.068  38.581  18.520  0.00  0.00    -0.077 C 
ATOM      2  C2  UNL     1      16.241  37.755  17.851  0.00  0.00    +0.044 C 
ATOM      3  N1  UNL     1      14.992  38.171  17.430  0.00  0.00    -0.268 N 
ATOM      4  O1  UNL     1      14.391  37.613  16.297  0.00  0.00    -0.257 OA
ATOM      5  C3  UNL     1      14.502  38.532  15.195  0.00  0.00    +0.148 C 
ATOM      6  N2  UNL     1      15.414  38.049  14.160  0.00  0.00    -0.173 NA
ATOM      7  O2  UNL     1      16.696  37.851  14.837  0.00  0.00    -0.297 OA
ATOM      8  C4  UNL     1      16.995  36.460  15.010  0.00  0.00    +0.070 C 
ATOM      9  C5  UNL     1      17.665  36.229  16.359  0.00  0.00    -0.011 C 
ATOM     10  C6  UNL     1      16.691  36.315  17.561  0.00  0.00    +0.054 C 
ATOM     11  C7  UNL     1      17.322  35.649  18.826  0.00  0.00    -0.072 C 
ATOM     12  C8  UNL     1      16.386  34.691  18.924  0.00  0.00    -0.066 C 
ATOM     13  C9  UNL     1      15.548  35.226  17.793  0.00  0.00    +0.053 C 
ATOM     14  N3  UNL     1      15.332  34.285  16.725  0.00  0.00    -0.342 N 
ATOM     15  C10 UNL     1      16.020  33.146  16.399  0.00  0.00    -0.010 C 
ATOM     16  C11 UNL     1      15.686  32.273  15.439  0.00  0.00    -0.047 C 
ATOM     17  C12 UNL     1      16.455  31.075  15.160  0.00  0.00    -0.044 C 
ATOM     18  C13 UNL     1      16.168  30.116  14.260  0.00  0.00    +0.043 C 
ATOM     19 CL1  UNL     1      14.759  30.233  13.233  0.00  0.00    -0.086 Cl
ATOM     20  C14 UNL     1      16.998  28.863  13.996  0.00  0.00    +0.089 C 
ATOM     21  C15 UNL     1      18.437  28.884  14.527  0.00  0.00    -0.037 C 
ATOM     22  N4  UNL     1      16.288  27.671  14.511  0.00  0.00    -0.250 N 
ATOM     23  C16 UNL     1      15.957  27.464  15.843  0.00  0.00    +0.047 C 
ATOM     24  C17 UNL     1      15.474  26.378  16.466  0.00  0.00    +0.045 C 
ATOM     25  N5  UNL     1      15.155  25.136  15.989  0.00  0.00    -0.264 NA
ATOM     26  C18 UNL     1      15.089  24.897  14.714  0.00  0.00    +0.033 C 
ATOM     27  C19 UNL     1      15.315  25.844  13.562  0.00  0.00    +0.111 C 
ATOM     28  O3  UNL     1      16.538  26.547  13.712  0.00  0.00    -0.266 OA
ATOM     29  H   UNL     1      14.519  38.871  17.935  0.00  0.00    +0.000 HD
ATOM     30  H   UNL     1      15.506  38.739  13.415  0.00  0.00    +0.000 HD
ATOM     31  H   UNL     1      14.571  34.493  16.136  0.00  0.00    +0.000 HD
ENDROOT
TORSDOF 0
ENDMDL
MODEL 5
REMARK VINA RESULT:    -4.206      7.104     10.325
REMARK INTER + INTRA:          -4.206
REMARK INTER:                  -4.206
REMARK INTRA:                   0.000
REMARK UNBOUND:                 0.000
REMARK  Name = /home/vital/Documents/PhD_2021/Malaria_codes/scripts/../data/pdbqt_ligands/ligand_388_temp.pdb
REMARK                            x       y       z     vdW  Elec       q    Type
REMARK                         _______ _______ _______ _____ _____    ______ ____
ROOT
ATOM      1  C1  UNL     1      17.080  39.581  17.969  0.00  0.00    -0.077 C 
ATOM      2  C2  UNL     1      16.256  38.750  17.304  0.00  0.00    +0.044 C 
ATOM      3  N1  UNL     1      15.156  39.224  16.614  0.00  0.00    -0.268 N 
ATOM      4  O1  UNL     1      14.661  38.546  15.496  0.00  0.00    -0.257 OA
ATOM      5  C3  UNL     1      15.066  39.237  14.300  0.00  0.00    +0.148 C 
ATOM      6  N2  UNL     1      16.046  38.478  13.526  0.00  0.00    -0.173 NA
ATOM      7  O2  UNL     1      17.169  38.259  14.436  0.00  0.00    -0.297 OA
ATOM      8  C4  UNL     1      17.240  36.895  14.873  0.00  0.00    +0.070 C 
ATOM      9  C5  UNL     1      17.659  36.832  16.337  0.00  0.00    -0.011 C 
ATOM     10  C6  UNL     1      16.536  37.239  17.324  0.00  0.00    +0.054 C 
ATOM     11  C7  UNL     1      16.869  36.740  18.768  0.00  0.00    -0.072 C 
ATOM     12  C8  UNL     1      15.802  35.927  18.850  0.00  0.00    -0.066 C 
ATOM     13  C9  UNL     1      15.229  36.345  17.522  0.00  0.00    +0.053 C 
ATOM     14  N3  UNL     1      15.047  35.262  16.592  0.00  0.00    -0.342 N 
ATOM     15  C10 UNL     1      15.608  34.012  16.571  0.00  0.00    -0.010 C 
ATOM     16  C11 UNL     1      15.302  33.027  15.717  0.00  0.00    -0.047 C 
ATOM     17  C12 UNL     1      15.928  31.719  15.765  0.00  0.00    -0.044 C 
ATOM     18  C13 UNL     1      15.647  30.654  14.989  0.00  0.00    +0.043 C 
ATOM     19 CL1  UNL     1      14.440  30.748  13.729  0.00  0.00    -0.086 Cl
ATOM     20  C14 UNL     1      16.322  29.289  15.071  0.00  0.00    +0.089 C 
ATOM     21  C15 UNL     1      17.652  29.238  15.832  0.00  0.00    -0.037 C 
ATOM     22  N4  UNL     1      15.381  28.295  15.635  0.00  0.00    -0.250 N 
ATOM     23  C16 UNL     1      14.827  28.365  16.905  0.00  0.00    +0.047 C 
ATOM     24  C17 UNL     1      14.107  27.470  17.597  0.00  0.00    +0.045 C 
ATOM     25  N5  UNL     1      13.691  26.207  17.271  0.00  0.00    -0.264 NA
ATOM     26  C18 UNL     1      13.785  25.755  16.057  0.00  0.00    +0.033 C 
ATOM     27  C19 UNL     1      14.314  26.452  14.828  0.00  0.00    +0.111 C 
ATOM     28  O3  UNL     1      15.587  27.026  15.076  0.00  0.00    -0.266 OA
ATOM     29  H   UNL     1      14.716  40.052  16.915  0.00  0.00    +0.000 HD
ATOM     30  H   UNL     1      16.346  39.011  12.709  0.00  0.00    +0.000 HD
ATOM     31  H   UNL     1      14.420  35.448  15.856  0.00  0.00    +0.000 HD
ENDROOT
TORSDOF 0
ENDMDL
MODEL 6
REMARK VINA RESULT:    -4.192      6.180     10.633
REMARK INTER + INTRA:          -4.192
REMARK INTER:                  -4.192
REMARK INTRA:                   0.000
REMARK UNBOUND:                 0.000
REMARK  Name = /home/vital/Documents/PhD_2021/Malaria_codes/scripts/../data/pdbqt_ligands/ligand_388_temp.pdb
REMARK                            x       y       z     vdW  Elec       q    Type
REMARK                         _______ _______ _______ _____ _____    ______ ____
ROOT
ATOM      1  C1  UNL     1      15.630  25.612  14.219  0.00  0.00    -0.077 C 
ATOM      2  C2  UNL     1      15.081  26.647  14.881  0.00  0.00    +0.044 C 
ATOM      3  N1  UNL     1      13.936  26.492  15.640  0.00  0.00    -0.268 N 
ATOM      4  O1  UNL     1      13.690  27.309  16.747  0.00  0.00    -0.257 OA
ATOM      5  C3  UNL     1      13.971  26.576  17.954  0.00  0.00    +0.148 C 
ATOM      6  N2  UNL     1      15.151  27.084  18.649  0.00  0.00    -0.173 NA
ATOM      7  O2  UNL     1      16.243  26.979  17.681  0.00  0.00    -0.297 OA
ATOM      8  C4  UNL     1      16.634  28.265  17.181  0.00  0.00    +0.070 C 
ATOM      9  C5  UNL     1      16.975  28.172  15.699  0.00  0.00    -0.011 C 
ATOM     10  C6  UNL     1      15.734  28.034  14.781  0.00  0.00    +0.054 C 
ATOM     11  C7  UNL     1      16.104  28.385  13.304  0.00  0.00    -0.072 C 
ATOM     12  C8  UNL     1      15.276  29.441  13.232  0.00  0.00    -0.066 C 
ATOM     13  C9  UNL     1      14.688  29.225  14.601  0.00  0.00    +0.053 C 
ATOM     14  N3  UNL     1      14.837  30.349  15.489  0.00  0.00    -0.342 N 
ATOM     15  C10 UNL     1      15.697  31.413  15.429  0.00  0.00    -0.010 C 
ATOM     16  C11 UNL     1      15.699  32.471  16.251  0.00  0.00    -0.047 C 
ATOM     17  C12 UNL     1      16.632  33.573  16.118  0.00  0.00    -0.044 C 
ATOM     18  C13 UNL     1      16.673  34.698  16.856  0.00  0.00    +0.043 C 
ATOM     19 CL1  UNL     1      15.552  34.957  18.172  0.00  0.00    -0.086 Cl
ATOM     20  C14 UNL     1      17.667  35.843  16.684  0.00  0.00    +0.089 C 
ATOM     21  C15 UNL     1      18.923  35.527  15.863  0.00  0.00    -0.037 C 
ATOM     22  N4  UNL     1      16.980  37.025  16.118  0.00  0.00    -0.250 N 
ATOM     23  C16 UNL     1      16.358  37.058  14.878  0.00  0.00    +0.047 C 
ATOM     24  C17 UNL     1      15.853  38.086  14.179  0.00  0.00    +0.045 C 
ATOM     25  N5  UNL     1      15.789  39.422  14.466  0.00  0.00    -0.264 NA
ATOM     26  C18 UNL     1      16.061  39.874  15.653  0.00  0.00    +0.033 C 
ATOM     27  C19 UNL     1      16.461  39.104  16.888  0.00  0.00    +0.111 C 
ATOM     28  O3  UNL     1      17.532  38.217  16.610  0.00  0.00    -0.266 OA
ATOM     29  H   UNL     1      13.284  25.795  15.396  0.00  0.00    +0.000 HD
ATOM     30  H   UNL     1      15.350  26.518  19.475  0.00  0.00    +0.000 HD
ATOM     31  H   UNL     1      14.225  30.353  16.260  0.00  0.00    +0.000 HD
ENDROOT
TORSDOF 0
ENDMDL
MODEL 7
REMARK VINA RESULT:    -4.044     18.785     20.452
REMARK INTER + INTRA:          -4.044
REMARK INTER:                  -4.044
REMARK INTRA:                   0.000
REMARK UNBOUND:                 0.000
REMARK  Name = /home/vital/Documents/PhD_2021/Malaria_codes/scripts/../data/pdbqt_ligands/ligand_388_temp.pdb
REMARK                            x       y       z     vdW  Elec       q    Type
REMARK                         _______ _______ _______ _____ _____    ______ ____
ROOT
ATOM      1  C1  UNL     1      24.688  46.464  14.901  0.00  0.00    -0.077 C 
ATOM      2  C2  UNL     1      23.728  45.677  15.420  0.00  0.00    +0.044 C 
ATOM      3  N1  UNL     1      23.313  44.527  14.777  0.00  0.00    -0.268 N 
ATOM      4  O1  UNL     1      22.808  43.440  15.499  0.00  0.00    -0.257 OA
ATOM      5  C3  UNL     1      23.813  42.415  15.584  0.00  0.00    +0.148 C 
ATOM      6  N2  UNL     1      24.328  42.254  16.942  0.00  0.00    -0.173 NA
ATOM      7  O2  UNL     1      24.856  43.568  17.312  0.00  0.00    -0.297 OA
ATOM      8  C4  UNL     1      24.018  44.226  18.271  0.00  0.00    +0.070 C 
ATOM      9  C5  UNL     1      23.952  45.719  17.976  0.00  0.00    -0.011 C 
ATOM     10  C6  UNL     1      23.071  46.073  16.752  0.00  0.00    +0.054 C 
ATOM     11  C7  UNL     1      22.690  47.589  16.771  0.00  0.00    -0.072 C 
ATOM     12  C8  UNL     1      21.370  47.369  16.884  0.00  0.00    -0.066 C 
ATOM     13  C9  UNL     1      21.488  45.872  16.771  0.00  0.00    +0.053 C 
ATOM     14  N3  UNL     1      20.947  45.154  17.895  0.00  0.00    -0.342 N 
ATOM     15  C10 UNL     1      20.669  45.583  19.167  0.00  0.00    -0.010 C 
ATOM     16  C11 UNL     1      20.071  44.864  20.126  0.00  0.00    -0.047 C 
ATOM     17  C12 UNL     1      19.793  45.391  21.449  0.00  0.00    -0.044 C 
ATOM     18  C13 UNL     1      19.149  44.767  22.453  0.00  0.00    +0.043 C 
ATOM     19 CL1  UNL     1      18.568  43.128  22.276  0.00  0.00    -0.086 Cl
ATOM     20  C14 UNL     1      18.867  45.355  23.833  0.00  0.00    +0.089 C 
ATOM     21  C15 UNL     1      19.690  46.589  24.220  0.00  0.00    -0.037 C 
ATOM     22  N4  UNL     1      17.424  45.649  23.970  0.00  0.00    -0.250 N 
ATOM     23  C16 UNL     1      16.723  46.547  23.179  0.00  0.00    +0.047 C 
ATOM     24  C17 UNL     1      15.476  47.029  23.295  0.00  0.00    +0.045 C 
ATOM     25  N5  UNL     1      14.503  46.788  24.227  0.00  0.00    -0.264 NA
ATOM     26  C18 UNL     1      14.611  45.817  25.084  0.00  0.00    +0.033 C 
ATOM     27  C19 UNL     1      15.725  44.811  25.235  0.00  0.00    +0.111 C 
ATOM     28  O3  UNL     1      16.989  45.453  25.289  0.00  0.00    -0.266 OA
ATOM     29  H   UNL     1      23.373  44.471  13.796  0.00  0.00    +0.000 HD
ATOM     30  H   UNL     1      25.068  41.552  16.963  0.00  0.00    +0.000 HD
ATOM     31  H   UNL     1      20.746  44.205  17.724  0.00  0.00    +0.000 HD
ENDROOT
TORSDOF 0
ENDMDL
MODEL 8
REMARK VINA RESULT:    -3.846      4.419      4.799
REMARK INTER + INTRA:          -3.846
REMARK INTER:                  -3.846
REMARK INTRA:                   0.000
REMARK UNBOUND:                 0.000
REMARK  Name = /home/vital/Documents/PhD_2021/Malaria_codes/scripts/../data/pdbqt_ligands/ligand_388_temp.pdb
REMARK                            x       y       z     vdW  Elec       q    Type
REMARK                         _______ _______ _______ _____ _____    ______ ____
ROOT
ATOM      1  C1  UNL     1      14.779  29.205  14.989  0.00  0.00    -0.077 C 
ATOM      2  C2  UNL     1      15.219  28.352  15.934  0.00  0.00    +0.044 C 
ATOM      3  N1  UNL     1      14.369  27.843  16.897  0.00  0.00    -0.268 N 
ATOM      4  O1  UNL     1      14.603  26.590  17.473  0.00  0.00    -0.257 OA
ATOM      5  C3  UNL     1      13.701  25.626  16.902  0.00  0.00    +0.148 C 
ATOM      6  N2  UNL     1      14.391  24.652  16.059  0.00  0.00    -0.173 NA
ATOM      7  O2  UNL     1      15.066  25.444  15.030  0.00  0.00    -0.297 OA
ATOM      8  C4  UNL     1      16.484  25.483  15.237  0.00  0.00    +0.070 C 
ATOM      9  C5  UNL     1      17.028  26.863  14.889  0.00  0.00    -0.011 C 
ATOM     10  C6  UNL     1      16.701  27.947  15.947  0.00  0.00    +0.054 C 
ATOM     11  C7  UNL     1      17.633  29.188  15.767  0.00  0.00    -0.072 C 
ATOM     12  C8  UNL     1      18.216  29.063  16.971  0.00  0.00    -0.066 C 
ATOM     13  C9  UNL     1      17.344  27.915  17.407  0.00  0.00    +0.053 C 
ATOM     14  N3  UNL     1      18.073  26.725  17.760  0.00  0.00    -0.342 N 
ATOM     15  C10 UNL     1      19.352  26.347  17.447  0.00  0.00    -0.010 C 
ATOM     16  C11 UNL     1      19.985  25.259  17.905  0.00  0.00    -0.047 C 
ATOM     17  C12 UNL     1      21.351  24.929  17.543  0.00  0.00    -0.044 C 
ATOM     18  C13 UNL     1      22.085  23.895  17.995  0.00  0.00    +0.043 C 
ATOM     19 CL1  UNL     1      21.416  22.734  19.116  0.00  0.00    -0.086 Cl
ATOM     20  C14 UNL     1      23.524  23.581  17.596  0.00  0.00    +0.089 C 
ATOM     21  C15 UNL     1      24.038  24.272  16.327  0.00  0.00    -0.037 C 
ATOM     22  N4  UNL     1      24.433  23.866  18.728  0.00  0.00    -0.250 N 
ATOM     23  C16 UNL     1      24.610  25.116  19.303  0.00  0.00    +0.047 C 
ATOM     24  C17 UNL     1      25.505  25.546  20.205  0.00  0.00    +0.045 C 
ATOM     25  N5  UNL     1      26.524  24.891  20.842  0.00  0.00    -0.264 NA
ATOM     26  C18 UNL     1      26.633  23.598  20.793  0.00  0.00    +0.033 C 
ATOM     27  C19 UNL     1      25.739  22.600  20.098  0.00  0.00    +0.111 C 
ATOM     28  O3  UNL     1      25.514  22.972  18.748  0.00  0.00    -0.266 OA
ATOM     29  H   UNL     1      13.588  28.370  17.182  0.00  0.00    +0.000 HD
ATOM     30  H   UNL     1      13.722  24.009  15.634  0.00  0.00    +0.000 HD
ATOM     31  H   UNL     1      17.574  26.081  18.313  0.00  0.00    +0.000 HD
ENDROOT
TORSDOF 0
ENDMDL
MODEL 9
REMARK VINA RESULT:    -3.834      5.722      9.635
REMARK INTER + INTRA:          -3.834
REMARK INTER:                  -3.834
REMARK INTRA:                   0.000
REMARK UNBOUND:                 0.000
REMARK  Name = /home/vital/Documents/PhD_2021/Malaria_codes/scripts/../data/pdbqt_ligands/ligand_388_temp.pdb
REMARK                            x       y       z     vdW  Elec       q    Type
REMARK                         _______ _______ _______ _____ _____    ______ ____
ROOT
ATOM      1  C1  UNL     1      15.692  24.466  18.217  0.00  0.00    -0.077 C 
ATOM      2  C2  UNL     1      16.033  25.458  17.372  0.00  0.00    +0.044 C 
ATOM      3  N1  UNL     1      16.548  25.191  16.118  0.00  0.00    -0.268 N 
ATOM      4  O1  UNL     1      16.359  26.082  15.057  0.00  0.00    -0.257 OA
ATOM      5  C3  UNL     1      15.337  25.573  14.182  0.00  0.00    +0.148 C 
ATOM      6  N2  UNL     1      14.115  26.374  14.230  0.00  0.00    -0.173 NA
ATOM      7  O2  UNL     1      13.695  26.351  15.631  0.00  0.00    -0.297 OA
ATOM      8  C4  UNL     1      13.920  27.613  16.273  0.00  0.00    +0.070 C 
ATOM      9  C5  UNL     1      14.388  27.398  17.707  0.00  0.00    -0.011 C 
ATOM     10  C6  UNL     1      15.857  26.918  17.818  0.00  0.00    +0.054 C 
ATOM     11  C7  UNL     1      16.398  27.141  19.267  0.00  0.00    -0.072 C 
ATOM     12  C8  UNL     1      17.355  28.007  18.893  0.00  0.00    -0.066 C 
ATOM     13  C9  UNL     1      17.080  27.862  17.420  0.00  0.00    +0.053 C 
ATOM     14  N3  UNL     1      16.748  29.097  16.760  0.00  0.00    -0.342 N 
ATOM     15  C10 UNL     1      16.308  30.286  17.279  0.00  0.00    -0.010 C 
ATOM     16  C11 UNL     1      16.117  31.422  16.594  0.00  0.00    -0.047 C 
ATOM     17  C12 UNL     1      15.663  32.651  17.215  0.00  0.00    -0.044 C 
ATOM     18  C13 UNL     1      15.498  33.849  16.623  0.00  0.00    +0.043 C 
ATOM     19 CL1  UNL     1      15.797  34.061  14.914  0.00  0.00    -0.086 Cl
ATOM     20  C14 UNL     1      15.025  35.126  17.309  0.00  0.00    +0.089 C 
ATOM     21  C15 UNL     1      14.344  34.946  18.672  0.00  0.00    -0.037 C 
ATOM     22  N4  UNL     1      16.150  36.080  17.431  0.00  0.00    -0.250 N 
ATOM     23  C16 UNL     1      17.314  35.840  18.146  0.00  0.00    +0.047 C 
ATOM     24  C17 UNL     1      18.324  36.659  18.475  0.00  0.00    +0.045 C 
ATOM     25  N5  UNL     1      18.527  37.986  18.210  0.00  0.00    -0.264 NA
ATOM     26  C18 UNL     1      17.787  38.627  17.356  0.00  0.00    +0.033 C 
ATOM     27  C19 UNL     1      16.644  38.108  16.520  0.00  0.00    +0.111 C 
ATOM     28  O3  UNL     1      15.706  37.405  17.320  0.00  0.00    -0.266 OA
ATOM     29  H   UNL     1      17.056  24.361  15.969  0.00  0.00    +0.000 HD
ATOM     30  H   UNL     1      13.396  25.965  13.633  0.00  0.00    +0.000 HD
ATOM     31  H   UNL     1      16.853  29.086  15.781  0.00  0.00    +0.000 HD
ENDROOT
TORSDOF 0
ENDMDL
