MODEL 1
REMARK VINA RESULT:    -3.465      0.000      0.000
REMARK INTER + INTRA:          -3.465
REMARK INTER:                  -3.465
REMARK INTRA:                   0.000
REMARK UNBOUND:                 0.000
REMARK  Name = /home/vital/Documents/PhD_2021/Malaria_codes/scripts/../data/pdbqt_ligands/ligand_67_temp.pdb
REMARK                            x       y       z     vdW  Elec       q    Type
REMARK                         _______ _______ _______ _____ _____    ______ ____
ROOT
ATOM      1  C1  UNL     1      14.815  32.152  12.445  0.00  0.00    -0.055 C 
ATOM      2  C2  UNL     1      14.828  31.785  13.732  0.00  0.00    +0.135 C 
ATOM      3  O1  UNL     1      14.411  32.671  14.714  0.00  0.00    -0.485 OA
ATOM      4  C3  UNL     1      15.520  33.279  15.405  0.00  0.00    +0.131 C 
ATOM      5  C4  UNL     1      16.322  32.184  16.106  0.00  0.00    +0.075 C 
ATOM      6  N1  UNL     1      15.713  31.623  17.084  0.00  0.00    -0.266 NA
ATOM      7  C5  UNL     1      15.994  30.280  17.521  0.00  0.00    +0.103 C 
ATOM      8  N2  UNL     1      14.735  29.522  17.541  0.00  0.00    -0.324 N 
ATOM      9  C6  UNL     1      14.677  28.363  16.746  0.00  0.00    +0.051 A 
ATOM     10  C7  UNL     1      14.982  27.124  17.329  0.00  0.00    -0.019 A 
ATOM     11  C8  UNL     1      14.989  25.950  16.567  0.00  0.00    +0.061 A 
ATOM     12 CL1  UNL     1      15.379  24.474  17.378  0.00  0.00    -0.082 Cl
ATOM     13  C9  UNL     1      14.700  26.000  15.201  0.00  0.00    +0.061 A 
ATOM     14 CL2  UNL     1      14.709  24.593  14.199  0.00  0.00    -0.082 Cl
ATOM     15  C10 UNL     1      14.404  27.224  14.600  0.00  0.00    -0.019 A 
ATOM     16  C11 UNL     1      14.377  28.406  15.358  0.00  0.00    +0.054 A 
ATOM     17  N3  UNL     1      14.128  29.633  14.664  0.00  0.00    -0.310 N 
ATOM     18  C12 UNL     1      15.180  30.414  14.156  0.00  0.00    +0.073 C 
ATOM     19  C13 UNL     1      16.472  30.012  14.204  0.00  0.00    -0.037 C 
ATOM     20  C14 UNL     1      17.602  30.892  14.428  0.00  0.00    -0.058 C 
ATOM     21  C15 UNL     1      17.597  31.821  15.401  0.00  0.00    -0.037 C 
ATOM     22  H   UNL     1      13.968  29.813  18.085  0.00  0.00    +0.000 HD
ATOM     23  H   UNL     1      13.200  29.936  14.539  0.00  0.00    +0.000 HD
ENDROOT
TORSDOF 0
ENDMDL
MODEL 2
REMARK VINA RESULT:    -2.875      4.582      6.613
REMARK INTER + INTRA:          -2.875
REMARK INTER:                  -2.875
REMARK INTRA:                   0.000
REMARK UNBOUND:                 0.000
REMARK  Name = /home/vital/Documents/PhD_2021/Malaria_codes/scripts/../data/pdbqt_ligands/ligand_67_temp.pdb
REMARK                            x       y       z     vdW  Elec       q    Type
REMARK                         _______ _______ _______ _____ _____    ______ ____
ROOT
ATOM      1  C1  UNL     1      16.841  28.576  22.059  0.00  0.00    -0.055 C 
ATOM      2  C2  UNL     1      16.775  27.376  21.471  0.00  0.00    +0.135 C 
ATOM      3  O1  UNL     1      16.743  26.223  22.240  0.00  0.00    -0.485 OA
ATOM      4  C3  UNL     1      18.023  25.563  22.284  0.00  0.00    +0.131 C 
ATOM      5  C4  UNL     1      18.408  25.141  20.868  0.00  0.00    +0.075 C 
ATOM      6  N1  UNL     1      17.679  24.211  20.374  0.00  0.00    -0.266 NA
ATOM      7  C5  UNL     1      17.479  24.033  18.958  0.00  0.00    +0.103 C 
ATOM      8  N2  UNL     1      16.035  24.005  18.691  0.00  0.00    -0.324 N 
ATOM      9  C6  UNL     1      15.532  24.969  17.798  0.00  0.00    +0.051 A 
ATOM     10  C7  UNL     1      15.399  24.635  16.443  0.00  0.00    -0.019 A 
ATOM     11  C8  UNL     1      14.954  25.576  15.508  0.00  0.00    +0.061 A 
ATOM     12 CL1  UNL     1      14.823  25.066  13.861  0.00  0.00    -0.082 Cl
ATOM     13  C9  UNL     1      14.646  26.876  15.915  0.00  0.00    +0.061 A 
ATOM     14 CL2  UNL     1      14.110  28.092  14.811  0.00  0.00    -0.082 Cl
ATOM     15  C10 UNL     1      14.783  27.232  17.258  0.00  0.00    -0.019 A 
ATOM     16  C11 UNL     1      15.212  26.291  18.208  0.00  0.00    +0.054 A 
ATOM     17  N3  UNL     1      15.390  26.743  19.554  0.00  0.00    -0.310 N 
ATOM     18  C12 UNL     1      16.630  27.224  20.008  0.00  0.00    +0.073 C 
ATOM     19  C13 UNL     1      17.694  27.380  19.185  0.00  0.00    -0.037 C 
ATOM     20  C14 UNL     1      19.072  27.136  19.562  0.00  0.00    -0.058 C 
ATOM     21  C15 UNL     1      19.439  26.028  20.231  0.00  0.00    -0.037 C 
ATOM     22  H   UNL     1      15.445  23.342  19.118  0.00  0.00    +0.000 HD
ATOM     23  H   UNL     1      14.628  26.717  20.176  0.00  0.00    +0.000 HD
ENDROOT
TORSDOF 0
ENDMDL
MODEL 3
REMARK VINA RESULT:    -2.858      2.048      3.446
REMARK INTER + INTRA:          -2.858
REMARK INTER:                  -2.858
REMARK INTRA:                   0.000
REMARK UNBOUND:                 0.000
REMARK  Name = /home/vital/Documents/PhD_2021/Malaria_codes/scripts/../data/pdbqt_ligands/ligand_67_temp.pdb
REMARK                            x       y       z     vdW  Elec       q    Type
REMARK                         _______ _______ _______ _____ _____    ______ ____
ROOT
ATOM      1  C1  UNL     1      17.093  33.014  16.335  0.00  0.00    -0.055 C 
ATOM      2  C2  UNL     1      17.212  32.103  15.362  0.00  0.00    +0.135 C 
ATOM      3  O1  UNL     1      18.161  32.269  14.364  0.00  0.00    -0.485 OA
ATOM      4  C3  UNL     1      17.581  32.756  13.138  0.00  0.00    +0.131 C 
ATOM      5  C4  UNL     1      16.575  31.727  12.626  0.00  0.00    +0.075 C 
ATOM      6  N1  UNL     1      17.097  30.629  12.222  0.00  0.00    -0.266 NA
ATOM      7  C5  UNL     1      16.390  29.374  12.222  0.00  0.00    +0.103 C 
ATOM      8  N2  UNL     1      17.196  28.385  12.951  0.00  0.00    -0.324 N 
ATOM      9  C6  UNL     1      16.597  27.771  14.066  0.00  0.00    +0.051 A 
ATOM     10  C7  UNL     1      15.944  26.542  13.895  0.00  0.00    -0.019 A 
ATOM     11  C8  UNL     1      15.288  25.919  14.963  0.00  0.00    +0.061 A 
ATOM     12 CL1  UNL     1      14.512  24.405  14.650  0.00  0.00    -0.082 Cl
ATOM     13  C9  UNL     1      15.265  26.525  16.221  0.00  0.00    +0.061 A 
ATOM     14 CL2  UNL     1      14.458  25.820  17.576  0.00  0.00    -0.082 Cl
ATOM     15  C10 UNL     1      15.899  27.754  16.409  0.00  0.00    -0.019 A 
ATOM     16  C11 UNL     1      16.576  28.380  15.349  0.00  0.00    +0.054 A 
ATOM     17  N3  UNL     1      17.149  29.668  15.598  0.00  0.00    -0.310 N 
ATOM     18  C12 UNL     1      16.429  30.850  15.356  0.00  0.00    +0.073 C 
ATOM     19  C13 UNL     1      15.131  30.844  14.970  0.00  0.00    -0.037 C 
ATOM     20  C14 UNL     1      14.543  31.785  14.038  0.00  0.00    -0.058 C 
ATOM     21  C15 UNL     1      15.143  32.104  12.877  0.00  0.00    -0.037 C 
ATOM     22  H   UNL     1      18.114  28.162  12.672  0.00  0.00    +0.000 HD
ATOM     23  H   UNL     1      18.068  29.727  15.947  0.00  0.00    +0.000 HD
ENDROOT
TORSDOF 0
ENDMDL
MODEL 4
REMARK VINA RESULT:    -2.753     17.436     19.289
REMARK INTER + INTRA:          -2.753
REMARK INTER:                  -2.753
REMARK INTRA:                   0.000
REMARK UNBOUND:                 0.000
REMARK  Name = /home/vital/Documents/PhD_2021/Malaria_codes/scripts/../data/pdbqt_ligands/ligand_67_temp.pdb
REMARK                            x       y       z     vdW  Elec       q    Type
REMARK                         _______ _______ _______ _____ _____    ______ ____
ROOT
ATOM      1  C1  UNL     1      24.806  47.305  13.073  0.00  0.00    -0.055 C 
ATOM      2  C2  UNL     1      24.553  46.315  13.937  0.00  0.00    +0.135 C 
ATOM      3  O1  UNL     1      23.961  45.141  13.497  0.00  0.00    -0.485 OA
ATOM      4  C3  UNL     1      22.556  45.089  13.813  0.00  0.00    +0.131 C 
ATOM      5  C4  UNL     1      22.391  45.127  15.331  0.00  0.00    +0.075 C 
ATOM      6  N1  UNL     1      22.809  44.079  15.938  0.00  0.00    -0.266 NA
ATOM      7  C5  UNL     1      23.260  44.087  17.306  0.00  0.00    +0.103 C 
ATOM      8  N2  UNL     1      24.605  43.498  17.357  0.00  0.00    -0.324 N 
ATOM      9  C6  UNL     1      25.633  44.300  17.886  0.00  0.00    +0.051 A 
ATOM     10  C7  UNL     1      25.951  44.186  19.247  0.00  0.00    -0.019 A 
ATOM     11  C8  UNL     1      26.929  45.000  19.830  0.00  0.00    +0.061 A 
ATOM     12 CL1  UNL     1      27.247  44.783  21.516  0.00  0.00    -0.082 Cl
ATOM     13  C9  UNL     1      27.598  45.953  19.059  0.00  0.00    +0.061 A 
ATOM     14 CL2  UNL     1      28.802  47.002  19.720  0.00  0.00    -0.082 Cl
ATOM     15  C10 UNL     1      27.288  46.090  17.705  0.00  0.00    -0.019 A 
ATOM     16  C11 UNL     1      26.322  45.267  17.105  0.00  0.00    +0.054 A 
ATOM     17  N3  UNL     1      26.010  45.506  15.728  0.00  0.00    -0.310 N 
ATOM     18  C12 UNL     1      24.975  46.378  15.351  0.00  0.00    +0.073 C 
ATOM     19  C13 UNL     1      24.280  47.112  16.252  0.00  0.00    -0.037 C 
ATOM     20  C14 UNL     1      22.865  47.411  16.157  0.00  0.00    -0.058 C 
ATOM     21  C15 UNL     1      21.957  46.465  15.859  0.00  0.00    -0.037 C 
ATOM     22  H   UNL     1      24.780  42.584  17.036  0.00  0.00    +0.000 HD
ATOM     23  H   UNL     1      26.533  45.049  15.030  0.00  0.00    +0.000 HD
ENDROOT
TORSDOF 0
ENDMDL
MODEL 5
REMARK VINA RESULT:    -2.736      2.384      3.543
REMARK INTER + INTRA:          -2.736
REMARK INTER:                  -2.736
REMARK INTRA:                   0.000
REMARK UNBOUND:                 0.000
REMARK  Name = /home/vital/Documents/PhD_2021/Malaria_codes/scripts/../data/pdbqt_ligands/ligand_67_temp.pdb
REMARK                            x       y       z     vdW  Elec       q    Type
REMARK                         _______ _______ _______ _____ _____    ______ ____
ROOT
ATOM      1  C1  UNL     1      19.402  32.558  15.873  0.00  0.00    -0.055 C 
ATOM      2  C2  UNL     1      18.535  32.065  14.980  0.00  0.00    +0.135 C 
ATOM      3  O1  UNL     1      18.359  32.695  13.758  0.00  0.00    -0.485 OA
ATOM      4  C3  UNL     1      17.158  33.490  13.723  0.00  0.00    +0.131 C 
ATOM      5  C4  UNL     1      15.954  32.571  13.925  0.00  0.00    +0.075 C 
ATOM      6  N1  UNL     1      15.732  31.764  12.956  0.00  0.00    -0.266 NA
ATOM      7  C5  UNL     1      15.059  30.502  13.120  0.00  0.00    +0.103 C 
ATOM      8  N2  UNL     1      15.910  29.444  12.556  0.00  0.00    -0.324 N 
ATOM      9  C6  UNL     1      16.296  28.406  13.425  0.00  0.00    +0.051 A 
ATOM     10  C7  UNL     1      15.527  27.233  13.464  0.00  0.00    -0.019 A 
ATOM     11  C8  UNL     1      15.840  26.195  14.349  0.00  0.00    +0.061 A 
ATOM     12 CL1  UNL     1      14.832  24.791  14.322  0.00  0.00    -0.082 Cl
ATOM     13  C9  UNL     1      16.925  26.321  15.220  0.00  0.00    +0.061 A 
ATOM     14 CL2  UNL     1      17.355  25.086  16.350  0.00  0.00    -0.082 Cl
ATOM     15  C10 UNL     1      17.695  27.484  15.204  0.00  0.00    -0.019 A 
ATOM     16  C11 UNL     1      17.401  28.525  14.308  0.00  0.00    +0.054 A 
ATOM     17  N3  UNL     1      18.194  29.714  14.390  0.00  0.00    -0.310 N 
ATOM     18  C12 UNL     1      17.812  30.795  15.203  0.00  0.00    +0.073 C 
ATOM     19  C13 UNL     1      16.736  30.743  16.023  0.00  0.00    -0.037 C 
ATOM     20  C14 UNL     1      15.849  31.857  16.293  0.00  0.00    -0.058 C 
ATOM     21  C15 UNL     1      15.369  32.637  15.307  0.00  0.00    -0.037 C 
ATOM     22  H   UNL     1      16.196  29.460  11.615  0.00  0.00    +0.000 HD
ATOM     23  H   UNL     1      19.026  29.776  13.867  0.00  0.00    +0.000 HD
ENDROOT
TORSDOF 0
ENDMDL
MODEL 6
REMARK VINA RESULT:    -2.628      4.620      6.430
REMARK INTER + INTRA:          -2.628
REMARK INTER:                  -2.628
REMARK INTRA:                   0.000
REMARK UNBOUND:                 0.000
REMARK  Name = /home/vital/Documents/PhD_2021/Malaria_codes/scripts/../data/pdbqt_ligands/ligand_67_temp.pdb
REMARK                            x       y       z     vdW  Elec       q    Type
REMARK                         _______ _______ _______ _____ _____    ______ ____
ROOT
ATOM      1  C1  UNL     1      15.827  27.769  13.670  0.00  0.00    -0.055 C 
ATOM      2  C2  UNL     1      16.154  26.659  14.342  0.00  0.00    +0.135 C 
ATOM      3  O1  UNL     1      15.880  25.411  13.804  0.00  0.00    -0.485 OA
ATOM      4  C3  UNL     1      14.710  24.810  14.393  0.00  0.00    +0.131 C 
ATOM      5  C4  UNL     1      14.962  24.603  15.885  0.00  0.00    +0.075 C 
ATOM      6  N1  UNL     1      15.846  23.718  16.158  0.00  0.00    -0.266 NA
ATOM      7  C5  UNL     1      16.625  23.727  17.370  0.00  0.00    +0.103 C 
ATOM      8  N2  UNL     1      18.048  23.670  17.010  0.00  0.00    -0.324 N 
ATOM      9  C6  UNL     1      18.863  24.724  17.464  0.00  0.00    +0.051 A 
ATOM     10  C7  UNL     1      19.558  24.573  18.672  0.00  0.00    -0.019 A 
ATOM     11  C8  UNL     1      20.339  25.612  19.191  0.00  0.00    +0.061 A 
ATOM     12 CL1  UNL     1      21.157  25.328  20.687  0.00  0.00    -0.082 Cl
ATOM     13  C9  UNL     1      20.425  26.829  18.510  0.00  0.00    +0.061 A 
ATOM     14 CL2  UNL     1      21.355  28.160  19.104  0.00  0.00    -0.082 Cl
ATOM     15  C10 UNL     1      19.731  27.004  17.312  0.00  0.00    -0.019 A 
ATOM     16  C11 UNL     1      18.960  25.962  16.774  0.00  0.00    +0.054 A 
ATOM     17  N3  UNL     1      18.225  26.233  15.575  0.00  0.00    -0.310 N 
ATOM     18  C12 UNL     1      16.902  26.703  15.616  0.00  0.00    +0.073 C 
ATOM     19  C13 UNL     1      16.279  27.018  16.777  0.00  0.00    -0.037 C 
ATOM     20  C14 UNL     1      14.874  26.786  17.049  0.00  0.00    -0.058 C 
ATOM     21  C15 UNL     1      14.279  25.615  16.760  0.00  0.00    -0.037 C 
ATOM     22  H   UNL     1      18.416  22.929  16.476  0.00  0.00    +0.000 HD
ATOM     23  H   UNL     1      18.657  26.087  14.702  0.00  0.00    +0.000 HD
ENDROOT
TORSDOF 0
ENDMDL
MODEL 7
REMARK VINA RESULT:    -2.615      3.595      6.041
REMARK INTER + INTRA:          -2.615
REMARK INTER:                  -2.615
REMARK INTRA:                   0.000
REMARK UNBOUND:                 0.000
REMARK  Name = /home/vital/Documents/PhD_2021/Malaria_codes/scripts/../data/pdbqt_ligands/ligand_67_temp.pdb
REMARK                            x       y       z     vdW  Elec       q    Type
REMARK                         _______ _______ _______ _____ _____    ______ ____
ROOT
ATOM      1  C1  UNL     1      17.099  26.957  19.751  0.00  0.00    -0.055 C 
ATOM      2  C2  UNL     1      16.290  26.920  18.686  0.00  0.00    +0.135 C 
ATOM      3  O1  UNL     1      15.259  25.995  18.625  0.00  0.00    -0.485 OA
ATOM      4  C3  UNL     1      15.584  24.874  17.779  0.00  0.00    +0.131 C 
ATOM      5  C4  UNL     1      15.809  25.380  16.356  0.00  0.00    +0.075 C 
ATOM      6  N1  UNL     1      14.756  25.819  15.774  0.00  0.00    -0.266 NA
ATOM      7  C5  UNL     1      14.788  26.802  14.721  0.00  0.00    +0.103 C 
ATOM      8  N2  UNL     1      13.895  27.909  15.091  0.00  0.00    -0.324 N 
ATOM      9  C6  UNL     1      14.470  29.191  15.171  0.00  0.00    +0.051 A 
ATOM     10  C7  UNL     1      14.415  30.031  14.049  0.00  0.00    -0.019 A 
ATOM     11  C8  UNL     1      15.018  31.294  14.063  0.00  0.00    +0.061 A 
ATOM     12 CL1  UNL     1      14.896  32.254  12.630  0.00  0.00    -0.082 Cl
ATOM     13  C9  UNL     1      15.698  31.733  15.202  0.00  0.00    +0.061 A 
ATOM     14 CL2  UNL     1      16.480  33.271  15.280  0.00  0.00    -0.082 Cl
ATOM     15  C10 UNL     1      15.773  30.907  16.325  0.00  0.00    -0.019 A 
ATOM     16  C11 UNL     1      15.157  29.645  16.328  0.00  0.00    +0.054 A 
ATOM     17  N3  UNL     1      15.328  28.827  17.491  0.00  0.00    -0.310 N 
ATOM     18  C12 UNL     1      16.386  27.907  17.590  0.00  0.00    +0.073 C 
ATOM     19  C13 UNL     1      17.353  27.807  16.647  0.00  0.00    -0.037 C 
ATOM     20  C14 UNL     1      17.979  26.566  16.235  0.00  0.00    -0.058 C 
ATOM     21  C15 UNL     1      17.258  25.463  15.966  0.00  0.00    -0.037 C 
ATOM     22  H   UNL     1      12.939  27.761  15.273  0.00  0.00    +0.000 HD
ATOM     23  H   UNL     1      14.692  28.911  18.237  0.00  0.00    +0.000 HD
ENDROOT
TORSDOF 0
ENDMDL
MODEL 8
REMARK VINA RESULT:    -2.344      4.042      5.927
REMARK INTER + INTRA:          -2.344
REMARK INTER:                  -2.344
REMARK INTRA:                   0.000
REMARK UNBOUND:                 0.000
REMARK  Name = /home/vital/Documents/PhD_2021/Malaria_codes/scripts/../data/pdbqt_ligands/ligand_67_temp.pdb
REMARK                            x       y       z     vdW  Elec       q    Type
REMARK                         _______ _______ _______ _____ _____    ______ ____
ROOT
ATOM      1  C1  UNL     1      16.706  26.588  14.225  0.00  0.00    -0.055 C 
ATOM      2  C2  UNL     1      16.603  26.804  15.542  0.00  0.00    +0.135 C 
ATOM      3  O1  UNL     1      17.178  25.919  16.441  0.00  0.00    -0.485 OA
ATOM      4  C3  UNL     1      16.207  25.031  17.028  0.00  0.00    +0.131 C 
ATOM      5  C4  UNL     1      15.191  25.862  17.811  0.00  0.00    +0.075 C 
ATOM      6  N1  UNL     1      15.662  26.425  18.860  0.00  0.00    -0.266 NA
ATOM      7  C5  UNL     1      15.109  27.630  19.424  0.00  0.00    +0.103 C 
ATOM      8  N2  UNL     1      16.188  28.617  19.564  0.00  0.00    -0.324 N 
ATOM      9  C6  UNL     1      16.021  29.844  18.895  0.00  0.00    +0.051 A 
ATOM     10  C7  UNL     1      15.464  30.926  19.591  0.00  0.00    -0.019 A 
ATOM     11  C8  UNL     1      15.229  32.150  18.954  0.00  0.00    +0.061 A 
ATOM     12 CL1  UNL     1      14.538  33.423  19.898  0.00  0.00    -0.082 Cl
ATOM     13  C9  UNL     1      15.540  32.306  17.601  0.00  0.00    +0.061 A 
ATOM     14 CL2  UNL     1      15.258  33.783  16.749  0.00  0.00    -0.082 Cl
ATOM     15  C10 UNL     1      16.085  31.237  16.888  0.00  0.00    -0.019 A 
ATOM     16  C11 UNL     1      16.341  30.011  17.521  0.00  0.00    +0.054 A 
ATOM     17  N3  UNL     1      16.841  28.940  16.713  0.00  0.00    -0.310 N 
ATOM     18  C12 UNL     1      15.975  28.023  16.092  0.00  0.00    +0.073 C 
ATOM     19  C13 UNL     1      14.628  28.151  16.137  0.00  0.00    -0.037 C 
ATOM     20  C14 UNL     1      13.697  27.044  16.231  0.00  0.00    -0.058 C 
ATOM     21  C15 UNL     1      13.878  26.036  17.103  0.00  0.00    -0.037 C 
ATOM     22  H   UNL     1      16.992  28.429  20.101  0.00  0.00    +0.000 HD
ATOM     23  H   UNL     1      17.813  28.843  16.589  0.00  0.00    +0.000 HD
ENDROOT
TORSDOF 0
ENDMDL
