MODEL 1
REMARK VINA RESULT:    -3.059      0.000      0.000
REMARK INTER + INTRA:          -3.059
REMARK INTER:                  -3.059
REMARK INTRA:                   0.000
REMARK UNBOUND:                 0.000
REMARK  Name = /home/vital/Documents/PhD_2021/Malaria_codes/scripts/../data/pdbqt_ligands/ligand_239_temp.pdb
REMARK                            x       y       z     vdW  Elec       q    Type
REMARK                         _______ _______ _______ _____ _____    ______ ____
ROOT
ATOM      1  C1  UNL     1      24.720  46.678  15.578  0.00  0.00    +0.079 C 
ATOM      2  O1  UNL     1      23.356  47.076  15.632  0.00  0.00    -0.495 OA
ATOM      3  C2  UNL     1      22.707  46.903  16.822  0.00  0.00    +0.120 A 
ATOM      4  C3  UNL     1      21.375  47.312  16.827  0.00  0.00    -0.018 A 
ATOM      5  C4  UNL     1      20.591  47.191  17.979  0.00  0.00    -0.034 A 
ATOM      6  C5  UNL     1      21.132  46.640  19.151  0.00  0.00    +0.049 A 
ATOM      7  N1  UNL     1      20.317  46.533  20.320  0.00  0.00    -0.295 N 
ATOM      8  C6  UNL     1      19.248  47.371  20.600  0.00  0.00    +0.030 A 
ATOM      9  C7  UNL     1      18.775  47.011  21.834  0.00  0.00    +0.047 A 
ATOM     10  N2  UNL     1      19.455  45.932  22.316  0.00  0.00    -0.230 NA
ATOM     11  C8  UNL     1      20.374  45.663  21.407  0.00  0.00    +0.174 A 
ATOM     12  S1  UNL     1      21.403  44.266  21.523  0.00  0.00    -0.078 S 
ATOM     13  C9  UNL     1      21.069  43.701  23.213  0.00  0.00    +0.078 C 
ATOM     14  C10 UNL     1      19.949  42.672  23.220  0.00  0.00    +0.227 C 
ATOM     15  O2  UNL     1      20.217  41.475  23.302  0.00  0.00    -0.275 OA
ATOM     16  N3  UNL     1      18.684  43.235  23.163  0.00  0.00    -0.285 N 
ATOM     17  C11 UNL     1      17.429  42.573  23.164  0.00  0.00    +0.037 A 
ATOM     18  C12 UNL     1      17.336  41.175  23.133  0.00  0.00    -0.034 A 
ATOM     19  C13 UNL     1      16.100  40.509  23.091  0.00  0.00    -0.007 A 
ATOM     20  C14 UNL     1      16.086  39.007  23.066  0.00  0.00    -0.036 C 
ATOM     21  C15 UNL     1      14.932  41.275  23.059  0.00  0.00    +0.123 A 
ATOM     22  O3  UNL     1      13.699  40.682  23.009  0.00  0.00    -0.506 OA
ATOM     23  C16 UNL     1      14.979  42.679  23.080  0.00  0.00    -0.004 A 
ATOM     24  C17 UNL     1      13.690  43.468  23.034  0.00  0.00    -0.036 C 
ATOM     25  C18 UNL     1      16.236  43.337  23.180  0.00  0.00    -0.023 A 
ATOM     26  C19 UNL     1      16.281  44.843  23.275  0.00  0.00    -0.038 C 
ATOM     27  C20 UNL     1      22.474  46.245  19.147  0.00  0.00    -0.034 A 
ATOM     28  C21 UNL     1      23.254  46.373  17.988  0.00  0.00    -0.018 A 
ATOM     29  H   UNL     1      18.652  44.218  23.116  0.00  0.00    +0.000 HD
ATOM     30  H   UNL     1      13.628  39.748  22.993  0.00  0.00    +0.000 HD
ENDROOT
TORSDOF 0
ENDMDL
MODEL 2
REMARK VINA RESULT:    -3.050      2.427      3.944
REMARK INTER + INTRA:          -3.050
REMARK INTER:                  -3.050
REMARK INTRA:                   0.000
REMARK UNBOUND:                 0.000
REMARK  Name = /home/vital/Documents/PhD_2021/Malaria_codes/scripts/../data/pdbqt_ligands/ligand_239_temp.pdb
REMARK                            x       y       z     vdW  Elec       q    Type
REMARK                         _______ _______ _______ _____ _____    ______ ____
ROOT
ATOM      1  C1  UNL     1      25.411  46.719  12.419  0.00  0.00    +0.079 C 
ATOM      2  O1  UNL     1      24.033  46.440  12.634  0.00  0.00    -0.495 OA
ATOM      3  C2  UNL     1      23.556  46.616  13.902  0.00  0.00    +0.120 A 
ATOM      4  C3  UNL     1      22.200  46.335  14.061  0.00  0.00    -0.018 A 
ATOM      5  C4  UNL     1      21.581  46.472  15.307  0.00  0.00    -0.034 A 
ATOM      6  C5  UNL     1      22.320  46.883  16.427  0.00  0.00    +0.049 A 
ATOM      7  N1  UNL     1      21.666  47.026  17.690  0.00  0.00    -0.295 N 
ATOM      8  C6  UNL     1      20.318  47.317  17.837  0.00  0.00    +0.030 A 
ATOM      9  C7  UNL     1      20.087  47.453  19.180  0.00  0.00    +0.047 A 
ATOM     10  N2  UNL     1      21.218  47.189  19.895  0.00  0.00    -0.230 NA
ATOM     11  C8  UNL     1      22.151  46.942  18.994  0.00  0.00    +0.174 A 
ATOM     12  S1  UNL     1      23.746  46.413  19.440  0.00  0.00    -0.078 S 
ATOM     13  C9  UNL     1      23.736  46.685  21.233  0.00  0.00    +0.078 C 
ATOM     14  C10 UNL     1      23.293  45.426  21.961  0.00  0.00    +0.227 C 
ATOM     15  O2  UNL     1      24.131  44.692  22.482  0.00  0.00    -0.275 OA
ATOM     16  N3  UNL     1      21.917  45.258  21.984  0.00  0.00    -0.285 N 
ATOM     17  C11 UNL     1      21.172  44.209  22.582  0.00  0.00    +0.037 A 
ATOM     18  C12 UNL     1      21.801  43.110  23.182  0.00  0.00    -0.034 A 
ATOM     19  C13 UNL     1      21.074  42.046  23.740  0.00  0.00    -0.007 A 
ATOM     20  C14 UNL     1      21.824  40.906  24.369  0.00  0.00    -0.036 C 
ATOM     21  C15 UNL     1      19.680  42.085  23.672  0.00  0.00    +0.123 A 
ATOM     22  O3  UNL     1      18.918  41.072  24.191  0.00  0.00    -0.506 OA
ATOM     23  C16 UNL     1      19.007  43.163  23.073  0.00  0.00    -0.004 A 
ATOM     24  C17 UNL     1      17.497  43.159  23.014  0.00  0.00    -0.036 C 
ATOM     25  C18 UNL     1      19.757  44.259  22.564  0.00  0.00    -0.023 A 
ATOM     26  C19 UNL     1      19.031  45.451  21.985  0.00  0.00    -0.038 C 
ATOM     27  C20 UNL     1      23.677  47.181  16.260  0.00  0.00    -0.034 A 
ATOM     28  C21 UNL     1      24.291  47.043  15.005  0.00  0.00    -0.018 A 
ATOM     29  H   UNL     1      21.391  45.953  21.527  0.00  0.00    +0.000 HD
ATOM     30  H   UNL     1      19.331  40.335  24.598  0.00  0.00    +0.000 HD
ENDROOT
TORSDOF 0
ENDMDL
MODEL 3
REMARK VINA RESULT:    -2.988      7.773     13.584
REMARK INTER + INTRA:          -2.988
REMARK INTER:                  -2.988
REMARK INTRA:                   0.000
REMARK UNBOUND:                 0.000
REMARK  Name = /home/vital/Documents/PhD_2021/Malaria_codes/scripts/../data/pdbqt_ligands/ligand_239_temp.pdb
REMARK                            x       y       z     vdW  Elec       q    Type
REMARK                         _______ _______ _______ _____ _____    ______ ____
ROOT
ATOM      1  C1  UNL     1      21.417  45.493  19.730  0.00  0.00    +0.079 C 
ATOM      2  O1  UNL     1      22.210  44.371  20.097  0.00  0.00    -0.495 OA
ATOM      3  C2  UNL     1      23.561  44.566  20.174  0.00  0.00    +0.120 A 
ATOM      4  C3  UNL     1      24.294  43.439  20.542  0.00  0.00    -0.018 A 
ATOM      5  C4  UNL     1      25.687  43.497  20.657  0.00  0.00    -0.034 A 
ATOM      6  C5  UNL     1      26.373  44.692  20.391  0.00  0.00    +0.049 A 
ATOM      7  N1  UNL     1      27.796  44.732  20.524  0.00  0.00    -0.295 N 
ATOM      8  C6  UNL     1      28.518  43.910  21.376  0.00  0.00    +0.030 A 
ATOM      9  C7  UNL     1      29.828  44.300  21.284  0.00  0.00    +0.047 A 
ATOM     10  N2  UNL     1      29.976  45.287  20.355  0.00  0.00    -0.230 NA
ATOM     11  C8  UNL     1      28.756  45.538  19.915  0.00  0.00    +0.174 A 
ATOM     12  S1  UNL     1      28.458  46.639  18.604  0.00  0.00    -0.078 S 
ATOM     13  C9  UNL     1      30.077  47.435  18.416  0.00  0.00    +0.078 C 
ATOM     14  C10 UNL     1      30.918  46.697  17.387  0.00  0.00    +0.227 C 
ATOM     15  O2  UNL     1      31.016  47.139  16.244  0.00  0.00    -0.275 OA
ATOM     16  N3  UNL     1      31.538  45.565  17.892  0.00  0.00    -0.285 N 
ATOM     17  C11 UNL     1      32.396  44.660  17.216  0.00  0.00    +0.037 A 
ATOM     18  C12 UNL     1      32.654  44.778  15.843  0.00  0.00    -0.034 A 
ATOM     19  C13 UNL     1      33.468  43.864  15.155  0.00  0.00    -0.007 A 
ATOM     20  C14 UNL     1      33.699  44.064  13.684  0.00  0.00    -0.036 C 
ATOM     21  C15 UNL     1      34.016  42.794  15.866  0.00  0.00    +0.123 A 
ATOM     22  O3  UNL     1      34.810  41.865  15.247  0.00  0.00    -0.506 OA
ATOM     23  C16 UNL     1      33.777  42.632  17.241  0.00  0.00    -0.004 A 
ATOM     24  C17 UNL     1      34.384  41.454  17.968  0.00  0.00    -0.036 C 
ATOM     25  C18 UNL     1      32.998  43.598  17.935  0.00  0.00    -0.023 A 
ATOM     26  C19 UNL     1      32.802  43.462  19.426  0.00  0.00    -0.038 C 
ATOM     27  C20 UNL     1      25.632  45.825  20.038  0.00  0.00    -0.034 A 
ATOM     28  C21 UNL     1      24.235  45.759  19.926  0.00  0.00    -0.018 A 
ATOM     29  H   UNL     1      31.361  45.364  18.840  0.00  0.00    +0.000 HD
ATOM     30  H   UNL     1      34.991  41.940  14.330  0.00  0.00    +0.000 HD
ENDROOT
TORSDOF 0
ENDMDL
MODEL 4
REMARK VINA RESULT:    -2.816     14.053     16.805
REMARK INTER + INTRA:          -2.816
REMARK INTER:                  -2.816
REMARK INTRA:                   0.000
REMARK UNBOUND:                 0.000
REMARK  Name = /home/vital/Documents/PhD_2021/Malaria_codes/scripts/../data/pdbqt_ligands/ligand_239_temp.pdb
REMARK                            x       y       z     vdW  Elec       q    Type
REMARK                         _______ _______ _______ _____ _____    ______ ____
ROOT
ATOM      1  C1  UNL     1      25.176  31.759  20.847  0.00  0.00    +0.079 C 
ATOM      2  O1  UNL     1      24.601  31.947  19.560  0.00  0.00    -0.495 OA
ATOM      3  C2  UNL     1      23.279  31.631  19.421  0.00  0.00    +0.120 A 
ATOM      4  C3  UNL     1      22.760  31.837  18.143  0.00  0.00    -0.018 A 
ATOM      5  C4  UNL     1      21.420  31.553  17.859  0.00  0.00    -0.034 A 
ATOM      6  C5  UNL     1      20.575  31.042  18.857  0.00  0.00    +0.049 A 
ATOM      7  N1  UNL     1      19.207  30.768  18.548  0.00  0.00    -0.295 N 
ATOM      8  C6  UNL     1      18.488  31.425  17.561  0.00  0.00    +0.030 A 
ATOM      9  C7  UNL     1      17.205  30.948  17.623  0.00  0.00    +0.047 A 
ATOM     10  N2  UNL     1      17.099  29.964  18.561  0.00  0.00    -0.230 NA
ATOM     11  C8  UNL     1      18.297  29.872  19.108  0.00  0.00    +0.174 A 
ATOM     12  S1  UNL     1      18.687  28.641  20.272  0.00  0.00    -0.078 S 
ATOM     13  C9  UNL     1      17.049  27.964  20.655  0.00  0.00    +0.078 C 
ATOM     14  C10 UNL     1      16.736  26.781  19.753  0.00  0.00    +0.227 C 
ATOM     15  O2  UNL     1      16.866  25.635  20.178  0.00  0.00    -0.275 OA
ATOM     16  N3  UNL     1      16.284  27.151  18.495  0.00  0.00    -0.285 N 
ATOM     17  C11 UNL     1      15.896  26.309  17.421  0.00  0.00    +0.037 A 
ATOM     18  C12 UNL     1      16.020  24.915  17.497  0.00  0.00    -0.034 A 
ATOM     19  C13 UNL     1      15.678  24.075  16.426  0.00  0.00    -0.007 A 
ATOM     20  C14 UNL     1      15.835  22.590  16.590  0.00  0.00    -0.036 C 
ATOM     21  C15 UNL     1      15.220  24.659  15.242  0.00  0.00    +0.123 A 
ATOM     22  O3  UNL     1      14.879  23.891  14.160  0.00  0.00    -0.506 OA
ATOM     23  C16 UNL     1      15.088  26.052  15.119  0.00  0.00    -0.004 A 
ATOM     24  C17 UNL     1      14.596  26.641  13.816  0.00  0.00    -0.036 C 
ATOM     25  C18 UNL     1      15.384  26.885  16.233  0.00  0.00    -0.023 A 
ATOM     26  C19 UNL     1      15.173  28.376  16.122  0.00  0.00    -0.038 C 
ATOM     27  C20 UNL     1      21.095  30.853  20.142  0.00  0.00    -0.034 A 
ATOM     28  C21 UNL     1      22.440  31.141  20.419  0.00  0.00    -0.018 A 
ATOM     29  H   UNL     1      16.226  28.119  18.327  0.00  0.00    +0.000 HD
ATOM     30  H   UNL     1      14.955  22.958  14.205  0.00  0.00    +0.000 HD
ENDROOT
TORSDOF 0
ENDMDL
MODEL 5
REMARK VINA RESULT:    -2.738     13.651     16.794
REMARK INTER + INTRA:          -2.738
REMARK INTER:                  -2.738
REMARK INTRA:                   0.000
REMARK UNBOUND:                 0.000
REMARK  Name = /home/vital/Documents/PhD_2021/Malaria_codes/scripts/../data/pdbqt_ligands/ligand_239_temp.pdb
REMARK                            x       y       z     vdW  Elec       q    Type
REMARK                         _______ _______ _______ _____ _____    ______ ____
ROOT
ATOM      1  C1  UNL     1      20.075  36.891  18.141  0.00  0.00    +0.079 C 
ATOM      2  O1  UNL     1      19.949  35.893  19.148  0.00  0.00    -0.495 OA
ATOM      3  C2  UNL     1      20.143  34.597  18.761  0.00  0.00    +0.120 A 
ATOM      4  C3  UNL     1      20.016  33.657  19.783  0.00  0.00    -0.018 A 
ATOM      5  C4  UNL     1      20.187  32.293  19.528  0.00  0.00    -0.034 A 
ATOM      6  C5  UNL     1      20.478  31.844  18.230  0.00  0.00    +0.049 A 
ATOM      7  N1  UNL     1      20.658  30.446  17.993  0.00  0.00    -0.295 N 
ATOM      8  C6  UNL     1      21.099  29.547  18.952  0.00  0.00    +0.030 A 
ATOM      9  C7  UNL     1      21.222  28.333  18.329  0.00  0.00    +0.047 A 
ATOM     10  N2  UNL     1      20.809  28.410  17.032  0.00  0.00    -0.230 NA
ATOM     11  C8  UNL     1      20.482  29.676  16.844  0.00  0.00    +0.174 A 
ATOM     12  S1  UNL     1      19.760  30.231  15.364  0.00  0.00    -0.078 S 
ATOM     13  C9  UNL     1      19.980  28.792  14.284  0.00  0.00    +0.078 C 
ATOM     14  C10 UNL     1      18.760  27.887  14.346  0.00  0.00    +0.227 C 
ATOM     15  O2  UNL     1      17.920  27.927  13.450  0.00  0.00    -0.275 OA
ATOM     16  N3  UNL     1      18.751  27.050  15.452  0.00  0.00    -0.285 N 
ATOM     17  C11 UNL     1      17.778  26.081  15.810  0.00  0.00    +0.037 A 
ATOM     18  C12 UNL     1      16.597  25.918  15.074  0.00  0.00    -0.034 A 
ATOM     19  C13 UNL     1      15.608  24.992  15.443  0.00  0.00    -0.007 A 
ATOM     20  C14 UNL     1      14.372  24.875  14.597  0.00  0.00    -0.036 C 
ATOM     21  C15 UNL     1      15.809  24.227  16.594  0.00  0.00    +0.123 A 
ATOM     22  O3  UNL     1      14.877  23.314  17.008  0.00  0.00    -0.506 OA
ATOM     23  C16 UNL     1      16.975  24.363  17.367  0.00  0.00    -0.004 A 
ATOM     24  C17 UNL     1      17.146  23.520  18.610  0.00  0.00    -0.036 C 
ATOM     25  C18 UNL     1      17.992  25.264  16.947  0.00  0.00    -0.023 A 
ATOM     26  C19 UNL     1      19.275  25.357  17.738  0.00  0.00    -0.038 C 
ATOM     27  C20 UNL     1      20.622  32.791  17.211  0.00  0.00    -0.034 A 
ATOM     28  C21 UNL     1      20.451  34.159  17.476  0.00  0.00    -0.018 A 
ATOM     29  H   UNL     1      19.515  27.140  16.065  0.00  0.00    +0.000 HD
ATOM     30  H   UNL     1      14.086  23.196  16.518  0.00  0.00    +0.000 HD
ENDROOT
TORSDOF 0
ENDMDL
MODEL 6
REMARK VINA RESULT:    -2.640     10.270     11.764
REMARK INTER + INTRA:          -2.640
REMARK INTER:                  -2.640
REMARK INTRA:                   0.000
REMARK UNBOUND:                 0.000
REMARK  Name = /home/vital/Documents/PhD_2021/Malaria_codes/scripts/../data/pdbqt_ligands/ligand_239_temp.pdb
REMARK                            x       y       z     vdW  Elec       q    Type
REMARK                         _______ _______ _______ _____ _____    ______ ____
ROOT
ATOM      1  C1  UNL     1      22.036  46.208  34.763  0.00  0.00    +0.079 C 
ATOM      2  O1  UNL     1      21.870  45.959  33.372  0.00  0.00    -0.495 OA
ATOM      3  C2  UNL     1      20.632  45.554  32.959  0.00  0.00    +0.120 A 
ATOM      4  C3  UNL     1      20.518  45.328  31.588  0.00  0.00    -0.018 A 
ATOM      5  C4  UNL     1      19.307  44.908  31.029  0.00  0.00    -0.034 A 
ATOM      6  C5  UNL     1      18.185  44.693  31.844  0.00  0.00    +0.049 A 
ATOM      7  N1  UNL     1      16.954  44.273  31.251  0.00  0.00    -0.295 N 
ATOM      8  C6  UNL     1      16.586  44.557  29.945  0.00  0.00    +0.030 A 
ATOM      9  C7  UNL     1      15.319  44.063  29.775  0.00  0.00    +0.047 A 
ATOM     10  N2  UNL     1      14.897  43.416  30.899  0.00  0.00    -0.230 NA
ATOM     11  C8  UNL     1      15.879  43.554  31.771  0.00  0.00    +0.174 A 
ATOM     12  S1  UNL     1      15.853  42.765  33.320  0.00  0.00    -0.078 S 
ATOM     13  C9  UNL     1      14.144  42.165  33.399  0.00  0.00    +0.078 C 
ATOM     14  C10 UNL     1      14.051  40.747  32.860  0.00  0.00    +0.227 C 
ATOM     15  O2  UNL     1      13.995  39.797  33.638  0.00  0.00    -0.275 OA
ATOM     16  N3  UNL     1      14.003  40.686  31.476  0.00  0.00    -0.285 N 
ATOM     17  C11 UNL     1      13.903  39.535  30.652  0.00  0.00    +0.037 A 
ATOM     18  C12 UNL     1      13.932  38.241  31.189  0.00  0.00    -0.034 A 
ATOM     19  C13 UNL     1      13.877  37.095  30.381  0.00  0.00    -0.007 A 
ATOM     20  C14 UNL     1      13.908  35.743  31.036  0.00  0.00    -0.036 C 
ATOM     21  C15 UNL     1      13.812  37.260  28.995  0.00  0.00    +0.123 A 
ATOM     22  O3  UNL     1      13.765  36.179  28.156  0.00  0.00    -0.506 OA
ATOM     23  C16 UNL     1      13.789  38.538  28.412  0.00  0.00    -0.004 A 
ATOM     24  C17 UNL     1      13.727  38.670  26.908  0.00  0.00    -0.036 C 
ATOM     25  C18 UNL     1      13.787  39.689  29.248  0.00  0.00    -0.023 A 
ATOM     26  C19 UNL     1      13.690  41.060  28.624  0.00  0.00    -0.038 C 
ATOM     27  C20 UNL     1      18.299  44.937  33.217  0.00  0.00    -0.034 A 
ATOM     28  C21 UNL     1      19.517  45.360  33.770  0.00  0.00    -0.018 A 
ATOM     29  H   UNL     1      14.043  41.550  31.006  0.00  0.00    +0.000 HD
ATOM     30  H   UNL     1      13.778  35.310  28.508  0.00  0.00    +0.000 HD
ENDROOT
TORSDOF 0
ENDMDL
MODEL 7
REMARK VINA RESULT:    -2.574      5.182      7.988
REMARK INTER + INTRA:          -2.574
REMARK INTER:                  -2.574
REMARK INTRA:                   0.000
REMARK UNBOUND:                 0.000
REMARK  Name = /home/vital/Documents/PhD_2021/Malaria_codes/scripts/../data/pdbqt_ligands/ligand_239_temp.pdb
REMARK                            x       y       z     vdW  Elec       q    Type
REMARK                         _______ _______ _______ _____ _____    ______ ____
ROOT
ATOM      1  C1  UNL     1      18.930  45.907  26.708  0.00  0.00    +0.079 C 
ATOM      2  O1  UNL     1      17.895  44.967  26.443  0.00  0.00    -0.495 OA
ATOM      3  C2  UNL     1      18.105  44.088  25.418  0.00  0.00    +0.120 A 
ATOM      4  C3  UNL     1      17.067  43.184  25.201  0.00  0.00    -0.018 A 
ATOM      5  C4  UNL     1      17.149  42.230  24.182  0.00  0.00    -0.034 A 
ATOM      6  C5  UNL     1      18.277  42.174  23.349  0.00  0.00    +0.049 A 
ATOM      7  N1  UNL     1      18.344  41.185  22.320  0.00  0.00    -0.295 N 
ATOM      8  C6  UNL     1      17.695  39.961  22.376  0.00  0.00    +0.030 A 
ATOM      9  C7  UNL     1      18.065  39.265  21.256  0.00  0.00    +0.047 A 
ATOM     10  N2  UNL     1      18.866  40.025  20.456  0.00  0.00    -0.230 NA
ATOM     11  C8  UNL     1      19.028  41.163  21.105  0.00  0.00    +0.174 A 
ATOM     12  S1  UNL     1      19.871  42.512  20.403  0.00  0.00    -0.078 S 
ATOM     13  C9  UNL     1      20.624  41.754  18.938  0.00  0.00    +0.078 C 
ATOM     14  C10 UNL     1      19.713  41.907  17.731  0.00  0.00    +0.227 C 
ATOM     15  O2  UNL     1      19.939  42.783  16.898  0.00  0.00    -0.275 OA
ATOM     16  N3  UNL     1      18.694  40.968  17.687  0.00  0.00    -0.285 N 
ATOM     17  C11 UNL     1      17.683  40.816  16.703  0.00  0.00    +0.037 A 
ATOM     18  C12 UNL     1      17.549  41.721  15.642  0.00  0.00    -0.034 A 
ATOM     19  C13 UNL     1      16.527  41.605  14.686  0.00  0.00    -0.007 A 
ATOM     20  C14 UNL     1      16.456  42.614  13.574  0.00  0.00    -0.036 C 
ATOM     21  C15 UNL     1      15.606  40.563  14.819  0.00  0.00    +0.123 A 
ATOM     22  O3  UNL     1      14.583  40.405  13.922  0.00  0.00    -0.506 OA
ATOM     23  C16 UNL     1      15.698  39.638  15.872  0.00  0.00    -0.004 A 
ATOM     24  C17 UNL     1      14.674  38.531  15.982  0.00  0.00    -0.036 C 
ATOM     25  C18 UNL     1      16.772  39.736  16.798  0.00  0.00    -0.023 A 
ATOM     26  C19 UNL     1      16.910  38.699  17.888  0.00  0.00    -0.038 C 
ATOM     27  C20 UNL     1      19.324  43.073  23.580  0.00  0.00    -0.034 A 
ATOM     28  C21 UNL     1      19.235  44.026  24.606  0.00  0.00    -0.018 A 
ATOM     29  H   UNL     1      18.669  40.325  18.433  0.00  0.00    +0.000 HD
ATOM     30  H   UNL     1      14.490  41.003  13.206  0.00  0.00    +0.000 HD
ENDROOT
TORSDOF 0
ENDMDL
MODEL 8
REMARK VINA RESULT:    -2.533     15.973     18.981
REMARK INTER + INTRA:          -2.533
REMARK INTER:                  -2.533
REMARK INTRA:                   0.000
REMARK UNBOUND:                 0.000
REMARK  Name = /home/vital/Documents/PhD_2021/Malaria_codes/scripts/../data/pdbqt_ligands/ligand_239_temp.pdb
REMARK                            x       y       z     vdW  Elec       q    Type
REMARK                         _______ _______ _______ _____ _____    ______ ____
ROOT
ATOM      1  C1  UNL     1      19.139  30.491  26.421  0.00  0.00    +0.079 C 
ATOM      2  O1  UNL     1      18.099  29.596  26.047  0.00  0.00    -0.495 OA
ATOM      3  C2  UNL     1      18.305  28.843  24.925  0.00  0.00    +0.120 A 
ATOM      4  C3  UNL     1      17.260  27.978  24.602  0.00  0.00    -0.018 A 
ATOM      5  C4  UNL     1      17.337  27.149  23.478  0.00  0.00    -0.034 A 
ATOM      6  C5  UNL     1      18.467  27.184  22.645  0.00  0.00    +0.049 A 
ATOM      7  N1  UNL     1      18.529  26.322  21.507  0.00  0.00    -0.295 N 
ATOM      8  C6  UNL     1      17.871  25.105  21.418  0.00  0.00    +0.030 A 
ATOM      9  C7  UNL     1      18.238  24.543  20.224  0.00  0.00    +0.047 A 
ATOM     10  N2  UNL     1      19.046  25.386  19.521  0.00  0.00    -0.230 NA
ATOM     11  C8  UNL     1      19.215  26.439  20.299  0.00  0.00    +0.174 A 
ATOM     12  S1  UNL     1      20.069  27.855  19.762  0.00  0.00    -0.078 S 
ATOM     13  C9  UNL     1      20.819  27.269  18.218  0.00  0.00    +0.078 C 
ATOM     14  C10 UNL     1      19.911  27.569  17.037  0.00  0.00    +0.227 C 
ATOM     15  O2  UNL     1      20.146  28.535  16.313  0.00  0.00    -0.275 OA
ATOM     16  N3  UNL     1      18.886  26.649  16.882  0.00  0.00    -0.285 N 
ATOM     17  C11 UNL     1      17.876  26.622  15.886  0.00  0.00    +0.037 A 
ATOM     18  C12 UNL     1      17.750  27.646  14.938  0.00  0.00    -0.034 A 
ATOM     19  C13 UNL     1      16.730  27.651  13.974  0.00  0.00    -0.007 A 
ATOM     20  C14 UNL     1      16.667  28.783  12.989  0.00  0.00    -0.036 C 
ATOM     21  C15 UNL     1      15.801  26.607  13.982  0.00  0.00    +0.123 A 
ATOM     22  O3  UNL     1      14.778  26.562  13.072  0.00  0.00    -0.506 OA
ATOM     23  C16 UNL     1      15.884  25.563  14.920  0.00  0.00    -0.004 A 
ATOM     24  C17 UNL     1      14.853  24.459  14.897  0.00  0.00    -0.036 C 
ATOM     25  C18 UNL     1      16.958  25.544  15.852  0.00  0.00    -0.023 A 
ATOM     26  C19 UNL     1      17.086  24.385  16.812  0.00  0.00    -0.038 C 
ATOM     27  C20 UNL     1      19.520  28.042  22.982  0.00  0.00    -0.034 A 
ATOM     28  C21 UNL     1      19.436  28.868  24.113  0.00  0.00    -0.018 A 
ATOM     29  H   UNL     1      18.855  25.924  17.546  0.00  0.00    +0.000 HD
ATOM     30  H   UNL     1      14.691  27.241  12.432  0.00  0.00    +0.000 HD
ENDROOT
TORSDOF 0
ENDMDL
MODEL 9
REMARK VINA RESULT:    -2.467      1.488      2.018
REMARK INTER + INTRA:          -2.467
REMARK INTER:                  -2.467
REMARK INTRA:                   0.000
REMARK UNBOUND:                 0.000
REMARK  Name = /home/vital/Documents/PhD_2021/Malaria_codes/scripts/../data/pdbqt_ligands/ligand_239_temp.pdb
REMARK                            x       y       z     vdW  Elec       q    Type
REMARK                         _______ _______ _______ _____ _____    ______ ____
ROOT
ATOM      1  C1  UNL     1      25.870  44.577  15.253  0.00  0.00    +0.079 C 
ATOM      2  O1  UNL     1      24.811  45.522  15.346  0.00  0.00    -0.495 OA
ATOM      3  C2  UNL     1      24.205  45.653  16.564  0.00  0.00    +0.120 A 
ATOM      4  C3  UNL     1      23.177  46.594  16.607  0.00  0.00    -0.018 A 
ATOM      5  C4  UNL     1      22.470  46.830  17.790  0.00  0.00    -0.034 A 
ATOM      6  C5  UNL     1      22.775  46.110  18.956  0.00  0.00    +0.049 A 
ATOM      7  N1  UNL     1      22.047  46.373  20.157  0.00  0.00    -0.295 N 
ATOM      8  C6  UNL     1      21.452  47.590  20.453  0.00  0.00    +0.030 A 
ATOM      9  C7  UNL     1      20.927  47.477  21.713  0.00  0.00    +0.047 A 
ATOM     10  N2  UNL     1      21.101  46.215  22.199  0.00  0.00    -0.230 NA
ATOM     11  C8  UNL     1      21.775  45.571  21.264  0.00  0.00    +0.174 A 
ATOM     12  S1  UNL     1      22.111  43.869  21.379  0.00  0.00    -0.078 S 
ATOM     13  C9  UNL     1      21.644  43.516  23.095  0.00  0.00    +0.078 C 
ATOM     14  C10 UNL     1      20.194  43.066  23.171  0.00  0.00    +0.227 C 
ATOM     15  O2  UNL     1      19.927  41.870  23.275  0.00  0.00    -0.275 OA
ATOM     16  N3  UNL     1      19.289  44.116  23.146  0.00  0.00    -0.285 N 
ATOM     17  C11 UNL     1      17.873  44.055  23.211  0.00  0.00    +0.037 A 
ATOM     18  C12 UNL     1      17.190  42.832  23.221  0.00  0.00    -0.034 A 
ATOM     19  C13 UNL     1      15.788  42.760  23.243  0.00  0.00    -0.007 A 
ATOM     20  C14 UNL     1      15.131  41.408  23.258  0.00  0.00    -0.036 C 
ATOM     21  C15 UNL     1      15.060  43.952  23.233  0.00  0.00    +0.123 A 
ATOM     22  O3  UNL     1      13.690  43.944  23.245  0.00  0.00    -0.506 OA
ATOM     23  C16 UNL     1      15.703  45.201  23.215  0.00  0.00    -0.004 A 
ATOM     24  C17 UNL     1      14.875  46.465  23.196  0.00  0.00    -0.036 C 
ATOM     25  C18 UNL     1      17.124  45.257  23.251  0.00  0.00    -0.023 A 
ATOM     26  C19 UNL     1      17.813  46.599  23.304  0.00  0.00    -0.038 C 
ATOM     27  C20 UNL     1      23.818  45.178  18.913  0.00  0.00    -0.034 A 
ATOM     28  C21 UNL     1      24.525  44.949  17.722  0.00  0.00    -0.018 A 
ATOM     29  H   UNL     1      19.679  45.018  23.074  0.00  0.00    +0.000 HD
ATOM     30  H   UNL     1      13.226  43.130  23.257  0.00  0.00    +0.000 HD
ENDROOT
TORSDOF 0
ENDMDL
