MODEL 1
REMARK VINA RESULT:    -5.088      0.000      0.000
REMARK INTER + INTRA:          -5.088
REMARK INTER:                  -5.088
REMARK INTRA:                   0.000
REMARK UNBOUND:                 0.000
REMARK  Name = /home/vital/Documents/PhD_2021/Malaria_codes/scripts/../data/pdbqt_ligands/ligand_216_temp.pdb
REMARK                            x       y       z     vdW  Elec       q    Type
REMARK                         _______ _______ _______ _____ _____    ______ ____
ROOT
ATOM      1  C1  UNL     1      15.999  22.838  16.619  0.00  0.00    +0.079 C 
ATOM      2  O1  UNL     1      14.865  23.629  16.949  0.00  0.00    -0.495 OA
ATOM      3  C2  UNL     1      15.041  24.985  16.973  0.00  0.00    +0.120 A 
ATOM      4  C3  UNL     1      16.234  25.662  16.720  0.00  0.00    -0.019 A 
ATOM      5  C4  UNL     1      16.276  27.061  16.781  0.00  0.00    -0.049 A 
ATOM      6  C5  UNL     1      15.125  27.793  17.091  0.00  0.00    +0.000 A 
ATOM      7  C6  UNL     1      15.172  29.245  17.168  0.00  0.00    +0.067 A 
ATOM      8  C7  UNL     1      15.200  29.997  18.297  0.00  0.00    +0.036 A 
ATOM      9  N1  UNL     1      15.311  31.316  17.885  0.00  0.00    -0.295 N 
ATOM     10  C8  UNL     1      15.457  32.585  18.392  0.00  0.00    +0.118 A 
ATOM     11  C9  UNL     1      15.476  32.833  19.825  0.00  0.00    +0.266 C 
ATOM     12  O2  UNL     1      14.921  32.070  20.609  0.00  0.00    -0.268 OA
ATOM     13  N2  UNL     1      16.192  33.953  20.205  0.00  0.00    -0.280 N 
ATOM     14  C10 UNL     1      16.354  34.489  21.497  0.00  0.00    +0.034 A 
ATOM     15  C11 UNL     1      17.132  35.652  21.606  0.00  0.00    -0.039 A 
ATOM     16  C12 UNL     1      17.341  36.257  22.849  0.00  0.00    -0.042 A 
ATOM     17  C13 UNL     1      16.772  35.703  23.991  0.00  0.00    +0.041 A 
ATOM     18 CL1  UNL     1      17.027  36.443  25.522  0.00  0.00    -0.084 Cl
ATOM     19  C14 UNL     1      15.996  34.551  23.898  0.00  0.00    -0.042 A 
ATOM     20  C15 UNL     1      15.787  33.947  22.652  0.00  0.00    -0.039 A 
ATOM     21  C16 UNL     1      15.554  33.428  17.256  0.00  0.00    +0.018 A 
ATOM     22  C17 UNL     1      15.641  34.877  17.311  0.00  0.00    -0.015 A 
ATOM     23  C18 UNL     1      16.781  35.526  16.820  0.00  0.00    -0.053 A 
ATOM     24  C19 UNL     1      16.881  36.916  16.890  0.00  0.00    -0.043 A 
ATOM     25  C20 UNL     1      15.840  37.659  17.447  0.00  0.00    +0.041 A 
ATOM     26 CL2  UNL     1      15.969  39.371  17.540  0.00  0.00    -0.084 Cl
ATOM     27  C21 UNL     1      14.698  37.023  17.930  0.00  0.00    -0.043 A 
ATOM     28  C22 UNL     1      14.596  35.631  17.859  0.00  0.00    -0.053 A 
ATOM     29  C23 UNL     1      15.502  32.621  16.063  0.00  0.00    +0.004 A 
ATOM     30  C24 UNL     1      15.343  31.358  16.529  0.00  0.00    +0.123 A 
ATOM     31  N3  UNL     1      15.210  30.101  16.044  0.00  0.00    -0.325 N 
ATOM     32  C25 UNL     1      15.626  29.830  14.681  0.00  0.00    +0.025 C 
ATOM     33  C26 UNL     1      14.821  30.610  13.627  0.00  0.00    -0.035 C 
ATOM     34  C27 UNL     1      14.517  32.114  13.822  0.00  0.00    -0.047 C 
ATOM     35  C28 UNL     1      15.531  32.955  14.615  0.00  0.00    -0.024 C 
ATOM     36  C29 UNL     1      13.932  27.112  17.349  0.00  0.00    -0.049 A 
ATOM     37  C30 UNL     1      13.894  25.717  17.288  0.00  0.00    -0.019 A 
ATOM     38  H   UNL     1      16.647  34.438  19.479  0.00  0.00    +0.000 HD
ENDROOT
TORSDOF 0
ENDMDL
MODEL 2
REMARK VINA RESULT:    -4.970      4.259      9.985
REMARK INTER + INTRA:          -4.970
REMARK INTER:                  -4.970
REMARK INTRA:                   0.000
REMARK UNBOUND:                 0.000
REMARK  Name = /home/vital/Documents/PhD_2021/Malaria_codes/scripts/../data/pdbqt_ligands/ligand_216_temp.pdb
REMARK                            x       y       z     vdW  Elec       q    Type
REMARK                         _______ _______ _______ _____ _____    ______ ____
ROOT
ATOM      1  C1  UNL     1      18.295  42.584  12.839  0.00  0.00    +0.079 C 
ATOM      2  O1  UNL     1      16.996  42.084  13.125  0.00  0.00    -0.495 OA
ATOM      3  C2  UNL     1      16.922  40.957  13.896  0.00  0.00    +0.120 A 
ATOM      4  C3  UNL     1      18.004  40.244  14.413  0.00  0.00    -0.019 A 
ATOM      5  C4  UNL     1      17.785  39.099  15.190  0.00  0.00    -0.049 A 
ATOM      6  C5  UNL     1      16.484  38.661  15.458  0.00  0.00    +0.000 A 
ATOM      7  C6  UNL     1      16.258  37.463  16.253  0.00  0.00    +0.067 A 
ATOM      8  C7  UNL     1      15.908  36.237  15.790  0.00  0.00    +0.036 A 
ATOM      9  N1  UNL     1      15.872  35.398  16.894  0.00  0.00    -0.295 N 
ATOM     10  C8  UNL     1      15.680  34.079  17.229  0.00  0.00    +0.118 A 
ATOM     11  C9  UNL     1      15.345  33.082  16.224  0.00  0.00    +0.266 C 
ATOM     12  O2  UNL     1      14.776  33.396  15.183  0.00  0.00    -0.268 OA
ATOM     13  N2  UNL     1      15.754  31.798  16.530  0.00  0.00    -0.280 N 
ATOM     14  C10 UNL     1      15.537  30.614  15.800  0.00  0.00    +0.034 A 
ATOM     15  C11 UNL     1      16.055  29.430  16.344  0.00  0.00    -0.039 A 
ATOM     16  C12 UNL     1      15.882  28.206  15.690  0.00  0.00    -0.042 A 
ATOM     17  C13 UNL     1      15.185  28.160  14.486  0.00  0.00    +0.041 A 
ATOM     18 CL1  UNL     1      14.970  26.658  13.678  0.00  0.00    -0.084 Cl
ATOM     19  C14 UNL     1      14.663  29.326  13.935  0.00  0.00    -0.042 A 
ATOM     20  C15 UNL     1      14.838  30.550  14.592  0.00  0.00    -0.039 A 
ATOM     21  C16 UNL     1      15.871  34.022  18.632  0.00  0.00    +0.018 A 
ATOM     22  C17 UNL     1      15.688  32.828  19.440  0.00  0.00    -0.015 A 
ATOM     23  C18 UNL     1      16.775  32.285  20.136  0.00  0.00    -0.053 A 
ATOM     24  C19 UNL     1      16.612  31.125  20.896  0.00  0.00    -0.043 A 
ATOM     25  C20 UNL     1      15.362  30.512  20.964  0.00  0.00    +0.041 A 
ATOM     26 CL2  UNL     1      15.164  29.079  21.894  0.00  0.00    -0.084 Cl
ATOM     27  C21 UNL     1      14.272  31.050  20.283  0.00  0.00    -0.043 A 
ATOM     28  C22 UNL     1      14.433  32.212  19.522  0.00  0.00    -0.053 A 
ATOM     29  C23 UNL     1      16.220  35.334  19.115  0.00  0.00    +0.004 A 
ATOM     30  C24 UNL     1      16.189  36.111  18.005  0.00  0.00    +0.123 A 
ATOM     31  N3  UNL     1      16.387  37.405  17.659  0.00  0.00    -0.325 N 
ATOM     32  C25 UNL     1      17.129  38.264  18.563  0.00  0.00    +0.025 C 
ATOM     33  C26 UNL     1      16.446  38.454  19.929  0.00  0.00    -0.035 C 
ATOM     34  C27 UNL     1      15.848  37.244  20.684  0.00  0.00    -0.047 C 
ATOM     35  C28 UNL     1      16.503  35.869  20.473  0.00  0.00    -0.024 C 
ATOM     36  C29 UNL     1      15.402  39.373  14.934  0.00  0.00    -0.049 A 
ATOM     37  C30 UNL     1      15.623  40.515  14.160  0.00  0.00    -0.019 A 
ATOM     38  H   UNL     1      16.263  31.698  17.367  0.00  0.00    +0.000 HD
ENDROOT
TORSDOF 0
ENDMDL
MODEL 3
REMARK VINA RESULT:    -4.966      4.687      8.937
REMARK INTER + INTRA:          -4.966
REMARK INTER:                  -4.966
REMARK INTRA:                   0.000
REMARK UNBOUND:                 0.000
REMARK  Name = /home/vital/Documents/PhD_2021/Malaria_codes/scripts/../data/pdbqt_ligands/ligand_216_temp.pdb
REMARK                            x       y       z     vdW  Elec       q    Type
REMARK                         _______ _______ _______ _____ _____    ______ ____
ROOT
ATOM      1  C1  UNL     1      16.282  39.346  16.743  0.00  0.00    +0.079 C 
ATOM      2  O1  UNL     1      17.320  38.516  16.240  0.00  0.00    -0.495 OA
ATOM      3  C2  UNL     1      17.095  37.167  16.250  0.00  0.00    +0.120 A 
ATOM      4  C3  UNL     1      15.947  36.531  16.722  0.00  0.00    -0.019 A 
ATOM      5  C4  UNL     1      15.846  35.134  16.674  0.00  0.00    -0.049 A 
ATOM      6  C5  UNL     1      16.891  34.365  16.150  0.00  0.00    +0.000 A 
ATOM      7  C6  UNL     1      16.792  32.913  16.115  0.00  0.00    +0.067 A 
ATOM      8  C7  UNL     1      17.400  32.038  16.954  0.00  0.00    +0.036 A 
ATOM      9  N1  UNL     1      16.964  30.775  16.584  0.00  0.00    -0.295 N 
ATOM     10  C8  UNL     1      17.062  29.457  16.962  0.00  0.00    +0.118 A 
ATOM     11  C9  UNL     1      17.899  29.048  18.079  0.00  0.00    +0.266 C 
ATOM     12  O2  UNL     1      18.871  29.714  18.421  0.00  0.00    -0.268 OA
ATOM     13  N2  UNL     1      17.480  27.897  18.719  0.00  0.00    -0.280 N 
ATOM     14  C10 UNL     1      18.097  27.217  19.788  0.00  0.00    +0.034 A 
ATOM     15  C11 UNL     1      17.462  26.055  20.249  0.00  0.00    -0.039 A 
ATOM     16  C12 UNL     1      18.006  25.313  21.302  0.00  0.00    -0.042 A 
ATOM     17  C13 UNL     1      19.191  25.730  21.899  0.00  0.00    +0.041 A 
ATOM     18 CL1  UNL     1      19.864  24.822  23.195  0.00  0.00    -0.084 Cl
ATOM     19  C14 UNL     1      19.834  26.880  21.451  0.00  0.00    -0.042 A 
ATOM     20  C15 UNL     1      19.287  27.621  20.396  0.00  0.00    -0.039 A 
ATOM     21  C16 UNL     1      16.233  28.750  16.056  0.00  0.00    +0.018 A 
ATOM     22  C17 UNL     1      16.089  27.305  16.027  0.00  0.00    -0.015 A 
ATOM     23  C18 UNL     1      14.841  26.723  16.282  0.00  0.00    -0.053 A 
ATOM     24  C19 UNL     1      14.701  25.334  16.279  0.00  0.00    -0.043 A 
ATOM     25  C20 UNL     1      15.807  24.527  16.015  0.00  0.00    +0.041 A 
ATOM     26 CL2  UNL     1      15.635  22.816  16.019  0.00  0.00    -0.084 Cl
ATOM     27  C21 UNL     1      17.051  25.097  15.751  0.00  0.00    -0.043 A 
ATOM     28  C22 UNL     1      17.193  26.487  15.753  0.00  0.00    -0.053 A 
ATOM     29  C23 UNL     1      15.609  29.688  15.156  0.00  0.00    +0.004 A 
ATOM     30  C24 UNL     1      16.112  30.888  15.534  0.00  0.00    +0.123 A 
ATOM     31  N3  UNL     1      16.016  32.191  15.180  0.00  0.00    -0.325 N 
ATOM     32  C25 UNL     1      14.879  32.618  14.386  0.00  0.00    +0.025 C 
ATOM     33  C26 UNL     1      14.817  31.959  12.997  0.00  0.00    -0.035 C 
ATOM     34  C27 UNL     1      15.064  30.441  12.835  0.00  0.00    -0.047 C 
ATOM     35  C28 UNL     1      14.681  29.521  14.006  0.00  0.00    -0.024 C 
ATOM     36  C29 UNL     1      18.041  35.004  15.683  0.00  0.00    -0.049 A 
ATOM     37  C30 UNL     1      18.139  36.397  15.731  0.00  0.00    -0.019 A 
ATOM     38  H   UNL     1      16.643  27.500  18.385  0.00  0.00    +0.000 HD
ENDROOT
TORSDOF 0
ENDMDL
MODEL 4
REMARK VINA RESULT:    -4.885     14.926     17.270
REMARK INTER + INTRA:          -4.885
REMARK INTER:                  -4.885
REMARK INTRA:                   0.000
REMARK UNBOUND:                 0.000
REMARK  Name = /home/vital/Documents/PhD_2021/Malaria_codes/scripts/../data/pdbqt_ligands/ligand_216_temp.pdb
REMARK                            x       y       z     vdW  Elec       q    Type
REMARK                         _______ _______ _______ _____ _____    ______ ____
ROOT
ATOM      1  C1  UNL     1      21.326  47.178  18.766  0.00  0.00    +0.079 C 
ATOM      2  O1  UNL     1      20.874  45.922  19.256  0.00  0.00    -0.495 OA
ATOM      3  C2  UNL     1      20.256  45.920  20.477  0.00  0.00    +0.120 A 
ATOM      4  C3  UNL     1      20.044  47.033  21.291  0.00  0.00    -0.019 A 
ATOM      5  C4  UNL     1      19.397  46.889  22.525  0.00  0.00    -0.049 A 
ATOM      6  C5  UNL     1      18.954  45.632  22.952  0.00  0.00    +0.000 A 
ATOM      7  C6  UNL     1      18.295  45.481  24.240  0.00  0.00    +0.067 A 
ATOM      8  C7  UNL     1      18.841  44.984  25.377  0.00  0.00    +0.036 A 
ATOM      9  N1  UNL     1      17.869  45.095  26.359  0.00  0.00    -0.295 N 
ATOM     10  C8  UNL     1      17.680  44.888  27.705  0.00  0.00    +0.118 A 
ATOM     11  C9  UNL     1      18.727  44.322  28.540  0.00  0.00    +0.266 C 
ATOM     12  O2  UNL     1      19.596  43.597  28.066  0.00  0.00    -0.268 OA
ATOM     13  N2  UNL     1      18.672  44.702  29.868  0.00  0.00    -0.280 N 
ATOM     14  C10 UNL     1      19.498  44.289  30.931  0.00  0.00    +0.034 A 
ATOM     15  C11 UNL     1      19.218  44.826  32.196  0.00  0.00    -0.039 A 
ATOM     16  C12 UNL     1      19.984  44.467  33.310  0.00  0.00    -0.042 A 
ATOM     17  C13 UNL     1      21.034  43.566  33.164  0.00  0.00    +0.041 A 
ATOM     18 CL1  UNL     1      21.979  43.123  34.531  0.00  0.00    -0.084 Cl
ATOM     19  C14 UNL     1      21.322  43.024  31.915  0.00  0.00    -0.042 A 
ATOM     20  C15 UNL     1      20.554  43.384  30.801  0.00  0.00    -0.039 A 
ATOM     21  C16 UNL     1      16.355  45.321  27.964  0.00  0.00    +0.018 A 
ATOM     22  C17 UNL     1      15.691  45.215  29.251  0.00  0.00    -0.015 A 
ATOM     23  C18 UNL     1      15.284  46.375  29.923  0.00  0.00    -0.053 A 
ATOM     24  C19 UNL     1      14.665  46.281  31.171  0.00  0.00    -0.043 A 
ATOM     25  C20 UNL     1      14.449  45.029  31.744  0.00  0.00    +0.041 A 
ATOM     26 CL2  UNL     1      13.694  44.916  33.285  0.00  0.00    -0.084 Cl
ATOM     27  C21 UNL     1      14.841  43.869  31.079  0.00  0.00    -0.043 A 
ATOM     28  C22 UNL     1      15.460  43.961  29.830  0.00  0.00    -0.053 A 
ATOM     29  C23 UNL     1      15.778  45.828  26.744  0.00  0.00    +0.004 A 
ATOM     30  C24 UNL     1      16.752  45.645  25.820  0.00  0.00    +0.123 A 
ATOM     31  N3  UNL     1      16.955  45.854  24.497  0.00  0.00    -0.325 N 
ATOM     32  C25 UNL     1      16.100  46.794  23.798  0.00  0.00    +0.025 C 
ATOM     33  C26 UNL     1      14.618  46.377  23.778  0.00  0.00    -0.035 C 
ATOM     34  C27 UNL     1      13.930  45.853  25.060  0.00  0.00    -0.047 C 
ATOM     35  C28 UNL     1      14.436  46.378  26.413  0.00  0.00    -0.024 C 
ATOM     36  C29 UNL     1      19.172  44.519  22.137  0.00  0.00    -0.049 A 
ATOM     37  C30 UNL     1      19.818  44.666  20.907  0.00  0.00    -0.019 A 
ATOM     38  H   UNL     1      17.963  45.345  30.100  0.00  0.00    +0.000 HD
ENDROOT
TORSDOF 0
ENDMDL
MODEL 5
REMARK VINA RESULT:    -4.817      4.047      8.462
REMARK INTER + INTRA:          -4.817
REMARK INTER:                  -4.817
REMARK INTRA:                   0.000
REMARK UNBOUND:                 0.000
REMARK  Name = /home/vital/Documents/PhD_2021/Malaria_codes/scripts/../data/pdbqt_ligands/ligand_216_temp.pdb
REMARK                            x       y       z     vdW  Elec       q    Type
REMARK                         _______ _______ _______ _____ _____    ______ ____
ROOT
ATOM      1  C1  UNL     1      16.417  40.978  14.830  0.00  0.00    +0.079 C 
ATOM      2  O1  UNL     1      17.463  40.086  15.194  0.00  0.00    -0.495 OA
ATOM      3  C2  UNL     1      17.141  38.760  15.287  0.00  0.00    +0.120 A 
ATOM      4  C3  UNL     1      15.879  38.205  15.071  0.00  0.00    -0.019 A 
ATOM      5  C4  UNL     1      15.687  36.823  15.201  0.00  0.00    -0.049 A 
ATOM      6  C5  UNL     1      16.756  35.987  15.543  0.00  0.00    +0.000 A 
ATOM      7  C6  UNL     1      16.552  34.553  15.692  0.00  0.00    +0.067 A 
ATOM      8  C7  UNL     1      16.454  33.865  16.856  0.00  0.00    +0.036 A 
ATOM      9  N1  UNL     1      16.198  32.547  16.511  0.00  0.00    -0.295 N 
ATOM     10  C8  UNL     1      15.920  31.327  17.080  0.00  0.00    +0.118 A 
ATOM     11  C9  UNL     1      15.887  31.153  18.524  0.00  0.00    +0.266 C 
ATOM     12  O2  UNL     1      16.528  31.889  19.267  0.00  0.00    -0.268 OA
ATOM     13  N2  UNL     1      15.058  30.137  18.961  0.00  0.00    -0.280 N 
ATOM     14  C10 UNL     1      14.850  29.685  20.279  0.00  0.00    +0.034 A 
ATOM     15  C11 UNL     1      13.953  28.621  20.448  0.00  0.00    -0.039 A 
ATOM     16  C12 UNL     1      13.690  28.103  21.721  0.00  0.00    -0.042 A 
ATOM     17  C13 UNL     1      14.326  28.647  22.831  0.00  0.00    +0.041 A 
ATOM     18 CL1  UNL     1      14.006  28.014  24.398  0.00  0.00    -0.084 Cl
ATOM     19  C14 UNL     1      15.221  29.702  22.678  0.00  0.00    -0.042 A 
ATOM     20  C15 UNL     1      15.483  30.219  21.404  0.00  0.00    -0.039 A 
ATOM     21  C16 UNL     1      15.722  30.446  15.988  0.00  0.00    +0.018 A 
ATOM     22  C17 UNL     1      15.480  29.019  16.115  0.00  0.00    -0.015 A 
ATOM     23  C18 UNL     1      14.272  28.475  15.660  0.00  0.00    -0.053 A 
ATOM     24  C19 UNL     1      14.023  27.108  15.800  0.00  0.00    -0.043 A 
ATOM     25  C20 UNL     1      14.983  26.285  16.388  0.00  0.00    +0.041 A 
ATOM     26 CL2  UNL     1      14.671  24.604  16.567  0.00  0.00    -0.084 Cl
ATOM     27  C21 UNL     1      16.191  26.816  16.835  0.00  0.00    -0.043 A 
ATOM     28  C22 UNL     1      16.443  28.184  16.696  0.00  0.00    -0.053 A 
ATOM     29  C23 UNL     1      15.851  31.184  14.757  0.00  0.00    +0.004 A 
ATOM     30  C24 UNL     1      16.149  32.443  15.159  0.00  0.00    +0.123 A 
ATOM     31  N3  UNL     1      16.413  33.653  14.611  0.00  0.00    -0.325 N 
ATOM     32  C25 UNL     1      16.016  33.901  13.238  0.00  0.00    +0.025 C 
ATOM     33  C26 UNL     1      16.723  32.988  12.221  0.00  0.00    -0.035 C 
ATOM     34  C27 UNL     1      16.864  31.471  12.489  0.00  0.00    -0.047 C 
ATOM     35  C28 UNL     1      15.773  30.784  13.326  0.00  0.00    -0.024 C 
ATOM     36  C29 UNL     1      18.017  36.546  15.763  0.00  0.00    -0.049 A 
ATOM     37  C30 UNL     1      18.206  37.924  15.633  0.00  0.00    -0.019 A 
ATOM     38  H   UNL     1      14.547  29.670  18.261  0.00  0.00    +0.000 HD
ENDROOT
TORSDOF 0
ENDMDL
MODEL 6
REMARK VINA RESULT:    -4.808      2.442      5.330
REMARK INTER + INTRA:          -4.808
REMARK INTER:                  -4.808
REMARK INTRA:                   0.000
REMARK UNBOUND:                 0.000
REMARK  Name = /home/vital/Documents/PhD_2021/Malaria_codes/scripts/../data/pdbqt_ligands/ligand_216_temp.pdb
REMARK                            x       y       z     vdW  Elec       q    Type
REMARK                         _______ _______ _______ _____ _____    ______ ____
ROOT
ATOM      1  C1  UNL     1      14.685  24.885  14.218  0.00  0.00    +0.079 C 
ATOM      2  O1  UNL     1      15.854  25.593  14.611  0.00  0.00    -0.495 OA
ATOM      3  C2  UNL     1      15.669  26.764  15.292  0.00  0.00    +0.120 A 
ATOM      4  C3  UNL     1      14.440  27.336  15.622  0.00  0.00    -0.019 A 
ATOM      5  C4  UNL     1      14.393  28.547  16.325  0.00  0.00    -0.049 A 
ATOM      6  C5  UNL     1      15.575  29.193  16.705  0.00  0.00    +0.000 A 
ATOM      7  C6  UNL     1      15.526  30.459  17.421  0.00  0.00    +0.067 A 
ATOM      8  C7  UNL     1      15.752  31.692  16.905  0.00  0.00    +0.036 A 
ATOM      9  N1  UNL     1      15.529  32.594  17.935  0.00  0.00    -0.295 N 
ATOM     10  C8  UNL     1      15.488  33.945  18.182  0.00  0.00    +0.118 A 
ATOM     11  C9  UNL     1      15.801  34.916  17.146  0.00  0.00    +0.266 C 
ATOM     12  O2  UNL     1      16.535  34.628  16.206  0.00  0.00    -0.268 OA
ATOM     13  N2  UNL     1      15.178  36.141  17.299  0.00  0.00    -0.280 N 
ATOM     14  C10 UNL     1      15.315  37.296  16.506  0.00  0.00    +0.034 A 
ATOM     15  C11 UNL     1      14.568  38.420  16.890  0.00  0.00    -0.039 A 
ATOM     16  C12 UNL     1      14.646  39.613  16.164  0.00  0.00    -0.042 A 
ATOM     17  C13 UNL     1      15.475  39.688  15.049  0.00  0.00    +0.041 A 
ATOM     18 CL1  UNL     1      15.574  41.152  14.152  0.00  0.00    -0.084 Cl
ATOM     19  C14 UNL     1      16.224  38.582  14.657  0.00  0.00    -0.042 A 
ATOM     20  C15 UNL     1      16.144  37.389  15.386  0.00  0.00    -0.039 A 
ATOM     21  C16 UNL     1      15.116  34.061  19.545  0.00  0.00    +0.018 A 
ATOM     22  C17 UNL     1      15.023  35.316  20.270  0.00  0.00    -0.015 A 
ATOM     23  C18 UNL     1      13.791  35.731  20.790  0.00  0.00    -0.053 A 
ATOM     24  C19 UNL     1      13.690  36.947  21.468  0.00  0.00    -0.043 A 
ATOM     25  C20 UNL     1      14.822  37.745  21.631  0.00  0.00    +0.041 A 
ATOM     26 CL2  UNL     1      14.694  39.247  22.459  0.00  0.00    -0.084 Cl
ATOM     27  C21 UNL     1      16.054  37.337  21.125  0.00  0.00    -0.043 A 
ATOM     28  C22 UNL     1      16.157  36.119  20.447  0.00  0.00    -0.053 A 
ATOM     29  C23 UNL     1      14.899  32.743  20.088  0.00  0.00    +0.004 A 
ATOM     30  C24 UNL     1      15.180  31.913  19.056  0.00  0.00    +0.123 A 
ATOM     31  N3  UNL     1      15.214  30.584  18.795  0.00  0.00    -0.325 N 
ATOM     32  C25 UNL     1      14.494  29.681  19.672  0.00  0.00    +0.025 C 
ATOM     33  C26 UNL     1      15.020  29.682  21.119  0.00  0.00    -0.035 C 
ATOM     34  C27 UNL     1      15.339  31.013  21.839  0.00  0.00    -0.047 C 
ATOM     35  C28 UNL     1      14.527  32.257  21.444  0.00  0.00    -0.024 C 
ATOM     36  C29 UNL     1      16.804  28.622  16.368  0.00  0.00    -0.049 A 
ATOM     37  C30 UNL     1      16.847  27.413  15.667  0.00  0.00    -0.019 A 
ATOM     38  H   UNL     1      14.559  36.215  18.061  0.00  0.00    +0.000 HD
ENDROOT
TORSDOF 0
ENDMDL
MODEL 7
REMARK VINA RESULT:    -4.766     15.785     17.504
REMARK INTER + INTRA:          -4.766
REMARK INTER:                  -4.766
REMARK INTRA:                   0.000
REMARK UNBOUND:                 0.000
REMARK  Name = /home/vital/Documents/PhD_2021/Malaria_codes/scripts/../data/pdbqt_ligands/ligand_216_temp.pdb
REMARK                            x       y       z     vdW  Elec       q    Type
REMARK                         _______ _______ _______ _____ _____    ______ ____
ROOT
ATOM      1  C1  UNL     1      20.300  44.317  28.360  0.00  0.00    +0.079 C 
ATOM      2  O1  UNL     1      20.890  45.490  27.815  0.00  0.00    -0.495 OA
ATOM      3  C2  UNL     1      21.085  45.513  26.462  0.00  0.00    +0.120 A 
ATOM      4  C3  UNL     1      20.773  44.487  25.570  0.00  0.00    -0.019 A 
ATOM      5  C4  UNL     1      21.028  44.643  24.201  0.00  0.00    -0.049 A 
ATOM      6  C5  UNL     1      21.592  45.828  23.714  0.00  0.00    +0.000 A 
ATOM      7  C6  UNL     1      21.870  45.983  22.294  0.00  0.00    +0.067 A 
ATOM      8  C7  UNL     1      23.081  45.891  21.690  0.00  0.00    +0.036 A 
ATOM      9  N1  UNL     1      22.852  46.041  20.331  0.00  0.00    -0.295 N 
ATOM     10  C8  UNL     1      23.511  46.007  19.125  0.00  0.00    +0.118 A 
ATOM     11  C9  UNL     1      24.949  45.801  19.052  0.00  0.00    +0.266 C 
ATOM     12  O2  UNL     1      25.683  46.108  19.986  0.00  0.00    -0.268 OA
ATOM     13  N2  UNL     1      25.386  45.208  17.883  0.00  0.00    -0.280 N 
ATOM     14  C10 UNL     1      26.707  44.927  17.486  0.00  0.00    +0.034 A 
ATOM     15  C11 UNL     1      26.877  44.322  16.232  0.00  0.00    -0.039 A 
ATOM     16  C12 UNL     1      28.154  44.012  15.754  0.00  0.00    -0.042 A 
ATOM     17  C13 UNL     1      29.271  44.308  16.529  0.00  0.00    +0.041 A 
ATOM     18 CL1  UNL     1      30.844  43.929  15.946  0.00  0.00    -0.084 Cl
ATOM     19  C14 UNL     1      29.119  44.911  17.774  0.00  0.00    -0.042 A 
ATOM     20  C15 UNL     1      27.839  45.220  18.251  0.00  0.00    -0.039 A 
ATOM     21  C16 UNL     1      22.506  46.213  18.148  0.00  0.00    +0.018 A 
ATOM     22  C17 UNL     1      22.756  46.333  16.722  0.00  0.00    -0.015 A 
ATOM     23  C18 UNL     1      22.213  45.392  15.838  0.00  0.00    -0.053 A 
ATOM     24  C19 UNL     1      22.469  45.489  14.469  0.00  0.00    -0.043 A 
ATOM     25  C20 UNL     1      23.261  46.528  13.983  0.00  0.00    +0.041 A 
ATOM     26 CL2  UNL     1      23.581  46.640  12.297  0.00  0.00    -0.084 Cl
ATOM     27  C21 UNL     1      23.798  47.474  14.854  0.00  0.00    -0.043 A 
ATOM     28  C22 UNL     1      23.543  47.380  16.225  0.00  0.00    -0.053 A 
ATOM     29  C23 UNL     1      21.227  46.331  18.803  0.00  0.00    +0.004 A 
ATOM     30  C24 UNL     1      21.524  46.228  20.121  0.00  0.00    +0.123 A 
ATOM     31  N3  UNL     1      20.886  46.248  21.315  0.00  0.00    -0.325 N 
ATOM     32  C25 UNL     1      19.454  46.014  21.347  0.00  0.00    +0.025 C 
ATOM     33  C26 UNL     1      18.641  47.080  20.591  0.00  0.00    -0.035 C 
ATOM     34  C27 UNL     1      19.090  47.568  19.194  0.00  0.00    -0.047 C 
ATOM     35  C28 UNL     1      19.851  46.578  18.297  0.00  0.00    -0.024 C 
ATOM     36  C29 UNL     1      21.909  46.851  24.610  0.00  0.00    -0.049 A 
ATOM     37  C30 UNL     1      21.654  46.693  25.975  0.00  0.00    -0.019 A 
ATOM     38  H   UNL     1      24.682  44.948  17.245  0.00  0.00    +0.000 HD
ENDROOT
TORSDOF 0
ENDMDL
MODEL 8
REMARK VINA RESULT:    -4.715     16.267     19.578
REMARK INTER + INTRA:          -4.715
REMARK INTER:                  -4.715
REMARK INTRA:                   0.000
REMARK UNBOUND:                 0.000
REMARK  Name = /home/vital/Documents/PhD_2021/Malaria_codes/scripts/../data/pdbqt_ligands/ligand_216_temp.pdb
REMARK                            x       y       z     vdW  Elec       q    Type
REMARK                         _______ _______ _______ _____ _____    ______ ____
ROOT
ATOM      1  C1  UNL     1      19.746  46.997  18.060  0.00  0.00    +0.079 C 
ATOM      2  O1  UNL     1      20.740  47.590  17.235  0.00  0.00    -0.495 OA
ATOM      3  C2  UNL     1      21.961  46.975  17.197  0.00  0.00    +0.120 A 
ATOM      4  C3  UNL     1      22.325  45.829  17.905  0.00  0.00    -0.019 A 
ATOM      5  C4  UNL     1      23.616  45.302  17.775  0.00  0.00    -0.049 A 
ATOM      6  C5  UNL     1      24.551  45.914  16.933  0.00  0.00    +0.000 A 
ATOM      7  C6  UNL     1      25.897  45.375  16.809  0.00  0.00    +0.067 A 
ATOM      8  C7  UNL     1      27.023  45.865  17.384  0.00  0.00    +0.036 A 
ATOM      9  N1  UNL     1      28.047  44.994  17.044  0.00  0.00    -0.295 N 
ATOM     10  C8  UNL     1      29.383  44.772  17.276  0.00  0.00    +0.118 A 
ATOM     11  C9  UNL     1      30.172  45.679  18.094  0.00  0.00    +0.266 C 
ATOM     12  O2  UNL     1      29.858  46.859  18.218  0.00  0.00    -0.268 OA
ATOM     13  N2  UNL     1      31.250  45.091  18.729  0.00  0.00    -0.280 N 
ATOM     14  C10 UNL     1      32.228  45.701  19.538  0.00  0.00    +0.034 A 
ATOM     15  C11 UNL     1      33.230  44.868  20.057  0.00  0.00    -0.039 A 
ATOM     16  C12 UNL     1      34.245  45.389  20.866  0.00  0.00    -0.042 A 
ATOM     17  C13 UNL     1      34.265  46.749  21.158  0.00  0.00    +0.041 A 
ATOM     18 CL1  UNL     1      35.510  47.395  22.152  0.00  0.00    -0.084 Cl
ATOM     19  C14 UNL     1      33.278  47.589  20.647  0.00  0.00    -0.042 A 
ATOM     20  C15 UNL     1      32.263  47.064  19.838  0.00  0.00    -0.039 A 
ATOM     21  C16 UNL     1      29.689  43.582  16.570  0.00  0.00    +0.018 A 
ATOM     22  C17 UNL     1      31.018  43.005  16.465  0.00  0.00    -0.015 A 
ATOM     23  C18 UNL     1      31.269  41.733  16.996  0.00  0.00    -0.053 A 
ATOM     24  C19 UNL     1      32.549  41.182  16.919  0.00  0.00    -0.043 A 
ATOM     25  C20 UNL     1      33.577  41.899  16.307  0.00  0.00    +0.041 A 
ATOM     26 CL2  UNL     1      35.155  41.222  16.221  0.00  0.00    -0.084 Cl
ATOM     27  C21 UNL     1      33.335  43.161  15.768  0.00  0.00    -0.043 A 
ATOM     28  C22 UNL     1      32.053  43.714  15.844  0.00  0.00    -0.053 A 
ATOM     29  C23 UNL     1      28.490  43.082  15.945  0.00  0.00    +0.004 A 
ATOM     30  C24 UNL     1      27.545  43.998  16.271  0.00  0.00    +0.123 A 
ATOM     31  N3  UNL     1      26.227  44.222  16.060  0.00  0.00    -0.325 N 
ATOM     32  C25 UNL     1      25.389  43.118  15.633  0.00  0.00    +0.025 C 
ATOM     33  C26 UNL     1      25.784  42.541  14.262  0.00  0.00    -0.035 C 
ATOM     34  C27 UNL     1      27.268  42.272  13.920  0.00  0.00    -0.047 C 
ATOM     35  C28 UNL     1      28.218  41.908  15.074  0.00  0.00    -0.024 C 
ATOM     36  C29 UNL     1      24.186  47.064  16.229  0.00  0.00    -0.049 A 
ATOM     37  C30 UNL     1      22.897  47.588  16.361  0.00  0.00    -0.019 A 
ATOM     38  H   UNL     1      31.346  44.119  18.599  0.00  0.00    +0.000 HD
ENDROOT
TORSDOF 0
ENDMDL
MODEL 9
REMARK VINA RESULT:    -4.475     15.669     19.402
REMARK INTER + INTRA:          -4.475
REMARK INTER:                  -4.475
REMARK INTRA:                   0.000
REMARK UNBOUND:                 0.000
REMARK  Name = /home/vital/Documents/PhD_2021/Malaria_codes/scripts/../data/pdbqt_ligands/ligand_216_temp.pdb
REMARK                            x       y       z     vdW  Elec       q    Type
REMARK                         _______ _______ _______ _____ _____    ______ ____
ROOT
ATOM      1  C1  UNL     1      35.874  47.123  21.276  0.00  0.00    +0.079 C 
ATOM      2  O1  UNL     1      35.053  45.970  21.412  0.00  0.00    -0.495 OA
ATOM      3  C2  UNL     1      33.974  45.875  20.577  0.00  0.00    +0.120 A 
ATOM      4  C3  UNL     1      33.597  46.813  19.615  0.00  0.00    -0.019 A 
ATOM      5  C4  UNL     1      32.463  46.591  18.824  0.00  0.00    -0.049 A 
ATOM      6  C5  UNL     1      31.700  45.428  18.985  0.00  0.00    +0.000 A 
ATOM      7  C6  UNL     1      30.513  45.206  18.173  0.00  0.00    +0.067 A 
ATOM      8  C7  UNL     1      29.224  45.358  18.563  0.00  0.00    +0.036 A 
ATOM      9  N1  UNL     1      28.444  45.103  17.445  0.00  0.00    -0.295 N 
ATOM     10  C8  UNL     1      27.135  45.114  17.029  0.00  0.00    +0.118 A 
ATOM     11  C9  UNL     1      26.051  45.433  17.945  0.00  0.00    +0.266 C 
ATOM     12  O2  UNL     1      26.164  45.248  19.152  0.00  0.00    -0.268 OA
ATOM     13  N2  UNL     1      24.934  45.984  17.344  0.00  0.00    -0.280 N 
ATOM     14  C10 UNL     1      23.711  46.347  17.940  0.00  0.00    +0.034 A 
ATOM     15  C11 UNL     1      22.729  46.882  17.093  0.00  0.00    -0.039 A 
ATOM     16  C12 UNL     1      21.482  47.265  17.597  0.00  0.00    -0.042 A 
ATOM     17  C13 UNL     1      21.209  47.113  18.952  0.00  0.00    +0.041 A 
ATOM     18 CL1  UNL     1      19.677  47.583  19.577  0.00  0.00    -0.084 Cl
ATOM     19  C14 UNL     1      22.173  46.581  19.804  0.00  0.00    -0.042 A 
ATOM     20  C15 UNL     1      23.421  46.198  19.297  0.00  0.00    -0.039 A 
ATOM     21  C16 UNL     1      27.178  44.762  15.657  0.00  0.00    +0.018 A 
ATOM     22  C17 UNL     1      26.008  44.572  14.818  0.00  0.00    -0.015 A 
ATOM     23  C18 UNL     1      25.801  45.406  13.712  0.00  0.00    -0.053 A 
ATOM     24  C19 UNL     1      24.667  45.243  12.914  0.00  0.00    -0.043 A 
ATOM     25  C20 UNL     1      23.743  44.244  13.219  0.00  0.00    +0.041 A 
ATOM     26 CL2  UNL     1      22.342  44.050  12.240  0.00  0.00    -0.084 Cl
ATOM     27  C21 UNL     1      23.946  43.403  14.311  0.00  0.00    -0.043 A 
ATOM     28  C22 UNL     1      25.081  43.564  15.110  0.00  0.00    -0.053 A 
ATOM     29  C23 UNL     1      28.552  44.581  15.260  0.00  0.00    +0.004 A 
ATOM     30  C24 UNL     1      29.253  44.794  16.399  0.00  0.00    +0.123 A 
ATOM     31  N3  UNL     1      30.541  44.798  16.820  0.00  0.00    -0.325 N 
ATOM     32  C25 UNL     1      31.598  44.914  15.833  0.00  0.00    +0.025 C 
ATOM     33  C26 UNL     1      31.644  43.737  14.842  0.00  0.00    -0.035 C 
ATOM     34  C27 UNL     1      30.345  43.200  14.198  0.00  0.00    -0.047 C 
ATOM     35  C28 UNL     1      29.190  44.189  13.975  0.00  0.00    -0.024 C 
ATOM     36  C29 UNL     1      32.078  44.494  19.953  0.00  0.00    -0.049 A 
ATOM     37  C30 UNL     1      33.209  44.718  20.741  0.00  0.00    -0.019 A 
ATOM     38  H   UNL     1      25.003  46.143  16.375  0.00  0.00    +0.000 HD
ENDROOT
TORSDOF 0
ENDMDL
