MODEL 1
REMARK VINA RESULT:    -3.478      0.000      0.000
REMARK INTER + INTRA:          -3.478
REMARK INTER:                  -3.478
REMARK INTRA:                   0.000
REMARK UNBOUND:                 0.000
REMARK  Name = /home/vital/Documents/PhD_2021/Malaria_codes/scripts/../data/pdbqt_ligands/ligand_136_temp.pdb
REMARK                            x       y       z     vdW  Elec       q    Type
REMARK                         _______ _______ _______ _____ _____    ______ ____
ROOT
ATOM      1  F1  UNL     1      18.902  24.235  21.251  0.00  0.00    -0.143 F 
ATOM      2  C1  UNL     1      18.146  23.850  20.211  0.00  0.00    +0.110 C 
ATOM      3  C2  UNL     1      17.470  23.506  19.280  0.00  0.00    -0.039 C 
ATOM      4  C3  UNL     1      16.668  23.089  18.183  0.00  0.00    -0.009 C 
ATOM      5  C4  UNL     1      16.358  23.929  17.185  0.00  0.00    -0.054 C 
ATOM      6  C5  UNL     1      15.544  23.536  16.056  0.00  0.00    -0.062 C 
ATOM      7  C6  UNL     1      15.185  24.310  15.019  0.00  0.00    -0.047 C 
ATOM      8  C7  UNL     1      15.517  25.748  14.758  0.00  0.00    +0.109 C 
ATOM      9  O1  UNL     1      14.273  26.437  14.564  0.00  0.00    -0.478 OA
ATOM     10  C8  UNL     1      14.370  27.763  14.310  0.00  0.00    +0.176 C 
ATOM     11  N1  UNL     1      15.489  28.392  14.225  0.00  0.00    -0.220 NA
ATOM     12  C9  UNL     1      15.383  29.763  13.955  0.00  0.00    +0.067 A 
ATOM     13  C10 UNL     1      15.298  30.684  15.003  0.00  0.00    -0.036 A 
ATOM     14  C11 UNL     1      15.202  32.051  14.737  0.00  0.00    -0.060 A 
ATOM     15  C12 UNL     1      15.201  32.505  13.418  0.00  0.00    -0.062 A 
ATOM     16  C13 UNL     1      15.303  31.594  12.368  0.00  0.00    -0.060 A 
ATOM     17  C14 UNL     1      15.399  30.227  12.638  0.00  0.00    -0.036 A 
ENDROOT
TORSDOF 0
ENDMDL
MODEL 2
REMARK VINA RESULT:    -3.289      3.147      7.973
REMARK INTER + INTRA:          -3.289
REMARK INTER:                  -3.289
REMARK INTRA:                   0.000
REMARK UNBOUND:                 0.000
REMARK  Name = /home/vital/Documents/PhD_2021/Malaria_codes/scripts/../data/pdbqt_ligands/ligand_136_temp.pdb
REMARK                            x       y       z     vdW  Elec       q    Type
REMARK                         _______ _______ _______ _____ _____    ______ ____
ROOT
ATOM      1  F1  UNL     1      15.578  34.673  17.778  0.00  0.00    -0.143 F 
ATOM      2  C1  UNL     1      15.538  34.028  16.602  0.00  0.00    +0.110 C 
ATOM      3  C2  UNL     1      15.503  33.451  15.549  0.00  0.00    -0.039 C 
ATOM      4  C3  UNL     1      15.461  32.776  14.298  0.00  0.00    -0.009 C 
ATOM      5  C4  UNL     1      15.425  31.437  14.228  0.00  0.00    -0.054 C 
ATOM      6  C5  UNL     1      15.383  30.722  12.971  0.00  0.00    -0.062 C 
ATOM      7  C6  UNL     1      15.348  29.390  12.809  0.00  0.00    -0.047 C 
ATOM      8  C7  UNL     1      15.344  28.314  13.852  0.00  0.00    +0.109 C 
ATOM      9  O1  UNL     1      16.438  27.434  13.552  0.00  0.00    -0.478 OA
ATOM     10  C8  UNL     1      16.596  26.387  14.393  0.00  0.00    +0.176 C 
ATOM     11  N1  UNL     1      15.824  26.155  15.396  0.00  0.00    -0.220 NA
ATOM     12  C9  UNL     1      16.151  25.019  16.150  0.00  0.00    +0.067 A 
ATOM     13  C10 UNL     1      17.022  25.121  17.239  0.00  0.00    -0.036 A 
ATOM     14  C11 UNL     1      17.341  23.993  17.997  0.00  0.00    -0.060 A 
ATOM     15  C12 UNL     1      16.780  22.757  17.675  0.00  0.00    -0.062 A 
ATOM     16  C13 UNL     1      15.897  22.651  16.602  0.00  0.00    -0.060 A 
ATOM     17  C14 UNL     1      15.580  23.781  15.845  0.00  0.00    -0.036 A 
ENDROOT
TORSDOF 0
ENDMDL
MODEL 3
REMARK VINA RESULT:    -3.204     21.068     22.720
REMARK INTER + INTRA:          -3.204
REMARK INTER:                  -3.204
REMARK INTRA:                   0.000
REMARK UNBOUND:                 0.000
REMARK  Name = /home/vital/Documents/PhD_2021/Malaria_codes/scripts/../data/pdbqt_ligands/ligand_136_temp.pdb
REMARK                            x       y       z     vdW  Elec       q    Type
REMARK                         _______ _______ _______ _____ _____    ______ ____
ROOT
ATOM      1  F1  UNL     1      34.112  43.996  12.899  0.00  0.00    -0.143 F 
ATOM      2  C1  UNL     1      33.780  44.025  14.199  0.00  0.00    +0.110 C 
ATOM      3  C2  UNL     1      33.482  44.052  15.362  0.00  0.00    -0.039 C 
ATOM      4  C3  UNL     1      33.139  44.082  16.741  0.00  0.00    -0.009 C 
ATOM      5  C4  UNL     1      31.868  44.231  17.142  0.00  0.00    -0.054 C 
ATOM      6  C5  UNL     1      31.487  44.266  18.536  0.00  0.00    -0.062 C 
ATOM      7  C6  UNL     1      30.245  44.414  19.024  0.00  0.00    -0.047 C 
ATOM      8  C7  UNL     1      28.954  44.580  18.280  0.00  0.00    +0.109 C 
ATOM      9  O1  UNL     1      28.338  45.780  18.770  0.00  0.00    -0.478 OA
ATOM     10  C8  UNL     1      27.148  46.098  18.212  0.00  0.00    +0.176 C 
ATOM     11  N1  UNL     1      26.569  45.385  17.311  0.00  0.00    -0.220 NA
ATOM     12  C9  UNL     1      25.340  45.881  16.856  0.00  0.00    +0.067 A 
ATOM     13  C10 UNL     1      25.290  46.749  15.762  0.00  0.00    -0.036 A 
ATOM     14  C11 UNL     1      24.065  47.236  15.301  0.00  0.00    -0.060 A 
ATOM     15  C12 UNL     1      22.882  46.847  15.928  0.00  0.00    -0.062 A 
ATOM     16  C13 UNL     1      22.922  45.968  17.009  0.00  0.00    -0.060 A 
ATOM     17  C14 UNL     1      24.149  45.482  17.468  0.00  0.00    -0.036 A 
ENDROOT
TORSDOF 0
ENDMDL
MODEL 4
REMARK VINA RESULT:    -3.064      3.504      8.533
REMARK INTER + INTRA:          -3.064
REMARK INTER:                  -3.064
REMARK INTRA:                   0.000
REMARK UNBOUND:                 0.000
REMARK  Name = /home/vital/Documents/PhD_2021/Malaria_codes/scripts/../data/pdbqt_ligands/ligand_136_temp.pdb
REMARK                            x       y       z     vdW  Elec       q    Type
REMARK                         _______ _______ _______ _____ _____    ______ ____
ROOT
ATOM      1  F1  UNL     1      14.982  31.228  14.792  0.00  0.00    -0.143 F 
ATOM      2  C1  UNL     1      14.892  29.912  14.544  0.00  0.00    +0.110 C 
ATOM      3  C2  UNL     1      14.812  28.735  14.323  0.00  0.00    -0.039 C 
ATOM      4  C3  UNL     1      14.715  27.342  14.052  0.00  0.00    -0.009 C 
ATOM      5  C4  UNL     1      15.039  26.426  14.975  0.00  0.00    -0.054 C 
ATOM      6  C5  UNL     1      14.951  25.004  14.730  0.00  0.00    -0.062 C 
ATOM      7  C6  UNL     1      15.257  24.022  15.593  0.00  0.00    -0.047 C 
ATOM      8  C7  UNL     1      15.758  24.127  17.001  0.00  0.00    +0.109 C 
ATOM      9  O1  UNL     1      16.973  23.365  17.073  0.00  0.00    -0.478 OA
ATOM     10  C8  UNL     1      17.579  23.340  18.282  0.00  0.00    +0.176 C 
ATOM     11  N1  UNL     1      17.115  23.935  19.325  0.00  0.00    -0.220 NA
ATOM     12  C9  UNL     1      17.887  23.791  20.486  0.00  0.00    +0.067 A 
ATOM     13  C10 UNL     1      18.892  24.716  20.784  0.00  0.00    -0.036 A 
ATOM     14  C11 UNL     1      19.655  24.580  21.945  0.00  0.00    -0.060 A 
ATOM     15  C12 UNL     1      19.409  23.523  22.820  0.00  0.00    -0.062 A 
ATOM     16  C13 UNL     1      18.397  22.606  22.538  0.00  0.00    -0.060 A 
ATOM     17  C14 UNL     1      17.635  22.745  21.376  0.00  0.00    -0.036 A 
ENDROOT
TORSDOF 0
ENDMDL
MODEL 5
REMARK VINA RESULT:    -2.831      4.432      6.440
REMARK INTER + INTRA:          -2.831
REMARK INTER:                  -2.831
REMARK INTRA:                   0.000
REMARK UNBOUND:                 0.000
REMARK  Name = /home/vital/Documents/PhD_2021/Malaria_codes/scripts/../data/pdbqt_ligands/ligand_136_temp.pdb
REMARK                            x       y       z     vdW  Elec       q    Type
REMARK                         _______ _______ _______ _____ _____    ______ ____
ROOT
ATOM      1  F1  UNL     1      15.163  28.288  26.168  0.00  0.00    -0.143 F 
ATOM      2  C1  UNL     1      16.028  27.414  25.630  0.00  0.00    +0.110 C 
ATOM      3  C2  UNL     1      16.802  26.631  25.149  0.00  0.00    -0.039 C 
ATOM      4  C3  UNL     1      17.722  25.703  24.589  0.00  0.00    -0.009 C 
ATOM      5  C4  UNL     1      17.787  25.497  23.265  0.00  0.00    -0.054 C 
ATOM      6  C5  UNL     1      18.711  24.560  22.666  0.00  0.00    -0.062 C 
ATOM      7  C6  UNL     1      18.841  24.290  21.356  0.00  0.00    -0.047 C 
ATOM      8  C7  UNL     1      18.088  24.867  20.196  0.00  0.00    +0.109 C 
ATOM      9  O1  UNL     1      17.532  23.764  19.465  0.00  0.00    -0.478 OA
ATOM     10  C8  UNL     1      16.811  24.091  18.369  0.00  0.00    +0.176 C 
ATOM     11  N1  UNL     1      16.629  25.300  17.969  0.00  0.00    -0.220 NA
ATOM     12  C9  UNL     1      15.851  25.434  16.811  0.00  0.00    +0.067 A 
ATOM     13  C10 UNL     1      14.465  25.584  16.904  0.00  0.00    -0.036 A 
ATOM     14  C11 UNL     1      13.690  25.728  15.752  0.00  0.00    -0.060 A 
ATOM     15  C12 UNL     1      14.302  25.734  14.498  0.00  0.00    -0.062 A 
ATOM     16  C13 UNL     1      15.686  25.603  14.398  0.00  0.00    -0.060 A 
ATOM     17  C14 UNL     1      16.458  25.459  15.553  0.00  0.00    -0.036 A 
ENDROOT
TORSDOF 0
ENDMDL
MODEL 6
REMARK VINA RESULT:    -2.802     21.365     23.199
REMARK INTER + INTRA:          -2.802
REMARK INTER:                  -2.802
REMARK INTRA:                   0.000
REMARK UNBOUND:                 0.000
REMARK  Name = /home/vital/Documents/PhD_2021/Malaria_codes/scripts/../data/pdbqt_ligands/ligand_136_temp.pdb
REMARK                            x       y       z     vdW  Elec       q    Type
REMARK                         _______ _______ _______ _____ _____    ______ ____
ROOT
ATOM      1  F1  UNL     1      21.901  46.895  15.048  0.00  0.00    -0.143 F 
ATOM      2  C1  UNL     1      22.646  46.666  16.140  0.00  0.00    +0.110 C 
ATOM      3  C2  UNL     1      23.313  46.461  17.118  0.00  0.00    -0.039 C 
ATOM      4  C3  UNL     1      24.095  46.219  18.281  0.00  0.00    -0.009 C 
ATOM      5  C4  UNL     1      25.425  46.063  18.209  0.00  0.00    -0.054 C 
ATOM      6  C5  UNL     1      26.246  45.815  19.373  0.00  0.00    -0.062 C 
ATOM      7  C6  UNL     1      27.578  45.646  19.391  0.00  0.00    -0.047 C 
ATOM      8  C7  UNL     1      28.546  45.665  18.247  0.00  0.00    +0.109 C 
ATOM      9  O1  UNL     1      29.276  44.429  18.293  0.00  0.00    -0.478 OA
ATOM     10  C8  UNL     1      30.209  44.262  17.329  0.00  0.00    +0.176 C 
ATOM     11  N1  UNL     1      30.464  45.141  16.424  0.00  0.00    -0.220 NA
ATOM     12  C9  UNL     1      31.466  44.783  15.512  0.00  0.00    +0.067 A 
ATOM     13  C10 UNL     1      31.140  44.112  14.331  0.00  0.00    -0.036 A 
ATOM     14  C11 UNL     1      32.136  43.764  13.416  0.00  0.00    -0.060 A 
ATOM     15  C12 UNL     1      33.465  44.097  13.675  0.00  0.00    -0.062 A 
ATOM     16  C13 UNL     1      33.797  44.783  14.843  0.00  0.00    -0.060 A 
ATOM     17  C14 UNL     1      32.798  45.129  15.756  0.00  0.00    -0.036 A 
ENDROOT
TORSDOF 0
ENDMDL
MODEL 7
REMARK VINA RESULT:    -2.769     20.517     22.961
REMARK INTER + INTRA:          -2.769
REMARK INTER:                  -2.769
REMARK INTRA:                   0.000
REMARK UNBOUND:                 0.000
REMARK  Name = /home/vital/Documents/PhD_2021/Malaria_codes/scripts/../data/pdbqt_ligands/ligand_136_temp.pdb
REMARK                            x       y       z     vdW  Elec       q    Type
REMARK                         _______ _______ _______ _____ _____    ______ ____
ROOT
ATOM      1  F1  UNL     1      19.814  45.006  35.039  0.00  0.00    -0.143 F 
ATOM      2  C1  UNL     1      18.599  45.218  34.511  0.00  0.00    +0.110 C 
ATOM      3  C2  UNL     1      17.511  45.408  34.039  0.00  0.00    -0.039 C 
ATOM      4  C3  UNL     1      16.219  45.635  33.490  0.00  0.00    -0.009 C 
ATOM      5  C4  UNL     1      15.997  45.547  32.170  0.00  0.00    -0.054 C 
ATOM      6  C5  UNL     1      14.695  45.773  31.581  0.00  0.00    -0.062 C 
ATOM      7  C6  UNL     1      14.385  45.708  30.276  0.00  0.00    -0.047 C 
ATOM      8  C7  UNL     1      15.274  45.396  29.111  0.00  0.00    +0.109 C 
ATOM      9  O1  UNL     1      15.146  46.482  28.182  0.00  0.00    -0.478 OA
ATOM     10  C8  UNL     1      15.881  46.377  27.051  0.00  0.00    +0.176 C 
ATOM     11  N1  UNL     1      16.643  45.375  26.786  0.00  0.00    -0.220 NA
ATOM     12  C9  UNL     1      17.324  45.450  25.564  0.00  0.00    +0.067 A 
ATOM     13  C10 UNL     1      18.591  46.036  25.496  0.00  0.00    -0.036 A 
ATOM     14  C11 UNL     1      19.275  46.103  24.281  0.00  0.00    -0.060 A 
ATOM     15  C12 UNL     1      18.698  45.573  23.128  0.00  0.00    -0.062 A 
ATOM     16  C13 UNL     1      17.443  44.971  23.190  0.00  0.00    -0.060 A 
ATOM     17  C14 UNL     1      16.760  44.906  24.407  0.00  0.00    -0.036 A 
ENDROOT
TORSDOF 0
ENDMDL
MODEL 8
REMARK VINA RESULT:    -2.712     20.759     22.603
REMARK INTER + INTRA:          -2.712
REMARK INTER:                  -2.712
REMARK INTRA:                   0.000
REMARK UNBOUND:                 0.000
REMARK  Name = /home/vital/Documents/PhD_2021/Malaria_codes/scripts/../data/pdbqt_ligands/ligand_136_temp.pdb
REMARK                            x       y       z     vdW  Elec       q    Type
REMARK                         _______ _______ _______ _____ _____    ______ ____
ROOT
ATOM      1  F1  UNL     1      22.277  47.291  17.915  0.00  0.00    -0.143 F 
ATOM      2  C1  UNL     1      22.540  46.817  16.687  0.00  0.00    +0.110 C 
ATOM      3  C2  UNL     1      22.776  46.393  15.588  0.00  0.00    -0.039 C 
ATOM      4  C3  UNL     1      23.046  45.893  14.285  0.00  0.00    -0.009 C 
ATOM      5  C4  UNL     1      24.258  45.425  13.954  0.00  0.00    -0.054 C 
ATOM      6  C5  UNL     1      24.564  44.911  12.637  0.00  0.00    -0.062 C 
ATOM      7  C6  UNL     1      25.746  44.427  12.221  0.00  0.00    -0.047 C 
ATOM      8  C7  UNL     1      27.030  44.293  12.982  0.00  0.00    +0.109 C 
ATOM      9  O1  UNL     1      28.041  44.973  12.223  0.00  0.00    -0.478 OA
ATOM     10  C8  UNL     1      29.284  44.958  12.756  0.00  0.00    +0.176 C 
ATOM     11  N1  UNL     1      29.579  44.369  13.861  0.00  0.00    -0.220 NA
ATOM     12  C9  UNL     1      30.922  44.466  14.248  0.00  0.00    +0.067 A 
ATOM     13  C10 UNL     1      31.350  45.523  15.056  0.00  0.00    -0.036 A 
ATOM     14  C11 UNL     1      32.685  45.616  15.451  0.00  0.00    -0.060 A 
ATOM     15  C12 UNL     1      33.600  44.643  15.048  0.00  0.00    -0.062 A 
ATOM     16  C13 UNL     1      33.178  43.576  14.256  0.00  0.00    -0.060 A 
ATOM     17  C14 UNL     1      31.841  43.486  13.863  0.00  0.00    -0.036 A 
ENDROOT
TORSDOF 0
ENDMDL
MODEL 9
REMARK VINA RESULT:    -2.655      6.288      8.592
REMARK INTER + INTRA:          -2.655
REMARK INTER:                  -2.655
REMARK INTRA:                   0.000
REMARK UNBOUND:                 0.000
REMARK  Name = /home/vital/Documents/PhD_2021/Malaria_codes/scripts/../data/pdbqt_ligands/ligand_136_temp.pdb
REMARK                            x       y       z     vdW  Elec       q    Type
REMARK                         _______ _______ _______ _____ _____    ______ ____
ROOT
ATOM      1  F1  UNL     1      14.627  32.587  13.456  0.00  0.00    -0.143 F 
ATOM      2  C1  UNL     1      14.596  31.306  13.855  0.00  0.00    +0.110 C 
ATOM      3  C2  UNL     1      14.569  30.160  14.213  0.00  0.00    -0.039 C 
ATOM      4  C3  UNL     1      14.537  28.800  14.626  0.00  0.00    -0.009 C 
ATOM      5  C4  UNL     1      14.377  28.465  15.915  0.00  0.00    -0.054 C 
ATOM      6  C5  UNL     1      14.342  27.092  16.367  0.00  0.00    -0.062 C 
ATOM      7  C6  UNL     1      14.189  26.669  17.632  0.00  0.00    -0.047 C 
ATOM      8  C7  UNL     1      14.020  27.479  18.882  0.00  0.00    +0.109 C 
ATOM      9  O1  UNL     1      15.041  27.055  19.798  0.00  0.00    -0.478 OA
ATOM     10  C8  UNL     1      15.047  27.679  20.999  0.00  0.00    +0.176 C 
ATOM     11  N1  UNL     1      14.198  28.585  21.336  0.00  0.00    -0.220 NA
ATOM     12  C9  UNL     1      14.370  29.113  22.623  0.00  0.00    +0.067 A 
ATOM     13  C10 UNL     1      15.180  30.234  22.824  0.00  0.00    -0.036 A 
ATOM     14  C11 UNL     1      15.343  30.767  24.104  0.00  0.00    -0.060 A 
ATOM     15  C12 UNL     1      14.687  30.186  25.189  0.00  0.00    -0.062 A 
ATOM     16  C13 UNL     1      13.864  29.078  24.994  0.00  0.00    -0.060 A 
ATOM     17  C14 UNL     1      13.702  28.547  23.712  0.00  0.00    -0.036 A 
ENDROOT
TORSDOF 0
ENDMDL
