MODEL 1
REMARK VINA RESULT:    -4.161      0.000      0.000
REMARK INTER + INTRA:          -4.161
REMARK INTER:                  -4.161
REMARK INTRA:                   0.000
REMARK UNBOUND:                 0.000
REMARK  Name = /home/vital/Documents/PhD_2021/Malaria_codes/scripts/../data/pdbqt_ligands/ligand_290_temp.pdb
REMARK                            x       y       z     vdW  Elec       q    Type
REMARK                         _______ _______ _______ _____ _____    ______ ____
ROOT
ATOM      1  C1  UNL     1      17.636  22.885  19.740  0.00  0.00    -0.037 C 
ATOM      2  C2  UNL     1      17.575  24.171  18.928  0.00  0.00    +0.072 C 
ATOM      3  C3  UNL     1      16.221  24.319  18.215  0.00  0.00    +0.041 C 
ATOM      4  N1  UNL     1      16.167  25.561  17.445  0.00  0.00    -0.292 N 
ATOM      5  C4  UNL     1      15.253  25.663  16.397  0.00  0.00    +0.255 C 
ATOM      6  O1  UNL     1      14.457  24.755  16.163  0.00  0.00    -0.269 OA
ATOM      7  C5  UNL     1      15.279  26.874  15.605  0.00  0.00    +0.093 A 
ATOM      8  S1  UNL     1      13.938  27.923  15.672  0.00  0.00    -0.082 S 
ATOM      9  C6  UNL     1      14.649  29.030  14.563  0.00  0.00    +0.024 A 
ATOM     10  C7  UNL     1      14.091  30.242  14.113  0.00  0.00    -0.012 A 
ATOM     11  C8  UNL     1      14.814  31.006  13.202  0.00  0.00    +0.124 A 
ATOM     12  F1  UNL     1      14.298  32.162  12.765  0.00  0.00    -0.205 F 
ATOM     13  C9  UNL     1      16.051  30.599  12.738  0.00  0.00    -0.026 A 
ATOM     14  C10 UNL     1      16.600  29.394  13.186  0.00  0.00    -0.049 A 
ATOM     15  C11 UNL     1      15.899  28.584  14.121  0.00  0.00    +0.008 A 
ATOM     16  C12 UNL     1      16.240  27.321  14.728  0.00  0.00    +0.068 A 
ATOM     17 CL1  UNL     1      17.698  26.489  14.359  0.00  0.00    -0.082 Cl
ATOM     18  C13 UNL     1      17.003  26.655  17.956  0.00  0.00    +0.041 C 
ATOM     19  C14 UNL     1      17.235  26.504  19.470  0.00  0.00    +0.072 C 
ATOM     20  C15 UNL     1      18.104  27.632  20.010  0.00  0.00    -0.037 C 
ATOM     21  O2  UNL     1      17.868  25.262  19.819  0.00  0.00    -0.371 OA
ENDROOT
TORSDOF 0
ENDMDL
MODEL 2
REMARK VINA RESULT:    -4.096      2.453      3.213
REMARK INTER + INTRA:          -4.096
REMARK INTER:                  -4.096
REMARK INTRA:                   0.000
REMARK UNBOUND:                 0.000
REMARK  Name = /home/vital/Documents/PhD_2021/Malaria_codes/scripts/../data/pdbqt_ligands/ligand_290_temp.pdb
REMARK                            x       y       z     vdW  Elec       q    Type
REMARK                         _______ _______ _______ _____ _____    ______ ____
ROOT
ATOM      1  C1  UNL     1      18.489  22.776  21.841  0.00  0.00    -0.037 C 
ATOM      2  C2  UNL     1      18.017  23.482  20.578  0.00  0.00    +0.072 C 
ATOM      3  C3  UNL     1      17.620  24.939  20.867  0.00  0.00    +0.041 C 
ATOM      4  N1  UNL     1      17.178  25.613  19.646  0.00  0.00    -0.292 N 
ATOM      5  C4  UNL     1      16.368  26.743  19.759  0.00  0.00    +0.255 C 
ATOM      6  O1  UNL     1      16.084  27.209  20.861  0.00  0.00    -0.269 OA
ATOM      7  C5  UNL     1      15.882  27.339  18.532  0.00  0.00    +0.093 A 
ATOM      8  S1  UNL     1      16.434  28.894  18.106  0.00  0.00    -0.082 S 
ATOM      9  C6  UNL     1      15.495  28.918  16.664  0.00  0.00    +0.024 A 
ATOM     10  C7  UNL     1      15.444  29.954  15.712  0.00  0.00    -0.012 A 
ATOM     11  C8  UNL     1      14.614  29.798  14.607  0.00  0.00    +0.124 A 
ATOM     12  F1  UNL     1      14.556  30.774  13.692  0.00  0.00    -0.205 F 
ATOM     13  C9  UNL     1      13.848  28.660  14.433  0.00  0.00    -0.026 A 
ATOM     14  C10 UNL     1      13.901  27.635  15.381  0.00  0.00    -0.049 A 
ATOM     15  C11 UNL     1      14.738  27.749  16.524  0.00  0.00    +0.008 A 
ATOM     16  C12 UNL     1      14.968  26.850  17.628  0.00  0.00    +0.068 A 
ATOM     17 CL1  UNL     1      14.155  25.342  17.769  0.00  0.00    -0.082 Cl
ATOM     18  C13 UNL     1      17.760  25.103  18.399  0.00  0.00    +0.041 C 
ATOM     19  C14 UNL     1      19.130  24.452  18.662  0.00  0.00    +0.072 C 
ATOM     20  C15 UNL     1      19.743  23.917  17.375  0.00  0.00    -0.037 C 
ATOM     21  O2  UNL     1      19.064  23.364  19.598  0.00  0.00    -0.371 OA
ENDROOT
TORSDOF 0
ENDMDL
MODEL 3
REMARK VINA RESULT:    -3.931      4.682      6.345
REMARK INTER + INTRA:          -3.931
REMARK INTER:                  -3.931
REMARK INTRA:                   0.000
REMARK UNBOUND:                 0.000
REMARK  Name = /home/vital/Documents/PhD_2021/Malaria_codes/scripts/../data/pdbqt_ligands/ligand_290_temp.pdb
REMARK                            x       y       z     vdW  Elec       q    Type
REMARK                         _______ _______ _______ _____ _____    ______ ____
ROOT
ATOM      1  C1  UNL     1      17.055  35.154  17.625  0.00  0.00    -0.037 C 
ATOM      2  C2  UNL     1      16.415  33.790  17.413  0.00  0.00    +0.072 C 
ATOM      3  C3  UNL     1      17.383  32.821  16.714  0.00  0.00    +0.041 C 
ATOM      4  N1  UNL     1      16.764  31.509  16.524  0.00  0.00    -0.292 N 
ATOM      5  C4  UNL     1      17.272  30.663  15.539  0.00  0.00    +0.255 C 
ATOM      6  O1  UNL     1      18.265  30.979  14.886  0.00  0.00    -0.269 OA
ATOM      7  C5  UNL     1      16.589  29.406  15.322  0.00  0.00    +0.093 A 
ATOM      8  S1  UNL     1      17.401  27.958  15.704  0.00  0.00    -0.082 S 
ATOM      9  C6  UNL     1      16.066  26.987  15.213  0.00  0.00    +0.024 A 
ATOM     10  C7  UNL     1      15.988  25.583  15.258  0.00  0.00    -0.012 A 
ATOM     11  C8  UNL     1      14.824  24.969  14.807  0.00  0.00    +0.124 A 
ATOM     12  F1  UNL     1      14.734  23.633  14.845  0.00  0.00    -0.205 F 
ATOM     13  C9  UNL     1      13.760  25.705  14.321  0.00  0.00    -0.026 A 
ATOM     14  C10 UNL     1      13.843  27.100  14.277  0.00  0.00    -0.049 A 
ATOM     15  C11 UNL     1      15.011  27.770  14.732  0.00  0.00    +0.008 A 
ATOM     16  C12 UNL     1      15.341  29.173  14.790  0.00  0.00    +0.068 A 
ATOM     17 CL1  UNL     1      14.266  30.393  14.233  0.00  0.00    -0.082 Cl
ATOM     18  C13 UNL     1      15.734  31.149  17.508  0.00  0.00    +0.041 C 
ATOM     19  C14 UNL     1      15.970  31.887  18.838  0.00  0.00    +0.072 C 
ATOM     20  C15 UNL     1      14.907  31.524  19.865  0.00  0.00    -0.037 C 
ATOM     21  O2  UNL     1      15.967  33.316  18.695  0.00  0.00    -0.371 OA
ENDROOT
TORSDOF 0
ENDMDL
MODEL 4
REMARK VINA RESULT:    -3.776      4.402      6.593
REMARK INTER + INTRA:          -3.776
REMARK INTER:                  -3.776
REMARK INTRA:                   0.000
REMARK UNBOUND:                 0.000
REMARK  Name = /home/vital/Documents/PhD_2021/Malaria_codes/scripts/../data/pdbqt_ligands/ligand_290_temp.pdb
REMARK                            x       y       z     vdW  Elec       q    Type
REMARK                         _______ _______ _______ _____ _____    ______ ____
ROOT
ATOM      1  C1  UNL     1      17.383  35.084  16.080  0.00  0.00    -0.037 C 
ATOM      2  C2  UNL     1      17.275  33.567  16.128  0.00  0.00    +0.072 C 
ATOM      3  C3  UNL     1      16.277  33.044  15.082  0.00  0.00    +0.041 C 
ATOM      4  N1  UNL     1      16.188  31.584  15.127  0.00  0.00    -0.292 N 
ATOM      5  C4  UNL     1      15.050  30.965  14.610  0.00  0.00    +0.255 C 
ATOM      6  O1  UNL     1      14.167  31.622  14.063  0.00  0.00    -0.269 OA
ATOM      7  C5  UNL     1      14.956  29.526  14.742  0.00  0.00    +0.093 A 
ATOM      8  S1  UNL     1      15.008  28.572  13.332  0.00  0.00    -0.082 S 
ATOM      9  C6  UNL     1      14.851  27.108  14.222  0.00  0.00    +0.024 A 
ATOM     10  C7  UNL     1      14.830  25.802  13.696  0.00  0.00    -0.012 A 
ATOM     11  C8  UNL     1      14.685  24.734  14.575  0.00  0.00    +0.124 A 
ATOM     12  F1  UNL     1      14.664  23.487  14.089  0.00  0.00    -0.205 F 
ATOM     13  C9  UNL     1      14.560  24.932  15.938  0.00  0.00    -0.026 A 
ATOM     14  C10 UNL     1      14.579  26.230  16.456  0.00  0.00    -0.049 A 
ATOM     15  C11 UNL     1      14.731  27.351  15.595  0.00  0.00    +0.008 A 
ATOM     16  C12 UNL     1      14.780  28.765  15.874  0.00  0.00    +0.068 A 
ATOM     17 CL1  UNL     1      14.620  29.393  17.467  0.00  0.00    -0.082 Cl
ATOM     18  C13 UNL     1      17.395  30.893  15.597  0.00  0.00    +0.041 C 
ATOM     19  C14 UNL     1      18.650  31.744  15.328  0.00  0.00    +0.072 C 
ATOM     20  C15 UNL     1      19.909  31.038  15.813  0.00  0.00    -0.037 C 
ATOM     21  O2  UNL     1      18.601  33.032  15.963  0.00  0.00    -0.371 OA
ENDROOT
TORSDOF 0
ENDMDL
MODEL 5
REMARK VINA RESULT:    -3.663      1.675      1.764
REMARK INTER + INTRA:          -3.663
REMARK INTER:                  -3.663
REMARK INTRA:                   0.000
REMARK UNBOUND:                 0.000
REMARK  Name = /home/vital/Documents/PhD_2021/Malaria_codes/scripts/../data/pdbqt_ligands/ligand_290_temp.pdb
REMARK                            x       y       z     vdW  Elec       q    Type
REMARK                         _______ _______ _______ _____ _____    ______ ____
ROOT
ATOM      1  C1  UNL     1      17.703  22.855  20.101  0.00  0.00    -0.037 C 
ATOM      2  C2  UNL     1      17.708  23.807  18.914  0.00  0.00    +0.072 C 
ATOM      3  C3  UNL     1      16.673  24.929  19.093  0.00  0.00    +0.041 C 
ATOM      4  N1  UNL     1      16.690  25.846  17.953  0.00  0.00    -0.292 N 
ATOM      5  C4  UNL     1      15.564  26.629  17.703  0.00  0.00    +0.255 C 
ATOM      6  O1  UNL     1      14.597  26.605  18.462  0.00  0.00    -0.269 OA
ATOM      7  C5  UNL     1      15.583  27.466  16.522  0.00  0.00    +0.093 A 
ATOM      8  S1  UNL     1      15.595  29.158  16.721  0.00  0.00    -0.082 S 
ATOM      9  C6  UNL     1      15.610  29.436  15.023  0.00  0.00    +0.024 A 
ATOM     10  C7  UNL     1      15.642  30.687  14.377  0.00  0.00    -0.012 A 
ATOM     11  C8  UNL     1      15.641  30.715  12.986  0.00  0.00    +0.124 A 
ATOM     12  F1  UNL     1      15.672  31.897  12.357  0.00  0.00    -0.205 F 
ATOM     13  C9  UNL     1      15.606  29.552  12.240  0.00  0.00    -0.026 A 
ATOM     14  C10 UNL     1      15.573  28.312  12.885  0.00  0.00    -0.049 A 
ATOM     15  C11 UNL     1      15.578  28.235  14.305  0.00  0.00    +0.008 A 
ATOM     16  C12 UNL     1      15.548  27.102  15.196  0.00  0.00    +0.068 A 
ATOM     17 CL1  UNL     1      15.466  25.484  14.621  0.00  0.00    -0.082 Cl
ATOM     18  C13 UNL     1      17.976  25.954  17.253  0.00  0.00    +0.041 C 
ATOM     19  C14 UNL     1      19.143  25.618  18.199  0.00  0.00    +0.072 C 
ATOM     20  C15 UNL     1      20.482  25.725  17.482  0.00  0.00    -0.037 C 
ATOM     21  O2  UNL     1      19.051  24.296  18.754  0.00  0.00    -0.371 OA
ENDROOT
TORSDOF 0
ENDMDL
MODEL 6
REMARK VINA RESULT:    -3.578      4.254      6.801
REMARK INTER + INTRA:          -3.578
REMARK INTER:                  -3.578
REMARK INTRA:                   0.000
REMARK UNBOUND:                 0.000
REMARK  Name = /home/vital/Documents/PhD_2021/Malaria_codes/scripts/../data/pdbqt_ligands/ligand_290_temp.pdb
REMARK                            x       y       z     vdW  Elec       q    Type
REMARK                         _______ _______ _______ _____ _____    ______ ____
ROOT
ATOM      1  C1  UNL     1      16.736  34.082  13.492  0.00  0.00    -0.037 C 
ATOM      2  C2  UNL     1      16.501  32.826  14.320  0.00  0.00    +0.072 C 
ATOM      3  C3  UNL     1      16.904  31.562  13.543  0.00  0.00    +0.041 C 
ATOM      4  N1  UNL     1      16.685  30.360  14.349  0.00  0.00    -0.292 N 
ATOM      5  C4  UNL     1      16.549  29.133  13.701  0.00  0.00    +0.255 C 
ATOM      6  O1  UNL     1      16.678  29.045  12.481  0.00  0.00    -0.269 OA
ATOM      7  C5  UNL     1      16.254  27.976  14.520  0.00  0.00    +0.093 A 
ATOM      8  S1  UNL     1      17.428  26.749  14.652  0.00  0.00    -0.082 S 
ATOM      9  C6  UNL     1      16.434  25.801  15.690  0.00  0.00    +0.024 A 
ATOM     10  C7  UNL     1      16.765  24.561  16.267  0.00  0.00    -0.012 A 
ATOM     11  C8  UNL     1      15.824  23.934  17.078  0.00  0.00    +0.124 A 
ATOM     12  F1  UNL     1      16.125  22.754  17.634  0.00  0.00    -0.205 F 
ATOM     13  C9  UNL     1      14.587  24.502  17.320  0.00  0.00    -0.026 A 
ATOM     14  C10 UNL     1      14.262  25.733  16.744  0.00  0.00    -0.049 A 
ATOM     15  C11 UNL     1      15.195  26.412  15.913  0.00  0.00    +0.008 A 
ATOM     16  C12 UNL     1      15.105  27.668  15.212  0.00  0.00    +0.068 A 
ATOM     17 CL1  UNL     1      13.690  28.644  15.252  0.00  0.00    -0.082 Cl
ATOM     18  C13 UNL     1      16.773  30.552  15.802  0.00  0.00    +0.041 C 
ATOM     19  C14 UNL     1      17.677  31.751  16.140  0.00  0.00    +0.072 C 
ATOM     20  C15 UNL     1      17.774  31.962  17.645  0.00  0.00    -0.037 C 
ATOM     21  O2  UNL     1      17.217  32.982  15.558  0.00  0.00    -0.371 OA
ENDROOT
TORSDOF 0
ENDMDL
MODEL 7
REMARK VINA RESULT:    -3.491      5.284      7.752
REMARK INTER + INTRA:          -3.491
REMARK INTER:                  -3.491
REMARK INTRA:                   0.000
REMARK UNBOUND:                 0.000
REMARK  Name = /home/vital/Documents/PhD_2021/Malaria_codes/scripts/../data/pdbqt_ligands/ligand_290_temp.pdb
REMARK                            x       y       z     vdW  Elec       q    Type
REMARK                         _______ _______ _______ _____ _____    ______ ____
ROOT
ATOM      1  C1  UNL     1      17.439  37.111  14.358  0.00  0.00    -0.037 C 
ATOM      2  C2  UNL     1      16.698  35.831  14.713  0.00  0.00    +0.072 C 
ATOM      3  C3  UNL     1      17.650  34.624  14.747  0.00  0.00    +0.041 C 
ATOM      4  N1  UNL     1      16.932  33.399  15.098  0.00  0.00    -0.292 N 
ATOM      5  C4  UNL     1      17.487  32.170  14.745  0.00  0.00    +0.255 C 
ATOM      6  O1  UNL     1      18.592  32.107  14.209  0.00  0.00    -0.269 OA
ATOM      7  C5  UNL     1      16.714  30.981  15.036  0.00  0.00    +0.093 A 
ATOM      8  S1  UNL     1      17.305  29.887  16.201  0.00  0.00    -0.082 S 
ATOM      9  C6  UNL     1      15.963  28.829  16.003  0.00  0.00    +0.024 A 
ATOM     10  C7  UNL     1      15.732  27.626  16.698  0.00  0.00    -0.012 A 
ATOM     11  C8  UNL     1      14.588  26.895  16.395  0.00  0.00    +0.124 A 
ATOM     12  F1  UNL     1      14.354  25.749  17.048  0.00  0.00    -0.205 F 
ATOM     13  C9  UNL     1      13.690  27.322  15.435  0.00  0.00    -0.026 A 
ATOM     14  C10 UNL     1      13.924  28.516  14.746  0.00  0.00    -0.049 A 
ATOM     15  C11 UNL     1      15.077  29.299  15.026  0.00  0.00    +0.008 A 
ATOM     16  C12 UNL     1      15.540  30.544  14.467  0.00  0.00    +0.068 A 
ATOM     17 CL1  UNL     1      14.692  31.359  13.213  0.00  0.00    -0.082 Cl
ATOM     18  C13 UNL     1      15.738  33.587  15.932  0.00  0.00    +0.041 C 
ATOM     19  C14 UNL     1      15.853  34.875  16.768  0.00  0.00    +0.072 C 
ATOM     20  C15 UNL     1      14.618  35.081  17.635  0.00  0.00    -0.037 C 
ATOM     21  O2  UNL     1      16.020  36.053  15.962  0.00  0.00    -0.371 OA
ENDROOT
TORSDOF 0
ENDMDL
MODEL 8
REMARK VINA RESULT:    -3.334      3.273      4.659
REMARK INTER + INTRA:          -3.334
REMARK INTER:                  -3.334
REMARK INTRA:                   0.000
REMARK UNBOUND:                 0.000
REMARK  Name = /home/vital/Documents/PhD_2021/Malaria_codes/scripts/../data/pdbqt_ligands/ligand_290_temp.pdb
REMARK                            x       y       z     vdW  Elec       q    Type
REMARK                         _______ _______ _______ _____ _____    ______ ____
ROOT
ATOM      1  C1  UNL     1      22.447  22.883  21.165  0.00  0.00    -0.037 C 
ATOM      2  C2  UNL     1      21.540  23.292  20.014  0.00  0.00    +0.072 C 
ATOM      3  C3  UNL     1      20.316  24.075  20.517  0.00  0.00    +0.041 C 
ATOM      4  N1  UNL     1      19.455  24.474  19.404  0.00  0.00    -0.292 N 
ATOM      5  C4  UNL     1      18.118  24.771  19.662  0.00  0.00    +0.255 C 
ATOM      6  O1  UNL     1      17.681  24.768  20.812  0.00  0.00    -0.269 OA
ATOM      7  C5  UNL     1      17.274  25.085  18.529  0.00  0.00    +0.093 A 
ATOM      8  S1  UNL     1      16.655  26.665  18.384  0.00  0.00    -0.082 S 
ATOM      9  C6  UNL     1      15.821  26.290  16.926  0.00  0.00    +0.024 A 
ATOM     10  C7  UNL     1      15.043  27.172  16.153  0.00  0.00    -0.012 A 
ATOM     11  C8  UNL     1      14.434  26.684  15.001  0.00  0.00    +0.124 A 
ATOM     12  F1  UNL     1      13.691  27.511  14.255  0.00  0.00    -0.205 F 
ATOM     13  C9  UNL     1      14.577  25.365  14.612  0.00  0.00    -0.026 A 
ATOM     14  C10 UNL     1      15.350  24.492  15.383  0.00  0.00    -0.049 A 
ATOM     15  C11 UNL     1      15.995  24.949  16.565  0.00  0.00    +0.008 A 
ATOM     16  C12 UNL     1      16.831  24.263  17.518  0.00  0.00    +0.068 A 
ATOM     17 CL1  UNL     1      17.202  22.590  17.377  0.00  0.00    -0.082 Cl
ATOM     18  C13 UNL     1      20.137  24.661  18.116  0.00  0.00    +0.041 C 
ATOM     19  C14 UNL     1      21.616  25.028  18.331  0.00  0.00    +0.072 C 
ATOM     20  C15 UNL     1      22.334  25.222  17.002  0.00  0.00    -0.037 C 
ATOM     21  O2  UNL     1      22.339  24.033  19.074  0.00  0.00    -0.371 OA
ENDROOT
TORSDOF 0
ENDMDL
MODEL 9
REMARK VINA RESULT:    -3.297      2.053      2.721
REMARK INTER + INTRA:          -3.297
REMARK INTER:                  -3.297
REMARK INTRA:                   0.000
REMARK UNBOUND:                 0.000
REMARK  Name = /home/vital/Documents/PhD_2021/Malaria_codes/scripts/../data/pdbqt_ligands/ligand_290_temp.pdb
REMARK                            x       y       z     vdW  Elec       q    Type
REMARK                         _______ _______ _______ _____ _____    ______ ____
ROOT
ATOM      1  C1  UNL     1      19.707  22.651  22.080  0.00  0.00    -0.037 C 
ATOM      2  C2  UNL     1      19.210  23.823  21.247  0.00  0.00    +0.072 C 
ATOM      3  C3  UNL     1      18.043  23.407  20.337  0.00  0.00    +0.041 C 
ATOM      4  N1  UNL     1      17.564  24.541  19.547  0.00  0.00    -0.292 N 
ATOM      5  C4  UNL     1      16.857  24.291  18.372  0.00  0.00    +0.255 C 
ATOM      6  O1  UNL     1      16.578  23.141  18.035  0.00  0.00    -0.269 OA
ATOM      7  C5  UNL     1      16.466  25.433  17.573  0.00  0.00    +0.093 A 
ATOM      8  S1  UNL     1      14.808  25.794  17.420  0.00  0.00    -0.082 S 
ATOM      9  C6  UNL     1      15.116  27.154  16.412  0.00  0.00    +0.024 A 
ATOM     10  C7  UNL     1      14.158  28.027  15.863  0.00  0.00    -0.012 A 
ATOM     11  C8  UNL     1      14.597  29.074  15.059  0.00  0.00    +0.124 A 
ATOM     12  F1  UNL     1      13.697  29.913  14.531  0.00  0.00    -0.205 F 
ATOM     13  C9  UNL     1      15.940  29.265  14.793  0.00  0.00    -0.026 A 
ATOM     14  C10 UNL     1      16.888  28.396  15.339  0.00  0.00    -0.049 A 
ATOM     15  C11 UNL     1      16.485  27.315  16.170  0.00  0.00    +0.008 A 
ATOM     16  C12 UNL     1      17.251  26.295  16.842  0.00  0.00    +0.068 A 
ATOM     17 CL1  UNL     1      18.962  26.195  16.711  0.00  0.00    -0.082 Cl
ATOM     18  C13 UNL     1      17.759  25.862  20.159  0.00  0.00    +0.041 C 
ATOM     19  C14 UNL     1      17.815  25.749  21.693  0.00  0.00    +0.072 C 
ATOM     20  C15 UNL     1      18.020  27.112  22.339  0.00  0.00    -0.037 C 
ATOM     21  O2  UNL     1      18.868  24.887  22.154  0.00  0.00    -0.371 OA
ENDROOT
TORSDOF 0
ENDMDL
