MODEL 1
REMARK VINA RESULT:    -4.398      0.000      0.000
REMARK INTER + INTRA:          -4.398
REMARK INTER:                  -4.398
REMARK INTRA:                   0.000
REMARK UNBOUND:                 0.000
REMARK  Name = /home/vital/Documents/PhD_2021/Malaria_codes/scripts/../data/pdbqt_ligands/ligand_381_temp.pdb
REMARK                            x       y       z     vdW  Elec       q    Type
REMARK                         _______ _______ _______ _____ _____    ______ ____
ROOT
ATOM      1  C1  UNL     1      15.997  31.990  23.211  0.00  0.00    -0.039 C 
ATOM      2  C2  UNL     1      15.086  30.889  22.679  0.00  0.00    +0.053 C 
ATOM      3  C3  UNL     1      13.787  30.841  23.478  0.00  0.00    -0.039 C 
ATOM      4  O1  UNL     1      15.722  29.615  22.831  0.00  0.00    -0.377 OA
ATOM      5  C4  UNL     1      16.584  29.264  21.747  0.00  0.00    +0.050 C 
ATOM      6  C5  UNL     1      15.783  28.563  20.651  0.00  0.00    -0.000 C 
ATOM      7  C6  UNL     1      16.681  28.038  19.535  0.00  0.00    +0.091 C 
ATOM      8  O2  UNL     1      17.371  29.135  18.928  0.00  0.00    -0.388 OA
ATOM      9  C7  UNL     1      15.864  27.294  18.470  0.00  0.00    +0.115 C 
ATOM     10  O3  UNL     1      16.772  26.904  17.416  0.00  0.00    -0.489 OA
ATOM     11  C8  UNL     1      16.287  25.810  16.745  0.00  0.00    +0.133 A 
ATOM     12  C9  UNL     1      16.701  24.556  17.209  0.00  0.00    -0.019 A 
ATOM     13  C10 UNL     1      16.255  23.395  16.580  0.00  0.00    -0.058 A 
ATOM     14  C11 UNL     1      15.404  23.483  15.482  0.00  0.00    -0.061 A 
ATOM     15  C12 UNL     1      15.008  24.736  15.004  0.00  0.00    -0.046 A 
ATOM     16  C13 UNL     1      15.458  25.917  15.617  0.00  0.00    +0.079 A 
ATOM     17  C14 UNL     1      15.005  27.213  15.017  0.00  0.00    +0.252 C 
ATOM     18  O4  UNL     1      14.007  27.202  14.304  0.00  0.00    -0.270 OA
ATOM     19  N1  UNL     1      15.778  28.318  15.314  0.00  0.00    -0.281 N 
ATOM     20  C15 UNL     1      15.574  29.654  14.915  0.00  0.00    +0.034 A 
ATOM     21  C16 UNL     1      14.548  30.068  14.064  0.00  0.00    -0.040 A 
ATOM     22  C17 UNL     1      14.414  31.417  13.718  0.00  0.00    -0.060 A 
ATOM     23  C18 UNL     1      15.302  32.364  14.223  0.00  0.00    -0.062 A 
ATOM     24  C19 UNL     1      16.328  31.963  15.073  0.00  0.00    -0.060 A 
ATOM     25  C20 UNL     1      16.464  30.615  15.416  0.00  0.00    -0.040 A 
ATOM     26  H   UNL     1      16.725  29.751  18.547  0.00  0.00    +0.000 HD
ATOM     27  H   UNL     1      16.571  28.152  15.875  0.00  0.00    +0.000 HD
ENDROOT
TORSDOF 0
ENDMDL
MODEL 2
REMARK VINA RESULT:    -4.338      1.234      1.418
REMARK INTER + INTRA:          -4.338
REMARK INTER:                  -4.338
REMARK INTRA:                   0.000
REMARK UNBOUND:                 0.000
REMARK  Name = /home/vital/Documents/PhD_2021/Malaria_codes/scripts/../data/pdbqt_ligands/ligand_381_temp.pdb
REMARK                            x       y       z     vdW  Elec       q    Type
REMARK                         _______ _______ _______ _____ _____    ______ ____
ROOT
ATOM      1  C1  UNL     1      16.619  29.937  24.219  0.00  0.00    -0.039 C 
ATOM      2  C2  UNL     1      15.515  29.268  23.407  0.00  0.00    +0.053 C 
ATOM      3  C3  UNL     1      14.205  29.267  24.188  0.00  0.00    -0.039 C 
ATOM      4  O1  UNL     1      15.857  27.901  23.154  0.00  0.00    -0.377 OA
ATOM      5  C4  UNL     1      16.668  27.710  21.993  0.00  0.00    +0.050 C 
ATOM      6  C5  UNL     1      15.780  27.556  20.759  0.00  0.00    -0.000 C 
ATOM      7  C6  UNL     1      16.589  27.205  19.514  0.00  0.00    +0.091 C 
ATOM      8  O2  UNL     1      17.522  28.257  19.245  0.00  0.00    -0.388 OA
ATOM      9  C7  UNL     1      15.676  27.006  18.298  0.00  0.00    +0.115 C 
ATOM     10  O3  UNL     1      16.521  26.760  17.152  0.00  0.00    -0.489 OA
ATOM     11  C8  UNL     1      15.840  26.046  16.198  0.00  0.00    +0.133 A 
ATOM     12  C9  UNL     1      15.958  24.653  16.255  0.00  0.00    -0.019 A 
ATOM     13  C10 UNL     1      15.300  23.855  15.320  0.00  0.00    -0.058 A 
ATOM     14  C11 UNL     1      14.532  24.448  14.321  0.00  0.00    -0.061 A 
ATOM     15  C12 UNL     1      14.433  25.840  14.249  0.00  0.00    -0.046 A 
ATOM     16  C13 UNL     1      15.100  26.660  15.175  0.00  0.00    +0.079 A 
ATOM     17  C14 UNL     1      14.960  28.142  15.001  0.00  0.00    +0.252 C 
ATOM     18  O4  UNL     1      14.012  28.558  14.344  0.00  0.00    -0.270 OA
ATOM     19  N1  UNL     1      15.939  28.914  15.595  0.00  0.00    -0.281 N 
ATOM     20  C15 UNL     1      16.041  30.319  15.618  0.00  0.00    +0.034 A 
ATOM     21  C16 UNL     1      15.163  31.178  14.956  0.00  0.00    -0.040 A 
ATOM     22  C17 UNL     1      15.334  32.565  15.032  0.00  0.00    -0.060 A 
ATOM     23  C18 UNL     1      16.383  33.103  15.773  0.00  0.00    -0.062 A 
ATOM     24  C19 UNL     1      17.264  32.257  16.438  0.00  0.00    -0.060 A 
ATOM     25  C20 UNL     1      17.095  30.871  16.360  0.00  0.00    -0.040 A 
ATOM     26  H   UNL     1      17.039  29.083  19.082  0.00  0.00    +0.000 HD
ATOM     27  H   UNL     1      16.654  28.421  16.059  0.00  0.00    +0.000 HD
ENDROOT
TORSDOF 0
ENDMDL
MODEL 3
REMARK VINA RESULT:    -4.285      2.278      5.401
REMARK INTER + INTRA:          -4.285
REMARK INTER:                  -4.285
REMARK INTRA:                   0.000
REMARK UNBOUND:                 0.000
REMARK  Name = /home/vital/Documents/PhD_2021/Malaria_codes/scripts/../data/pdbqt_ligands/ligand_381_temp.pdb
REMARK                            x       y       z     vdW  Elec       q    Type
REMARK                         _______ _______ _______ _____ _____    ______ ____
ROOT
ATOM      1  C1  UNL     1      14.222  28.102  24.398  0.00  0.00    -0.039 C 
ATOM      2  C2  UNL     1      14.995  28.890  23.345  0.00  0.00    +0.053 C 
ATOM      3  C3  UNL     1      15.796  30.010  24.000  0.00  0.00    -0.039 C 
ATOM      4  O1  UNL     1      14.082  29.504  22.430  0.00  0.00    -0.377 OA
ATOM      5  C4  UNL     1      13.691  28.661  21.344  0.00  0.00    +0.050 C 
ATOM      6  C5  UNL     1      14.692  28.793  20.197  0.00  0.00    -0.000 C 
ATOM      7  C6  UNL     1      14.244  28.024  18.958  0.00  0.00    +0.091 C 
ATOM      8  O2  UNL     1      14.139  26.633  19.278  0.00  0.00    -0.388 OA
ATOM      9  C7  UNL     1      15.236  28.210  17.802  0.00  0.00    +0.115 C 
ATOM     10  O3  UNL     1      14.785  27.389  16.702  0.00  0.00    -0.489 OA
ATOM     11  C8  UNL     1      15.241  27.891  15.509  0.00  0.00    +0.133 A 
ATOM     12  C9  UNL     1      14.397  28.787  14.843  0.00  0.00    -0.019 A 
ATOM     13  C10 UNL     1      14.786  29.341  13.625  0.00  0.00    -0.058 A 
ATOM     14  C11 UNL     1      16.012  28.992  13.064  0.00  0.00    -0.061 A 
ATOM     15  C12 UNL     1      16.845  28.078  13.717  0.00  0.00    -0.046 A 
ATOM     16  C13 UNL     1      16.463  27.501  14.940  0.00  0.00    +0.079 A 
ATOM     17  C14 UNL     1      17.407  26.510  15.551  0.00  0.00    +0.252 C 
ATOM     18  O4  UNL     1      18.579  26.532  15.191  0.00  0.00    -0.270 OA
ATOM     19  N1  UNL     1      16.855  25.638  16.468  0.00  0.00    -0.281 N 
ATOM     20  C15 UNL     1      17.505  24.633  17.211  0.00  0.00    +0.034 A 
ATOM     21  C16 UNL     1      18.856  24.310  17.076  0.00  0.00    -0.040 A 
ATOM     22  C17 UNL     1      19.426  23.298  17.856  0.00  0.00    -0.060 A 
ATOM     23  C18 UNL     1      18.650  22.603  18.780  0.00  0.00    -0.062 A 
ATOM     24  C19 UNL     1      17.302  22.916  18.925  0.00  0.00    -0.060 A 
ATOM     25  C20 UNL     1      16.732  23.926  18.143  0.00  0.00    -0.040 A 
ATOM     26  H   UNL     1      15.006  26.299  19.557  0.00  0.00    +0.000 HD
ATOM     27  H   UNL     1      15.886  25.730  16.621  0.00  0.00    +0.000 HD
ENDROOT
TORSDOF 0
ENDMDL
MODEL 4
REMARK VINA RESULT:    -4.224     15.999     19.704
REMARK INTER + INTRA:          -4.224
REMARK INTER:                  -4.224
REMARK INTRA:                   0.000
REMARK UNBOUND:                 0.000
REMARK  Name = /home/vital/Documents/PhD_2021/Malaria_codes/scripts/../data/pdbqt_ligands/ligand_381_temp.pdb
REMARK                            x       y       z     vdW  Elec       q    Type
REMARK                         _______ _______ _______ _____ _____    ______ ____
ROOT
ATOM      1  C1  UNL     1      22.536  47.308  28.737  0.00  0.00    -0.039 C 
ATOM      2  C2  UNL     1      22.060  45.928  28.293  0.00  0.00    +0.053 C 
ATOM      3  C3  UNL     1      23.129  44.879  28.580  0.00  0.00    -0.039 C 
ATOM      4  O1  UNL     1      21.830  45.924  26.881  0.00  0.00    -0.377 OA
ATOM      5  C4  UNL     1      20.526  46.368  26.502  0.00  0.00    +0.050 C 
ATOM      6  C5  UNL     1      19.553  45.190  26.509  0.00  0.00    -0.000 C 
ATOM      7  C6  UNL     1      18.180  45.581  25.972  0.00  0.00    +0.091 C 
ATOM      8  O2  UNL     1      17.622  46.604  26.804  0.00  0.00    -0.388 OA
ATOM      9  C7  UNL     1      17.233  44.374  25.942  0.00  0.00    +0.115 C 
ATOM     10  O3  UNL     1      15.939  44.844  25.503  0.00  0.00    -0.489 OA
ATOM     11  C8  UNL     1      15.228  43.822  24.925  0.00  0.00    +0.133 A 
ATOM     12  C9  UNL     1      15.354  43.676  23.539  0.00  0.00    -0.019 A 
ATOM     13  C10 UNL     1      14.662  42.664  22.876  0.00  0.00    -0.058 A 
ATOM     14  C11 UNL     1      13.836  41.804  23.593  0.00  0.00    -0.061 A 
ATOM     15  C12 UNL     1      13.691  41.964  24.974  0.00  0.00    -0.046 A 
ATOM     16  C13 UNL     1      14.371  42.986  25.657  0.00  0.00    +0.079 A 
ATOM     17  C14 UNL     1      14.130  43.098  27.132  0.00  0.00    +0.252 C 
ATOM     18  O4  UNL     1      13.690  42.117  27.722  0.00  0.00    -0.270 OA
ATOM     19  N1  UNL     1      14.417  44.325  27.697  0.00  0.00    -0.281 N 
ATOM     20  C15 UNL     1      14.316  44.702  29.052  0.00  0.00    +0.034 A 
ATOM     21  C16 UNL     1      13.823  43.872  30.060  0.00  0.00    -0.040 A 
ATOM     22  C17 UNL     1      13.758  44.324  31.382  0.00  0.00    -0.060 A 
ATOM     23  C18 UNL     1      14.188  45.608  31.708  0.00  0.00    -0.062 A 
ATOM     24  C19 UNL     1      14.682  46.445  30.711  0.00  0.00    -0.060 A 
ATOM     25  C20 UNL     1      14.744  45.994  29.390  0.00  0.00    -0.040 A 
ATOM     26  H   UNL     1      17.521  46.266  27.708  0.00  0.00    +0.000 HD
ATOM     27  H   UNL     1      14.732  45.023  27.078  0.00  0.00    +0.000 HD
ENDROOT
TORSDOF 0
ENDMDL
MODEL 5
REMARK VINA RESULT:    -3.996      2.818      6.168
REMARK INTER + INTRA:          -3.996
REMARK INTER:                  -3.996
REMARK INTRA:                   0.000
REMARK UNBOUND:                 0.000
REMARK  Name = /home/vital/Documents/PhD_2021/Malaria_codes/scripts/../data/pdbqt_ligands/ligand_381_temp.pdb
REMARK                            x       y       z     vdW  Elec       q    Type
REMARK                         _______ _______ _______ _____ _____    ______ ____
ROOT
ATOM      1  C1  UNL     1      20.126  35.078  16.454  0.00  0.00    -0.039 C 
ATOM      2  C2  UNL     1      20.205  33.568  16.251  0.00  0.00    +0.053 C 
ATOM      3  C3  UNL     1      21.656  33.131  16.074  0.00  0.00    -0.039 C 
ATOM      4  O1  UNL     1      19.505  33.200  15.058  0.00  0.00    -0.377 OA
ATOM      5  C4  UNL     1      18.105  32.984  15.249  0.00  0.00    +0.050 C 
ATOM      6  C5  UNL     1      17.855  31.534  15.661  0.00  0.00    -0.000 C 
ATOM      7  C6  UNL     1      16.366  31.211  15.737  0.00  0.00    +0.091 C 
ATOM      8  O2  UNL     1      15.751  32.049  16.721  0.00  0.00    -0.388 OA
ATOM      9  C7  UNL     1      16.136  29.738  16.103  0.00  0.00    +0.115 C 
ATOM     10  O3  UNL     1      14.711  29.538  16.235  0.00  0.00    -0.489 OA
ATOM     11  C8  UNL     1      14.389  28.224  16.005  0.00  0.00    +0.133 A 
ATOM     12  C9  UNL     1      14.051  27.882  14.691  0.00  0.00    -0.019 A 
ATOM     13  C10 UNL     1      13.708  26.569  14.375  0.00  0.00    -0.058 A 
ATOM     14  C11 UNL     1      13.691  25.597  15.372  0.00  0.00    -0.061 A 
ATOM     15  C12 UNL     1      14.005  25.943  16.690  0.00  0.00    -0.046 A 
ATOM     16  C13 UNL     1      14.341  27.264  17.028  0.00  0.00    +0.079 A 
ATOM     17  C14 UNL     1      14.634  27.546  18.471  0.00  0.00    +0.252 C 
ATOM     18  O4  UNL     1      14.939  26.603  19.193  0.00  0.00    -0.270 OA
ATOM     19  N1  UNL     1      14.515  28.864  18.864  0.00  0.00    -0.281 N 
ATOM     20  C15 UNL     1      14.756  29.416  20.138  0.00  0.00    +0.034 A 
ATOM     21  C16 UNL     1      15.103  28.666  21.262  0.00  0.00    -0.040 A 
ATOM     22  C17 UNL     1      15.327  29.293  22.492  0.00  0.00    -0.060 A 
ATOM     23  C18 UNL     1      15.210  30.676  22.608  0.00  0.00    -0.062 A 
ATOM     24  C19 UNL     1      14.866  31.434  21.494  0.00  0.00    -0.060 A 
ATOM     25  C20 UNL     1      14.638  30.807  20.265  0.00  0.00    -0.040 A 
ATOM     26  H   UNL     1      16.153  31.879  17.587  0.00  0.00    +0.000 HD
ATOM     27  H   UNL     1      14.226  29.497  18.167  0.00  0.00    +0.000 HD
ENDROOT
TORSDOF 0
ENDMDL
MODEL 6
REMARK VINA RESULT:    -3.986     13.586     17.588
REMARK INTER + INTRA:          -3.986
REMARK INTER:                  -3.986
REMARK INTRA:                   0.000
REMARK UNBOUND:                 0.000
REMARK  Name = /home/vital/Documents/PhD_2021/Malaria_codes/scripts/../data/pdbqt_ligands/ligand_381_temp.pdb
REMARK                            x       y       z     vdW  Elec       q    Type
REMARK                         _______ _______ _______ _____ _____    ______ ____
ROOT
ATOM      1  C1  UNL     1      16.097  38.215  17.591  0.00  0.00    -0.039 C 
ATOM      2  C2  UNL     1      16.160  39.578  16.909  0.00  0.00    +0.053 C 
ATOM      3  C3  UNL     1      14.925  39.796  16.042  0.00  0.00    -0.039 C 
ATOM      4  O1  UNL     1      17.299  39.637  16.044  0.00  0.00    -0.377 OA
ATOM      5  C4  UNL     1      18.505  40.038  16.698  0.00  0.00    +0.050 C 
ATOM      6  C5  UNL     1      18.616  41.562  16.696  0.00  0.00    -0.000 C 
ATOM      7  C6  UNL     1      19.954  42.038  17.252  0.00  0.00    +0.091 C 
ATOM      8  O2  UNL     1      20.083  41.600  18.609  0.00  0.00    -0.388 OA
ATOM      9  C7  UNL     1      20.065  43.568  17.196  0.00  0.00    +0.115 C 
ATOM     10  O3  UNL     1      21.317  43.938  17.814  0.00  0.00    -0.489 OA
ATOM     11  C8  UNL     1      21.751  45.148  17.331  0.00  0.00    +0.133 A 
ATOM     12  C9  UNL     1      22.609  45.109  16.225  0.00  0.00    -0.019 A 
ATOM     13  C10 UNL     1      23.096  46.294  15.676  0.00  0.00    -0.058 A 
ATOM     14  C11 UNL     1      22.737  47.517  16.237  0.00  0.00    -0.061 A 
ATOM     15  C12 UNL     1      21.901  47.555  17.355  0.00  0.00    -0.046 A 
ATOM     16  C13 UNL     1      21.410  46.370  17.929  0.00  0.00    +0.079 A 
ATOM     17  C14 UNL     1      20.543  46.508  19.144  0.00  0.00    +0.252 C 
ATOM     18  O4  UNL     1      20.003  47.590  19.348  0.00  0.00    -0.270 OA
ATOM     19  N1  UNL     1      20.446  45.388  19.945  0.00  0.00    -0.281 N 
ATOM     20  C15 UNL     1      19.686  45.224  21.121  0.00  0.00    +0.034 A 
ATOM     21  C16 UNL     1      18.936  46.240  21.715  0.00  0.00    -0.040 A 
ATOM     22  C17 UNL     1      18.207  45.993  22.883  0.00  0.00    -0.060 A 
ATOM     23  C18 UNL     1      18.218  44.727  23.465  0.00  0.00    -0.062 A 
ATOM     24  C19 UNL     1      18.962  43.706  22.880  0.00  0.00    -0.060 A 
ATOM     25  C20 UNL     1      19.693  43.954  21.715  0.00  0.00    -0.040 A 
ATOM     26  H   UNL     1      19.368  41.983  19.142  0.00  0.00    +0.000 HD
ATOM     27  H   UNL     1      20.972  44.606  19.659  0.00  0.00    +0.000 HD
ENDROOT
TORSDOF 0
ENDMDL
MODEL 7
REMARK VINA RESULT:    -3.975      4.215      8.075
REMARK INTER + INTRA:          -3.975
REMARK INTER:                  -3.975
REMARK INTRA:                   0.000
REMARK UNBOUND:                 0.000
REMARK  Name = /home/vital/Documents/PhD_2021/Malaria_codes/scripts/../data/pdbqt_ligands/ligand_381_temp.pdb
REMARK                            x       y       z     vdW  Elec       q    Type
REMARK                         _______ _______ _______ _____ _____    ______ ____
ROOT
ATOM      1  C1  UNL     1      24.983  25.366  14.679  0.00  0.00    -0.039 C 
ATOM      2  C2  UNL     1      23.912  25.823  13.694  0.00  0.00    +0.053 C 
ATOM      3  C3  UNL     1      24.339  25.514  12.263  0.00  0.00    -0.039 C 
ATOM      4  O1  UNL     1      23.738  27.240  13.787  0.00  0.00    -0.377 OA
ATOM      5  C4  UNL     1      22.816  27.648  14.799  0.00  0.00    +0.050 C 
ATOM      6  C5  UNL     1      21.397  27.665  14.234  0.00  0.00    -0.000 C 
ATOM      7  C6  UNL     1      20.392  28.233  15.231  0.00  0.00    +0.091 C 
ATOM      8  O2  UNL     1      20.376  27.413  16.404  0.00  0.00    -0.388 OA
ATOM      9  C7  UNL     1      18.982  28.287  14.627  0.00  0.00    +0.115 C 
ATOM     10  O3  UNL     1      18.083  28.755  15.657  0.00  0.00    -0.489 OA
ATOM     11  C8  UNL     1      16.980  29.350  15.096  0.00  0.00    +0.133 A 
ATOM     12  C9  UNL     1      17.050  30.733  14.895  0.00  0.00    -0.019 A 
ATOM     13  C10 UNL     1      15.971  31.414  14.333  0.00  0.00    -0.058 A 
ATOM     14  C11 UNL     1      14.818  30.717  13.983  0.00  0.00    -0.061 A 
ATOM     15  C12 UNL     1      14.738  29.340  14.206  0.00  0.00    -0.046 A 
ATOM     16  C13 UNL     1      15.812  28.639  14.782  0.00  0.00    +0.079 A 
ATOM     17  C14 UNL     1      15.624  27.170  15.010  0.00  0.00    +0.252 C 
ATOM     18  O4  UNL     1      14.755  26.592  14.367  0.00  0.00    -0.270 OA
ATOM     19  N1  UNL     1      16.453  26.596  15.954  0.00  0.00    -0.281 N 
ATOM     20  C15 UNL     1      16.517  25.244  16.346  0.00  0.00    +0.034 A 
ATOM     21  C16 UNL     1      15.666  24.249  15.865  0.00  0.00    -0.040 A 
ATOM     22  C17 UNL     1      15.798  22.928  16.305  0.00  0.00    -0.060 A 
ATOM     23  C18 UNL     1      16.785  22.590  17.228  0.00  0.00    -0.062 A 
ATOM     24  C19 UNL     1      17.641  23.574  17.714  0.00  0.00    -0.060 A 
ATOM     25  C20 UNL     1      17.506  24.895  17.277  0.00  0.00    -0.040 A 
ATOM     26  H   UNL     1      20.107  26.512  16.166  0.00  0.00    +0.000 HD
ATOM     27  H   UNL     1      17.077  27.208  16.409  0.00  0.00    +0.000 HD
ENDROOT
TORSDOF 0
ENDMDL
MODEL 8
REMARK VINA RESULT:    -3.935      3.215      6.955
REMARK INTER + INTRA:          -3.935
REMARK INTER:                  -3.935
REMARK INTRA:                   0.000
REMARK UNBOUND:                 0.000
REMARK  Name = /home/vital/Documents/PhD_2021/Malaria_codes/scripts/../data/pdbqt_ligands/ligand_381_temp.pdb
REMARK                            x       y       z     vdW  Elec       q    Type
REMARK                         _______ _______ _______ _____ _____    ______ ____
ROOT
ATOM      1  C1  UNL     1      22.513  22.607  16.806  0.00  0.00    -0.039 C 
ATOM      2  C2  UNL     1      22.288  24.079  17.136  0.00  0.00    +0.053 C 
ATOM      3  C3  UNL     1      23.480  24.915  16.681  0.00  0.00    -0.039 C 
ATOM      4  O1  UNL     1      22.170  24.247  18.553  0.00  0.00    -0.377 OA
ATOM      5  C4  UNL     1      20.846  24.052  19.053  0.00  0.00    +0.050 C 
ATOM      6  C5  UNL     1      20.066  25.364  18.986  0.00  0.00    -0.000 C 
ATOM      7  C6  UNL     1      18.694  25.247  19.642  0.00  0.00    +0.091 C 
ATOM      8  O2  UNL     1      17.925  24.256  18.954  0.00  0.00    -0.388 OA
ATOM      9  C7  UNL     1      17.948  26.588  19.609  0.00  0.00    +0.115 C 
ATOM     10  O3  UNL     1      16.634  26.371  20.171  0.00  0.00    -0.489 OA
ATOM     11  C8  UNL     1      16.133  27.541  20.684  0.00  0.00    +0.133 A 
ATOM     12  C9  UNL     1      16.385  27.789  22.039  0.00  0.00    -0.019 A 
ATOM     13  C10 UNL     1      15.908  28.954  22.637  0.00  0.00    -0.058 A 
ATOM     14  C11 UNL     1      15.170  29.866  21.888  0.00  0.00    -0.061 A 
ATOM     15  C12 UNL     1      14.898  29.608  20.542  0.00  0.00    -0.046 A 
ATOM     16  C13 UNL     1      15.360  28.433  19.925  0.00  0.00    +0.079 A 
ATOM     17  C14 UNL     1      14.994  28.228  18.487  0.00  0.00    +0.252 C 
ATOM     18  O4  UNL     1      14.666  29.209  17.829  0.00  0.00    -0.270 OA
ATOM     19  N1  UNL     1      15.047  26.925  18.031  0.00  0.00    -0.281 N 
ATOM     20  C15 UNL     1      14.787  26.449  16.731  0.00  0.00    +0.034 A 
ATOM     21  C16 UNL     1      14.352  27.252  15.676  0.00  0.00    -0.040 A 
ATOM     22  C17 UNL     1      14.118  26.699  14.412  0.00  0.00    -0.060 A 
ATOM     23  C18 UNL     1      14.321  25.339  14.192  0.00  0.00    -0.062 A 
ATOM     24  C19 UNL     1      14.755  24.528  15.236  0.00  0.00    -0.060 A 
ATOM     25  C20 UNL     1      14.986  25.080  16.500  0.00  0.00    -0.040 A 
ATOM     26  H   UNL     1      17.808  24.522  18.028  0.00  0.00    +0.000 HD
ATOM     27  H   UNL     1      15.298  26.245  18.698  0.00  0.00    +0.000 HD
ENDROOT
TORSDOF 0
ENDMDL
MODEL 9
REMARK VINA RESULT:    -3.870      3.874      4.821
REMARK INTER + INTRA:          -3.870
REMARK INTER:                  -3.870
REMARK INTRA:                   0.000
REMARK UNBOUND:                 0.000
REMARK  Name = /home/vital/Documents/PhD_2021/Malaria_codes/scripts/../data/pdbqt_ligands/ligand_381_temp.pdb
REMARK                            x       y       z     vdW  Elec       q    Type
REMARK                         _______ _______ _______ _____ _____    ______ ____
ROOT
ATOM      1  C1  UNL     1      23.833  31.125  16.214  0.00  0.00    -0.039 C 
ATOM      2  C2  UNL     1      22.724  30.779  17.203  0.00  0.00    +0.053 C 
ATOM      3  C3  UNL     1      22.920  31.540  18.509  0.00  0.00    -0.039 C 
ATOM      4  O1  UNL     1      22.769  29.383  17.516  0.00  0.00    -0.377 OA
ATOM      5  C4  UNL     1      22.049  28.557  16.598  0.00  0.00    +0.050 C 
ATOM      6  C5  UNL     1      20.587  28.451  17.031  0.00  0.00    -0.000 C 
ATOM      7  C6  UNL     1      19.807  27.465  16.168  0.00  0.00    +0.091 C 
ATOM      8  O2  UNL     1      19.821  27.913  14.808  0.00  0.00    -0.388 OA
ATOM      9  C7  UNL     1      18.356  27.335  16.649  0.00  0.00    +0.115 C 
ATOM     10  O3  UNL     1      17.669  26.452  15.734  0.00  0.00    -0.489 OA
ATOM     11  C8  UNL     1      16.602  25.853  16.355  0.00  0.00    +0.133 A 
ATOM     12  C9  UNL     1      16.844  24.613  16.958  0.00  0.00    -0.019 A 
ATOM     13  C10 UNL     1      15.813  23.937  17.608  0.00  0.00    -0.058 A 
ATOM     14  C11 UNL     1      14.537  24.493  17.647  0.00  0.00    -0.061 A 
ATOM     15  C12 UNL     1      14.289  25.719  17.025  0.00  0.00    -0.046 A 
ATOM     16  C13 UNL     1      15.314  26.408  16.355  0.00  0.00    +0.079 A 
ATOM     17  C14 UNL     1      14.946  27.702  15.693  0.00  0.00    +0.252 C 
ATOM     18  O4  UNL     1      13.929  28.274  16.068  0.00  0.00    -0.270 OA
ATOM     19  N1  UNL     1      15.796  28.128  14.691  0.00  0.00    -0.281 N 
ATOM     20  C15 UNL     1      15.713  29.309  13.926  0.00  0.00    +0.034 A 
ATOM     21  C16 UNL     1      14.674  30.234  14.026  0.00  0.00    -0.040 A 
ATOM     22  C17 UNL     1      14.669  31.385  13.230  0.00  0.00    -0.060 A 
ATOM     23  C18 UNL     1      15.704  31.620  12.329  0.00  0.00    -0.062 A 
ATOM     24  C19 UNL     1      16.747  30.705  12.221  0.00  0.00    -0.060 A 
ATOM     25  C20 UNL     1      16.750  29.554  13.014  0.00  0.00    -0.040 A 
ATOM     26  H   UNL     1      19.397  28.784  14.751  0.00  0.00    +0.000 HD
ATOM     27  H   UNL     1      16.553  27.533  14.485  0.00  0.00    +0.000 HD
ENDROOT
TORSDOF 0
ENDMDL
