MODEL 1
REMARK VINA RESULT:    -2.641      0.000      0.000
REMARK INTER + INTRA:          -2.641
REMARK INTER:                  -2.641
REMARK INTRA:                   0.000
REMARK UNBOUND:                 0.000
REMARK  Name = /home/vital/Documents/PhD_2021/Malaria_codes/scripts/../data/pdbqt_ligands/ligand_473_temp.pdb
REMARK                            x       y       z     vdW  Elec       q    Type
REMARK                         _______ _______ _______ _____ _____    ______ ____
ROOT
ATOM      1  C1  UNL     1      15.409  33.270  15.332  0.00  0.00    +0.082 C 
ATOM      2  O1  UNL     1      15.583  31.872  15.580  0.00  0.00    -0.467 OA
ATOM      3  C2  UNL     1      15.413  31.086  14.472  0.00  0.00    +0.317 C 
ATOM      4  O2  UNL     1      15.130  31.515  13.362  0.00  0.00    -0.250 OA
ATOM      5  C3  UNL     1      15.616  29.637  14.872  0.00  0.00    +0.096 C 
ATOM      6  S1  UNL     1      15.576  28.519  13.434  0.00  0.00    -0.114 S 
ATOM      7  C4  UNL     1      15.587  26.946  14.272  0.00  0.00    +0.009 A 
ATOM      8  C5  UNL     1      14.547  26.040  14.029  0.00  0.00    -0.045 A 
ATOM      9  C6  UNL     1      14.527  24.796  14.666  0.00  0.00    -0.019 A 
ATOM     10  C7  UNL     1      15.556  24.459  15.539  0.00  0.00    +0.117 A 
ATOM     11  O3  UNL     1      15.578  23.258  16.182  0.00  0.00    -0.507 OA
ATOM     12  C8  UNL     1      16.602  25.341  15.780  0.00  0.00    -0.019 A 
ATOM     13  C9  UNL     1      16.621  26.584  15.142  0.00  0.00    -0.045 A 
ATOM     14  H   UNL     1      14.888  22.639  16.042  0.00  0.00    +0.000 HD
ENDROOT
TORSDOF 0
ENDMDL
MODEL 2
REMARK VINA RESULT:    -2.539      3.945      4.512
REMARK INTER + INTRA:          -2.539
REMARK INTER:                  -2.539
REMARK INTRA:                   0.000
REMARK UNBOUND:                 0.000
REMARK  Name = /home/vital/Documents/PhD_2021/Malaria_codes/scripts/../data/pdbqt_ligands/ligand_473_temp.pdb
REMARK                            x       y       z     vdW  Elec       q    Type
REMARK                         _______ _______ _______ _____ _____    ______ ____
ROOT
ATOM      1  C1  UNL     1      14.346  28.875  22.237  0.00  0.00    +0.082 C 
ATOM      2  O1  UNL     1      14.509  27.853  21.251  0.00  0.00    -0.467 OA
ATOM      3  C2  UNL     1      14.872  28.323  20.018  0.00  0.00    +0.317 C 
ATOM      4  O2  UNL     1      15.039  29.505  19.755  0.00  0.00    -0.250 OA
ATOM      5  C3  UNL     1      15.002  27.145  19.071  0.00  0.00    +0.096 C 
ATOM      6  S1  UNL     1      15.645  27.645  17.441  0.00  0.00    -0.114 S 
ATOM      7  C4  UNL     1      15.430  26.117  16.548  0.00  0.00    +0.009 A 
ATOM      8  C5  UNL     1      14.656  26.117  15.381  0.00  0.00    -0.045 A 
ATOM      9  C6  UNL     1      14.471  24.937  14.654  0.00  0.00    -0.019 A 
ATOM     10  C7  UNL     1      15.071  23.763  15.094  0.00  0.00    +0.117 A 
ATOM     11  O3  UNL     1      14.918  22.590  14.417  0.00  0.00    -0.507 OA
ATOM     12  C8  UNL     1      15.853  23.750  16.242  0.00  0.00    -0.019 A 
ATOM     13  C9  UNL     1      16.038  24.929  16.968  0.00  0.00    -0.045 A 
ATOM     14  H   UNL     1      14.397  22.563  13.638  0.00  0.00    +0.000 HD
ENDROOT
TORSDOF 0
ENDMDL
MODEL 3
REMARK VINA RESULT:    -2.536     19.791     20.619
REMARK INTER + INTRA:          -2.536
REMARK INTER:                  -2.536
REMARK INTRA:                   0.000
REMARK UNBOUND:                 0.000
REMARK  Name = /home/vital/Documents/PhD_2021/Malaria_codes/scripts/../data/pdbqt_ligands/ligand_473_temp.pdb
REMARK                            x       y       z     vdW  Elec       q    Type
REMARK                         _______ _______ _______ _____ _____    ______ ____
ROOT
ATOM      1  C1  UNL     1      17.783  47.555  21.187  0.00  0.00    +0.082 C 
ATOM      2  O1  UNL     1      18.623  47.590  20.031  0.00  0.00    -0.467 OA
ATOM      3  C2  UNL     1      19.657  46.693  20.068  0.00  0.00    +0.317 C 
ATOM      4  O2  UNL     1      19.870  45.927  20.997  0.00  0.00    -0.250 OA
ATOM      5  C3  UNL     1      20.469  46.839  18.795  0.00  0.00    +0.096 C 
ATOM      6  S1  UNL     1      21.775  45.574  18.667  0.00  0.00    -0.114 S 
ATOM      7  C4  UNL     1      22.652  46.186  17.241  0.00  0.00    +0.009 A 
ATOM      8  C5  UNL     1      24.017  46.474  17.355  0.00  0.00    -0.045 A 
ATOM      9  C6  UNL     1      24.736  46.951  16.255  0.00  0.00    -0.019 A 
ATOM     10  C7  UNL     1      24.085  47.128  15.039  0.00  0.00    +0.117 A 
ATOM     11  O3  UNL     1      24.746  47.590  13.941  0.00  0.00    -0.507 OA
ATOM     12  C8  UNL     1      22.734  46.834  14.906  0.00  0.00    -0.019 A 
ATOM     13  C9  UNL     1      22.016  46.357  16.006  0.00  0.00    -0.045 A 
ATOM     14  H   UNL     1      25.658  47.798  13.996  0.00  0.00    +0.000 HD
ENDROOT
TORSDOF 0
ENDMDL
MODEL 4
REMARK VINA RESULT:    -2.408      4.149      6.086
REMARK INTER + INTRA:          -2.408
REMARK INTER:                  -2.408
REMARK INTRA:                   0.000
REMARK UNBOUND:                 0.000
REMARK  Name = /home/vital/Documents/PhD_2021/Malaria_codes/scripts/../data/pdbqt_ligands/ligand_473_temp.pdb
REMARK                            x       y       z     vdW  Elec       q    Type
REMARK                         _______ _______ _______ _____ _____    ______ ____
ROOT
ATOM      1  C1  UNL     1      17.470  26.206  22.761  0.00  0.00    +0.082 C 
ATOM      2  O1  UNL     1      16.945  26.104  21.435  0.00  0.00    -0.467 OA
ATOM      3  C2  UNL     1      17.900  25.917  20.472  0.00  0.00    +0.317 C 
ATOM      4  O2  UNL     1      19.100  25.850  20.698  0.00  0.00    -0.250 OA
ATOM      5  C3  UNL     1      17.215  25.833  19.122  0.00  0.00    +0.096 C 
ATOM      6  S1  UNL     1      18.383  25.418  17.786  0.00  0.00    -0.114 S 
ATOM      7  C4  UNL     1      17.322  25.650  16.372  0.00  0.00    +0.009 A 
ATOM      8  C5  UNL     1      17.707  26.556  15.376  0.00  0.00    -0.045 A 
ATOM      9  C6  UNL     1      16.902  26.759  14.252  0.00  0.00    -0.019 A 
ATOM     10  C7  UNL     1      15.716  26.044  14.124  0.00  0.00    +0.117 A 
ATOM     11  O3  UNL     1      14.900  26.209  13.046  0.00  0.00    -0.507 OA
ATOM     12  C8  UNL     1      15.327  25.132  15.097  0.00  0.00    -0.019 A 
ATOM     13  C9  UNL     1      16.133  24.930  16.220  0.00  0.00    -0.045 A 
ATOM     14  H   UNL     1      15.132  26.817  12.371  0.00  0.00    +0.000 HD
ENDROOT
TORSDOF 0
ENDMDL
MODEL 5
REMARK VINA RESULT:    -2.317      1.925      2.576
REMARK INTER + INTRA:          -2.317
REMARK INTER:                  -2.317
REMARK INTRA:                   0.000
REMARK UNBOUND:                 0.000
REMARK  Name = /home/vital/Documents/PhD_2021/Malaria_codes/scripts/../data/pdbqt_ligands/ligand_473_temp.pdb
REMARK                            x       y       z     vdW  Elec       q    Type
REMARK                         _______ _______ _______ _____ _____    ______ ____
ROOT
ATOM      1  C1  UNL     1      16.415  33.150  16.313  0.00  0.00    +0.082 C 
ATOM      2  O1  UNL     1      16.100  31.835  15.848  0.00  0.00    -0.467 OA
ATOM      3  C2  UNL     1      15.792  30.951  16.846  0.00  0.00    +0.317 C 
ATOM      4  O2  UNL     1      15.790  31.232  18.036  0.00  0.00    -0.250 OA
ATOM      5  C3  UNL     1      15.489  29.603  16.221  0.00  0.00    +0.096 C 
ATOM      6  S1  UNL     1      14.904  28.394  17.453  0.00  0.00    -0.114 S 
ATOM      7  C4  UNL     1      14.894  26.920  16.450  0.00  0.00    +0.009 A 
ATOM      8  C5  UNL     1      15.647  25.814  16.862  0.00  0.00    -0.045 A 
ATOM      9  C6  UNL     1      15.657  24.641  16.102  0.00  0.00    -0.019 A 
ATOM     10  C7  UNL     1      14.903  24.576  14.935  0.00  0.00    +0.117 A 
ATOM     11  O3  UNL     1      14.884  23.454  14.163  0.00  0.00    -0.507 OA
ATOM     12  C8  UNL     1      14.140  25.660  14.521  0.00  0.00    -0.019 A 
ATOM     13  C9  UNL     1      14.130  26.832  15.281  0.00  0.00    -0.045 A 
ATOM     14  H   UNL     1      15.387  22.704  14.414  0.00  0.00    +0.000 HD
ENDROOT
TORSDOF 0
ENDMDL
MODEL 6
REMARK VINA RESULT:    -2.314     18.193     20.016
REMARK INTER + INTRA:          -2.314
REMARK INTER:                  -2.314
REMARK INTRA:                   0.000
REMARK UNBOUND:                 0.000
REMARK  Name = /home/vital/Documents/PhD_2021/Malaria_codes/scripts/../data/pdbqt_ligands/ligand_473_temp.pdb
REMARK                            x       y       z     vdW  Elec       q    Type
REMARK                         _______ _______ _______ _____ _____    ______ ____
ROOT
ATOM      1  C1  UNL     1      20.878  43.491  21.502  0.00  0.00    +0.082 C 
ATOM      2  O1  UNL     1      21.647  44.037  20.428  0.00  0.00    -0.467 OA
ATOM      3  C2  UNL     1      20.909  44.751  19.523  0.00  0.00    +0.317 C 
ATOM      4  O2  UNL     1      19.699  44.914  19.599  0.00  0.00    -0.250 OA
ATOM      5  C3  UNL     1      21.838  45.263  18.439  0.00  0.00    +0.096 C 
ATOM      6  S1  UNL     1      20.982  46.369  17.271  0.00  0.00    -0.114 S 
ATOM      7  C4  UNL     1      22.260  46.563  16.043  0.00  0.00    +0.009 A 
ATOM      8  C5  UNL     1      21.984  46.215  14.715  0.00  0.00    -0.045 A 
ATOM      9  C6  UNL     1      22.961  46.359  13.727  0.00  0.00    -0.019 A 
ATOM     10  C7  UNL     1      24.212  46.861  14.071  0.00  0.00    +0.117 A 
ATOM     11  O3  UNL     1      25.195  47.017  13.141  0.00  0.00    -0.507 OA
ATOM     12  C8  UNL     1      24.497  47.222  15.382  0.00  0.00    -0.019 A 
ATOM     13  C9  UNL     1      23.519  47.079  16.369  0.00  0.00    -0.045 A 
ATOM     14  H   UNL     1      25.036  46.783  12.247  0.00  0.00    +0.000 HD
ENDROOT
TORSDOF 0
ENDMDL
MODEL 7
REMARK VINA RESULT:    -2.240      2.672      2.740
REMARK INTER + INTRA:          -2.240
REMARK INTER:                  -2.240
REMARK INTRA:                   0.000
REMARK UNBOUND:                 0.000
REMARK  Name = /home/vital/Documents/PhD_2021/Malaria_codes/scripts/../data/pdbqt_ligands/ligand_473_temp.pdb
REMARK                            x       y       z     vdW  Elec       q    Type
REMARK                         _______ _______ _______ _____ _____    ______ ____
ROOT
ATOM      1  C1  UNL     1      19.921  32.180  16.154  0.00  0.00    +0.082 C 
ATOM      2  O1  UNL     1      19.267  30.923  16.347  0.00  0.00    -0.467 OA
ATOM      3  C2  UNL     1      19.081  30.210  15.192  0.00  0.00    +0.317 C 
ATOM      4  O2  UNL     1      19.424  30.597  14.084  0.00  0.00    -0.250 OA
ATOM      5  C3  UNL     1      18.376  28.912  15.534  0.00  0.00    +0.096 C 
ATOM      6  S1  UNL     1      18.227  27.812  14.089  0.00  0.00    -0.114 S 
ATOM      7  C4  UNL     1      17.167  26.553  14.773  0.00  0.00    +0.009 A 
ATOM      8  C5  UNL     1      15.950  26.273  14.140  0.00  0.00    -0.045 A 
ATOM      9  C6  UNL     1      15.097  25.289  14.646  0.00  0.00    -0.019 A 
ATOM     10  C7  UNL     1      15.472  24.580  15.782  0.00  0.00    +0.117 A 
ATOM     11  O3  UNL     1      14.672  23.612  16.311  0.00  0.00    -0.507 OA
ATOM     12  C8  UNL     1      16.682  24.836  16.414  0.00  0.00    -0.019 A 
ATOM     13  C9  UNL     1      17.534  25.820  15.907  0.00  0.00    -0.045 A 
ATOM     14  H   UNL     1      13.848  23.413  15.910  0.00  0.00    +0.000 HD
ENDROOT
TORSDOF 0
ENDMDL
MODEL 8
REMARK VINA RESULT:    -2.170      2.553      6.283
REMARK INTER + INTRA:          -2.170
REMARK INTER:                  -2.170
REMARK INTRA:                   0.000
REMARK UNBOUND:                 0.000
REMARK  Name = /home/vital/Documents/PhD_2021/Malaria_codes/scripts/../data/pdbqt_ligands/ligand_473_temp.pdb
REMARK                            x       y       z     vdW  Elec       q    Type
REMARK                         _______ _______ _______ _____ _____    ______ ____
ROOT
ATOM      1  C1  UNL     1      17.731  23.670  20.261  0.00  0.00    +0.082 C 
ATOM      2  O1  UNL     1      17.209  24.712  19.432  0.00  0.00    -0.467 OA
ATOM      3  C2  UNL     1      16.802  24.287  18.196  0.00  0.00    +0.317 C 
ATOM      4  O2  UNL     1      16.875  23.129  17.809  0.00  0.00    -0.250 OA
ATOM      5  C3  UNL     1      16.282  25.482  17.421  0.00  0.00    +0.096 C 
ATOM      6  S1  UNL     1      15.559  24.998  15.820  0.00  0.00    -0.114 S 
ATOM      7  C4  UNL     1      15.299  26.610  15.104  0.00  0.00    +0.009 A 
ATOM      8  C5  UNL     1      15.890  26.908  13.870  0.00  0.00    -0.045 A 
ATOM      9  C6  UNL     1      15.703  28.160  13.278  0.00  0.00    -0.019 A 
ATOM     10  C7  UNL     1      14.915  29.109  13.921  0.00  0.00    +0.117 A 
ATOM     11  O3  UNL     1      14.705  30.342  13.382  0.00  0.00    -0.507 OA
ATOM     12  C8  UNL     1      14.311  28.824  15.139  0.00  0.00    -0.019 A 
ATOM     13  C9  UNL     1      14.498  27.571  15.730  0.00  0.00    -0.045 A 
ATOM     14  H   UNL     1      15.098  30.567  12.561  0.00  0.00    +0.000 HD
ENDROOT
TORSDOF 0
ENDMDL
MODEL 9
REMARK VINA RESULT:    -2.061     19.704     20.668
REMARK INTER + INTRA:          -2.061
REMARK INTER:                  -2.061
REMARK INTRA:                   0.000
REMARK UNBOUND:                 0.000
REMARK  Name = /home/vital/Documents/PhD_2021/Malaria_codes/scripts/../data/pdbqt_ligands/ligand_473_temp.pdb
REMARK                            x       y       z     vdW  Elec       q    Type
REMARK                         _______ _______ _______ _____ _____    ______ ____
ROOT
ATOM      1  C1  UNL     1      29.166  43.154  17.577  0.00  0.00    +0.082 C 
ATOM      2  O1  UNL     1      28.019  43.509  16.802  0.00  0.00    -0.467 OA
ATOM      3  C2  UNL     1      27.461  44.710  17.152  0.00  0.00    +0.317 C 
ATOM      4  O2  UNL     1      27.881  45.426  18.050  0.00  0.00    -0.250 OA
ATOM      5  C3  UNL     1      26.257  44.960  16.265  0.00  0.00    +0.096 C 
ATOM      6  S1  UNL     1      25.538  46.612  16.537  0.00  0.00    -0.114 S 
ATOM      7  C4  UNL     1      24.057  46.464  15.556  0.00  0.00    +0.009 A 
ATOM      8  C5  UNL     1      22.815  46.673  16.168  0.00  0.00    -0.045 A 
ATOM      9  C6  UNL     1      21.634  46.570  15.428  0.00  0.00    -0.019 A 
ATOM     10  C7  UNL     1      21.702  46.267  14.072  0.00  0.00    +0.117 A 
ATOM     11  O3  UNL     1      20.577  46.156  13.311  0.00  0.00    -0.507 OA
ATOM     12  C8  UNL     1      22.927  46.071  13.448  0.00  0.00    -0.019 A 
ATOM     13  C9  UNL     1      24.107  46.175  14.189  0.00  0.00    -0.045 A 
ATOM     14  H   UNL     1      19.734  46.283  13.701  0.00  0.00    +0.000 HD
ENDROOT
TORSDOF 0
ENDMDL
