MODEL 1
REMARK VINA RESULT:    -3.452      0.000      0.000
REMARK INTER + INTRA:          -3.452
REMARK INTER:                  -3.452
REMARK INTRA:                   0.000
REMARK UNBOUND:                 0.000
REMARK  Name = /home/vital/Documents/PhD_2021/Malaria_codes/scripts/../data/pdbqt_ligands/ligand_470_temp.pdb
REMARK                            x       y       z     vdW  Elec       q    Type
REMARK                         _______ _______ _______ _____ _____    ______ ____
ROOT
ATOM      1  C1  UNL     1      14.135  34.181  19.113  0.00  0.00    -0.116 C 
ATOM      2  C2  UNL     1      14.949  33.385  18.731  0.00  0.00    -0.062 C 
ATOM      3  C3  UNL     1      15.948  32.400  18.265  0.00  0.00    +0.160 C 
ATOM      4  C4  UNL     1      16.804  33.025  17.150  0.00  0.00    -0.007 C 
ATOM      5  C5  UNL     1      17.956  32.120  16.733  0.00  0.00    -0.061 C 
ATOM      6  O1  UNL     1      15.277  31.258  17.717  0.00  0.00    -0.475 OA
ATOM      7  C6  UNL     1      15.139  30.145  18.501  0.00  0.00    +0.140 A 
ATOM      8  C7  UNL     1      14.989  30.215  19.892  0.00  0.00    +0.023 A 
ATOM      9  C8  UNL     1      14.814  29.054  20.638  0.00  0.00    +0.124 A 
ATOM     10  O2  UNL     1      14.682  29.183  21.989  0.00  0.00    -0.507 OA
ATOM     11  C9  UNL     1      14.768  27.812  20.023  0.00  0.00    +0.023 A 
ATOM     12  C10 UNL     1      14.893  27.731  18.634  0.00  0.00    +0.146 A 
ATOM     13  O3  UNL     1      14.820  26.460  18.122  0.00  0.00    -0.451 OA
ATOM     14  C11 UNL     1      14.900  26.293  16.763  0.00  0.00    +0.180 A 
ATOM     15  C12 UNL     1      14.787  24.992  16.263  0.00  0.00    +0.160 A 
ATOM     16  O4  UNL     1      14.602  23.956  17.139  0.00  0.00    -0.503 OA
ATOM     17  C13 UNL     1      14.860  24.742  14.892  0.00  0.00    -0.016 A 
ATOM     18  C14 UNL     1      15.049  25.804  14.007  0.00  0.00    -0.057 A 
ATOM     19  C15 UNL     1      15.165  27.106  14.496  0.00  0.00    -0.047 A 
ATOM     20  C16 UNL     1      15.088  27.345  15.874  0.00  0.00    +0.068 A 
ATOM     21  C17 UNL     1      15.211  28.712  16.402  0.00  0.00    +0.204 A 
ATOM     22  O5  UNL     1      15.427  29.633  15.625  0.00  0.00    -0.286 OA
ATOM     23  C18 UNL     1      15.076  28.888  17.868  0.00  0.00    +0.106 A 
ATOM     24  H   UNL     1      14.716  30.032  22.384  0.00  0.00    +0.000 HD
ATOM     25  H   UNL     1      14.552  24.124  18.059  0.00  0.00    +0.000 HD
ENDROOT
TORSDOF 0
ENDMDL
MODEL 2
REMARK VINA RESULT:    -3.370      5.059      5.936
REMARK INTER + INTRA:          -3.370
REMARK INTER:                  -3.370
REMARK INTRA:                   0.000
REMARK UNBOUND:                 0.000
REMARK  Name = /home/vital/Documents/PhD_2021/Malaria_codes/scripts/../data/pdbqt_ligands/ligand_470_temp.pdb
REMARK                            x       y       z     vdW  Elec       q    Type
REMARK                         _______ _______ _______ _____ _____    ______ ____
ROOT
ATOM      1  C1  UNL     1      23.352  29.662  16.402  0.00  0.00    -0.116 C 
ATOM      2  C2  UNL     1      22.820  28.808  15.744  0.00  0.00    -0.062 C 
ATOM      3  C3  UNL     1      22.164  27.756  14.941  0.00  0.00    +0.160 C 
ATOM      4  C4  UNL     1      22.319  28.079  13.446  0.00  0.00    -0.007 C 
ATOM      5  C5  UNL     1      21.802  26.954  12.557  0.00  0.00    -0.061 C 
ATOM      6  O1  UNL     1      20.762  27.725  15.242  0.00  0.00    -0.475 OA
ATOM      7  C6  UNL     1      20.304  26.780  16.118  0.00  0.00    +0.140 A 
ATOM      8  C7  UNL     1      21.074  26.307  17.189  0.00  0.00    +0.023 A 
ATOM      9  C8  UNL     1      20.545  25.372  18.074  0.00  0.00    +0.124 A 
ATOM     10  O2  UNL     1      21.344  24.942  19.092  0.00  0.00    -0.507 OA
ATOM     11  C9  UNL     1      19.248  24.904  17.925  0.00  0.00    +0.023 A 
ATOM     12  C10 UNL     1      18.464  25.386  16.875  0.00  0.00    +0.146 A 
ATOM     13  O3  UNL     1      17.192  24.871  16.823  0.00  0.00    -0.451 OA
ATOM     14  C11 UNL     1      16.343  25.316  15.842  0.00  0.00    +0.180 A 
ATOM     15  C12 UNL     1      15.041  24.804  15.832  0.00  0.00    +0.160 A 
ATOM     16  O4  UNL     1      14.676  23.896  16.790  0.00  0.00    -0.503 OA
ATOM     17  C13 UNL     1      14.120  25.206  14.864  0.00  0.00    -0.016 A 
ATOM     18  C14 UNL     1      14.501  26.131  13.892  0.00  0.00    -0.057 A 
ATOM     19  C15 UNL     1      15.798  26.648  13.893  0.00  0.00    -0.047 A 
ATOM     20  C16 UNL     1      16.713  26.237  14.870  0.00  0.00    +0.068 A 
ATOM     21  C17 UNL     1      18.084  26.771  14.879  0.00  0.00    +0.204 A 
ATOM     22  O5  UNL     1      18.428  27.545  13.994  0.00  0.00    -0.286 OA
ATOM     23  C18 UNL     1      18.980  26.321  15.971  0.00  0.00    +0.106 A 
ATOM     24  H   UNL     1      22.217  25.272  19.174  0.00  0.00    +0.000 HD
ATOM     25  H   UNL     1      15.294  23.626  17.439  0.00  0.00    +0.000 HD
ENDROOT
TORSDOF 0
ENDMDL
MODEL 3
REMARK VINA RESULT:    -3.339      0.990      1.084
REMARK INTER + INTRA:          -3.339
REMARK INTER:                  -3.339
REMARK INTRA:                   0.000
REMARK UNBOUND:                 0.000
REMARK  Name = /home/vital/Documents/PhD_2021/Malaria_codes/scripts/../data/pdbqt_ligands/ligand_470_temp.pdb
REMARK                            x       y       z     vdW  Elec       q    Type
REMARK                         _______ _______ _______ _____ _____    ______ ____
ROOT
ATOM      1  C1  UNL     1      14.851  34.583  17.271  0.00  0.00    -0.116 C 
ATOM      2  C2  UNL     1      15.593  33.658  17.076  0.00  0.00    -0.062 C 
ATOM      3  C3  UNL     1      16.500  32.515  16.841  0.00  0.00    +0.160 C 
ATOM      4  C4  UNL     1      17.430  32.833  15.658  0.00  0.00    -0.007 C 
ATOM      5  C5  UNL     1      18.497  31.764  15.460  0.00  0.00    -0.061 C 
ATOM      6  O1  UNL     1      15.733  31.354  16.498  0.00  0.00    -0.475 OA
ATOM      7  C6  UNL     1      15.476  30.430  17.474  0.00  0.00    +0.140 A 
ATOM      8  C7  UNL     1      15.311  30.781  18.820  0.00  0.00    +0.023 A 
ATOM      9  C8  UNL     1      15.014  29.807  19.768  0.00  0.00    +0.124 A 
ATOM     10  O2  UNL     1      14.873  30.206  21.064  0.00  0.00    -0.507 OA
ATOM     11  C9  UNL     1      14.860  28.479  19.400  0.00  0.00    +0.023 A 
ATOM     12  C10 UNL     1      14.999  28.121  18.057  0.00  0.00    +0.146 A 
ATOM     13  O3  UNL     1      14.814  26.786  17.794  0.00  0.00    -0.451 OA
ATOM     14  C11 UNL     1      14.900  26.354  16.495  0.00  0.00    +0.180 A 
ATOM     15  C12 UNL     1      14.671  24.996  16.249  0.00  0.00    +0.160 A 
ATOM     16  O4  UNL     1      14.374  24.170  17.299  0.00  0.00    -0.503 OA
ATOM     17  C13 UNL     1      14.743  24.480  14.953  0.00  0.00    -0.016 A 
ATOM     18  C14 UNL     1      15.047  25.330  13.890  0.00  0.00    -0.057 A 
ATOM     19  C15 UNL     1      15.278  26.686  14.125  0.00  0.00    -0.047 A 
ATOM     20  C16 UNL     1      15.202  27.192  15.429  0.00  0.00    +0.068 A 
ATOM     21  C17 UNL     1      15.446  28.619  15.691  0.00  0.00    +0.204 A 
ATOM     22  O5  UNL     1      15.762  29.350  14.760  0.00  0.00    -0.286 OA
ATOM     23  C18 UNL     1      15.305  29.086  17.091  0.00  0.00    +0.106 A 
ATOM     24  H   UNL     1      14.981  31.109  21.291  0.00  0.00    +0.000 HD
ATOM     25  H   UNL     1      14.326  24.516  18.168  0.00  0.00    +0.000 HD
ENDROOT
TORSDOF 0
ENDMDL
MODEL 4
REMARK VINA RESULT:    -3.328      2.984      6.650
REMARK INTER + INTRA:          -3.328
REMARK INTER:                  -3.328
REMARK INTRA:                   0.000
REMARK UNBOUND:                 0.000
REMARK  Name = /home/vital/Documents/PhD_2021/Malaria_codes/scripts/../data/pdbqt_ligands/ligand_470_temp.pdb
REMARK                            x       y       z     vdW  Elec       q    Type
REMARK                         _______ _______ _______ _____ _____    ______ ____
ROOT
ATOM      1  C1  UNL     1      17.494  23.645  18.529  0.00  0.00    -0.116 C 
ATOM      2  C2  UNL     1      17.963  24.530  17.865  0.00  0.00    -0.062 C 
ATOM      3  C3  UNL     1      18.533  25.618  17.044  0.00  0.00    +0.160 C 
ATOM      4  C4  UNL     1      19.838  26.117  17.688  0.00  0.00    -0.007 C 
ATOM      5  C5  UNL     1      20.562  27.131  16.812  0.00  0.00    -0.061 C 
ATOM      6  O1  UNL     1      17.616  26.719  17.000  0.00  0.00    -0.475 OA
ATOM      7  C6  UNL     1      16.813  26.855  15.900  0.00  0.00    +0.140 A 
ATOM      8  C7  UNL     1      16.340  25.756  15.171  0.00  0.00    +0.023 A 
ATOM      9  C8  UNL     1      15.495  25.948  14.082  0.00  0.00    +0.124 A 
ATOM     10  O2  UNL     1      15.073  24.842  13.405  0.00  0.00    -0.507 OA
ATOM     11  C9  UNL     1      15.093  27.222  13.708  0.00  0.00    +0.023 A 
ATOM     12  C10 UNL     1      15.540  28.323  14.442  0.00  0.00    +0.146 A 
ATOM     13  O3  UNL     1      15.076  29.537  14.001  0.00  0.00    -0.451 OA
ATOM     14  C11 UNL     1      15.438  30.668  14.686  0.00  0.00    +0.180 A 
ATOM     15  C12 UNL     1      14.922  31.889  14.238  0.00  0.00    +0.160 A 
ATOM     16  O4  UNL     1      14.088  31.901  13.153  0.00  0.00    -0.503 OA
ATOM     17  C13 UNL     1      15.248  33.084  14.882  0.00  0.00    -0.016 A 
ATOM     18  C14 UNL     1      16.100  33.062  15.986  0.00  0.00    -0.057 A 
ATOM     19  C15 UNL     1      16.621  31.849  16.440  0.00  0.00    -0.047 A 
ATOM     20  C16 UNL     1      16.286  30.656  15.787  0.00  0.00    +0.068 A 
ATOM     21  C17 UNL     1      16.831  29.372  16.253  0.00  0.00    +0.204 A 
ATOM     22  O5  UNL     1      17.618  29.365  17.192  0.00  0.00    -0.286 OA
ATOM     23  C18 UNL     1      16.396  28.150  15.536  0.00  0.00    +0.106 A 
ATOM     24  H   UNL     1      15.357  23.991  13.675  0.00  0.00    +0.000 HD
ATOM     25  H   UNL     1      13.869  31.099  12.721  0.00  0.00    +0.000 HD
ENDROOT
TORSDOF 0
ENDMDL
MODEL 5
REMARK VINA RESULT:    -3.244      2.748      3.117
REMARK INTER + INTRA:          -3.244
REMARK INTER:                  -3.244
REMARK INTRA:                   0.000
REMARK UNBOUND:                 0.000
REMARK  Name = /home/vital/Documents/PhD_2021/Malaria_codes/scripts/../data/pdbqt_ligands/ligand_470_temp.pdb
REMARK                            x       y       z     vdW  Elec       q    Type
REMARK                         _______ _______ _______ _____ _____    ______ ____
ROOT
ATOM      1  C1  UNL     1      14.921  34.459  16.786  0.00  0.00    -0.116 C 
ATOM      2  C2  UNL     1      15.267  33.636  15.983  0.00  0.00    -0.062 C 
ATOM      3  C3  UNL     1      15.698  32.619  15.001  0.00  0.00    +0.160 C 
ATOM      4  C4  UNL     1      14.939  32.827  13.680  0.00  0.00    -0.007 C 
ATOM      5  C5  UNL     1      15.448  31.912  12.573  0.00  0.00    -0.061 C 
ATOM      6  O1  UNL     1      15.378  31.311  15.491  0.00  0.00    -0.475 OA
ATOM      7  C6  UNL     1      16.368  30.575  16.084  0.00  0.00    +0.140 A 
ATOM      8  C7  UNL     1      17.409  31.162  16.815  0.00  0.00    +0.023 A 
ATOM      9  C8  UNL     1      18.370  30.366  17.430  0.00  0.00    +0.124 A 
ATOM     10  O2  UNL     1      19.365  30.993  18.121  0.00  0.00    -0.507 OA
ATOM     11  C9  UNL     1      18.310  28.983  17.345  0.00  0.00    +0.023 A 
ATOM     12  C10 UNL     1      17.264  28.386  16.637  0.00  0.00    +0.146 A 
ATOM     13  O3  UNL     1      17.287  27.013  16.624  0.00  0.00    -0.451 OA
ATOM     14  C11 UNL     1      16.277  26.346  15.980  0.00  0.00    +0.180 A 
ATOM     15  C12 UNL     1      16.303  24.947  16.012  0.00  0.00    +0.160 A 
ATOM     16  O4  UNL     1      17.319  24.316  16.677  0.00  0.00    -0.503 OA
ATOM     17  C13 UNL     1      15.311  24.198  15.378  0.00  0.00    -0.016 A 
ATOM     18  C14 UNL     1      14.280  24.850  14.702  0.00  0.00    -0.057 A 
ATOM     19  C15 UNL     1      14.246  26.245  14.663  0.00  0.00    -0.047 A 
ATOM     20  C16 UNL     1      15.246  26.987  15.305  0.00  0.00    +0.068 A 
ATOM     21  C17 UNL     1      15.223  28.458  15.269  0.00  0.00    +0.204 A 
ATOM     22  O5  UNL     1      14.343  29.024  14.631  0.00  0.00    -0.286 OA
ATOM     23  C18 UNL     1      16.292  29.171  16.007  0.00  0.00    +0.106 A 
ATOM     24  H   UNL     1      19.386  31.929  18.166  0.00  0.00    +0.000 HD
ATOM     25  H   UNL     1      17.985  24.819  17.103  0.00  0.00    +0.000 HD
ENDROOT
TORSDOF 0
ENDMDL
MODEL 6
REMARK VINA RESULT:    -3.226     17.986     19.595
REMARK INTER + INTRA:          -3.226
REMARK INTER:                  -3.226
REMARK INTRA:                   0.000
REMARK UNBOUND:                 0.000
REMARK  Name = /home/vital/Documents/PhD_2021/Malaria_codes/scripts/../data/pdbqt_ligands/ligand_470_temp.pdb
REMARK                            x       y       z     vdW  Elec       q    Type
REMARK                         _______ _______ _______ _____ _____    ______ ____
ROOT
ATOM      1  C1  UNL     1      25.206  47.269  12.330  0.00  0.00    -0.116 C 
ATOM      2  C2  UNL     1      24.366  46.604  12.874  0.00  0.00    -0.062 C 
ATOM      3  C3  UNL     1      23.337  45.787  13.551  0.00  0.00    +0.160 C 
ATOM      4  C4  UNL     1      22.143  45.579  12.604  0.00  0.00    -0.007 C 
ATOM      5  C5  UNL     1      21.114  44.613  13.178  0.00  0.00    -0.061 C 
ATOM      6  O1  UNL     1      22.861  46.478  14.712  0.00  0.00    -0.475 OA
ATOM      7  C6  UNL     1      23.367  46.126  15.934  0.00  0.00    +0.140 A 
ATOM      8  C7  UNL     1      24.682  45.671  16.103  0.00  0.00    +0.023 A 
ATOM      9  C8  UNL     1      25.159  45.362  17.373  0.00  0.00    +0.124 A 
ATOM     10  O2  UNL     1      26.444  44.917  17.476  0.00  0.00    -0.507 OA
ATOM     11  C9  UNL     1      24.354  45.511  18.493  0.00  0.00    +0.023 A 
ATOM     12  C10 UNL     1      23.049  45.985  18.338  0.00  0.00    +0.146 A 
ATOM     13  O3  UNL     1      22.339  46.110  19.507  0.00  0.00    -0.451 OA
ATOM     14  C11 UNL     1      21.060  46.601  19.450  0.00  0.00    +0.180 A 
ATOM     15  C12 UNL     1      20.371  46.753  20.657  0.00  0.00    +0.160 A 
ATOM     16  O4  UNL     1      20.995  46.413  21.827  0.00  0.00    -0.503 OA
ATOM     17  C13 UNL     1      19.065  47.245  20.680  0.00  0.00    -0.016 A 
ATOM     18  C14 UNL     1      18.437  47.588  19.483  0.00  0.00    -0.057 A 
ATOM     19  C15 UNL     1      19.115  47.439  18.272  0.00  0.00    -0.047 A 
ATOM     20  C16 UNL     1      20.426  46.946  18.262  0.00  0.00    +0.068 A 
ATOM     21  C17 UNL     1      21.152  46.781  16.993  0.00  0.00    +0.204 A 
ATOM     22  O5  UNL     1      20.577  47.038  15.941  0.00  0.00    -0.286 OA
ATOM     23  C18 UNL     1      22.550  46.295  17.068  0.00  0.00    +0.106 A 
ATOM     24  H   UNL     1      26.970  44.824  16.707  0.00  0.00    +0.000 HD
ATOM     25  H   UNL     1      21.872  46.083  21.812  0.00  0.00    +0.000 HD
ENDROOT
TORSDOF 0
ENDMDL
MODEL 7
REMARK VINA RESULT:    -3.122      2.378      5.720
REMARK INTER + INTRA:          -3.122
REMARK INTER:                  -3.122
REMARK INTRA:                   0.000
REMARK UNBOUND:                 0.000
REMARK  Name = /home/vital/Documents/PhD_2021/Malaria_codes/scripts/../data/pdbqt_ligands/ligand_470_temp.pdb
REMARK                            x       y       z     vdW  Elec       q    Type
REMARK                         _______ _______ _______ _____ _____    ______ ____
ROOT
ATOM      1  C1  UNL     1      20.050  27.311  13.786  0.00  0.00    -0.116 C 
ATOM      2  C2  UNL     1      18.888  27.496  14.027  0.00  0.00    -0.062 C 
ATOM      3  C3  UNL     1      17.459  27.718  14.330  0.00  0.00    +0.160 C 
ATOM      4  C4  UNL     1      16.926  28.876  13.470  0.00  0.00    -0.007 C 
ATOM      5  C5  UNL     1      15.420  29.057  13.616  0.00  0.00    -0.061 C 
ATOM      6  O1  UNL     1      17.310  28.088  15.707  0.00  0.00    -0.475 OA
ATOM      7  C6  UNL     1      16.936  27.125  16.604  0.00  0.00    +0.140 A 
ATOM      8  C7  UNL     1      17.304  25.780  16.465  0.00  0.00    +0.023 A 
ATOM      9  C8  UNL     1      16.929  24.847  17.427  0.00  0.00    +0.124 A 
ATOM     10  O2  UNL     1      17.308  23.551  17.235  0.00  0.00    -0.507 OA
ATOM     11  C9  UNL     1      16.201  25.229  18.544  0.00  0.00    +0.023 A 
ATOM     12  C10 UNL     1      15.848  26.571  18.704  0.00  0.00    +0.146 A 
ATOM     13  O3  UNL     1      15.140  26.848  19.848  0.00  0.00    -0.451 OA
ATOM     14  C11 UNL     1      14.783  28.147  20.101  0.00  0.00    +0.180 A 
ATOM     15  C12 UNL     1      14.095  28.409  21.291  0.00  0.00    +0.160 A 
ATOM     16  O4  UNL     1      13.815  27.373  22.139  0.00  0.00    -0.503 OA
ATOM     17  C13 UNL     1      13.695  29.706  21.617  0.00  0.00    -0.016 A 
ATOM     18  C14 UNL     1      13.985  30.756  20.745  0.00  0.00    -0.057 A 
ATOM     19  C15 UNL     1      14.670  30.505  19.555  0.00  0.00    -0.047 A 
ATOM     20  C16 UNL     1      15.067  29.200  19.239  0.00  0.00    +0.068 A 
ATOM     21  C17 UNL     1      15.787  28.921  17.986  0.00  0.00    +0.204 A 
ATOM     22  O5  UNL     1      15.993  29.840  17.202  0.00  0.00    -0.286 OA
ATOM     23  C18 UNL     1      16.211  27.522  17.744  0.00  0.00    +0.106 A 
ATOM     24  H   UNL     1      17.800  23.316  16.473  0.00  0.00    +0.000 HD
ATOM     25  H   UNL     1      14.083  26.502  21.920  0.00  0.00    +0.000 HD
ENDROOT
TORSDOF 0
ENDMDL
MODEL 8
REMARK VINA RESULT:    -3.065      1.944      3.935
REMARK INTER + INTRA:          -3.065
REMARK INTER:                  -3.065
REMARK INTRA:                   0.000
REMARK UNBOUND:                 0.000
REMARK  Name = /home/vital/Documents/PhD_2021/Malaria_codes/scripts/../data/pdbqt_ligands/ligand_470_temp.pdb
REMARK                            x       y       z     vdW  Elec       q    Type
REMARK                         _______ _______ _______ _____ _____    ______ ____
ROOT
ATOM      1  C1  UNL     1      17.833  33.581  17.015  0.00  0.00    -0.116 C 
ATOM      2  C2  UNL     1      17.002  32.775  17.338  0.00  0.00    -0.062 C 
ATOM      3  C3  UNL     1      15.980  31.781  17.726  0.00  0.00    +0.160 C 
ATOM      4  C4  UNL     1      15.847  31.754  19.258  0.00  0.00    -0.007 C 
ATOM      5  C5  UNL     1      14.700  30.865  19.721  0.00  0.00    -0.061 C 
ATOM      6  O1  UNL     1      16.391  30.476  17.297  0.00  0.00    -0.475 OA
ATOM      7  C6  UNL     1      15.860  29.973  16.141  0.00  0.00    +0.140 A 
ATOM      8  C7  UNL     1      15.504  30.787  15.057  0.00  0.00    +0.023 A 
ATOM      9  C8  UNL     1      15.004  30.220  13.889  0.00  0.00    +0.124 A 
ATOM     10  O2  UNL     1      14.667  31.062  12.870  0.00  0.00    -0.507 OA
ATOM     11  C9  UNL     1      14.862  28.846  13.767  0.00  0.00    +0.023 A 
ATOM     12  C10 UNL     1      15.235  28.023  14.833  0.00  0.00    +0.146 A 
ATOM     13  O3  UNL     1      15.069  26.679  14.608  0.00  0.00    -0.451 OA
ATOM     14  C11 UNL     1      15.442  25.798  15.590  0.00  0.00    +0.180 A 
ATOM     15  C12 UNL     1      15.298  24.432  15.324  0.00  0.00    +0.160 A 
ATOM     16  O4  UNL     1      14.799  24.041  14.110  0.00  0.00    -0.503 OA
ATOM     17  C13 UNL     1      15.653  23.474  16.275  0.00  0.00    -0.016 A 
ATOM     18  C14 UNL     1      16.160  23.883  17.508  0.00  0.00    -0.057 A 
ATOM     19  C15 UNL     1      16.307  25.243  17.785  0.00  0.00    -0.047 A 
ATOM     20  C16 UNL     1      15.948  26.195  16.822  0.00  0.00    +0.068 A 
ATOM     21  C17 UNL     1      16.095  27.632  17.103  0.00  0.00    +0.204 A 
ATOM     22  O5  UNL     1      16.493  27.985  18.206  0.00  0.00    -0.286 OA
ATOM     23  C18 UNL     1      15.734  28.575  16.018  0.00  0.00    +0.106 A 
ATOM     24  H   UNL     1      14.772  31.988  12.974  0.00  0.00    +0.000 HD
ATOM     25  H   UNL     1      14.560  24.684  13.472  0.00  0.00    +0.000 HD
ENDROOT
TORSDOF 0
ENDMDL
MODEL 9
REMARK VINA RESULT:    -2.718      1.823      6.031
REMARK INTER + INTRA:          -2.718
REMARK INTER:                  -2.718
REMARK INTRA:                   0.000
REMARK UNBOUND:                 0.000
REMARK  Name = /home/vital/Documents/PhD_2021/Malaria_codes/scripts/../data/pdbqt_ligands/ligand_470_temp.pdb
REMARK                            x       y       z     vdW  Elec       q    Type
REMARK                         _______ _______ _______ _____ _____    ______ ____
ROOT
ATOM      1  C1  UNL     1      17.505  23.587  17.685  0.00  0.00    -0.116 C 
ATOM      2  C2  UNL     1      16.619  24.332  17.362  0.00  0.00    -0.062 C 
ATOM      3  C3  UNL     1      15.532  25.253  16.970  0.00  0.00    +0.160 C 
ATOM      4  C4  UNL     1      14.920  24.788  15.638  0.00  0.00    -0.007 C 
ATOM      5  C5  UNL     1      13.690  25.600  15.254  0.00  0.00    -0.061 C 
ATOM      6  O1  UNL     1      16.064  26.569  16.774  0.00  0.00    -0.475 OA
ATOM      7  C6  UNL     1      15.929  27.484  17.783  0.00  0.00    +0.140 A 
ATOM      8  C7  UNL     1      15.931  27.120  19.136  0.00  0.00    +0.023 A 
ATOM      9  C8  UNL     1      15.830  28.095  20.124  0.00  0.00    +0.124 A 
ATOM     10  O2  UNL     1      15.829  27.681  21.424  0.00  0.00    -0.507 OA
ATOM     11  C9  UNL     1      15.741  29.439  19.793  0.00  0.00    +0.023 A 
ATOM     12  C10 UNL     1      15.761  29.814  18.448  0.00  0.00    +0.146 A 
ATOM     13  O3  UNL     1      15.681  31.167  18.226  0.00  0.00    -0.451 OA
ATOM     14  C11 UNL     1      15.729  31.625  16.935  0.00  0.00    +0.180 A 
ATOM     15  C12 UNL     1      15.683  33.009  16.737  0.00  0.00    +0.160 A 
ATOM     16  O4  UNL     1      15.597  33.834  17.826  0.00  0.00    -0.503 OA
ATOM     17  C13 UNL     1      15.724  33.551  15.451  0.00  0.00    -0.016 A 
ATOM     18  C14 UNL     1      15.812  32.702  14.348  0.00  0.00    -0.057 A 
ATOM     19  C15 UNL     1      15.857  31.320  14.534  0.00  0.00    -0.047 A 
ATOM     20  C16 UNL     1      15.816  30.787  15.829  0.00  0.00    +0.068 A 
ATOM     21  C17 UNL     1      15.860  29.332  16.039  0.00  0.00    +0.204 A 
ATOM     22  O5  UNL     1      15.886  28.590  15.064  0.00  0.00    -0.286 OA
ATOM     23  C18 UNL     1      15.856  28.848  17.440  0.00  0.00    +0.106 A 
ATOM     24  H   UNL     1      15.890  26.768  21.625  0.00  0.00    +0.000 HD
ATOM     25  H   UNL     1      15.569  33.470  18.689  0.00  0.00    +0.000 HD
ENDROOT
TORSDOF 0
ENDMDL
