REMARK  Name = ligand_248.pdb
REMARK  10 active torsions:
REMARK  status: ('A' for Active; 'I' for Inactive)
REMARK    1  A    between atoms: C1_1  and  C2_2
REMARK    2  A    between atoms: C2_2  and  C3_3
REMARK    3  A    between atoms: C2_2  and  C4_4
REMARK    4  A    between atoms: C4_4  and  C5_5
REMARK    5  A    between atoms: C5_5  and  C6_6
REMARK    6  A    between atoms: C6_6  and  C7_7
REMARK    7  A    between atoms: C7_7  and  C8_8
REMARK    8  A    between atoms: C7_7  and  C9_9
REMARK    9  A    between atoms: C21_23  and  C22_24
REMARK   10  A    between atoms: C26_28  and  C27_29
REMARK                            x       y       z     vdW  Elec       q    Type
REMARK                         _______ _______ _______ _____ _____    ______ ____
ROOT
ATOM      1  C9  UNL     1      -1.248   1.632   1.244  0.00  0.00    -0.002 C 
ATOM      2  C10 UNL     1      -0.499   2.801   0.590  0.00  0.00    +0.004 C 
ATOM      3  C11 UNL     1       0.991   2.521   0.821  0.00  0.00    +0.004 C 
ATOM      4  C12 UNL     1       1.072   1.168   1.554  0.00  0.00    -0.001 C 
ATOM      5  C13 UNL     1       2.359   0.350   1.308  0.00  0.00    +0.003 C 
ATOM      6  C14 UNL     1       3.607   1.174   1.650  0.00  0.00    +0.078 C 
ATOM      7  C15 UNL     1       4.858   0.380   1.361  0.00  0.00    +0.138 C 
ATOM      8  O1  UNL     1       5.741   0.230   2.201  0.00  0.00    -0.297 OA
ATOM      9  C16 UNL     1       4.963  -0.159  -0.053  0.00  0.00    +0.068 C 
ATOM     10  C17 UNL     1       6.323  -0.796  -0.328  0.00  0.00    +0.086 C 
ATOM     11  C18 UNL     1       6.364  -1.275  -1.757  0.00  0.00    +0.134 C 
ATOM     12  O2  UNL     1       7.322  -1.038  -2.491  0.00  0.00    -0.297 OA
ATOM     13  C19 UNL     1       5.215  -2.143  -2.217  0.00  0.00    +0.075 C 
ATOM     14  C20 UNL     1       3.868  -1.523  -1.846  0.00  0.00    +0.015 C 
ATOM     15  C21 UNL     1       3.755  -1.095  -0.353  0.00  0.00    -0.019 C 
ATOM     16  C22 UNL     1       3.785  -2.365   0.533  0.00  0.00    +0.012 C 
ATOM     17  C23 UNL     1       2.430  -0.263  -0.120  0.00  0.00    -0.001 C 
ATOM     18  C24 UNL     1       1.138  -1.052  -0.412  0.00  0.00    +0.005 C 
ATOM     19  C25 UNL     1      -0.112  -0.186  -0.241  0.00  0.00    +0.007 C 
ATOM     20  C26 UNL     1      -0.240   0.442   1.162  0.00  0.00    -0.026 C 
ATOM     21  C27 UNL     1      -0.600  -0.644   2.193  0.00  0.00    +0.012 C 
ENDROOT
BRANCH   1  22
ATOM     22  C7  UNL     1      -2.718   1.404   0.784  0.00  0.00    -0.010 C 
ATOM     23  C8  UNL     1      -3.631   2.402   1.519  0.00  0.00    +0.008 C 
BRANCH  22  24
ATOM     24  C6  UNL     1      -2.964   1.501  -0.739  0.00  0.00    +0.003 C 
BRANCH  24  25
ATOM     25  C5  UNL     1      -4.372   1.111  -1.222  0.00  0.00    +0.001 C 
BRANCH  25  26
ATOM     26  C4  UNL     1      -4.751  -0.339  -0.905  0.00  0.00    +0.003 C 
BRANCH  26  28
ATOM     27  C1  UNL     1      -6.235  -0.724  -2.948  0.00  0.00    +0.007 C 
ATOM     28  C2  UNL     1      -6.148  -0.737  -1.421  0.00  0.00    -0.017 C 
ATOM     29  C3  UNL     1      -6.515  -2.128  -0.898  0.00  0.00    +0.007 C 
ENDBRANCH  26  28
ENDBRANCH  25  26
ENDBRANCH  24  25
ENDBRANCH  22  24
ENDBRANCH   1  22
TORSDOF 5
