REMARK  Name = ligand_471.pdb
REMARK  15 active torsions:
REMARK  status: ('A' for Active; 'I' for Inactive)
REMARK    1  A    between atoms: C1_1  and  C2_2
REMARK    2  A    between atoms: C2_2  and  O1_3
REMARK    3  A    between atoms: O1_3  and  C3_4
REMARK    4  A    between atoms: C3_4  and  C4_6
REMARK    5  A    between atoms: N1_8  and  C6_9
REMARK    6  A    between atoms: C6_9  and  C7_10
REMARK    7  A    between atoms: C10_13  and  N2_14
REMARK    8  A    between atoms: N2_14  and  C11_15
REMARK    9  A    between atoms: N2_14  and  C12_16
REMARK   10  A    between atoms: C12_16  and  C13_17
REMARK   11  A    between atoms: C13_17  and  C14_18
REMARK   12  A    between atoms: C17_21  and  O3_22
REMARK   13  A    between atoms: O3_22  and  C18_23
REMARK   14  A    between atoms: C19_24  and  O4_25
REMARK   15  A    between atoms: O4_25  and  C20_26
REMARK                            x       y       z     vdW  Elec       q    Type
REMARK                         _______ _______ _______ _____ _____    ______ ____
ROOT
ATOM      1  C4  UNL     1       4.927   1.067  -0.232  0.00  0.00    +0.122 A 
ATOM      2  C5  UNL     1       4.976  -0.266  -0.398  0.00  0.00    +0.105 A 
ATOM      3  N1  UNL     1       3.899  -1.142  -0.461  0.00  0.00    -0.346 N 
ATOM      4  C8  UNL     1       2.587  -0.622  -0.353  0.00  0.00    +0.055 A 
ATOM      5  C9  UNL     1       1.419  -1.417  -0.405  0.00  0.00    +0.052 A 
ATOM      6  C10 UNL     1       0.102  -0.904  -0.307  0.00  0.00    +0.067 A 
ATOM      7  C22 UNL     1       0.009   0.494  -0.152  0.00  0.00    +0.145 A 
ATOM      8  F1  UNL     1      -1.182   1.109  -0.076  0.00  0.00    -0.204 F 
ATOM      9  C23 UNL     1       1.129   1.316  -0.087  0.00  0.00    +0.054 A 
ATOM     10  C24 UNL     1       2.405   0.762  -0.185  0.00  0.00    +0.049 A 
ATOM     11  C25 UNL     1       3.579   1.667  -0.092  0.00  0.00    +0.203 A 
ATOM     12  O5  UNL     1       3.409   2.862   0.126  0.00  0.00    -0.286 OA
ENDROOT
BRANCH   1  13
ATOM     13  C3  UNL     1       6.157   1.890  -0.229  0.00  0.00    +0.344 C 
ATOM     14  O2  UNL     1       6.213   3.065  -0.560  0.00  0.00    -0.245 OA
BRANCH  13  15
ATOM     15  O1  UNL     1       7.222   1.148   0.194  0.00  0.00    -0.461 OA
BRANCH  15  17
ATOM     16  C1  UNL     1       8.621   2.521   1.615  0.00  0.00    +0.048 C 
ATOM     17  C2  UNL     1       8.476   1.843   0.264  0.00  0.00    +0.229 C 
ENDBRANCH  15  17
ENDBRANCH  13  15
ENDBRANCH   1  13
BRANCH   3  18
ATOM     18  C6  UNL     1       4.120  -2.592  -0.622  0.00  0.00    +0.118 C 
ATOM     19  C7  UNL     1       4.122  -3.296   0.728  0.00  0.00    +0.027 C 
ENDBRANCH   3  18
BRANCH   6  20
ATOM     20  N2  UNL     1      -1.006  -1.749  -0.375  0.00  0.00    -0.330 N 
ATOM     21  C11 UNL     1      -0.873  -3.165  -0.706  0.00  0.00    +0.129 C 
BRANCH  20  22
ATOM     22  C12 UNL     1      -2.345  -1.308   0.051  0.00  0.00    +0.109 C 
BRANCH  22  23
ATOM     23  C13 UNL     1      -3.166  -0.809  -1.146  0.00  0.00    +0.054 C 
BRANCH  23  24
ATOM     24  C14 UNL     1      -4.532  -0.323  -0.724  0.00  0.00    -0.042 A 
ATOM     25  C15 UNL     1      -5.651  -1.154  -0.837  0.00  0.00    +0.007 A 
ATOM     26  C16 UNL     1      -6.908  -0.707  -0.420  0.00  0.00    +0.049 A 
ATOM     27  C17 UNL     1      -7.063   0.574   0.123  0.00  0.00    +0.161 A 
ATOM     28  C19 UNL     1      -5.941   1.422   0.236  0.00  0.00    +0.162 A 
ATOM     29  C21 UNL     1      -4.686   0.966  -0.185  0.00  0.00    +0.053 A 
BRANCH  27  30
ATOM     30  O3  UNL     1      -8.256   1.088   0.566  0.00  0.00    -0.491 OA
ATOM     31  C18 UNL     1      -9.394   0.238   0.534  0.00  0.00    +0.277 C 
ENDBRANCH  27  30
BRANCH  28  32
ATOM     32  O4  UNL     1      -6.173   2.666   0.773  0.00  0.00    -0.491 OA
ATOM     33  C20 UNL     1      -5.069   3.551   0.888  0.00  0.00    +0.277 C 
ENDBRANCH  28  32
ENDBRANCH  23  24
ENDBRANCH  22  23
ENDBRANCH  20  22
ENDBRANCH   6  20
TORSDOF 10
