REMARK  Name = ligand_554.pdb
REMARK  5 active torsions:
REMARK  status: ('A' for Active; 'I' for Inactive)
REMARK    1  A    between atoms: C4_5  and  S1_8
REMARK    2  A    between atoms: S1_8  and  N1_11
REMARK    3  A    between atoms: C9_14  and  C12_17
REMARK    4  A    between atoms: N2_19  and  C13_20
REMARK    5  A    between atoms: C13_20  and  C14_21
REMARK                            x       y       z     vdW  Elec       q    Type
REMARK                         _______ _______ _______ _____ _____    ______ ____
ROOT
ATOM      1  N1  UNL     1      -0.856   1.445  -0.456  0.00  0.00    -0.177 NA
ATOM      2  C7  UNL     1      -0.919   1.044  -1.897  0.00  0.00    +0.110 C 
ATOM      3  C8  UNL     1       0.278   1.573  -2.692  0.00  0.00    +0.030 C 
ATOM      4  C9  UNL     1       1.535   1.804  -1.850  0.00  0.00    +0.077 C 
ATOM      5  C10 UNL     1       1.258   2.680  -0.619  0.00  0.00    +0.030 C 
ATOM      6  C11 UNL     1      -0.227   2.781  -0.279  0.00  0.00    +0.110 C 
ENDROOT
BRANCH   4   7
ATOM      7  C12 UNL     1       2.210   0.483  -1.480  0.00  0.00    +0.217 C 
ATOM      8  O3  UNL     1       3.290   0.161  -1.970  0.00  0.00    -0.276 OA
ATOM      9  N2  UNL     1       1.515  -0.310  -0.605  0.00  0.00    -0.308 N 
ATOM     10  H14 UNL     1       0.722   0.098  -0.117  0.00  0.00    +0.149 HD
BRANCH   9  11
ATOM     11  C13 UNL     1       2.059  -1.532  -0.061  0.00  0.00    +0.178 C 
BRANCH  11  12
ATOM     12  C14 UNL     1       2.473  -1.268   1.338  0.00  0.00    +0.122 A 
ATOM     13  O4  UNL     1       1.481  -1.261   2.279  0.00  0.00    -0.466 OA
ATOM     14  C15 UNL     1       2.070  -0.983   3.470  0.00  0.00    +0.195 A 
ATOM     15  C16 UNL     1       3.424  -0.815   3.312  0.00  0.00    +0.041 A 
ATOM     16  C17 UNL     1       3.686  -0.995   1.933  0.00  0.00    +0.046 A 
ENDBRANCH  11  12
ENDBRANCH   9  11
ENDBRANCH   4   7
BRANCH   1  17
ATOM     17  S1  UNL     1      -2.346   1.296   0.397  0.00  0.00    +0.061 S 
ATOM     18  O1  UNL     1      -2.095   1.598   1.790  0.00  0.00    -0.153 OA
ATOM     19  O2  UNL     1      -3.352   2.008  -0.359  0.00  0.00    -0.153 OA
BRANCH  17  24
ATOM     20 CL1  UNL     1      -3.514  -4.862   0.087  0.00  0.00    -0.084 Cl
ATOM     21  C1  UNL     1      -3.189  -3.172   0.163  0.00  0.00    +0.041 A 
ATOM     22  C2  UNL     1      -3.989  -2.283  -0.558  0.00  0.00    +0.022 A 
ATOM     23  C3  UNL     1      -3.739  -0.909  -0.492  0.00  0.00    +0.030 A 
ATOM     24  C4  UNL     1      -2.676  -0.445   0.288  0.00  0.00    +0.106 A 
ATOM     25  C5  UNL     1      -1.881  -1.333   1.020  0.00  0.00    +0.030 A 
ATOM     26  C6  UNL     1      -2.139  -2.703   0.952  0.00  0.00    +0.022 A 
ENDBRANCH  17  24
ENDBRANCH   1  17
TORSDOF 5
