REMARK  Name = ligand_11.pdb
REMARK  2 active torsions:
REMARK  status: ('A' for Active; 'I' for Inactive)
REMARK    1  A    between atoms: C1_1  and  C2_2
REMARK    2  A    between atoms: C6_7  and  O2_8
REMARK                            x       y       z     vdW  Elec       q    Type
REMARK                         _______ _______ _______ _____ _____    ______ ____
ROOT
ATOM      1  C1  UNL     1      -3.503  -0.026   0.210  0.00  0.00    +0.048 C 
ATOM      2  C2  UNL     1      -2.031  -0.234   0.035  0.00  0.00    +0.000 C 
ATOM      3  C3  UNL     1      -1.505  -1.367  -0.446  0.00  0.00    +0.058 C 
ATOM      4  C4  UNL     1      -0.053  -1.555  -0.612  0.00  0.00    +0.191 C 
ATOM      5  O1  UNL     1       0.395  -2.607  -1.056  0.00  0.00    -0.287 OA
ATOM      6  C5  UNL     1       0.843  -0.452  -0.232  0.00  0.00    +0.074 A 
ATOM      7  C6  UNL     1       2.232  -0.581  -0.370  0.00  0.00    +0.128 A 
ATOM      8  C7  UNL     1       3.078   0.466  -0.009  0.00  0.00    +0.046 A 
ATOM      9  C8  UNL     1       2.544   1.651   0.493  0.00  0.00    +0.004 A 
ATOM     10  C9  UNL     1       1.162   1.788   0.634  0.00  0.00    +0.012 A 
ATOM     11  C10 UNL     1       0.310   0.735   0.271  0.00  0.00    +0.036 A 
ATOM     12  C11 UNL     1      -1.150   0.899   0.428  0.00  0.00    +0.190 C 
ATOM     13  O3  UNL     1      -1.619   1.941   0.869  0.00  0.00    -0.287 OA
ENDROOT
BRANCH   7  14
ATOM     14  O2  UNL     1       2.836  -1.710  -0.854  0.00  0.00    -0.506 OA
ATOM     15  H5  UNL     1       2.138  -2.369  -1.071  0.00  0.00    +0.292 HD
ENDBRANCH   7  14
TORSDOF 1
