REMARK  Name = ligand_595.pdb
REMARK  7 active torsions:
REMARK  status: ('A' for Active; 'I' for Inactive)
REMARK    1  A    between atoms: C1_1  and  C2_2
REMARK    2  A    between atoms: C5_5  and  C6_6
REMARK    3  A    between atoms: C6_6  and  S1_7
REMARK    4  A    between atoms: S1_7  and  C7_8
REMARK    5  A    between atoms: C7_8  and  C8_9
REMARK    6  A    between atoms: C9_11  and  C12_14
REMARK    7  A    between atoms: N1_16  and  C13_17
REMARK                            x       y       z     vdW  Elec       q    Type
REMARK                         _______ _______ _______ _____ _____    ______ ____
ROOT
ATOM      1  C8  UNL     1      -0.564  -0.638  -0.020  0.00  0.00    +0.116 A 
ATOM      2  O1  UNL     1      -1.608   0.022  -0.595  0.00  0.00    -0.454 OA
ATOM      3  C9  UNL     1      -2.764  -0.411   0.003  0.00  0.00    +0.189 A 
ATOM      4  C10 UNL     1      -2.440  -1.345   0.974  0.00  0.00    +0.055 A 
ATOM      5  C11 UNL     1      -1.030  -1.486   0.961  0.00  0.00    +0.046 A 
ENDROOT
BRANCH   3   6
ATOM      6  C12 UNL     1      -4.018   0.158  -0.461  0.00  0.00    +0.280 C 
ATOM      7  O2  UNL     1      -4.090   1.063  -1.290  0.00  0.00    -0.267 OA
ATOM      8  N1  UNL     1      -5.157  -0.404   0.102  0.00  0.00    -0.306 N 
ATOM      9  H12 UNL     1      -5.060  -1.189   0.728  0.00  0.00    +0.149 HD
BRANCH   8  10
ATOM     10  C13 UNL     1      -6.474   0.024  -0.249  0.00  0.00    +0.073 C 
ATOM     11  C14 UNL     1      -7.222   0.983   0.634  0.00  0.00    +0.024 C 
ATOM     12  C15 UNL     1      -7.668  -0.446   0.536  0.00  0.00    +0.024 C 
ENDBRANCH   8  10
ENDBRANCH   3   6
BRANCH   1  13
ATOM     13  C7  UNL     1       0.790  -0.302  -0.532  0.00  0.00    +0.143 C 
BRANCH  13  14
ATOM     14  S1  UNL     1       1.567  -1.758  -1.306  0.00  0.00    -0.148 S 
BRANCH  14  15
ATOM     15  C6  UNL     1       2.967  -0.937  -2.127  0.00  0.00    +0.104 C 
BRANCH  15  20
ATOM     16  C1  UNL     1       6.644   1.679   1.560  0.00  0.00    +0.044 C 
ATOM     17  C2  UNL     1       5.679   1.006   0.629  0.00  0.00    -0.050 A 
ATOM     18  C3  UNL     1       4.885   1.763  -0.239  0.00  0.00    +0.003 A 
ATOM     19  C4  UNL     1       4.009   1.136  -1.128  0.00  0.00    +0.005 A 
ATOM     20  C5  UNL     1       3.916  -0.262  -1.172  0.00  0.00    -0.038 A 
ATOM     21  C16 UNL     1       4.727  -1.018  -0.313  0.00  0.00    +0.005 A 
ATOM     22  C17 UNL     1       5.602  -0.390   0.575  0.00  0.00    +0.003 A 
ENDBRANCH  15  20
ENDBRANCH  14  15
ENDBRANCH  13  14
ENDBRANCH   1  13
TORSDOF 6
