REMARK  Name = ligand_846.pdb
REMARK  8 active torsions:
REMARK  status: ('A' for Active; 'I' for Inactive)
REMARK    1  A    between atoms: C1_1  and  O1_2
REMARK    2  A    between atoms: O1_2  and  C2_3
REMARK    3  A    between atoms: C5_6  and  N1_7
REMARK    4  A    between atoms: N3_11  and  N4_12
REMARK    5  A    between atoms: C8_13  and  C9_14
REMARK    6  A    between atoms: C12_17  and  O2_18
REMARK    7  A    between atoms: N6_23  and  C16_24
REMARK    8  A    between atoms: C19_27  and  N7_30
REMARK                            x       y       z     vdW  Elec       q    Type
REMARK                         _______ _______ _______ _____ _____    ______ ____
ROOT
ATOM      1  N1  UNL     1      -1.056  -2.407  -0.119  0.00  0.00    -0.283 N 
ATOM      2  C6  UNL     1      -0.586  -1.118  -0.359  0.00  0.00    +0.225 A 
ATOM      3  N2  UNL     1       0.639  -1.064  -0.857  0.00  0.00    -0.179 NA
ATOM      4  C7  UNL     1       1.126   0.150  -1.090  0.00  0.00    +0.241 A 
ATOM      5  N3  UNL     1       2.439   0.295  -1.602  0.00  0.00    -0.205 N 
ATOM      6  N5  UNL     1       0.473   1.274  -0.827  0.00  0.00    -0.179 NA
ATOM      7  C15 UNL     1      -0.746   1.134  -0.327  0.00  0.00    +0.225 A 
ATOM      8  N6  UNL     1      -1.532   2.237   0.003  0.00  0.00    -0.283 N 
ATOM      9  N8  UNL     1      -1.309  -0.042  -0.079  0.00  0.00    -0.181 NA
ATOM     10  H6  UNL     1      -0.345  -3.069  -0.397  0.00  0.00    +0.155 HD
ATOM     11  H7  UNL     1       2.468   1.278  -1.876  0.00  0.00    +0.177 HD
ATOM     12  H14 UNL     1      -2.413   1.910   0.374  0.00  0.00    +0.155 HD
ENDROOT
BRANCH   1  16
ATOM     13  C2  UNL     1      -4.630  -4.136   1.350  0.00  0.00    +0.120 A 
ATOM     14  C3  UNL     1      -4.577  -2.766   1.109  0.00  0.00    +0.047 A 
ATOM     15  C4  UNL     1      -3.402  -2.177   0.617  0.00  0.00    +0.027 A 
ATOM     16  C5  UNL     1      -2.263  -2.939   0.343  0.00  0.00    +0.034 A 
ATOM     17  C22 UNL     1      -2.333  -4.317   0.592  0.00  0.00    +0.027 A 
ATOM     18  C23 UNL     1      -3.500  -4.908   1.088  0.00  0.00    +0.047 A 
BRANCH  13  20
ATOM     19  C1  UNL     1      -6.890  -4.091   2.082  0.00  0.00    +0.277 C 
ATOM     20  O1  UNL     1      -5.700  -4.830   1.839  0.00  0.00    -0.495 OA
ENDBRANCH  13  20
ENDBRANCH   1  16
BRANCH   8  21
ATOM     21  C16 UNL     1      -1.394   3.619  -0.170  0.00  0.00    +0.034 A 
ATOM     22  C17 UNL     1      -2.353   4.464   0.418  0.00  0.00    +0.025 A 
ATOM     23  C18 UNL     1      -2.260   5.857   0.323  0.00  0.00    +0.034 A 
ATOM     24  C19 UNL     1      -1.186   6.426  -0.367  0.00  0.00    +0.126 A 
ATOM     25  C20 UNL     1      -0.217   5.610  -0.956  0.00  0.00    +0.034 A 
ATOM     26  C21 UNL     1      -0.327   4.218  -0.850  0.00  0.00    +0.025 A 
BRANCH  24  27
ATOM     27  N7  UNL     1      -1.075   7.885  -0.468  0.00  0.00    +0.056 N 
ATOM     28  O3  UNL     1      -0.151   8.346  -1.152  0.00  0.00    -0.126 OA
ATOM     29  O4  UNL     1      -1.913   8.571   0.136  0.00  0.00    -0.126 OA
ENDBRANCH  24  27
ENDBRANCH   8  21
BRANCH   5  30
ATOM     30  N4  UNL     1       2.789  -0.572  -2.598  0.00  0.00    -0.188 NA
ATOM     31  C8  UNL     1       3.912  -1.216  -2.464  0.00  0.00    +0.138 C 
BRANCH  31  32
ATOM     32  C9  UNL     1       4.881  -1.225  -1.346  0.00  0.00    -0.005 A 
ATOM     33  C10 UNL     1       6.238  -1.367  -1.671  0.00  0.00    +0.013 A 
ATOM     34  C11 UNL     1       7.200  -1.428  -0.658  0.00  0.00    +0.046 A 
ATOM     35  C12 UNL     1       6.796  -1.360   0.671  0.00  0.00    +0.117 A 
ATOM     36  C13 UNL     1       5.450  -1.237   1.003  0.00  0.00    +0.046 A 
ATOM     37  C14 UNL     1       4.487  -1.179  -0.006  0.00  0.00    +0.013 A 
BRANCH  35  38
ATOM     38  O2  UNL     1       7.697  -1.417   1.691  0.00  0.00    -0.507 OA
ATOM     39  H11 UNL     1       8.589  -1.533   1.321  0.00  0.00    +0.292 HD
ENDBRANCH  35  38
ENDBRANCH  31  32
ENDBRANCH   5  30
TORSDOF 7
