REMARK  Name = ligand_441.pdb
REMARK  7 active torsions:
REMARK  status: ('A' for Active; 'I' for Inactive)
REMARK    1  A    between atoms: C1_1  and  C2_2
REMARK    2  A    between atoms: C2_2  and  C3_3
REMARK    3  A    between atoms: C4_4  and  C5_5
REMARK    4  A    between atoms: C7_9  and  C8_10
REMARK    5  A    between atoms: C8_10  and  O2_12
REMARK    6  A    between atoms: O2_12  and  C9_13
REMARK    7  A    between atoms: C9_13  and  C10_14
REMARK                            x       y       z     vdW  Elec       q    Type
REMARK                         _______ _______ _______ _____ _____    ______ ____
ROOT
ATOM      1  O2  UNL     1       0.811   0.936  -1.185  0.00  0.00    -0.459 OA
ENDROOT
BRANCH   1   2
ATOM      2  C8  UNL     1      -0.105   1.180  -0.214  0.00  0.00    +0.312 C 
ATOM      3  O1  UNL     1       0.118   1.685   0.876  0.00  0.00    -0.250 OA
BRANCH   2   8
ATOM      4  C1  UNL     1      -1.169  -1.483   0.785  0.00  0.00    +0.012 C 
ATOM      5  C2  UNL     1      -1.982  -0.642  -0.172  0.00  0.00    -0.014 C 
ATOM      6  C3  UNL     1      -2.713  -1.464  -1.206  0.00  0.00    +0.012 C 
ATOM      7  C4  UNL     1      -2.582   0.643   0.379  0.00  0.00    +0.035 C 
ATOM      8  C7  UNL     1      -1.449   0.711  -0.626  0.00  0.00    +0.111 C 
BRANCH   7   9
ATOM      9  C5  UNL     1      -3.933   1.070  -0.019  0.00  0.00    +0.010 C 
ATOM     10  C6  UNL     1      -4.349   2.310  -0.317  0.00  0.00    +0.103 C 
ATOM     11 CL1  UNL     1      -3.287   3.670  -0.294  0.00  0.00    -0.071 Cl
ATOM     12 CL2  UNL     1      -5.999   2.595  -0.746  0.00  0.00    -0.071 Cl
ENDBRANCH   7   9
ENDBRANCH   2   8
ENDBRANCH   1   2
BRANCH   1  13
ATOM     13  C9  UNL     1       2.155   1.324  -0.869  0.00  0.00    +0.273 C 
BRANCH  13  14
ATOM     14  C10 UNL     1       2.844   0.327   0.018  0.00  0.00    +0.066 A 
ATOM     15  C11 UNL     1       3.635   0.759   1.087  0.00  0.00    +0.168 A 
ATOM     16  F1  UNL     1       3.786   2.071   1.314  0.00  0.00    -0.202 F 
ATOM     17  C12 UNL     1       4.285  -0.155   1.917  0.00  0.00    +0.162 A 
ATOM     18  F2  UNL     1       5.038   0.283   2.935  0.00  0.00    -0.202 F 
ATOM     19  C13 UNL     1       4.171  -1.521   1.697  0.00  0.00    +0.082 A 
ATOM     20  C14 UNL     1       3.404  -1.959   0.626  0.00  0.00    +0.162 A 
ATOM     21  F3  UNL     1       3.295  -3.275   0.395  0.00  0.00    -0.202 F 
ATOM     22  C15 UNL     1       2.754  -1.049  -0.208  0.00  0.00    +0.168 A 
ATOM     23  F4  UNL     1       2.037  -1.512  -1.242  0.00  0.00    -0.202 F 
ENDBRANCH  13  14
ENDBRANCH   1  13
TORSDOF 5
