REMARK  Name = ligand_789.pdb
REMARK  8 active torsions:
REMARK  status: ('A' for Active; 'I' for Inactive)
REMARK    1  A    between atoms: C1_1  and  N1_2
REMARK    2  A    between atoms: N2_5  and  C3_6
REMARK    3  A    between atoms: C6_9  and  C7_10
REMARK    4  A    between atoms: C7_10  and  N3_11
REMARK    5  A    between atoms: N3_11  and  C8_12
REMARK    6  A    between atoms: C8_12  and  C9_13
REMARK    7  A    between atoms: C9_13  and  N4_14
REMARK    8  A    between atoms: N4_14  and  C10_15
REMARK                            x       y       z     vdW  Elec       q    Type
REMARK                         _______ _______ _______ _____ _____    ______ ____
ROOT
ATOM      1  N3  UNL     1      -0.529  -2.440  -1.043  0.00  0.00    -0.311 NA
ATOM      2  H10 UNL     1      -1.058  -2.761  -0.233  0.00  0.00    +0.122 HD
ENDROOT
BRANCH   1   3
ATOM      3  C7  UNL     1      -1.457  -1.837  -2.001  0.00  0.00    +0.116 C 
BRANCH   3  12
ATOM      4  C1  UNL     1      -4.736   3.634   0.193  0.00  0.00    +0.154 C 
ATOM      5  N1  UNL     1      -4.666   2.208   0.316  0.00  0.00    -0.295 N 
ATOM      6  C2  UNL     1      -5.491   1.414   1.143  0.00  0.00    +0.330 A 
ATOM      7  O1  UNL     1      -6.383   1.803   1.881  0.00  0.00    -0.246 OA
ATOM      8  N2  UNL     1      -5.076   0.079   0.944  0.00  0.00    -0.295 N 
ATOM      9  C3  UNL     1      -5.642  -1.073   1.582  0.00  0.00    +0.154 C 
ATOM     10  C4  UNL     1      -4.026   0.060   0.017  0.00  0.00    +0.070 A 
ATOM     11  C5  UNL     1      -3.305  -1.001  -0.489  0.00  0.00    +0.033 A 
ATOM     12  C6  UNL     1      -2.290  -0.715  -1.421  0.00  0.00    -0.032 A 
ATOM     13  C19 UNL     1      -2.044   0.627  -1.809  0.00  0.00    +0.007 A 
ATOM     14  C20 UNL     1      -2.789   1.689  -1.282  0.00  0.00    +0.028 A 
ATOM     15  C21 UNL     1      -3.773   1.377  -0.371  0.00  0.00    +0.070 A 
ENDBRANCH   3  12
ENDBRANCH   1   3
BRANCH   1  16
ATOM     16  C8  UNL     1       0.544  -1.552  -0.577  0.00  0.00    +0.100 C 
BRANCH  16  17
ATOM     17  C9  UNL     1       1.548  -1.112  -1.665  0.00  0.00    +0.116 C 
BRANCH  17  18
ATOM     18  N4  UNL     1       2.617  -0.272  -1.117  0.00  0.00    -0.342 N 
ATOM     19  H15 UNL     1       2.251   0.584  -0.710  0.00  0.00    +0.146 HD
BRANCH  18  20
ATOM     20  C10 UNL     1       3.679  -0.800  -0.361  0.00  0.00    +0.038 A 
ATOM     21  C11 UNL     1       3.958  -2.168  -0.334  0.00  0.00    +0.043 A 
ATOM     22  C12 UNL     1       5.032  -2.626   0.405  0.00  0.00    +0.113 A 
ATOM     23  N5  UNL     1       5.864  -1.828   1.098  0.00  0.00    -0.255 NA
ATOM     24  C13 UNL     1       5.655  -0.507   1.038  0.00  0.00    +0.074 A 
ATOM     25  C14 UNL     1       6.543   0.309   1.722  0.00  0.00    +0.048 A 
ATOM     26  C15 UNL     1       6.421   1.695   1.695  0.00  0.00    +0.043 A 
ATOM     27 CL1  UNL     1       7.546   2.673   2.554  0.00  0.00    -0.083 Cl
ATOM     28  C16 UNL     1       5.400   2.293   0.973  0.00  0.00    +0.021 A 
ATOM     29  C17 UNL     1       4.492   1.489   0.282  0.00  0.00    +0.013 A 
ATOM     30  C18 UNL     1       4.588   0.075   0.308  0.00  0.00    +0.021 A 
ENDBRANCH  18  20
ENDBRANCH  17  18
ENDBRANCH  16  17
ENDBRANCH   1  16
TORSDOF 6
