REMARK  Name = ligand_216.pdb
REMARK  10 active torsions:
REMARK  status: ('A' for Active; 'I' for Inactive)
REMARK    1  A    between atoms: C1_1  and  O1_2
REMARK    2  A    between atoms: O1_2  and  C2_3
REMARK    3  A    between atoms: C3_4  and  C4_5
REMARK    4  A    between atoms: C4_5  and  C5_7
REMARK    5  A    between atoms: C5_7  and  C6_8
REMARK    6  A    between atoms: C6_8  and  C7_9
REMARK    7  A    between atoms: C15_17  and  O3_18
REMARK    8  A    between atoms: C16_19  and  C17_20
REMARK    9  A    between atoms: C17_20  and  C18_21
REMARK   10  A    between atoms: C23_26  and  O4_27
REMARK                            x       y       z     vdW  Elec       q    Type
REMARK                         _______ _______ _______ _____ _____    ______ ____
ROOT
ATOM      1  C2  UNL     1      -0.918  -1.429  -0.770  0.00  0.00    +0.137 A 
ATOM      2  C3  UNL     1       0.104  -1.615  -1.714  0.00  0.00    +0.059 A 
ATOM      3  C13 UNL     1      -0.136  -1.458  -3.081  0.00  0.00    +0.018 A 
ATOM      4  C14 UNL     1      -1.404  -1.077  -3.509  0.00  0.00    +0.046 A 
ATOM      5  C15 UNL     1      -2.414  -0.851  -2.564  0.00  0.00    +0.124 A 
ATOM      6  C16 UNL     1      -2.196  -1.016  -1.184  0.00  0.00    +0.041 A 
ENDROOT
BRANCH   1   8
ATOM      7  C1  UNL     1      -0.634  -2.976   0.931  0.00  0.00    +0.277 C 
ATOM      8  O1  UNL     1      -0.664  -1.589   0.570  0.00  0.00    -0.494 OA
ENDBRANCH   1   8
BRANCH   2   9
ATOM      9  C4  UNL     1       1.468  -1.954  -1.280  0.00  0.00    +0.167 C 
ATOM     10  O2  UNL     1       1.839  -3.122  -1.342  0.00  0.00    -0.292 OA
BRANCH   9  11
ATOM     11  C5  UNL     1       2.337  -0.807  -0.813  0.00  0.00    +0.084 C 
BRANCH  11  12
ATOM     12  C6  UNL     1       2.971  -1.127   0.532  0.00  0.00    +0.043 C 
BRANCH  12  13
ATOM     13  C7  UNL     1       3.747   0.051   1.061  0.00  0.00    -0.047 A 
ATOM     14  C8  UNL     1       3.123   0.987   1.895  0.00  0.00    +0.003 A 
ATOM     15  C9  UNL     1       3.828   2.091   2.369  0.00  0.00    +0.000 A 
ATOM     16  C10 UNL     1       5.160   2.271   2.010  0.00  0.00    +0.000 A 
ATOM     17  C11 UNL     1       5.786   1.351   1.174  0.00  0.00    +0.000 A 
ATOM     18  C12 UNL     1       5.083   0.245   0.699  0.00  0.00    +0.003 A 
ENDBRANCH  12  13
ENDBRANCH  11  12
ENDBRANCH   9  11
ENDBRANCH   2   9
BRANCH   5  19
ATOM     19  O3  UNL     1      -3.653  -0.445  -2.988  0.00  0.00    -0.506 OA
ATOM     20  H15 UNL     1      -3.671  -0.469  -3.962  0.00  0.00    +0.292 HD
ENDBRANCH   5  19
BRANCH   6  21
ATOM     21  C17 UNL     1      -3.293  -0.736  -0.179  0.00  0.00    +0.081 C 
BRANCH  21  22
ATOM     22  C18 UNL     1      -3.282   0.669   0.377  0.00  0.00    -0.001 A 
ATOM     23  C19 UNL     1      -2.628   0.911   1.600  0.00  0.00    +0.007 A 
ATOM     24  C20 UNL     1      -2.616   2.184   2.172  0.00  0.00    +0.001 A 
ATOM     25  C21 UNL     1      -3.261   3.240   1.534  0.00  0.00    +0.004 A 
ATOM     26  C22 UNL     1      -3.908   3.022   0.318  0.00  0.00    +0.046 A 
ATOM     27  C23 UNL     1      -3.909   1.751  -0.258  0.00  0.00    +0.120 A 
BRANCH  27  28
ATOM     28  O4  UNL     1      -4.567   1.642  -1.450  0.00  0.00    -0.506 OA
ATOM     29  H22 UNL     1      -4.290   0.813  -1.891  0.00  0.00    +0.292 HD
ENDBRANCH  27  28
ENDBRANCH  21  22
ENDBRANCH   6  21
TORSDOF 9
