REMARK  Name = ligand_130.pdb
REMARK  5 active torsions:
REMARK  status: ('A' for Active; 'I' for Inactive)
REMARK    1  A    between atoms: C1_1  and  C2_2
REMARK    2  A    between atoms: C2_2  and  C3_3
REMARK    3  A    between atoms: C7_7  and  C8_8
REMARK    4  A    between atoms: C18_18  and  C19_19
REMARK    5  A    between atoms: C18_18  and  O1_20
REMARK                            x       y       z     vdW  Elec       q    Type
REMARK                         _______ _______ _______ _____ _____    ______ ____
ROOT
ATOM      1  C1  UNL     1      -3.725   0.683   1.021  0.00  0.00    +0.011 C 
ATOM      2  C2  UNL     1      -3.198   0.323  -0.380  0.00  0.00    -0.032 C 
ATOM      3  C3  UNL     1      -3.848   1.336  -1.361  0.00  0.00    +0.011 C 
ATOM      4  C4  UNL     1      -3.699  -1.079  -0.805  0.00  0.00    +0.007 C 
ATOM      5  C5  UNL     1      -2.963  -2.235  -0.143  0.00  0.00    +0.001 C 
ATOM      6  C6  UNL     1      -1.449  -2.141  -0.335  0.00  0.00    +0.007 C 
ATOM      7  C7  UNL     1      -0.825  -0.798   0.154  0.00  0.00    -0.025 C 
ATOM      8  C8  UNL     1      -0.884  -0.789   1.697  0.00  0.00    +0.012 C 
ATOM      9  C9  UNL     1      -1.634   0.375  -0.517  0.00  0.00    +0.001 C 
ATOM     10  C10 UNL     1      -1.008   1.740  -0.178  0.00  0.00    +0.005 C 
ATOM     11  C11 UNL     1       0.404   1.832  -0.746  0.00  0.00    +0.007 C 
ATOM     12  C12 UNL     1       1.346   0.719  -0.272  0.00  0.00    -0.023 C 
ATOM     13  C13 UNL     1       1.913   0.989   1.129  0.00  0.00    +0.013 C 
ATOM     14  C14 UNL     1       3.106   0.037   1.160  0.00  0.00    +0.021 C 
ATOM     15  C15 UNL     1       2.580  -1.401   1.282  0.00  0.00    +0.006 C 
ATOM     16  C16 UNL     1       1.633  -1.813   0.149  0.00  0.00    +0.005 C 
ATOM     17  C17 UNL     1       0.680  -0.701  -0.369  0.00  0.00    +0.002 C 
ATOM     18  C18 UNL     1       3.805   0.338  -0.183  0.00  0.00    +0.067 C 
ATOM     19  C19 UNL     1       4.834   1.465  -0.043  0.00  0.00    +0.041 C 
ATOM     20  C20 UNL     1       2.655   0.744  -1.131  0.00  0.00    +0.042 C 
ENDROOT
BRANCH  18  21
ATOM     21  O1  UNL     1       4.493  -0.804  -0.677  0.00  0.00    -0.389 OA
ATOM     22  H32 UNL     1       4.838  -0.586  -1.560  0.00  0.00    +0.210 HD
ENDBRANCH  18  21
TORSDOF 1
