REMARK  Name = ligand_453.pdb
REMARK  14 active torsions:
REMARK  status: ('A' for Active; 'I' for Inactive)
REMARK    1  A    between atoms: C1_1  and  C2_2
REMARK    2  A    between atoms: C2_2  and  O1_3
REMARK    3  A    between atoms: O1_3  and  C3_4
REMARK    4  A    between atoms: C3_4  and  C4_6
REMARK    5  A    between atoms: C5_7  and  C31_41
REMARK    6  A    between atoms: C8_12  and  C9_13
REMARK    7  A    between atoms: C11_15  and  C12_16
REMARK    8  A    between atoms: N2_17  and  C15_20
REMARK    9  A    between atoms: C13_18  and  C14_19
REMARK   10  A    between atoms: C22_30  and  C23_31
REMARK   11  A    between atoms: C27_35  and  O4_36
REMARK   12  A    between atoms: O4_36  and  C28_37
REMARK   13  A    between atoms: C29_38  and  O5_39
REMARK   14  A    between atoms: O5_39  and  C30_40
REMARK                            x       y       z     vdW  Elec       q    Type
REMARK                         _______ _______ _______ _____ _____    ______ ____
ROOT
ATOM      1  C4  UNL     1      -2.573  -1.607   0.309  0.00  0.00    +0.090 C 
ATOM      2  C5  UNL     1      -2.767  -2.228  -0.871  0.00  0.00    +0.086 C 
ATOM      3  N1  UNL     1      -1.871  -2.124  -1.913  0.00  0.00    -0.222 NA
ATOM      4  C6  UNL     1      -0.768  -1.500  -1.680  0.00  0.00    +0.178 A 
ATOM      5  S1  UNL     1       0.502  -1.386  -2.862  0.00  0.00    -0.046 S 
ATOM      6  C7  UNL     1       1.578  -0.618  -1.737  0.00  0.00    +0.081 A 
ATOM      7  C8  UNL     1       2.834  -0.287  -2.069  0.00  0.00    +0.030 C 
ATOM      8  C21 UNL     1       0.888  -0.452  -0.420  0.00  0.00    +0.268 A 
ATOM      9  O3  UNL     1       1.409  -0.045   0.608  0.00  0.00    -0.266 OA
ATOM     10  N3  UNL     1      -0.412  -0.894  -0.517  0.00  0.00    -0.275 N 
ATOM     11  C22 UNL     1      -1.342  -0.798   0.591  0.00  0.00    +0.166 C 
ENDROOT
BRANCH   7  12
ATOM     12  C9  UNL     1       3.814   0.365  -1.264  0.00  0.00    -0.003 A 
ATOM     13  C10 UNL     1       3.671   1.589  -0.583  0.00  0.00    +0.031 A 
ATOM     14  C11 UNL     1       4.872   1.874   0.038  0.00  0.00    +0.022 A 
ATOM     15  C12 UNL     1       5.156   3.018   0.950  0.00  0.00    +0.064 C 
ATOM     16  N2  UNL     1       5.761   0.841  -0.246  0.00  0.00    -0.317 N 
ATOM     17  C13 UNL     1       5.116  -0.071  -1.087  0.00  0.00    +0.028 A 
ATOM     18  C14 UNL     1       5.795  -1.255  -1.697  0.00  0.00    +0.064 C 
BRANCH  16  19
ATOM     19  C15 UNL     1       7.094   0.726   0.248  0.00  0.00    +0.047 A 
ATOM     20  C16 UNL     1       7.537  -0.492   0.787  0.00  0.00    +0.029 A 
ATOM     21  C17 UNL     1       8.838  -0.602   1.284  0.00  0.00    +0.040 A 
ATOM     22  C18 UNL     1       9.688   0.497   1.234  0.00  0.00    +0.124 A 
ATOM     23  F1  UNL     1      10.936   0.387   1.709  0.00  0.00    -0.205 F 
ATOM     24  C19 UNL     1       9.262   1.708   0.700  0.00  0.00    +0.040 A 
ATOM     25  C20 UNL     1       7.960   1.827   0.207  0.00  0.00    +0.029 A 
ENDBRANCH  16  19
ENDBRANCH   7  12
BRANCH  11  26
ATOM     26  C23 UNL     1      -1.665   0.653   0.956  0.00  0.00    +0.025 A 
ATOM     27  C24 UNL     1      -1.469   1.068   2.286  0.00  0.00    +0.010 A 
ATOM     28  C25 UNL     1      -1.757   2.373   2.676  0.00  0.00    +0.004 A 
ATOM     29  C26 UNL     1      -2.232   3.296   1.745  0.00  0.00    +0.049 A 
ATOM     30  C27 UNL     1      -2.433   2.921   0.414  0.00  0.00    +0.162 A 
ATOM     31  C29 UNL     1      -2.177   1.588   0.032  0.00  0.00    +0.167 A 
BRANCH  30  32
ATOM     32  O4  UNL     1      -2.859   3.775  -0.571  0.00  0.00    -0.491 OA
ATOM     33  C28 UNL     1      -2.972   5.153  -0.243  0.00  0.00    +0.277 C 
ENDBRANCH  30  32
BRANCH  31  34
ATOM     34  O5  UNL     1      -2.337   1.170  -1.268  0.00  0.00    -0.491 OA
ATOM     35  C30 UNL     1      -3.701   1.220  -1.692  0.00  0.00    +0.277 C 
ENDBRANCH  31  34
ENDBRANCH  11  26
BRANCH   2  36
ATOM     36  C31 UNL     1      -3.946  -3.086  -1.131  0.00  0.00    +0.001 A 
ATOM     37  C32 UNL     1      -4.191  -4.238  -0.368  0.00  0.00    +0.010 A 
ATOM     38  C33 UNL     1      -5.315  -5.028  -0.622  0.00  0.00    +0.001 A 
ATOM     39  C34 UNL     1      -6.195  -4.685  -1.647  0.00  0.00    +0.000 A 
ATOM     40  C35 UNL     1      -5.948  -3.556  -2.426  0.00  0.00    +0.001 A 
ATOM     41  C36 UNL     1      -4.827  -2.763  -2.172  0.00  0.00    +0.010 A 
ENDBRANCH   2  36
BRANCH   1  42
ATOM     42  C3  UNL     1      -3.509  -1.700   1.442  0.00  0.00    +0.340 C 
ATOM     43  O2  UNL     1      -3.170  -2.080   2.553  0.00  0.00    -0.245 OA
BRANCH  42  44
ATOM     44  O1  UNL     1      -4.734  -1.250   1.082  0.00  0.00    -0.462 OA
BRANCH  44  46
ATOM     45  C1  UNL     1      -7.070  -1.004   1.508  0.00  0.00    +0.048 C 
ATOM     46  C2  UNL     1      -5.717  -1.324   2.118  0.00  0.00    +0.229 C 
ENDBRANCH  44  46
ENDBRANCH  42  44
ENDBRANCH   1  42
TORSDOF 9
