REMARK  Name = ligand_541.pdb
REMARK  9 active torsions:
REMARK  status: ('A' for Active; 'I' for Inactive)
REMARK    1  A    between atoms: C1_1  and  C2_2
REMARK    2  A    between atoms: C2_2  and  C3_3
REMARK    3  A    between atoms: C3_3  and  C4_4
REMARK    4  A    between atoms: C3_3  and  N1_5
REMARK    5  A    between atoms: N1_5  and  C5_6
REMARK    6  A    between atoms: C5_6  and  C6_7
REMARK    7  A    between atoms: C6_7  and  O1_8
REMARK    8  A    between atoms: C6_7  and  C7_9
REMARK    9  A    between atoms: C6_7  and  C13_16
REMARK                            x       y       z     vdW  Elec       q    Type
REMARK                         _______ _______ _______ _____ _____    ______ ____
ROOT
ATOM      1  C6  UNL     1       0.855   0.430   0.504  0.00  0.00    +0.128 C 
ENDROOT
BRANCH   1   2
ATOM      2  C7  UNL     1       1.341  -0.970   0.088  0.00  0.00    -0.010 A 
ATOM      3  C8  UNL     1       0.565  -1.859  -0.673  0.00  0.00    +0.008 A 
ATOM      4  C9  UNL     1       1.056  -3.120  -1.030  0.00  0.00    +0.020 A 
ATOM      5  C10 UNL     1       2.332  -3.509  -0.633  0.00  0.00    +0.041 A 
ATOM      6 CL1  UNL     1       2.931  -5.059  -1.076  0.00  0.00    -0.084 Cl
ATOM      7  C11 UNL     1       3.123  -2.649   0.119  0.00  0.00    +0.020 A 
ATOM      8  C12 UNL     1       2.631  -1.391   0.476  0.00  0.00    +0.008 A 
ENDBRANCH   1   2
BRANCH   1   9
ATOM      9  C13 UNL     1       1.723   1.532  -0.132  0.00  0.00    -0.010 A 
ATOM     10  C14 UNL     1       1.884   1.595  -1.530  0.00  0.00    +0.008 A 
ATOM     11  C15 UNL     1       2.660   2.596  -2.120  0.00  0.00    +0.020 A 
ATOM     12  C16 UNL     1       3.282   3.551  -1.322  0.00  0.00    +0.041 A 
ATOM     13 CL2  UNL     1       4.237   4.784  -2.048  0.00  0.00    -0.084 Cl
ATOM     14  C17 UNL     1       3.136   3.513   0.062  0.00  0.00    +0.020 A 
ATOM     15  C18 UNL     1       2.360   2.511   0.652  0.00  0.00    +0.008 A 
ENDBRANCH   1   9
BRANCH   1  16
ATOM     16  O1  UNL     1       0.983   0.486   1.944  0.00  0.00    -0.378 OA
ATOM     17  H13 UNL     1       0.698  -0.392   2.257  0.00  0.00    +0.211 HD
ENDBRANCH   1  16
BRANCH   1  18
ATOM     18  C5  UNL     1      -0.654   0.769   0.203  0.00  0.00    +0.125 C 
BRANCH  18  19
ATOM     19  N1  UNL     1      -1.613  -0.002   1.036  0.00  0.00    -0.310 NA
ATOM     20  H10 UNL     1      -1.390   0.225   2.009  0.00  0.00    +0.122 HD
BRANCH  19  21
ATOM     21  C3  UNL     1      -3.010   0.384   0.775  0.00  0.00    +0.050 C 
ATOM     22  C4  UNL     1      -3.857   0.007   1.995  0.00  0.00    +0.024 C 
BRANCH  21  24
ATOM     23  C1  UNL     1      -3.633  -1.772  -0.514  0.00  0.00    +0.005 C 
ATOM     24  C2  UNL     1      -3.570  -0.249  -0.515  0.00  0.00    +0.015 C 
ENDBRANCH  21  24
ENDBRANCH  19  21
ENDBRANCH  18  19
ENDBRANCH   1  18
TORSDOF 7
