REMARK  Name = ligand_283.pdb
REMARK  18 active torsions:
REMARK  status: ('A' for Active; 'I' for Inactive)
REMARK    1  A    between atoms: C1_1  and  C2_2
REMARK    2  A    between atoms: C2_2  and  C3_3
REMARK    3  A    between atoms: C3_3  and  C4_4
REMARK    4  A    between atoms: C4_4  and  C5_5
REMARK    5  A    between atoms: C5_5  and  C6_6
REMARK    6  A    between atoms: C6_6  and  C7_7
REMARK    7  A    between atoms: C7_7  and  C8_8
REMARK    8  A    between atoms: C8_8  and  C9_9
REMARK    9  A    between atoms: C9_9  and  C10_10
REMARK   10  A    between atoms: C10_10  and  C11_11
REMARK   11  A    between atoms: C10_10  and  O2_36
REMARK   12  A    between atoms: C11_11  and  C12_12
REMARK   13  A    between atoms: C12_12  and  C13_13
REMARK   14  A    between atoms: C13_13  and  C14_14
REMARK   15  A    between atoms: C14_14  and  C15_15
REMARK   16  A    between atoms: C15_15  and  C16_16
REMARK   17  A    between atoms: N2_21  and  C20_22
REMARK   18  A    between atoms: N3_27  and  C30_35
REMARK                            x       y       z     vdW  Elec       q    Type
REMARK                         _______ _______ _______ _____ _____    ______ ____
ROOT
ATOM      1  C16 UNL     1      -1.235  -0.078   1.541  0.00  0.00    +0.062 C 
ATOM      2  N1  UNL     1      -1.851  -1.332   1.058  0.00  0.00    -0.313 NA
ATOM      3  C17 UNL     1      -3.196  -1.538   1.606  0.00  0.00    +0.082 C 
ATOM      4  C18 UNL     1      -3.906  -2.701   0.914  0.00  0.00    +0.030 C 
ATOM      5  C19 UNL     1      -4.208  -2.464  -0.576  0.00  0.00    +0.085 C 
ATOM      6  N2  UNL     1      -5.083  -1.312  -0.902  0.00  0.00    -0.305 NA
ATOM      7  C20 UNL     1      -5.181  -1.203  -2.363  0.00  0.00    +0.104 C 
ATOM      8  C21 UNL     1      -6.411  -1.449  -0.265  0.00  0.00    +0.084 C 
ATOM      9  C22 UNL     1      -7.479  -0.452  -0.754  0.00  0.00    +0.017 C 
ATOM     10  C23 UNL     1      -8.707  -0.375   0.167  0.00  0.00    +0.017 C 
ATOM     11  C24 UNL     1      -8.469   0.393   1.476  0.00  0.00    +0.084 C 
ATOM     12  N3  UNL     1      -8.092   1.794   1.220  0.00  0.00    -0.305 NA
ATOM     13  C25 UNL     1      -7.175   2.321   2.241  0.00  0.00    +0.085 C 
ATOM     14  C26 UNL     1      -5.737   1.831   2.031  0.00  0.00    +0.034 C 
ATOM     15  C27 UNL     1      -5.116   2.380   0.744  0.00  0.00    +0.105 C 
ATOM     16  N4  UNL     1      -3.885   1.699   0.397  0.00  0.00    -0.315 N 
ATOM     17  C28 UNL     1      -2.711   1.927   1.073  0.00  0.00    +0.215 C 
ATOM     18  O1  UNL     1      -2.594   2.745   1.982  0.00  0.00    -0.276 OA
ATOM     19  C29 UNL     1      -1.542   1.096   0.597  0.00  0.00    +0.114 C 
ATOM     20  C30 UNL     1      -9.282   2.643   1.114  0.00  0.00    +0.104 C 
ATOM     21  H32 UNL     1      -1.278  -2.125   1.347  0.00  0.00    +0.122 HD
ATOM     22  H56 UNL     1      -3.964   0.852  -0.165  0.00  0.00    +0.149 HD
ENDROOT
BRANCH   1  23
ATOM     23  C15 UNL     1       0.293  -0.281   1.714  0.00  0.00    +0.019 C 
BRANCH  23  24
ATOM     24  C14 UNL     1       1.184  -0.300   0.465  0.00  0.00    +0.002 C 
BRANCH  24  25
ATOM     25  C13 UNL     1       0.810  -1.319  -0.615  0.00  0.00    +0.000 C 
BRANCH  25  26
ATOM     26  C12 UNL     1       1.859  -1.354  -1.735  0.00  0.00    +0.002 C 
BRANCH  26  27
ATOM     27  C11 UNL     1       3.058  -2.241  -1.385  0.00  0.00    +0.031 C 
BRANCH  27  28
ATOM     28  C10 UNL     1       4.264  -2.012  -2.307  0.00  0.00    +0.115 C 
BRANCH  28  29
ATOM     29  O2  UNL     1       5.166  -3.110  -2.178  0.00  0.00    -0.392 OA
ATOM     30  H62 UNL     1       5.302  -3.288  -1.231  0.00  0.00    +0.210 HD
ENDBRANCH  28  29
BRANCH  28  31
ATOM     31  C9  UNL     1       5.029  -0.698  -2.057  0.00  0.00    +0.031 C 
BRANCH  31  32
ATOM     32  C8  UNL     1       5.754  -0.633  -0.704  0.00  0.00    +0.002 C 
BRANCH  32  33
ATOM     33  C7  UNL     1       6.384   0.733  -0.410  0.00  0.00    +0.000 C 
BRANCH  33  34
ATOM     34  C6  UNL     1       7.442   1.210  -1.410  0.00  0.00    +0.000 C 
BRANCH  34  35
ATOM     35  C5  UNL     1       8.627   0.262  -1.624  0.00  0.00    -0.000 C 
BRANCH  35  36
ATOM     36  C4  UNL     1       9.413  -0.112  -0.362  0.00  0.00    -0.000 C 
BRANCH  36  37
ATOM     37  C3  UNL     1       9.972   1.059   0.451  0.00  0.00    -0.000 C 
BRANCH  37  39
ATOM     38  C1  UNL     1      11.551   3.018   0.555  0.00  0.00    +0.004 C 
ATOM     39  C2  UNL     1      10.965   1.925  -0.325  0.00  0.00    -0.003 C 
ENDBRANCH  37  39
ENDBRANCH  36  37
ENDBRANCH  35  36
ENDBRANCH  34  35
ENDBRANCH  33  34
ENDBRANCH  32  33
ENDBRANCH  31  32
ENDBRANCH  28  31
ENDBRANCH  27  28
ENDBRANCH  26  27
ENDBRANCH  25  26
ENDBRANCH  24  25
ENDBRANCH  23  24
ENDBRANCH   1  23
TORSDOF 15
