REMARK  Name = ligand_772.pdb
REMARK  9 active torsions:
REMARK  status: ('A' for Active; 'I' for Inactive)
REMARK    1  A    between atoms: N2_5  and  C4_6
REMARK    2  A    between atoms: C4_6  and  C5_7
REMARK    3  A    between atoms: C5_7  and  C6_8
REMARK    4  A    between atoms: C6_8  and  N3_9
REMARK    5  A    between atoms: C21_27  and  C22_28
REMARK    6  A    between atoms: C25_31  and  O2_32
REMARK    7  A    between atoms: O2_32  and  C26_33
REMARK    8  A    between atoms: C27_34  and  O3_35
REMARK    9  A    between atoms: O3_35  and  C28_36
REMARK                            x       y       z     vdW  Elec       q    Type
REMARK                         _______ _______ _______ _____ _____    ______ ____
ROOT
ATOM      1  C1  UNL     1       0.210   0.132  -0.342  0.00  0.00    +0.068 A 
ATOM      2  C2  UNL     1       0.247  -0.156  -1.659  0.00  0.00    +0.229 A 
ATOM      3  N1  UNL     1       1.106  -1.069  -2.241  0.00  0.00    -0.202 NA
ATOM      4  C3  UNL     1       1.932  -1.666  -1.448  0.00  0.00    +0.204 A 
ATOM      5  N2  UNL     1       2.050  -1.470  -0.089  0.00  0.00    -0.317 N 
ATOM      6  C10 UNL     1       1.240  -0.523   0.522  0.00  0.00    +0.136 A 
ATOM      7  N5  UNL     1       1.316  -0.149   1.762  0.00  0.00    -0.283 NA
ATOM      8  O1  UNL     1      -0.627   0.456  -2.554  0.00  0.00    -0.437 OA
ATOM      9  C11 UNL     1      -1.329   1.580  -2.169  0.00  0.00    +0.142 A 
ATOM     10  C12 UNL     1      -1.426   1.951  -0.821  0.00  0.00    +0.008 A 
ATOM     11  C13 UNL     1      -2.149   3.100  -0.480  0.00  0.00    +0.009 A 
ATOM     12  C14 UNL     1      -2.771   3.861  -1.470  0.00  0.00    +0.009 A 
ATOM     13  C15 UNL     1      -2.688   3.491  -2.820  0.00  0.00    -0.014 A 
ATOM     14  C16 UNL     1      -3.322   4.257  -3.813  0.00  0.00    +0.008 A 
ATOM     15  C17 UNL     1      -3.243   3.894  -5.158  0.00  0.00    +0.001 A 
ATOM     16  C18 UNL     1      -2.529   2.760  -5.528  0.00  0.00    +0.001 A 
ATOM     17  C19 UNL     1      -1.894   1.989  -4.553  0.00  0.00    +0.012 A 
ATOM     18  C20 UNL     1      -1.960   2.335  -3.186  0.00  0.00    +0.025 A 
ATOM     19  C21 UNL     1      -0.781   1.090   0.252  0.00  0.00    +0.091 C 
ATOM     20  H11 UNL     1       2.048  -0.639   2.269  0.00  0.00    +0.188 HD
ENDROOT
BRANCH  19  21
ATOM     21  C22 UNL     1      -1.837   0.370   1.097  0.00  0.00    -0.032 A 
ATOM     22  C23 UNL     1      -1.868   0.554   2.485  0.00  0.00    +0.008 A 
ATOM     23  C24 UNL     1      -2.823  -0.094   3.272  0.00  0.00    +0.050 A 
ATOM     24  C25 UNL     1      -3.768  -0.942   2.686  0.00  0.00    +0.162 A 
ATOM     25  C27 UNL     1      -3.748  -1.143   1.292  0.00  0.00    +0.162 A 
ATOM     26  C29 UNL     1      -2.784  -0.492   0.512  0.00  0.00    +0.054 A 
BRANCH  24  27
ATOM     27  O2  UNL     1      -4.741  -1.618   3.381  0.00  0.00    -0.491 OA
ATOM     28  C26 UNL     1      -4.836  -1.381   4.777  0.00  0.00    +0.277 C 
ENDBRANCH  24  27
BRANCH  25  29
ATOM     29  O3  UNL     1      -4.705  -1.992   0.790  0.00  0.00    -0.491 OA
ATOM     30  C28 UNL     1      -4.772  -2.145  -0.621  0.00  0.00    +0.277 C 
ENDBRANCH  25  29
ENDBRANCH  19  21
BRANCH   5  31
ATOM     31  C4  UNL     1       3.060  -2.231   0.643  0.00  0.00    +0.126 C 
BRANCH  31  32
ATOM     32  C5  UNL     1       4.374  -1.454   0.709  0.00  0.00    +0.043 C 
BRANCH  32  33
ATOM     33  C6  UNL     1       5.435  -2.240   1.475  0.00  0.00    +0.124 C 
BRANCH  33  34
ATOM     34  N3  UNL     1       6.701  -1.538   1.526  0.00  0.00    -0.337 N 
ATOM     35  C7  UNL     1       7.718  -1.642   0.622  0.00  0.00    +0.106 A 
ATOM     36  C8  UNL     1       8.701  -0.806   1.099  0.00  0.00    +0.130 A 
ATOM     37  N4  UNL     1       8.303  -0.208   2.268  0.00  0.00    -0.244 NA
ATOM     38  C9  UNL     1       7.096  -0.670   2.502  0.00  0.00    +0.199 A 
ENDBRANCH  33  34
ENDBRANCH  32  33
ENDBRANCH  31  32
ENDBRANCH   5  31
TORSDOF 7
