REMARK  Name = ligand_813.pdb
REMARK  6 active torsions:
REMARK  status: ('A' for Active; 'I' for Inactive)
REMARK    1  A    between atoms: N2_3  and  C2_4
REMARK    2  A    between atoms: C7_9  and  O1_10
REMARK    3  A    between atoms: O1_10  and  C8_11
REMARK    4  A    between atoms: C10_13  and  C11_14
REMARK    5  A    between atoms: N4_17  and  C13_18
REMARK    6  A    between atoms: C13_18  and  C14_19
REMARK                            x       y       z     vdW  Elec       q    Type
REMARK                         _______ _______ _______ _____ _____    ______ ____
ROOT
ATOM      1  N1  UNL     1      -0.922   1.170   1.006  0.00  0.00    -0.199 NA
ATOM      2  C1  UNL     1       0.208   1.086   0.284  0.00  0.00    +0.128 A 
ATOM      3  N2  UNL     1       1.228   0.350   0.883  0.00  0.00    -0.299 N 
ATOM      4  C9  UNL     1       0.297   1.640  -0.973  0.00  0.00    +0.067 A 
ATOM      5  C10 UNL     1      -0.824   2.284  -1.454  0.00  0.00    +0.045 A 
ATOM      6  C11 UNL     1      -0.813   2.911  -2.817  0.00  0.00    +0.066 C 
ATOM      7  N3  UNL     1      -1.961   2.369  -0.748  0.00  0.00    -0.220 NA
ATOM      8  C12 UNL     1      -1.969   1.803   0.466  0.00  0.00    +0.217 A 
ATOM      9  N4  UNL     1      -3.114   1.840   1.256  0.00  0.00    -0.309 N 
ATOM     10  H1  UNL     1       0.870  -0.090   1.721  0.00  0.00    +0.154 HD
ATOM     11  H13 UNL     1      -2.907   1.216   2.029  0.00  0.00    +0.149 HD
ENDROOT
BRANCH   3  12
ATOM     12  C2  UNL     1       2.581   0.121   0.621  0.00  0.00    +0.033 A 
ATOM     13  C3  UNL     1       3.138  -1.095   1.043  0.00  0.00    +0.027 A 
ATOM     14  C4  UNL     1       4.471  -1.430   0.768  0.00  0.00    +0.047 A 
ATOM     15  C5  UNL     1       3.403   0.994  -0.093  0.00  0.00    +0.027 A 
ATOM     16  C6  UNL     1       4.736   0.663  -0.370  0.00  0.00    +0.047 A 
ATOM     17  C7  UNL     1       5.278  -0.547   0.058  0.00  0.00    +0.120 A 
BRANCH  17  18
ATOM     18  O1  UNL     1       6.587  -0.751  -0.284  0.00  0.00    -0.495 OA
ATOM     19  C8  UNL     1       7.221  -1.898   0.271  0.00  0.00    +0.277 C 
ENDBRANCH  17  18
ENDBRANCH   3  12
BRANCH   9  20
ATOM     20  C13 UNL     1      -4.329   1.479   0.547  0.00  0.00    +0.139 C 
BRANCH  20  21
ATOM     21  C14 UNL     1      -4.465  -0.026   0.432  0.00  0.00    -0.030 A 
ATOM     22  C15 UNL     1      -4.066  -0.692  -0.735  0.00  0.00    +0.005 A 
ATOM     23  C16 UNL     1      -4.163  -2.083  -0.826  0.00  0.00    +0.000 A 
ATOM     24  C17 UNL     1      -4.654  -2.818   0.251  0.00  0.00    +0.000 A 
ATOM     25  C18 UNL     1      -5.049  -2.167   1.419  0.00  0.00    +0.000 A 
ATOM     26  C19 UNL     1      -4.956  -0.779   1.510  0.00  0.00    +0.005 A 
ENDBRANCH  20  21
ENDBRANCH   9  20
TORSDOF 4
