REMARK  Name = ligand_167.pdb
REMARK  11 active torsions:
REMARK  status: ('A' for Active; 'I' for Inactive)
REMARK    1  A    between atoms: C1_1  and  O1_2
REMARK    2  A    between atoms: O1_2  and  C2_3
REMARK    3  A    between atoms: C10_12  and  O3_13
REMARK    4  A    between atoms: C12_15  and  C13_16
REMARK    5  A    between atoms: C13_16  and  O4_17
REMARK    6  A    between atoms: C16_20  and  C17_21
REMARK    7  A    between atoms: C18_23  and  C19_24
REMARK    8  A    between atoms: C19_24  and  O6_25
REMARK    9  A    between atoms: C20_26  and  O7_27
REMARK   10  A    between atoms: C21_28  and  O8_29
REMARK   11  A    between atoms: C22_30  and  O9_31
REMARK                            x       y       z     vdW  Elec       q    Type
REMARK                         _______ _______ _______ _____ _____    ______ ____
ROOT
ATOM      1  C2  UNL     1      -2.219   2.762   0.517  0.00  0.00    +0.131 A 
ATOM      2  C3  UNL     1      -1.628   3.489   1.556  0.00  0.00    +0.046 A 
ATOM      3  C4  UNL     1      -0.617   2.926   2.335  0.00  0.00    +0.004 A 
ATOM      4  C5  UNL     1      -0.183   1.628   2.085  0.00  0.00    +0.005 A 
ATOM      5  C6  UNL     1      -0.752   0.873   1.047  0.00  0.00    -0.023 A 
ATOM      6  C7  UNL     1      -1.772   1.448   0.264  0.00  0.00    +0.068 A 
ATOM      7  C8  UNL     1      -2.361   0.623  -0.828  0.00  0.00    +0.201 C 
ATOM      8  O2  UNL     1      -2.926   1.103  -1.806  0.00  0.00    -0.286 OA
ATOM      9  C9  UNL     1      -2.243  -0.848  -0.744  0.00  0.00    +0.068 A 
ATOM     10  C10 UNL     1      -3.118  -1.673  -1.462  0.00  0.00    +0.128 A 
ATOM     11  C11 UNL     1      -3.031  -3.059  -1.356  0.00  0.00    +0.052 A 
ATOM     12  C12 UNL     1      -2.054  -3.641  -0.541  0.00  0.00    -0.018 A 
ATOM     13  C14 UNL     1      -1.165  -2.810   0.160  0.00  0.00    +0.011 A 
ATOM     14  C15 UNL     1      -1.244  -1.409   0.059  0.00  0.00    -0.023 A 
ATOM     15  C16 UNL     1      -0.233  -0.531   0.771  0.00  0.00    +0.082 C 
ENDROOT
BRANCH  15  16
ATOM     16  C17 UNL     1       1.170  -0.548   0.076  0.00  0.00    +0.162 C 
ATOM     17  O5  UNL     1       2.161  -0.200   1.067  0.00  0.00    -0.365 OA
ATOM     18  C18 UNL     1       3.513  -0.364   0.595  0.00  0.00    +0.175 C 
ATOM     19  C20 UNL     1       3.761   0.583  -0.593  0.00  0.00    +0.176 C 
ATOM     20  C21 UNL     1       2.738   0.293  -1.694  0.00  0.00    +0.176 C 
ATOM     21  C22 UNL     1       1.307   0.375  -1.154  0.00  0.00    +0.175 C 
BRANCH  19  22
ATOM     22  O7  UNL     1       5.072   0.450  -1.141  0.00  0.00    -0.386 OA
ATOM     23  H20 UNL     1       5.052   0.940  -1.987  0.00  0.00    +0.210 HD
ENDBRANCH  19  22
BRANCH  20  24
ATOM     24  O8  UNL     1       2.918   1.242  -2.760  0.00  0.00    -0.386 OA
ATOM     25  H22 UNL     1       2.281   0.977  -3.451  0.00  0.00    +0.210 HD
ENDBRANCH  20  24
BRANCH  21  26
ATOM     26  O9  UNL     1       0.421  -0.007  -2.208  0.00  0.00    -0.387 OA
ATOM     27  H24 UNL     1      -0.065   0.790  -2.497  0.00  0.00    +0.210 HD
ENDBRANCH  21  26
BRANCH  18  28
ATOM     28  C19 UNL     1       4.458  -0.081   1.773  0.00  0.00    +0.190 C 
BRANCH  28  29
ATOM     29  O6  UNL     1       5.703  -0.749   1.612  0.00  0.00    -0.392 OA
ATOM     30  H18 UNL     1       6.313  -0.389   2.277  0.00  0.00    +0.210 HD
ENDBRANCH  28  29
ENDBRANCH  18  28
ENDBRANCH  15  16
BRANCH   1  32
ATOM     31  C1  UNL     1      -3.618   4.604  -0.105  0.00  0.00    +0.277 C 
ATOM     32  O1  UNL     1      -3.242   3.242  -0.254  0.00  0.00    -0.494 OA
ENDBRANCH   1  32
BRANCH  10  33
ATOM     33  O3  UNL     1      -4.092  -1.182  -2.290  0.00  0.00    -0.506 OA
ATOM     34  H7  UNL     1      -3.948  -0.210  -2.367  0.00  0.00    +0.292 HD
ENDBRANCH  10  33
BRANCH  12  35
ATOM     35  C13 UNL     1      -1.952  -5.136  -0.411  0.00  0.00    +0.191 C 
BRANCH  35  36
ATOM     36  O4  UNL     1      -2.261  -5.530   0.919  0.00  0.00    -0.390 OA
ATOM     37  H11 UNL     1      -2.971  -4.945   1.233  0.00  0.00    +0.210 HD
ENDBRANCH  35  36
ENDBRANCH  12  35
TORSDOF 10
