REMARK  Name = ligand_384.pdb
REMARK  17 active torsions:
REMARK  status: ('A' for Active; 'I' for Inactive)
REMARK    1  A    between atoms: C1_1  and  O1_2
REMARK    2  A    between atoms: O1_2  and  C2_3
REMARK    3  A    between atoms: C2_3  and  C3_5
REMARK    4  A    between atoms: C3_5  and  C4_6
REMARK    5  A    between atoms: C5_7  and  C6_8
REMARK    6  A    between atoms: C8_10  and  O12_47
REMARK    7  A    between atoms: C9_11  and  C10_12
REMARK    8  A    between atoms: C14_16  and  C35_46
REMARK    9  A    between atoms: C18_22  and  C19_23
REMARK   10  A    between atoms: C25_30  and  O8_39
REMARK   11  A    between atoms: C26_31  and  O6_32
REMARK   12  A    between atoms: O6_32  and  C27_33
REMARK   13  A    between atoms: C27_33  and  C28_35
REMARK   14  A    between atoms: C28_35  and  C31_38
REMARK   15  A    between atoms: C29_36  and  C30_37
REMARK   16  A    between atoms: C32_41  and  C33_44
REMARK   17  A    between atoms: C33_44  and  C34_45
REMARK                            x       y       z     vdW  Elec       q    Type
REMARK                         _______ _______ _______ _____ _____    ______ ____
ROOT
ATOM      1  C4  UNL     1      -1.015   1.678  -0.451  0.00  0.00    +0.021 C 
ATOM      2  C5  UNL     1      -2.474   1.219  -0.889  0.00  0.00    +0.015 C 
ATOM      3  C6  UNL     1      -3.641   1.797  -0.101  0.00  0.00    +0.015 C 
ATOM      4  C7  UNL     1      -2.514   1.617  -2.361  0.00  0.00    +0.049 C 
ATOM      5  C8  UNL     1      -1.270   0.799  -2.711  0.00  0.00    +0.110 C 
ATOM      6  C9  UNL     1      -0.151   1.389  -1.765  0.00  0.00    +0.036 C 
ATOM      7  C10 UNL     1       0.386   2.690  -2.437  0.00  0.00    +0.017 C 
ATOM      8  C11 UNL     1       1.051   0.339  -1.632  0.00  0.00    +0.119 C 
ATOM      9  C12 UNL     1       2.280   0.820  -0.831  0.00  0.00    +0.040 C 
ATOM     10  C13 UNL     1       2.173   0.553   0.666  0.00  0.00    +0.018 C 
ATOM     11  C14 UNL     1       2.026  -0.933   1.041  0.00  0.00    +0.034 C 
ATOM     12  C15 UNL     1       0.894  -1.575   0.221  0.00  0.00    -0.016 C 
ATOM     13  C16 UNL     1       0.262  -2.638   0.748  0.00  0.00    +0.094 C 
ATOM     14  C17 UNL     1       0.637  -3.211   2.056  0.00  0.00    +0.333 C 
ATOM     15  O3  UNL     1       0.313  -4.353   2.346  0.00  0.00    -0.246 OA
ATOM     16  O4  UNL     1       1.340  -2.421   2.895  0.00  0.00    -0.453 OA
ATOM     17  C18 UNL     1       1.601  -1.048   2.537  0.00  0.00    +0.220 C 
ATOM     18  C23 UNL     1       0.699  -1.117  -1.213  0.00  0.00    +0.156 C 
ATOM     19  C24 UNL     1      -0.477  -1.583  -2.082  0.00  0.00    +0.201 C 
ATOM     20  C25 UNL     1      -1.662  -0.636  -2.245  0.00  0.00    +0.161 C 
ATOM     21  C26 UNL     1      -2.579  -0.333  -1.029  0.00  0.00    +0.220 C 
ATOM     22  O9  UNL     1       0.124  -1.699  -3.414  0.00  0.00    -0.317 OA
ATOM     23  C32 UNL     1       1.478  -1.296  -3.178  0.00  0.00    +0.287 C 
ATOM     24  O10 UNL     1       1.545   0.121  -2.999  0.00  0.00    -0.316 OA
ATOM     25  O11 UNL     1       1.772  -1.838  -1.901  0.00  0.00    -0.310 OA
ATOM     26  C35 UNL     1       3.361  -1.675   0.792  0.00  0.00    +0.020 C 
ENDROOT
BRANCH  17  27
ATOM     27  C19 UNL     1       2.553  -0.440   3.529  0.00  0.00    +0.031 A 
ATOM     28  C20 UNL     1       2.497   0.877   4.076  0.00  0.00    +0.048 A 
ATOM     29  C21 UNL     1       3.561   0.988   4.936  0.00  0.00    +0.195 A 
ATOM     30  O5  UNL     1       4.260  -0.174   4.977  0.00  0.00    -0.471 OA
ATOM     31  C22 UNL     1       3.641  -1.040   4.136  0.00  0.00    +0.202 A 
ENDBRANCH  17  27
BRANCH  20  32
ATOM     32  O8  UNL     1      -2.493  -1.205  -3.297  0.00  0.00    -0.379 OA
ATOM     33  H33 UNL     1      -1.870  -1.558  -3.965  0.00  0.00    +0.211 HD
ENDBRANCH  20  32
BRANCH  23  34
ATOM     34  C33 UNL     1       2.414  -1.783  -4.267  0.00  0.00    +0.095 C 
ATOM     35  C34 UNL     1       2.101  -1.197  -5.638  0.00  0.00    +0.012 C 
ENDBRANCH  23  34
BRANCH   5  36
ATOM     36  O12 UNL     1      -0.986   0.878  -4.094  0.00  0.00    -0.385 OA
ATOM     37  H42 UNL     1      -1.777   0.568  -4.577  0.00  0.00    +0.210 HD
ENDBRANCH   5  36
BRANCH   1  38
ATOM     38  C3  UNL     1      -1.085   3.151   0.051  0.00  0.00    +0.125 C 
BRANCH  38  39
ATOM     39  C2  UNL     1       0.149   3.821   0.606  0.00  0.00    +0.307 C 
ATOM     40  O2  UNL     1       1.259   3.329   0.708  0.00  0.00    -0.251 OA
BRANCH  39  42
ATOM     41  C1  UNL     1       0.902   5.823   1.582  0.00  0.00    +0.280 C 
ATOM     42  O1  UNL     1      -0.180   5.080   1.011  0.00  0.00    -0.468 OA
ENDBRANCH  39  42
ENDBRANCH  38  39
ENDBRANCH   1  38
BRANCH  21  43
ATOM     43  O6  UNL     1      -2.283  -1.018   0.193  0.00  0.00    -0.454 OA
BRANCH  43  44
ATOM     44  C27 UNL     1      -3.381  -1.292   0.947  0.00  0.00    +0.335 C 
ATOM     45  O7  UNL     1      -4.535  -0.994   0.685  0.00  0.00    -0.245 OA
BRANCH  44  46
ATOM     46  C28 UNL     1      -3.024  -2.050   2.163  0.00  0.00    +0.029 C 
ATOM     47  C29 UNL     1      -3.687  -3.211   2.343  0.00  0.00    -0.020 C 
ATOM     48  C30 UNL     1      -3.549  -4.116   3.525  0.00  0.00    +0.036 C 
ATOM     49  C31 UNL     1      -2.122  -1.415   3.163  0.00  0.00    +0.051 C 
ENDBRANCH  44  46
ENDBRANCH  43  44
ENDBRANCH  21  43
TORSDOF 10
