REMARK  Name = ligand_725.pdb
REMARK  5 active torsions:
REMARK  status: ('A' for Active; 'I' for Inactive)
REMARK    1  A    between atoms: C1_1  and  O1_2
REMARK    2  A    between atoms: O1_2  and  C2_3
REMARK    3  A    between atoms: C5_6  and  C8_9
REMARK    4  A    between atoms: N1_17  and  C14_18
REMARK    5  A    between atoms: C14_18  and  C15_19
REMARK                            x       y       z     vdW  Elec       q    Type
REMARK                         _______ _______ _______ _____ _____    ______ ____
ROOT
ATOM      1  C8  UNL     1      -2.640   0.524   0.941  0.00  0.00    -0.000 A 
ATOM      2  C9  UNL     1      -2.635   1.135   2.136  0.00  0.00    +0.101 A 
ATOM      3  C10 UNL     1      -1.437   1.746   2.725  0.00  0.00    +0.338 A 
ATOM      4  O2  UNL     1      -1.487   2.296   3.819  0.00  0.00    -0.245 OA
ATOM      5  O3  UNL     1      -0.267   1.669   1.990  0.00  0.00    -0.422 OA
ATOM      6  C11 UNL     1      -0.224   1.034   0.732  0.00  0.00    +0.148 A 
ATOM      7  C12 UNL     1       1.009   1.004   0.067  0.00  0.00    +0.051 A 
ATOM      8  C13 UNL     1       2.247   1.626   0.651  0.00  0.00    +0.130 C 
ATOM      9  N1  UNL     1       3.485   1.195  -0.011  0.00  0.00    -0.262 NA
ATOM     10  C21 UNL     1       3.252   1.220  -1.456  0.00  0.00    +0.319 C 
ATOM     11  O4  UNL     1       2.223   0.332  -1.918  0.00  0.00    -0.476 OA
ATOM     12  C22 UNL     1       1.064   0.410  -1.194  0.00  0.00    +0.130 A 
ATOM     13  C23 UNL     1      -0.068  -0.179  -1.754  0.00  0.00    +0.047 A 
ATOM     14  C24 UNL     1      -1.285  -0.150  -1.067  0.00  0.00    +0.016 A 
ATOM     15  C25 UNL     1      -1.378   0.464   0.188  0.00  0.00    +0.026 A 
ENDROOT
BRANCH   1  19
ATOM     16  C2  UNL     1      -6.399  -1.091  -0.336  0.00  0.00    +0.120 A 
ATOM     17  C3  UNL     1      -5.496  -1.878   0.384  0.00  0.00    +0.046 A 
ATOM     18  C4  UNL     1      -4.270  -1.356   0.804  0.00  0.00    +0.012 A 
ATOM     19  C5  UNL     1      -3.934  -0.033   0.502  0.00  0.00    -0.017 A 
ATOM     20  C6  UNL     1      -4.836   0.757  -0.219  0.00  0.00    +0.012 A 
ATOM     21  C7  UNL     1      -6.064   0.230  -0.637  0.00  0.00    +0.046 A 
BRANCH  16  23
ATOM     22  C1  UNL     1      -8.518  -0.966  -1.407  0.00  0.00    +0.277 C 
ATOM     23  O1  UNL     1      -7.558  -1.727  -0.684  0.00  0.00    -0.495 OA
ENDBRANCH  16  23
ENDBRANCH   1  19
BRANCH   9  24
ATOM     24  C14 UNL     1       3.921  -0.128   0.461  0.00  0.00    +0.123 C 
BRANCH  24  25
ATOM     25  C15 UNL     1       5.313  -0.494  -0.017  0.00  0.00    -0.033 A 
ATOM     26  C16 UNL     1       5.505  -1.579  -0.887  0.00  0.00    +0.008 A 
ATOM     27  C17 UNL     1       6.788  -1.912  -1.325  0.00  0.00    +0.038 A 
ATOM     28  C18 UNL     1       7.876  -1.162  -0.895  0.00  0.00    +0.123 A 
ATOM     29  F1  UNL     1       9.106  -1.483  -1.318  0.00  0.00    -0.205 F 
ATOM     30  C19 UNL     1       7.708  -0.083  -0.036  0.00  0.00    +0.038 A 
ATOM     31  C20 UNL     1       6.427   0.252   0.404  0.00  0.00    +0.008 A 
ENDBRANCH  24  25
ENDBRANCH   9  24
TORSDOF 4
