REMARK  Name = ligand_669.pdb
REMARK  9 active torsions:
REMARK  status: ('A' for Active; 'I' for Inactive)
REMARK    1  A    between atoms: C1_1  and  C2_2
REMARK    2  A    between atoms: C7_7  and  N1_8
REMARK    3  A    between atoms: N1_8  and  C8_9
REMARK    4  A    between atoms: C8_9  and  C9_10
REMARK    5  A    between atoms: C9_10  and  O1_11
REMARK    6  A    between atoms: C9_10  and  C10_12
REMARK    7  A    between atoms: C10_12  and  N2_13
REMARK    8  A    between atoms: C11_14  and  C12_15
REMARK    9  A    between atoms: C13_16  and  C14_17
REMARK                            x       y       z     vdW  Elec       q    Type
REMARK                         _______ _______ _______ _____ _____    ______ ____
ROOT
ATOM      1  C9  UNL     1      -0.501   0.886   0.692  0.00  0.00    +0.148 C 
ENDROOT
BRANCH   1   2
ATOM      2  O1  UNL     1      -0.492   1.980  -0.233  0.00  0.00    -0.389 OA
ATOM      3  H18 UNL     1      -1.417   2.258  -0.364  0.00  0.00    +0.210 HD
ENDBRANCH   1   2
BRANCH   1   4
ATOM      4  C8  UNL     1       0.957   0.537   1.085  0.00  0.00    +0.114 C 
BRANCH   4   5
ATOM      5  N1  UNL     1       1.768  -0.015  -0.013  0.00  0.00    -0.310 NA
ATOM      6  H14 UNL     1       1.309  -0.831  -0.410  0.00  0.00    +0.122 HD
BRANCH   5  13
ATOM      7  C1  UNL     1       4.482  -2.468  -0.192  0.00  0.00    +0.009 C 
ATOM      8  C2  UNL     1       3.811  -1.203  -0.744  0.00  0.00    +0.003 C 
ATOM      9  C3  UNL     1       4.800  -0.356  -1.555  0.00  0.00    +0.005 C 
ATOM     10  C4  UNL     1       5.911   0.254  -0.700  0.00  0.00    +0.000 C 
ATOM     11  C5  UNL     1       5.447   0.660   0.699  0.00  0.00    +0.002 C 
ATOM     12  C6  UNL     1       3.943   0.891   0.758  0.00  0.00    +0.019 C 
ATOM     13  C7  UNL     1       3.140  -0.377   0.395  0.00  0.00    +0.057 C 
ENDBRANCH   5  13
ENDBRANCH   4   5
ENDBRANCH   1   4
BRANCH   1  14
ATOM     14  C10 UNL     1      -1.247  -0.323   0.113  0.00  0.00    +0.154 C 
BRANCH  14  15
ATOM     15  N2  UNL     1      -2.697  -0.141   0.147  0.00  0.00    -0.341 N 
ATOM     16  C11 UNL     1      -3.518  -0.481   1.204  0.00  0.00    +0.020 A 
ATOM     17  C12 UNL     1      -3.014  -1.105   2.461  0.00  0.00    +0.064 C 
ATOM     18  C13 UNL     1      -4.817  -0.142   0.852  0.00  0.00    -0.022 A 
ATOM     19  C14 UNL     1      -6.033  -0.330   1.692  0.00  0.00    +0.046 C 
ATOM     20  C15 UNL     1      -4.771   0.419  -0.463  0.00  0.00    +0.003 A 
ATOM     21  C16 UNL     1      -5.751   0.940  -1.336  0.00  0.00    +0.010 A 
ATOM     22  C17 UNL     1      -5.377   1.423  -2.594  0.00  0.00    +0.001 A 
ATOM     23  C18 UNL     1      -4.047   1.392  -2.994  0.00  0.00    +0.002 A 
ATOM     24  C19 UNL     1      -3.057   0.881  -2.150  0.00  0.00    +0.026 A 
ATOM     25  C20 UNL     1      -3.441   0.400  -0.884  0.00  0.00    +0.050 A 
ENDBRANCH  14  15
ENDBRANCH   1  14
TORSDOF 6
