REMARK  Name = ligand_596.pdb
REMARK  9 active torsions:
REMARK  status: ('A' for Active; 'I' for Inactive)
REMARK    1  A    between atoms: C1_1  and  C2_2
REMARK    2  A    between atoms: C2_2  and  C3_3
REMARK    3  A    between atoms: C2_2  and  C4_4
REMARK    4  A    between atoms: C7_7  and  C8_8
REMARK    5  A    between atoms: C8_8  and  N1_9
REMARK    6  A    between atoms: C9_10  and  C10_11
REMARK    7  A    between atoms: C10_11  and  C11_12
REMARK    8  A    between atoms: C11_12  and  N2_13
REMARK    9  A    between atoms: C12_14  and  C13_16
REMARK                            x       y       z     vdW  Elec       q    Type
REMARK                         _______ _______ _______ _____ _____    ______ ____
ROOT
ATOM      1  N1  UNL     1      -0.908  -1.192   1.195  0.00  0.00    -0.323 N 
ATOM      2  C9  UNL     1      -1.866  -0.349   0.666  0.00  0.00    +0.113 A 
ATOM      3  N3  UNL     1      -2.742  -1.032  -0.050  0.00  0.00    -0.232 NA
ATOM      4  C14 UNL     1      -2.329  -2.338  -0.007  0.00  0.00    +0.089 A 
ATOM      5  C15 UNL     1      -2.896  -3.470  -0.612  0.00  0.00    +0.030 A 
ATOM      6  C16 UNL     1      -2.288  -4.715  -0.416  0.00  0.00    +0.002 A 
ATOM      7  C17 UNL     1      -1.138  -4.831   0.366  0.00  0.00    +0.002 A 
ATOM      8  C18 UNL     1      -0.560  -3.712   0.977  0.00  0.00    +0.028 A 
ATOM      9  C19 UNL     1      -1.184  -2.475   0.769  0.00  0.00    +0.069 A 
ENDROOT
BRANCH   1  10
ATOM     10  C8  UNL     1       0.164  -0.820   2.110  0.00  0.00    +0.158 C 
BRANCH  10  14
ATOM     11  C4  UNL     1       3.597   1.059   0.226  0.00  0.00    -0.045 A 
ATOM     12  C5  UNL     1       2.980  -0.047  -0.371  0.00  0.00    +0.004 A 
ATOM     13  C6  UNL     1       1.871  -0.657   0.223  0.00  0.00    +0.005 A 
ATOM     14  C7  UNL     1       1.340  -0.167   1.424  0.00  0.00    -0.028 A 
ATOM     15  C20 UNL     1       1.971   0.928   2.031  0.00  0.00    +0.005 A 
ATOM     16  C21 UNL     1       3.080   1.537   1.437  0.00  0.00    +0.004 A 
BRANCH  11  18
ATOM     17  C1  UNL     1       4.454   2.342  -1.766  0.00  0.00    +0.012 C 
ATOM     18  C2  UNL     1       4.800   1.739  -0.403  0.00  0.00    +0.013 C 
ATOM     19  C3  UNL     1       5.992   0.785  -0.516  0.00  0.00    +0.012 C 
ENDBRANCH  11  18
ENDBRANCH  10  14
ENDBRANCH   1  10
BRANCH   2  20
ATOM     20  C10 UNL     1      -1.922   1.131   0.917  0.00  0.00    +0.093 C 
BRANCH  20  21
ATOM     21  C11 UNL     1      -2.542   1.905  -0.250  0.00  0.00    +0.112 C 
BRANCH  21  22
ATOM     22  N2  UNL     1      -3.917   1.514  -0.507  0.00  0.00    -0.315 N 
ATOM     23  C12 UNL     1      -4.747   2.298  -1.271  0.00  0.00    +0.210 C 
ATOM     24  O1  UNL     1      -4.466   3.434  -1.641  0.00  0.00    -0.276 OA
ATOM     25  C13 UNL     1      -6.052   1.640  -1.628  0.00  0.00    +0.109 C 
ATOM     26  H16 UNL     1      -4.068   0.506  -0.525  0.00  0.00    +0.149 HD
ENDBRANCH  21  22
ENDBRANCH  20  21
ENDBRANCH   2  20
TORSDOF 6
