REMARK  Name = ligand_588.pdb
REMARK  12 active torsions:
REMARK  status: ('A' for Active; 'I' for Inactive)
REMARK    1  A    between atoms: C1_1  and  C2_2
REMARK    2  A    between atoms: C2_2  and  O1_3
REMARK    3  A    between atoms: O1_3  and  C3_4
REMARK    4  A    between atoms: C6_8  and  C7_9
REMARK    5  A    between atoms: C7_9  and  N1_10
REMARK    6  A    between atoms: N1_10  and  C8_11
REMARK    7  A    between atoms: C8_11  and  C9_12
REMARK    8  A    between atoms: C8_11  and  C10_13
REMARK    9  A    between atoms: C10_13  and  O2_14
REMARK   10  A    between atoms: C10_13  and  C11_15
REMARK   11  A    between atoms: C18_22  and  O3_23
REMARK   12  A    between atoms: O3_23  and  C19_24
REMARK                            x       y       z     vdW  Elec       q    Type
REMARK                         _______ _______ _______ _____ _____    ______ ____
ROOT
ATOM      1  C7  UNL     1       0.044  -0.255   0.735  0.00  0.00    +0.116 C 
ENDROOT
BRANCH   1   6
ATOM      2  C3  UNL     1      -3.996   1.045  -0.048  0.00  0.00    +0.180 A 
ATOM      3  C4  UNL     1      -3.074   1.928   0.527  0.00  0.00    +0.086 A 
ATOM      4 CL1  UNL     1      -3.511   3.551   0.935  0.00  0.00    -0.080 Cl
ATOM      5  C5  UNL     1      -1.769   1.508   0.787  0.00  0.00    +0.028 A 
ATOM      6  C6  UNL     1      -1.372   0.202   0.470  0.00  0.00    -0.029 A 
ATOM      7  C17 UNL     1      -2.292  -0.666  -0.144  0.00  0.00    +0.054 A 
ATOM      8  C18 UNL     1      -3.601  -0.253  -0.416  0.00  0.00    +0.163 A 
BRANCH   8   9
ATOM      9  O3  UNL     1      -4.552  -1.029  -1.027  0.00  0.00    -0.491 OA
ATOM     10  C19 UNL     1      -4.125  -2.264  -1.589  0.00  0.00    +0.277 C 
ENDBRANCH   8   9
BRANCH   2  11
ATOM     11  O1  UNL     1      -5.269   1.488  -0.331  0.00  0.00    -0.487 OA
BRANCH  11  13
ATOM     12  C1  UNL     1      -7.531   1.696   0.396  0.00  0.00    +0.048 C 
ATOM     13  C2  UNL     1      -6.185   1.050   0.678  0.00  0.00    +0.226 C 
ENDBRANCH  11  13
ENDBRANCH   2  11
ENDBRANCH   1   6
BRANCH   1  14
ATOM     14  N1  UNL     1       0.826  -0.219  -0.500  0.00  0.00    -0.307 NA
ATOM     15  H9  UNL     1       0.832   0.746  -0.831  0.00  0.00    +0.123 HD
BRANCH  14  16
ATOM     16  C8  UNL     1       2.227  -0.652  -0.277  0.00  0.00    +0.084 C 
ATOM     17  C9  UNL     1       2.639  -1.436  -1.529  0.00  0.00    +0.027 C 
BRANCH  16  18
ATOM     18  C10 UNL     1       3.205   0.546  -0.024  0.00  0.00    +0.161 C 
BRANCH  18  19
ATOM     19  C11 UNL     1       4.632   0.121   0.274  0.00  0.00    -0.018 A 
ATOM     20  C12 UNL     1       4.936  -0.661   1.401  0.00  0.00    +0.006 A 
ATOM     21  C13 UNL     1       6.251  -1.053   1.660  0.00  0.00    +0.000 A 
ATOM     22  C14 UNL     1       7.275  -0.671   0.799  0.00  0.00    +0.000 A 
ATOM     23  C15 UNL     1       6.989   0.110  -0.317  0.00  0.00    +0.000 A 
ATOM     24  C16 UNL     1       5.675   0.507  -0.579  0.00  0.00    +0.006 A 
ENDBRANCH  18  19
BRANCH  18  25
ATOM     25  O2  UNL     1       2.734   1.356   1.066  0.00  0.00    -0.386 OA
ATOM     26  H15 UNL     1       3.516   1.747   1.495  0.00  0.00    +0.210 HD
ENDBRANCH  18  25
ENDBRANCH  16  18
ENDBRANCH  14  16
ENDBRANCH   1  14
TORSDOF 9
