REMARK  Name = ligand_480.pdb
REMARK  10 active torsions:
REMARK  status: ('A' for Active; 'I' for Inactive)
REMARK    1  A    between atoms: C1_1  and  O1_2
REMARK    2  A    between atoms: O1_2  and  C2_3
REMARK    3  A    between atoms: C5_6  and  C8_9
REMARK    4  A    between atoms: C9_10  and  C10_11
REMARK    5  A    between atoms: C13_14  and  O2_15
REMARK    6  A    between atoms: O2_15  and  C14_16
REMARK    7  A    between atoms: C17_19  and  C37_43
REMARK    8  A    between atoms: N1_24  and  C22_27
REMARK    9  A    between atoms: C25_30  and  C26_31
REMARK   10  A    between atoms: C29_34  and  C31_37
REMARK                            x       y       z     vdW  Elec       q    Type
REMARK                         _______ _______ _______ _____ _____    ______ ____
ROOT
ATOM      1  C8  UNL     1      -1.078  -0.363  -0.510  0.00  0.00    -0.017 C 
ATOM      2  C9  UNL     1      -1.066   0.661   0.373  0.00  0.00    -0.017 C 
ATOM      3  C17 UNL     1       0.384   1.040   0.703  0.00  0.00    +0.093 C 
ATOM      4  C18 UNL     1       1.020  -0.162   1.462  0.00  0.00    +0.111 C 
ATOM      5  C19 UNL     1       0.960  -1.354   0.466  0.00  0.00    +0.111 C 
ATOM      6  C20 UNL     1       2.394  -1.791   0.344  0.00  0.00    +0.232 C 
ATOM      7  O3  UNL     1       2.680  -2.884  -0.127  0.00  0.00    -0.274 OA
ATOM      8  N1  UNL     1       3.220  -0.846   0.912  0.00  0.00    -0.210 N 
ATOM      9  C21 UNL     1       2.498  -0.016   1.742  0.00  0.00    +0.232 C 
ATOM     10  O4  UNL     1       2.897   0.696   2.654  0.00  0.00    -0.274 OA
ATOM     11  C29 UNL     1       0.360  -0.767  -0.849  0.00  0.00    +0.093 C 
ATOM     12  C30 UNL     1       0.908   0.629  -0.656  0.00  0.00    +0.164 C 
ATOM     13  O5  UNL     1       1.723   1.218  -1.347  0.00  0.00    -0.295 OA
ENDROOT
BRANCH   8  14
ATOM     14  C22 UNL     1       4.654  -0.873   0.828  0.00  0.00    +0.044 A 
ATOM     15  C23 UNL     1       5.326  -1.783  -0.005  0.00  0.00    +0.024 A 
ATOM     16  C24 UNL     1       6.726  -1.812  -0.098  0.00  0.00    +0.005 A 
ATOM     17  C25 UNL     1       7.505  -0.911   0.622  0.00  0.00    -0.050 A 
ATOM     18  C26 UNL     1       9.002  -0.959   0.556  0.00  0.00    +0.044 C 
ATOM     19  C27 UNL     1       6.860   0.013   1.443  0.00  0.00    +0.005 A 
ATOM     20  C28 UNL     1       5.459   0.036   1.534  0.00  0.00    +0.024 A 
ENDBRANCH   8  14
BRANCH   1  24
ATOM     21  C2  UNL     1      -4.536  -2.460  -1.906  0.00  0.00    +0.120 A 
ATOM     22  C3  UNL     1      -4.113  -2.598  -0.584  0.00  0.00    +0.046 A 
ATOM     23  C4  UNL     1      -2.980  -1.910  -0.131  0.00  0.00    +0.012 A 
ATOM     24  C5  UNL     1      -2.256  -1.081  -0.996  0.00  0.00    -0.020 A 
ATOM     25  C6  UNL     1      -2.690  -0.935  -2.316  0.00  0.00    +0.012 A 
ATOM     26  C7  UNL     1      -3.820  -1.624  -2.765  0.00  0.00    +0.046 A 
BRANCH  21  28
ATOM     27  C1  UNL     1      -6.363  -3.957  -1.647  0.00  0.00    +0.277 C 
ATOM     28  O1  UNL     1      -5.618  -3.072  -2.474  0.00  0.00    -0.495 OA
ENDBRANCH  21  28
ENDBRANCH   1  24
BRANCH   2  29
ATOM     29  C10 UNL     1      -2.234   1.282   1.002  0.00  0.00    -0.020 A 
ATOM     30  C11 UNL     1      -2.402   1.260   2.390  0.00  0.00    +0.012 A 
ATOM     31  C12 UNL     1      -3.523   1.856   2.974  0.00  0.00    +0.046 A 
ATOM     32  C13 UNL     1      -4.492   2.481   2.187  0.00  0.00    +0.120 A 
ATOM     33  C15 UNL     1      -4.331   2.502   0.802  0.00  0.00    +0.046 A 
ATOM     34  C16 UNL     1      -3.209   1.907   0.216  0.00  0.00    +0.012 A 
BRANCH  32  35
ATOM     35  O2  UNL     1      -5.535   3.024   2.885  0.00  0.00    -0.495 OA
ATOM     36  C14 UNL     1      -6.522   3.713   2.128  0.00  0.00    +0.277 C 
ENDBRANCH  32  35
ENDBRANCH   2  29
BRANCH  11  37
ATOM     37  C31 UNL     1       0.566  -1.480  -2.160  0.00  0.00    -0.029 A 
ATOM     38  C32 UNL     1       0.820  -0.798  -3.361  0.00  0.00    +0.005 A 
ATOM     39  C33 UNL     1       0.959  -1.486  -4.570  0.00  0.00    +0.000 A 
ATOM     40  C34 UNL     1       0.835  -2.870  -4.606  0.00  0.00    +0.000 A 
ATOM     41  C35 UNL     1       0.569  -3.567  -3.433  0.00  0.00    +0.000 A 
ATOM     42  C36 UNL     1       0.430  -2.879  -2.226  0.00  0.00    +0.005 A 
ENDBRANCH  11  37
BRANCH   3  43
ATOM     43  C37 UNL     1       0.590   2.469   1.139  0.00  0.00    -0.029 A 
ATOM     44  C38 UNL     1       0.742   2.798   2.496  0.00  0.00    +0.005 A 
ATOM     45  C39 UNL     1       0.879   4.126   2.910  0.00  0.00    +0.000 A 
ATOM     46  C40 UNL     1       0.850   5.156   1.976  0.00  0.00    +0.000 A 
ATOM     47  C41 UNL     1       0.679   4.858   0.629  0.00  0.00    +0.000 A 
ATOM     48  C42 UNL     1       0.544   3.530   0.216  0.00  0.00    +0.005 A 
ENDBRANCH   3  43
TORSDOF 7
