REMARK  Name = ligand_752.pdb
REMARK  7 active torsions:
REMARK  status: ('A' for Active; 'I' for Inactive)
REMARK    1  A    between atoms: C1_1  and  O1_2
REMARK    2  A    between atoms: O1_2  and  C2_3
REMARK    3  A    between atoms: C5_6  and  C8_9
REMARK    4  A    between atoms: N1_11  and  C9_12
REMARK    5  A    between atoms: C9_12  and  C10_13
REMARK    6  A    between atoms: C9_12  and  C16_20
REMARK    7  A    between atoms: C24_30  and  O3_31
REMARK                            x       y       z     vdW  Elec       q    Type
REMARK                         _______ _______ _______ _____ _____    ______ ____
ROOT
ATOM      1  C9  UNL     1      -0.802   0.101  -0.879  0.00  0.00    +0.139 C 
ENDROOT
BRANCH   1   2
ATOM      2  C16 UNL     1      -1.698   0.863   0.096  0.00  0.00    +0.022 A 
ATOM      3  C17 UNL     1      -1.267   1.277   1.363  0.00  0.00    +0.030 A 
ATOM      4  C18 UNL     1      -2.127   1.964   2.229  0.00  0.00    +0.051 A 
ATOM      5 CL2  UNL     1      -1.487   2.414   3.776  0.00  0.00    -0.083 Cl
ATOM      6  C19 UNL     1      -3.454   2.277   1.853  0.00  0.00    +0.022 A 
ATOM      7  C20 UNL     1      -4.387   2.964   2.662  0.00  0.00    +0.013 A 
ATOM      8  C21 UNL     1      -5.668   3.234   2.191  0.00  0.00    +0.020 A 
ATOM      9  C22 UNL     1      -5.991   2.810   0.919  0.00  0.00    +0.111 A 
ATOM     10  N2  UNL     1      -5.136   2.148   0.110  0.00  0.00    -0.251 NA
ATOM     11  C23 UNL     1      -3.895   1.887   0.576  0.00  0.00    +0.114 A 
ATOM     12  C24 UNL     1      -3.012   1.201  -0.262  0.00  0.00    +0.148 A 
BRANCH  12  13
ATOM     13  O3  UNL     1      -3.475   0.859  -1.515  0.00  0.00    -0.504 OA
ATOM     14  H18 UNL     1      -4.403   1.182  -1.526  0.00  0.00    +0.292 HD
ENDBRANCH  12  13
ENDBRANCH   1   2
BRANCH   1  15
ATOM     15  C10 UNL     1      -1.246  -1.339  -1.136  0.00  0.00    -0.004 A 
ATOM     16  C11 UNL     1      -1.696  -1.672  -2.431  0.00  0.00    +0.007 A 
ATOM     17  C12 UNL     1      -2.120  -2.964  -2.745  0.00  0.00    +0.000 A 
ATOM     18  C13 UNL     1      -2.100  -3.957  -1.773  0.00  0.00    +0.001 A 
ATOM     19  C14 UNL     1      -1.650  -3.657  -0.489  0.00  0.00    +0.020 A 
ATOM     20  C15 UNL     1      -1.224  -2.361  -0.171  0.00  0.00    +0.046 A 
ATOM     21 CL1  UNL     1      -0.642  -2.111   1.439  0.00  0.00    -0.083 Cl
ENDBRANCH   1  15
BRANCH   1  24
ATOM     22  C8  UNL     1       1.602   0.201  -1.443  0.00  0.00    +0.245 C 
ATOM     23  O2  UNL     1       1.403   0.433  -2.629  0.00  0.00    -0.270 OA
ATOM     24  N1  UNL     1       0.606   0.115  -0.493  0.00  0.00    -0.300 N 
ATOM     25  H8  UNL     1       0.825  -0.392   0.353  0.00  0.00    +0.150 HD
BRANCH  22  29
ATOM     26  C2  UNL     1       5.614  -0.561  -0.107  0.00  0.00    +0.120 A 
ATOM     27  C3  UNL     1       4.688   0.000   0.775  0.00  0.00    +0.046 A 
ATOM     28  C4  UNL     1       3.377   0.256   0.353  0.00  0.00    +0.016 A 
ATOM     29  C5  UNL     1       2.985  -0.054  -0.955  0.00  0.00    +0.037 A 
ATOM     30  C6  UNL     1       3.916  -0.601  -1.843  0.00  0.00    +0.016 A 
ATOM     31  C7  UNL     1       5.220  -0.857  -1.414  0.00  0.00    +0.046 A 
BRANCH  26  33
ATOM     32  C1  UNL     1       7.381  -0.539   1.484  0.00  0.00    +0.277 C 
ATOM     33  O1  UNL     1       6.915  -0.863   0.180  0.00  0.00    -0.495 OA
ENDBRANCH  26  33
ENDBRANCH  22  29
ENDBRANCH   1  24
TORSDOF 6
