REMARK  Name = ligand_514.pdb
REMARK  10 active torsions:
REMARK  status: ('A' for Active; 'I' for Inactive)
REMARK    1  A    between atoms: C1_1  and  C2_2
REMARK    2  A    between atoms: C2_2  and  C3_3
REMARK    3  A    between atoms: C3_3  and  C4_4
REMARK    4  A    between atoms: C4_4  and  C5_5
REMARK    5  A    between atoms: C5_5  and  C6_6
REMARK    6  A    between atoms: C6_6  and  O1_7
REMARK    7  A    between atoms: O1_7  and  C7_8
REMARK    8  A    between atoms: C7_8  and  C8_10
REMARK    9  A    between atoms: C9_11  and  C10_12
REMARK   10  A    between atoms: C12_17  and  C13_18
REMARK                            x       y       z     vdW  Elec       q    Type
REMARK                         _______ _______ _______ _____ _____    ______ ____
ROOT
ATOM      1  C8  UNL     1      -1.406   1.018   0.372  0.00  0.00    +0.078 C 
ATOM      2  C9  UNL     1      -1.336   2.337   0.635  0.00  0.00    +0.021 C 
ATOM      3  C10 UNL     1      -0.356   3.314   0.048  0.00  0.00    +0.061 C 
ATOM      4  N1  UNL     1      -2.222   2.867   1.545  0.00  0.00    -0.273 N 
ATOM      5  C11 UNL     1      -3.135   2.158   2.265  0.00  0.00    +0.304 C 
ATOM      6  O3  UNL     1      -3.879   2.696   3.077  0.00  0.00    -0.252 OA
ATOM      7  N2  UNL     1      -3.168   0.822   2.049  0.00  0.00    -0.288 N 
ATOM      8  C12 UNL     1      -2.425   0.119   1.014  0.00  0.00    +0.146 C 
ATOM      9  H17 UNL     1      -2.202   3.858   1.755  0.00  0.00    +0.156 HD
ATOM     10  H18 UNL     1      -3.865   0.318   2.579  0.00  0.00    +0.151 HD
ENDROOT
BRANCH   8  11
ATOM     11  C13 UNL     1      -3.391  -0.489   0.016  0.00  0.00    +0.013 A 
ATOM     12  C14 UNL     1      -4.340   0.292  -0.667  0.00  0.00    +0.008 A 
ATOM     13  C15 UNL     1      -5.208  -0.292  -1.594  0.00  0.00    +0.001 A 
ATOM     14  C16 UNL     1      -5.139  -1.660  -1.855  0.00  0.00    +0.003 A 
ATOM     15  C17 UNL     1      -4.201  -2.445  -1.189  0.00  0.00    +0.039 A 
ATOM     16  C18 UNL     1      -3.339  -1.858  -0.267  0.00  0.00    +0.129 A 
ATOM     17  F1  UNL     1      -2.441  -2.636   0.355  0.00  0.00    -0.205 F 
ENDBRANCH   8  11
BRANCH   1  18
ATOM     18  C7  UNL     1      -0.497   0.391  -0.610  0.00  0.00    +0.339 C 
ATOM     19  O2  UNL     1      -0.257   0.845  -1.717  0.00  0.00    -0.245 OA
BRANCH  18  20
ATOM     20  O1  UNL     1       0.023  -0.739  -0.072  0.00  0.00    -0.461 OA
BRANCH  20  21
ATOM     21  C6  UNL     1       0.930  -1.470  -0.911  0.00  0.00    +0.232 C 
BRANCH  21  22
ATOM     22  C5  UNL     1       2.348  -0.907  -0.818  0.00  0.00    +0.041 C 
BRANCH  22  23
ATOM     23  C4  UNL     1       2.897  -0.957   0.611  0.00  0.00    +0.003 C 
BRANCH  23  24
ATOM     24  C3  UNL     1       4.291  -0.335   0.748  0.00  0.00    -0.000 C 
BRANCH  24  26
ATOM     25  C1  UNL     1       6.757  -0.524   0.272  0.00  0.00    +0.004 C 
ATOM     26  C2  UNL     1       5.380  -1.115   0.010  0.00  0.00    -0.003 C 
ENDBRANCH  24  26
ENDBRANCH  23  24
ENDBRANCH  22  23
ENDBRANCH  21  22
ENDBRANCH  20  21
ENDBRANCH  18  20
ENDBRANCH   1  18
TORSDOF 8
