REMARK  Name = ligand_292.pdb
REMARK  10 active torsions:
REMARK  status: ('A' for Active; 'I' for Inactive)
REMARK    1  A    between atoms: C1_1  and  O1_2
REMARK    2  A    between atoms: O1_2  and  C2_3
REMARK    3  A    between atoms: C5_6  and  C8_9
REMARK    4  A    between atoms: C13_16  and  O4_17
REMARK    5  A    between atoms: O4_17  and  C14_18
REMARK    6  A    between atoms: C15_19  and  O7_26
REMARK    7  A    between atoms: C16_20  and  O6_24
REMARK    8  A    between atoms: C17_21  and  O5_22
REMARK    9  A    between atoms: O5_22  and  C18_23
REMARK   10  A    between atoms: O6_24  and  C19_25
REMARK                            x       y       z     vdW  Elec       q    Type
REMARK                         _______ _______ _______ _____ _____    ______ ____
ROOT
ATOM      1  C8  UNL     1       1.042   0.588  -0.766  0.00  0.00    +0.211 C 
ATOM      2  C9  UNL     1       0.663   1.974  -0.283  0.00  0.00    +0.129 C 
ATOM      3  C10 UNL     1      -0.828   2.132  -0.395  0.00  0.00    +0.174 C 
ATOM      4  O2  UNL     1      -1.322   3.249  -0.515  0.00  0.00    -0.292 OA
ATOM      5  C11 UNL     1      -1.656   0.900  -0.271  0.00  0.00    +0.108 A 
ATOM      6  C12 UNL     1      -0.988  -0.316  -0.038  0.00  0.00    +0.181 A 
ATOM      7  O3  UNL     1       0.386  -0.391   0.048  0.00  0.00    -0.479 OA
ATOM      8  C13 UNL     1      -1.696  -1.523   0.136  0.00  0.00    +0.208 A 
ATOM      9  C15 UNL     1      -3.086  -1.502   0.010  0.00  0.00    +0.209 A 
ATOM     10  C16 UNL     1      -3.761  -0.292  -0.201  0.00  0.00    +0.208 A 
ATOM     11  C17 UNL     1      -3.056   0.910  -0.351  0.00  0.00    +0.179 A 
ENDROOT
BRANCH   1  15
ATOM     12  C2  UNL     1       5.350   0.089  -0.567  0.00  0.00    +0.120 A 
ATOM     13  C3  UNL     1       4.559  -0.252   0.528  0.00  0.00    +0.046 A 
ATOM     14  C4  UNL     1       3.168  -0.099   0.468  0.00  0.00    +0.011 A 
ATOM     15  C5  UNL     1       2.546   0.391  -0.689  0.00  0.00    -0.007 A 
ATOM     16  C6  UNL     1       3.351   0.737  -1.783  0.00  0.00    +0.011 A 
ATOM     17  C7  UNL     1       4.738   0.585  -1.720  0.00  0.00    +0.046 A 
BRANCH  12  19
ATOM     18  C1  UNL     1       7.379  -0.536   0.501  0.00  0.00    +0.277 C 
ATOM     19  O1  UNL     1       6.712  -0.009  -0.640  0.00  0.00    -0.495 OA
ENDBRANCH  12  19
ENDBRANCH   1  15
BRANCH   8  20
ATOM     20  O4  UNL     1      -0.914  -2.629   0.347  0.00  0.00    -0.488 OA
ATOM     21  C14 UNL     1      -1.518  -3.753   0.972  0.00  0.00    +0.277 C 
ENDBRANCH   8  20
BRANCH  11  22
ATOM     22  O5  UNL     1      -3.761   2.033  -0.691  0.00  0.00    -0.491 OA
ATOM     23  C18 UNL     1      -4.052   2.850   0.443  0.00  0.00    +0.277 C 
ENDBRANCH  11  22
BRANCH  10  24
ATOM     24  O6  UNL     1      -5.131  -0.316  -0.337  0.00  0.00    -0.488 OA
ATOM     25  C19 UNL     1      -5.761  -0.268   0.947  0.00  0.00    +0.277 C 
ENDBRANCH  10  24
BRANCH   9  26
ATOM     26  O7  UNL     1      -3.827  -2.656   0.026  0.00  0.00    -0.501 OA
ATOM     27  H20 UNL     1      -4.695  -2.426  -0.358  0.00  0.00    +0.292 HD
ENDBRANCH   9  26
TORSDOF 6
