REMARK  Name = ligand_696.pdb
REMARK  11 active torsions:
REMARK  status: ('A' for Active; 'I' for Inactive)
REMARK    1  A    between atoms: C1_1  and  C2_2
REMARK    2  A    between atoms: C2_2  and  O1_3
REMARK    3  A    between atoms: O1_3  and  C3_4
REMARK    4  A    between atoms: C3_4  and  C4_6
REMARK    5  A    between atoms: C12_16  and  N2_17
REMARK    6  A    between atoms: N2_17  and  C13_18
REMARK    7  A    between atoms: C13_18  and  C14_19
REMARK    8  A    between atoms: C14_19  and  C15_20
REMARK    9  A    between atoms: C15_20  and  N3_21
REMARK   10  A    between atoms: N3_21  and  C16_22
REMARK   11  A    between atoms: N3_21  and  C17_23
REMARK                            x       y       z     vdW  Elec       q    Type
REMARK                         _______ _______ _______ _____ _____    ______ ____
ROOT
ATOM      1  C4  UNL     1      -2.216   0.133  -0.023  0.00  0.00    +0.098 A 
ATOM      2  C5  UNL     1      -2.943  -0.872   0.596  0.00  0.00    +0.128 A 
ATOM      3  N1  UNL     1      -2.659  -2.192   0.500  0.00  0.00    -0.254 NA
ATOM      4  C6  UNL     1      -1.621  -2.561  -0.264  0.00  0.00    +0.073 A 
ATOM      5  C7  UNL     1      -1.341  -3.916  -0.380  0.00  0.00    +0.030 A 
ATOM      6  C8  UNL     1      -0.287  -4.386  -1.168  0.00  0.00    +0.022 A 
ATOM      7  C9  UNL     1       0.499  -3.480  -1.864  0.00  0.00    +0.042 A 
ATOM      8 CL1  UNL     1       1.795  -4.041  -2.844  0.00  0.00    -0.084 Cl
ATOM      9  C10 UNL     1       0.240  -2.117  -1.766  0.00  0.00    +0.032 A 
ATOM     10  C11 UNL     1      -0.811  -1.630  -0.953  0.00  0.00    +0.023 A 
ATOM     11  C12 UNL     1      -1.110  -0.245  -0.809  0.00  0.00    +0.052 A 
ENDROOT
BRANCH   1  12
ATOM     12  C3  UNL     1      -2.635   1.548   0.109  0.00  0.00    +0.342 C 
ATOM     13  O2  UNL     1      -2.274   2.433  -0.653  0.00  0.00    -0.245 OA
BRANCH  12  14
ATOM     14  O1  UNL     1      -3.443   1.709   1.186  0.00  0.00    -0.461 OA
BRANCH  14  16
ATOM     15  C1  UNL     1      -5.170   3.314   0.632  0.00  0.00    +0.048 C 
ATOM     16  C2  UNL     1      -3.907   3.047   1.430  0.00  0.00    +0.229 C 
ENDBRANCH  14  16
ENDBRANCH  12  14
ENDBRANCH   1  12
BRANCH  11  17
ATOM     17  N2  UNL     1      -0.233   0.722  -1.404  0.00  0.00    -0.343 N 
ATOM     18  H10 UNL     1      -0.832   1.503  -1.716  0.00  0.00    +0.146 HD
BRANCH  17  19
ATOM     19  C13 UNL     1       0.727   1.307  -0.442  0.00  0.00    +0.103 C 
BRANCH  19  20
ATOM     20  C14 UNL     1       1.960   0.424  -0.248  0.00  0.00    +0.034 C 
BRANCH  20  21
ATOM     21  C15 UNL     1       2.996   1.130   0.637  0.00  0.00    +0.085 C 
BRANCH  21  22
ATOM     22  N3  UNL     1       4.234   0.391   0.923  0.00  0.00    -0.308 NA
ATOM     23  C16 UNL     1       5.023   0.122  -0.277  0.00  0.00    +0.104 C 
ATOM     24  C17 UNL     1       4.003  -0.836   1.680  0.00  0.00    +0.104 C 
ENDBRANCH  21  22
ENDBRANCH  20  21
ENDBRANCH  19  20
ENDBRANCH  17  19
ENDBRANCH  11  17
TORSDOF 8
