REMARK  Name = ligand_378.pdb
REMARK  30 active torsions:
REMARK  status: ('A' for Active; 'I' for Inactive)
REMARK    1  A    between atoms: C1_1  and  O1_2
REMARK    2  A    between atoms: O1_2  and  C2_3
REMARK    3  A    between atoms: C2_3  and  C3_5
REMARK    4  A    between atoms: C3_5  and  C4_6
REMARK    5  A    between atoms: C5_7  and  C6_8
REMARK    6  A    between atoms: C9_11  and  C10_12
REMARK    7  A    between atoms: C12_15  and  C41_60
REMARK    8  A    between atoms: C14_19  and  O11_34
REMARK    9  A    between atoms: C15_20  and  O9_30
REMARK   10  A    between atoms: C16_21  and  O6_22
REMARK   11  A    between atoms: O6_22  and  C17_23
REMARK   12  A    between atoms: C17_23  and  C18_25
REMARK   13  A    between atoms: C18_25  and  C19_26
REMARK   14  A    between atoms: C20_28  and  C21_29
REMARK   15  A    between atoms: O9_30  and  C22_31
REMARK   16  A    between atoms: C22_31  and  C23_33
REMARK   17  A    between atoms: O11_34  and  C24_35
REMARK   18  A    between atoms: C24_35  and  C25_37
REMARK   19  A    between atoms: C26_38  and  O17_54
REMARK   20  A    between atoms: C26_38  and  C38_55
REMARK   21  A    between atoms: C27_39  and  C30_43
REMARK   22  A    between atoms: C27_39  and  C31_44
REMARK   23  A    between atoms: C29_41  and  O13_42
REMARK   24  A    between atoms: C31_44  and  C32_45
REMARK   25  A    between atoms: C31_44  and  O15_50
REMARK   26  A    between atoms: O15_50  and  C36_51
REMARK   27  A    between atoms: C36_51  and  C37_53
REMARK   28  A    between atoms: C38_55  and  C39_56
REMARK   29  A    between atoms: C39_56  and  O19_58
REMARK   30  A    between atoms: O19_58  and  C40_59
REMARK                            x       y       z     vdW  Elec       q    Type
REMARK                         _______ _______ _______ _____ _____    ______ ____
ROOT
ATOM      1  C4  UNL     1      -2.051   1.368  -0.688  0.00  0.00    +0.021 C 
ATOM      2  C5  UNL     1      -3.087   0.200  -0.842  0.00  0.00    +0.015 C 
ATOM      3  C6  UNL     1      -4.565   0.554  -0.571  0.00  0.00    +0.015 C 
ATOM      4  C7  UNL     1      -2.957  -0.142  -2.380  0.00  0.00    +0.043 C 
ATOM      5  C8  UNL     1      -1.459  -0.150  -2.504  0.00  0.00    +0.134 C 
ATOM      6  C9  UNL     1      -0.989   1.128  -1.818  0.00  0.00    +0.033 C 
ATOM      7  C10 UNL     1      -1.037   2.283  -2.883  0.00  0.00    +0.017 C 
ATOM      8  C11 UNL     1       0.497   0.751  -1.415  0.00  0.00    +0.144 C 
ATOM      9  O3  UNL     1       1.136   0.776  -2.743  0.00  0.00    -0.314 OA
ATOM     10  C12 UNL     1       0.707  -0.455  -3.313  0.00  0.00    +0.284 C 
ATOM     11  O4  UNL     1      -0.712  -0.430  -3.652  0.00  0.00    -0.323 OA
ATOM     12  O5  UNL     1       1.080  -1.413  -2.305  0.00  0.00    -0.310 OA
ATOM     13  C13 UNL     1       0.898  -0.739  -0.970  0.00  0.00    +0.177 C 
ATOM     14  C14 UNL     1      -0.091  -1.777  -0.209  0.00  0.00    +0.258 C 
ATOM     15  C15 UNL     1      -1.243  -1.287   0.713  0.00  0.00    +0.261 C 
ATOM     16  C16 UNL     1      -2.681  -1.083   0.064  0.00  0.00    +0.227 C 
ATOM     17  C26 UNL     1       2.392  -0.764  -0.171  0.00  0.00    +0.121 C 
ATOM     18  C27 UNL     1       3.443   0.361  -0.664  0.00  0.00    +0.044 C 
ATOM     19  C28 UNL     1       2.741   1.757  -0.728  0.00  0.00    +0.048 C 
ATOM     20  C29 UNL     1       1.218   1.788  -0.532  0.00  0.00    +0.151 C 
ATOM     21  C30 UNL     1       3.995  -0.039  -2.064  0.00  0.00    +0.018 C 
ATOM     22  C41 UNL     1       1.414  -0.752  -4.627  0.00  0.00    +0.110 C 
ENDROOT
BRANCH  17  23
ATOM     23  O17 UNL     1       2.941  -2.052  -0.504  0.00  0.00    -0.384 OA
ATOM     24  H46 UNL     1       2.612  -2.300  -1.394  0.00  0.00    +0.210 HD
ENDBRANCH  17  23
BRANCH  20  25
ATOM     25  O13 UNL     1       0.771   3.120  -0.781  0.00  0.00    -0.389 OA
ATOM     26  H35 UNL     1       1.419   3.750  -0.420  0.00  0.00    +0.210 HD
ENDBRANCH  20  25
BRANCH  14  27
ATOM     27  O11 UNL     1      -0.620  -2.820  -1.095  0.00  0.00    -0.455 OA
BRANCH  27  28
ATOM     28  C24 UNL     1      -0.636  -4.101  -0.621  0.00  0.00    +0.304 C 
ATOM     29  O12 UNL     1      -0.182  -4.456   0.456  0.00  0.00    -0.251 OA
ATOM     30  C25 UNL     1      -1.324  -5.002  -1.598  0.00  0.00    +0.136 C 
ENDBRANCH  27  28
ENDBRANCH  14  27
BRANCH  18  31
ATOM     31  C31 UNL     1       4.759   0.486   0.256  0.00  0.00    +0.218 C 
BRANCH  31  32
ATOM     32  C32 UNL     1       5.915   1.207  -0.419  0.00  0.00    +0.031 A 
ATOM     33  C33 UNL     1       7.145   0.619  -0.846  0.00  0.00    +0.048 A 
ATOM     34  C34 UNL     1       7.906   1.637  -1.370  0.00  0.00    +0.195 A 
ATOM     35  O14 UNL     1       7.235   2.814  -1.296  0.00  0.00    -0.471 OA
ATOM     36  C35 UNL     1       6.039   2.550  -0.714  0.00  0.00    +0.202 A 
ENDBRANCH  31  32
BRANCH  31  37
ATOM     37  O15 UNL     1       4.446   1.175   1.487  0.00  0.00    -0.456 OA
BRANCH  37  38
ATOM     38  C36 UNL     1       5.392   1.082   2.474  0.00  0.00    +0.305 C 
ATOM     39  O16 UNL     1       6.370   0.350   2.454  0.00  0.00    -0.251 OA
ATOM     40  C37 UNL     1       5.053   2.017   3.597  0.00  0.00    +0.136 C 
ENDBRANCH  37  38
ENDBRANCH  31  37
ENDBRANCH  18  31
BRANCH  15  41
ATOM     41  O9  UNL     1      -0.786  -0.178   1.516  0.00  0.00    -0.454 OA
BRANCH  41  42
ATOM     42  C22 UNL     1      -1.158  -0.143   2.829  0.00  0.00    +0.304 C 
ATOM     43  O10 UNL     1      -1.835  -0.985   3.398  0.00  0.00    -0.251 OA
ATOM     44  C23 UNL     1      -0.593   1.081   3.484  0.00  0.00    +0.136 C 
ENDBRANCH  41  42
ENDBRANCH  15  41
BRANCH  16  45
ATOM     45  O6  UNL     1      -3.647  -1.158   1.159  0.00  0.00    -0.455 OA
BRANCH  45  46
ATOM     46  C17 UNL     1      -4.030  -2.419   1.525  0.00  0.00    +0.342 C 
ATOM     47  O7  UNL     1      -3.564  -3.450   1.060  0.00  0.00    -0.247 OA
BRANCH  46  48
ATOM     48  C18 UNL     1      -5.161  -2.386   2.494  0.00  0.00    +0.189 C 
ATOM     49  C19 UNL     1      -4.955  -1.753   3.838  0.00  0.00    +0.056 C 
ATOM     50  O8  UNL     1      -5.932  -3.609   2.571  0.00  0.00    -0.353 OA
ATOM     51  C20 UNL     1      -6.559  -2.516   1.895  0.00  0.00    +0.159 C 
ATOM     52  C21 UNL     1      -7.794  -2.013   2.548  0.00  0.00    +0.041 C 
ENDBRANCH  46  48
ENDBRANCH  45  46
ENDBRANCH  16  45
BRANCH  17  53
ATOM     53  C38 UNL     1       2.214  -0.711   1.392  0.00  0.00    +0.159 C 
BRANCH  53  54
ATOM     54  C39 UNL     1       3.231  -1.293   2.355  0.00  0.00    +0.310 C 
ATOM     55  O18 UNL     1       3.387  -0.811   3.476  0.00  0.00    -0.251 OA
BRANCH  54  56
ATOM     56  O19 UNL     1       3.849  -2.402   1.907  0.00  0.00    -0.468 OA
ATOM     57  C40 UNL     1       4.774  -2.992   2.821  0.00  0.00    +0.280 C 
ENDBRANCH  54  56
ENDBRANCH  53  54
ENDBRANCH  17  53
BRANCH   1  58
ATOM     58  C3  UNL     1      -2.597   2.800  -0.442  0.00  0.00    +0.125 C 
BRANCH  58  59
ATOM     59  C2  UNL     1      -3.469   3.517  -1.458  0.00  0.00    +0.307 C 
ATOM     60  O2  UNL     1      -4.009   3.021  -2.433  0.00  0.00    -0.251 OA
BRANCH  59  62
ATOM     61  C1  UNL     1      -4.428   5.601  -1.949  0.00  0.00    +0.280 C 
ATOM     62  O1  UNL     1      -3.596   4.824  -1.085  0.00  0.00    -0.468 OA
ENDBRANCH  59  62
ENDBRANCH  58  59
ENDBRANCH   1  58
TORSDOF 19
