REMARK  Name = ligand_297.pdb
REMARK  10 active torsions:
REMARK  status: ('A' for Active; 'I' for Inactive)
REMARK    1  A    between atoms: O1_1  and  C1_2
REMARK    2  A    between atoms: C1_2  and  C2_3
REMARK    3  A    between atoms: C4_5  and  O2_6
REMARK    4  A    between atoms: C8_10  and  C9_11
REMARK    5  A    between atoms: C10_13  and  C11_14
REMARK    6  A    between atoms: C11_14  and  O4_15
REMARK    7  A    between atoms: C12_16  and  O7_21
REMARK    8  A    between atoms: C13_17  and  O6_20
REMARK    9  A    between atoms: C14_18  and  O5_19
REMARK   10  A    between atoms: C18_26  and  O9_27
REMARK                            x       y       z     vdW  Elec       q    Type
REMARK                         _______ _______ _______ _____ _____    ______ ____
ROOT
ATOM      1  C2  UNL     1      -2.062  -2.774   0.303  0.00  0.00    -0.018 A 
ATOM      2  C3  UNL     1      -2.634  -2.489  -0.947  0.00  0.00    +0.052 A 
ATOM      3  C4  UNL     1      -2.589  -1.198  -1.464  0.00  0.00    +0.128 A 
ATOM      4  C5  UNL     1      -1.963  -0.176  -0.748  0.00  0.00    +0.068 A 
ATOM      5  C6  UNL     1      -1.322  -0.453   0.475  0.00  0.00    -0.023 A 
ATOM      6  C7  UNL     1      -1.384  -1.756   0.993  0.00  0.00    +0.011 A 
ATOM      7  C8  UNL     1      -0.493   0.625   1.162  0.00  0.00    +0.082 C 
ATOM      8  C15 UNL     1      -1.081   2.011   0.935  0.00  0.00    -0.023 A 
ATOM      9  C16 UNL     1      -1.755   2.312  -0.259  0.00  0.00    +0.068 A 
ATOM     10  C17 UNL     1      -2.025   1.225  -1.223  0.00  0.00    +0.201 C 
ATOM     11  O8  UNL     1      -2.391   1.488  -2.371  0.00  0.00    -0.286 OA
ATOM     12  C18 UNL     1      -2.225   3.610  -0.497  0.00  0.00    +0.128 A 
ATOM     13  C19 UNL     1      -2.057   4.603   0.466  0.00  0.00    +0.046 A 
ATOM     14  C20 UNL     1      -1.397   4.311   1.662  0.00  0.00    +0.004 A 
ATOM     15  C21 UNL     1      -0.903   3.023   1.893  0.00  0.00    +0.005 A 
ENDROOT
BRANCH   7  16
ATOM     16  C9  UNL     1       1.000   0.620   0.678  0.00  0.00    +0.162 C 
ATOM     17  O3  UNL     1       1.056   0.326  -0.733  0.00  0.00    -0.365 OA
ATOM     18  C10 UNL     1       2.393   0.385  -1.275  0.00  0.00    +0.175 C 
ATOM     19  C12 UNL     1       3.265  -0.678  -0.586  0.00  0.00    +0.176 C 
ATOM     20  C13 UNL     1       3.279  -0.411   0.926  0.00  0.00    +0.176 C 
ATOM     21  C14 UNL     1       1.851  -0.385   1.480  0.00  0.00    +0.175 C 
BRANCH  21  22
ATOM     22  O5  UNL     1       1.902  -0.028   2.876  0.00  0.00    -0.387 OA
ATOM     23  H16 UNL     1       2.541  -0.669   3.275  0.00  0.00    +0.210 HD
ENDBRANCH  21  22
BRANCH  20  24
ATOM     24  O6  UNL     1       4.016  -1.448   1.596  0.00  0.00    -0.386 OA
ATOM     25  H17 UNL     1       4.863  -1.516   1.097  0.00  0.00    +0.210 HD
ENDBRANCH  20  24
BRANCH  19  26
ATOM     26  O7  UNL     1       4.616  -0.663  -1.060  0.00  0.00    -0.386 OA
ATOM     27  H18 UNL     1       4.608  -1.169  -1.900  0.00  0.00    +0.210 HD
ENDBRANCH  19  26
BRANCH  18  28
ATOM     28  C11 UNL     1       2.305   0.152  -2.806  0.00  0.00    +0.190 C 
BRANCH  28  29
ATOM     29  O4  UNL     1       1.936  -1.227  -3.082  0.00  0.00    -0.392 OA
ATOM     30  H12 UNL     1       0.965  -1.209  -3.221  0.00  0.00    +0.210 HD
ENDBRANCH  28  29
ENDBRANCH  18  28
ENDBRANCH   7  16
BRANCH   3  31
ATOM     31  O2  UNL     1      -3.177  -1.000  -2.685  0.00  0.00    -0.506 OA
ATOM     32  H5  UNL     1      -3.060  -0.045  -2.918  0.00  0.00    +0.292 HD
ENDBRANCH   3  31
BRANCH  12  33
ATOM     33  O9  UNL     1      -2.875   3.965  -1.650  0.00  0.00    -0.506 OA
ATOM     34  H19 UNL     1      -2.794   3.211  -2.275  0.00  0.00    +0.292 HD
ENDBRANCH  12  33
BRANCH   1  35
ATOM     35  C1  UNL     1      -2.126  -4.181   0.839  0.00  0.00    +0.191 C 
BRANCH  35  36
ATOM     36  O1  UNL     1      -2.155  -4.182   2.263  0.00  0.00    -0.390 OA
ATOM     37  H1  UNL     1      -2.306  -5.104   2.535  0.00  0.00    +0.210 HD
ENDBRANCH  35  36
ENDBRANCH   1  35
TORSDOF 10
