REMARK  Name = ligand_800.pdb
REMARK  8 active torsions:
REMARK  status: ('A' for Active; 'I' for Inactive)
REMARK    1  A    between atoms: C1_1  and  C2_2
REMARK    2  A    between atoms: C2_2  and  C3_3
REMARK    3  A    between atoms: C2_2  and  N1_8
REMARK    4  A    between atoms: N2_11  and  C9_12
REMARK    5  A    between atoms: C17_20  and  C18_21
REMARK    6  A    between atoms: C19_22  and  C20_23
REMARK    7  A    between atoms: C21_25  and  N3_26
REMARK    8  A    between atoms: C22_27  and  C23_28
REMARK                            x       y       z     vdW  Elec       q    Type
REMARK                         _______ _______ _______ _____ _____    ______ ____
ROOT
ATOM      1  C2  UNL     1      -0.441   0.075  -0.991  0.00  0.00    +0.127 C 
ENDROOT
BRANCH   1   2
ATOM      2  C1  UNL     1      -1.303  -1.189  -1.148  0.00  0.00    +0.006 A 
ATOM      3  C17 UNL     1      -1.154  -2.238  -2.161  0.00  0.00    -0.034 A 
ATOM      4  C18 UNL     1      -0.141  -2.261  -3.267  0.00  0.00    +0.045 C 
ATOM      5  C19 UNL     1      -2.063  -3.267  -1.961  0.00  0.00    -0.008 A 
ATOM      6  C20 UNL     1      -2.225  -4.530  -2.744  0.00  0.00    +0.052 C 
ATOM      7  S2  UNL     1      -3.097  -2.968  -0.648  0.00  0.00    -0.078 S 
ATOM      8  C21 UNL     1      -2.369  -1.481  -0.300  0.00  0.00    +0.077 A 
BRANCH   8   9
ATOM      9  N3  UNL     1      -2.882  -0.668   0.702  0.00  0.00    -0.276 N 
ATOM     10  C22 UNL     1      -3.775  -1.036   1.693  0.00  0.00    +0.249 C 
ATOM     11  O1  UNL     1      -4.159  -2.162   1.983  0.00  0.00    -0.270 OA
ATOM     12  H24 UNL     1      -2.522   0.275   0.740  0.00  0.00    +0.156 HD
BRANCH  10  13
ATOM     13  C23 UNL     1      -4.242   0.099   2.538  0.00  0.00    +0.037 A 
ATOM     14  C24 UNL     1      -4.544   1.348   1.981  0.00  0.00    +0.013 A 
ATOM     15  C25 UNL     1      -4.970   2.392   2.804  0.00  0.00    +0.001 A 
ATOM     16  C26 UNL     1      -5.103   2.189   4.178  0.00  0.00    +0.000 A 
ATOM     17  C27 UNL     1      -4.821   0.941   4.733  0.00  0.00    +0.001 A 
ATOM     18  C28 UNL     1      -4.397  -0.107   3.914  0.00  0.00    +0.013 A 
ENDBRANCH  10  13
ENDBRANCH   8   9
ENDBRANCH   1   2
BRANCH   1  19
ATOM     19  N1  UNL     1       0.978  -0.164  -1.359  0.00  0.00    -0.288 NA
ATOM     20  C7  UNL     1       1.630  -1.156  -0.461  0.00  0.00    +0.104 C 
ATOM     21  C8  UNL     1       2.467  -0.579   0.706  0.00  0.00    +0.120 C 
ATOM     22  N2  UNL     1       3.508   0.334   0.209  0.00  0.00    -0.327 N 
ATOM     23  C15 UNL     1       1.766   1.096  -1.369  0.00  0.00    +0.104 C 
ATOM     24  C16 UNL     1       3.282   0.918  -1.119  0.00  0.00    +0.120 C 
BRANCH  22  25
ATOM     25  C9  UNL     1       4.696   0.512   0.898  0.00  0.00    +0.030 A 
ATOM     26  C10 UNL     1       4.793   0.265   2.278  0.00  0.00    +0.023 A 
ATOM     27  C11 UNL     1       5.988   0.447   2.985  0.00  0.00    +0.002 A 
ATOM     28  C12 UNL     1       7.128   0.886   2.325  0.00  0.00    +0.000 A 
ATOM     29  C13 UNL     1       7.067   1.143   0.961  0.00  0.00    +0.002 A 
ATOM     30  C14 UNL     1       5.867   0.959   0.263  0.00  0.00    +0.023 A 
ENDBRANCH  22  25
ENDBRANCH   1  19
BRANCH   1  31
ATOM     31  C3  UNL     1      -1.095   1.225  -1.751  0.00  0.00    +0.011 A 
ATOM     32  C4  UNL     1      -1.229   1.425  -3.114  0.00  0.00    +0.013 A 
ATOM     33  C5  UNL     1      -1.911   2.635  -3.431  0.00  0.00    +0.008 A 
ATOM     34  C6  UNL     1      -2.288   3.324  -2.302  0.00  0.00    +0.045 A 
ATOM     35  S1  UNL     1      -1.813   2.521  -0.871  0.00  0.00    -0.100 S 
ENDBRANCH   1  31
TORSDOF 6
