REMARK  Name = ligand_659.pdb
REMARK  5 active torsions:
REMARK  status: ('A' for Active; 'I' for Inactive)
REMARK    1  A    between atoms: C1_1  and  O1_2
REMARK    2  A    between atoms: O1_2  and  C2_3
REMARK    3  A    between atoms: C2_3  and  C3_4
REMARK    4  A    between atoms: C3_4  and  N1_5
REMARK    5  A    between atoms: C4_6  and  C12_16
REMARK                            x       y       z     vdW  Elec       q    Type
REMARK                         _______ _______ _______ _____ _____    ______ ____
ROOT
ATOM      1  N1  UNL     1      -0.186   0.496  -0.483  0.00  0.00    -0.294 N 
ATOM      2  C4  UNL     1       0.302   1.431   0.411  0.00  0.00    +0.110 A 
ATOM      3  N2  UNL     1       1.504   1.408   0.892  0.00  0.00    -0.234 NA
ATOM      4  C5  UNL     1       2.369   0.385   0.495  0.00  0.00    +0.078 A 
ATOM      5  C6  UNL     1       3.675   0.372   0.992  0.00  0.00    +0.028 A 
ATOM      6  C7  UNL     1       4.568  -0.638   0.623  0.00  0.00    +0.002 A 
ATOM      7  C8  UNL     1       4.160  -1.647  -0.249  0.00  0.00    +0.001 A 
ATOM      8  C9  UNL     1       2.860  -1.645  -0.751  0.00  0.00    +0.015 A 
ATOM      9  C10 UNL     1       1.975  -0.627  -0.375  0.00  0.00    +0.065 A 
ATOM     10  C11 UNL     1       0.594  -0.589  -0.881  0.00  0.00    +0.262 A 
ATOM     11  O2  UNL     1       0.187  -1.499  -1.599  0.00  0.00    -0.267 OA
ATOM     12  C12 UNL     1      -0.602   2.556   0.859  0.00  0.00    +0.086 C 
ENDROOT
BRANCH   1  13
ATOM     13  C3  UNL     1      -1.556   0.531  -0.998  0.00  0.00    +0.154 C 
BRANCH  13  14
ATOM     14  C2  UNL     1      -2.502  -0.364  -0.194  0.00  0.00    +0.181 C 
BRANCH  14  16
ATOM     15  C1  UNL     1      -4.771  -0.949   0.066  0.00  0.00    +0.194 C 
ATOM     16  O1  UNL     1      -3.846  -0.099  -0.601  0.00  0.00    -0.381 OA
ENDBRANCH  14  16
ENDBRANCH  13  14
ENDBRANCH   1  13
TORSDOF 3
