REMARK  Name = ligand_700.pdb
REMARK  4 active torsions:
REMARK  status: ('A' for Active; 'I' for Inactive)
REMARK    1  A    between atoms: O1_1  and  C1_2
REMARK    2  A    between atoms: C4_5  and  C7_8
REMARK    3  A    between atoms: C7_8  and  C9_12
REMARK    4  A    between atoms: C12_15  and  O2_16
REMARK                            x       y       z     vdW  Elec       q    Type
REMARK                         _______ _______ _______ _____ _____    ______ ____
ROOT
ATOM      1  C7  UNL     1       0.052   1.053  -0.597  0.00  0.00    +0.019 C 
ATOM      2  C8  UNL     1       0.109   2.205  -1.307  0.00  0.00    +0.115 C 
ATOM      3 CL1  UNL     1       1.598   3.051  -1.622  0.00  0.00    -0.070 Cl
ATOM      4 CL2  UNL     1      -1.301   2.970  -1.986  0.00  0.00    -0.070 Cl
ENDROOT
BRANCH   1   8
ATOM      5  C1  UNL     1       3.628  -0.715   0.937  0.00  0.00    +0.117 A 
ATOM      6  C2  UNL     1       2.813   0.034   1.778  0.00  0.00    +0.046 A 
ATOM      7  C3  UNL     1       1.646   0.613   1.277  0.00  0.00    +0.012 A 
ATOM      8  C4  UNL     1       1.298   0.443  -0.069  0.00  0.00    -0.015 A 
ATOM      9  C5  UNL     1       2.128  -0.320  -0.904  0.00  0.00    +0.012 A 
ATOM     10  C6  UNL     1       3.296  -0.898  -0.401  0.00  0.00    +0.046 A 
BRANCH   5  11
ATOM     11  O1  UNL     1       4.758  -1.260   1.470  0.00  0.00    -0.507 OA
ATOM     12  H1  UNL     1       5.228  -1.746   0.772  0.00  0.00    +0.292 HD
ENDBRANCH   5  11
ENDBRANCH   1   8
BRANCH   1  13
ATOM     13  C9  UNL     1      -1.256   0.399  -0.346  0.00  0.00    -0.015 A 
ATOM     14  C10 UNL     1      -1.651  -0.701  -1.119  0.00  0.00    +0.012 A 
ATOM     15  C11 UNL     1      -2.877  -1.323  -0.880  0.00  0.00    +0.046 A 
ATOM     16  C12 UNL     1      -3.706  -0.849   0.131  0.00  0.00    +0.117 A 
ATOM     17  C13 UNL     1      -3.329   0.239   0.912  0.00  0.00    +0.046 A 
ATOM     18  C14 UNL     1      -2.101   0.862   0.674  0.00  0.00    +0.012 A 
BRANCH  16  19
ATOM     19  O2  UNL     1      -4.894  -1.487   0.327  0.00  0.00    -0.507 OA
ATOM     20  H8  UNL     1      -5.366  -1.049   1.054  0.00  0.00    +0.292 HD
ENDBRANCH  16  19
ENDBRANCH   1  13
TORSDOF 4
