REMARK  Name = ligand_179.pdb
REMARK  8 active torsions:
REMARK  status: ('A' for Active; 'I' for Inactive)
REMARK    1  A    between atoms: C1_1  and  C2_2
REMARK    2  A    between atoms: C2_2  and  C3_3
REMARK    3  A    between atoms: C2_2  and  C4_4
REMARK    4  A    between atoms: C5_5  and  O1_6
REMARK    5  A    between atoms: C6_7  and  O2_8
REMARK    6  A    between atoms: C13_15  and  C14_16
REMARK    7  A    between atoms: C13_15  and  C15_17
REMARK    8  A    between atoms: C19_21  and  C20_22
REMARK                            x       y       z     vdW  Elec       q    Type
REMARK                         _______ _______ _______ _____ _____    ______ ____
ROOT
ATOM      1  C4  UNL     1       2.729  -0.109   0.389  0.00  0.00    +0.004 A 
ATOM      2  C5  UNL     1       3.301   1.169   0.377  0.00  0.00    +0.162 A 
ATOM      3  C6  UNL     1       2.515   2.313   0.315  0.00  0.00    +0.159 A 
ATOM      4  C7  UNL     1       1.134   2.219   0.280  0.00  0.00    +0.053 A 
ATOM      5  C8  UNL     1       0.492   0.960   0.287  0.00  0.00    -0.034 A 
ATOM      6  C9  UNL     1       1.304  -0.204   0.279  0.00  0.00    -0.037 A 
ATOM      7  C10 UNL     1       0.654  -1.557   0.157  0.00  0.00    +0.036 C 
ATOM      8  C11 UNL     1      -0.747  -1.509  -0.430  0.00  0.00    +0.009 C 
ATOM      9  C12 UNL     1      -1.650  -0.569   0.390  0.00  0.00    +0.005 C 
ATOM     10  C13 UNL     1      -3.181  -0.740   0.001  0.00  0.00    -0.031 C 
ATOM     11  C14 UNL     1      -4.121  -0.267   1.138  0.00  0.00    +0.011 C 
ATOM     12  C15 UNL     1      -3.561  -2.229  -0.224  0.00  0.00    +0.011 C 
ATOM     13  C16 UNL     1      -3.506   0.021  -1.301  0.00  0.00    +0.007 C 
ATOM     14  C17 UNL     1      -3.049   1.471  -1.282  0.00  0.00    +0.001 C 
ATOM     15  C18 UNL     1      -1.555   1.587  -1.018  0.00  0.00    +0.011 C 
ATOM     16  C19 UNL     1      -1.068   0.903   0.291  0.00  0.00    -0.003 C 
ATOM     17  C20 UNL     1      -1.529   1.715   1.532  0.00  0.00    +0.016 C 
ENDROOT
BRANCH   1  19
ATOM     18  C1  UNL     1       4.392  -1.610  -0.789  0.00  0.00    +0.012 C 
ATOM     19  C2  UNL     1       3.610  -1.354   0.502  0.00  0.00    +0.017 C 
ATOM     20  C3  UNL     1       4.539  -1.342   1.724  0.00  0.00    +0.012 C 
ENDBRANCH   1  19
BRANCH   2  21
ATOM     21  O1  UNL     1       4.659   1.341   0.407  0.00  0.00    -0.503 OA
ATOM     22  H8  UNL     1       4.785   2.311   0.382  0.00  0.00    +0.292 HD
ENDBRANCH   2  21
BRANCH   3  23
ATOM     23  O2  UNL     1       3.156   3.524   0.299  0.00  0.00    -0.503 OA
ATOM     24  H9  UNL     1       2.480   4.221   0.253  0.00  0.00    +0.292 HD
ENDBRANCH   3  23
TORSDOF 3
