REMARK  Name = ligand_190.pdb
REMARK  9 active torsions:
REMARK  status: ('A' for Active; 'I' for Inactive)
REMARK    1  A    between atoms: C1_1  and  C2_2
REMARK    2  A    between atoms: C2_2  and  C3_3
REMARK    3  A    between atoms: C4_4  and  C5_5
REMARK    4  A    between atoms: C5_5  and  C6_6
REMARK    5  A    between atoms: C7_7  and  O1_8
REMARK    6  A    between atoms: C9_10  and  O2_11
REMARK    7  A    between atoms: C13_16  and  C14_17
REMARK    8  A    between atoms: C17_20  and  O4_21
REMARK    9  A    between atoms: C19_23  and  O5_24
REMARK                            x       y       z     vdW  Elec       q    Type
REMARK                         _______ _______ _______ _____ _____    ______ ____
ROOT
ATOM      1  C6  UNL     1      -1.532  -0.801  -0.977  0.00  0.00    +0.041 A 
ATOM      2  C7  UNL     1      -2.520  -1.747  -1.298  0.00  0.00    +0.127 A 
ATOM      3  C8  UNL     1      -2.201  -3.082  -1.543  0.00  0.00    +0.092 A 
ATOM      4  C9  UNL     1      -0.882  -3.506  -1.440  0.00  0.00    +0.135 A 
ATOM      5  C10 UNL     1       0.118  -2.595  -1.092  0.00  0.00    +0.106 A 
ATOM      6  C11 UNL     1       1.519  -3.018  -0.966  0.00  0.00    +0.197 A 
ATOM      7  O3  UNL     1       1.855  -4.179  -1.177  0.00  0.00    -0.287 OA
ATOM      8  C12 UNL     1       2.497  -1.995  -0.579  0.00  0.00    +0.098 A 
ATOM      9  C13 UNL     1       2.071  -0.743  -0.367  0.00  0.00    +0.143 A 
ATOM     10  O6  UNL     1       0.758  -0.329  -0.517  0.00  0.00    -0.454 OA
ATOM     11  C20 UNL     1      -0.201  -1.254  -0.862  0.00  0.00    +0.150 A 
ENDROOT
BRANCH   9  12
ATOM     12  C14 UNL     1       3.001   0.339   0.013  0.00  0.00    +0.059 A 
ATOM     13  C15 UNL     1       2.966   1.543  -0.709  0.00  0.00    +0.019 A 
ATOM     14  C16 UNL     1       3.821   2.598  -0.383  0.00  0.00    +0.046 A 
ATOM     15  C17 UNL     1       4.713   2.460   0.672  0.00  0.00    +0.120 A 
ATOM     16  C18 UNL     1       4.767   1.285   1.414  0.00  0.00    +0.091 A 
ATOM     17  C19 UNL     1       3.908   0.232   1.083  0.00  0.00    +0.131 A 
BRANCH  15  18
ATOM     18  O4  UNL     1       5.528   3.518   0.951  0.00  0.00    -0.507 OA
ATOM     19  H16 UNL     1       6.102   3.291   1.700  0.00  0.00    +0.292 HD
ENDBRANCH  15  18
BRANCH  17  20
ATOM     20  O5  UNL     1       3.942  -0.920   1.825  0.00  0.00    -0.506 OA
ATOM     21  H18 UNL     1       4.573  -0.816   2.557  0.00  0.00    +0.292 HD
ENDBRANCH  17  20
ENDBRANCH   9  12
BRANCH   2  22
ATOM     22  O1  UNL     1      -3.845  -1.423  -1.387  0.00  0.00    -0.506 OA
ATOM     23  H10 UNL     1      -4.012  -0.640  -0.836  0.00  0.00    +0.292 HD
ENDBRANCH   2  22
BRANCH   4  24
ATOM     24  O2  UNL     1      -0.637  -4.830  -1.685  0.00  0.00    -0.506 OA
ATOM     25  H12 UNL     1       0.329  -4.988  -1.577  0.00  0.00    +0.292 HD
ENDBRANCH   4  24
BRANCH   1  26
ATOM     26  C5  UNL     1      -1.873   0.660  -0.764  0.00  0.00    +0.069 C 
BRANCH  26  30
ATOM     27  C1  UNL     1      -3.974   1.663   2.401  0.00  0.00    +0.038 C 
ATOM     28  C2  UNL     1      -3.597   1.498   0.950  0.00  0.00    -0.079 C 
ATOM     29  C3  UNL     1      -4.619   2.041  -0.011  0.00  0.00    +0.038 C 
ATOM     30  C4  UNL     1      -2.427   0.919   0.612  0.00  0.00    -0.023 C 
ENDBRANCH  26  30
ENDBRANCH   1  26
TORSDOF 7
