REMARK  Name = ligand_473.pdb
REMARK  4 active torsions:
REMARK  status: ('A' for Active; 'I' for Inactive)
REMARK    1  A    between atoms: C1_1  and  S1_2
REMARK    2  A    between atoms: S1_2  and  C2_3
REMARK    3  A    between atoms: C7_8  and  C8_9
REMARK    4  A    between atoms: C10_14  and  C12_17
REMARK                            x       y       z     vdW  Elec       q    Type
REMARK                         _______ _______ _______ _____ _____    ______ ____
ROOT
ATOM      1  C8  UNL     1      -1.916  -1.143  -0.555  0.00  0.00    +0.251 C 
ATOM      2  O1  UNL     1      -2.114  -1.640  -1.658  0.00  0.00    -0.270 OA
ATOM      3  N1  UNL     1      -0.728  -0.671  -0.054  0.00  0.00    -0.261 N 
ATOM      4  C9  UNL     1       0.486  -0.627  -0.688  0.00  0.00    +0.165 A 
ATOM      5  N2  UNL     1       1.533  -0.101  -0.096  0.00  0.00    -0.223 NA
ATOM      6  C10 UNL     1       2.638  -0.174  -0.941  0.00  0.00    +0.098 A 
ATOM      7  C11 UNL     1       2.385  -0.766  -2.164  0.00  0.00    +0.078 A 
ATOM      8  S2  UNL     1       0.742  -1.236  -2.256  0.00  0.00    -0.060 S 
ATOM      9  H8  UNL     1      -0.710  -0.250   0.867  0.00  0.00    +0.157 HD
ENDROOT
BRANCH   1  15
ATOM     10  C2  UNL     1      -3.351   0.018   1.231  0.00  0.00    +0.020 A 
ATOM     11  C3  UNL     1      -4.450  -0.064   2.103  0.00  0.00    +0.015 A 
ATOM     12  C4  UNL     1      -5.273  -1.192   2.119  0.00  0.00    +0.001 A 
ATOM     13  C5  UNL     1      -5.013  -2.256   1.263  0.00  0.00    +0.001 A 
ATOM     14  C6  UNL     1      -3.919  -2.197   0.400  0.00  0.00    +0.014 A 
ATOM     15  C7  UNL     1      -3.071  -1.074   0.387  0.00  0.00    +0.050 A 
BRANCH  10  17
ATOM     16  C1  UNL     1      -2.935   2.255  -0.306  0.00  0.00    +0.090 C 
ATOM     17  S1  UNL     1      -2.420   1.548   1.284  0.00  0.00    -0.128 S 
ENDBRANCH  10  17
ENDBRANCH   1  15
BRANCH   6  18
ATOM     18  C12 UNL     1       3.951   0.337  -0.553  0.00  0.00    +0.090 A 
ATOM     19  C13 UNL     1       4.139   0.927   0.694  0.00  0.00    +0.030 A 
ATOM     20  C14 UNL     1       5.404   1.404   1.030  0.00  0.00    +0.004 A 
ATOM     21  C15 UNL     1       6.442   1.279   0.115  0.00  0.00    +0.020 A 
ATOM     22  C16 UNL     1       6.172   0.680  -1.104  0.00  0.00    +0.111 A 
ATOM     23  N3  UNL     1       4.956   0.208  -1.459  0.00  0.00    -0.253 NA
ENDBRANCH   6  18
TORSDOF 3
