REMARK  Name = ligand_436.pdb
REMARK  3 active torsions:
REMARK  status: ('A' for Active; 'I' for Inactive)
REMARK    1  A    between atoms: C1_1  and  C2_2
REMARK    2  A    between atoms: C6_6  and  C7_7
REMARK    3  A    between atoms: C10_13  and  C11_14
REMARK                            x       y       z     vdW  Elec       q    Type
REMARK                         _______ _______ _______ _____ _____    ______ ____
ROOT
ATOM      1  C1  UNL     1      -0.121   1.813   1.107  0.00  0.00    -0.008 C 
ATOM      2  C2  UNL     1      -0.739   3.185   1.385  0.00  0.00    +0.008 C 
ATOM      3  C3  UNL     1       1.420   1.944   1.116  0.00  0.00    +0.004 C 
ATOM      4  C4  UNL     1       2.181   0.672   0.717  0.00  0.00    +0.008 C 
ATOM      5  C5  UNL     1       1.618  -0.018  -0.548  0.00  0.00    +0.044 C 
ATOM      6  C6  UNL     1       2.263  -1.382  -0.857  0.00  0.00    +0.101 C 
ATOM      7  C7  UNL     1       3.791  -1.307  -0.903  0.00  0.00    +0.019 C 
ATOM      8  C8  UNL     1       1.806  -2.493   0.077  0.00  0.00    +0.313 C 
ATOM      9  O1  UNL     1       2.539  -3.415   0.420  0.00  0.00    -0.250 OA
ATOM     10  O2  UNL     1       0.498  -2.489   0.419  0.00  0.00    -0.432 OA
ATOM     11  C9  UNL     1      -0.164  -1.236   0.657  0.00  0.00    +0.349 C 
ATOM     12  O3  UNL     1      -1.543  -1.472   0.873  0.00  0.00    -0.305 OA
ATOM     13  C10 UNL     1      -2.291  -1.302  -0.325  0.00  0.00    +0.204 C 
ATOM     14  C11 UNL     1      -3.399  -2.357  -0.265  0.00  0.00    +0.077 C 
ATOM     15  C12 UNL     1      -2.931   0.093  -0.279  0.00  0.00    +0.068 C 
ATOM     16  C13 UNL     1      -2.033   1.267  -0.648  0.00  0.00    +0.012 C 
ATOM     17  C14 UNL     1      -0.547   1.207  -0.246  0.00  0.00    +0.034 C 
ATOM     18  C15 UNL     1       0.090  -0.191  -0.448  0.00  0.00    +0.173 C 
ATOM     19  O4  UNL     1      -0.418  -0.652  -1.712  0.00  0.00    -0.218 OA
ATOM     20  O5  UNL     1      -1.538  -1.591  -1.511  0.00  0.00    -0.199 OA
ENDROOT
TORSDOF 0
