REMARK  Name = ligand_392.pdb
REMARK  17 active torsions:
REMARK  status: ('A' for Active; 'I' for Inactive)
REMARK    1  A    between atoms: C1_1  and  O1_2
REMARK    2  A    between atoms: O1_2  and  C2_3
REMARK    3  A    between atoms: C3_4  and  C4_5
REMARK    4  A    between atoms: C4_5  and  C5_6
REMARK    5  A    between atoms: C7_8  and  C11_13
REMARK    6  A    between atoms: C10_11  and  O2_12
REMARK    7  A    between atoms: C11_13  and  C12_14
REMARK    8  A    between atoms: C17_19  and  O3_20
REMARK    9  A    between atoms: C18_21  and  O4_22
REMARK   10  A    between atoms: C19_23  and  C31_37
REMARK   11  A    between atoms: C20_24  and  O6_36
REMARK   12  A    between atoms: C21_25  and  C22_26
REMARK   13  A    between atoms: C22_26  and  C23_28
REMARK   14  A    between atoms: C23_28  and  C24_29
REMARK   15  A    between atoms: C24_29  and  C25_30
REMARK   16  A    between atoms: C31_37  and  C32_38
REMARK   17  A    between atoms: C37_43  and  O7_44
REMARK                            x       y       z     vdW  Elec       q    Type
REMARK                         _______ _______ _______ _____ _____    ______ ____
ROOT
ATOM      1  C2  UNL     1      -1.356   0.656   1.951  0.00  0.00    +0.141 A 
ATOM      2  C3  UNL     1      -0.256  -0.102   1.497  0.00  0.00    +0.041 A 
ATOM      3  C18 UNL     1      -0.497  -1.158   0.592  0.00  0.00    +0.131 A 
ATOM      4  C19 UNL     1      -1.793  -1.474   0.129  0.00  0.00    +0.041 A 
ATOM      5  C20 UNL     1      -2.864  -0.706   0.617  0.00  0.00    +0.138 A 
ATOM      6  C21 UNL     1      -2.655   0.357   1.507  0.00  0.00    +0.101 A 
ENDROOT
BRANCH   1   8
ATOM      7  C1  UNL     1      -1.345   2.937   2.444  0.00  0.00    +0.277 C 
ATOM      8  O1  UNL     1      -1.121   1.610   2.911  0.00  0.00    -0.494 OA
ENDBRANCH   1   8
BRANCH   5   9
ATOM      9  O6  UNL     1      -4.156  -0.978   0.241  0.00  0.00    -0.506 OA
ATOM     10  H27 UNL     1      -4.277  -1.941   0.178  0.00  0.00    +0.292 HD
ENDBRANCH   5   9
BRANCH   6  11
ATOM     11  C22 UNL     1      -3.830   1.091   2.040  0.00  0.00    +0.171 C 
ATOM     12  O5  UNL     1      -4.050   1.073   3.250  0.00  0.00    -0.292 OA
BRANCH  11  13
ATOM     13  C23 UNL     1      -4.772   1.804   1.083  0.00  0.00    +0.084 C 
BRANCH  13  14
ATOM     14  C24 UNL     1      -4.111   2.356  -0.179  0.00  0.00    +0.043 C 
BRANCH  14  15
ATOM     15  C25 UNL     1      -5.077   3.150  -1.023  0.00  0.00    -0.047 A 
ATOM     16  C26 UNL     1      -5.018   4.550  -1.043  0.00  0.00    +0.003 A 
ATOM     17  C27 UNL     1      -5.904   5.284  -1.833  0.00  0.00    +0.000 A 
ATOM     18  C28 UNL     1      -6.859   4.627  -2.606  0.00  0.00    +0.000 A 
ATOM     19  C29 UNL     1      -6.931   3.234  -2.587  0.00  0.00    +0.000 A 
ATOM     20  C30 UNL     1      -6.046   2.498  -1.798  0.00  0.00    +0.003 A 
ENDBRANCH  14  15
ENDBRANCH  13  14
ENDBRANCH  11  13
ENDBRANCH   6  11
BRANCH   3  21
ATOM     21  O4  UNL     1       0.594  -1.891   0.198  0.00  0.00    -0.506 OA
ATOM     22  H17 UNL     1       0.346  -2.595  -0.429  0.00  0.00    +0.292 HD
ENDBRANCH   3  21
BRANCH   4  23
ATOM     23  C31 UNL     1      -2.025  -2.594  -0.865  0.00  0.00    +0.081 C 
BRANCH  23  24
ATOM     24  C32 UNL     1      -1.850  -3.984  -0.288  0.00  0.00    -0.001 A 
ATOM     25  C33 UNL     1      -2.733  -4.471   0.690  0.00  0.00    +0.007 A 
ATOM     26  C34 UNL     1      -2.584  -5.758   1.214  0.00  0.00    +0.001 A 
ATOM     27  C35 UNL     1      -1.555  -6.582   0.759  0.00  0.00    +0.004 A 
ATOM     28  C36 UNL     1      -0.666  -6.117  -0.211  0.00  0.00    +0.046 A 
ATOM     29  C37 UNL     1      -0.815  -4.825  -0.718  0.00  0.00    +0.120 A 
BRANCH  29  30
ATOM     30  O7  UNL     1       0.087  -4.345  -1.629  0.00  0.00    -0.506 OA
ATOM     31  H34 UNL     1       0.605  -5.098  -1.970  0.00  0.00    +0.292 HD
ENDBRANCH  29  30
ENDBRANCH  23  24
ENDBRANCH   4  23
BRANCH   2  32
ATOM     32  C4  UNL     1       1.143   0.165   2.035  0.00  0.00    +0.081 C 
BRANCH  32  33
ATOM     33  C5  UNL     1       2.200   0.583   1.029  0.00  0.00    -0.001 A 
ATOM     34  C6  UNL     1       3.183  -0.346   0.636  0.00  0.00    +0.011 A 
ATOM     35  C7  UNL     1       4.209  -0.007  -0.260  0.00  0.00    -0.042 A 
ATOM     36  C8  UNL     1       4.238   1.292  -0.780  0.00  0.00    +0.007 A 
ATOM     37  C9  UNL     1       3.275   2.228  -0.401  0.00  0.00    +0.046 A 
ATOM     38  C10 UNL     1       2.270   1.873   0.500  0.00  0.00    +0.120 A 
BRANCH  38  39
ATOM     39  O2  UNL     1       1.355   2.810   0.885  0.00  0.00    -0.506 OA
ATOM     40  H9  UNL     1       1.570   3.647   0.443  0.00  0.00    +0.292 HD
ENDBRANCH  38  39
BRANCH  35  41
ATOM     41  C11 UNL     1       5.231  -1.046  -0.667  0.00  0.00    +0.074 C 
BRANCH  41  42
ATOM     42  C12 UNL     1       6.668  -0.622  -0.456  0.00  0.00    -0.002 A 
ATOM     43  C13 UNL     1       7.195  -0.694   0.848  0.00  0.00    +0.007 A 
ATOM     44  C14 UNL     1       8.508  -0.304   1.121  0.00  0.00    +0.001 A 
ATOM     45  C15 UNL     1       9.317   0.175   0.094  0.00  0.00    +0.004 A 
ATOM     46  C16 UNL     1       8.811   0.261  -1.201  0.00  0.00    +0.046 A 
ATOM     47  C17 UNL     1       7.500  -0.132  -1.474  0.00  0.00    +0.120 A 
BRANCH  47  48
ATOM     48  O3  UNL     1       7.110   0.008  -2.775  0.00  0.00    -0.506 OA
ATOM     49  H16 UNL     1       6.186  -0.263  -2.885  0.00  0.00    +0.292 HD
ENDBRANCH  47  48
ENDBRANCH  41  42
ENDBRANCH  35  41
ENDBRANCH  32  33
ENDBRANCH   2  32
TORSDOF 16
