REMARK  Name = ligand_653.pdb
REMARK  4 active torsions:
REMARK  status: ('A' for Active; 'I' for Inactive)
REMARK    1  A    between atoms: C1_1  and  C2_2
REMARK    2  A    between atoms: N1_5  and  C5_6
REMARK    3  A    between atoms: N3_15  and  C12_16
REMARK    4  A    between atoms: C12_16  and  C13_17
REMARK                            x       y       z     vdW  Elec       q    Type
REMARK                         _______ _______ _______ _____ _____    ______ ____
ROOT
ATOM      1  C1  UNL     1      -0.041  -4.761  -1.490  0.00  0.00    +0.066 C 
ATOM      2  C2  UNL     1      -0.282  -3.387  -0.945  0.00  0.00    +0.045 A 
ATOM      3  C3  UNL     1      -1.453  -3.094  -0.280  0.00  0.00    +0.067 A 
ATOM      4  C4  UNL     1      -1.602  -1.804   0.191  0.00  0.00    +0.128 A 
ATOM      5  N1  UNL     1      -2.803  -1.488   0.874  0.00  0.00    -0.299 N 
ATOM      6  N2  UNL     1      -0.652  -0.878  -0.008  0.00  0.00    -0.199 NA
ATOM      7  C11 UNL     1       0.454  -1.235  -0.671  0.00  0.00    +0.217 A 
ATOM      8  N3  UNL     1       1.456  -0.309  -0.912  0.00  0.00    -0.309 N 
ATOM      9  N4  UNL     1       0.681  -2.468  -1.135  0.00  0.00    -0.220 NA
ATOM     10  H5  UNL     1      -2.999  -2.201   1.568  0.00  0.00    +0.154 HD
ATOM     11  H10 UNL     1       2.295  -0.833  -1.129  0.00  0.00    +0.149 HD
ENDROOT
BRANCH   5  12
ATOM     12  C5  UNL     1      -3.280  -0.220   1.276  0.00  0.00    +0.035 A 
ATOM     13  C6  UNL     1      -4.226  -0.148   2.315  0.00  0.00    +0.023 A 
ATOM     14  C7  UNL     1      -4.775   1.074   2.717  0.00  0.00    +0.005 A 
ATOM     15  C8  UNL     1      -4.400   2.246   2.068  0.00  0.00    +0.038 A 
ATOM     16  C9  UNL     1      -3.493   2.180   1.019  0.00  0.00    +0.125 A 
ATOM     17  F1  UNL     1      -3.149   3.306   0.379  0.00  0.00    -0.205 F 
ATOM     18  C10 UNL     1      -2.945   0.966   0.613  0.00  0.00    +0.061 A 
ENDBRANCH   5  12
BRANCH   8  19
ATOM     19  C12 UNL     1       1.603   0.688   0.127  0.00  0.00    +0.139 C 
BRANCH  19  20
ATOM     20  C13 UNL     1       2.860   1.487  -0.132  0.00  0.00    -0.030 A 
ATOM     21  C14 UNL     1       4.024   1.258   0.616  0.00  0.00    +0.005 A 
ATOM     22  C15 UNL     1       5.185   1.990   0.360  0.00  0.00    +0.000 A 
ATOM     23  C16 UNL     1       5.196   2.953  -0.647  0.00  0.00    +0.000 A 
ATOM     24  C17 UNL     1       4.048   3.183  -1.404  0.00  0.00    +0.000 A 
ATOM     25  C18 UNL     1       2.887   2.452  -1.151  0.00  0.00    +0.005 A 
ENDBRANCH  19  20
ENDBRANCH   8  19
TORSDOF 3
