REMARK  Name = ligand_293.pdb
REMARK  6 active torsions:
REMARK  status: ('A' for Active; 'I' for Inactive)
REMARK    1  A    between atoms: C1_1  and  O1_2
REMARK    2  A    between atoms: O1_2  and  C2_3
REMARK    3  A    between atoms: C4_5  and  O2_6
REMARK    4  A    between atoms: C8_11  and  C11_15
REMARK    5  A    between atoms: C14_18  and  O6_22
REMARK    6  A    between atoms: C15_19  and  O5_21
REMARK                            x       y       z     vdW  Elec       q    Type
REMARK                         _______ _______ _______ _____ _____    ______ ____
ROOT
ATOM      1  C2  UNL     1       3.406   0.529  -0.894  0.00  0.00    +0.127 A 
ATOM      2  C3  UNL     1       3.930  -0.537  -0.159  0.00  0.00    +0.092 A 
ATOM      3  C4  UNL     1       3.077  -1.357   0.581  0.00  0.00    +0.135 A 
ATOM      4  C5  UNL     1       1.701  -1.118   0.592  0.00  0.00    +0.105 A 
ATOM      5  C6  UNL     1       1.177  -0.056  -0.138  0.00  0.00    +0.146 A 
ATOM      6  C7  UNL     1       2.027   0.765  -0.879  0.00  0.00    +0.092 A 
ATOM      7  O3  UNL     1      -0.163   0.238  -0.170  0.00  0.00    -0.454 OA
ATOM      8  C8  UNL     1      -1.035  -0.568   0.547  0.00  0.00    +0.139 A 
ATOM      9  C9  UNL     1      -0.652  -1.614   1.294  0.00  0.00    +0.098 A 
ATOM     10  C10 UNL     1       0.775  -1.959   1.359  0.00  0.00    +0.197 A 
ATOM     11  O4  UNL     1       1.180  -2.906   2.023  0.00  0.00    -0.287 OA
ENDROOT
BRANCH   8  12
ATOM     12  C11 UNL     1      -2.452  -0.162   0.448  0.00  0.00    +0.021 A 
ATOM     13  C12 UNL     1      -3.476  -1.114   0.279  0.00  0.00    +0.015 A 
ATOM     14  C13 UNL     1      -4.812  -0.717   0.177  0.00  0.00    +0.050 A 
ATOM     15  C14 UNL     1      -5.124   0.631   0.237  0.00  0.00    +0.158 A 
ATOM     16  C15 UNL     1      -4.125   1.586   0.393  0.00  0.00    +0.159 A 
ATOM     17  C16 UNL     1      -2.792   1.201   0.496  0.00  0.00    +0.060 A 
BRANCH  16  18
ATOM     18  O5  UNL     1      -4.504   2.900   0.439  0.00  0.00    -0.503 OA
ATOM     19  H11 UNL     1      -3.705   3.445   0.536  0.00  0.00    +0.292 HD
ENDBRANCH  16  18
BRANCH  15  20
ATOM     20  O6  UNL     1      -6.429   1.018   0.137  0.00  0.00    -0.503 OA
ATOM     21  H12 UNL     1      -6.403   1.993   0.200  0.00  0.00    +0.292 HD
ENDBRANCH  15  20
ENDBRANCH   8  12
BRANCH   1  23
ATOM     22  C1  UNL     1       5.531   1.204  -1.720  0.00  0.00    +0.277 C 
ATOM     23  O1  UNL     1       4.124   1.408  -1.658  0.00  0.00    -0.495 OA
ENDBRANCH   1  23
BRANCH   3  24
ATOM     24  O2  UNL     1       3.659  -2.383   1.277  0.00  0.00    -0.506 OA
ATOM     25  H5  UNL     1       2.951  -2.876   1.749  0.00  0.00    +0.292 HD
ENDBRANCH   3  24
TORSDOF 5
