REMARK  Name = ligand_779.pdb
REMARK  7 active torsions:
REMARK  status: ('A' for Active; 'I' for Inactive)
REMARK    1  A    between atoms: C1_1  and  C2_2
REMARK    2  A    between atoms: C2_2  and  O1_3
REMARK    3  A    between atoms: C2_2  and  C14_18
REMARK    4  A    between atoms: O1_3  and  C3_4
REMARK    5  A    between atoms: C6_7  and  N1_8
REMARK    6  A    between atoms: C7_9  and  C8_11
REMARK    7  A    between atoms: C14_18  and  C15_20
REMARK                            x       y       z     vdW  Elec       q    Type
REMARK                         _______ _______ _______ _____ _____    ______ ____
ROOT
ATOM      1  C3  UNL     1       0.182   1.431   0.544  0.00  0.00    +0.122 A 
ATOM      2  C4  UNL     1       0.042   0.141   0.040  0.00  0.00    +0.047 A 
ATOM      3  C5  UNL     1      -1.235  -0.392  -0.180  0.00  0.00    +0.027 A 
ATOM      4  C6  UNL     1      -2.387   0.352   0.103  0.00  0.00    +0.034 A 
ATOM      5  C12 UNL     1      -2.241   1.637   0.619  0.00  0.00    +0.027 A 
ATOM      6  C13 UNL     1      -0.964   2.167   0.844  0.00  0.00    +0.047 A 
ENDROOT
BRANCH   4   7
ATOM      7  N1  UNL     1      -3.627  -0.265  -0.151  0.00  0.00    -0.281 N 
ATOM      8  C7  UNL     1      -4.900   0.253   0.022  0.00  0.00    +0.255 C 
ATOM      9  O2  UNL     1      -5.139   1.386   0.430  0.00  0.00    -0.269 OA
ATOM     10  H7  UNL     1      -3.594  -1.213  -0.506  0.00  0.00    +0.155 HD
BRANCH   8  11
ATOM     11  C8  UNL     1      -5.985  -0.666  -0.330  0.00  0.00    +0.074 A 
ATOM     12  C9  UNL     1      -7.342  -0.407  -0.251  0.00  0.00    +0.021 A 
ATOM     13  C10 UNL     1      -8.142  -1.510  -0.667  0.00  0.00    +0.008 A 
ATOM     14  C11 UNL     1      -7.372  -2.583  -1.054  0.00  0.00    +0.046 A 
ATOM     15  S1  UNL     1      -5.700  -2.256  -0.914  0.00  0.00    -0.092 S 
ENDBRANCH   8  11
ENDBRANCH   4   7
BRANCH   1  16
ATOM     16  O1  UNL     1       1.360   2.067   0.814  0.00  0.00    -0.481 OA
BRANCH  16  18
ATOM     17  C1  UNL     1       3.492   2.792   0.119  0.00  0.00    +0.060 C 
ATOM     18  C2  UNL     1       2.545   1.594   0.170  0.00  0.00    +0.241 C 
BRANCH  18  19
ATOM     19  C14 UNL     1       3.230   0.451   0.938  0.00  0.00    +0.203 C 
ATOM     20  O3  UNL     1       2.939   0.172   2.102  0.00  0.00    -0.288 OA
BRANCH  19  21
ATOM     21  C15 UNL     1       4.287  -0.369   0.260  0.00  0.00    +0.021 A 
ATOM     22  C16 UNL     1       4.997  -1.299   1.038  0.00  0.00    +0.013 A 
ATOM     23  C17 UNL     1       5.991  -2.100   0.467  0.00  0.00    +0.021 A 
ATOM     24  C18 UNL     1       6.279  -1.978  -0.889  0.00  0.00    +0.041 A 
ATOM     25 CL1  UNL     1       7.499  -2.961  -1.598  0.00  0.00    -0.084 Cl
ATOM     26  C19 UNL     1       5.581  -1.064  -1.676  0.00  0.00    +0.021 A 
ATOM     27  C20 UNL     1       4.585  -0.261  -1.105  0.00  0.00    +0.013 A 
ENDBRANCH  19  21
ENDBRANCH  18  19
ENDBRANCH  16  18
ENDBRANCH   1  16
TORSDOF 6
