REMARK  Name = ligand_142.pdb
REMARK  7 active torsions:
REMARK  status: ('A' for Active; 'I' for Inactive)
REMARK    1  A    between atoms: C2_2  and  C3_3
REMARK    2  A    between atoms: C3_3  and  C4_4
REMARK    3  A    between atoms: C15_19  and  O5_20
REMARK    4  A    between atoms: O5_20  and  C16_21
REMARK    5  A    between atoms: C16_21  and  C17_23
REMARK    6  A    between atoms: C17_23  and  C19_25
REMARK    7  A    between atoms: C19_25  and  O7_26
REMARK                            x       y       z     vdW  Elec       q    Type
REMARK                         _______ _______ _______ _____ _____    ______ ____
ROOT
ATOM      1  C4  UNL     1      -1.262   1.182   0.389  0.00  0.00    +0.022 C 
ATOM      2  C5  UNL     1      -1.316   1.351   1.919  0.00  0.00    +0.240 C 
ATOM      3  O1  UNL     1      -2.649   1.391   2.455  0.00  0.00    -0.461 OA
ATOM      4  C6  UNL     1      -3.702   0.711   1.951  0.00  0.00    +0.335 C 
ATOM      5  O2  UNL     1      -4.768   0.668   2.554  0.00  0.00    -0.245 OA
ATOM      6  C7  UNL     1      -3.514   0.071   0.626  0.00  0.00    +0.037 C 
ATOM      7  C8  UNL     1      -4.616  -0.351  -0.020  0.00  0.00    +0.020 C 
ATOM      8  C9  UNL     1      -2.140  -0.049   0.022  0.00  0.00    +0.077 C 
ATOM      9  C10 UNL     1      -1.462  -1.358   0.465  0.00  0.00    +0.196 C 
ATOM     10  O3  UNL     1      -2.137  -2.546   0.040  0.00  0.00    -0.457 OA
ATOM     11  C11 UNL     1      -1.217  -3.563   0.040  0.00  0.00    +0.335 C 
ATOM     12  O4  UNL     1      -1.459  -4.750  -0.046  0.00  0.00    -0.245 OA
ATOM     13  C12 UNL     1       0.130  -2.928   0.125  0.00  0.00    +0.040 C 
ATOM     14  C13 UNL     1       1.238  -3.608   0.438  0.00  0.00    +0.020 C 
ATOM     15  C14 UNL     1      -0.090  -1.487  -0.166  0.00  0.00    +0.107 C 
ATOM     16  C15 UNL     1       0.832  -0.392   0.354  0.00  0.00    +0.189 C 
ATOM     17  C20 UNL     1       0.222   0.972  -0.038  0.00  0.00    +0.056 C 
ENDROOT
BRANCH   1  18
ATOM     18  C3  UNL     1      -1.809   2.502  -0.252  0.00  0.00    +0.037 C 
BRANCH  18  20
ATOM     19  C1  UNL     1      -3.064   2.517  -2.426  0.00  0.00    +0.004 C 
ATOM     20  C2  UNL     1      -1.906   2.505  -1.754  0.00  0.00    -0.034 C 
ENDBRANCH  18  20
ENDBRANCH   1  18
BRANCH  16  21
ATOM     21  O5  UNL     1       2.111  -0.527  -0.295  0.00  0.00    -0.457 OA
BRANCH  21  22
ATOM     22  C16 UNL     1       3.161   0.059   0.335  0.00  0.00    +0.337 C 
ATOM     23  O6  UNL     1       3.084   0.699   1.374  0.00  0.00    -0.245 OA
BRANCH  22  24
ATOM     24  C17 UNL     1       4.442  -0.167  -0.392  0.00  0.00    +0.055 C 
ATOM     25  C18 UNL     1       4.494  -0.869  -1.539  0.00  0.00    +0.022 C 
BRANCH  24  26
ATOM     26  C19 UNL     1       5.629   0.454   0.292  0.00  0.00    +0.197 C 
BRANCH  26  27
ATOM     27  O7  UNL     1       6.815   0.338  -0.490  0.00  0.00    -0.390 OA
ATOM     28  H20 UNL     1       6.726   0.962  -1.230  0.00  0.00    +0.210 HD
ENDBRANCH  26  27
ENDBRANCH  24  26
ENDBRANCH  22  24
ENDBRANCH  21  22
ENDBRANCH  16  21
TORSDOF 7
