REMARK  Name = ligand_546.pdb
REMARK  2 active torsions:
REMARK  status: ('A' for Active; 'I' for Inactive)
REMARK    1  A    between atoms: C6_7  and  C7_8
REMARK    2  A    between atoms: C9_13  and  C11_16
REMARK                            x       y       z     vdW  Elec       q    Type
REMARK                         _______ _______ _______ _____ _____    ______ ____
ROOT
ATOM      1  C7  UNL     1       1.763   0.237   0.189  0.00  0.00    +0.251 C 
ATOM      2  O1  UNL     1       1.144   1.040   0.876  0.00  0.00    -0.270 OA
ATOM      3  N1  UNL     1       1.246  -0.759  -0.604  0.00  0.00    -0.261 N 
ATOM      4  C8  UNL     1      -0.097  -0.947  -0.765  0.00  0.00    +0.165 A 
ATOM      5  N2  UNL     1      -1.097  -0.299  -0.230  0.00  0.00    -0.223 NA
ATOM      6  C9  UNL     1      -2.296  -0.836  -0.683  0.00  0.00    +0.098 A 
ATOM      7  C10 UNL     1      -2.158  -1.896  -1.562  0.00  0.00    +0.078 A 
ATOM      8  S1  UNL     1      -0.494  -2.224  -1.826  0.00  0.00    -0.060 S 
ATOM      9  H5  UNL     1       1.851  -1.375  -1.127  0.00  0.00    +0.157 HD
ENDROOT
BRANCH   1  16
ATOM     10 BR1  UNL     1       3.471   0.194  -2.654  0.00  0.00    -0.050 Br
ATOM     11  C1  UNL     1       4.096   0.227  -0.860  0.00  0.00    +0.030 A 
ATOM     12  C2  UNL     1       5.486   0.250  -0.679  0.00  0.00    +0.016 A 
ATOM     13  C3  UNL     1       6.030   0.326   0.604  0.00  0.00    +0.001 A 
ATOM     14  C4  UNL     1       5.192   0.391   1.714  0.00  0.00    +0.001 A 
ATOM     15  C5  UNL     1       3.808   0.368   1.541  0.00  0.00    +0.014 A 
ATOM     16  C6  UNL     1       3.249   0.271   0.256  0.00  0.00    +0.051 A 
ENDBRANCH   1  16
BRANCH   6  17
ATOM     17  C11 UNL     1      -3.590  -0.309  -0.254  0.00  0.00    +0.090 A 
ATOM     18  C12 UNL     1      -3.652   0.770   0.624  0.00  0.00    +0.030 A 
ATOM     19  C13 UNL     1      -4.901   1.248   1.013  0.00  0.00    +0.004 A 
ATOM     20  C14 UNL     1      -6.047   0.640   0.516  0.00  0.00    +0.020 A 
ATOM     21  C15 UNL     1      -5.896  -0.428  -0.354  0.00  0.00    +0.111 A 
ATOM     22  N3  UNL     1      -4.700  -0.916  -0.750  0.00  0.00    -0.253 NA
ENDBRANCH   6  17
TORSDOF 2
