REMARK  Name = ligand_477.pdb
REMARK  7 active torsions:
REMARK  status: ('A' for Active; 'I' for Inactive)
REMARK    1  A    between atoms: C1_1  and  N1_2
REMARK    2  A    between atoms: N1_2  and  C2_3
REMARK    3  A    between atoms: N1_2  and  C3_4
REMARK    4  A    between atoms: C3_4  and  C4_5
REMARK    5  A    between atoms: C4_5  and  C5_6
REMARK    6  A    between atoms: C5_6  and  N2_7
REMARK    7  A    between atoms: N2_7  and  C6_8
REMARK                            x       y       z     vdW  Elec       q    Type
REMARK                         _______ _______ _______ _____ _____    ______ ____
ROOT
ATOM      1  C6  UNL     1      -1.465   0.543   0.293  0.00  0.00    +0.046 A 
ATOM      2  C7  UNL     1      -2.134   1.156  -0.803  0.00  0.00    +0.022 A 
ATOM      3  C8  UNL     1      -1.539   2.082  -1.700  0.00  0.00    +0.012 A 
ATOM      4  C9  UNL     1      -2.263   2.645  -2.751  0.00  0.00    +0.001 A 
ATOM      5  C10 UNL     1      -3.591   2.295  -2.927  0.00  0.00    +0.002 A 
ATOM      6  C11 UNL     1      -4.184   1.382  -2.054  0.00  0.00    +0.028 A 
ATOM      7  C12 UNL     1      -3.484   0.806  -1.001  0.00  0.00    +0.073 A 
ATOM      8  N3  UNL     1      -4.139  -0.069  -0.226  0.00  0.00    -0.247 NA
ATOM      9  C13 UNL     1      -3.502  -0.653   0.798  0.00  0.00    +0.073 A 
ATOM     10  C14 UNL     1      -4.207  -1.559   1.581  0.00  0.00    +0.028 A 
ATOM     11  C15 UNL     1      -3.623  -2.209   2.671  0.00  0.00    +0.002 A 
ATOM     12  C16 UNL     1      -2.300  -1.948   2.995  0.00  0.00    +0.001 A 
ATOM     13  C17 UNL     1      -1.573  -1.044   2.223  0.00  0.00    +0.012 A 
ATOM     14  C18 UNL     1      -2.157  -0.389   1.111  0.00  0.00    +0.022 A 
ENDROOT
BRANCH   1  15
ATOM     15  N2  UNL     1      -0.070   0.775   0.536  0.00  0.00    -0.343 N 
ATOM     16  H13 UNL     1       0.162   1.734   0.289  0.00  0.00    +0.146 HD
BRANCH  15  17
ATOM     17  C5  UNL     1       0.765  -0.173  -0.217  0.00  0.00    +0.103 C 
BRANCH  17  18
ATOM     18  C4  UNL     1       2.231   0.043   0.165  0.00  0.00    +0.034 C 
BRANCH  18  19
ATOM     19  C3  UNL     1       3.135  -0.939  -0.591  0.00  0.00    +0.085 C 
BRANCH  19  21
ATOM     20  C1  UNL     1       5.153   0.432  -0.724  0.00  0.00    +0.104 C 
ATOM     21  N1  UNL     1       4.577  -0.848  -0.325  0.00  0.00    -0.308 NA
ATOM     22  C2  UNL     1       4.921  -1.169   1.058  0.00  0.00    +0.104 C 
ENDBRANCH  19  21
ENDBRANCH  18  19
ENDBRANCH  17  18
ENDBRANCH  15  17
ENDBRANCH   1  15
TORSDOF 5
