REMARK  Name = ligand_519.pdb
REMARK  6 active torsions:
REMARK  status: ('A' for Active; 'I' for Inactive)
REMARK    1  A    between atoms: N2_3  and  C2_4
REMARK    2  A    between atoms: C2_4  and  C3_5
REMARK    3  A    between atoms: C3_5  and  O1_6
REMARK    4  A    between atoms: N4_15  and  C11_16
REMARK    5  A    between atoms: C14_19  and  C15_20
REMARK    6  A    between atoms: C16_21  and  C17_22
REMARK                            x       y       z     vdW  Elec       q    Type
REMARK                         _______ _______ _______ _____ _____    ______ ____
ROOT
ATOM      1  N1  UNL     1      -1.554   0.631  -0.133  0.00  0.00    -0.199 NA
ATOM      2  C1  UNL     1      -2.748   0.054   0.082  0.00  0.00    +0.132 A 
ATOM      3  N2  UNL     1      -3.922   0.834  -0.067  0.00  0.00    -0.326 N 
ATOM      4  C4  UNL     1      -2.867  -1.302   0.427  0.00  0.00    +0.040 A 
ATOM      5  C5  UNL     1      -1.657  -1.984   0.567  0.00  0.00    +0.078 A 
ATOM      6  C6  UNL     1      -1.688  -3.329   0.920  0.00  0.00    +0.028 A 
ATOM      7  C7  UNL     1      -2.889  -4.012   1.128  0.00  0.00    +0.002 A 
ATOM      8  C8  UNL     1      -4.096  -3.344   0.978  0.00  0.00    +0.001 A 
ATOM      9  C9  UNL     1      -4.089  -1.996   0.628  0.00  0.00    +0.013 A 
ATOM     10  N3  UNL     1      -0.472  -1.401   0.374  0.00  0.00    -0.214 NA
ATOM     11  C10 UNL     1      -0.449  -0.113   0.020  0.00  0.00    +0.222 A 
ATOM     12  N4  UNL     1       0.743   0.567  -0.212  0.00  0.00    -0.284 N 
ATOM     13  H1  UNL     1      -4.460   0.749   0.793  0.00  0.00    +0.148 HD
ATOM     14  H11 UNL     1       0.530   1.519  -0.469  0.00  0.00    +0.155 HD
ENDROOT
BRANCH  12  15
ATOM     15  C11 UNL     1       2.094   0.206  -0.188  0.00  0.00    +0.034 A 
ATOM     16  C12 UNL     1       2.555  -1.075   0.113  0.00  0.00    +0.023 A 
ATOM     17  C13 UNL     1       3.923  -1.370   0.125  0.00  0.00    +0.005 A 
ATOM     18  C14 UNL     1       4.876  -0.386  -0.163  0.00  0.00    -0.047 A 
ATOM     19  C15 UNL     1       6.336  -0.741  -0.140  0.00  0.00    +0.044 C 
ATOM     20  C16 UNL     1       4.438   0.914  -0.467  0.00  0.00    -0.046 A 
ATOM     21  C17 UNL     1       5.411   2.017  -0.783  0.00  0.00    +0.044 C 
ATOM     22  C18 UNL     1       3.057   1.189  -0.474  0.00  0.00    +0.027 A 
ENDBRANCH  12  15
BRANCH   3  23
ATOM     23  C2  UNL     1      -3.684   2.235  -0.412  0.00  0.00    +0.130 C 
BRANCH  23  24
ATOM     24  C3  UNL     1      -5.016   2.955  -0.646  0.00  0.00    +0.174 C 
BRANCH  24  25
ATOM     25  O1  UNL     1      -4.809   4.319  -1.000  0.00  0.00    -0.393 OA
ATOM     26  H6  UNL     1      -4.366   4.330  -1.866  0.00  0.00    +0.209 HD
ENDBRANCH  24  25
ENDBRANCH  23  24
ENDBRANCH   3  23
TORSDOF 4
