REMARK  Name = ligand_41.pdb
REMARK  8 active torsions:
REMARK  status: ('A' for Active; 'I' for Inactive)
REMARK    1  A    between atoms: C1_1  and  O1_2
REMARK    2  A    between atoms: O1_2  and  C2_3
REMARK    3  A    between atoms: C4_5  and  C5_6
REMARK    4  A    between atoms: C6_7  and  C7_8
REMARK    5  A    between atoms: C10_11  and  O2_12
REMARK    6  A    between atoms: C14_16  and  C15_17
REMARK    7  A    between atoms: C16_19  and  C17_20
REMARK    8  A    between atoms: C22_25  and  O3_26
REMARK                            x       y       z     vdW  Elec       q    Type
REMARK                         _______ _______ _______ _____ _____    ______ ____
ROOT
ATOM      1  C2  UNL     1      -3.681   0.290  -0.433  0.00  0.00    +0.132 A 
ATOM      2  C3  UNL     1      -2.991   1.502  -0.497  0.00  0.00    +0.050 A 
ATOM      3  C4  UNL     1      -1.671   1.606  -0.046  0.00  0.00    -0.039 A 
ATOM      4  C5  UNL     1      -0.978   2.943  -0.139  0.00  0.00    +0.044 C 
ATOM      5  C6  UNL     1      -1.021   0.468   0.489  0.00  0.00    -0.007 A 
ATOM      6  C18 UNL     1      -1.718  -0.780   0.568  0.00  0.00    -0.003 A 
ATOM      7  C19 UNL     1      -1.109  -1.944   1.106  0.00  0.00    +0.009 A 
ATOM      8  C20 UNL     1      -1.771  -3.169   1.188  0.00  0.00    +0.004 A 
ATOM      9  C21 UNL     1      -3.072  -3.270   0.733  0.00  0.00    +0.046 A 
ATOM     10  C22 UNL     1      -3.700  -2.146   0.203  0.00  0.00    +0.128 A 
ATOM     11  C23 UNL     1      -3.060  -0.877   0.102  0.00  0.00    +0.066 A 
ENDROOT
BRANCH   5  12
ATOM     12  C7  UNL     1       0.378   0.588   0.967  0.00  0.00    -0.013 A 
ATOM     13  C8  UNL     1       0.603   1.018   2.284  0.00  0.00    +0.012 A 
ATOM     14  C9  UNL     1       1.896   1.169   2.773  0.00  0.00    +0.046 A 
ATOM     15  C10 UNL     1       2.984   0.854   1.962  0.00  0.00    +0.122 A 
ATOM     16  C11 UNL     1       2.815   0.355   0.659  0.00  0.00    +0.014 A 
ATOM     17  C12 UNL     1       1.494   0.285   0.143  0.00  0.00    -0.030 A 
ATOM     18  C13 UNL     1       1.282  -0.137  -1.298  0.00  0.00    +0.054 C 
ATOM     19  C14 UNL     1       2.551   0.043  -2.139  0.00  0.00    +0.055 C 
ATOM     20  C15 UNL     1       2.349  -0.524  -3.543  0.00  0.00    +0.024 C 
ATOM     21  N1  UNL     1       3.662  -0.657  -1.497  0.00  0.00    -0.307 NA
ATOM     22  C16 UNL     1       4.018  -0.025  -0.207  0.00  0.00    +0.085 C 
ATOM     23  C17 UNL     1       4.973  -1.022   0.472  0.00  0.00    +0.029 C 
ATOM     24  H17 UNL     1       3.386  -1.623  -1.317  0.00  0.00    +0.123 HD
BRANCH  15  25
ATOM     25  O2  UNL     1       4.245   1.070   2.443  0.00  0.00    -0.506 OA
ATOM     26  H10 UNL     1       4.187   1.431   3.342  0.00  0.00    +0.292 HD
ENDBRANCH  15  25
ENDBRANCH   5  12
BRANCH   1  28
ATOM     27  C1  UNL     1      -5.633   1.276  -1.431  0.00  0.00    +0.277 C 
ATOM     28  O1  UNL     1      -4.981   0.140  -0.870  0.00  0.00    -0.494 OA
ENDBRANCH   1  28
BRANCH  10  29
ATOM     29  O3  UNL     1      -4.991  -2.361  -0.215  0.00  0.00    -0.506 OA
ATOM     30  H25 UNL     1      -5.316  -1.507  -0.559  0.00  0.00    +0.292 HD
ENDBRANCH  10  29
TORSDOF 4
