REMARK  Name = ligand_551.pdb
REMARK  9 active torsions:
REMARK  status: ('A' for Active; 'I' for Inactive)
REMARK    1  A    between atoms: C1_1  and  C2_2
REMARK    2  A    between atoms: C2_2  and  C3_3
REMARK    3  A    between atoms: C3_3  and  C4_4
REMARK    4  A    between atoms: C4_4  and  N1_5
REMARK    5  A    between atoms: N1_5  and  C5_6
REMARK    6  A    between atoms: C5_6  and  C6_7
REMARK    7  A    between atoms: C6_7  and  O1_8
REMARK    8  A    between atoms: C6_7  and  C7_9
REMARK    9  A    between atoms: C6_7  and  C13_16
REMARK                            x       y       z     vdW  Elec       q    Type
REMARK                         _______ _______ _______ _____ _____    ______ ____
ROOT
ATOM      1  C6  UNL     1      -1.317   0.088   0.091  0.00  0.00    +0.128 C 
ENDROOT
BRANCH   1   2
ATOM      2  C7  UNL     1      -2.308   1.264   0.178  0.00  0.00    -0.010 A 
ATOM      3  C8  UNL     1      -3.693   1.031   0.091  0.00  0.00    +0.008 A 
ATOM      4  C9  UNL     1      -4.613   2.083   0.151  0.00  0.00    +0.020 A 
ATOM      5  C10 UNL     1      -4.159   3.390   0.310  0.00  0.00    +0.041 A 
ATOM      6 CL1  UNL     1      -5.288   4.689   0.366  0.00  0.00    -0.084 Cl
ATOM      7  C11 UNL     1      -2.800   3.648   0.430  0.00  0.00    +0.020 A 
ATOM      8  C12 UNL     1      -1.882   2.592   0.365  0.00  0.00    +0.008 A 
ENDBRANCH   1   2
BRANCH   1   9
ATOM      9  C13 UNL     1      -0.965  -0.461   1.493  0.00  0.00    -0.010 A 
ATOM     10  C14 UNL     1      -1.262  -1.791   1.857  0.00  0.00    +0.008 A 
ATOM     11  C15 UNL     1      -0.931  -2.297   3.118  0.00  0.00    +0.020 A 
ATOM     12  C16 UNL     1      -0.298  -1.478   4.044  0.00  0.00    +0.041 A 
ATOM     13 CL2  UNL     1       0.121  -2.089   5.597  0.00  0.00    -0.084 Cl
ATOM     14  C17 UNL     1       0.000  -0.158   3.717  0.00  0.00    +0.020 A 
ATOM     15  C18 UNL     1      -0.325   0.341   2.452  0.00  0.00    +0.008 A 
ENDBRANCH   1   9
BRANCH   1  16
ATOM     16  O1  UNL     1      -1.982  -0.961  -0.645  0.00  0.00    -0.378 OA
ATOM     17  H13 UNL     1      -1.580  -0.969  -1.530  0.00  0.00    +0.211 HD
ENDBRANCH   1  16
BRANCH   1  18
ATOM     18  C5  UNL     1      -0.006   0.451  -0.713  0.00  0.00    +0.125 C 
BRANCH  18  19
ATOM     19  N1  UNL     1       0.648  -0.753  -1.270  0.00  0.00    -0.313 NA
ATOM     20  H10 UNL     1       0.744  -1.445  -0.523  0.00  0.00    +0.122 HD
BRANCH  19  21
ATOM     21  C4  UNL     1       1.970  -0.436  -1.815  0.00  0.00    +0.081 C 
BRANCH  21  22
ATOM     22  C3  UNL     1       2.623  -1.727  -2.324  0.00  0.00    +0.015 C 
BRANCH  22  24
ATOM     23  C1  UNL     1       5.061  -0.974  -2.056  0.00  0.00    +0.004 C 
ATOM     24  C2  UNL     1       3.982  -1.499  -3.000  0.00  0.00    -0.002 C 
ENDBRANCH  22  24
ENDBRANCH  21  22
ENDBRANCH  19  21
ENDBRANCH  18  19
ENDBRANCH   1  18
TORSDOF 8
