REMARK  Name = ligand_111.pdb
REMARK  10 active torsions:
REMARK  status: ('A' for Active; 'I' for Inactive)
REMARK    1  A    between atoms: C1_1  and  C2_2
REMARK    2  A    between atoms: C2_2  and  C5_6
REMARK    3  A    between atoms: C3_3  and  C4_4
REMARK    4  A    between atoms: C4_4  and  O1_5
REMARK    5  A    between atoms: C5_6  and  C6_8
REMARK    6  A    between atoms: C6_8  and  C7_9
REMARK    7  A    between atoms: C8_10  and  C9_11
REMARK    8  A    between atoms: C8_10  and  C10_12
REMARK    9  A    between atoms: C14_17  and  C15_18
REMARK   10  A    between atoms: C14_17  and  O4_19
REMARK                            x       y       z     vdW  Elec       q    Type
REMARK                         _______ _______ _______ _____ _____    ______ ____
ROOT
ATOM      1  C7  UNL     1      -0.737  -0.131   0.339  0.00  0.00    +0.045 C 
ATOM      2  C8  UNL     1      -1.322   1.173  -0.329  0.00  0.00    +0.033 C 
ATOM      3  C9  UNL     1      -0.224   1.957  -1.069  0.00  0.00    +0.019 C 
ATOM      4  C10 UNL     1      -2.014   2.148   0.643  0.00  0.00    +0.019 C 
ATOM      5  C11 UNL     1      -2.377   0.747  -1.364  0.00  0.00    +0.162 C 
ATOM      6  O3  UNL     1      -2.516   1.280  -2.462  0.00  0.00    -0.292 OA
ATOM      7  C12 UNL     1      -3.326  -0.325  -0.990  0.00  0.00    +0.045 C 
ATOM      8  C13 UNL     1      -3.100  -1.087   0.085  0.00  0.00    +0.011 C 
ATOM      9  C14 UNL     1      -1.872  -1.026   0.952  0.00  0.00    +0.086 C 
ATOM     10  C15 UNL     1      -1.404  -2.473   1.186  0.00  0.00    +0.046 C 
ENDROOT
BRANCH   9  11
ATOM     11  O4  UNL     1      -2.314  -0.491   2.195  0.00  0.00    -0.384 OA
ATOM     12  H22 UNL     1      -1.719  -0.788   2.903  0.00  0.00    +0.211 HD
ENDBRANCH   9  11
BRANCH   1  13
ATOM     13  C6  UNL     1       0.379   0.147   1.380  0.00  0.00    +0.087 C 
BRANCH  13  14
ATOM     14  C5  UNL     1       1.798   0.338   0.849  0.00  0.00    +0.159 C 
ATOM     15  O2  UNL     1       2.463   1.321   1.185  0.00  0.00    -0.292 OA
BRANCH  14  17
ATOM     16  C1  UNL     1       2.193  -2.146   0.415  0.00  0.00    +0.047 C 
ATOM     17  C2  UNL     1       2.431  -0.724   0.000  0.00  0.00    -0.010 C 
ATOM     18  C3  UNL     1       3.290  -0.434  -0.999  0.00  0.00    +0.007 C 
BRANCH  18  19
ATOM     19  C4  UNL     1       3.771   0.864  -1.581  0.00  0.00    +0.183 C 
BRANCH  19  20
ATOM     20  O1  UNL     1       2.960   1.971  -1.265  0.00  0.00    -0.391 OA
ATOM     21  H7  UNL     1       3.004   2.083  -0.291  0.00  0.00    +0.210 HD
ENDBRANCH  19  20
ENDBRANCH  18  19
ENDBRANCH  14  17
ENDBRANCH  13  14
ENDBRANCH   1  13
TORSDOF 6
