REMARK  Name = /home/vital/Documents/PhD_2021/Malaria_codes/data/pdb_ligands/ligand_447.pdb
REMARK  10 active torsions:
REMARK  status: ('A' for Active; 'I' for Inactive)
REMARK    1  A    between atoms: C1_1  and  C2_2
REMARK    2  A    between atoms: C3_3  and  C4_4
REMARK    3  A    between atoms: C4_4  and  S1_5
REMARK    4  A    between atoms: S1_5  and  C5_8
REMARK    5  A    between atoms: C9_12  and  C10_13
REMARK    6  A    between atoms: C12_18  and  C13_19
REMARK    7  A    between atoms: C16_22  and  O4_23
REMARK    8  A    between atoms: O4_23  and  C17_24
REMARK    9  A    between atoms: C17_24  and  C18_25
REMARK   10  A    between atoms: C21_28  and  C22_29
REMARK                            x       y       z     vdW  Elec       q    Type
REMARK                         _______ _______ _______ _____ _____    ______ ____
ROOT
ATOM      1  C10 UNL     1       1.630  -2.374  -2.190  0.00  0.00    +0.250 C 
ATOM      2  O3  UNL     1       1.303  -3.378  -2.809  0.00  0.00    -0.270 OA
ATOM      3  N1  UNL     1       0.811  -1.533  -1.473  0.00  0.00    -0.261 N 
ATOM      4  C11 UNL     1      -0.534  -1.682  -1.250  0.00  0.00    +0.165 A 
ATOM      5  N2  UNL     1      -1.208  -0.752  -0.618  0.00  0.00    -0.224 NA
ATOM      6  C12 UNL     1      -2.532  -1.142  -0.481  0.00  0.00    +0.083 A 
ATOM      7  C21 UNL     1      -2.847  -2.362  -1.059  0.00  0.00    +0.016 A 
ATOM      8  C22 UNL     1      -4.143  -3.085  -1.170  0.00  0.00    +0.054 C 
ATOM      9  S2  UNL     1      -1.420  -3.050  -1.726  0.00  0.00    -0.057 S 
ATOM     10  H9  UNL     1       1.159  -0.662  -1.102  0.00  0.00    +0.157 HD
ENDROOT
BRANCH   1  15
ATOM     11  C5  UNL     1       5.037  -0.933  -1.291  0.00  0.00    +0.090 A 
ATOM     12  C6  UNL     1       5.788  -1.291  -2.414  0.00  0.00    +0.027 A 
ATOM     13  C7  UNL     1       5.174  -1.986  -3.454  0.00  0.00    +0.003 A 
ATOM     14  C8  UNL     1       3.821  -2.321  -3.366  0.00  0.00    +0.013 A 
ATOM     15  C9  UNL     1       3.067  -1.966  -2.236  0.00  0.00    +0.039 A 
ATOM     16  C23 UNL     1       3.684  -1.279  -1.183  0.00  0.00    +0.040 A 
BRANCH  11  17
ATOM     17  S1  UNL     1       5.843  -0.075   0.053  0.00  0.00    +0.008 S 
ATOM     18  O1  UNL     1       7.185  -0.623   0.135  0.00  0.00    -0.168 OA
ATOM     19  O2  UNL     1       4.934  -0.145   1.184  0.00  0.00    -0.168 OA
BRANCH  17  20
ATOM     20  C4  UNL     1       5.908   1.611  -0.556  0.00  0.00    +0.260 C 
BRANCH  20  23
ATOM     21  C1  UNL     1       7.624   4.017   2.332  0.00  0.00    +0.106 C 
ATOM     22  C2  UNL     1       7.019   3.171   1.301  0.00  0.00    -0.104 C 
ATOM     23  C3  UNL     1       6.521   2.466   0.466  0.00  0.00    -0.079 C 
ENDBRANCH  20  23
ENDBRANCH  17  20
ENDBRANCH  11  17
ENDBRANCH   1  15
BRANCH   6  24
ATOM     24  C13 UNL     1      -3.480  -0.273   0.198  0.00  0.00    +0.001 A 
ATOM     25  C14 UNL     1      -4.316  -0.752   1.213  0.00  0.00    +0.013 A 
ATOM     26  C15 UNL     1      -5.216   0.105   1.861  0.00  0.00    +0.046 A 
ATOM     27  C16 UNL     1      -5.282   1.452   1.507  0.00  0.00    +0.121 A 
ATOM     28  C19 UNL     1      -4.441   1.932   0.500  0.00  0.00    +0.046 A 
ATOM     29  C20 UNL     1      -3.540   1.081  -0.146  0.00  0.00    +0.013 A 
BRANCH  27  30
ATOM     30  O4  UNL     1      -6.114   2.392   2.045  0.00  0.00    -0.492 OA
BRANCH  30  31
ATOM     31  C17 UNL     1      -6.895   2.050   3.189  0.00  0.00    +0.225 C 
ATOM     32  C18 UNL     1      -8.240   1.479   2.773  0.00  0.00    +0.048 C 
ENDBRANCH  30  31
ENDBRANCH  27  30
ENDBRANCH   6  24
TORSDOF 7
