REMARK  Name = ligand_304.pdb
REMARK  10 active torsions:
REMARK  status: ('A' for Active; 'I' for Inactive)
REMARK    1  A    between atoms: C1_1  and  C2_2
REMARK    2  A    between atoms: C2_2  and  O2_4
REMARK    3  A    between atoms: O2_4  and  C3_5
REMARK    4  A    between atoms: C4_6  and  O6_22
REMARK    5  A    between atoms: C8_10  and  C9_11
REMARK    6  A    between atoms: C9_11  and  O3_12
REMARK    7  A    between atoms: O3_12  and  C10_13
REMARK    8  A    between atoms: C10_13  and  C11_15
REMARK    9  A    between atoms: O6_22  and  C17_23
REMARK   10  A    between atoms: C17_23  and  C18_25
REMARK                            x       y       z     vdW  Elec       q    Type
REMARK                         _______ _______ _______ _____ _____    ______ ____
ROOT
ATOM      1  C3  UNL     1      -1.612   0.149   0.608  0.00  0.00    +0.259 C 
ATOM      2  C4  UNL     1      -2.647  -0.993   0.841  0.00  0.00    +0.243 C 
ATOM      3  C5  UNL     1      -2.299  -1.945   1.959  0.00  0.00    +0.019 C 
ATOM      4  C6  UNL     1      -1.039  -2.120   2.382  0.00  0.00    +0.007 C 
ATOM      5  C7  UNL     1       0.110  -1.432   1.792  0.00  0.00    +0.181 C 
ATOM      6  C8  UNL     1      -0.180  -0.196   0.963  0.00  0.00    +0.174 C 
ATOM      7  O5  UNL     1       0.324  -1.404   0.369  0.00  0.00    -0.353 OA
ENDROOT
BRANCH   1   8
ATOM      8  O2  UNL     1      -1.628   0.522  -0.789  0.00  0.00    -0.454 OA
BRANCH   8  10
ATOM      9  C1  UNL     1      -2.260   1.864  -2.599  0.00  0.00    +0.136 C 
ATOM     10  C2  UNL     1      -2.326   1.637  -1.120  0.00  0.00    +0.304 C 
ATOM     11  O1  UNL     1      -2.916   2.365  -0.332  0.00  0.00    -0.251 OA
ENDBRANCH   8  10
ENDBRANCH   1   8
BRANCH   6  12
ATOM     12  C9  UNL     1       0.781   0.962   1.029  0.00  0.00    +0.274 C 
BRANCH  12  13
ATOM     13  O3  UNL     1       2.137   0.538   0.818  0.00  0.00    -0.458 OA
BRANCH  13  14
ATOM     14  C10 UNL     1       2.595   0.674  -0.453  0.00  0.00    +0.339 C 
ATOM     15  O4  UNL     1       1.990   1.179  -1.386  0.00  0.00    -0.245 OA
BRANCH  14  16
ATOM     16  C11 UNL     1       3.974   0.125  -0.571  0.00  0.00    +0.059 A 
ATOM     17  C12 UNL     1       4.615   0.211  -1.814  0.00  0.00    +0.015 A 
ATOM     18  C13 UNL     1       5.909  -0.289  -1.977  0.00  0.00    +0.001 A 
ATOM     19  C14 UNL     1       6.568  -0.879  -0.899  0.00  0.00    +0.000 A 
ATOM     20  C15 UNL     1       5.937  -0.971   0.341  0.00  0.00    +0.001 A 
ATOM     21  C16 UNL     1       4.643  -0.471   0.507  0.00  0.00    +0.015 A 
ENDBRANCH  14  16
ENDBRANCH  13  14
ENDBRANCH  12  13
ENDBRANCH   6  12
BRANCH   2  22
ATOM     22  O6  UNL     1      -3.910  -0.402   1.231  0.00  0.00    -0.453 OA
BRANCH  22  23
ATOM     23  C17 UNL     1      -4.784  -0.126   0.227  0.00  0.00    +0.305 C 
ATOM     24  O7  UNL     1      -4.616  -0.381  -0.957  0.00  0.00    -0.251 OA
ATOM     25  C18 UNL     1      -6.007   0.536   0.784  0.00  0.00    +0.136 C 
ENDBRANCH  22  23
ENDBRANCH   2  22
TORSDOF 8
