REMARK  Name = ligand_435.pdb
REMARK  3 active torsions:
REMARK  status: ('A' for Active; 'I' for Inactive)
REMARK    1  A    between atoms: C4_4  and  C7_7
REMARK    2  A    between atoms: C10_10  and  C13_13
REMARK    3  A    between atoms: C16_16  and  C19_19
REMARK                            x       y       z     vdW  Elec       q    Type
REMARK                         _______ _______ _______ _____ _____    ______ ____
ROOT
ATOM      1  C7  UNL     1      -3.582   0.014   0.019  0.00  0.00    -0.018 A 
ATOM      2  C8  UNL     1      -2.826  -0.868   0.805  0.00  0.00    +0.009 A 
ATOM      3  C9  UNL     1      -1.427  -0.873   0.744  0.00  0.00    +0.009 A 
ATOM      4  C10 UNL     1      -0.735   0.003  -0.105  0.00  0.00    -0.018 A 
ATOM      5  C11 UNL     1      -1.491   0.885  -0.891  0.00  0.00    +0.009 A 
ATOM      6  C12 UNL     1      -2.890   0.890  -0.830  0.00  0.00    +0.009 A 
ENDROOT
BRANCH   1  10
ATOM      7  C1  UNL     1      -7.870   0.031   0.205  0.00  0.00    +0.000 A 
ATOM      8  C2  UNL     1      -7.120   0.166   1.371  0.00  0.00    +0.001 A 
ATOM      9  C3  UNL     1      -5.724   0.160   1.309  0.00  0.00    +0.008 A 
ATOM     10  C4  UNL     1      -5.053   0.020   0.083  0.00  0.00    -0.018 A 
ATOM     11  C5  UNL     1      -5.829  -0.115  -1.081  0.00  0.00    +0.008 A 
ATOM     12  C6  UNL     1      -7.226  -0.110  -1.021  0.00  0.00    +0.001 A 
ENDBRANCH   1  10
BRANCH   4  13
ATOM     13  C13 UNL     1       0.735  -0.003  -0.169  0.00  0.00    -0.018 A 
ATOM     14  C14 UNL     1       1.407  -0.140  -1.393  0.00  0.00    +0.009 A 
ATOM     15  C15 UNL     1       2.806  -0.146  -1.453  0.00  0.00    +0.009 A 
ATOM     16  C16 UNL     1       3.582  -0.014  -0.293  0.00  0.00    -0.018 A 
ATOM     17  C17 UNL     1       2.911   0.124   0.931  0.00  0.00    +0.009 A 
ATOM     18  C18 UNL     1       1.512   0.128   0.992  0.00  0.00    +0.009 A 
BRANCH  16  19
ATOM     19  C19 UNL     1       5.053  -0.020  -0.357  0.00  0.00    -0.018 A 
ATOM     20  C20 UNL     1       5.807   1.022   0.210  0.00  0.00    +0.008 A 
ATOM     21  C21 UNL     1       7.203   1.017   0.150  0.00  0.00    +0.001 A 
ATOM     22  C22 UNL     1       7.870  -0.031  -0.479  0.00  0.00    +0.000 A 
ATOM     23  C23 UNL     1       7.143  -1.073  -1.048  0.00  0.00    +0.001 A 
ATOM     24  C24 UNL     1       5.747  -1.067  -0.987  0.00  0.00    +0.008 A 
ENDBRANCH  16  19
ENDBRANCH   4  13
TORSDOF 3
