REMARK  Name = ligand_589.pdb
REMARK  6 active torsions:
REMARK  status: ('A' for Active; 'I' for Inactive)
REMARK    1  A    between atoms: C1_1  and  C2_2
REMARK    2  A    between atoms: C3_4  and  C4_5
REMARK    3  A    between atoms: C4_5  and  N1_6
REMARK    4  A    between atoms: C7_9  and  C10_12
REMARK    5  A    between atoms: N2_14  and  C11_15
REMARK    6  A    between atoms: C14_18  and  C17_21
REMARK                            x       y       z     vdW  Elec       q    Type
REMARK                         _______ _______ _______ _____ _____    ______ ____
ROOT
ATOM      1  C10 UNL     1      -0.922   1.297   1.519  0.00  0.00    +0.220 C 
ATOM      2  O2  UNL     1      -0.769   2.316   0.853  0.00  0.00    -0.275 OA
ATOM      3  N2  UNL     1       0.063   0.354   1.782  0.00  0.00    -0.285 N 
ATOM      4  H15 UNL     1      -0.172  -0.375   2.441  0.00  0.00    +0.155 HD
ENDROOT
BRANCH   1   8
ATOM      5  N1  UNL     1      -3.724   0.966  -0.126  0.00  0.00    -0.295 NA
ATOM      6  C5  UNL     1      -4.341   1.736   0.943  0.00  0.00    +0.085 C 
ATOM      7  C6  UNL     1      -3.313   2.061   2.037  0.00  0.00    +0.028 C 
ATOM      8  C7  UNL     1      -2.249   0.961   2.225  0.00  0.00    +0.078 C 
ATOM      9  C8  UNL     1      -2.816  -0.388   1.766  0.00  0.00    +0.028 C 
ATOM     10  C9  UNL     1      -3.261  -0.355   0.297  0.00  0.00    +0.085 C 
BRANCH   5  11
ATOM     11  C4  UNL     1      -4.480   0.946  -1.384  0.00  0.00    +0.158 C 
BRANCH  11  15
ATOM     12  C1  UNL     1      -7.577  -2.752  -1.764  0.00  0.00    +0.086 C 
ATOM     13  C2  UNL     1      -7.247  -1.341  -1.485  0.00  0.00    +0.102 A 
ATOM     14  O1  UNL     1      -5.935  -0.995  -1.606  0.00  0.00    -0.464 OA
ATOM     15  C3  UNL     1      -5.839   0.333  -1.305  0.00  0.00    +0.119 A 
ATOM     16  C25 UNL     1      -7.089   0.837  -1.005  0.00  0.00    +0.046 A 
ATOM     17  C26 UNL     1      -7.995  -0.245  -1.115  0.00  0.00    +0.044 A 
ENDBRANCH  11  15
ENDBRANCH   5  11
ENDBRANCH   1   8
BRANCH   3  18
ATOM     18  C11 UNL     1       1.381   0.322   1.280  0.00  0.00    +0.033 A 
ATOM     19  C12 UNL     1       1.892   1.236   0.359  0.00  0.00    +0.024 A 
ATOM     20  C13 UNL     1       3.215   1.129  -0.090  0.00  0.00    +0.012 A 
ATOM     21  C14 UNL     1       4.050   0.103   0.364  0.00  0.00    -0.002 A 
ATOM     22  C15 UNL     1       3.536  -0.813   1.287  0.00  0.00    +0.012 A 
ATOM     23  C16 UNL     1       2.214  -0.705   1.738  0.00  0.00    +0.024 A 
BRANCH  21  24
ATOM     24  C17 UNL     1       5.428   0.004  -0.116  0.00  0.00    +0.047 A 
ATOM     25  C18 UNL     1       6.348   0.991  -0.429  0.00  0.00    +0.036 A 
ATOM     26  C19 UNL     1       7.550   0.371  -0.864  0.00  0.00    +0.000 A 
ATOM     27  C20 UNL     1       8.802   0.851  -1.294  0.00  0.00    +0.010 A 
ATOM     28  C21 UNL     1       9.794  -0.063  -1.667  0.00  0.00    +0.001 A 
ATOM     29  C22 UNL     1       9.552  -1.434  -1.616  0.00  0.00    +0.002 A 
ATOM     30  C23 UNL     1       8.317  -1.933  -1.192  0.00  0.00    +0.026 A 
ATOM     31  C24 UNL     1       7.338  -1.004  -0.821  0.00  0.00    +0.047 A 
ATOM     32  N3  UNL     1       6.051  -1.198  -0.373  0.00  0.00    -0.354 N 
ATOM     33  H25 UNL     1       5.617  -2.103  -0.271  0.00  0.00    +0.166 HD
ENDBRANCH  21  24
ENDBRANCH   3  18
TORSDOF 5
