REMARK  Name = ligand_601.pdb
REMARK  5 active torsions:
REMARK  status: ('A' for Active; 'I' for Inactive)
REMARK    1  A    between atoms: C1_1  and  O1_2
REMARK    2  A    between atoms: O1_2  and  C2_3
REMARK    3  A    between atoms: C5_6  and  C8_9
REMARK    4  A    between atoms: N1_10  and  C9_11
REMARK    5  A    between atoms: N2_18  and  C16_19
REMARK                            x       y       z     vdW  Elec       q    Type
REMARK                         _______ _______ _______ _____ _____    ______ ____
ROOT
ATOM      1  C8  UNL     1      -0.680  -0.108  -1.154  0.00  0.00    +0.192 C 
ATOM      2  N1  UNL     1      -1.088   1.284  -0.841  0.00  0.00    -0.309 N 
ATOM      3  C9  UNL     1      -1.317   2.175  -1.964  0.00  0.00    +0.131 C 
ATOM      4  C10 UNL     1      -2.189   1.115   0.027  0.00  0.00    +0.052 A 
ATOM      5  C11 UNL     1      -2.947   2.107   0.628  0.00  0.00    +0.025 A 
ATOM      6  C12 UNL     1      -3.957   1.731   1.516  0.00  0.00    +0.002 A 
ATOM      7  C13 UNL     1      -4.192   0.377   1.792  0.00  0.00    +0.002 A 
ATOM      8  C14 UNL     1      -3.421  -0.616   1.180  0.00  0.00    +0.025 A 
ATOM      9  C15 UNL     1      -2.423  -0.237   0.298  0.00  0.00    +0.052 A 
ATOM     10  N2  UNL     1      -1.580  -1.052  -0.463  0.00  0.00    -0.309 N 
ATOM     11  C16 UNL     1      -1.118  -2.306   0.086  0.00  0.00    +0.131 C 
ENDROOT
BRANCH   1  15
ATOM     12  C2  UNL     1       3.520  -0.694  -0.174  0.00  0.00    +0.120 A 
ATOM     13  C3  UNL     1       3.000  -1.144  -1.390  0.00  0.00    +0.046 A 
ATOM     14  C4  UNL     1       1.653  -0.950  -1.707  0.00  0.00    +0.010 A 
ATOM     15  C5  UNL     1       0.795  -0.297  -0.809  0.00  0.00    -0.009 A 
ATOM     16  C6  UNL     1       1.327   0.147   0.413  0.00  0.00    +0.010 A 
ATOM     17  C7  UNL     1       2.677  -0.047   0.728  0.00  0.00    +0.046 A 
BRANCH  12  19
ATOM     18  C1  UNL     1       5.431  -0.489   1.222  0.00  0.00    +0.277 C 
ATOM     19  O1  UNL     1       4.851  -0.949   0.008  0.00  0.00    -0.495 OA
ENDBRANCH  12  19
ENDBRANCH   1  15
TORSDOF 2
