REMARK  Name = ligand_845.pdb
REMARK  8 active torsions:
REMARK  status: ('A' for Active; 'I' for Inactive)
REMARK    1  A    between atoms: N1_1  and  C1_2
REMARK    2  A    between atoms: C4_5  and  C7_8
REMARK    3  A    between atoms: C10_12  and  O1_13
REMARK    4  A    between atoms: O1_13  and  C11_14
REMARK    5  A    between atoms: C14_17  and  O2_18
REMARK    6  A    between atoms: O2_18  and  C15_19
REMARK    7  A    between atoms: C19_24  and  C22_28
REMARK    8  A    between atoms: C25_31  and  N5_32
REMARK                            x       y       z     vdW  Elec       q    Type
REMARK                         _______ _______ _______ _____ _____    ______ ____
ROOT
ATOM      1  C11 UNL     1       0.965   0.021   0.068  0.00  0.00    +0.129 A 
ATOM      2  C12 UNL     1       1.020  -0.934   1.085  0.00  0.00    +0.050 A 
ATOM      3  C13 UNL     1      -0.123  -1.672   1.405  0.00  0.00    +0.050 A 
ATOM      4  C14 UNL     1      -1.322  -1.424   0.736  0.00  0.00    +0.129 A 
ATOM      5  C28 UNL     1      -1.375  -0.473  -0.287  0.00  0.00    +0.050 A 
ATOM      6  C29 UNL     1      -0.232   0.259  -0.610  0.00  0.00    +0.050 A 
ENDROOT
BRANCH   1   7
ATOM      7  O1  UNL     1       2.022   0.835  -0.261  0.00  0.00    -0.456 OA
BRANCH   7  12
ATOM      8  C7  UNL     1       7.788   0.359  -0.340  0.00  0.00    +0.139 A 
ATOM      9  N2  UNL     1       6.853   1.214   0.037  0.00  0.00    -0.228 NA
ATOM     10  C8  UNL     1       5.649   0.617  -0.242  0.00  0.00    +0.093 A 
ATOM     11  C9  UNL     1       4.346   1.089  -0.042  0.00  0.00    +0.076 A 
ATOM     12  C10 UNL     1       3.271   0.278  -0.428  0.00  0.00    +0.131 A 
ATOM     13  C30 UNL     1       3.491  -0.968  -1.027  0.00  0.00    +0.048 A 
ATOM     14  C31 UNL     1       4.788  -1.459  -1.223  0.00  0.00    +0.031 A 
ATOM     15  C32 UNL     1       5.839  -0.632  -0.816  0.00  0.00    +0.067 A 
ATOM     16  N6  UNL     1       7.203  -0.772  -0.867  0.00  0.00    -0.338 N 
ATOM     17  H24 UNL     1       7.697  -1.559  -1.255  0.00  0.00    +0.167 HD
BRANCH   8  21
ATOM     18  C1  UNL     1      12.014   1.100  -0.135  0.00  0.00    +0.025 A 
ATOM     19  C2  UNL     1      11.091   2.142  -0.033  0.00  0.00    +0.023 A 
ATOM     20  C3  UNL     1       9.718   1.888  -0.110  0.00  0.00    +0.013 A 
ATOM     21  C4  UNL     1       9.234   0.581  -0.256  0.00  0.00    +0.017 A 
ATOM     22  C5  UNL     1      10.160  -0.470  -0.289  0.00  0.00    +0.013 A 
ATOM     23  C6  UNL     1      11.534  -0.210  -0.207  0.00  0.00    +0.023 A 
BRANCH  18  24
ATOM     24  N1  UNL     1      13.378   1.343   0.061  0.00  0.00    -0.358 N 
ATOM     25  H1  UNL     1      13.665   2.283  -0.197  0.00  0.00    +0.142 HD
ATOM     26  H2  UNL     1      13.983   0.636  -0.343  0.00  0.00    +0.142 HD
ENDBRANCH  18  24
ENDBRANCH   8  21
ENDBRANCH   7  12
ENDBRANCH   1   7
BRANCH   4  27
ATOM     27  O2  UNL     1      -2.417  -2.176   1.107  0.00  0.00    -0.456 OA
BRANCH  27  28
ATOM     28  C15 UNL     1      -3.590  -1.474   1.285  0.00  0.00    +0.131 A 
ATOM     29  C16 UNL     1      -3.696  -0.508   2.294  0.00  0.00    +0.048 A 
ATOM     30  C17 UNL     1      -4.878   0.219   2.470  0.00  0.00    +0.031 A 
ATOM     31  C18 UNL     1      -5.926  -0.076   1.598  0.00  0.00    +0.067 A 
ATOM     32  N3  UNL     1      -7.186   0.447   1.460  0.00  0.00    -0.338 N 
ATOM     33  C19 UNL     1      -7.811  -0.167   0.398  0.00  0.00    +0.139 A 
ATOM     34  N4  UNL     1      -7.019  -1.096  -0.111  0.00  0.00    -0.228 NA
ATOM     35  C20 UNL     1      -5.850  -1.044   0.606  0.00  0.00    +0.093 A 
ATOM     36  C21 UNL     1      -4.669  -1.783   0.450  0.00  0.00    +0.076 A 
ATOM     37  H12 UNL     1      -7.558   1.220   1.988  0.00  0.00    +0.167 HD
BRANCH  33  38
ATOM     38  C22 UNL     1      -9.131   0.216  -0.116  0.00  0.00    +0.017 A 
ATOM     39  C23 UNL     1     -10.027   1.012   0.610  0.00  0.00    +0.013 A 
ATOM     40  C24 UNL     1     -11.256   1.393   0.056  0.00  0.00    +0.023 A 
ATOM     41  C25 UNL     1     -11.636   0.957  -1.215  0.00  0.00    +0.025 A 
ATOM     42  C26 UNL     1     -10.730   0.198  -1.955  0.00  0.00    +0.023 A 
ATOM     43  C27 UNL     1      -9.503  -0.188  -1.404  0.00  0.00    +0.013 A 
BRANCH  41  44
ATOM     44  N5  UNL     1     -12.794   1.456  -1.816  0.00  0.00    -0.358 N 
ATOM     45  H16 UNL     1     -13.527   1.713  -1.163  0.00  0.00    +0.142 HD
ATOM     46  H17 UNL     1     -13.139   0.887  -2.582  0.00  0.00    +0.142 HD
ENDBRANCH  41  44
ENDBRANCH  33  38
ENDBRANCH  27  28
ENDBRANCH   4  27
TORSDOF 8
