REMARK  Name = ligand_92.pdb
REMARK  6 active torsions:
REMARK  status: ('A' for Active; 'I' for Inactive)
REMARK    1  A    between atoms: C1_1  and  O1_2
REMARK    2  A    between atoms: O1_2  and  C2_3
REMARK    3  A    between atoms: C2_3  and  C3_5
REMARK    4  A    between atoms: C3_5  and  C4_6
REMARK    5  A    between atoms: C8_10  and  C9_11
REMARK    6  A    between atoms: C16_19  and  C17_20
REMARK                            x       y       z     vdW  Elec       q    Type
REMARK                         _______ _______ _______ _____ _____    ______ ____
ROOT
ATOM      1  C3  UNL     1       2.531  -0.817   0.187  0.00  0.00    +0.068 C 
ATOM      2  C4  UNL     1       2.557  -2.359   0.386  0.00  0.00    +0.023 C 
ATOM      3  C5  UNL     1       3.118  -0.195   1.476  0.00  0.00    +0.018 C 
ATOM      4  C6  UNL     1       2.195  -0.210   2.689  0.00  0.00    +0.002 C 
ATOM      5  C7  UNL     1       0.701  -0.177   2.372  0.00  0.00    +0.007 C 
ATOM      6  C8  UNL     1       0.329   0.446   1.006  0.00  0.00    -0.025 C 
ATOM      7  C9  UNL     1       0.764   1.939   1.008  0.00  0.00    +0.012 C 
ATOM      8  C10 UNL     1      -1.242   0.439   0.740  0.00  0.00    +0.006 C 
ATOM      9  C11 UNL     1      -2.084  -0.456   1.699  0.00  0.00    +0.079 C 
ATOM     10  C12 UNL     1      -3.502  -0.388   1.277  0.00  0.00    +0.109 A 
ATOM     11  O3  UNL     1      -4.482  -0.755   2.134  0.00  0.00    -0.468 OA
ATOM     12  C13 UNL     1      -5.652  -0.565   1.466  0.00  0.00    +0.195 A 
ATOM     13  C14 UNL     1      -5.417  -0.082   0.196  0.00  0.00    +0.045 A 
ATOM     14  C15 UNL     1      -4.010   0.022   0.065  0.00  0.00    -0.003 A 
ATOM     15  C16 UNL     1      -3.128   0.493  -1.057  0.00  0.00    +0.023 C 
ATOM     16  C17 UNL     1      -3.605  -0.049  -2.408  0.00  0.00    +0.013 C 
ATOM     17  C18 UNL     1      -1.635   0.089  -0.753  0.00  0.00    +0.000 C 
ATOM     18  C19 UNL     1      -0.644   0.708  -1.741  0.00  0.00    +0.005 C 
ATOM     19  C20 UNL     1       0.802   0.252  -1.501  0.00  0.00    +0.005 C 
ATOM     20  C21 UNL     1       1.041  -0.380  -0.112  0.00  0.00    +0.012 C 
ENDROOT
BRANCH   1  21
ATOM     21  C2  UNL     1       3.475  -0.523  -0.997  0.00  0.00    +0.313 C 
ATOM     22  O2  UNL     1       3.772  -1.335  -1.865  0.00  0.00    -0.250 OA
BRANCH  21  24
ATOM     23  C1  UNL     1       4.755   1.113  -2.085  0.00  0.00    +0.280 C 
ATOM     24  O1  UNL     1       3.901   0.772  -0.992  0.00  0.00    -0.468 OA
ENDBRANCH  21  24
ENDBRANCH   1  21
TORSDOF 2
