REMARK  Name = ligand_315.pdb
REMARK  3 active torsions:
REMARK  status: ('A' for Active; 'I' for Inactive)
REMARK    1  A    between atoms: C1_1  and  C2_2
REMARK    2  A    between atoms: C4_4  and  O1_5
REMARK    3  A    between atoms: C12_15  and  O4_16
REMARK                            x       y       z     vdW  Elec       q    Type
REMARK                         _______ _______ _______ _____ _____    ______ ____
ROOT
ATOM      1  C1  UNL     1       4.601  -0.712   0.593  0.00  0.00    +0.044 C 
ATOM      2  C2  UNL     1       3.215  -0.217   0.301  0.00  0.00    -0.046 A 
ATOM      3  C3  UNL     1       3.004   1.110  -0.093  0.00  0.00    +0.049 A 
ATOM      4  C4  UNL     1       1.713   1.577  -0.333  0.00  0.00    +0.129 A 
ATOM      5  C5  UNL     1       0.608   0.732  -0.175  0.00  0.00    +0.075 A 
ATOM      6  C6  UNL     1       0.810  -0.586   0.231  0.00  0.00    +0.037 A 
ATOM      7  C7  UNL     1       2.109  -1.058   0.474  0.00  0.00    +0.016 A 
ATOM      8  C8  UNL     1      -0.337  -1.498   0.414  0.00  0.00    +0.195 C 
ATOM      9  O2  UNL     1      -0.157  -2.655   0.774  0.00  0.00    -0.287 OA
ATOM     10  C9  UNL     1      -1.704  -1.001   0.158  0.00  0.00    +0.037 A 
ATOM     11  C10 UNL     1      -1.913   0.316  -0.250  0.00  0.00    +0.075 A 
ATOM     12  C11 UNL     1      -0.761   1.219  -0.427  0.00  0.00    +0.202 C 
ATOM     13  O3  UNL     1      -0.943   2.382  -0.785  0.00  0.00    -0.286 OA
ATOM     14  C12 UNL     1      -3.220   0.761  -0.486  0.00  0.00    +0.128 A 
ATOM     15  C13 UNL     1      -4.304  -0.098  -0.317  0.00  0.00    +0.046 A 
ATOM     16  C14 UNL     1      -4.091  -1.414   0.091  0.00  0.00    +0.004 A 
ATOM     17  C15 UNL     1      -2.793  -1.867   0.329  0.00  0.00    +0.012 A 
ENDROOT
BRANCH   4  18
ATOM     18  O1  UNL     1       1.607   2.885  -0.721  0.00  0.00    -0.506 OA
ATOM     19  H5  UNL     1       0.656   3.092  -0.860  0.00  0.00    +0.292 HD
ENDBRANCH   4  18
BRANCH  14  20
ATOM     20  O4  UNL     1      -3.517   2.036  -0.888  0.00  0.00    -0.506 OA
ATOM     21  H7  UNL     1      -2.677   2.539  -0.971  0.00  0.00    +0.292 HD
ENDBRANCH  14  20
TORSDOF 2
