REMARK  Name = ligand_794.pdb
REMARK  7 active torsions:
REMARK  status: ('A' for Active; 'I' for Inactive)
REMARK    1  A    between atoms: C1_1  and  O1_2
REMARK    2  A    between atoms: O1_2  and  C2_3
REMARK    3  A    between atoms: C7_8  and  C8_9
REMARK    4  A    between atoms: C8_9  and  O3_11
REMARK    5  A    between atoms: O3_11  and  N1_12
REMARK    6  A    between atoms: C9_13  and  C10_15
REMARK    7  A    between atoms: C10_15  and  C11_16
REMARK                            x       y       z     vdW  Elec       q    Type
REMARK                         _______ _______ _______ _____ _____    ______ ____
ROOT
ATOM      1  N1  UNL     1       0.528  -1.445  -1.402  0.00  0.00    -0.063 NA
ATOM      2  C9  UNL     1      -0.655  -1.613  -0.878  0.00  0.00    +0.137 C 
ATOM      3  N2  UNL     1      -1.561  -2.362  -1.590  0.00  0.00    -0.344 N 
ATOM      4  H8  UNL     1      -2.528  -2.061  -1.515  0.00  0.00    +0.144 HD
ATOM      5  H9  UNL     1      -1.267  -2.477  -2.555  0.00  0.00    +0.144 HD
ENDROOT
BRANCH   1   6
ATOM      6  O3  UNL     1       1.370  -0.667  -0.592  0.00  0.00    -0.310 OA
BRANCH   6   7
ATOM      7  C8  UNL     1       2.596  -0.532  -1.181  0.00  0.00    +0.370 C 
ATOM      8  O2  UNL     1       2.984  -0.977  -2.250  0.00  0.00    -0.242 OA
BRANCH   7  14
ATOM      9  C2  UNL     1       4.726  -0.108   0.055  0.00  0.00    +0.134 A 
ATOM     10  C3  UNL     1       5.503   0.677   0.911  0.00  0.00    +0.046 A 
ATOM     11  C4  UNL     1       5.000   1.884   1.402  0.00  0.00    +0.004 A 
ATOM     12  C5  UNL     1       3.716   2.301   1.053  0.00  0.00    +0.001 A 
ATOM     13  C6  UNL     1       2.928   1.509   0.214  0.00  0.00    +0.019 A 
ATOM     14  C7  UNL     1       3.428   0.292  -0.280  0.00  0.00    +0.103 A 
BRANCH   9  16
ATOM     15  C1  UNL     1       6.098  -1.135  -1.479  0.00  0.00    +0.277 C 
ATOM     16  O1  UNL     1       5.225  -1.315  -0.361  0.00  0.00    -0.494 OA
ENDBRANCH   9  16
ENDBRANCH   7  14
ENDBRANCH   6   7
ENDBRANCH   1   6
BRANCH   2  17
ATOM     17  C10 UNL     1      -1.111  -1.020   0.458  0.00  0.00    +0.110 C 
BRANCH  17  18
ATOM     18  C11 UNL     1      -2.180   0.042   0.261  0.00  0.00    -0.033 A 
ATOM     19  C12 UNL     1      -1.741   1.320  -0.135  0.00  0.00    +0.004 A 
ATOM     20  C13 UNL     1      -2.647   2.344  -0.380  0.00  0.00    +0.001 A 
ATOM     21  C14 UNL     1      -4.010   2.108  -0.237  0.00  0.00    +0.008 A 
ATOM     22  C15 UNL     1      -4.487   0.847   0.151  0.00  0.00    -0.018 A 
ATOM     23  C16 UNL     1      -5.870   0.636   0.276  0.00  0.00    +0.008 A 
ATOM     24  C17 UNL     1      -6.377  -0.606   0.652  0.00  0.00    +0.001 A 
ATOM     25  C18 UNL     1      -5.505  -1.654   0.910  0.00  0.00    +0.001 A 
ATOM     26  C19 UNL     1      -4.126  -1.461   0.789  0.00  0.00    +0.009 A 
ATOM     27  C20 UNL     1      -3.575  -0.213   0.408  0.00  0.00    -0.014 A 
ENDBRANCH  17  18
ENDBRANCH   2  17
TORSDOF 6
