REMARK  Name = ligand_74.pdb
REMARK  12 active torsions:
REMARK  status: ('A' for Active; 'I' for Inactive)
REMARK    1  A    between atoms: C1_1  and  O1_2
REMARK    2  A    between atoms: O1_2  and  C2_3
REMARK    3  A    between atoms: C4_5  and  O2_6
REMARK    4  A    between atoms: O2_6  and  C5_7
REMARK    5  A    between atoms: C8_10  and  C9_11
REMARK    6  A    between atoms: C12_14  and  O3_15
REMARK    7  A    between atoms: O3_15  and  C13_16
REMARK    8  A    between atoms: C15_18  and  O4_19
REMARK    9  A    between atoms: O4_19  and  C16_20
REMARK   10  A    between atoms: C22_26  and  C23_27
REMARK   11  A    between atoms: N1_28  and  C24_29
REMARK   12  A    between atoms: C25_30  and  C26_31
REMARK                            x       y       z     vdW  Elec       q    Type
REMARK                         _______ _______ _______ _____ _____    ______ ____
ROOT
ATOM      1  C2  UNL     1      -0.426   1.287  -1.889  0.00  0.00    +0.132 A 
ATOM      2  C3  UNL     1      -1.698   1.823  -2.113  0.00  0.00    +0.092 A 
ATOM      3  C4  UNL     1      -2.812   1.343  -1.415  0.00  0.00    +0.129 A 
ATOM      4  C6  UNL     1      -2.666   0.301  -0.474  0.00  0.00    +0.015 A 
ATOM      5  C7  UNL     1      -1.373  -0.186  -0.190  0.00  0.00    -0.027 A 
ATOM      6  C8  UNL     1      -0.245   0.278  -0.916  0.00  0.00    +0.028 A 
ATOM      7  C21 UNL     1      -1.233  -1.218   0.905  0.00  0.00    +0.055 C 
ATOM      8  C22 UNL     1      -2.326  -1.039   1.974  0.00  0.00    +0.058 C 
ATOM      9  C23 UNL     1      -2.049  -2.039   3.108  0.00  0.00    +0.024 C 
ATOM     10  N1  UNL     1      -3.645  -1.236   1.347  0.00  0.00    -0.296 NA
ATOM     11  C24 UNL     1      -4.742  -1.160   2.318  0.00  0.00    +0.105 C 
ATOM     12  C25 UNL     1      -3.899  -0.302   0.212  0.00  0.00    +0.088 C 
ATOM     13  C26 UNL     1      -4.713  -1.099  -0.828  0.00  0.00    +0.029 C 
ENDROOT
BRANCH   6  14
ATOM     14  C9  UNL     1       1.104  -0.296  -0.674  0.00  0.00    -0.006 A 
ATOM     15  C10 UNL     1       1.395  -1.537  -1.271  0.00  0.00    +0.013 A 
ATOM     16  C11 UNL     1       2.619  -2.153  -1.064  0.00  0.00    +0.047 A 
ATOM     17  C12 UNL     1       3.587  -1.520  -0.281  0.00  0.00    +0.131 A 
ATOM     18  C14 UNL     1       3.357  -0.262   0.343  0.00  0.00    +0.066 A 
ATOM     19  C15 UNL     1       4.310   0.423   1.153  0.00  0.00    +0.131 A 
ATOM     20  C17 UNL     1       4.028   1.665   1.736  0.00  0.00    +0.046 A 
ATOM     21  C18 UNL     1       2.781   2.242   1.561  0.00  0.00    +0.004 A 
ATOM     22  C19 UNL     1       1.828   1.591   0.779  0.00  0.00    +0.009 A 
ATOM     23  C20 UNL     1       2.084   0.349   0.144  0.00  0.00    -0.003 A 
BRANCH  17  24
ATOM     24  O3  UNL     1       4.757  -2.205  -0.052  0.00  0.00    -0.494 OA
ATOM     25  C13 UNL     1       5.572  -2.229  -1.240  0.00  0.00    +0.277 C 
ENDBRANCH  17  24
BRANCH  19  26
ATOM     26  O4  UNL     1       5.574  -0.104   1.295  0.00  0.00    -0.494 OA
ATOM     27  C16 UNL     1       5.941  -0.307   2.655  0.00  0.00    +0.277 C 
ENDBRANCH  19  26
ENDBRANCH   6  14
BRANCH   1  29
ATOM     28  C1  UNL     1       0.586   2.706  -3.540  0.00  0.00    +0.277 C 
ATOM     29  O1  UNL     1       0.706   1.685  -2.559  0.00  0.00    -0.494 OA
ENDBRANCH   1  29
BRANCH   3  30
ATOM     30  O2  UNL     1      -4.085   1.830  -1.573  0.00  0.00    -0.495 OA
ATOM     31  C5  UNL     1      -4.284   2.904  -2.490  0.00  0.00    +0.277 C 
ENDBRANCH   3  30
TORSDOF 5
