REMARK  Name = ligand_741.pdb
REMARK  5 active torsions:
REMARK  status: ('A' for Active; 'I' for Inactive)
REMARK    1  A    between atoms: C1_1  and  C2_2
REMARK    2  A    between atoms: C2_2  and  C3_3
REMARK    3  A    between atoms: C3_3  and  C4_4
REMARK    4  A    between atoms: C5_5  and  C6_6
REMARK    5  A    between atoms: C13_15  and  O1_16
REMARK                            x       y       z     vdW  Elec       q    Type
REMARK                         _______ _______ _______ _____ _____    ______ ____
ROOT
ATOM      1  C4  UNL     1       0.602  -0.603  -0.486  0.00  0.00    +0.016 A 
ATOM      2  C5  UNL     1       0.079  -1.556   0.391  0.00  0.00    +0.046 A 
ATOM      3  C6  UNL     1       0.834  -2.796   0.776  0.00  0.00    +0.066 C 
ATOM      4  N1  UNL     1      -1.154  -1.444   0.949  0.00  0.00    -0.251 NA
ATOM      5  C7  UNL     1      -1.927  -0.394   0.641  0.00  0.00    +0.075 A 
ATOM      6  C8  UNL     1      -3.190  -0.319   1.215  0.00  0.00    +0.029 A 
ATOM      7  C9  UNL     1      -4.069   0.729   0.935  0.00  0.00    +0.017 A 
ATOM      8  C10 UNL     1      -3.678   1.723   0.051  0.00  0.00    +0.019 A 
ATOM      9 BR1  UNL     1      -4.859   3.139  -0.359  0.00  0.00    -0.050 Br
ATOM     10  C11 UNL     1      -2.417   1.677  -0.540  0.00  0.00    +0.029 A 
ATOM     11  C12 UNL     1      -1.517   0.622  -0.241  0.00  0.00    +0.043 A 
ATOM     12  C13 UNL     1      -0.219   0.494  -0.780  0.00  0.00    +0.131 A 
ENDROOT
BRANCH  12  13
ATOM     13  O1  UNL     1       0.296   1.453  -1.619  0.00  0.00    -0.506 OA
ATOM     14  H14 UNL     1      -0.080   2.313  -1.377  0.00  0.00    +0.292 HD
ENDBRANCH  12  13
BRANCH   1  15
ATOM     15  C3  UNL     1       1.986  -0.725  -1.080  0.00  0.00    +0.040 C 
BRANCH  15  17
ATOM     16  C1  UNL     1       3.115   1.298   0.006  0.00  0.00    +0.004 C 
ATOM     17  C2  UNL     1       3.110  -0.213  -0.172  0.00  0.00    +0.001 C 
ENDBRANCH  15  17
ENDBRANCH   1  15
TORSDOF 3
