REMARK  Name = ligand_29.pdb
REMARK  12 active torsions:
REMARK  status: ('A' for Active; 'I' for Inactive)
REMARK    1  A    between atoms: C1_1  and  C2_2
REMARK    2  A    between atoms: C2_2  and  C3_3
REMARK    3  A    between atoms: C3_3  and  C4_4
REMARK    4  A    between atoms: C3_3  and  C27_28
REMARK    5  A    between atoms: C4_4  and  C5_5
REMARK    6  A    between atoms: C5_5  and  C6_6
REMARK    7  A    between atoms: C6_6  and  C7_7
REMARK    8  A    between atoms: C6_6  and  C8_8
REMARK    9  A    between atoms: C20_21  and  C21_22
REMARK   10  A    between atoms: C25_26  and  C26_27
REMARK   11  A    between atoms: C27_28  and  C28_29
REMARK   12  A    between atoms: C27_28  and  C29_30
REMARK                            x       y       z     vdW  Elec       q    Type
REMARK                         _______ _______ _______ _____ _____    ______ ____
ROOT
ATOM      1  C8  UNL     1       0.627  -0.347   0.398  0.00  0.00    -0.002 C 
ATOM      2  C9  UNL     1       0.575  -1.449  -0.673  0.00  0.00    +0.004 C 
ATOM      3  C10 UNL     1      -0.908  -1.630  -0.923  0.00  0.00    +0.004 C 
ATOM      4  C11 UNL     1      -1.511  -1.632   0.482  0.00  0.00    -0.001 C 
ATOM      5  C12 UNL     1      -3.000  -1.246   0.560  0.00  0.00    -0.003 C 
ATOM      6  C13 UNL     1      -3.886  -2.182  -0.271  0.00  0.00    +0.008 C 
ATOM      7  C14 UNL     1      -5.362  -1.851  -0.073  0.00  0.00    +0.032 C 
ATOM      8  C15 UNL     1      -5.664  -0.398  -0.364  0.00  0.00    -0.060 C 
ATOM      9  C16 UNL     1      -6.686  -0.086  -1.181  0.00  0.00    +0.046 C 
ATOM     10  C17 UNL     1      -7.093   1.317  -1.423  0.00  0.00    +0.156 C 
ATOM     11  O1  UNL     1      -8.002   1.555  -2.214  0.00  0.00    -0.293 OA
ATOM     12  C18 UNL     1      -6.420   2.397  -0.619  0.00  0.00    +0.080 C 
ATOM     13  C19 UNL     1      -4.962   2.037  -0.366  0.00  0.00    +0.019 C 
ATOM     14  C20 UNL     1      -4.767   0.649   0.316  0.00  0.00    -0.007 C 
ATOM     15  C21 UNL     1      -5.177   0.749   1.803  0.00  0.00    +0.016 C 
ATOM     16  C22 UNL     1      -3.257   0.225   0.150  0.00  0.00    +0.002 C 
ATOM     17  C23 UNL     1      -2.236   1.187   0.798  0.00  0.00    +0.005 C 
ATOM     18  C24 UNL     1      -1.342   0.533   1.852  0.00  0.00    +0.007 C 
ATOM     19  C25 UNL     1      -0.577  -0.717   1.350  0.00  0.00    -0.026 C 
ATOM     20  C26 UNL     1      -0.132  -1.539   2.580  0.00  0.00    +0.012 C 
ENDROOT
BRANCH   1  21
ATOM     21  C6  UNL     1       2.051  -0.167   1.020  0.00  0.00    -0.010 C 
ATOM     22  C7  UNL     1       2.100   1.040   1.968  0.00  0.00    +0.008 C 
BRANCH  21  23
ATOM     23  C5  UNL     1       3.135  -0.018  -0.087  0.00  0.00    +0.004 C 
BRANCH  23  24
ATOM     24  C4  UNL     1       4.577   0.048   0.447  0.00  0.00    +0.004 C 
BRANCH  24  25
ATOM     25  C3  UNL     1       5.724   0.080  -0.602  0.00  0.00    -0.009 C 
BRANCH  25  26
ATOM     26  C27 UNL     1       6.073   1.531  -1.065  0.00  0.00    -0.014 C 
ATOM     27  C28 UNL     1       5.006   2.217  -1.917  0.00  0.00    +0.007 C 
ATOM     28  C29 UNL     1       7.419   1.582  -1.804  0.00  0.00    +0.007 C 
ENDBRANCH  25  26
BRANCH  25  30
ATOM     29  C1  UNL     1       5.497  -2.375  -1.305  0.00  0.00    +0.004 C 
ATOM     30  C2  UNL     1       5.551  -0.921  -1.765  0.00  0.00    +0.000 C 
ENDBRANCH  25  30
ENDBRANCH  24  25
ENDBRANCH  23  24
ENDBRANCH  21  23
ENDBRANCH   1  21
TORSDOF 6
