REMARK  Name = ligand_594.pdb
REMARK  8 active torsions:
REMARK  status: ('A' for Active; 'I' for Inactive)
REMARK    1  A    between atoms: C1_1  and  O1_2
REMARK    2  A    between atoms: O1_2  and  C2_3
REMARK    3  A    between atoms: C5_6  and  N1_9
REMARK    4  A    between atoms: N2_12  and  C12_15
REMARK    5  A    between atoms: C12_15  and  C13_16
REMARK    6  A    between atoms: C12_15  and  C21_26
REMARK    7  A    between atoms: C13_16  and  N3_17
REMARK    8  A    between atoms: C14_18  and  C15_20
REMARK                            x       y       z     vdW  Elec       q    Type
REMARK                         _______ _______ _______ _____ _____    ______ ____
ROOT
ATOM      1  C12 UNL     1      -0.308   0.282   0.155  0.00  0.00    +0.104 C 
ENDROOT
BRANCH   1   2
ATOM      2  C21 UNL     1      -0.919   1.423   0.978  0.00  0.00    -0.025 A 
ATOM      3  C22 UNL     1      -1.266   1.209   2.336  0.00  0.00    +0.009 A 
ATOM      4  C23 UNL     1      -1.845   2.225   3.102  0.00  0.00    +0.050 A 
ATOM      5  C24 UNL     1      -2.068   3.440   2.492  0.00  0.00    +0.166 A 
ATOM      6  O3  UNL     1      -2.624   4.533   3.080  0.00  0.00    -0.453 OA
ATOM      7  C25 UNL     1      -2.602   5.470   1.982  0.00  0.00    +0.466 C 
ATOM      8  O4  UNL     1      -2.032   4.927   0.774  0.00  0.00    -0.453 OA
ATOM      9  C26 UNL     1      -1.733   3.663   1.178  0.00  0.00    +0.167 A 
ATOM     10  C27 UNL     1      -1.161   2.682   0.397  0.00  0.00    +0.054 A 
ENDBRANCH   1   2
BRANCH   1  14
ATOM     11  N1  UNL     1       3.756  -0.523  -0.357  0.00  0.00    -0.327 N 
ATOM     12  C8  UNL     1       3.051  -0.252  -1.618  0.00  0.00    +0.120 C 
ATOM     13  C9  UNL     1       1.522  -0.321  -1.395  0.00  0.00    +0.104 C 
ATOM     14  N2  UNL     1       0.996   0.676  -0.436  0.00  0.00    -0.291 NA
ATOM     15  C10 UNL     1       2.027   1.026   0.570  0.00  0.00    +0.104 C 
ATOM     16  C11 UNL     1       3.087  -0.061   0.871  0.00  0.00    +0.120 C 
BRANCH  11  20
ATOM     17  C2  UNL     1       7.833  -1.690  -0.266  0.00  0.00    +0.120 A 
ATOM     18  C3  UNL     1       7.029  -1.812   0.863  0.00  0.00    +0.047 A 
ATOM     19  C4  UNL     1       5.682  -1.424   0.827  0.00  0.00    +0.027 A 
ATOM     20  C5  UNL     1       5.090  -0.899  -0.332  0.00  0.00    +0.030 A 
ATOM     21  C6  UNL     1       5.921  -0.800  -1.459  0.00  0.00    +0.027 A 
ATOM     22  C7  UNL     1       7.272  -1.183  -1.432  0.00  0.00    +0.047 A 
BRANCH  17  24
ATOM     23  C1  UNL     1       9.985  -1.976  -1.228  0.00  0.00    +0.277 C 
ATOM     24  O1  UNL     1       9.126  -2.100  -0.102  0.00  0.00    -0.495 OA
ENDBRANCH  17  24
ENDBRANCH  11  20
ENDBRANCH   1  14
BRANCH   1  25
ATOM     25  C13 UNL     1      -1.362  -0.186  -0.904  0.00  0.00    +0.127 C 
BRANCH  25  26
ATOM     26  N3  UNL     1      -2.654  -0.539  -0.327  0.00  0.00    -0.313 N 
ATOM     27  C14 UNL     1      -3.845  -0.157  -0.909  0.00  0.00    +0.216 C 
ATOM     28  O2  UNL     1      -3.900   0.467  -1.963  0.00  0.00    -0.276 OA
ATOM     29  H19 UNL     1      -2.673  -1.068   0.533  0.00  0.00    +0.149 HD
BRANCH  27  30
ATOM     30  C15 UNL     1      -5.081  -0.570  -0.105  0.00  0.00    +0.075 C 
ATOM     31  C16 UNL     1      -5.240  -2.096  -0.043  0.00  0.00    +0.013 C 
ATOM     32  C17 UNL     1      -5.753  -2.687  -1.354  0.00  0.00    +0.001 C 
ATOM     33  C18 UNL     1      -7.057  -2.030  -1.789  0.00  0.00    +0.000 C 
ATOM     34  C19 UNL     1      -6.910  -0.517  -1.904  0.00  0.00    +0.001 C 
ATOM     35  C20 UNL     1      -6.363   0.104  -0.618  0.00  0.00    +0.013 C 
ENDBRANCH  27  30
ENDBRANCH  25  26
ENDBRANCH   1  25
TORSDOF 7
