REMARK  Name = ligand_684.pdb
REMARK  9 active torsions:
REMARK  status: ('A' for Active; 'I' for Inactive)
REMARK    1  A    between atoms: C1_1  and  N1_2
REMARK    2  A    between atoms: N1_2  and  C2_3
REMARK    3  A    between atoms: N1_2  and  C3_4
REMARK    4  A    between atoms: C3_4  and  C4_5
REMARK    5  A    between atoms: C4_5  and  C5_6
REMARK    6  A    between atoms: C5_6  and  N2_7
REMARK    7  A    between atoms: N2_7  and  C6_8
REMARK    8  A    between atoms: C6_8  and  C7_9
REMARK    9  A    between atoms: C8_11  and  C11_14
REMARK                            x       y       z     vdW  Elec       q    Type
REMARK                         _______ _______ _______ _____ _____    ______ ____
ROOT
ATOM      1  C7  UNL     1      -1.133   1.066  -1.981  0.00  0.00    +0.119 A 
ATOM      2  O1  UNL     1      -1.920   0.218  -1.257  0.00  0.00    -0.458 OA
ATOM      3  C8  UNL     1      -3.026   0.917  -0.859  0.00  0.00    +0.135 A 
ATOM      4  C9  UNL     1      -2.940   2.212  -1.334  0.00  0.00    +0.050 A 
ATOM      5  C10 UNL     1      -1.725   2.307  -2.056  0.00  0.00    +0.046 A 
ENDROOT
BRANCH   3   6
ATOM      6  C11 UNL     1      -4.003   0.180  -0.060  0.00  0.00    +0.019 A 
ATOM      7  C12 UNL     1      -3.827  -1.185   0.228  0.00  0.00    +0.014 A 
ATOM      8  C13 UNL     1      -4.763  -1.887   0.992  0.00  0.00    +0.040 A 
ATOM      9  C14 UNL     1      -5.885  -1.228   1.478  0.00  0.00    +0.142 A 
ATOM     10  F1  UNL     1      -6.773  -1.918   2.210  0.00  0.00    -0.204 F 
ATOM     11  C15 UNL     1      -6.081   0.123   1.206  0.00  0.00    +0.077 A 
ATOM     12 CL1  UNL     1      -7.470   0.946   1.805  0.00  0.00    -0.081 Cl
ATOM     13  C16 UNL     1      -5.145   0.825   0.441  0.00  0.00    +0.034 A 
ENDBRANCH   3   6
BRANCH   1  14
ATOM     14  C6  UNL     1       0.141   0.505  -2.511  0.00  0.00    +0.155 C 
BRANCH  14  15
ATOM     15  N2  UNL     1       1.025   0.007  -1.451  0.00  0.00    -0.309 NA
ATOM     16  H13 UNL     1       0.459  -0.567  -0.823  0.00  0.00    +0.122 HD
BRANCH  15  17
ATOM     17  C5  UNL     1       1.645   1.091  -0.687  0.00  0.00    +0.082 C 
BRANCH  17  18
ATOM     18  C4  UNL     1       2.583   0.541   0.394  0.00  0.00    +0.030 C 
BRANCH  18  19
ATOM     19  C3  UNL     1       3.780  -0.219  -0.194  0.00  0.00    +0.085 C 
BRANCH  19  21
ATOM     20  C1  UNL     1       6.007  -1.058   0.168  0.00  0.00    +0.104 C 
ATOM     21  N1  UNL     1       4.791  -0.567   0.824  0.00  0.00    -0.308 NA
ATOM     22  C2  UNL     1       4.298  -1.580   1.760  0.00  0.00    +0.104 C 
ENDBRANCH  19  21
ENDBRANCH  18  19
ENDBRANCH  17  18
ENDBRANCH  15  17
ENDBRANCH  14  15
ENDBRANCH   1  14
TORSDOF 7
