REMARK  Name = ligand_769.pdb
REMARK  6 active torsions:
REMARK  status: ('A' for Active; 'I' for Inactive)
REMARK    1  A    between atoms: O1_1  and  C1_2
REMARK    2  A    between atoms: C10_11  and  C11_12
REMARK    3  A    between atoms: C11_12  and  N1_13
REMARK    4  A    between atoms: C11_12  and  C20_23
REMARK    5  A    between atoms: C12_14  and  C13_16
REMARK    6  A    between atoms: C13_16  and  C14_17
REMARK                            x       y       z     vdW  Elec       q    Type
REMARK                         _______ _______ _______ _____ _____    ______ ____
ROOT
ATOM      1  C11 UNL     1      -0.674   0.417   0.147  0.00  0.00    +0.138 C 
ENDROOT
BRANCH   1  11
ATOM      2  C1  UNL     1       0.028  -1.000  -1.890  0.00  0.00    +0.123 A 
ATOM      3  C2  UNL     1      -0.129  -2.084  -2.750  0.00  0.00    +0.046 A 
ATOM      4  C3  UNL     1      -1.182  -2.969  -2.556  0.00  0.00    +0.012 A 
ATOM      5  C4  UNL     1      -2.097  -2.782  -1.515  0.00  0.00    -0.017 A 
ATOM      6  C5  UNL     1      -3.158  -3.690  -1.366  0.00  0.00    +0.008 A 
ATOM      7  C6  UNL     1      -4.100  -3.537  -0.353  0.00  0.00    +0.001 A 
ATOM      8  C7  UNL     1      -3.991  -2.468   0.523  0.00  0.00    +0.001 A 
ATOM      9  C8  UNL     1      -2.938  -1.557   0.388  0.00  0.00    +0.009 A 
ATOM     10  C9  UNL     1      -1.954  -1.682  -0.626  0.00  0.00    -0.009 A 
ATOM     11  C10 UNL     1      -0.850  -0.778  -0.805  0.00  0.00    +0.026 A 
BRANCH   2  12
ATOM     12  O1  UNL     1       1.060  -0.126  -2.133  0.00  0.00    -0.506 OA
ATOM     13  H1  UNL     1       1.511  -0.404  -2.950  0.00  0.00    +0.292 HD
ENDBRANCH   2  12
ENDBRANCH   1  11
BRANCH   1  14
ATOM     14  C20 UNL     1      -1.561   1.614  -0.196  0.00  0.00    -0.023 A 
ATOM     15  C21 UNL     1      -2.182   2.331   0.843  0.00  0.00    +0.007 A 
ATOM     16  C22 UNL     1      -2.976   3.448   0.571  0.00  0.00    +0.020 A 
ATOM     17  C23 UNL     1      -3.149   3.867  -0.744  0.00  0.00    +0.041 A 
ATOM     18 CL1  UNL     1      -4.121   5.245  -1.082  0.00  0.00    -0.084 Cl
ATOM     19  C24 UNL     1      -2.529   3.184  -1.788  0.00  0.00    +0.020 A 
ATOM     20  C25 UNL     1      -1.735   2.067  -1.514  0.00  0.00    +0.007 A 
ENDBRANCH   1  14
BRANCH   1  21
ATOM     21  N1  UNL     1       0.704   0.857   0.267  0.00  0.00    -0.304 N 
ATOM     22  C12 UNL     1       1.230   1.393   1.416  0.00  0.00    +0.218 C 
ATOM     23  O2  UNL     1       0.603   1.497   2.467  0.00  0.00    -0.275 OA
ATOM     24  H9  UNL     1       1.246   0.833  -0.589  0.00  0.00    +0.150 HD
BRANCH  22  25
ATOM     25  C13 UNL     1       2.673   1.841   1.282  0.00  0.00    +0.130 C 
BRANCH  25  26
ATOM     26  C14 UNL     1       3.646   0.808   1.789  0.00  0.00    -0.039 A 
ATOM     27  C15 UNL     1       4.001   0.778   3.144  0.00  0.00    +0.004 A 
ATOM     28  C16 UNL     1       4.890  -0.185   3.621  0.00  0.00    +0.000 A 
ATOM     29  C17 UNL     1       5.426  -1.132   2.751  0.00  0.00    +0.000 A 
ATOM     30  C18 UNL     1       5.070  -1.119   1.404  0.00  0.00    +0.000 A 
ATOM     31  C19 UNL     1       4.182  -0.155   0.924  0.00  0.00    +0.004 A 
ENDBRANCH  25  26
ENDBRANCH  22  25
ENDBRANCH   1  21
TORSDOF 6
