REMARK  Name = ligand_308.pdb
REMARK  7 active torsions:
REMARK  status: ('A' for Active; 'I' for Inactive)
REMARK    1  A    between atoms: C1_1  and  O1_2
REMARK    2  A    between atoms: O1_2  and  C2_3
REMARK    3  A    between atoms: C4_5  and  C5_6
REMARK    4  A    between atoms: C5_6  and  O3_8
REMARK    5  A    between atoms: C6_9  and  O5_22
REMARK    6  A    between atoms: C12_15  and  C16_20
REMARK    7  A    between atoms: C12_15  and  C17_21
REMARK                            x       y       z     vdW  Elec       q    Type
REMARK                         _______ _______ _______ _____ _____    ______ ____
ROOT
ATOM      1  C2  UNL     1      -1.548  -1.168  -0.426  0.00  0.00    +0.129 A 
ATOM      2  C3  UNL     1      -2.943  -1.220  -0.323  0.00  0.00    +0.065 A 
ATOM      3  C4  UNL     1      -3.655  -0.087   0.050  0.00  0.00    +0.104 A 
ATOM      4  C6  UNL     1      -2.954   1.095   0.320  0.00  0.00    +0.139 A 
ATOM      5  C7  UNL     1      -1.543   1.169   0.191  0.00  0.00    +0.029 A 
ATOM      6  C8  UNL     1      -0.793   0.031  -0.230  0.00  0.00    +0.038 A 
ATOM      7  C9  UNL     1       0.632   0.192  -0.401  0.00  0.00    +0.028 A 
ATOM      8  C10 UNL     1       1.505  -0.834  -0.985  0.00  0.00    +0.012 C 
ATOM      9  C11 UNL     1       2.832  -0.690  -0.907  0.00  0.00    +0.020 C 
ATOM     10  C12 UNL     1       3.477   0.512  -0.272  0.00  0.00    +0.124 C 
ATOM     11  O4  UNL     1       2.598   1.646  -0.157  0.00  0.00    -0.482 OA
ATOM     12  C13 UNL     1       1.253   1.408  -0.064  0.00  0.00    +0.130 A 
ATOM     13  C14 UNL     1       0.503   2.492   0.365  0.00  0.00    +0.047 A 
ATOM     14  C15 UNL     1      -0.875   2.374   0.478  0.00  0.00    +0.016 A 
ATOM     15  C16 UNL     1       4.645   0.983  -1.147  0.00  0.00    +0.060 C 
ATOM     16  C17 UNL     1       3.994   0.163   1.128  0.00  0.00    +0.060 C 
ENDROOT
BRANCH   1  18
ATOM     17  C1  UNL     1      -0.703  -3.128   0.433  0.00  0.00    +0.277 C 
ATOM     18  O1  UNL     1      -0.943  -2.361  -0.751  0.00  0.00    -0.494 OA
ENDBRANCH   1  18
BRANCH   3  19
ATOM     19  C5  UNL     1      -5.129  -0.126   0.179  0.00  0.00    +0.340 C 
ATOM     20  O2  UNL     1      -5.814   0.830   0.501  0.00  0.00    -0.245 OA
BRANCH  19  21
ATOM     21  O3  UNL     1      -5.669  -1.325  -0.088  0.00  0.00    -0.477 OA
ATOM     22  H5  UNL     1      -6.634  -1.198   0.029  0.00  0.00    +0.295 HD
ENDBRANCH  19  21
ENDBRANCH   3  19
BRANCH   4  23
ATOM     23  O5  UNL     1      -3.617   2.239   0.720  0.00  0.00    -0.505 OA
ATOM     24  H16 UNL     1      -4.583   2.070   0.746  0.00  0.00    +0.292 HD
ENDBRANCH   4  23
TORSDOF 4
