REMARK  Name = ligand_756.pdb
REMARK  13 active torsions:
REMARK  status: ('A' for Active; 'I' for Inactive)
REMARK    1  A    between atoms: C1_1  and  C2_2
REMARK    2  A    between atoms: C2_2  and  O1_3
REMARK    3  A    between atoms: O1_3  and  C3_4
REMARK    4  A    between atoms: C6_8  and  C10_13
REMARK    5  A    between atoms: C8_10  and  O2_11
REMARK    6  A    between atoms: O2_11  and  C9_12
REMARK    7  A    between atoms: C11_14  and  C18_24
REMARK    8  A    between atoms: N1_16  and  C13_17
REMARK    9  A    between atoms: C15_19  and  C16_20
REMARK   10  A    between atoms: C16_20  and  O4_22
REMARK   11  A    between atoms: O4_22  and  C17_23
REMARK   12  A    between atoms: C18_24  and  O6_26
REMARK   13  A    between atoms: O6_26  and  C19_27
REMARK                            x       y       z     vdW  Elec       q    Type
REMARK                         _______ _______ _______ _____ _____    ______ ____
ROOT
ATOM      1  C10 UNL     1      -1.651   0.083  -0.105  0.00  0.00    +0.095 C 
ATOM      2  C11 UNL     1      -2.201   1.054   0.934  0.00  0.00    +0.062 C 
ATOM      3  C12 UNL     1      -3.006   0.624   1.923  0.00  0.00    +0.086 C 
ATOM      4  N1  UNL     1      -3.415  -0.702   2.059  0.00  0.00    -0.315 N 
ATOM      5  C13 UNL     1      -4.330  -1.088   3.137  0.00  0.00    +0.134 C 
ATOM      6  C14 UNL     1      -3.082  -1.604   1.052  0.00  0.00    +0.086 C 
ATOM      7  C15 UNL     1      -2.282  -1.297   0.014  0.00  0.00    +0.062 C 
ENDROOT
BRANCH   1  12
ATOM      8  C3  UNL     1       2.683  -0.105   0.129  0.00  0.00    +0.176 A 
ATOM      9  C4  UNL     1       1.906  -0.622   1.171  0.00  0.00    +0.063 A 
ATOM     10 BR1  UNL     1       2.695  -1.403   2.711  0.00  0.00    -0.046 Br
ATOM     11  C5  UNL     1       0.513  -0.570   1.101  0.00  0.00    +0.023 A 
ATOM     12  C6  UNL     1      -0.122   0.007  -0.012  0.00  0.00    -0.030 A 
ATOM     13  C7  UNL     1       0.671   0.552  -1.039  0.00  0.00    +0.054 A 
ATOM     14  C8  UNL     1       2.068   0.517  -0.970  0.00  0.00    +0.163 A 
BRANCH  14  15
ATOM     15  O2  UNL     1       2.902   1.045  -1.922  0.00  0.00    -0.491 OA
ATOM     16  C9  UNL     1       2.331   1.972  -2.835  0.00  0.00    +0.277 C 
ENDBRANCH  14  15
BRANCH   8  17
ATOM     17  O1  UNL     1       4.055  -0.128   0.229  0.00  0.00    -0.487 OA
BRANCH  17  19
ATOM     18  C1  UNL     1       6.096  -1.237  -0.310  0.00  0.00    +0.048 C 
ATOM     19  C2  UNL     1       4.596  -1.207  -0.540  0.00  0.00    +0.226 C 
ENDBRANCH  17  19
ENDBRANCH   8  17
ENDBRANCH   1  12
BRANCH   7  20
ATOM     20  C16 UNL     1      -2.041  -2.337  -1.008  0.00  0.00    +0.337 C 
ATOM     21  O3  UNL     1      -2.271  -3.526  -0.845  0.00  0.00    -0.245 OA
BRANCH  20  22
ATOM     22  O4  UNL     1      -1.554  -1.779  -2.144  0.00  0.00    -0.465 OA
ATOM     23  C17 UNL     1      -1.281  -2.718  -3.184  0.00  0.00    +0.280 C 
ENDBRANCH  20  22
ENDBRANCH   7  20
BRANCH   2  24
ATOM     24  C18 UNL     1      -1.860   2.483   0.759  0.00  0.00    +0.337 C 
ATOM     25  O5  UNL     1      -1.475   2.955  -0.301  0.00  0.00    -0.245 OA
BRANCH  24  26
ATOM     26  O6  UNL     1      -2.016   3.172   1.918  0.00  0.00    -0.465 OA
ATOM     27  C19 UNL     1      -1.668   4.555   1.822  0.00  0.00    +0.280 C 
ENDBRANCH  24  26
ENDBRANCH   2  24
TORSDOF 8
