REMARK  Name = ligand_100.pdb
REMARK  9 active torsions:
REMARK  status: ('A' for Active; 'I' for Inactive)
REMARK    1  A    between atoms: C1_1  and  O1_2
REMARK    2  A    between atoms: O1_2  and  C2_3
REMARK    3  A    between atoms: C4_5  and  O2_6
REMARK    4  A    between atoms: C5_7  and  C6_8
REMARK    5  A    between atoms: C6_8  and  C7_10
REMARK    6  A    between atoms: C8_11  and  C9_12
REMARK    7  A    between atoms: C15_18  and  O4_19
REMARK    8  A    between atoms: C16_20  and  O5_21
REMARK    9  A    between atoms: O5_21  and  C17_22
REMARK                            x       y       z     vdW  Elec       q    Type
REMARK                         _______ _______ _______ _____ _____    ______ ____
ROOT
ATOM      1  C2  UNL     1      -3.522   0.725   0.285  0.00  0.00    +0.169 A 
ATOM      2  C3  UNL     1      -3.056   0.877   1.595  0.00  0.00    +0.095 A 
ATOM      3  C4  UNL     1      -1.760   0.481   1.942  0.00  0.00    +0.135 A 
ATOM      4  C5  UNL     1      -0.875  -0.046   0.990  0.00  0.00    +0.108 A 
ATOM      5  C15 UNL     1      -1.356  -0.230  -0.308  0.00  0.00    +0.177 A 
ATOM      6  C16 UNL     1      -2.673   0.130  -0.663  0.00  0.00    +0.204 A 
ENDROOT
BRANCH   1   8
ATOM      7  C1  UNL     1      -5.579   1.833   0.797  0.00  0.00    +0.277 C 
ATOM      8  O1  UNL     1      -4.759   1.136  -0.133  0.00  0.00    -0.491 OA
ENDBRANCH   1   8
BRANCH   3   9
ATOM      9  O2  UNL     1      -1.424   0.653   3.262  0.00  0.00    -0.506 OA
ATOM     10  H5  UNL     1      -0.582   0.168   3.424  0.00  0.00    +0.292 HD
ENDBRANCH   3   9
BRANCH   4  11
ATOM     11  C6  UNL     1       0.501  -0.397   1.427  0.00  0.00    +0.193 C 
ATOM     12  O3  UNL     1       0.677  -0.713   2.604  0.00  0.00    -0.287 OA
BRANCH  11  13
ATOM     13  C7  UNL     1       1.636  -0.263   0.477  0.00  0.00    +0.052 C 
ATOM     14  C8  UNL     1       2.857  -0.687   0.839  0.00  0.00    +0.012 C 
BRANCH  14  15
ATOM     15  C9  UNL     1       4.046  -0.602  -0.021  0.00  0.00    -0.025 A 
ATOM     16  C10 UNL     1       5.006  -1.620   0.053  0.00  0.00    +0.008 A 
ATOM     17  C11 UNL     1       6.164  -1.566  -0.727  0.00  0.00    +0.001 A 
ATOM     18  C12 UNL     1       6.379  -0.488  -1.582  0.00  0.00    +0.000 A 
ATOM     19  C13 UNL     1       5.440   0.539  -1.653  0.00  0.00    +0.001 A 
ATOM     20  C14 UNL     1       4.282   0.485  -0.873  0.00  0.00    +0.008 A 
ENDBRANCH  14  15
ENDBRANCH  11  13
ENDBRANCH   4  11
BRANCH   5  21
ATOM     21  O4  UNL     1      -0.577  -0.814  -1.279  0.00  0.00    -0.503 OA
ATOM     22  H13 UNL     1      -1.134  -0.836  -2.084  0.00  0.00    +0.292 HD
ENDBRANCH   5  21
BRANCH   6  23
ATOM     23  O5  UNL     1      -2.972  -0.120  -1.985  0.00  0.00    -0.488 OA
ATOM     24  C17 UNL     1      -4.312  -0.524  -2.254  0.00  0.00    +0.277 C 
ENDBRANCH   6  23
TORSDOF 7
