REMARK  Name = ligand_173.pdb
REMARK  4 active torsions:
REMARK  status: ('A' for Active; 'I' for Inactive)
REMARK    1  A    between atoms: C6_8  and  C7_9
REMARK    2  A    between atoms: C8_10  and  O3_11
REMARK    3  A    between atoms: C11_14  and  C12_15
REMARK    4  A    between atoms: C14_17  and  O4_18
REMARK                            x       y       z     vdW  Elec       q    Type
REMARK                         _______ _______ _______ _____ _____    ______ ____
ROOT
ATOM      1  C1  UNL     1       3.894   1.447   1.007  0.00  0.00    +0.020 C 
ATOM      2  C2  UNL     1       3.295   0.352   0.528  0.00  0.00    +0.039 C 
ATOM      3  C3  UNL     1       4.029  -0.748  -0.161  0.00  0.00    +0.335 C 
ATOM      4  O1  UNL     1       5.234  -0.905  -0.197  0.00  0.00    -0.245 OA
ATOM      5  O2  UNL     1       3.093  -1.564  -0.739  0.00  0.00    -0.457 OA
ATOM      6  C4  UNL     1       1.854  -0.859  -0.735  0.00  0.00    +0.187 C 
ATOM      7  C5  UNL     1       0.636  -1.769  -0.719  0.00  0.00    +0.055 C 
ATOM      8  C6  UNL     1      -0.695  -0.961  -0.524  0.00  0.00    +0.006 C 
ATOM      9  C7  UNL     1      -1.566  -1.255  -1.779  0.00  0.00    +0.014 C 
ATOM     10  C8  UNL     1      -1.432  -1.417   0.768  0.00  0.00    +0.125 C 
ATOM     11  C9  UNL     1      -2.741  -0.646   1.027  0.00  0.00    +0.059 C 
ATOM     12  C10 UNL     1      -2.731   0.790   0.585  0.00  0.00    -0.025 C 
ATOM     13  C11 UNL     1      -1.712   1.369  -0.075  0.00  0.00    -0.070 C 
ATOM     14  C12 UNL     1      -1.768   2.807  -0.513  0.00  0.00    +0.039 C 
ATOM     15  C13 UNL     1      -0.444   0.595  -0.419  0.00  0.00    +0.052 C 
ATOM     16  C14 UNL     1       0.745   0.997   0.525  0.00  0.00    +0.133 C 
ATOM     17  C15 UNL     1       1.862  -0.047   0.533  0.00  0.00    +0.095 C 
ENDROOT
BRANCH  10  18
ATOM     18  O3  UNL     1      -1.699  -2.821   0.738  0.00  0.00    -0.391 OA
ATOM     19  H10 UNL     1      -2.413  -2.988   0.100  0.00  0.00    +0.210 HD
ENDBRANCH  10  18
BRANCH  16  20
ATOM     20  O4  UNL     1       0.330   1.152   1.887  0.00  0.00    -0.390 OA
ATOM     21  H19 UNL     1      -0.387   1.809   1.915  0.00  0.00    +0.210 HD
ENDBRANCH  16  20
TORSDOF 2
