MODEL 1
REMARK VINA RESULT:    -3.737      0.000      0.000
REMARK INTER + INTRA:          -5.052
REMARK INTER:                  -4.611
REMARK INTRA:                  -0.441
REMARK UNBOUND:                -0.441
REMARK  Name = /home/vital/Documents/PhD_2021/Malaria_codes/data/pdb_ligands_mmv/ligand_363.pdb
REMARK  6 active torsions:
REMARK  status: ('A' for Active; 'I' for Inactive)
REMARK    1  A    between atoms: N2_3  and  C2_4
REMARK    2  A    between atoms: C7_9  and  O1_10
REMARK    3  A    between atoms: O1_10  and  C8_11
REMARK    4  A    between atoms: C10_13  and  C11_14
REMARK    5  A    between atoms: N4_17  and  C13_18
REMARK    6  A    between atoms: C13_18  and  C14_19
REMARK                            x       y       z     vdW  Elec       q    Type
REMARK                         _______ _______ _______ _____ _____    ______ ____
ROOT
ATOM      1  N1  UNL     1      28.734  44.548  17.504  0.00  0.00    -0.199 NA
ATOM      2  C1  UNL     1      27.905  45.599  17.604  0.00  0.00    +0.128 A 
ATOM      3  N2  UNL     1      26.827  45.619  16.709  0.00  0.00    -0.299 N 
ATOM      4  C9  UNL     1      28.136  46.629  18.491  0.00  0.00    +0.067 A 
ATOM      5  C10 UNL     1      29.242  46.510  19.302  0.00  0.00    +0.045 A 
ATOM      6  C11 UNL     1      29.572  47.582  20.295  0.00  0.00    +0.066 C 
ATOM      7  N3  UNL     1      30.069  45.451  19.235  0.00  0.00    -0.220 NA
ATOM      8  C12 UNL     1      29.781  44.501  18.335  0.00  0.00    +0.217 A 
ATOM      9  N4  UNL     1      30.593  43.383  18.216  0.00  0.00    -0.309 N 
ATOM     10  H1  UNL     1      26.888  44.783  16.134  0.00  0.00    +0.154 HD
ATOM     11  H13 UNL     1      30.388  42.970  17.315  0.00  0.00    +0.149 HD
ENDROOT
BRANCH   3  12
ATOM     12  C2  UNL     1      25.494  46.029  16.894  0.00  0.00    +0.033 A 
ATOM     13  C3  UNL     1      24.909  46.848  15.920  0.00  0.00    +0.027 A 
ATOM     14  C4  UNL     1      23.590  47.292  16.052  0.00  0.00    +0.047 A 
ATOM     15  C5  UNL     1      24.715  45.661  17.997  0.00  0.00    +0.027 A 
ATOM     16  C6  UNL     1      23.391  46.103  18.130  0.00  0.00    +0.047 A 
ATOM     17  C7  UNL     1      22.823  46.923  17.157  0.00  0.00    +0.120 A 
BRANCH  17  18
ATOM     18  O1  UNL     1      21.551  47.423  17.165  0.00  0.00    -0.495 OA
ATOM     19  C8  UNL     1      20.530  46.574  17.674  0.00  0.00    +0.277 C 
ENDBRANCH  17  18
ENDBRANCH   3  12
BRANCH   9  20
ATOM     20  C13 UNL     1      31.995  43.643  18.464  0.00  0.00    +0.139 C 
BRANCH  20  21
ATOM     21  C14 UNL     1      32.711  43.788  17.139  0.00  0.00    -0.030 A 
ATOM     22  C15 UNL     1      33.467  42.724  16.625  0.00  0.00    +0.005 A 
ATOM     23  C16 UNL     1      34.122  42.847  15.399  0.00  0.00    +0.000 A 
ATOM     24  C17 UNL     1      34.025  44.031  14.672  0.00  0.00    +0.000 A 
ATOM     25  C18 UNL     1      33.269  45.092  15.168  0.00  0.00    +0.000 A 
ATOM     26  C19 UNL     1      32.612  44.971  16.395  0.00  0.00    +0.005 A 
ENDBRANCH  20  21
ENDBRANCH   9  20
TORSDOF 4
ENDMDL
MODEL 2
REMARK VINA RESULT:    -3.524     13.639     17.485
REMARK INTER + INTRA:          -4.789
REMARK INTER:                  -4.297
REMARK INTRA:                  -0.492
REMARK UNBOUND:                -0.441
REMARK  Name = /home/vital/Documents/PhD_2021/Malaria_codes/data/pdb_ligands_mmv/ligand_363.pdb
REMARK  6 active torsions:
REMARK  status: ('A' for Active; 'I' for Inactive)
REMARK    1  A    between atoms: N2_3  and  C2_4
REMARK    2  A    between atoms: C7_9  and  O1_10
REMARK    3  A    between atoms: O1_10  and  C8_11
REMARK    4  A    between atoms: C10_13  and  C11_14
REMARK    5  A    between atoms: N4_17  and  C13_18
REMARK    6  A    between atoms: C13_18  and  C14_19
REMARK                            x       y       z     vdW  Elec       q    Type
REMARK                         _______ _______ _______ _____ _____    ______ ____
ROOT
ATOM      1  N1  UNL     1      16.430  35.831  16.231  0.00  0.00    -0.199 NA
ATOM      2  C1  UNL     1      15.572  34.800  16.185  0.00  0.00    +0.128 A 
ATOM      3  N2  UNL     1      15.632  34.001  15.035  0.00  0.00    -0.299 N 
ATOM      4  C9  UNL     1      14.644  34.578  17.180  0.00  0.00    +0.067 A 
ATOM      5  C10 UNL     1      14.664  35.445  18.248  0.00  0.00    +0.045 A 
ATOM      6  C11 UNL     1      13.691  35.282  19.376  0.00  0.00    +0.066 C 
ATOM      7  N3  UNL     1      15.536  36.468  18.325  0.00  0.00    -0.220 NA
ATOM      8  C12 UNL     1      16.395  36.622  17.309  0.00  0.00    +0.217 A 
ATOM      9  N4  UNL     1      17.319  37.656  17.326  0.00  0.00    -0.309 N 
ATOM     10  H1  UNL     1      16.359  34.379  14.433  0.00  0.00    +0.154 HD
ATOM     11  H13 UNL     1      17.639  37.776  16.373  0.00  0.00    +0.149 HD
ENDROOT
BRANCH   3  12
ATOM     12  C2  UNL     1      15.501  32.608  14.883  0.00  0.00    +0.033 A 
ATOM     13  C3  UNL     1      16.220  31.775  15.751  0.00  0.00    +0.027 A 
ATOM     14  C4  UNL     1      16.135  30.384  15.645  0.00  0.00    +0.047 A 
ATOM     15  C5  UNL     1      14.689  32.005  13.916  0.00  0.00    +0.027 A 
ATOM     16  C6  UNL     1      14.601  30.610  13.811  0.00  0.00    +0.047 A 
ATOM     17  C7  UNL     1      15.326  29.793  14.675  0.00  0.00    +0.120 A 
BRANCH  17  18
ATOM     18  O1  UNL     1      15.331  28.425  14.679  0.00  0.00    -0.495 OA
ATOM     19  C8  UNL     1      15.658  27.781  13.454  0.00  0.00    +0.277 C 
ENDBRANCH  17  18
ENDBRANCH   3  12
BRANCH   9  20
ATOM     20  C13 UNL     1      16.841  38.863  17.965  0.00  0.00    +0.139 C 
BRANCH  20  21
ATOM     21  C14 UNL     1      16.640  39.931  16.913  0.00  0.00    -0.030 A 
ATOM     22  C15 UNL     1      17.695  40.787  16.565  0.00  0.00    +0.005 A 
ATOM     23  C16 UNL     1      17.520  41.769  15.588  0.00  0.00    +0.000 A 
ATOM     24  C17 UNL     1      16.290  41.901  14.946  0.00  0.00    +0.000 A 
ATOM     25  C18 UNL     1      15.236  41.051  15.277  0.00  0.00    +0.000 A 
ATOM     26  C19 UNL     1      15.410  40.068  16.254  0.00  0.00    +0.005 A 
ENDBRANCH  20  21
ENDBRANCH   9  20
TORSDOF 4
ENDMDL
MODEL 3
REMARK VINA RESULT:    -3.436      5.983      9.681
REMARK INTER + INTRA:          -4.680
REMARK INTER:                  -3.953
REMARK INTRA:                  -0.727
REMARK UNBOUND:                -0.441
REMARK  Name = /home/vital/Documents/PhD_2021/Malaria_codes/data/pdb_ligands_mmv/ligand_363.pdb
REMARK  6 active torsions:
REMARK  status: ('A' for Active; 'I' for Inactive)
REMARK    1  A    between atoms: N2_3  and  C2_4
REMARK    2  A    between atoms: C7_9  and  O1_10
REMARK    3  A    between atoms: O1_10  and  C8_11
REMARK    4  A    between atoms: C10_13  and  C11_14
REMARK    5  A    between atoms: N4_17  and  C13_18
REMARK    6  A    between atoms: C13_18  and  C14_19
REMARK                            x       y       z     vdW  Elec       q    Type
REMARK                         _______ _______ _______ _____ _____    ______ ____
ROOT
ATOM      1  N1  UNL     1      34.648  39.037  16.133  0.00  0.00    -0.199 NA
ATOM      2  C1  UNL     1      35.012  40.318  15.960  0.00  0.00    +0.128 A 
ATOM      3  N2  UNL     1      34.089  41.135  15.293  0.00  0.00    -0.299 N 
ATOM      4  C9  UNL     1      36.246  40.785  16.356  0.00  0.00    +0.067 A 
ATOM      5  C10 UNL     1      37.079  39.882  16.978  0.00  0.00    +0.045 A 
ATOM      6  C11 UNL     1      38.441  40.301  17.443  0.00  0.00    +0.066 C 
ATOM      7  N3  UNL     1      36.720  38.602  17.186  0.00  0.00    -0.220 NA
ATOM      8  C12 UNL     1      35.509  38.225  16.756  0.00  0.00    +0.217 A 
ATOM      9  N4  UNL     1      35.078  36.920  16.939  0.00  0.00    -0.309 N 
ATOM     10  H1  UNL     1      33.279  40.564  15.066  0.00  0.00    +0.154 HD
ATOM     11  H13 UNL     1      34.309  36.774  16.297  0.00  0.00    +0.149 HD
ENDROOT
BRANCH   3  12
ATOM     12  C2  UNL     1      33.736  42.479  15.510  0.00  0.00    +0.033 A 
ATOM     13  C3  UNL     1      33.130  42.818  16.727  0.00  0.00    +0.027 A 
ATOM     14  C4  UNL     1      32.752  44.136  16.999  0.00  0.00    +0.047 A 
ATOM     15  C5  UNL     1      33.959  43.500  14.581  0.00  0.00    +0.027 A 
ATOM     16  C6  UNL     1      33.583  44.823  14.852  0.00  0.00    +0.047 A 
ATOM     17  C7  UNL     1      32.975  45.147  16.063  0.00  0.00    +0.120 A 
BRANCH  17  18
ATOM     18  O1  UNL     1      32.560  46.390  16.452  0.00  0.00    -0.495 OA
ATOM     19  C8  UNL     1      31.160  46.577  16.620  0.00  0.00    +0.277 C 
ENDBRANCH  17  18
ENDBRANCH   3  12
BRANCH   9  20
ATOM     20  C13 UNL     1      36.134  35.933  16.860  0.00  0.00    +0.139 C 
BRANCH  20  21
ATOM     21  C14 UNL     1      36.437  35.652  15.406  0.00  0.00    -0.030 A 
ATOM     22  C15 UNL     1      35.459  35.079  14.578  0.00  0.00    +0.005 A 
ATOM     23  C16 UNL     1      35.729  34.826  13.232  0.00  0.00    +0.000 A 
ATOM     24  C17 UNL     1      36.976  35.145  12.699  0.00  0.00    +0.000 A 
ATOM     25  C18 UNL     1      37.953  35.722  13.509  0.00  0.00    +0.000 A 
ATOM     26  C19 UNL     1      37.685  35.977  14.855  0.00  0.00    +0.005 A 
ENDBRANCH  20  21
ENDBRANCH   9  20
TORSDOF 4
ENDMDL
MODEL 4
REMARK VINA RESULT:    -3.344     15.452     18.879
REMARK INTER + INTRA:          -4.567
REMARK INTER:                  -4.139
REMARK INTRA:                  -0.428
REMARK UNBOUND:                -0.441
REMARK  Name = /home/vital/Documents/PhD_2021/Malaria_codes/data/pdb_ligands_mmv/ligand_363.pdb
REMARK  6 active torsions:
REMARK  status: ('A' for Active; 'I' for Inactive)
REMARK    1  A    between atoms: N2_3  and  C2_4
REMARK    2  A    between atoms: C7_9  and  O1_10
REMARK    3  A    between atoms: O1_10  and  C8_11
REMARK    4  A    between atoms: C10_13  and  C11_14
REMARK    5  A    between atoms: N4_17  and  C13_18
REMARK    6  A    between atoms: C13_18  and  C14_19
REMARK                            x       y       z     vdW  Elec       q    Type
REMARK                         _______ _______ _______ _____ _____    ______ ____
ROOT
ATOM      1  N1  UNL     1      15.695  33.903  14.933  0.00  0.00    -0.199 NA
ATOM      2  C1  UNL     1      15.526  32.622  15.297  0.00  0.00    +0.128 A 
ATOM      3  N2  UNL     1      14.821  31.814  14.395  0.00  0.00    -0.299 N 
ATOM      4  C9  UNL     1      15.963  32.147  16.515  0.00  0.00    +0.067 A 
ATOM      5  C10 UNL     1      16.620  33.041  17.329  0.00  0.00    +0.045 A 
ATOM      6  C11 UNL     1      17.129  32.613  18.671  0.00  0.00    +0.066 C 
ATOM      7  N3  UNL     1      16.823  34.322  16.968  0.00  0.00    -0.220 NA
ATOM      8  C12 UNL     1      16.353  34.708  15.775  0.00  0.00    +0.217 A 
ATOM      9  N4  UNL     1      16.530  36.013  15.343  0.00  0.00    -0.309 N 
ATOM     10  H1  UNL     1      14.570  32.390  13.596  0.00  0.00    +0.154 HD
ATOM     11  H13 UNL     1      15.861  36.167  14.599  0.00  0.00    +0.149 HD
ENDROOT
BRANCH   3  12
ATOM     12  C2  UNL     1      15.017  30.470  14.028  0.00  0.00    +0.033 A 
ATOM     13  C3  UNL     1      14.360  29.477  14.766  0.00  0.00    +0.027 A 
ATOM     14  C4  UNL     1      14.520  28.124  14.453  0.00  0.00    +0.047 A 
ATOM     15  C5  UNL     1      15.829  30.067  12.962  0.00  0.00    +0.027 A 
ATOM     16  C6  UNL     1      15.989  28.711  12.645  0.00  0.00    +0.047 A 
ATOM     17  C7  UNL     1      15.336  27.732  13.391  0.00  0.00    +0.120 A 
BRANCH  17  18
ATOM     18  O1  UNL     1      15.406  26.382  13.190  0.00  0.00    -0.495 OA
ATOM     19  C8  UNL     1      15.011  25.550  14.275  0.00  0.00    +0.277 C 
ENDBRANCH  17  18
ENDBRANCH   3  12
BRANCH   9  20
ATOM     20  C13 UNL     1      16.494  36.995  16.406  0.00  0.00    +0.139 C 
BRANCH  20  21
ATOM     21  C14 UNL     1      16.116  38.339  15.824  0.00  0.00    -0.030 A 
ATOM     22  C15 UNL     1      16.322  39.513  16.565  0.00  0.00    +0.005 A 
ATOM     23  C16 UNL     1      15.985  40.757  16.030  0.00  0.00    +0.000 A 
ATOM     24  C17 UNL     1      15.442  40.841  14.749  0.00  0.00    +0.000 A 
ATOM     25  C18 UNL     1      15.240  39.683  14.000  0.00  0.00    +0.000 A 
ATOM     26  C19 UNL     1      15.578  38.437  14.534  0.00  0.00    +0.005 A 
ENDBRANCH  20  21
ENDBRANCH   9  20
TORSDOF 4
ENDMDL
MODEL 5
REMARK VINA RESULT:    -3.335     21.036     23.398
REMARK INTER + INTRA:          -4.556
REMARK INTER:                  -4.054
REMARK INTRA:                  -0.502
REMARK UNBOUND:                -0.441
REMARK  Name = /home/vital/Documents/PhD_2021/Malaria_codes/data/pdb_ligands_mmv/ligand_363.pdb
REMARK  6 active torsions:
REMARK  status: ('A' for Active; 'I' for Inactive)
REMARK    1  A    between atoms: N2_3  and  C2_4
REMARK    2  A    between atoms: C7_9  and  O1_10
REMARK    3  A    between atoms: O1_10  and  C8_11
REMARK    4  A    between atoms: C10_13  and  C11_14
REMARK    5  A    between atoms: N4_17  and  C13_18
REMARK    6  A    between atoms: C13_18  and  C14_19
REMARK                            x       y       z     vdW  Elec       q    Type
REMARK                         _______ _______ _______ _____ _____    ______ ____
ROOT
ATOM      1  N1  UNL     1      14.433  27.484  20.834  0.00  0.00    -0.199 NA
ATOM      2  C1  UNL     1      14.841  28.155  21.922  0.00  0.00    +0.128 A 
ATOM      3  N2  UNL     1      14.276  27.753  23.140  0.00  0.00    -0.299 N 
ATOM      4  C9  UNL     1      15.714  29.218  21.838  0.00  0.00    +0.067 A 
ATOM      5  C10 UNL     1      16.182  29.537  20.584  0.00  0.00    +0.045 A 
ATOM      6  C11 UNL     1      17.135  30.678  20.397  0.00  0.00    +0.066 C 
ATOM      7  N3  UNL     1      15.807  28.857  19.485  0.00  0.00    -0.220 NA
ATOM      8  C12 UNL     1      14.943  27.846  19.651  0.00  0.00    +0.217 A 
ATOM      9  N4  UNL     1      14.516  27.105  18.560  0.00  0.00    -0.309 N 
ATOM     10  H1  UNL     1      13.638  26.986  22.946  0.00  0.00    +0.154 HD
ATOM     11  H13 UNL     1      13.673  26.624  18.847  0.00  0.00    +0.149 HD
ENDROOT
BRANCH   3  12
ATOM     12  C2  UNL     1      14.849  27.646  24.421  0.00  0.00    +0.033 A 
ATOM     13  C3  UNL     1      15.967  26.817  24.581  0.00  0.00    +0.027 A 
ATOM     14  C4  UNL     1      16.576  26.666  25.830  0.00  0.00    +0.047 A 
ATOM     15  C5  UNL     1      14.368  28.325  25.546  0.00  0.00    +0.027 A 
ATOM     16  C6  UNL     1      14.979  28.176  26.798  0.00  0.00    +0.047 A 
ATOM     17  C7  UNL     1      16.086  27.344  26.946  0.00  0.00    +0.120 A 
BRANCH  17  18
ATOM     18  O1  UNL     1      16.772  27.110  28.106  0.00  0.00    -0.495 OA
ATOM     19  C8  UNL     1      16.006  26.713  29.236  0.00  0.00    +0.277 C 
ENDBRANCH  17  18
ENDBRANCH   3  12
BRANCH   9  20
ATOM     20  C13 UNL     1      14.395  27.871  17.338  0.00  0.00    +0.139 C 
BRANCH  20  21
ATOM     21  C14 UNL     1      14.607  26.952  16.156  0.00  0.00    -0.030 A 
ATOM     22  C15 UNL     1      14.747  27.482  14.865  0.00  0.00    +0.005 A 
ATOM     23  C16 UNL     1      14.953  26.640  13.771  0.00  0.00    +0.000 A 
ATOM     24  C17 UNL     1      15.024  25.261  13.957  0.00  0.00    +0.000 A 
ATOM     25  C18 UNL     1      14.895  24.723  15.236  0.00  0.00    +0.000 A 
ATOM     26  C19 UNL     1      14.690  25.564  16.332  0.00  0.00    +0.005 A 
ENDBRANCH  20  21
ENDBRANCH   9  20
TORSDOF 4
ENDMDL
MODEL 6
REMARK VINA RESULT:    -3.291      6.781     11.704
REMARK INTER + INTRA:          -4.502
REMARK INTER:                  -3.933
REMARK INTRA:                  -0.569
REMARK UNBOUND:                -0.441
REMARK  Name = /home/vital/Documents/PhD_2021/Malaria_codes/data/pdb_ligands_mmv/ligand_363.pdb
REMARK  6 active torsions:
REMARK  status: ('A' for Active; 'I' for Inactive)
REMARK    1  A    between atoms: N2_3  and  C2_4
REMARK    2  A    between atoms: C7_9  and  O1_10
REMARK    3  A    between atoms: O1_10  and  C8_11
REMARK    4  A    between atoms: C10_13  and  C11_14
REMARK    5  A    between atoms: N4_17  and  C13_18
REMARK    6  A    between atoms: C13_18  and  C14_19
REMARK                            x       y       z     vdW  Elec       q    Type
REMARK                         _______ _______ _______ _____ _____    ______ ____
ROOT
ATOM      1  N1  UNL     1      20.246  45.347  20.525  0.00  0.00    -0.199 NA
ATOM      2  C1  UNL     1      20.516  45.165  19.222  0.00  0.00    +0.128 A 
ATOM      3  N2  UNL     1      20.859  46.315  18.498  0.00  0.00    -0.299 N 
ATOM      4  C9  UNL     1      20.398  43.931  18.619  0.00  0.00    +0.067 A 
ATOM      5  C10 UNL     1      20.028  42.880  19.428  0.00  0.00    +0.045 A 
ATOM      6  C11 UNL     1      19.875  41.503  18.858  0.00  0.00    +0.066 C 
ATOM      7  N3  UNL     1      19.782  43.039  20.741  0.00  0.00    -0.220 NA
ATOM      8  C12 UNL     1      19.904  44.274  21.246  0.00  0.00    +0.217 A 
ATOM      9  N4  UNL     1      19.665  44.505  22.591  0.00  0.00    -0.309 N 
ATOM     10  H1  UNL     1      20.841  47.102  19.142  0.00  0.00    +0.154 HD
ATOM     11  H13 UNL     1      19.512  45.501  22.693  0.00  0.00    +0.149 HD
ENDROOT
BRANCH   3  12
ATOM     12  C2  UNL     1      21.806  46.500  17.474  0.00  0.00    +0.033 A 
ATOM     13  C3  UNL     1      23.159  46.578  17.827  0.00  0.00    +0.027 A 
ATOM     14  C4  UNL     1      24.145  46.766  16.854  0.00  0.00    +0.047 A 
ATOM     15  C5  UNL     1      21.473  46.605  16.119  0.00  0.00    +0.027 A 
ATOM     16  C6  UNL     1      22.460  46.791  15.142  0.00  0.00    +0.047 A 
ATOM     17  C7  UNL     1      23.803  46.875  15.506  0.00  0.00    +0.120 A 
BRANCH  17  18
ATOM     18  O1  UNL     1      24.860  47.056  14.658  0.00  0.00    -0.495 OA
ATOM     19  C8  UNL     1      24.564  47.127  13.269  0.00  0.00    +0.277 C 
ENDBRANCH  17  18
ENDBRANCH   3  12
BRANCH   9  20
ATOM     20  C13 UNL     1      18.628  43.669  23.158  0.00  0.00    +0.139 C 
BRANCH  20  21
ATOM     21  C14 UNL     1      17.324  44.435  23.163  0.00  0.00    -0.030 A 
ATOM     22  C15 UNL     1      17.327  45.836  23.089  0.00  0.00    +0.005 A 
ATOM     23  C16 UNL     1      16.127  46.549  23.083  0.00  0.00    +0.000 A 
ATOM     24  C17 UNL     1      14.913  45.869  23.146  0.00  0.00    +0.000 A 
ATOM     25  C18 UNL     1      14.896  44.477  23.211  0.00  0.00    +0.000 A 
ATOM     26  C19 UNL     1      16.096  43.762  23.217  0.00  0.00    +0.005 A 
ENDBRANCH  20  21
ENDBRANCH   9  20
TORSDOF 4
ENDMDL
MODEL 7
REMARK VINA RESULT:    -3.129      3.018      4.015
REMARK INTER + INTRA:          -4.301
REMARK INTER:                  -3.827
REMARK INTRA:                  -0.474
REMARK UNBOUND:                -0.441
REMARK  Name = /home/vital/Documents/PhD_2021/Malaria_codes/data/pdb_ligands_mmv/ligand_363.pdb
REMARK  6 active torsions:
REMARK  status: ('A' for Active; 'I' for Inactive)
REMARK    1  A    between atoms: N2_3  and  C2_4
REMARK    2  A    between atoms: C7_9  and  O1_10
REMARK    3  A    between atoms: O1_10  and  C8_11
REMARK    4  A    between atoms: C10_13  and  C11_14
REMARK    5  A    between atoms: N4_17  and  C13_18
REMARK    6  A    between atoms: C13_18  and  C14_19
REMARK                            x       y       z     vdW  Elec       q    Type
REMARK                         _______ _______ _______ _____ _____    ______ ____
ROOT
ATOM      1  N1  UNL     1      27.234  45.166  14.591  0.00  0.00    -0.199 NA
ATOM      2  C1  UNL     1      26.107  44.874  15.261  0.00  0.00    +0.128 A 
ATOM      3  N2  UNL     1      25.539  45.923  15.996  0.00  0.00    -0.299 N 
ATOM      4  C9  UNL     1      25.577  43.602  15.276  0.00  0.00    +0.067 A 
ATOM      5  C10 UNL     1      26.238  42.648  14.536  0.00  0.00    +0.045 A 
ATOM      6  C11 UNL     1      25.735  41.237  14.494  0.00  0.00    +0.066 C 
ATOM      7  N3  UNL     1      27.352  42.929  13.836  0.00  0.00    -0.220 NA
ATOM      8  C12 UNL     1      27.811  44.187  13.887  0.00  0.00    +0.217 A 
ATOM      9  N4  UNL     1      28.954  44.543  13.188  0.00  0.00    -0.309 N 
ATOM     10  H1  UNL     1      26.123  46.745  15.864  0.00  0.00    +0.154 HD
ATOM     11  H13 UNL     1      29.285  45.409  13.593  0.00  0.00    +0.149 HD
ENDROOT
BRANCH   3  12
ATOM     12  C2  UNL     1      24.190  46.268  16.202  0.00  0.00    +0.033 A 
ATOM     13  C3  UNL     1      23.729  46.389  17.519  0.00  0.00    +0.027 A 
ATOM     14  C4  UNL     1      22.398  46.724  17.785  0.00  0.00    +0.047 A 
ATOM     15  C5  UNL     1      23.283  46.503  15.163  0.00  0.00    +0.027 A 
ATOM     16  C6  UNL     1      21.949  46.842  15.428  0.00  0.00    +0.047 A 
ATOM     17  C7  UNL     1      21.500  46.951  16.743  0.00  0.00    +0.120 A 
BRANCH  17  18
ATOM     18  O1  UNL     1      20.231  47.272  17.139  0.00  0.00    -0.495 OA
ATOM     19  C8  UNL     1      19.757  46.661  18.333  0.00  0.00    +0.277 C 
ENDBRANCH  17  18
ENDBRANCH   3  12
BRANCH   9  20
ATOM     20  C13 UNL     1      29.945  43.491  13.104  0.00  0.00    +0.139 C 
BRANCH  20  21
ATOM     21  C14 UNL     1      31.232  43.974  13.734  0.00  0.00    -0.030 A 
ATOM     22  C15 UNL     1      32.470  43.553  13.225  0.00  0.00    +0.005 A 
ATOM     23  C16 UNL     1      33.661  44.003  13.796  0.00  0.00    +0.000 A 
ATOM     24  C17 UNL     1      33.629  44.882  14.876  0.00  0.00    +0.000 A 
ATOM     25  C18 UNL     1      32.405  45.315  15.385  0.00  0.00    +0.000 A 
ATOM     26  C19 UNL     1      31.212  44.866  14.815  0.00  0.00    +0.005 A 
ENDBRANCH  20  21
ENDBRANCH   9  20
TORSDOF 4
ENDMDL
MODEL 8
REMARK VINA RESULT:    -2.934     14.566     18.131
REMARK INTER + INTRA:          -4.060
REMARK INTER:                  -3.348
REMARK INTRA:                  -0.712
REMARK UNBOUND:                -0.441
REMARK  Name = /home/vital/Documents/PhD_2021/Malaria_codes/data/pdb_ligands_mmv/ligand_363.pdb
REMARK  6 active torsions:
REMARK  status: ('A' for Active; 'I' for Inactive)
REMARK    1  A    between atoms: N2_3  and  C2_4
REMARK    2  A    between atoms: C7_9  and  O1_10
REMARK    3  A    between atoms: O1_10  and  C8_11
REMARK    4  A    between atoms: C10_13  and  C11_14
REMARK    5  A    between atoms: N4_17  and  C13_18
REMARK    6  A    between atoms: C13_18  and  C14_19
REMARK                            x       y       z     vdW  Elec       q    Type
REMARK                         _______ _______ _______ _____ _____    ______ ____
ROOT
ATOM      1  N1  UNL     1      16.449  35.093  13.575  0.00  0.00    -0.199 NA
ATOM      2  C1  UNL     1      16.393  33.880  14.148  0.00  0.00    +0.128 A 
ATOM      3  N2  UNL     1      15.437  32.998  13.626  0.00  0.00    -0.299 N 
ATOM      4  C9  UNL     1      17.183  33.546  15.226  0.00  0.00    +0.067 A 
ATOM      5  C10 UNL     1      18.067  34.504  15.667  0.00  0.00    +0.045 A 
ATOM      6  C11 UNL     1      18.965  34.229  16.834  0.00  0.00    +0.066 C 
ATOM      7  N3  UNL     1      18.157  35.715  15.087  0.00  0.00    -0.220 NA
ATOM      8  C12 UNL     1      17.343  35.966  14.054  0.00  0.00    +0.217 A 
ATOM      9  N4  UNL     1      17.386  37.194  13.412  0.00  0.00    -0.309 N 
ATOM     10  H1  UNL     1      14.954  33.477  12.871  0.00  0.00    +0.154 HD
ATOM     11  H13 UNL     1      16.521  37.283  12.894  0.00  0.00    +0.149 HD
ENDROOT
BRANCH   3  12
ATOM     12  C2  UNL     1      15.499  31.609  13.408  0.00  0.00    +0.033 A 
ATOM     13  C3  UNL     1      14.756  30.771  14.249  0.00  0.00    +0.027 A 
ATOM     14  C4  UNL     1      14.782  29.383  14.084  0.00  0.00    +0.047 A 
ATOM     15  C5  UNL     1      16.259  31.017  12.393  0.00  0.00    +0.027 A 
ATOM     16  C6  UNL     1      16.284  29.626  12.225  0.00  0.00    +0.047 A 
ATOM     17  C7  UNL     1      15.547  28.801  13.072  0.00  0.00    +0.120 A 
BRANCH  17  18
ATOM     18  O1  UNL     1      15.484  27.436  13.019  0.00  0.00    -0.495 OA
ATOM     19  C8  UNL     1      15.161  26.761  14.228  0.00  0.00    +0.277 C 
ENDBRANCH  17  18
ENDBRANCH   3  12
BRANCH   9  20
ATOM     20  C13 UNL     1      17.690  38.306  14.287  0.00  0.00    +0.139 C 
BRANCH  20  21
ATOM     21  C14 UNL     1      16.414  38.778  14.947  0.00  0.00    -0.030 A 
ATOM     22  C15 UNL     1      16.395  39.074  16.318  0.00  0.00    +0.005 A 
ATOM     23  C16 UNL     1      15.223  39.520  16.931  0.00  0.00    +0.000 A 
ATOM     24  C17 UNL     1      14.060  39.678  16.180  0.00  0.00    +0.000 A 
ATOM     25  C18 UNL     1      14.068  39.394  14.815  0.00  0.00    +0.000 A 
ATOM     26  C19 UNL     1      15.240  38.949  14.200  0.00  0.00    +0.005 A 
ENDBRANCH  20  21
ENDBRANCH   9  20
TORSDOF 4
ENDMDL
MODEL 9
REMARK VINA RESULT:    -1.273     17.134     19.961
REMARK INTER + INTRA:          -2.012
REMARK INTER:                  -1.251
REMARK INTRA:                  -0.761
REMARK UNBOUND:                -0.441
REMARK  Name = /home/vital/Documents/PhD_2021/Malaria_codes/data/pdb_ligands_mmv/ligand_363.pdb
REMARK  6 active torsions:
REMARK  status: ('A' for Active; 'I' for Inactive)
REMARK    1  A    between atoms: N2_3  and  C2_4
REMARK    2  A    between atoms: C7_9  and  O1_10
REMARK    3  A    between atoms: O1_10  and  C8_11
REMARK    4  A    between atoms: C10_13  and  C11_14
REMARK    5  A    between atoms: N4_17  and  C13_18
REMARK    6  A    between atoms: C13_18  and  C14_19
REMARK                            x       y       z     vdW  Elec       q    Type
REMARK                         _______ _______ _______ _____ _____    ______ ____
ROOT
ATOM      1  N1  UNL     1      16.599  30.440  16.117  0.00  0.00    -0.199 NA
ATOM      2  C1  UNL     1      15.936  31.591  15.926  0.00  0.00    +0.128 A 
ATOM      3  N2  UNL     1      15.662  32.341  17.078  0.00  0.00    -0.299 N 
ATOM      4  C9  UNL     1      15.495  31.980  14.680  0.00  0.00    +0.067 A 
ATOM      5  C10 UNL     1      15.801  31.149  13.627  0.00  0.00    +0.045 A 
ATOM      6  C11 UNL     1      15.361  31.491  12.236  0.00  0.00    +0.066 C 
ATOM      7  N3  UNL     1      16.490  30.005  13.795  0.00  0.00    -0.220 NA
ATOM      8  C12 UNL     1      16.869  29.691  15.041  0.00  0.00    +0.217 A 
ATOM      9  N4  UNL     1      17.581  28.527  15.283  0.00  0.00    -0.309 N 
ATOM     10  H1  UNL     1      16.047  31.838  17.872  0.00  0.00    +0.154 HD
ATOM     11  H13 UNL     1      17.496  28.334  16.273  0.00  0.00    +0.149 HD
ENDROOT
BRANCH   3  12
ATOM     12  C2  UNL     1      15.673  33.733  17.285  0.00  0.00    +0.033 A 
ATOM     13  C3  UNL     1      14.451  34.382  17.502  0.00  0.00    +0.027 A 
ATOM     14  C4  UNL     1      14.399  35.764  17.709  0.00  0.00    +0.047 A 
ATOM     15  C5  UNL     1      16.839  34.507  17.291  0.00  0.00    +0.027 A 
ATOM     16  C6  UNL     1      16.788  35.892  17.500  0.00  0.00    +0.047 A 
ATOM     17  C7  UNL     1      15.566  36.527  17.708  0.00  0.00    +0.120 A 
BRANCH  17  18
ATOM     18  O1  UNL     1      15.377  37.864  17.922  0.00  0.00    -0.495 OA
ATOM     19  C8  UNL     1      15.219  38.283  19.273  0.00  0.00    +0.277 C 
ENDBRANCH  17  18
ENDBRANCH   3  12
BRANCH   9  20
ATOM     20  C13 UNL     1      17.223  27.426  14.414  0.00  0.00    +0.139 C 
BRANCH  20  21
ATOM     21  C14 UNL     1      15.986  26.749  14.960  0.00  0.00    -0.030 A 
ATOM     22  C15 UNL     1      14.832  26.641  14.169  0.00  0.00    +0.005 A 
ATOM     23  C16 UNL     1      13.690  26.009  14.663  0.00  0.00    +0.000 A 
ATOM     24  C17 UNL     1      13.690  25.475  15.950  0.00  0.00    +0.000 A 
ATOM     25  C18 UNL     1      14.833  25.568  16.743  0.00  0.00    +0.000 A 
ATOM     26  C19 UNL     1      15.977  26.200  16.250  0.00  0.00    +0.005 A 
ENDBRANCH  20  21
ENDBRANCH   9  20
TORSDOF 4
ENDMDL
