MODEL 1
REMARK VINA RESULT:    -3.538      0.000      0.000
REMARK INTER + INTRA:          -6.621
REMARK INTER:                  -4.573
REMARK INTRA:                  -2.048
REMARK UNBOUND:                -2.048
REMARK  Name = /home/vital/Documents/PhD_2021/Malaria_codes/data/pdb_ligands_mmv/ligand_326.pdb
REMARK  6 active torsions:
REMARK  status: ('A' for Active; 'I' for Inactive)
REMARK    1  A    between atoms: C1_1  and  O1_2
REMARK    2  A    between atoms: O1_2  and  C2_3
REMARK    3  A    between atoms: C5_6  and  C8_9
REMARK    4  A    between atoms: C10_12  and  C11_13
REMARK    5  A    between atoms: N2_15  and  C12_16
REMARK    6  A    between atoms: C18_23  and  C25_31
REMARK                            x       y       z     vdW  Elec       q    Type
REMARK                         _______ _______ _______ _____ _____    ______ ____
ROOT
ATOM      1  C8  UNL     1      15.706  37.669  17.213  0.00  0.00    +0.067 A 
ATOM      2  C9  UNL     1      15.981  36.472  16.645  0.00  0.00    +0.119 A 
ATOM      3  N1  UNL     1      15.794  35.520  17.631  0.00  0.00    -0.295 N 
ATOM      4  C10 UNL     1      15.921  34.170  17.817  0.00  0.00    +0.118 A 
ATOM      5  C18 UNL     1      15.548  33.939  19.151  0.00  0.00    +0.018 A 
ATOM      6  C19 UNL     1      15.229  35.202  19.778  0.00  0.00    +0.004 A 
ATOM      7  C20 UNL     1      14.759  35.477  21.162  0.00  0.00    +0.039 C 
ATOM      8  C21 UNL     1      15.162  36.856  21.696  0.00  0.00    +0.006 C 
ATOM      9  C22 UNL     1      14.602  38.040  20.893  0.00  0.00    +0.022 C 
ATOM     10  C23 UNL     1      15.428  38.413  19.655  0.00  0.00    +0.124 C 
ATOM     11  N3  UNL     1      15.293  37.462  18.558  0.00  0.00    -0.325 N 
ATOM     12  C24 UNL     1      15.391  36.122  18.786  0.00  0.00    +0.123 A 
ENDROOT
BRANCH   1  16
ATOM     13  C2  UNL     1      15.947  41.502  15.333  0.00  0.00    +0.120 A 
ATOM     14  C3  UNL     1      17.095  40.881  15.827  0.00  0.00    +0.046 A 
ATOM     15  C4  UNL     1      17.018  39.627  16.441  0.00  0.00    +0.013 A 
ATOM     16  C5  UNL     1      15.788  38.975  16.567  0.00  0.00    +0.000 A 
ATOM     17  C6  UNL     1      14.638  39.604  16.075  0.00  0.00    +0.013 A 
ATOM     18  C7  UNL     1      14.715  40.859  15.459  0.00  0.00    +0.046 A 
BRANCH  13  20
ATOM     19  C1  UNL     1      16.647  42.727  13.419  0.00  0.00    +0.277 C 
ATOM     20  O1  UNL     1      16.161  42.724  14.756  0.00  0.00    -0.495 OA
ENDBRANCH  13  20
ENDBRANCH   1  16
BRANCH   5  21
ATOM     21  C25 UNL     1      15.565  32.622  19.767  0.00  0.00    -0.015 A 
ATOM     22  C26 UNL     1      16.766  32.061  20.211  0.00  0.00    +0.008 A 
ATOM     23  C27 UNL     1      16.775  30.790  20.789  0.00  0.00    +0.001 A 
ATOM     24  C28 UNL     1      15.586  30.074  20.919  0.00  0.00    +0.000 A 
ATOM     25  C29 UNL     1      14.385  30.627  20.475  0.00  0.00    +0.001 A 
ATOM     26  C30 UNL     1      14.374  31.899  19.899  0.00  0.00    +0.008 A 
ENDBRANCH   5  21
BRANCH   4  27
ATOM     27  C11 UNL     1      16.345  33.243  16.792  0.00  0.00    +0.266 C 
ATOM     28  O2  UNL     1      17.510  32.885  16.670  0.00  0.00    -0.268 OA
ATOM     29  N2  UNL     1      15.298  32.830  15.989  0.00  0.00    -0.279 N 
ATOM     30  H9  UNL     1      14.398  33.269  16.155  0.00  0.00    +0.155 HD
BRANCH  29  31
ATOM     31  C12 UNL     1      15.316  31.910  14.917  0.00  0.00    +0.052 A 
ATOM     32  C13 UNL     1      15.312  32.293  13.573  0.00  0.00    +0.025 A 
ATOM     33  C14 UNL     1      15.332  31.327  12.559  0.00  0.00    +0.002 A 
ATOM     34  C15 UNL     1      15.358  29.971  12.874  0.00  0.00    +0.002 A 
ATOM     35  C16 UNL     1      15.366  29.572  14.208  0.00  0.00    +0.022 A 
ATOM     36  C17 UNL     1      15.346  30.536  15.221  0.00  0.00    +0.062 A 
ATOM     37 CL1  UNL     1      15.374  29.989  16.866  0.00  0.00    -0.082 Cl
ENDBRANCH  29  31
ENDBRANCH   4  27
TORSDOF 5
ENDMDL
MODEL 2
REMARK VINA RESULT:    -3.280     13.407     17.162
REMARK INTER + INTRA:          -6.286
REMARK INTER:                  -4.270
REMARK INTRA:                  -2.017
REMARK UNBOUND:                -2.048
REMARK  Name = /home/vital/Documents/PhD_2021/Malaria_codes/data/pdb_ligands_mmv/ligand_326.pdb
REMARK  6 active torsions:
REMARK  status: ('A' for Active; 'I' for Inactive)
REMARK    1  A    between atoms: C1_1  and  O1_2
REMARK    2  A    between atoms: O1_2  and  C2_3
REMARK    3  A    between atoms: C5_6  and  C8_9
REMARK    4  A    between atoms: C10_12  and  C11_13
REMARK    5  A    between atoms: N2_15  and  C12_16
REMARK    6  A    between atoms: C18_23  and  C25_31
REMARK                            x       y       z     vdW  Elec       q    Type
REMARK                         _______ _______ _______ _____ _____    ______ ____
ROOT
ATOM      1  C8  UNL     1      25.475  45.887  17.476  0.00  0.00    +0.067 A 
ATOM      2  C9  UNL     1      26.754  46.002  17.047  0.00  0.00    +0.119 A 
ATOM      3  N1  UNL     1      27.546  46.016  18.182  0.00  0.00    -0.295 N 
ATOM      4  C10 UNL     1      28.860  46.150  18.537  0.00  0.00    +0.118 A 
ATOM      5  C18 UNL     1      28.880  46.076  19.939  0.00  0.00    +0.018 A 
ATOM      6  C19 UNL     1      27.524  45.934  20.423  0.00  0.00    +0.004 A 
ATOM      7  C20 UNL     1      27.032  45.789  21.819  0.00  0.00    +0.039 C 
ATOM      8  C21 UNL     1      25.615  46.333  22.040  0.00  0.00    +0.006 C 
ATOM      9  C22 UNL     1      24.527  45.635  21.209  0.00  0.00    +0.022 C 
ATOM     10  C23 UNL     1      24.380  46.175  19.780  0.00  0.00    +0.124 C 
ATOM     11  N3  UNL     1      25.467  45.778  18.893  0.00  0.00    -0.325 N 
ATOM     12  C24 UNL     1      26.765  45.893  19.293  0.00  0.00    +0.123 A 
ENDROOT
BRANCH   1  16
ATOM     13  C2  UNL     1      21.981  45.790  15.012  0.00  0.00    +0.120 A 
ATOM     14  C3  UNL     1      22.558  44.605  15.473  0.00  0.00    +0.046 A 
ATOM     15  C4  UNL     1      23.700  44.635  16.279  0.00  0.00    +0.013 A 
ATOM     16  C5  UNL     1      24.280  45.855  16.639  0.00  0.00    +0.000 A 
ATOM     17  C6  UNL     1      23.702  47.041  16.171  0.00  0.00    +0.013 A 
ATOM     18  C7  UNL     1      22.558  47.011  15.364  0.00  0.00    +0.046 A 
BRANCH  13  20
ATOM     19  C1  UNL     1      21.040  44.911  13.014  0.00  0.00    +0.277 C 
ATOM     20  O1  UNL     1      20.869  45.620  14.234  0.00  0.00    -0.495 OA
ENDBRANCH  13  20
ENDBRANCH   1  16
BRANCH   5  21
ATOM     21  C25 UNL     1      30.095  46.199  20.727  0.00  0.00    -0.015 A 
ATOM     22  C26 UNL     1      30.806  45.061  21.118  0.00  0.00    +0.008 A 
ATOM     23  C27 UNL     1      31.965  45.187  21.886  0.00  0.00    +0.001 A 
ATOM     24  C28 UNL     1      32.415  46.451  22.268  0.00  0.00    +0.000 A 
ATOM     25  C29 UNL     1      31.708  47.589  21.883  0.00  0.00    +0.001 A 
ATOM     26  C30 UNL     1      30.550  47.465  21.113  0.00  0.00    +0.008 A 
ENDBRANCH   5  21
BRANCH   4  27
ATOM     27  C11 UNL     1      29.945  46.314  17.595  0.00  0.00    +0.266 C 
ATOM     28  O2  UNL     1      30.499  47.391  17.413  0.00  0.00    -0.268 OA
ATOM     29  N2  UNL     1      30.261  45.136  16.945  0.00  0.00    -0.279 N 
ATOM     30  H9  UNL     1      29.666  44.337  17.137  0.00  0.00    +0.155 HD
BRANCH  29  31
ATOM     31  C12 UNL     1      31.277  44.897  15.992  0.00  0.00    +0.052 A 
ATOM     32  C13 UNL     1      31.110  45.098  14.620  0.00  0.00    +0.025 A 
ATOM     33  C14 UNL     1      32.161  44.844  13.730  0.00  0.00    +0.002 A 
ATOM     34  C15 UNL     1      33.390  44.387  14.201  0.00  0.00    +0.002 A 
ATOM     35  C16 UNL     1      33.576  44.185  15.566  0.00  0.00    +0.022 A 
ATOM     36  C17 UNL     1      32.527  44.440  16.454  0.00  0.00    +0.062 A 
ATOM     37 CL1  UNL     1      32.812  44.189  18.145  0.00  0.00    -0.082 Cl
ENDBRANCH  29  31
ENDBRANCH   4  27
TORSDOF 5
ENDMDL
MODEL 3
REMARK VINA RESULT:    -3.249      9.286     12.966
REMARK INTER + INTRA:          -6.247
REMARK INTER:                  -4.059
REMARK INTRA:                  -2.187
REMARK UNBOUND:                -2.048
REMARK  Name = /home/vital/Documents/PhD_2021/Malaria_codes/data/pdb_ligands_mmv/ligand_326.pdb
REMARK  6 active torsions:
REMARK  status: ('A' for Active; 'I' for Inactive)
REMARK    1  A    between atoms: C1_1  and  O1_2
REMARK    2  A    between atoms: O1_2  and  C2_3
REMARK    3  A    between atoms: C5_6  and  C8_9
REMARK    4  A    between atoms: C10_12  and  C11_13
REMARK    5  A    between atoms: N2_15  and  C12_16
REMARK    6  A    between atoms: C18_23  and  C25_31
REMARK                            x       y       z     vdW  Elec       q    Type
REMARK                         _______ _______ _______ _____ _____    ______ ____
ROOT
ATOM      1  C8  UNL     1      21.707  44.895  19.184  0.00  0.00    +0.067 A 
ATOM      2  C9  UNL     1      21.370  45.379  20.402  0.00  0.00    +0.119 A 
ATOM      3  N1  UNL     1      20.586  44.410  21.003  0.00  0.00    -0.295 N 
ATOM      4  C10 UNL     1      19.872  44.210  22.153  0.00  0.00    +0.118 A 
ATOM      5  C18 UNL     1      19.303  42.932  22.023  0.00  0.00    +0.018 A 
ATOM      6  C19 UNL     1      19.664  42.383  20.735  0.00  0.00    +0.004 A 
ATOM      7  C20 UNL     1      19.331  41.058  20.147  0.00  0.00    +0.039 C 
ATOM      8  C21 UNL     1      19.261  41.055  18.615  0.00  0.00    +0.006 C 
ATOM      9  C22 UNL     1      20.577  41.429  17.916  0.00  0.00    +0.022 C 
ATOM     10  C23 UNL     1      20.815  42.939  17.780  0.00  0.00    +0.124 C 
ATOM     11  N3  UNL     1      21.170  43.587  19.037  0.00  0.00    -0.325 N 
ATOM     12  C24 UNL     1      20.458  43.337  20.172  0.00  0.00    +0.123 A 
ENDROOT
BRANCH   1  16
ATOM     13  C2  UNL     1      24.057  46.879  16.212  0.00  0.00    +0.120 A 
ATOM     14  C3  UNL     1      22.718  47.224  16.405  0.00  0.00    +0.046 A 
ATOM     15  C4  UNL     1      21.948  46.577  17.376  0.00  0.00    +0.013 A 
ATOM     16  C5  UNL     1      22.510  45.575  18.173  0.00  0.00    +0.000 A 
ATOM     17  C6  UNL     1      23.853  45.228  17.973  0.00  0.00    +0.013 A 
ATOM     18  C7  UNL     1      24.623  45.877  17.001  0.00  0.00    +0.046 A 
BRANCH  13  20
ATOM     19  C1  UNL     1      24.666  47.041  13.920  0.00  0.00    +0.277 C 
ATOM     20  O1  UNL     1      24.695  47.588  15.232  0.00  0.00    -0.495 OA
ENDBRANCH  13  20
ENDBRANCH   1  16
BRANCH   5  21
ATOM     21  C25 UNL     1      18.439  42.338  23.030  0.00  0.00    -0.015 A 
ATOM     22  C26 UNL     1      18.973  41.520  24.030  0.00  0.00    +0.008 A 
ATOM     23  C27 UNL     1      18.135  40.943  24.986  0.00  0.00    +0.001 A 
ATOM     24  C28 UNL     1      16.761  41.178  24.942  0.00  0.00    +0.000 A 
ATOM     25  C29 UNL     1      16.223  41.991  23.946  0.00  0.00    +0.001 A 
ATOM     26  C30 UNL     1      17.060  42.571  22.991  0.00  0.00    +0.008 A 
ENDBRANCH   5  21
BRANCH   4  27
ATOM     27  C11 UNL     1      19.787  45.164  23.236  0.00  0.00    +0.266 C 
ATOM     28  O2  UNL     1      19.161  46.212  23.140  0.00  0.00    -0.268 OA
ATOM     29  N2  UNL     1      20.487  44.754  24.355  0.00  0.00    -0.279 N 
ATOM     30  H9  UNL     1      21.026  43.899  24.266  0.00  0.00    +0.155 HD
BRANCH  29  31
ATOM     31  C12 UNL     1      20.606  45.397  25.607  0.00  0.00    +0.052 A 
ATOM     32  C13 UNL     1      21.750  46.087  26.015  0.00  0.00    +0.025 A 
ATOM     33  C14 UNL     1      21.800  46.704  27.271  0.00  0.00    +0.002 A 
ATOM     34  C15 UNL     1      20.708  46.640  28.133  0.00  0.00    +0.002 A 
ATOM     35  C16 UNL     1      19.558  45.960  27.742  0.00  0.00    +0.022 A 
ATOM     36  C17 UNL     1      19.508  45.345  26.488  0.00  0.00    +0.062 A 
ATOM     37 CL1  UNL     1      18.048  44.525  26.041  0.00  0.00    -0.082 Cl
ENDBRANCH  29  31
ENDBRANCH   4  27
TORSDOF 5
ENDMDL
MODEL 4
REMARK VINA RESULT:    -3.198      5.305      7.425
REMARK INTER + INTRA:          -6.182
REMARK INTER:                  -3.988
REMARK INTRA:                  -2.193
REMARK UNBOUND:                -2.048
REMARK  Name = /home/vital/Documents/PhD_2021/Malaria_codes/data/pdb_ligands_mmv/ligand_326.pdb
REMARK  6 active torsions:
REMARK  status: ('A' for Active; 'I' for Inactive)
REMARK    1  A    between atoms: C1_1  and  O1_2
REMARK    2  A    between atoms: O1_2  and  C2_3
REMARK    3  A    between atoms: C5_6  and  C8_9
REMARK    4  A    between atoms: C10_12  and  C11_13
REMARK    5  A    between atoms: N2_15  and  C12_16
REMARK    6  A    between atoms: C18_23  and  C25_31
REMARK                            x       y       z     vdW  Elec       q    Type
REMARK                         _______ _______ _______ _____ _____    ______ ____
ROOT
ATOM      1  C8  UNL     1      18.736  32.455  15.213  0.00  0.00    +0.067 A 
ATOM      2  C9  UNL     1      18.946  31.294  15.877  0.00  0.00    +0.119 A 
ATOM      3  N1  UNL     1      17.938  30.432  15.483  0.00  0.00    -0.295 N 
ATOM      4  C10 UNL     1      17.482  29.169  15.746  0.00  0.00    +0.118 A 
ATOM      5  C18 UNL     1      16.350  29.002  14.931  0.00  0.00    +0.018 A 
ATOM      6  C19 UNL     1      16.114  30.224  14.194  0.00  0.00    +0.004 A 
ATOM      7  C20 UNL     1      15.062  30.531  13.189  0.00  0.00    +0.039 C 
ATOM      8  C21 UNL     1      14.674  32.013  13.126  0.00  0.00    +0.006 C 
ATOM      9  C22 UNL     1      15.821  32.957  12.733  0.00  0.00    +0.022 C 
ATOM     10  C23 UNL     1      16.728  33.370  13.900  0.00  0.00    +0.124 C 
ATOM     11  N3  UNL     1      17.613  32.304  14.354  0.00  0.00    -0.325 N 
ATOM     12  C24 UNL     1      17.130  31.048  14.573  0.00  0.00    +0.123 A 
ENDROOT
BRANCH   1  16
ATOM     13  C2  UNL     1      21.077  36.018  15.545  0.00  0.00    +0.120 A 
ATOM     14  C3  UNL     1      21.236  35.163  14.453  0.00  0.00    +0.046 A 
ATOM     15  C4  UNL     1      20.472  33.998  14.343  0.00  0.00    +0.013 A 
ATOM     16  C5  UNL     1      19.531  33.673  15.324  0.00  0.00    +0.000 A 
ATOM     17  C6  UNL     1      19.377  34.531  16.421  0.00  0.00    +0.013 A 
ATOM     18  C7  UNL     1      20.143  35.698  16.531  0.00  0.00    +0.046 A 
BRANCH  13  20
ATOM     19  C1  UNL     1      22.544  37.419  14.305  0.00  0.00    +0.277 C 
ATOM     20  O1  UNL     1      21.886  37.121  15.530  0.00  0.00    -0.495 OA
ENDBRANCH  13  20
ENDBRANCH   1  16
BRANCH   5  21
ATOM     21  C25 UNL     1      15.545  27.792  14.924  0.00  0.00    -0.015 A 
ATOM     22  C26 UNL     1      15.790  26.781  13.990  0.00  0.00    +0.008 A 
ATOM     23  C27 UNL     1      15.004  25.627  13.982  0.00  0.00    +0.001 A 
ATOM     24  C28 UNL     1      13.967  25.483  14.903  0.00  0.00    +0.000 A 
ATOM     25  C29 UNL     1      13.716  26.489  15.835  0.00  0.00    +0.001 A 
ATOM     26  C30 UNL     1      14.503  27.642  15.846  0.00  0.00    +0.008 A 
ENDBRANCH   5  21
BRANCH   4  27
ATOM     27  C11 UNL     1      18.106  28.255  16.676  0.00  0.00    +0.266 C 
ATOM     28  O2  UNL     1      18.019  28.393  17.890  0.00  0.00    -0.268 OA
ATOM     29  N2  UNL     1      18.795  27.242  16.037  0.00  0.00    -0.279 N 
ATOM     30  H9  UNL     1      18.849  27.296  15.026  0.00  0.00    +0.155 HD
BRANCH  29  31
ATOM     31  C12 UNL     1      19.494  26.153  16.606  0.00  0.00    +0.052 A 
ATOM     32  C13 UNL     1      20.885  26.111  16.731  0.00  0.00    +0.025 A 
ATOM     33  C14 UNL     1      21.514  25.000  17.306  0.00  0.00    +0.002 A 
ATOM     34  C15 UNL     1      20.762  23.922  17.766  0.00  0.00    +0.002 A 
ATOM     35  C16 UNL     1      19.375  23.949  17.653  0.00  0.00    +0.022 A 
ATOM     36  C17 UNL     1      18.746  25.058  17.079  0.00  0.00    +0.062 A 
ATOM     37 CL1  UNL     1      17.016  25.051  16.976  0.00  0.00    -0.082 Cl
ENDBRANCH  29  31
ENDBRANCH   4  27
TORSDOF 5
ENDMDL
MODEL 5
REMARK VINA RESULT:    -3.182      3.479      7.147
REMARK INTER + INTRA:          -6.160
REMARK INTER:                  -4.178
REMARK INTRA:                  -1.982
REMARK UNBOUND:                -2.048
REMARK  Name = /home/vital/Documents/PhD_2021/Malaria_codes/data/pdb_ligands_mmv/ligand_326.pdb
REMARK  6 active torsions:
REMARK  status: ('A' for Active; 'I' for Inactive)
REMARK    1  A    between atoms: C1_1  and  O1_2
REMARK    2  A    between atoms: O1_2  and  C2_3
REMARK    3  A    between atoms: C5_6  and  C8_9
REMARK    4  A    between atoms: C10_12  and  C11_13
REMARK    5  A    between atoms: N2_15  and  C12_16
REMARK    6  A    between atoms: C18_23  and  C25_31
REMARK                            x       y       z     vdW  Elec       q    Type
REMARK                         _______ _______ _______ _____ _____    ______ ____
ROOT
ATOM      1  C8  UNL     1      16.511  32.712  17.538  0.00  0.00    +0.067 A 
ATOM      2  C9  UNL     1      16.467  31.559  18.247  0.00  0.00    +0.119 A 
ATOM      3  N1  UNL     1      16.132  30.562  17.349  0.00  0.00    -0.295 N 
ATOM      4  C10 UNL     1      15.866  29.220  17.331  0.00  0.00    +0.118 A 
ATOM      5  C18 UNL     1      15.573  28.914  15.991  0.00  0.00    +0.018 A 
ATOM      6  C19 UNL     1      15.632  30.127  15.206  0.00  0.00    +0.004 A 
ATOM      7  C20 UNL     1      15.428  30.316  13.745  0.00  0.00    +0.039 C 
ATOM      8  C21 UNL     1      14.894  31.702  13.364  0.00  0.00    +0.006 C 
ATOM      9  C22 UNL     1      15.820  32.869  13.743  0.00  0.00    +0.022 C 
ATOM     10  C23 UNL     1      15.674  33.346  15.195  0.00  0.00    +0.124 C 
ATOM     11  N3  UNL     1      16.249  32.427  16.170  0.00  0.00    -0.325 N 
ATOM     12  C24 UNL     1      15.990  31.090  16.100  0.00  0.00    +0.123 A 
ENDROOT
BRANCH   1  16
ATOM     13  C2  UNL     1      17.351  36.617  19.065  0.00  0.00    +0.120 A 
ATOM     14  C3  UNL     1      16.115  36.013  19.303  0.00  0.00    +0.046 A 
ATOM     15  C4  UNL     1      15.839  34.736  18.805  0.00  0.00    +0.013 A 
ATOM     16  C5  UNL     1      16.799  34.042  18.063  0.00  0.00    +0.000 A 
ATOM     17  C6  UNL     1      18.037  34.653  17.823  0.00  0.00    +0.013 A 
ATOM     18  C7  UNL     1      18.314  35.932  18.322  0.00  0.00    +0.046 A 
BRANCH  13  20
ATOM     19  C1  UNL     1      16.308  38.499  20.075  0.00  0.00    +0.277 C 
ATOM     20  O1  UNL     1      17.492  37.864  19.608  0.00  0.00    -0.495 OA
ENDBRANCH  13  20
ENDBRANCH   1  16
BRANCH   5  21
ATOM     21  C25 UNL     1      15.209  27.581  15.539  0.00  0.00    -0.015 A 
ATOM     22  C26 UNL     1      14.026  26.981  15.978  0.00  0.00    +0.008 A 
ATOM     23  C27 UNL     1      13.691  25.695  15.550  0.00  0.00    +0.001 A 
ATOM     24  C28 UNL     1      14.540  25.003  14.686  0.00  0.00    +0.000 A 
ATOM     25  C29 UNL     1      15.723  25.596  14.248  0.00  0.00    +0.001 A 
ATOM     26  C30 UNL     1      16.058  26.883  14.673  0.00  0.00    +0.008 A 
ENDBRANCH   5  21
BRANCH   4  27
ATOM     27  C11 UNL     1      15.914  28.364  18.495  0.00  0.00    +0.266 C 
ATOM     28  O2  UNL     1      14.988  28.287  19.293  0.00  0.00    -0.268 OA
ATOM     29  N2  UNL     1      17.106  27.670  18.589  0.00  0.00    -0.279 N 
ATOM     30  H9  UNL     1      17.816  27.890  17.900  0.00  0.00    +0.155 HD
BRANCH  29  31
ATOM     31  C12 UNL     1      17.501  26.722  19.560  0.00  0.00    +0.052 A 
ATOM     32  C13 UNL     1      18.047  27.068  20.798  0.00  0.00    +0.025 A 
ATOM     33  C14 UNL     1      18.416  26.076  21.716  0.00  0.00    +0.002 A 
ATOM     34  C15 UNL     1      18.244  24.729  21.407  0.00  0.00    +0.002 A 
ATOM     35  C16 UNL     1      17.698  24.366  20.178  0.00  0.00    +0.022 A 
ATOM     36  C17 UNL     1      17.329  25.356  19.263  0.00  0.00    +0.062 A 
ATOM     37 CL1  UNL     1      16.639  24.854  17.755  0.00  0.00    -0.082 Cl
ENDBRANCH  29  31
ENDBRANCH   4  27
TORSDOF 5
ENDMDL
MODEL 6
REMARK VINA RESULT:    -3.161      3.501      9.895
REMARK INTER + INTRA:          -6.133
REMARK INTER:                  -3.939
REMARK INTRA:                  -2.194
REMARK UNBOUND:                -2.048
REMARK  Name = /home/vital/Documents/PhD_2021/Malaria_codes/data/pdb_ligands_mmv/ligand_326.pdb
REMARK  6 active torsions:
REMARK  status: ('A' for Active; 'I' for Inactive)
REMARK    1  A    between atoms: C1_1  and  O1_2
REMARK    2  A    between atoms: O1_2  and  C2_3
REMARK    3  A    between atoms: C5_6  and  C8_9
REMARK    4  A    between atoms: C10_12  and  C11_13
REMARK    5  A    between atoms: N2_15  and  C12_16
REMARK    6  A    between atoms: C18_23  and  C25_31
REMARK                            x       y       z     vdW  Elec       q    Type
REMARK                         _______ _______ _______ _____ _____    ______ ____
ROOT
ATOM      1  C8  UNL     1      15.414  28.928  15.832  0.00  0.00    +0.067 A 
ATOM      2  C9  UNL     1      15.480  29.604  17.003  0.00  0.00    +0.119 A 
ATOM      3  N1  UNL     1      15.549  30.946  16.676  0.00  0.00    -0.295 N 
ATOM      4  C10 UNL     1      15.682  32.164  17.284  0.00  0.00    +0.118 A 
ATOM      5  C18 UNL     1      15.693  33.106  16.242  0.00  0.00    +0.018 A 
ATOM      6  C19 UNL     1      15.603  32.410  14.977  0.00  0.00    +0.004 A 
ATOM      7  C20 UNL     1      15.552  32.964  13.598  0.00  0.00    +0.039 C 
ATOM      8  C21 UNL     1      16.132  32.031  12.529  0.00  0.00    +0.006 C 
ATOM      9  C22 UNL     1      15.405  30.684  12.394  0.00  0.00    +0.022 C 
ATOM     10  C23 UNL     1      15.860  29.616  13.399  0.00  0.00    +0.124 C 
ATOM     11  N3  UNL     1      15.392  29.860  14.758  0.00  0.00    -0.325 N 
ATOM     12  C24 UNL     1      15.508  31.096  15.321  0.00  0.00    +0.123 A 
ENDROOT
BRANCH   1  16
ATOM     13  C2  UNL     1      15.234  24.684  15.341  0.00  0.00    +0.120 A 
ATOM     14  C3  UNL     1      16.461  25.327  15.517  0.00  0.00    +0.046 A 
ATOM     15  C4  UNL     1      16.522  26.714  15.678  0.00  0.00    +0.013 A 
ATOM     16  C5  UNL     1      15.352  27.480  15.669  0.00  0.00    +0.000 A 
ATOM     17  C6  UNL     1      14.124  26.832  15.487  0.00  0.00    +0.013 A 
ATOM     18  C7  UNL     1      14.063  25.443  15.326  0.00  0.00    +0.046 A 
BRANCH  13  20
ATOM     19  C1  UNL     1      15.882  22.598  16.277  0.00  0.00    +0.277 C 
ATOM     20  O1  UNL     1      15.316  23.327  15.196  0.00  0.00    -0.495 OA
ENDBRANCH  13  20
ENDBRANCH   1  16
BRANCH   5  21
ATOM     21  C25 UNL     1      15.842  34.535  16.461  0.00  0.00    -0.015 A 
ATOM     22  C26 UNL     1      17.091  35.147  16.329  0.00  0.00    +0.008 A 
ATOM     23  C27 UNL     1      17.228  36.518  16.553  0.00  0.00    +0.001 A 
ATOM     24  C28 UNL     1      16.117  37.281  16.916  0.00  0.00    +0.000 A 
ATOM     25  C29 UNL     1      14.869  36.674  17.052  0.00  0.00    +0.001 A 
ATOM     26  C30 UNL     1      14.730  35.304  16.825  0.00  0.00    +0.008 A 
ENDBRANCH   5  21
BRANCH   4  27
ATOM     27  C11 UNL     1      15.769  32.354  18.715  0.00  0.00    +0.266 C 
ATOM     28  O2  UNL     1      14.795  32.259  19.451  0.00  0.00    -0.268 OA
ATOM     29  N2  UNL     1      17.053  32.654  19.129  0.00  0.00    -0.279 N 
ATOM     30  H9  UNL     1      17.748  32.780  18.401  0.00  0.00    +0.155 HD
BRANCH  29  31
ATOM     31  C12 UNL     1      17.531  32.870  20.441  0.00  0.00    +0.052 A 
ATOM     32  C13 UNL     1      18.124  31.872  21.219  0.00  0.00    +0.025 A 
ATOM     33  C14 UNL     1      18.579  32.155  22.513  0.00  0.00    +0.002 A 
ATOM     34  C15 UNL     1      18.447  33.435  23.044  0.00  0.00    +0.002 A 
ATOM     35  C16 UNL     1      17.862  34.443  22.282  0.00  0.00    +0.022 A 
ATOM     36  C17 UNL     1      17.409  34.161  20.990  0.00  0.00    +0.062 A 
ATOM     37 CL1  UNL     1      16.703  35.452  20.074  0.00  0.00    -0.082 Cl
ENDBRANCH  29  31
ENDBRANCH   4  27
TORSDOF 5
ENDMDL
MODEL 7
REMARK VINA RESULT:    -3.091      3.240      9.704
REMARK INTER + INTRA:          -6.043
REMARK INTER:                  -4.150
REMARK INTRA:                  -1.893
REMARK UNBOUND:                -2.048
REMARK  Name = /home/vital/Documents/PhD_2021/Malaria_codes/data/pdb_ligands_mmv/ligand_326.pdb
REMARK  6 active torsions:
REMARK  status: ('A' for Active; 'I' for Inactive)
REMARK    1  A    between atoms: C1_1  and  O1_2
REMARK    2  A    between atoms: O1_2  and  C2_3
REMARK    3  A    between atoms: C5_6  and  C8_9
REMARK    4  A    between atoms: C10_12  and  C11_13
REMARK    5  A    between atoms: N2_15  and  C12_16
REMARK    6  A    between atoms: C18_23  and  C25_31
REMARK                            x       y       z     vdW  Elec       q    Type
REMARK                         _______ _______ _______ _____ _____    ______ ____
ROOT
ATOM      1  C8  UNL     1      15.535  29.274  20.269  0.00  0.00    +0.067 A 
ATOM      2  C9  UNL     1      15.777  30.529  19.823  0.00  0.00    +0.119 A 
ATOM      3  N1  UNL     1      15.707  30.473  18.443  0.00  0.00    -0.295 N 
ATOM      4  C10 UNL     1      15.879  31.283  17.354  0.00  0.00    +0.118 A 
ATOM      5  C18 UNL     1      15.642  30.467  16.236  0.00  0.00    +0.018 A 
ATOM      6  C19 UNL     1      15.360  29.121  16.686  0.00  0.00    +0.004 A 
ATOM      7  C20 UNL     1      15.022  27.912  15.890  0.00  0.00    +0.039 C 
ATOM      8  C21 UNL     1      15.448  26.593  16.546  0.00  0.00    +0.006 C 
ATOM      9  C22 UNL     1      14.788  26.315  17.905  0.00  0.00    +0.022 C 
ATOM     10  C23 UNL     1      15.482  26.991  19.096  0.00  0.00    +0.124 C 
ATOM     11  N3  UNL     1      15.260  28.430  19.158  0.00  0.00    -0.325 N 
ATOM     12  C24 UNL     1      15.406  29.203  18.045  0.00  0.00    +0.123 A 
ENDROOT
BRANCH   1  16
ATOM     13  C2  UNL     1      15.515  27.972  24.342  0.00  0.00    +0.120 A 
ATOM     14  C3  UNL     1      16.720  28.195  23.674  0.00  0.00    +0.046 A 
ATOM     15  C4  UNL     1      16.729  28.620  22.343  0.00  0.00    +0.013 A 
ATOM     16  C5  UNL     1      15.528  28.834  21.660  0.00  0.00    +0.000 A 
ATOM     17  C6  UNL     1      14.320  28.606  22.332  0.00  0.00    +0.013 A 
ATOM     18  C7  UNL     1      14.312  28.179  23.666  0.00  0.00    +0.046 A 
BRANCH  13  20
ATOM     19  C1  UNL     1      16.742  26.699  25.931  0.00  0.00    +0.277 C 
ATOM     20  O1  UNL     1      15.648  27.559  25.640  0.00  0.00    -0.495 OA
ENDBRANCH  13  20
ENDBRANCH   1  16
BRANCH   5  21
ATOM     21  C25 UNL     1      15.745  30.941  14.866  0.00  0.00    -0.015 A 
ATOM     22  C26 UNL     1      14.627  31.459  14.208  0.00  0.00    +0.008 A 
ATOM     23  C27 UNL     1      14.732  31.900  12.887  0.00  0.00    +0.001 A 
ATOM     24  C28 UNL     1      15.954  31.821  12.220  0.00  0.00    +0.000 A 
ATOM     25  C29 UNL     1      17.073  31.303  12.872  0.00  0.00    +0.001 A 
ATOM     26  C30 UNL     1      16.969  30.863  14.193  0.00  0.00    +0.008 A 
ENDBRANCH   5  21
BRANCH   4  27
ATOM     27  C11 UNL     1      16.219  32.687  17.430  0.00  0.00    +0.266 C 
ATOM     28  O2  UNL     1      17.338  33.076  17.740  0.00  0.00    -0.268 OA
ATOM     29  N2  UNL     1      15.148  33.506  17.123  0.00  0.00    -0.279 N 
ATOM     30  H9  UNL     1      14.258  33.048  16.962  0.00  0.00    +0.155 HD
BRANCH  29  31
ATOM     31  C12 UNL     1      15.106  34.916  17.055  0.00  0.00    +0.052 A 
ATOM     32  C13 UNL     1      15.679  35.656  16.018  0.00  0.00    +0.025 A 
ATOM     33  C14 UNL     1      15.598  37.054  16.012  0.00  0.00    +0.002 A 
ATOM     34  C15 UNL     1      14.943  37.729  17.040  0.00  0.00    +0.002 A 
ATOM     35  C16 UNL     1      14.362  37.007  18.080  0.00  0.00    +0.022 A 
ATOM     36  C17 UNL     1      14.443  35.611  18.086  0.00  0.00    +0.062 A 
ATOM     37 CL1  UNL     1      13.690  34.758  19.393  0.00  0.00    -0.082 Cl
ENDBRANCH  29  31
ENDBRANCH   4  27
TORSDOF 5
ENDMDL
MODEL 8
REMARK VINA RESULT:    -2.985      6.797     12.767
REMARK INTER + INTRA:          -5.906
REMARK INTER:                  -3.773
REMARK INTRA:                  -2.133
REMARK UNBOUND:                -2.048
REMARK  Name = /home/vital/Documents/PhD_2021/Malaria_codes/data/pdb_ligands_mmv/ligand_326.pdb
REMARK  6 active torsions:
REMARK  status: ('A' for Active; 'I' for Inactive)
REMARK    1  A    between atoms: C1_1  and  O1_2
REMARK    2  A    between atoms: O1_2  and  C2_3
REMARK    3  A    between atoms: C5_6  and  C8_9
REMARK    4  A    between atoms: C10_12  and  C11_13
REMARK    5  A    between atoms: N2_15  and  C12_16
REMARK    6  A    between atoms: C18_23  and  C25_31
REMARK                            x       y       z     vdW  Elec       q    Type
REMARK                         _______ _______ _______ _____ _____    ______ ____
ROOT
ATOM      1  C8  UNL     1      18.209  41.330  16.165  0.00  0.00    +0.067 A 
ATOM      2  C9  UNL     1      18.686  42.001  17.239  0.00  0.00    +0.119 A 
ATOM      3  N1  UNL     1      19.704  42.813  16.770  0.00  0.00    -0.295 N 
ATOM      4  C10 UNL     1      20.638  43.694  17.242  0.00  0.00    +0.118 A 
ATOM      5  C18 UNL     1      21.359  44.116  16.113  0.00  0.00    +0.018 A 
ATOM      6  C19 UNL     1      20.855  43.428  14.946  0.00  0.00    +0.004 A 
ATOM      7  C20 UNL     1      21.271  43.553  13.524  0.00  0.00    +0.039 C 
ATOM      8  C21 UNL     1      21.059  42.279  12.697  0.00  0.00    +0.006 C 
ATOM      9  C22 UNL     1      19.597  41.820  12.596  0.00  0.00    +0.022 C 
ATOM     10  C23 UNL     1      19.113  40.981  13.787  0.00  0.00    +0.124 C 
ATOM     11  N3  UNL     1      18.901  41.761  15.000  0.00  0.00    -0.325 N 
ATOM     12  C24 UNL     1      19.838  42.657  15.422  0.00  0.00    +0.123 A 
ENDROOT
BRANCH   1  16
ATOM     13  C2  UNL     1      15.085  38.409  16.164  0.00  0.00    +0.120 A 
ATOM     14  C3  UNL     1      16.314  38.134  16.766  0.00  0.00    +0.046 A 
ATOM     15  C4  UNL     1      17.336  39.087  16.767  0.00  0.00    +0.013 A 
ATOM     16  C5  UNL     1      17.141  40.335  16.168  0.00  0.00    +0.000 A 
ATOM     17  C6  UNL     1      15.908  40.607  15.562  0.00  0.00    +0.013 A 
ATOM     18  C7  UNL     1      14.884  39.651  15.561  0.00  0.00    +0.046 A 
BRANCH  13  20
ATOM     19  C1  UNL     1      14.472  36.321  17.121  0.00  0.00    +0.277 C 
ATOM     20  O1  UNL     1      14.173  37.392  16.234  0.00  0.00    -0.495 OA
ENDBRANCH  13  20
ENDBRANCH   1  16
BRANCH   5  21
ATOM     21  C25 UNL     1      22.472  45.050  16.182  0.00  0.00    -0.015 A 
ATOM     22  C26 UNL     1      22.254  46.424  16.052  0.00  0.00    +0.008 A 
ATOM     23  C27 UNL     1      23.330  47.312  16.106  0.00  0.00    +0.001 A 
ATOM     24  C28 UNL     1      24.627  46.829  16.284  0.00  0.00    +0.000 A 
ATOM     25  C29 UNL     1      24.849  45.459  16.411  0.00  0.00    +0.001 A 
ATOM     26  C30 UNL     1      23.774  44.570  16.360  0.00  0.00    +0.008 A 
ENDBRANCH   5  21
BRANCH   4  27
ATOM     27  C11 UNL     1      20.774  44.070  18.632  0.00  0.00    +0.266 C 
ATOM     28  O2  UNL     1      21.148  43.281  19.491  0.00  0.00    -0.268 OA
ATOM     29  N2  UNL     1      20.434  45.390  18.856  0.00  0.00    -0.279 N 
ATOM     30  H9  UNL     1      20.065  45.906  18.064  0.00  0.00    +0.155 HD
BRANCH  29  31
ATOM     31  C12 UNL     1      20.474  46.120  20.066  0.00  0.00    +0.052 A 
ATOM     32  C13 UNL     1      19.345  46.386  20.844  0.00  0.00    +0.025 A 
ATOM     33  C14 UNL     1      19.456  47.114  22.035  0.00  0.00    +0.002 A 
ATOM     34  C15 UNL     1      20.696  47.583  22.462  0.00  0.00    +0.002 A 
ATOM     35  C16 UNL     1      21.833  47.324  21.701  0.00  0.00    +0.022 A 
ATOM     36  C17 UNL     1      21.722  46.597  20.513  0.00  0.00    +0.062 A 
ATOM     37 CL1  UNL     1      23.168  46.286  19.610  0.00  0.00    -0.082 Cl
ENDBRANCH  29  31
ENDBRANCH   4  27
TORSDOF 5
ENDMDL
MODEL 9
REMARK VINA RESULT:    -1.402      6.726     11.073
REMARK INTER + INTRA:          -3.860
REMARK INTER:                  -1.708
REMARK INTRA:                  -2.151
REMARK UNBOUND:                -2.048
REMARK  Name = /home/vital/Documents/PhD_2021/Malaria_codes/data/pdb_ligands_mmv/ligand_326.pdb
REMARK  6 active torsions:
REMARK  status: ('A' for Active; 'I' for Inactive)
REMARK    1  A    between atoms: C1_1  and  O1_2
REMARK    2  A    between atoms: O1_2  and  C2_3
REMARK    3  A    between atoms: C5_6  and  C8_9
REMARK    4  A    between atoms: C10_12  and  C11_13
REMARK    5  A    between atoms: N2_15  and  C12_16
REMARK    6  A    between atoms: C18_23  and  C25_31
REMARK                            x       y       z     vdW  Elec       q    Type
REMARK                         _______ _______ _______ _____ _____    ______ ____
ROOT
ATOM      1  C8  UNL     1      21.959  26.982  16.551  0.00  0.00    +0.067 A 
ATOM      2  C9  UNL     1      21.053  27.769  15.926  0.00  0.00    +0.119 A 
ATOM      3  N1  UNL     1      19.828  27.142  16.067  0.00  0.00    -0.295 N 
ATOM      4  C10 UNL     1      18.525  27.298  15.681  0.00  0.00    +0.118 A 
ATOM      5  C18 UNL     1      17.840  26.196  16.219  0.00  0.00    +0.018 A 
ATOM      6  C19 UNL     1      18.784  25.346  16.911  0.00  0.00    +0.004 A 
ATOM      7  C20 UNL     1      18.543  24.085  17.662  0.00  0.00    +0.039 C 
ATOM      8  C21 UNL     1      19.739  23.125  17.669  0.00  0.00    +0.006 C 
ATOM      9  C22 UNL     1      21.006  23.690  18.329  0.00  0.00    +0.022 C 
ATOM     10  C23 UNL     1      21.867  24.561  17.403  0.00  0.00    +0.124 C 
ATOM     11  N3  UNL     1      21.288  25.872  17.134  0.00  0.00    -0.325 N 
ATOM     12  C24 UNL     1      19.976  25.993  16.786  0.00  0.00    +0.123 A 
ENDROOT
BRANCH   1  16
ATOM     13  C2  UNL     1      26.171  27.666  16.836  0.00  0.00    +0.120 A 
ATOM     14  C3  UNL     1      25.610  27.172  15.657  0.00  0.00    +0.046 A 
ATOM     15  C4  UNL     1      24.234  26.947  15.562  0.00  0.00    +0.013 A 
ATOM     16  C5  UNL     1      23.396  27.220  16.647  0.00  0.00    +0.000 A 
ATOM     17  C6  UNL     1      23.962  27.712  17.830  0.00  0.00    +0.013 A 
ATOM     18  C7  UNL     1      25.341  27.937  17.925  0.00  0.00    +0.046 A 
BRANCH  13  20
ATOM     19  C1  UNL     1      28.110  28.597  17.848  0.00  0.00    +0.277 C 
ATOM     20  O1  UNL     1      27.527  27.840  16.795  0.00  0.00    -0.495 OA
ENDBRANCH  13  20
ENDBRANCH   1  16
BRANCH   5  21
ATOM     21  C25 UNL     1      16.419  25.966  16.020  0.00  0.00    -0.015 A 
ATOM     22  C26 UNL     1      15.488  26.412  16.963  0.00  0.00    +0.008 A 
ATOM     23  C27 UNL     1      14.126  26.175  16.770  0.00  0.00    +0.001 A 
ATOM     24  C28 UNL     1      13.690  25.488  15.637  0.00  0.00    +0.000 A 
ATOM     25  C29 UNL     1      14.614  25.039  14.694  0.00  0.00    +0.001 A 
ATOM     26  C30 UNL     1      15.977  25.277  14.885  0.00  0.00    +0.008 A 
ENDBRANCH   5  21
BRANCH   4  27
ATOM     27  C11 UNL     1      18.036  28.407  14.893  0.00  0.00    +0.266 C 
ATOM     28  O2  UNL     1      18.352  28.571  13.721  0.00  0.00    -0.268 OA
ATOM     29  N2  UNL     1      17.196  29.235  15.614  0.00  0.00    -0.279 N 
ATOM     30  H9  UNL     1      17.085  29.023  16.600  0.00  0.00    +0.155 HD
BRANCH  29  31
ATOM     31  C12 UNL     1      16.504  30.388  15.179  0.00  0.00    +0.052 A 
ATOM     32  C13 UNL     1      16.912  31.691  15.477  0.00  0.00    +0.025 A 
ATOM     33  C14 UNL     1      16.179  32.789  15.012  0.00  0.00    +0.002 A 
ATOM     34  C15 UNL     1      15.034  32.600  14.242  0.00  0.00    +0.002 A 
ATOM     35  C16 UNL     1      14.615  31.309  13.932  0.00  0.00    +0.022 A 
ATOM     36  C17 UNL     1      15.347  30.212  14.396  0.00  0.00    +0.062 A 
ATOM     37 CL1  UNL     1      14.795  28.625  13.970  0.00  0.00    -0.082 Cl
ENDBRANCH  29  31
ENDBRANCH   4  27
TORSDOF 5
ENDMDL
