MODEL 1
REMARK VINA RESULT:    -3.637      0.000      0.000
REMARK INTER + INTRA:          -5.947
REMARK INTER:                  -4.700
REMARK INTRA:                  -1.247
REMARK UNBOUND:                -1.247
REMARK  Name = /home/vital/Documents/PhD_2021/Malaria_codes/data/pdb_ligands_mmv/ligand_16.pdb
REMARK  5 active torsions:
REMARK  status: ('A' for Active; 'I' for Inactive)
REMARK    1  A    between atoms: C6_8  and  N2_9
REMARK    2  A    between atoms: N2_9  and  C7_10
REMARK    3  A    between atoms: C7_10  and  C8_11
REMARK    4  A    between atoms: C8_11  and  C9_12
REMARK    5  A    between atoms: C9_12  and  N3_13
REMARK                            x       y       z     vdW  Elec       q    Type
REMARK                         _______ _______ _______ _____ _____    ______ ____
ROOT
ATOM      1  F1  UNL     1      14.877  31.137  13.583  0.00  0.00    -0.205 F 
ATOM      2  C1  UNL     1      15.017  30.175  14.505  0.00  0.00    +0.124 A 
ATOM      3  C2  UNL     1      15.269  30.535  15.824  0.00  0.00    +0.040 A 
ATOM      4  C3  UNL     1      15.421  29.559  16.813  0.00  0.00    +0.029 A 
ATOM      5  C4  UNL     1      15.310  28.220  16.417  0.00  0.00    +0.049 A 
ATOM      6  N1  UNL     1      15.409  27.062  17.156  0.00  0.00    -0.350 N 
ATOM      7  C5  UNL     1      15.241  25.957  16.358  0.00  0.00    +0.106 A 
ATOM      8  C6  UNL     1      15.262  24.597  16.637  0.00  0.00    +0.146 A 
ATOM      9  N4  UNL     1      15.032  23.763  15.602  0.00  0.00    -0.219 NA
ATOM     10  C14 UNL     1      14.811  24.290  14.382  0.00  0.00    +0.224 A 
ATOM     11  N5  UNL     1      14.789  25.583  14.030  0.00  0.00    -0.233 NA
ATOM     12  C15 UNL     1      15.010  26.415  15.071  0.00  0.00    +0.101 A 
ATOM     13  C16 UNL     1      15.058  27.838  15.096  0.00  0.00    +0.029 A 
ATOM     14  C17 UNL     1      14.907  28.841  14.117  0.00  0.00    +0.050 A 
ATOM     15  H3  UNL     1      15.576  27.022  18.152  0.00  0.00    +0.166 HD
ENDROOT
BRANCH   8  16
ATOM     16  N2  UNL     1      15.493  24.119  17.922  0.00  0.00    -0.327 N 
ATOM     17  H4  UNL     1      15.570  24.875  18.605  0.00  0.00    +0.148 HD
BRANCH  16  18
ATOM     18  C7  UNL     1      16.609  23.194  18.051  0.00  0.00    +0.104 C 
BRANCH  18  19
ATOM     19  C8  UNL     1      17.908  23.886  17.620  0.00  0.00    +0.034 C 
BRANCH  19  20
ATOM     20  C9  UNL     1      18.528  24.768  18.722  0.00  0.00    +0.086 C 
BRANCH  20  21
ATOM     21  N3  UNL     1      17.884  26.092  18.872  0.00  0.00    -0.298 NA
ATOM     22  C10 UNL     1      18.839  27.187  18.573  0.00  0.00    +0.112 C 
ATOM     23  C11 UNL     1      19.893  27.423  19.668  0.00  0.00    +0.175 C 
ATOM     24  O1  UNL     1      19.272  27.675  20.933  0.00  0.00    -0.377 OA
ATOM     25  C12 UNL     1      18.426  26.583  21.311  0.00  0.00    +0.175 C 
ATOM     26  C13 UNL     1      17.352  26.313  20.242  0.00  0.00    +0.112 C 
ENDBRANCH  20  21
ENDBRANCH  19  20
ENDBRANCH  18  19
ENDBRANCH  16  18
ENDBRANCH   8  16
TORSDOF 5
ENDMDL
MODEL 2
REMARK VINA RESULT:    -3.415      3.140      5.771
REMARK INTER + INTRA:          -5.659
REMARK INTER:                  -4.356
REMARK INTRA:                  -1.303
REMARK UNBOUND:                -1.247
REMARK  Name = /home/vital/Documents/PhD_2021/Malaria_codes/data/pdb_ligands_mmv/ligand_16.pdb
REMARK  5 active torsions:
REMARK  status: ('A' for Active; 'I' for Inactive)
REMARK    1  A    between atoms: C6_8  and  N2_9
REMARK    2  A    between atoms: N2_9  and  C7_10
REMARK    3  A    between atoms: C7_10  and  C8_11
REMARK    4  A    between atoms: C8_11  and  C9_12
REMARK    5  A    between atoms: C9_12  and  N3_13
REMARK                            x       y       z     vdW  Elec       q    Type
REMARK                         _______ _______ _______ _____ _____    ______ ____
ROOT
ATOM      1  F1  UNL     1      21.866  25.838  19.100  0.00  0.00    -0.205 F 
ATOM      2  C1  UNL     1      20.898  25.945  18.179  0.00  0.00    +0.124 A 
ATOM      3  C2  UNL     1      21.022  26.901  17.177  0.00  0.00    +0.040 A 
ATOM      4  C3  UNL     1      20.033  27.042  16.199  0.00  0.00    +0.029 A 
ATOM      5  C4  UNL     1      18.926  26.187  16.277  0.00  0.00    +0.049 A 
ATOM      6  N1  UNL     1      17.816  26.092  15.467  0.00  0.00    -0.350 N 
ATOM      7  C5  UNL     1      16.966  25.112  15.917  0.00  0.00    +0.106 A 
ATOM      8  C6  UNL     1      15.741  24.658  15.448  0.00  0.00    +0.146 A 
ATOM      9  N4  UNL     1      15.172  23.641  16.127  0.00  0.00    -0.219 NA
ATOM     10  C14 UNL     1      15.810  23.143  17.204  0.00  0.00    +0.224 A 
ATOM     11  N5  UNL     1      16.981  23.534  17.727  0.00  0.00    -0.233 NA
ATOM     12  C15 UNL     1      17.552  24.546  17.038  0.00  0.00    +0.101 A 
ATOM     13  C16 UNL     1      18.784  25.220  17.277  0.00  0.00    +0.029 A 
ATOM     14  C17 UNL     1      19.795  25.097  18.250  0.00  0.00    +0.050 A 
ATOM     15  H3  UNL     1      17.645  26.659  14.649  0.00  0.00    +0.166 HD
ENDROOT
BRANCH   8  16
ATOM     16  N2  UNL     1      15.137  25.214  14.326  0.00  0.00    -0.327 N 
ATOM     17  H4  UNL     1      15.702  25.960  13.917  0.00  0.00    +0.148 HD
BRANCH  16  18
ATOM     18  C7  UNL     1      13.761  25.652  14.511  0.00  0.00    +0.104 C 
BRANCH  18  19
ATOM     19  C8  UNL     1      13.743  27.096  15.028  0.00  0.00    +0.034 C 
BRANCH  19  20
ATOM     20  C9  UNL     1      14.611  28.057  14.194  0.00  0.00    +0.086 C 
BRANCH  20  21
ATOM     21  N3  UNL     1      15.950  28.318  14.768  0.00  0.00    -0.298 NA
ATOM     22  C10 UNL     1      15.845  29.030  16.065  0.00  0.00    +0.112 C 
ATOM     23  C11 UNL     1      15.457  30.513  15.943  0.00  0.00    +0.175 C 
ATOM     24  O1  UNL     1      16.374  31.216  15.097  0.00  0.00    -0.377 OA
ATOM     25  C12 UNL     1      16.417  30.624  13.793  0.00  0.00    +0.175 C 
ATOM     26  C13 UNL     1      16.804  29.136  13.868  0.00  0.00    +0.112 C 
ENDBRANCH  20  21
ENDBRANCH  19  20
ENDBRANCH  18  19
ENDBRANCH  16  18
ENDBRANCH   8  16
TORSDOF 5
ENDMDL
MODEL 3
REMARK VINA RESULT:    -3.370      1.286      1.549
REMARK INTER + INTRA:          -5.602
REMARK INTER:                  -4.291
REMARK INTRA:                  -1.311
REMARK UNBOUND:                -1.247
REMARK  Name = /home/vital/Documents/PhD_2021/Malaria_codes/data/pdb_ligands_mmv/ligand_16.pdb
REMARK  5 active torsions:
REMARK  status: ('A' for Active; 'I' for Inactive)
REMARK    1  A    between atoms: C6_8  and  N2_9
REMARK    2  A    between atoms: N2_9  and  C7_10
REMARK    3  A    between atoms: C7_10  and  C8_11
REMARK    4  A    between atoms: C8_11  and  C9_12
REMARK    5  A    between atoms: C9_12  and  N3_13
REMARK                            x       y       z     vdW  Elec       q    Type
REMARK                         _______ _______ _______ _____ _____    ______ ____
ROOT
ATOM      1  F1  UNL     1      15.315  31.365  12.359  0.00  0.00    -0.205 F 
ATOM      2  C1  UNL     1      15.340  30.561  13.431  0.00  0.00    +0.124 A 
ATOM      3  C2  UNL     1      15.597  31.111  14.682  0.00  0.00    +0.040 A 
ATOM      4  C3  UNL     1      15.631  30.303  15.822  0.00  0.00    +0.029 A 
ATOM      5  C4  UNL     1      15.397  28.933  15.647  0.00  0.00    +0.049 A 
ATOM      6  N1  UNL     1      15.365  27.911  16.570  0.00  0.00    -0.350 N 
ATOM      7  C5  UNL     1      15.106  26.710  15.957  0.00  0.00    +0.106 A 
ATOM      8  C6  UNL     1      14.986  25.419  16.456  0.00  0.00    +0.146 A 
ATOM      9  N4  UNL     1      14.697  24.450  15.564  0.00  0.00    -0.219 NA
ATOM     10  C14 UNL     1      14.555  24.784  14.266  0.00  0.00    +0.224 A 
ATOM     11  N5  UNL     1      14.669  25.996  13.706  0.00  0.00    -0.233 NA
ATOM     12  C15 UNL     1      14.948  26.966  14.605  0.00  0.00    +0.101 A 
ATOM     13  C16 UNL     1      15.136  28.363  14.398  0.00  0.00    +0.029 A 
ATOM     14  C17 UNL     1      15.106  29.198  13.263  0.00  0.00    +0.050 A 
ATOM     15  H3  UNL     1      15.506  28.022  17.563  0.00  0.00    +0.166 HD
ENDROOT
BRANCH   8  16
ATOM     16  N2  UNL     1      15.141  25.142  17.810  0.00  0.00    -0.327 N 
ATOM     17  H4  UNL     1      15.518  25.941  18.323  0.00  0.00    +0.148 HD
BRANCH  16  18
ATOM     18  C7  UNL     1      15.889  23.932  18.117  0.00  0.00    +0.104 C 
BRANCH  18  19
ATOM     19  C8  UNL     1      17.393  24.220  18.038  0.00  0.00    +0.034 C 
BRANCH  19  20
ATOM     20  C9  UNL     1      17.826  25.452  18.856  0.00  0.00    +0.086 C 
BRANCH  20  21
ATOM     21  N3  UNL     1      17.973  26.689  18.057  0.00  0.00    -0.298 NA
ATOM     22  C10 UNL     1      18.773  26.442  16.832  0.00  0.00    +0.112 C 
ATOM     23  C11 UNL     1      20.279  26.265  17.087  0.00  0.00    +0.175 C 
ATOM     24  O1  UNL     1      20.820  27.396  17.779  0.00  0.00    -0.377 OA
ATOM     25  C12 UNL     1      20.144  27.598  19.026  0.00  0.00    +0.175 C 
ATOM     26  C13 UNL     1      18.631  27.783  18.818  0.00  0.00    +0.112 C 
ENDBRANCH  20  21
ENDBRANCH  19  20
ENDBRANCH  18  19
ENDBRANCH  16  18
ENDBRANCH   8  16
TORSDOF 5
ENDMDL
MODEL 4
REMARK VINA RESULT:    -3.318      2.355      2.861
REMARK INTER + INTRA:          -5.535
REMARK INTER:                  -4.350
REMARK INTRA:                  -1.185
REMARK UNBOUND:                -1.247
REMARK  Name = /home/vital/Documents/PhD_2021/Malaria_codes/data/pdb_ligands_mmv/ligand_16.pdb
REMARK  5 active torsions:
REMARK  status: ('A' for Active; 'I' for Inactive)
REMARK    1  A    between atoms: C6_8  and  N2_9
REMARK    2  A    between atoms: N2_9  and  C7_10
REMARK    3  A    between atoms: C7_10  and  C8_11
REMARK    4  A    between atoms: C8_11  and  C9_12
REMARK    5  A    between atoms: C9_12  and  N3_13
REMARK                            x       y       z     vdW  Elec       q    Type
REMARK                         _______ _______ _______ _____ _____    ______ ____
ROOT
ATOM      1  F1  UNL     1      14.635  31.931  12.607  0.00  0.00    -0.205 F 
ATOM      2  C1  UNL     1      14.844  31.245  13.739  0.00  0.00    +0.124 A 
ATOM      3  C2  UNL     1      15.463  31.881  14.809  0.00  0.00    +0.040 A 
ATOM      4  C3  UNL     1      15.697  31.198  16.006  0.00  0.00    +0.029 A 
ATOM      5  C4  UNL     1      15.284  29.861  16.074  0.00  0.00    +0.049 A 
ATOM      6  N1  UNL     1      15.378  28.953  17.105  0.00  0.00    -0.350 N 
ATOM      7  C5  UNL     1      14.849  27.740  16.736  0.00  0.00    +0.106 A 
ATOM      8  C6  UNL     1      14.723  26.536  17.416  0.00  0.00    +0.146 A 
ATOM      9  N4  UNL     1      14.120  25.527  16.754  0.00  0.00    -0.219 NA
ATOM     10  C14 UNL     1      13.693  25.743  15.495  0.00  0.00    +0.224 A 
ATOM     11  N5  UNL     1      13.789  26.865  14.768  0.00  0.00    -0.233 NA
ATOM     12  C15 UNL     1      14.385  27.875  15.438  0.00  0.00    +0.101 A 
ATOM     13  C16 UNL     1      14.660  29.206  15.009  0.00  0.00    +0.029 A 
ATOM     14  C17 UNL     1      14.434  29.916  13.813  0.00  0.00    +0.050 A 
ATOM     15  H3  UNL     1      15.775  29.145  18.014  0.00  0.00    +0.166 HD
ENDROOT
BRANCH   8  16
ATOM     16  N2  UNL     1      15.183  26.381  18.719  0.00  0.00    -0.327 N 
ATOM     17  H4  UNL     1      14.875  27.142  19.327  0.00  0.00    +0.148 HD
BRANCH  16  18
ATOM     18  C7  UNL     1      16.616  26.164  18.852  0.00  0.00    +0.104 C 
BRANCH  18  19
ATOM     19  C8  UNL     1      17.056  26.480  20.287  0.00  0.00    +0.034 C 
BRANCH  19  20
ATOM     20  C9  UNL     1      16.193  27.558  20.971  0.00  0.00    +0.086 C 
BRANCH  20  21
ATOM     21  N3  UNL     1      16.069  28.814  20.198  0.00  0.00    -0.298 NA
ATOM     22  C10 UNL     1      17.317  29.613  20.273  0.00  0.00    +0.112 C 
ATOM     23  C11 UNL     1      17.543  30.307  21.626  0.00  0.00    +0.175 C 
ATOM     24  O1  UNL     1      16.432  31.143  21.967  0.00  0.00    -0.377 OA
ATOM     25  C12 UNL     1      15.220  30.381  22.016  0.00  0.00    +0.175 C 
ATOM     26  C13 UNL     1      14.953  29.669  20.678  0.00  0.00    +0.112 C 
ENDBRANCH  20  21
ENDBRANCH  19  20
ENDBRANCH  18  19
ENDBRANCH  16  18
ENDBRANCH   8  16
TORSDOF 5
ENDMDL
MODEL 5
REMARK VINA RESULT:    -3.249      3.202      5.195
REMARK INTER + INTRA:          -5.445
REMARK INTER:                  -4.193
REMARK INTRA:                  -1.252
REMARK UNBOUND:                -1.247
REMARK  Name = /home/vital/Documents/PhD_2021/Malaria_codes/data/pdb_ligands_mmv/ligand_16.pdb
REMARK  5 active torsions:
REMARK  status: ('A' for Active; 'I' for Inactive)
REMARK    1  A    between atoms: C6_8  and  N2_9
REMARK    2  A    between atoms: N2_9  and  C7_10
REMARK    3  A    between atoms: C7_10  and  C8_11
REMARK    4  A    between atoms: C8_11  and  C9_12
REMARK    5  A    between atoms: C9_12  and  N3_13
REMARK                            x       y       z     vdW  Elec       q    Type
REMARK                         _______ _______ _______ _____ _____    ______ ____
ROOT
ATOM      1  F1  UNL     1      14.584  23.619  14.192  0.00  0.00    -0.205 F 
ATOM      2  C1  UNL     1      14.698  24.767  14.873  0.00  0.00    +0.124 A 
ATOM      3  C2  UNL     1      14.546  24.750  16.255  0.00  0.00    +0.040 A 
ATOM      4  C3  UNL     1      14.657  25.928  17.000  0.00  0.00    +0.029 A 
ATOM      5  C4  UNL     1      14.925  27.109  16.296  0.00  0.00    +0.049 A 
ATOM      6  N1  UNL     1      15.089  28.398  16.752  0.00  0.00    -0.350 N 
ATOM      7  C5  UNL     1      15.332  29.258  15.709  0.00  0.00    +0.106 A 
ATOM      8  C6  UNL     1      15.551  30.628  15.666  0.00  0.00    +0.146 A 
ATOM      9  N4  UNL     1      15.786  31.166  14.451  0.00  0.00    -0.219 NA
ATOM     10  C14 UNL     1      15.785  30.357  13.373  0.00  0.00    +0.224 A 
ATOM     11  N5  UNL     1      15.568  29.035  13.330  0.00  0.00    -0.233 NA
ATOM     12  C15 UNL     1      15.343  28.499  14.550  0.00  0.00    +0.101 A 
ATOM     13  C16 UNL     1      15.082  27.146  14.908  0.00  0.00    +0.029 A 
ATOM     14  C17 UNL     1      14.965  25.945  14.180  0.00  0.00    +0.050 A 
ATOM     15  H3  UNL     1      15.044  28.681  17.721  0.00  0.00    +0.166 HD
ENDROOT
BRANCH   8  16
ATOM     16  N2  UNL     1      15.543  31.406  16.819  0.00  0.00    -0.327 N 
ATOM     17  H4  UNL     1      14.869  32.171  16.759  0.00  0.00    +0.148 HD
BRANCH  16  18
ATOM     18  C7  UNL     1      16.843  31.897  17.249  0.00  0.00    +0.104 C 
BRANCH  18  19
ATOM     19  C8  UNL     1      17.550  30.825  18.088  0.00  0.00    +0.034 C 
BRANCH  19  20
ATOM     20  C9  UNL     1      16.886  30.581  19.457  0.00  0.00    +0.086 C 
BRANCH  20  21
ATOM     21  N3  UNL     1      15.785  29.593  19.429  0.00  0.00    -0.298 NA
ATOM     22  C10 UNL     1      14.556  30.147  20.050  0.00  0.00    +0.112 C 
ATOM     23  C11 UNL     1      14.611  30.247  21.583  0.00  0.00    +0.175 C 
ATOM     24  O1  UNL     1      14.899  28.973  22.171  0.00  0.00    -0.377 OA
ATOM     25  C12 UNL     1      16.142  28.457  21.680  0.00  0.00    +0.175 C 
ATOM     26  C13 UNL     1      16.130  28.338  20.145  0.00  0.00    +0.112 C 
ENDBRANCH  20  21
ENDBRANCH  19  20
ENDBRANCH  18  19
ENDBRANCH  16  18
ENDBRANCH   8  16
TORSDOF 5
ENDMDL
MODEL 6
REMARK VINA RESULT:    -3.245      2.536      4.314
REMARK INTER + INTRA:          -5.440
REMARK INTER:                  -4.159
REMARK INTRA:                  -1.281
REMARK UNBOUND:                -1.247
REMARK  Name = /home/vital/Documents/PhD_2021/Malaria_codes/data/pdb_ligands_mmv/ligand_16.pdb
REMARK  5 active torsions:
REMARK  status: ('A' for Active; 'I' for Inactive)
REMARK    1  A    between atoms: C6_8  and  N2_9
REMARK    2  A    between atoms: N2_9  and  C7_10
REMARK    3  A    between atoms: C7_10  and  C8_11
REMARK    4  A    between atoms: C8_11  and  C9_12
REMARK    5  A    between atoms: C9_12  and  N3_13
REMARK                            x       y       z     vdW  Elec       q    Type
REMARK                         _______ _______ _______ _____ _____    ______ ____
ROOT
ATOM      1  F1  UNL     1      15.808  33.866  18.501  0.00  0.00    -0.205 F 
ATOM      2  C1  UNL     1      15.740  32.628  17.993  0.00  0.00    +0.124 A 
ATOM      3  C2  UNL     1      15.690  31.543  18.861  0.00  0.00    +0.040 A 
ATOM      4  C3  UNL     1      15.618  30.237  18.367  0.00  0.00    +0.029 A 
ATOM      5  C4  UNL     1      15.600  30.077  16.976  0.00  0.00    +0.049 A 
ATOM      6  N1  UNL     1      15.532  28.931  16.213  0.00  0.00    -0.350 N 
ATOM      7  C5  UNL     1      15.546  29.236  14.874  0.00  0.00    +0.106 A 
ATOM      8  C6  UNL     1      15.505  28.436  13.740  0.00  0.00    +0.146 A 
ATOM      9  N4  UNL     1      15.512  29.073  12.550  0.00  0.00    -0.219 NA
ATOM     10  C14 UNL     1      15.568  30.419  12.536  0.00  0.00    +0.224 A 
ATOM     11  N5  UNL     1      15.626  31.257  13.581  0.00  0.00    -0.233 NA
ATOM     12  C15 UNL     1      15.608  30.616  14.770  0.00  0.00    +0.101 A 
ATOM     13  C16 UNL     1      15.648  31.155  16.088  0.00  0.00    +0.029 A 
ATOM     14  C17 UNL     1      15.719  32.461  16.610  0.00  0.00    +0.050 A 
ATOM     15  H3  UNL     1      15.473  27.992  16.581  0.00  0.00    +0.166 HD
ENDROOT
BRANCH   8  16
ATOM     16  N2  UNL     1      15.444  27.050  13.824  0.00  0.00    -0.327 N 
ATOM     17  H4  UNL     1      15.919  26.597  13.042  0.00  0.00    +0.148 HD
BRANCH  16  18
ATOM     18  C7  UNL     1      14.111  26.494  14.009  0.00  0.00    +0.104 C 
BRANCH  18  19
ATOM     19  C8  UNL     1      14.051  25.722  15.332  0.00  0.00    +0.034 C 
BRANCH  19  20
ATOM     20  C9  UNL     1      15.412  25.143  15.767  0.00  0.00    +0.086 C 
BRANCH  20  21
ATOM     21  N3  UNL     1      16.203  26.043  16.635  0.00  0.00    -0.298 NA
ATOM     22  C10 UNL     1      17.657  25.874  16.394  0.00  0.00    +0.112 C 
ATOM     23  C11 UNL     1      18.247  24.576  16.969  0.00  0.00    +0.175 C 
ATOM     24  O1  UNL     1      17.991  24.473  18.374  0.00  0.00    -0.377 OA
ATOM     25  C12 UNL     1      16.584  24.518  18.638  0.00  0.00    +0.175 C 
ATOM     26  C13 UNL     1      15.952  25.805  18.080  0.00  0.00    +0.112 C 
ENDBRANCH  20  21
ENDBRANCH  19  20
ENDBRANCH  18  19
ENDBRANCH  16  18
ENDBRANCH   8  16
TORSDOF 5
ENDMDL
MODEL 7
REMARK VINA RESULT:    -3.213      4.047      6.250
REMARK INTER + INTRA:          -5.398
REMARK INTER:                  -4.139
REMARK INTRA:                  -1.259
REMARK UNBOUND:                -1.247
REMARK  Name = /home/vital/Documents/PhD_2021/Malaria_codes/data/pdb_ligands_mmv/ligand_16.pdb
REMARK  5 active torsions:
REMARK  status: ('A' for Active; 'I' for Inactive)
REMARK    1  A    between atoms: C6_8  and  N2_9
REMARK    2  A    between atoms: N2_9  and  C7_10
REMARK    3  A    between atoms: C7_10  and  C8_11
REMARK    4  A    between atoms: C8_11  and  C9_12
REMARK    5  A    between atoms: C9_12  and  N3_13
REMARK                            x       y       z     vdW  Elec       q    Type
REMARK                         _______ _______ _______ _____ _____    ______ ____
ROOT
ATOM      1  F1  UNL     1      15.839  30.607  21.835  0.00  0.00    -0.205 F 
ATOM      2  C1  UNL     1      15.723  30.385  20.519  0.00  0.00    +0.124 A 
ATOM      3  C2  UNL     1      16.152  31.363  19.629  0.00  0.00    +0.040 A 
ATOM      4  C3  UNL     1      16.047  31.166  18.249  0.00  0.00    +0.029 A 
ATOM      5  C4  UNL     1      15.496  29.954  17.812  0.00  0.00    +0.049 A 
ATOM      6  N1  UNL     1      15.274  29.487  16.536  0.00  0.00    -0.350 N 
ATOM      7  C5  UNL     1      14.702  28.239  16.567  0.00  0.00    +0.106 A 
ATOM      8  C6  UNL     1      14.293  27.379  15.555  0.00  0.00    +0.146 A 
ATOM      9  N4  UNL     1      13.781  26.192  15.941  0.00  0.00    -0.219 NA
ATOM     10  C14 UNL     1      13.691  25.921  17.258  0.00  0.00    +0.224 A 
ATOM     11  N5  UNL     1      14.047  26.700  18.289  0.00  0.00    -0.233 NA
ATOM     12  C15 UNL     1      14.568  27.883  17.899  0.00  0.00    +0.101 A 
ATOM     13  C16 UNL     1      15.060  28.960  18.692  0.00  0.00    +0.029 A 
ATOM     14  C17 UNL     1      15.177  29.181  20.079  0.00  0.00    +0.050 A 
ATOM     15  H3  UNL     1      15.502  29.985  15.688  0.00  0.00    +0.166 HD
ENDROOT
BRANCH   8  16
ATOM     16  N2  UNL     1      14.419  27.718  14.213  0.00  0.00    -0.327 N 
ATOM     17  H4  UNL     1      13.585  27.473  13.677  0.00  0.00    +0.148 HD
BRANCH  16  18
ATOM     18  C7  UNL     1      15.619  27.224  13.554  0.00  0.00    +0.104 C 
BRANCH  18  19
ATOM     19  C8  UNL     1      16.508  28.405  13.145  0.00  0.00    +0.034 C 
BRANCH  19  20
ATOM     20  C9  UNL     1      15.712  29.653  12.716  0.00  0.00    +0.086 C 
BRANCH  20  21
ATOM     21  N3  UNL     1      15.589  30.684  13.770  0.00  0.00    -0.298 NA
ATOM     22  C10 UNL     1      14.519  31.658  13.441  0.00  0.00    +0.112 C 
ATOM     23  C11 UNL     1      14.886  32.648  12.323  0.00  0.00    +0.175 C 
ATOM     24  O1  UNL     1      16.086  33.361  12.642  0.00  0.00    -0.377 OA
ATOM     25  C12 UNL     1      17.174  32.455  12.855  0.00  0.00    +0.175 C 
ATOM     26  C13 UNL     1      16.850  31.445  13.971  0.00  0.00    +0.112 C 
ENDBRANCH  20  21
ENDBRANCH  19  20
ENDBRANCH  18  19
ENDBRANCH  16  18
ENDBRANCH   8  16
TORSDOF 5
ENDMDL
MODEL 8
REMARK VINA RESULT:    -3.155      3.086      5.781
REMARK INTER + INTRA:          -5.324
REMARK INTER:                  -4.115
REMARK INTRA:                  -1.208
REMARK UNBOUND:                -1.247
REMARK  Name = /home/vital/Documents/PhD_2021/Malaria_codes/data/pdb_ligands_mmv/ligand_16.pdb
REMARK  5 active torsions:
REMARK  status: ('A' for Active; 'I' for Inactive)
REMARK    1  A    between atoms: C6_8  and  N2_9
REMARK    2  A    between atoms: N2_9  and  C7_10
REMARK    3  A    between atoms: C7_10  and  C8_11
REMARK    4  A    between atoms: C8_11  and  C9_12
REMARK    5  A    between atoms: C9_12  and  N3_13
REMARK                            x       y       z     vdW  Elec       q    Type
REMARK                         _______ _______ _______ _____ _____    ______ ____
ROOT
ATOM      1  F1  UNL     1      17.897  25.182  21.136  0.00  0.00    -0.205 F 
ATOM      2  C1  UNL     1      17.433  25.832  20.060  0.00  0.00    +0.124 A 
ATOM      3  C2  UNL     1      17.491  27.221  20.033  0.00  0.00    +0.040 A 
ATOM      4  C3  UNL     1      17.017  27.933  18.927  0.00  0.00    +0.029 A 
ATOM      5  C4  UNL     1      16.488  27.190  17.863  0.00  0.00    +0.049 A 
ATOM      6  N1  UNL     1      15.959  27.609  16.662  0.00  0.00    -0.350 N 
ATOM      7  C5  UNL     1      15.548  26.536  15.910  0.00  0.00    +0.106 A 
ATOM      8  C6  UNL     1      14.956  26.452  14.657  0.00  0.00    +0.146 A 
ATOM      9  N4  UNL     1      14.696  25.212  14.191  0.00  0.00    -0.219 NA
ATOM     10  C14 UNL     1      15.012  24.152  14.960  0.00  0.00    +0.224 A 
ATOM     11  N5  UNL     1      15.568  24.150  16.180  0.00  0.00    -0.233 NA
ATOM     12  C15 UNL     1      15.836  25.392  16.638  0.00  0.00    +0.101 A 
ATOM     13  C16 UNL     1      16.423  25.794  17.872  0.00  0.00    +0.029 A 
ATOM     14  C17 UNL     1      16.908  25.099  18.998  0.00  0.00    +0.050 A 
ATOM     15  H3  UNL     1      15.885  28.571  16.365  0.00  0.00    +0.166 HD
ENDROOT
BRANCH   8  16
ATOM     16  N2  UNL     1      14.659  27.588  13.912  0.00  0.00    -0.327 N 
ATOM     17  H4  UNL     1      13.735  27.531  13.479  0.00  0.00    +0.148 HD
BRANCH  16  18
ATOM     18  C7  UNL     1      15.664  27.972  12.932  0.00  0.00    +0.104 C 
BRANCH  18  19
ATOM     19  C8  UNL     1      15.637  29.492  12.731  0.00  0.00    +0.034 C 
BRANCH  19  20
ATOM     20  C9  UNL     1      15.152  30.266  13.971  0.00  0.00    +0.086 C 
BRANCH  20  21
ATOM     21  N3  UNL     1      16.100  30.245  15.107  0.00  0.00    -0.298 NA
ATOM     22  C10 UNL     1      15.642  31.136  16.202  0.00  0.00    +0.112 C 
ATOM     23  C11 UNL     1      15.813  32.636  15.909  0.00  0.00    +0.175 C 
ATOM     24  O1  UNL     1      17.174  32.946  15.593  0.00  0.00    -0.377 OA
ATOM     25  C12 UNL     1      17.619  32.184  14.464  0.00  0.00    +0.175 C 
ATOM     26  C13 UNL     1      17.468  30.674  14.714  0.00  0.00    +0.112 C 
ENDBRANCH  20  21
ENDBRANCH  19  20
ENDBRANCH  18  19
ENDBRANCH  16  18
ENDBRANCH   8  16
TORSDOF 5
ENDMDL
