MODEL 1
REMARK VINA RESULT:    -5.294      0.000      0.000
REMARK INTER + INTRA:          -7.393
REMARK INTER:                  -5.913
REMARK INTRA:                  -1.480
REMARK UNBOUND:                -1.480
REMARK  Name = /home/vital/Documents/PhD_2021/Malaria_codes/data/pdb_ligands_mmv/ligand_317.pdb
REMARK  2 active torsions:
REMARK  status: ('A' for Active; 'I' for Inactive)
REMARK    1  A    between atoms: C4_4  and  C7_7
REMARK    2  A    between atoms: C14_16  and  C15_17
REMARK                            x       y       z     vdW  Elec       q    Type
REMARK                         _______ _______ _______ _____ _____    ______ ____
ROOT
ATOM      1  C7  UNL     1      15.671  28.012  15.090  0.00  0.00    +0.079 C 
ATOM      2  N1  UNL     1      14.865  26.994  14.982  0.00  0.00    -0.245 NA
ATOM      3  C8  UNL     1      15.086  25.825  15.738  0.00  0.00    +0.090 A 
ATOM      4  C9  UNL     1      15.401  24.649  15.046  0.00  0.00    +0.030 A 
ATOM      5  C10 UNL     1      15.609  23.451  15.731  0.00  0.00    +0.002 A 
ATOM      6  C11 UNL     1      15.489  23.413  17.118  0.00  0.00    +0.002 A 
ATOM      7  C12 UNL     1      15.161  24.574  17.819  0.00  0.00    +0.030 A 
ATOM      8  C13 UNL     1      14.963  25.786  17.147  0.00  0.00    +0.090 A 
ATOM      9  N2  UNL     1      14.610  26.915  17.915  0.00  0.00    -0.245 NA
ATOM     10  C14 UNL     1      15.417  27.935  18.002  0.00  0.00    +0.079 C 
ATOM     11  C21 UNL     1      16.755  27.969  17.352  0.00  0.00    +0.010 A 
ATOM     12  C22 UNL     1      17.900  27.937  18.156  0.00  0.00    +0.011 A 
ATOM     13  C23 UNL     1      19.163  27.955  17.561  0.00  0.00    +0.001 A 
ATOM     14  C24 UNL     1      19.284  27.992  16.170  0.00  0.00    +0.001 A 
ATOM     15  C25 UNL     1      18.143  28.012  15.366  0.00  0.00    +0.011 A 
ATOM     16  C26 UNL     1      16.875  28.008  15.960  0.00  0.00    +0.010 A 
ENDROOT
BRANCH   1  20
ATOM     17  C1  UNL     1      14.812  31.583  12.834  0.00  0.00    +0.000 A 
ATOM     18  C2  UNL     1      15.494  30.533  12.222  0.00  0.00    +0.001 A 
ATOM     19  C3  UNL     1      15.781  29.368  12.940  0.00  0.00    +0.010 A 
ATOM     20  C4  UNL     1      15.381  29.244  14.278  0.00  0.00    +0.001 A 
ATOM     21  C5  UNL     1      14.704  30.312  14.886  0.00  0.00    +0.010 A 
ATOM     22  C6  UNL     1      14.420  31.474  14.166  0.00  0.00    +0.001 A 
ENDBRANCH   1  20
BRANCH  10  23
ATOM     23  C15 UNL     1      14.986  29.123  18.816  0.00  0.00    +0.001 A 
ATOM     24  C16 UNL     1      14.177  28.914  19.942  0.00  0.00    +0.010 A 
ATOM     25  C17 UNL     1      13.754  29.992  20.722  0.00  0.00    +0.001 A 
ATOM     26  C18 UNL     1      14.131  31.290  20.381  0.00  0.00    +0.000 A 
ATOM     27  C19 UNL     1      14.926  31.510  19.258  0.00  0.00    +0.001 A 
ATOM     28  C20 UNL     1      15.351  30.432  18.475  0.00  0.00    +0.010 A 
ENDBRANCH  10  23
TORSDOF 2
ENDMDL
MODEL 2
REMARK VINA RESULT:    -4.944      1.694      5.040
REMARK INTER + INTRA:          -7.003
REMARK INTER:                  -5.492
REMARK INTRA:                  -1.511
REMARK UNBOUND:                -1.480
REMARK  Name = /home/vital/Documents/PhD_2021/Malaria_codes/data/pdb_ligands_mmv/ligand_317.pdb
REMARK  2 active torsions:
REMARK  status: ('A' for Active; 'I' for Inactive)
REMARK    1  A    between atoms: C4_4  and  C7_7
REMARK    2  A    between atoms: C14_16  and  C15_17
REMARK                            x       y       z     vdW  Elec       q    Type
REMARK                         _______ _______ _______ _____ _____    ______ ____
ROOT
ATOM      1  C7  UNL     1      15.463  29.225  15.790  0.00  0.00    +0.079 C 
ATOM      2  N1  UNL     1      15.651  29.780  16.953  0.00  0.00    -0.245 NA
ATOM      3  C8  UNL     1      15.785  28.987  18.111  0.00  0.00    +0.090 A 
ATOM      4  C9  UNL     1      14.794  29.093  19.095  0.00  0.00    +0.030 A 
ATOM      5  C10 UNL     1      14.878  28.353  20.275  0.00  0.00    +0.002 A 
ATOM      6  C11 UNL     1      15.965  27.509  20.492  0.00  0.00    +0.002 A 
ATOM      7  C12 UNL     1      16.967  27.405  19.526  0.00  0.00    +0.030 A 
ATOM      8  C13 UNL     1      16.889  28.130  18.331  0.00  0.00    +0.090 A 
ATOM      9  N2  UNL     1      17.949  27.996  17.410  0.00  0.00    -0.245 NA
ATOM     10  C14 UNL     1      17.746  27.453  16.242  0.00  0.00    +0.079 C 
ATOM     11  C21 UNL     1      16.428  26.909  15.818  0.00  0.00    +0.010 A 
ATOM     12  C22 UNL     1      16.284  25.525  15.662  0.00  0.00    +0.011 A 
ATOM     13  C23 UNL     1      15.050  24.996  15.278  0.00  0.00    +0.001 A 
ATOM     14  C24 UNL     1      13.960  25.843  15.062  0.00  0.00    +0.001 A 
ATOM     15  C25 UNL     1      14.098  27.222  15.228  0.00  0.00    +0.011 A 
ATOM     16  C26 UNL     1      15.338  27.756  15.601  0.00  0.00    +0.010 A 
ENDROOT
BRANCH   1  20
ATOM     17  C1  UNL     1      15.101  31.834  12.379  0.00  0.00    +0.000 A 
ATOM     18  C2  UNL     1      15.686  30.578  12.223  0.00  0.00    +0.001 A 
ATOM     19  C3  UNL     1      15.812  29.720  13.320  0.00  0.00    +0.010 A 
ATOM     20  C4  UNL     1      15.346  30.112  14.582  0.00  0.00    +0.001 A 
ATOM     21  C5  UNL     1      14.768  31.382  14.729  0.00  0.00    +0.010 A 
ATOM     22  C6  UNL     1      14.645  32.237  13.632  0.00  0.00    +0.001 A 
ENDBRANCH   1  20
BRANCH  10  23
ATOM     23  C15 UNL     1      18.902  27.352  15.287  0.00  0.00    +0.001 A 
ATOM     24  C16 UNL     1      20.151  26.944  15.778  0.00  0.00    +0.010 A 
ATOM     25  C17 UNL     1      21.250  26.840  14.923  0.00  0.00    +0.001 A 
ATOM     26  C18 UNL     1      21.114  27.149  13.571  0.00  0.00    +0.000 A 
ATOM     27  C19 UNL     1      19.880  27.565  13.074  0.00  0.00    +0.001 A 
ATOM     28  C20 UNL     1      18.777  27.670  13.928  0.00  0.00    +0.010 A 
ENDBRANCH  10  23
TORSDOF 2
ENDMDL
MODEL 3
REMARK VINA RESULT:    -4.625      1.802      5.232
REMARK INTER + INTRA:          -6.646
REMARK INTER:                  -5.186
REMARK INTRA:                  -1.460
REMARK UNBOUND:                -1.480
REMARK  Name = /home/vital/Documents/PhD_2021/Malaria_codes/data/pdb_ligands_mmv/ligand_317.pdb
REMARK  2 active torsions:
REMARK  status: ('A' for Active; 'I' for Inactive)
REMARK    1  A    between atoms: C4_4  and  C7_7
REMARK    2  A    between atoms: C14_16  and  C15_17
REMARK                            x       y       z     vdW  Elec       q    Type
REMARK                         _______ _______ _______ _____ _____    ______ ____
ROOT
ATOM      1  C7  UNL     1      17.575  27.376  15.601  0.00  0.00    +0.079 C 
ATOM      2  N1  UNL     1      17.798  28.514  15.007  0.00  0.00    -0.245 NA
ATOM      3  C8  UNL     1      16.732  29.250  14.450  0.00  0.00    +0.090 A 
ATOM      4  C9  UNL     1      16.714  29.423  13.060  0.00  0.00    +0.030 A 
ATOM      5  C10 UNL     1      15.701  30.160  12.445  0.00  0.00    +0.002 A 
ATOM      6  C11 UNL     1      14.701  30.746  13.217  0.00  0.00    +0.002 A 
ATOM      7  C12 UNL     1      14.715  30.594  14.604  0.00  0.00    +0.030 A 
ATOM      8  C13 UNL     1      15.717  29.846  15.234  0.00  0.00    +0.090 A 
ATOM      9  N2  UNL     1      15.684  29.754  16.641  0.00  0.00    -0.245 NA
ATOM     10  C14 UNL     1      15.477  28.607  17.224  0.00  0.00    +0.079 C 
ATOM     11  C21 UNL     1      15.222  27.349  16.473  0.00  0.00    +0.010 A 
ATOM     12  C22 UNL     1      13.949  26.769  16.531  0.00  0.00    +0.011 A 
ATOM     13  C23 UNL     1      13.690  25.596  15.820  0.00  0.00    +0.001 A 
ATOM     14  C24 UNL     1      14.693  25.008  15.045  0.00  0.00    +0.001 A 
ATOM     15  C25 UNL     1      15.960  25.590  14.977  0.00  0.00    +0.011 A 
ATOM     16  C26 UNL     1      16.226  26.760  15.699  0.00  0.00    +0.010 A 
ENDROOT
BRANCH   1  20
ATOM     17  C1  UNL     1      20.972  25.313  17.267  0.00  0.00    +0.000 A 
ATOM     18  C2  UNL     1      19.697  25.043  17.760  0.00  0.00    +0.001 A 
ATOM     19  C3  UNL     1      18.584  25.704  17.231  0.00  0.00    +0.010 A 
ATOM     20  C4  UNL     1      18.741  26.639  16.198  0.00  0.00    +0.001 A 
ATOM     21  C5  UNL     1      20.031  26.910  15.717  0.00  0.00    +0.010 A 
ATOM     22  C6  UNL     1      21.140  26.248  16.248  0.00  0.00    +0.001 A 
ENDBRANCH   1  20
BRANCH  10  23
ATOM     23  C15 UNL     1      15.472  28.557  18.726  0.00  0.00    +0.001 A 
ATOM     24  C16 UNL     1      14.676  29.472  19.431  0.00  0.00    +0.010 A 
ATOM     25  C17 UNL     1      14.646  29.459  20.827  0.00  0.00    +0.001 A 
ATOM     26  C18 UNL     1      15.415  28.536  21.532  0.00  0.00    +0.000 A 
ATOM     27  C19 UNL     1      16.217  27.628  20.843  0.00  0.00    +0.001 A 
ATOM     28  C20 UNL     1      16.249  27.639  19.445  0.00  0.00    +0.010 A 
ENDBRANCH  10  23
TORSDOF 2
ENDMDL
MODEL 4
REMARK VINA RESULT:    -4.566     17.320     20.099
REMARK INTER + INTRA:          -6.580
REMARK INTER:                  -5.115
REMARK INTRA:                  -1.465
REMARK UNBOUND:                -1.480
REMARK  Name = /home/vital/Documents/PhD_2021/Malaria_codes/data/pdb_ligands_mmv/ligand_317.pdb
REMARK  2 active torsions:
REMARK  status: ('A' for Active; 'I' for Inactive)
REMARK    1  A    between atoms: C4_4  and  C7_7
REMARK    2  A    between atoms: C14_16  and  C15_17
REMARK                            x       y       z     vdW  Elec       q    Type
REMARK                         _______ _______ _______ _____ _____    ______ ____
ROOT
ATOM      1  C7  UNL     1      21.514  46.584  18.153  0.00  0.00    +0.079 C 
ATOM      2  N1  UNL     1      20.768  47.590  18.512  0.00  0.00    -0.245 NA
ATOM      3  C8  UNL     1      20.040  47.545  19.719  0.00  0.00    +0.090 A 
ATOM      4  C9  UNL     1      18.641  47.548  19.638  0.00  0.00    +0.030 A 
ATOM      5  C10 UNL     1      17.860  47.528  20.795  0.00  0.00    +0.002 A 
ATOM      6  C11 UNL     1      18.470  47.520  22.047  0.00  0.00    +0.002 A 
ATOM      7  C12 UNL     1      19.862  47.531  22.141  0.00  0.00    +0.030 A 
ATOM      8  C13 UNL     1      20.659  47.536  20.990  0.00  0.00    +0.090 A 
ATOM      9  N2  UNL     1      22.059  47.573  21.159  0.00  0.00    -0.245 NA
ATOM     10  C14 UNL     1      22.797  46.567  20.780  0.00  0.00    +0.079 C 
ATOM     11  C21 UNL     1      22.233  45.320  20.198  0.00  0.00    +0.010 A 
ATOM     12  C22 UNL     1      22.300  44.134  20.938  0.00  0.00    +0.011 A 
ATOM     13  C23 UNL     1      21.763  42.958  20.411  0.00  0.00    +0.001 A 
ATOM     14  C24 UNL     1      21.150  42.966  19.156  0.00  0.00    +0.001 A 
ATOM     15  C25 UNL     1      21.072  44.151  18.420  0.00  0.00    +0.011 A 
ATOM     16  C26 UNL     1      21.621  45.328  18.941  0.00  0.00    +0.010 A 
ENDROOT
BRANCH   1  20
ATOM     17  C1  UNL     1      23.657  46.883  14.426  0.00  0.00    +0.000 A 
ATOM     18  C2  UNL     1      24.353  46.998  15.628  0.00  0.00    +0.001 A 
ATOM     19  C3  UNL     1      23.672  46.904  16.846  0.00  0.00    +0.010 A 
ATOM     20  C4  UNL     1      22.287  46.688  16.868  0.00  0.00    +0.001 A 
ATOM     21  C5  UNL     1      21.596  46.584  15.652  0.00  0.00    +0.010 A 
ATOM     22  C6  UNL     1      22.279  46.678  14.437  0.00  0.00    +0.001 A 
ENDBRANCH   1  20
BRANCH  10  23
ATOM     23  C15 UNL     1      24.286  46.661  20.962  0.00  0.00    +0.001 A 
ATOM     24  C16 UNL     1      24.792  47.471  21.990  0.00  0.00    +0.010 A 
ATOM     25  C17 UNL     1      26.169  47.587  22.190  0.00  0.00    +0.001 A 
ATOM     26  C18 UNL     1      27.054  46.900  21.361  0.00  0.00    +0.000 A 
ATOM     27  C19 UNL     1      26.563  46.101  20.330  0.00  0.00    +0.001 A 
ATOM     28  C20 UNL     1      25.184  45.983  20.128  0.00  0.00    +0.010 A 
ENDBRANCH  10  23
TORSDOF 2
ENDMDL
MODEL 5
REMARK VINA RESULT:    -4.341      2.283      5.201
REMARK INTER + INTRA:          -6.329
REMARK INTER:                  -4.891
REMARK INTRA:                  -1.438
REMARK UNBOUND:                -1.480
REMARK  Name = /home/vital/Documents/PhD_2021/Malaria_codes/data/pdb_ligands_mmv/ligand_317.pdb
REMARK  2 active torsions:
REMARK  status: ('A' for Active; 'I' for Inactive)
REMARK    1  A    between atoms: C4_4  and  C7_7
REMARK    2  A    between atoms: C14_16  and  C15_17
REMARK                            x       y       z     vdW  Elec       q    Type
REMARK                         _______ _______ _______ _____ _____    ______ ____
ROOT
ATOM      1  C7  UNL     1      16.501  28.715  14.568  0.00  0.00    +0.079 C 
ATOM      2  N1  UNL     1      17.776  28.453  14.515  0.00  0.00    -0.245 NA
ATOM      3  C8  UNL     1      18.712  29.490  14.323  0.00  0.00    +0.090 A 
ATOM      4  C9  UNL     1      19.460  29.485  13.139  0.00  0.00    +0.030 A 
ATOM      5  C10 UNL     1      20.419  30.469  12.896  0.00  0.00    +0.002 A 
ATOM      6  C11 UNL     1      20.652  31.463  13.844  0.00  0.00    +0.002 A 
ATOM      7  C12 UNL     1      19.924  31.471  15.035  0.00  0.00    +0.030 A 
ATOM      8  C13 UNL     1      18.949  30.499  15.286  0.00  0.00    +0.090 A 
ATOM      9  N2  UNL     1      18.268  30.552  16.520  0.00  0.00    -0.245 NA
ATOM     10  C14 UNL     1      16.989  30.799  16.560  0.00  0.00    +0.079 C 
ATOM     11  C21 UNL     1      16.178  31.079  15.345  0.00  0.00    +0.010 A 
ATOM     12  C22 UNL     1      15.668  32.368  15.151  0.00  0.00    +0.011 A 
ATOM     13  C23 UNL     1      14.917  32.650  14.009  0.00  0.00    +0.001 A 
ATOM     14  C24 UNL     1      14.684  31.654  13.057  0.00  0.00    +0.001 A 
ATOM     15  C25 UNL     1      15.201  30.370  13.243  0.00  0.00    +0.011 A 
ATOM     16  C26 UNL     1      15.944  30.082  14.394  0.00  0.00    +0.010 A 
ENDROOT
BRANCH   1  20
ATOM     17  C1  UNL     1      13.717  25.502  15.276  0.00  0.00    +0.000 A 
ATOM     18  C2  UNL     1      14.647  25.389  14.244  0.00  0.00    +0.001 A 
ATOM     19  C3  UNL     1      15.557  26.423  14.001  0.00  0.00    +0.010 A 
ATOM     20  C4  UNL     1      15.545  27.578  14.795  0.00  0.00    +0.001 A 
ATOM     21  C5  UNL     1      14.598  27.685  15.824  0.00  0.00    +0.010 A 
ATOM     22  C6  UNL     1      13.690  26.651  16.064  0.00  0.00    +0.001 A 
ENDBRANCH   1  20
BRANCH  10  23
ATOM     23  C15 UNL     1      16.305  30.826  17.898  0.00  0.00    +0.001 A 
ATOM     24  C16 UNL     1      16.360  32.000  18.663  0.00  0.00    +0.010 A 
ATOM     25  C17 UNL     1      15.739  32.063  19.912  0.00  0.00    +0.001 A 
ATOM     26  C18 UNL     1      15.063  30.952  20.412  0.00  0.00    +0.000 A 
ATOM     27  C19 UNL     1      15.011  29.777  19.665  0.00  0.00    +0.001 A 
ATOM     28  C20 UNL     1      15.631  29.711  18.414  0.00  0.00    +0.010 A 
ENDBRANCH  10  23
TORSDOF 2
ENDMDL
MODEL 6
REMARK VINA RESULT:    -4.253      1.870      5.320
REMARK INTER + INTRA:          -6.231
REMARK INTER:                  -4.740
REMARK INTRA:                  -1.491
REMARK UNBOUND:                -1.480
REMARK  Name = /home/vital/Documents/PhD_2021/Malaria_codes/data/pdb_ligands_mmv/ligand_317.pdb
REMARK  2 active torsions:
REMARK  status: ('A' for Active; 'I' for Inactive)
REMARK    1  A    between atoms: C4_4  and  C7_7
REMARK    2  A    between atoms: C14_16  and  C15_17
REMARK                            x       y       z     vdW  Elec       q    Type
REMARK                         _______ _______ _______ _____ _____    ______ ____
ROOT
ATOM      1  C7  UNL     1      15.647  29.712  16.607  0.00  0.00    +0.079 C 
ATOM      2  N1  UNL     1      15.407  28.523  17.080  0.00  0.00    -0.245 NA
ATOM      3  C8  UNL     1      15.209  27.433  16.206  0.00  0.00    +0.090 A 
ATOM      4  C9  UNL     1      13.946  26.827  16.192  0.00  0.00    +0.030 A 
ATOM      5  C10 UNL     1      13.690  25.730  15.369  0.00  0.00    +0.002 A 
ATOM      6  C11 UNL     1      14.701  25.216  14.559  0.00  0.00    +0.002 A 
ATOM      7  C12 UNL     1      15.968  25.802  14.574  0.00  0.00    +0.030 A 
ATOM      8  C13 UNL     1      16.236  26.911  15.384  0.00  0.00    +0.090 A 
ATOM      9  N2  UNL     1      17.544  27.437  15.369  0.00  0.00    -0.245 NA
ATOM     10  C14 UNL     1      17.770  28.636  14.909  0.00  0.00    +0.079 C 
ATOM     11  C21 UNL     1      16.703  29.501  14.341  0.00  0.00    +0.010 A 
ATOM     12  C22 UNL     1      16.711  29.776  12.968  0.00  0.00    +0.011 A 
ATOM     13  C23 UNL     1      15.708  30.576  12.417  0.00  0.00    +0.001 A 
ATOM     14  C24 UNL     1      14.694  31.090  13.228  0.00  0.00    +0.001 A 
ATOM     15  C25 UNL     1      14.677  30.808  14.596  0.00  0.00    +0.011 A 
ATOM     16  C26 UNL     1      15.689  30.017  15.153  0.00  0.00    +0.010 A 
ENDROOT
BRANCH   1  20
ATOM     17  C1  UNL     1      16.252  32.890  19.455  0.00  0.00    +0.000 A 
ATOM     18  C2  UNL     1      16.815  32.992  18.184  0.00  0.00    +0.001 A 
ATOM     19  C3  UNL     1      16.629  31.969  17.249  0.00  0.00    +0.010 A 
ATOM     20  C4  UNL     1      15.871  30.837  17.579  0.00  0.00    +0.001 A 
ATOM     21  C5  UNL     1      15.318  30.741  18.864  0.00  0.00    +0.010 A 
ATOM     22  C6  UNL     1      15.506  31.764  19.797  0.00  0.00    +0.001 A 
ENDBRANCH   1  20
BRANCH  10  23
ATOM     23  C15 UNL     1      19.179  29.159  14.933  0.00  0.00    +0.001 A 
ATOM     24  C16 UNL     1      19.414  30.446  15.440  0.00  0.00    +0.010 A 
ATOM     25  C17 UNL     1      20.708  30.969  15.477  0.00  0.00    +0.001 A 
ATOM     26  C18 UNL     1      21.779  30.214  15.002  0.00  0.00    +0.000 A 
ATOM     27  C19 UNL     1      21.556  28.939  14.487  0.00  0.00    +0.001 A 
ATOM     28  C20 UNL     1      20.261  28.412  14.449  0.00  0.00    +0.010 A 
ENDBRANCH  10  23
TORSDOF 2
ENDMDL
MODEL 7
REMARK VINA RESULT:    -4.033      2.394      6.101
REMARK INTER + INTRA:          -5.984
REMARK INTER:                  -4.497
REMARK INTRA:                  -1.488
REMARK UNBOUND:                -1.480
REMARK  Name = /home/vital/Documents/PhD_2021/Malaria_codes/data/pdb_ligands_mmv/ligand_317.pdb
REMARK  2 active torsions:
REMARK  status: ('A' for Active; 'I' for Inactive)
REMARK    1  A    between atoms: C4_4  and  C7_7
REMARK    2  A    between atoms: C14_16  and  C15_17
REMARK                            x       y       z     vdW  Elec       q    Type
REMARK                         _______ _______ _______ _____ _____    ______ ____
ROOT
ATOM      1  C7  UNL     1      18.256  30.417  15.325  0.00  0.00    +0.079 C 
ATOM      2  N1  UNL     1      18.503  30.723  16.567  0.00  0.00    -0.245 NA
ATOM      3  C8  UNL     1      17.619  31.553  17.287  0.00  0.00    +0.090 A 
ATOM      4  C9  UNL     1      18.091  32.804  17.704  0.00  0.00    +0.030 A 
ATOM      5  C10 UNL     1      17.276  33.666  18.440  0.00  0.00    +0.002 A 
ATOM      6  C11 UNL     1      15.983  33.278  18.782  0.00  0.00    +0.002 A 
ATOM      7  C12 UNL     1      15.505  32.028  18.385  0.00  0.00    +0.030 A 
ATOM      8  C13 UNL     1      16.305  31.159  17.634  0.00  0.00    +0.090 A 
ATOM      9  N2  UNL     1      15.768  29.902  17.288  0.00  0.00    -0.245 NA
ATOM     10  C14 UNL     1      15.541  29.600  16.040  0.00  0.00    +0.079 C 
ATOM     11  C21 UNL     1      15.784  30.547  14.919  0.00  0.00    +0.010 A 
ATOM     12  C22 UNL     1      14.688  31.067  14.221  0.00  0.00    +0.011 A 
ATOM     13  C23 UNL     1      14.898  31.968  13.175  0.00  0.00    +0.001 A 
ATOM     14  C24 UNL     1      16.195  32.358  12.833  0.00  0.00    +0.001 A 
ATOM     15  C25 UNL     1      17.290  31.849  13.535  0.00  0.00    +0.011 A 
ATOM     16  C26 UNL     1      17.082  30.936  14.576  0.00  0.00    +0.010 A 
ENDROOT
BRANCH   1  20
ATOM     17  C1  UNL     1      21.079  27.863  13.303  0.00  0.00    +0.000 A 
ATOM     18  C2  UNL     1      19.715  27.590  13.206  0.00  0.00    +0.001 A 
ATOM     19  C3  UNL     1      18.787  28.408  13.857  0.00  0.00    +0.010 A 
ATOM     20  C4  UNL     1      19.218  29.512  14.606  0.00  0.00    +0.001 A 
ATOM     21  C5  UNL     1      20.593  29.771  14.704  0.00  0.00    +0.010 A 
ATOM     22  C6  UNL     1      21.518  28.951  14.053  0.00  0.00    +0.001 A 
ENDBRANCH   1  20
BRANCH  10  23
ATOM     23  C15 UNL     1      14.987  28.240  15.720  0.00  0.00    +0.001 A 
ATOM     24  C16 UNL     1      14.221  27.577  16.690  0.00  0.00    +0.010 A 
ATOM     25  C17 UNL     1      13.691  26.311  16.432  0.00  0.00    +0.001 A 
ATOM     26  C18 UNL     1      13.926  25.693  15.206  0.00  0.00    +0.000 A 
ATOM     27  C19 UNL     1      14.694  26.338  14.239  0.00  0.00    +0.001 A 
ATOM     28  C20 UNL     1      15.226  27.606  14.494  0.00  0.00    +0.010 A 
ENDBRANCH  10  23
TORSDOF 2
ENDMDL
