MODEL 1
REMARK VINA RESULT:    -3.837      0.000      0.000
REMARK INTER + INTRA:          -6.427
REMARK INTER:                  -4.958
REMARK INTRA:                  -1.469
REMARK UNBOUND:                -1.469
REMARK  Name = /home/vital/Documents/PhD_2021/Malaria_codes/data/pdb_ligands_mmv/ligand_133.pdb
REMARK  6 active torsions:
REMARK  status: ('A' for Active; 'I' for Inactive)
REMARK    1  A    between atoms: C1_1  and  N1_2
REMARK    2  A    between atoms: C5_7  and  C13_16
REMARK    3  A    between atoms: N2_18  and  C14_19
REMARK    4  A    between atoms: C14_19  and  C15_20
REMARK    5  A    between atoms: C15_20  and  C16_21
REMARK    6  A    between atoms: C16_21  and  N3_22
REMARK                            x       y       z     vdW  Elec       q    Type
REMARK                         _______ _______ _______ _____ _____    ______ ____
ROOT
ATOM      1  C1  UNL     1      16.029  32.660  17.434  0.00  0.00    +0.152 C 
ATOM      2  N1  UNL     1      15.720  31.444  16.696  0.00  0.00    -0.311 N 
ATOM      3  C2  UNL     1      15.662  30.240  17.421  0.00  0.00    +0.260 A 
ATOM      4  O1  UNL     1      15.858  30.167  18.633  0.00  0.00    -0.267 OA
ATOM      5  C3  UNL     1      15.352  29.038  16.657  0.00  0.00    +0.055 A 
ATOM      6  C4  UNL     1      15.233  27.701  17.160  0.00  0.00    +0.034 A 
ATOM      7  C5  UNL     1      14.932  26.780  16.171  0.00  0.00    +0.075 A 
ATOM      8  S1  UNL     1      14.783  27.562  14.648  0.00  0.00    -0.083 S 
ATOM      9  C6  UNL     1      15.130  29.093  15.301  0.00  0.00    +0.034 A 
ATOM     10  C7  UNL     1      15.188  30.340  14.544  0.00  0.00    +0.013 A 
ATOM     11  C8  UNL     1      14.964  30.414  13.161  0.00  0.00    +0.011 A 
ATOM     12  C9  UNL     1      15.035  31.637  12.495  0.00  0.00    +0.001 A 
ATOM     13  C10 UNL     1      15.330  32.795  13.204  0.00  0.00    +0.002 A 
ATOM     14  C11 UNL     1      15.556  32.736  14.582  0.00  0.00    +0.026 A 
ATOM     15  C12 UNL     1      15.490  31.516  15.274  0.00  0.00    +0.053 A 
ENDROOT
BRANCH   7  16
ATOM     16  C13 UNL     1      14.732  25.336  16.245  0.00  0.00    +0.251 C 
ATOM     17  O2  UNL     1      13.752  24.753  15.787  0.00  0.00    -0.270 OA
ATOM     18  N2  UNL     1      15.749  24.635  16.869  0.00  0.00    -0.311 N 
ATOM     19  H9  UNL     1      16.592  25.119  17.137  0.00  0.00    +0.149 HD
BRANCH  18  20
ATOM     20  C14 UNL     1      15.736  23.189  16.967  0.00  0.00    +0.106 C 
BRANCH  20  21
ATOM     21  C15 UNL     1      17.095  22.602  17.338  0.00  0.00    +0.034 C 
BRANCH  21  22
ATOM     22  C16 UNL     1      17.859  23.335  18.452  0.00  0.00    +0.086 C 
BRANCH  22  23
ATOM     23  N3  UNL     1      18.399  24.673  18.186  0.00  0.00    -0.302 NA
ATOM     24  C17 UNL     1      19.367  24.720  17.095  0.00  0.00    +0.084 C 
ATOM     25  C18 UNL     1      19.958  26.094  16.761  0.00  0.00    +0.015 C 
ATOM     26  C19 UNL     1      18.962  27.249  16.826  0.00  0.00    +0.001 C 
ATOM     27  C20 UNL     1      18.809  27.802  18.241  0.00  0.00    +0.001 C 
ATOM     28  C21 UNL     1      18.119  26.872  19.234  0.00  0.00    +0.015 C 
ATOM     29  C22 UNL     1      18.721  25.469  19.360  0.00  0.00    +0.084 C 
ENDBRANCH  22  23
ENDBRANCH  21  22
ENDBRANCH  20  21
ENDBRANCH  18  20
ENDBRANCH   7  16
TORSDOF 5
ENDMDL
MODEL 2
REMARK VINA RESULT:    -3.772      2.306      2.687
REMARK INTER + INTRA:          -6.343
REMARK INTER:                  -4.810
REMARK INTRA:                  -1.534
REMARK UNBOUND:                -1.469
REMARK  Name = /home/vital/Documents/PhD_2021/Malaria_codes/data/pdb_ligands_mmv/ligand_133.pdb
REMARK  6 active torsions:
REMARK  status: ('A' for Active; 'I' for Inactive)
REMARK    1  A    between atoms: C1_1  and  N1_2
REMARK    2  A    between atoms: C5_7  and  C13_16
REMARK    3  A    between atoms: N2_18  and  C14_19
REMARK    4  A    between atoms: C14_19  and  C15_20
REMARK    5  A    between atoms: C15_20  and  C16_21
REMARK    6  A    between atoms: C16_21  and  N3_22
REMARK                            x       y       z     vdW  Elec       q    Type
REMARK                         _______ _______ _______ _____ _____    ______ ____
ROOT
ATOM      1  C1  UNL     1      19.575  30.483  12.490  0.00  0.00    +0.152 C 
ATOM      2  N1  UNL     1      18.407  29.802  13.028  0.00  0.00    -0.311 N 
ATOM      3  C2  UNL     1      18.588  28.506  13.544  0.00  0.00    +0.260 A 
ATOM      4  O1  UNL     1      19.674  27.928  13.561  0.00  0.00    -0.267 OA
ATOM      5  C3  UNL     1      17.402  27.847  14.075  0.00  0.00    +0.055 A 
ATOM      6  C4  UNL     1      17.326  26.538  14.653  0.00  0.00    +0.034 A 
ATOM      7  C5  UNL     1      16.046  26.204  15.060  0.00  0.00    +0.075 A 
ATOM      8  S1  UNL     1      14.959  27.497  14.743  0.00  0.00    -0.083 S 
ATOM      9  C6  UNL     1      16.176  28.471  14.066  0.00  0.00    +0.034 A 
ATOM     10  C7  UNL     1      15.982  29.816  13.532  0.00  0.00    +0.013 A 
ATOM     11  C8  UNL     1      14.739  30.467  13.515  0.00  0.00    +0.011 A 
ATOM     12  C9  UNL     1      14.619  31.753  12.991  0.00  0.00    +0.001 A 
ATOM     13  C10 UNL     1      15.738  32.399  12.479  0.00  0.00    +0.002 A 
ATOM     14  C11 UNL     1      16.982  31.762  12.488  0.00  0.00    +0.026 A 
ATOM     15  C12 UNL     1      17.127  30.467  13.012  0.00  0.00    +0.053 A 
ENDROOT
BRANCH   7  16
ATOM     16  C13 UNL     1      15.532  24.988  15.682  0.00  0.00    +0.251 C 
ATOM     17  O2  UNL     1      14.337  24.712  15.771  0.00  0.00    -0.270 OA
ATOM     18  N2  UNL     1      16.498  24.127  16.174  0.00  0.00    -0.311 N 
ATOM     19  H9  UNL     1      17.471  24.320  15.991  0.00  0.00    +0.149 HD
BRANCH  18  20
ATOM     20  C14 UNL     1      16.158  22.847  16.762  0.00  0.00    +0.106 C 
BRANCH  20  21
ATOM     21  C15 UNL     1      16.867  22.591  18.089  0.00  0.00    +0.034 C 
BRANCH  21  22
ATOM     22  C16 UNL     1      17.066  23.821  18.989  0.00  0.00    +0.086 C 
BRANCH  22  23
ATOM     23  N3  UNL     1      18.054  24.835  18.603  0.00  0.00    -0.302 NA
ATOM     24  C17 UNL     1      19.421  24.331  18.509  0.00  0.00    +0.084 C 
ATOM     25  C18 UNL     1      20.497  25.341  18.096  0.00  0.00    +0.015 C 
ATOM     26  C19 UNL     1      20.067  26.324  17.011  0.00  0.00    +0.001 C 
ATOM     27  C20 UNL     1      19.333  27.535  17.584  0.00  0.00    +0.001 C 
ATOM     28  C21 UNL     1      17.952  27.245  18.167  0.00  0.00    +0.015 C 
ATOM     29  C22 UNL     1      17.896  26.140  19.226  0.00  0.00    +0.084 C 
ENDBRANCH  22  23
ENDBRANCH  21  22
ENDBRANCH  20  21
ENDBRANCH  18  20
ENDBRANCH   7  16
TORSDOF 5
ENDMDL
MODEL 3
REMARK VINA RESULT:    -3.755      2.692      7.574
REMARK INTER + INTRA:          -6.322
REMARK INTER:                  -4.965
REMARK INTRA:                  -1.357
REMARK UNBOUND:                -1.469
REMARK  Name = /home/vital/Documents/PhD_2021/Malaria_codes/data/pdb_ligands_mmv/ligand_133.pdb
REMARK  6 active torsions:
REMARK  status: ('A' for Active; 'I' for Inactive)
REMARK    1  A    between atoms: C1_1  and  N1_2
REMARK    2  A    between atoms: C5_7  and  C13_16
REMARK    3  A    between atoms: N2_18  and  C14_19
REMARK    4  A    between atoms: C14_19  and  C15_20
REMARK    5  A    between atoms: C15_20  and  C16_21
REMARK    6  A    between atoms: C16_21  and  N3_22
REMARK                            x       y       z     vdW  Elec       q    Type
REMARK                         _______ _______ _______ _____ _____    ______ ____
ROOT
ATOM      1  C1  UNL     1      15.664  26.560  19.036  0.00  0.00    +0.152 C 
ATOM      2  N1  UNL     1      15.489  27.287  17.788  0.00  0.00    -0.311 N 
ATOM      3  C2  UNL     1      15.605  28.688  17.828  0.00  0.00    +0.260 A 
ATOM      4  O1  UNL     1      15.842  29.320  18.857  0.00  0.00    -0.267 OA
ATOM      5  C3  UNL     1      15.425  29.391  16.564  0.00  0.00    +0.055 A 
ATOM      6  C4  UNL     1      15.496  30.805  16.344  0.00  0.00    +0.034 A 
ATOM      7  C5  UNL     1      15.274  31.155  15.023  0.00  0.00    +0.075 A 
ATOM      8  S1  UNL     1      14.997  29.752  14.069  0.00  0.00    -0.083 S 
ATOM      9  C6  UNL     1      15.157  28.708  15.401  0.00  0.00    +0.034 A 
ATOM     10  C7  UNL     1      15.037  27.253  15.352  0.00  0.00    +0.013 A 
ATOM     11  C8  UNL     1      14.765  26.541  14.175  0.00  0.00    +0.011 A 
ATOM     12  C9  UNL     1      14.662  25.151  14.195  0.00  0.00    +0.001 A 
ATOM     13  C10 UNL     1      14.829  24.461  15.390  0.00  0.00    +0.002 A 
ATOM     14  C11 UNL     1      15.100  25.158  16.571  0.00  0.00    +0.026 A 
ATOM     15  C12 UNL     1      15.209  26.558  16.575  0.00  0.00    +0.053 A 
ENDROOT
BRANCH   7  16
ATOM     16  C13 UNL     1      15.250  32.462  14.376  0.00  0.00    +0.251 C 
ATOM     17  O2  UNL     1      14.507  32.754  13.441  0.00  0.00    -0.270 OA
ATOM     18  N2  UNL     1      16.131  33.392  14.900  0.00  0.00    -0.311 N 
ATOM     19  H9  UNL     1      16.649  33.167  15.735  0.00  0.00    +0.149 HD
BRANCH  18  20
ATOM     20  C14 UNL     1      16.186  34.757  14.414  0.00  0.00    +0.106 C 
BRANCH  20  21
ATOM     21  C15 UNL     1      16.147  35.793  15.534  0.00  0.00    +0.034 C 
BRANCH  21  22
ATOM     22  C16 UNL     1      14.933  35.718  16.474  0.00  0.00    +0.086 C 
BRANCH  22  23
ATOM     23  N3  UNL     1      14.981  34.818  17.632  0.00  0.00    -0.302 NA
ATOM     24  C17 UNL     1      13.731  34.743  18.382  0.00  0.00    +0.084 C 
ATOM     25  C18 UNL     1      13.717  33.808  19.596  0.00  0.00    +0.015 C 
ATOM     26  C19 UNL     1      14.462  32.491  19.397  0.00  0.00    +0.001 C 
ATOM     27  C20 UNL     1      15.957  32.623  19.680  0.00  0.00    +0.001 C 
ATOM     28  C21 UNL     1      16.739  33.463  18.673  0.00  0.00    +0.015 C 
ATOM     29  C22 UNL     1      16.200  34.875  18.424  0.00  0.00    +0.084 C 
ENDBRANCH  22  23
ENDBRANCH  21  22
ENDBRANCH  20  21
ENDBRANCH  18  20
ENDBRANCH   7  16
TORSDOF 5
ENDMDL
MODEL 4
REMARK VINA RESULT:    -3.701     17.918     20.498
REMARK INTER + INTRA:          -6.252
REMARK INTER:                  -4.642
REMARK INTRA:                  -1.610
REMARK UNBOUND:                -1.469
REMARK  Name = /home/vital/Documents/PhD_2021/Malaria_codes/data/pdb_ligands_mmv/ligand_133.pdb
REMARK  6 active torsions:
REMARK  status: ('A' for Active; 'I' for Inactive)
REMARK    1  A    between atoms: C1_1  and  N1_2
REMARK    2  A    between atoms: C5_7  and  C13_16
REMARK    3  A    between atoms: N2_18  and  C14_19
REMARK    4  A    between atoms: C14_19  and  C15_20
REMARK    5  A    between atoms: C15_20  and  C16_21
REMARK    6  A    between atoms: C16_21  and  N3_22
REMARK                            x       y       z     vdW  Elec       q    Type
REMARK                         _______ _______ _______ _____ _____    ______ ____
ROOT
ATOM      1  C1  UNL     1      13.838  41.653  30.230  0.00  0.00    +0.152 C 
ATOM      2  N1  UNL     1      14.007  42.790  29.339  0.00  0.00    -0.311 N 
ATOM      3  C2  UNL     1      13.997  42.540  27.955  0.00  0.00    +0.260 A 
ATOM      4  O1  UNL     1      13.854  41.419  27.469  0.00  0.00    -0.267 OA
ATOM      5  C3  UNL     1      14.170  43.697  27.084  0.00  0.00    +0.055 A 
ATOM      6  C4  UNL     1      14.193  43.705  25.652  0.00  0.00    +0.034 A 
ATOM      7  C5  UNL     1      14.379  44.971  25.125  0.00  0.00    +0.075 A 
ATOM      8  S1  UNL     1      14.509  46.132  26.385  0.00  0.00    -0.083 S 
ATOM      9  C6  UNL     1      14.333  44.960  27.603  0.00  0.00    +0.034 A 
ATOM     10  C7  UNL     1      14.343  45.226  29.039  0.00  0.00    +0.013 A 
ATOM     11  C8  UNL     1      14.508  46.508  29.584  0.00  0.00    +0.011 A 
ATOM     12  C9  UNL     1      14.510  46.696  30.965  0.00  0.00    +0.001 A 
ATOM     13  C10 UNL     1      14.348  45.607  31.813  0.00  0.00    +0.002 A 
ATOM     14  C11 UNL     1      14.183  44.324  31.283  0.00  0.00    +0.026 A 
ATOM     15  C12 UNL     1      14.178  44.110  29.895  0.00  0.00    +0.053 A 
ENDROOT
BRANCH   7  16
ATOM     16  C13 UNL     1      14.470  45.421  23.739  0.00  0.00    +0.251 C 
ATOM     17  O2  UNL     1      13.702  45.065  22.848  0.00  0.00    -0.270 OA
ATOM     18  N2  UNL     1      15.496  46.313  23.478  0.00  0.00    -0.311 N 
ATOM     19  H9  UNL     1      16.042  46.676  24.245  0.00  0.00    +0.149 HD
BRANCH  18  20
ATOM     20  C14 UNL     1      15.683  46.906  22.170  0.00  0.00    +0.106 C 
BRANCH  20  21
ATOM     21  C15 UNL     1      17.051  47.560  21.999  0.00  0.00    +0.034 C 
BRANCH  21  22
ATOM     22  C16 UNL     1      18.259  46.611  22.061  0.00  0.00    +0.086 C 
BRANCH  22  23
ATOM     23  N3  UNL     1      18.373  45.674  23.184  0.00  0.00    -0.302 NA
ATOM     24  C17 UNL     1      19.158  46.179  24.306  0.00  0.00    +0.084 C 
ATOM     25  C18 UNL     1      19.302  45.249  25.516  0.00  0.00    +0.015 C 
ATOM     26  C19 UNL     1      18.039  44.471  25.876  0.00  0.00    +0.001 C 
ATOM     27  C20 UNL     1      17.902  43.183  25.066  0.00  0.00    +0.001 C 
ATOM     28  C21 UNL     1      17.616  43.376  23.579  0.00  0.00    +0.015 C 
ATOM     29  C22 UNL     1      18.594  44.282  22.825  0.00  0.00    +0.084 C 
ENDBRANCH  22  23
ENDBRANCH  21  22
ENDBRANCH  20  21
ENDBRANCH  18  20
ENDBRANCH   7  16
TORSDOF 5
ENDMDL
MODEL 5
REMARK VINA RESULT:    -3.673      1.626      7.358
REMARK INTER + INTRA:          -6.216
REMARK INTER:                  -4.631
REMARK INTRA:                  -1.585
REMARK UNBOUND:                -1.469
REMARK  Name = /home/vital/Documents/PhD_2021/Malaria_codes/data/pdb_ligands_mmv/ligand_133.pdb
REMARK  6 active torsions:
REMARK  status: ('A' for Active; 'I' for Inactive)
REMARK    1  A    between atoms: C1_1  and  N1_2
REMARK    2  A    between atoms: C5_7  and  C13_16
REMARK    3  A    between atoms: N2_18  and  C14_19
REMARK    4  A    between atoms: C14_19  and  C15_20
REMARK    5  A    between atoms: C15_20  and  C16_21
REMARK    6  A    between atoms: C16_21  and  N3_22
REMARK                            x       y       z     vdW  Elec       q    Type
REMARK                         _______ _______ _______ _____ _____    ______ ____
ROOT
ATOM      1  C1  UNL     1      15.768  22.761  17.019  0.00  0.00    +0.152 C 
ATOM      2  N1  UNL     1      16.238  24.107  17.304  0.00  0.00    -0.311 N 
ATOM      3  C2  UNL     1      15.272  25.120  17.437  0.00  0.00    +0.260 A 
ATOM      4  O1  UNL     1      14.063  24.924  17.322  0.00  0.00    -0.267 OA
ATOM      5  C3  UNL     1      15.770  26.460  17.722  0.00  0.00    +0.055 A 
ATOM      6  C4  UNL     1      14.994  27.651  17.902  0.00  0.00    +0.034 A 
ATOM      7  C5  UNL     1      15.773  28.766  18.158  0.00  0.00    +0.075 A 
ATOM      8  S1  UNL     1      17.438  28.341  18.188  0.00  0.00    -0.083 S 
ATOM      9  C6  UNL     1      17.117  26.706  17.853  0.00  0.00    +0.034 A 
ATOM     10  C7  UNL     1      18.125  25.659  17.718  0.00  0.00    +0.013 A 
ATOM     11  C8  UNL     1      19.503  25.892  17.848  0.00  0.00    +0.011 A 
ATOM     12  C9  UNL     1      20.415  24.848  17.707  0.00  0.00    +0.001 A 
ATOM     13  C10 UNL     1      19.961  23.563  17.434  0.00  0.00    +0.002 A 
ATOM     14  C11 UNL     1      18.592  23.316  17.301  0.00  0.00    +0.026 A 
ATOM     15  C12 UNL     1      17.654  24.352  17.439  0.00  0.00    +0.053 A 
ENDROOT
BRANCH   7  16
ATOM     16  C13 UNL     1      15.396  30.157  18.393  0.00  0.00    +0.251 C 
ATOM     17  O2  UNL     1      14.846  30.557  19.416  0.00  0.00    -0.270 OA
ATOM     18  N2  UNL     1      15.716  31.032  17.369  0.00  0.00    -0.311 N 
ATOM     19  H9  UNL     1      16.265  30.702  16.590  0.00  0.00    +0.149 HD
BRANCH  18  20
ATOM     20  C14 UNL     1      15.469  32.456  17.472  0.00  0.00    +0.106 C 
BRANCH  20  21
ATOM     21  C15 UNL     1      15.906  33.231  16.232  0.00  0.00    +0.034 C 
BRANCH  21  22
ATOM     22  C16 UNL     1      15.288  32.769  14.902  0.00  0.00    +0.086 C 
BRANCH  22  23
ATOM     23  N3  UNL     1      15.429  31.365  14.500  0.00  0.00    -0.302 NA
ATOM     24  C17 UNL     1      16.710  31.048  13.876  0.00  0.00    +0.084 C 
ATOM     25  C18 UNL     1      16.920  29.592  13.446  0.00  0.00    +0.015 C 
ATOM     26  C19 UNL     1      16.372  28.553  14.420  0.00  0.00    +0.001 C 
ATOM     27  C20 UNL     1      14.888  28.271  14.190  0.00  0.00    +0.001 C 
ATOM     28  C21 UNL     1      13.944  29.415  14.546  0.00  0.00    +0.015 C 
ATOM     29  C22 UNL     1      14.254  30.763  13.889  0.00  0.00    +0.084 C 
ENDBRANCH  22  23
ENDBRANCH  21  22
ENDBRANCH  20  21
ENDBRANCH  18  20
ENDBRANCH   7  16
TORSDOF 5
ENDMDL
MODEL 6
REMARK VINA RESULT:    -3.528      1.595      2.544
REMARK INTER + INTRA:          -6.028
REMARK INTER:                  -4.618
REMARK INTRA:                  -1.410
REMARK UNBOUND:                -1.469
REMARK  Name = /home/vital/Documents/PhD_2021/Malaria_codes/data/pdb_ligands_mmv/ligand_133.pdb
REMARK  6 active torsions:
REMARK  status: ('A' for Active; 'I' for Inactive)
REMARK    1  A    between atoms: C1_1  and  N1_2
REMARK    2  A    between atoms: C5_7  and  C13_16
REMARK    3  A    between atoms: N2_18  and  C14_19
REMARK    4  A    between atoms: C14_19  and  C15_20
REMARK    5  A    between atoms: C15_20  and  C16_21
REMARK    6  A    between atoms: C16_21  and  N3_22
REMARK                            x       y       z     vdW  Elec       q    Type
REMARK                         _______ _______ _______ _____ _____    ______ ____
ROOT
ATOM      1  C1  UNL     1      15.861  32.231  12.870  0.00  0.00    +0.152 C 
ATOM      2  N1  UNL     1      15.668  31.212  13.889  0.00  0.00    -0.311 N 
ATOM      3  C2  UNL     1      15.510  29.882  13.460  0.00  0.00    +0.260 A 
ATOM      4  O1  UNL     1      15.526  29.545  12.277  0.00  0.00    -0.267 OA
ATOM      5  C3  UNL     1      15.317  28.881  14.502  0.00  0.00    +0.055 A 
ATOM      6  C4  UNL     1      15.137  27.471  14.324  0.00  0.00    +0.034 A 
ATOM      7  C5  UNL     1      14.976  26.794  15.520  0.00  0.00    +0.075 A 
ATOM      8  S1  UNL     1      15.062  27.888  16.844  0.00  0.00    -0.083 S 
ATOM      9  C6  UNL     1      15.294  29.233  15.831  0.00  0.00    +0.034 A 
ATOM     10  C7  UNL     1      15.459  30.611  16.284  0.00  0.00    +0.013 A 
ATOM     11  C8  UNL     1      15.438  30.987  17.636  0.00  0.00    +0.011 A 
ATOM     12  C9  UNL     1      15.601  32.322  18.003  0.00  0.00    +0.001 A 
ATOM     13  C10 UNL     1      15.784  33.292  17.025  0.00  0.00    +0.002 A 
ATOM     14  C11 UNL     1      15.807  32.932  15.674  0.00  0.00    +0.026 A 
ATOM     15  C12 UNL     1      15.645  31.594  15.281  0.00  0.00    +0.053 A 
ENDROOT
BRANCH   7  16
ATOM     16  C13 UNL     1      14.763  25.376  15.790  0.00  0.00    +0.251 C 
ATOM     17  O2  UNL     1      14.130  24.623  15.054  0.00  0.00    -0.270 OA
ATOM     18  N2  UNL     1      15.345  24.907  16.956  0.00  0.00    -0.311 N 
ATOM     19  H9  UNL     1      15.952  25.515  17.485  0.00  0.00    +0.149 HD
BRANCH  18  20
ATOM     20  C14 UNL     1      15.284  23.511  17.336  0.00  0.00    +0.106 C 
BRANCH  20  21
ATOM     21  C15 UNL     1      16.583  22.999  17.950  0.00  0.00    +0.034 C 
BRANCH  21  22
ATOM     22  C16 UNL     1      17.307  23.974  18.893  0.00  0.00    +0.086 C 
BRANCH  22  23
ATOM     23  N3  UNL     1      18.015  25.126  18.322  0.00  0.00    -0.302 NA
ATOM     24  C17 UNL     1      18.945  24.784  17.251  0.00  0.00    +0.084 C 
ATOM     25  C18 UNL     1      19.704  25.948  16.606  0.00  0.00    +0.015 C 
ATOM     26  C19 UNL     1      18.877  27.214  16.398  0.00  0.00    +0.001 C 
ATOM     27  C20 UNL     1      18.845  28.095  17.645  0.00  0.00    +0.001 C 
ATOM     28  C21 UNL     1      18.067  27.525  18.828  0.00  0.00    +0.015 C 
ATOM     29  C22 UNL     1      18.478  26.120  19.279  0.00  0.00    +0.084 C 
ENDBRANCH  22  23
ENDBRANCH  21  22
ENDBRANCH  20  21
ENDBRANCH  18  20
ENDBRANCH   7  16
TORSDOF 5
ENDMDL
MODEL 7
REMARK VINA RESULT:    -3.500      2.047      7.208
REMARK INTER + INTRA:          -5.992
REMARK INTER:                  -4.805
REMARK INTRA:                  -1.187
REMARK UNBOUND:                -1.469
REMARK  Name = /home/vital/Documents/PhD_2021/Malaria_codes/data/pdb_ligands_mmv/ligand_133.pdb
REMARK  6 active torsions:
REMARK  status: ('A' for Active; 'I' for Inactive)
REMARK    1  A    between atoms: C1_1  and  N1_2
REMARK    2  A    between atoms: C5_7  and  C13_16
REMARK    3  A    between atoms: N2_18  and  C14_19
REMARK    4  A    between atoms: C14_19  and  C15_20
REMARK    5  A    between atoms: C15_20  and  C16_21
REMARK    6  A    between atoms: C16_21  and  N3_22
REMARK                            x       y       z     vdW  Elec       q    Type
REMARK                         _______ _______ _______ _____ _____    ______ ____
ROOT
ATOM      1  C1  UNL     1      16.982  23.616  18.156  0.00  0.00    +0.152 C 
ATOM      2  N1  UNL     1      16.618  24.974  17.784  0.00  0.00    -0.311 N 
ATOM      3  C2  UNL     1      17.060  26.018  18.616  0.00  0.00    +0.260 A 
ATOM      4  O1  UNL     1      17.731  25.839  19.631  0.00  0.00    -0.267 OA
ATOM      5  C3  UNL     1      16.681  27.369  18.220  0.00  0.00    +0.055 A 
ATOM      6  C4  UNL     1      17.008  28.591  18.894  0.00  0.00    +0.034 A 
ATOM      7  C5  UNL     1      16.491  29.708  18.261  0.00  0.00    +0.075 A 
ATOM      8  S1  UNL     1      15.627  29.251  16.847  0.00  0.00    -0.083 S 
ATOM      9  C6  UNL     1      15.930  27.596  17.090  0.00  0.00    +0.034 A 
ATOM     10  C7  UNL     1      15.469  26.517  16.222  0.00  0.00    +0.013 A 
ATOM     11  C8  UNL     1      14.703  26.731  15.066  0.00  0.00    +0.011 A 
ATOM     12  C9  UNL     1      14.292  25.656  14.279  0.00  0.00    +0.001 A 
ATOM     13  C10 UNL     1      14.642  24.360  14.639  0.00  0.00    +0.002 A 
ATOM     14  C11 UNL     1      15.405  24.132  15.788  0.00  0.00    +0.026 A 
ATOM     15  C12 UNL     1      15.830  25.199  16.596  0.00  0.00    +0.053 A 
ENDROOT
BRANCH   7  16
ATOM     16  C13 UNL     1      16.578  31.123  18.606  0.00  0.00    +0.251 C 
ATOM     17  O2  UNL     1      16.447  31.563  19.746  0.00  0.00    -0.270 OA
ATOM     18  N2  UNL     1      16.839  31.971  17.543  0.00  0.00    -0.311 N 
ATOM     19  H9  UNL     1      17.052  31.579  16.639  0.00  0.00    +0.149 HD
BRANCH  18  20
ATOM     20  C14 UNL     1      17.021  33.397  17.725  0.00  0.00    +0.106 C 
BRANCH  20  21
ATOM     21  C15 UNL     1      16.641  34.212  16.492  0.00  0.00    +0.034 C 
BRANCH  21  22
ATOM     22  C16 UNL     1      15.449  33.681  15.680  0.00  0.00    +0.086 C 
BRANCH  22  23
ATOM     23  N3  UNL     1      15.683  32.660  14.653  0.00  0.00    -0.302 NA
ATOM     24  C17 UNL     1      16.891  32.875  13.862  0.00  0.00    +0.084 C 
ATOM     25  C18 UNL     1      17.196  31.832  12.781  0.00  0.00    +0.015 C 
ATOM     26  C19 UNL     1      16.906  30.390  13.186  0.00  0.00    +0.001 C 
ATOM     27  C20 UNL     1      15.445  30.007  12.958  0.00  0.00    +0.001 C 
ATOM     28  C21 UNL     1      14.441  30.692  13.881  0.00  0.00    +0.015 C 
ATOM     29  C22 UNL     1      14.507  32.222  13.918  0.00  0.00    +0.084 C 
ENDBRANCH  22  23
ENDBRANCH  21  22
ENDBRANCH  20  21
ENDBRANCH  18  20
ENDBRANCH   7  16
TORSDOF 5
ENDMDL
MODEL 8
REMARK VINA RESULT:    -3.491      2.938      6.625
REMARK INTER + INTRA:          -5.980
REMARK INTER:                  -4.476
REMARK INTRA:                  -1.504
REMARK UNBOUND:                -1.469
REMARK  Name = /home/vital/Documents/PhD_2021/Malaria_codes/data/pdb_ligands_mmv/ligand_133.pdb
REMARK  6 active torsions:
REMARK  status: ('A' for Active; 'I' for Inactive)
REMARK    1  A    between atoms: C1_1  and  N1_2
REMARK    2  A    between atoms: C5_7  and  C13_16
REMARK    3  A    between atoms: N2_18  and  C14_19
REMARK    4  A    between atoms: C14_19  and  C15_20
REMARK    5  A    between atoms: C15_20  and  C16_21
REMARK    6  A    between atoms: C16_21  and  N3_22
REMARK                            x       y       z     vdW  Elec       q    Type
REMARK                         _______ _______ _______ _____ _____    ______ ____
ROOT
ATOM      1  C1  UNL     1      23.367  25.347  17.937  0.00  0.00    +0.152 C 
ATOM      2  N1  UNL     1      22.363  25.979  17.095  0.00  0.00    -0.311 N 
ATOM      3  C2  UNL     1      21.194  26.451  17.718  0.00  0.00    +0.260 A 
ATOM      4  O1  UNL     1      20.983  26.354  18.926  0.00  0.00    -0.267 OA
ATOM      5  C3  UNL     1      20.204  27.078  16.851  0.00  0.00    +0.055 A 
ATOM      6  C4  UNL     1      18.943  27.636  17.241  0.00  0.00    +0.034 A 
ATOM      7  C5  UNL     1      18.232  28.154  16.173  0.00  0.00    +0.075 A 
ATOM      8  S1  UNL     1      19.119  27.966  14.713  0.00  0.00    -0.083 S 
ATOM      9  C6  UNL     1      20.416  27.196  15.497  0.00  0.00    +0.034 A 
ATOM     10  C7  UNL     1      21.628  26.709  14.845  0.00  0.00    +0.013 A 
ATOM     11  C8  UNL     1      21.860  26.821  13.465  0.00  0.00    +0.011 A 
ATOM     12  C9  UNL     1      23.039  26.335  12.903  0.00  0.00    +0.001 A 
ATOM     13  C10 UNL     1      23.995  25.732  13.712  0.00  0.00    +0.002 A 
ATOM     14  C11 UNL     1      23.777  25.613  15.087  0.00  0.00    +0.026 A 
ATOM     15  C12 UNL     1      22.597  26.096  15.676  0.00  0.00    +0.053 A 
ENDROOT
BRANCH   7  16
ATOM     16  C13 UNL     1      16.923  28.799  16.123  0.00  0.00    +0.251 C 
ATOM     17  O2  UNL     1      16.513  29.588  16.971  0.00  0.00    -0.270 OA
ATOM     18  N2  UNL     1      16.149  28.470  15.024  0.00  0.00    -0.311 N 
ATOM     19  H9  UNL     1      16.549  27.909  14.288  0.00  0.00    +0.149 HD
BRANCH  18  20
ATOM     20  C14 UNL     1      14.852  29.072  14.792  0.00  0.00    +0.106 C 
BRANCH  20  21
ATOM     21  C15 UNL     1      13.690  28.140  15.123  0.00  0.00    +0.034 C 
BRANCH  21  22
ATOM     22  C16 UNL     1      13.899  26.658  14.769  0.00  0.00    +0.086 C 
BRANCH  22  23
ATOM     23  N3  UNL     1      14.676  25.810  15.680  0.00  0.00    -0.302 NA
ATOM     24  C17 UNL     1      14.995  24.491  15.142  0.00  0.00    +0.084 C 
ATOM     25  C18 UNL     1      15.818  23.564  16.043  0.00  0.00    +0.015 C 
ATOM     26  C19 UNL     1      16.930  24.257  16.825  0.00  0.00    +0.001 C 
ATOM     27  C20 UNL     1      16.425  24.865  18.132  0.00  0.00    +0.001 C 
ATOM     28  C21 UNL     1      15.496  26.066  17.976  0.00  0.00    +0.015 C 
ATOM     29  C22 UNL     1      14.275  25.850  17.078  0.00  0.00    +0.084 C 
ENDBRANCH  22  23
ENDBRANCH  21  22
ENDBRANCH  20  21
ENDBRANCH  18  20
ENDBRANCH   7  16
TORSDOF 5
ENDMDL
MODEL 9
REMARK VINA RESULT:    -3.466      2.275      7.063
REMARK INTER + INTRA:          -5.949
REMARK INTER:                  -4.343
REMARK INTRA:                  -1.606
REMARK UNBOUND:                -1.469
REMARK  Name = /home/vital/Documents/PhD_2021/Malaria_codes/data/pdb_ligands_mmv/ligand_133.pdb
REMARK  6 active torsions:
REMARK  status: ('A' for Active; 'I' for Inactive)
REMARK    1  A    between atoms: C1_1  and  N1_2
REMARK    2  A    between atoms: C5_7  and  C13_16
REMARK    3  A    between atoms: N2_18  and  C14_19
REMARK    4  A    between atoms: C14_19  and  C15_20
REMARK    5  A    between atoms: C15_20  and  C16_21
REMARK    6  A    between atoms: C16_21  and  N3_22
REMARK                            x       y       z     vdW  Elec       q    Type
REMARK                         _______ _______ _______ _____ _____    ______ ____
ROOT
ATOM      1  C1  UNL     1      15.748  22.600  16.049  0.00  0.00    +0.152 C 
ATOM      2  N1  UNL     1      15.806  24.027  16.325  0.00  0.00    -0.311 N 
ATOM      3  C2  UNL     1      15.298  24.901  15.347  0.00  0.00    +0.260 A 
ATOM      4  O1  UNL     1      14.813  24.520  14.283  0.00  0.00    -0.267 OA
ATOM      5  C3  UNL     1      15.369  26.325  15.649  0.00  0.00    +0.055 A 
ATOM      6  C4  UNL     1      14.920  27.407  14.824  0.00  0.00    +0.034 A 
ATOM      7  C5  UNL     1      15.136  28.647  15.400  0.00  0.00    +0.075 A 
ATOM      8  S1  UNL     1      15.870  28.472  16.944  0.00  0.00    -0.083 S 
ATOM      9  C6  UNL     1      15.908  26.777  16.831  0.00  0.00    +0.034 A 
ATOM     10  C7  UNL     1      16.437  25.874  17.851  0.00  0.00    +0.013 A 
ATOM     11  C8  UNL     1      16.989  26.318  19.062  0.00  0.00    +0.011 A 
ATOM     12  C9  UNL     1      17.478  25.405  19.995  0.00  0.00    +0.001 A 
ATOM     13  C10 UNL     1      17.420  24.042  19.726  0.00  0.00    +0.002 A 
ATOM     14  C11 UNL     1      16.873  23.586  18.523  0.00  0.00    +0.026 A 
ATOM     15  C12 UNL     1      16.374  24.488  17.569  0.00  0.00    +0.053 A 
ENDROOT
BRANCH   7  16
ATOM     16  C13 UNL     1      14.841  29.989  14.909  0.00  0.00    +0.251 C 
ATOM     17  O2  UNL     1      13.871  30.267  14.206  0.00  0.00    -0.270 OA
ATOM     18  N2  UNL     1      15.737  30.968  15.302  0.00  0.00    -0.311 N 
ATOM     19  H9  UNL     1      16.459  30.739  15.967  0.00  0.00    +0.149 HD
BRANCH  18  20
ATOM     20  C14 UNL     1      15.552  32.363  14.954  0.00  0.00    +0.106 C 
BRANCH  20  21
ATOM     21  C15 UNL     1      16.775  32.980  14.283  0.00  0.00    +0.034 C 
BRANCH  21  22
ATOM     22  C16 UNL     1      17.514  32.080  13.279  0.00  0.00    +0.086 C 
BRANCH  22  23
ATOM     23  N3  UNL     1      18.246  30.910  13.775  0.00  0.00    -0.302 NA
ATOM     24  C17 UNL     1      19.349  31.233  14.675  0.00  0.00    +0.084 C 
ATOM     25  C18 UNL     1      20.144  30.050  15.237  0.00  0.00    +0.015 C 
ATOM     26  C19 UNL     1      19.300  28.836  15.617  0.00  0.00    +0.001 C 
ATOM     27  C20 UNL     1      19.031  27.922  14.424  0.00  0.00    +0.001 C 
ATOM     28  C21 UNL     1      18.105  28.498  13.356  0.00  0.00    +0.015 C 
ATOM     29  C22 UNL     1      18.506  29.866  12.796  0.00  0.00    +0.084 C 
ENDBRANCH  22  23
ENDBRANCH  21  22
ENDBRANCH  20  21
ENDBRANCH  18  20
ENDBRANCH   7  16
TORSDOF 5
ENDMDL
