MODEL 1
REMARK VINA RESULT:    -3.492      0.000      0.000
REMARK INTER + INTRA:          -5.081
REMARK INTER:                  -4.206
REMARK INTRA:                  -0.875
REMARK UNBOUND:                -0.875
REMARK  Name = /home/vital/Documents/PhD_2021/Malaria_codes/data/pdb_ligands_mmv/ligand_57.pdb
REMARK  5 active torsions:
REMARK  status: ('A' for Active; 'I' for Inactive)
REMARK    1  A    between atoms: C1_1  and  O1_2
REMARK    2  A    between atoms: O1_2  and  C2_3
REMARK    3  A    between atoms: C7_8  and  N1_9
REMARK    4  A    between atoms: C16_19  and  O3_27
REMARK    5  A    between atoms: C17_20  and  N2_21
REMARK                            x       y       z     vdW  Elec       q    Type
REMARK                         _______ _______ _______ _____ _____    ______ ____
ROOT
ATOM      1  N1  UNL     1      15.118  28.687  14.930  0.00  0.00    -0.238 NA
ATOM      2  C8  UNL     1      15.527  28.726  16.167  0.00  0.00    +0.136 C 
ATOM      3  C9  UNL     1      16.196  29.941  16.805  0.00  0.00    +0.214 C 
ATOM      4  O2  UNL     1      17.137  30.533  16.306  0.00  0.00    -0.285 OA
ATOM      5  C10 UNL     1      15.629  30.338  18.097  0.00  0.00    +0.035 A 
ATOM      6  C11 UNL     1      15.697  31.668  18.525  0.00  0.00    +0.012 A 
ATOM      7  C12 UNL     1      15.103  32.025  19.731  0.00  0.00    +0.001 A 
ATOM      8  C13 UNL     1      14.447  31.058  20.495  0.00  0.00    +0.001 A 
ATOM      9  C14 UNL     1      14.404  29.726  20.065  0.00  0.00    +0.012 A 
ATOM     10  C15 UNL     1      15.015  29.343  18.861  0.00  0.00    +0.029 A 
ATOM     11  C16 UNL     1      15.064  27.933  18.409  0.00  0.00    +0.148 C 
ATOM     12  C17 UNL     1      15.306  27.568  17.126  0.00  0.00    +0.102 C 
ENDROOT
BRANCH   1  18
ATOM     13  C2  UNL     1      16.310  29.774  13.079  0.00  0.00    +0.145 A 
ATOM     14  C3  UNL     1      16.452  30.870  12.221  0.00  0.00    +0.048 A 
ATOM     15  C4  UNL     1      15.626  31.986  12.370  0.00  0.00    +0.004 A 
ATOM     16  C5  UNL     1      14.647  32.004  13.360  0.00  0.00    +0.002 A 
ATOM     17  C6  UNL     1      14.491  30.905  14.206  0.00  0.00    +0.031 A 
ATOM     18  C7  UNL     1      15.324  29.787  14.083  0.00  0.00    +0.106 A 
BRANCH  13  20
ATOM     19  C1  UNL     1      18.415  28.807  13.397  0.00  0.00    +0.277 C 
ATOM     20  O1  UNL     1      17.072  28.638  12.949  0.00  0.00    -0.493 OA
ENDBRANCH  13  20
ENDBRANCH   1  18
BRANCH  12  21
ATOM     21  N2  UNL     1      15.356  26.252  16.615  0.00  0.00    -0.325 N 
ATOM     22  C18 UNL     1      14.176  25.620  15.989  0.00  0.00    +0.105 C 
ATOM     23  C19 UNL     1      14.608  24.617  14.923  0.00  0.00    +0.019 C 
ATOM     24  C20 UNL     1      15.456  23.492  15.511  0.00  0.00    +0.003 C 
ATOM     25  C21 UNL     1      16.184  23.920  16.781  0.00  0.00    +0.019 C 
ATOM     26  C22 UNL     1      16.550  25.402  16.757  0.00  0.00    +0.105 C 
ENDBRANCH  12  21
BRANCH  11  27
ATOM     27  O3  UNL     1      14.906  26.981  19.407  0.00  0.00    -0.504 OA
ATOM     28  H22 UNL     1      14.919  26.103  18.988  0.00  0.00    +0.292 HD
ENDBRANCH  11  27
TORSDOF 4
ENDMDL
MODEL 2
REMARK VINA RESULT:    -3.277      1.631      5.293
REMARK INTER + INTRA:          -4.823
REMARK INTER:                  -3.883
REMARK INTRA:                  -0.940
REMARK UNBOUND:                -0.875
REMARK  Name = /home/vital/Documents/PhD_2021/Malaria_codes/data/pdb_ligands_mmv/ligand_57.pdb
REMARK  5 active torsions:
REMARK  status: ('A' for Active; 'I' for Inactive)
REMARK    1  A    between atoms: C1_1  and  O1_2
REMARK    2  A    between atoms: O1_2  and  C2_3
REMARK    3  A    between atoms: C7_8  and  N1_9
REMARK    4  A    between atoms: C16_19  and  O3_27
REMARK    5  A    between atoms: C17_20  and  N2_21
REMARK                            x       y       z     vdW  Elec       q    Type
REMARK                         _______ _______ _______ _____ _____    ______ ____
ROOT
ATOM      1  N1  UNL     1      16.093  27.718  15.359  0.00  0.00    -0.238 NA
ATOM      2  C8  UNL     1      15.475  28.500  16.199  0.00  0.00    +0.136 C 
ATOM      3  C9  UNL     1      14.590  28.000  17.337  0.00  0.00    +0.214 C 
ATOM      4  O2  UNL     1      13.694  27.187  17.187  0.00  0.00    -0.285 OA
ATOM      5  C10 UNL     1      14.884  28.596  18.643  0.00  0.00    +0.035 A 
ATOM      6  C11 UNL     1      14.612  27.895  19.822  0.00  0.00    +0.012 A 
ATOM      7  C12 UNL     1      14.951  28.465  21.045  0.00  0.00    +0.001 A 
ATOM      8  C13 UNL     1      15.558  29.721  21.081  0.00  0.00    +0.001 A 
ATOM      9  C14 UNL     1      15.806  30.421  19.894  0.00  0.00    +0.012 A 
ATOM     10  C15 UNL     1      15.453  29.872  18.652  0.00  0.00    +0.029 A 
ATOM     11  C16 UNL     1      15.622  30.611  17.380  0.00  0.00    +0.148 C 
ATOM     12  C17 UNL     1      15.641  30.011  16.164  0.00  0.00    +0.102 C 
ENDROOT
BRANCH   1  18
ATOM     13  C2  UNL     1      16.650  25.548  16.362  0.00  0.00    +0.145 A 
ATOM     14  C3  UNL     1      16.422  24.170  16.447  0.00  0.00    +0.048 A 
ATOM     15  C4  UNL     1      15.489  23.562  15.605  0.00  0.00    +0.004 A 
ATOM     16  C5  UNL     1      14.769  24.328  14.690  0.00  0.00    +0.002 A 
ATOM     17  C6  UNL     1      14.982  25.705  14.615  0.00  0.00    +0.031 A 
ATOM     18  C7  UNL     1      15.928  26.326  15.439  0.00  0.00    +0.106 A 
BRANCH  13  20
ATOM     19  C1  UNL     1      17.555  25.661  18.514  0.00  0.00    +0.277 C 
ATOM     20  O1  UNL     1      17.529  26.198  17.195  0.00  0.00    -0.493 OA
ENDBRANCH  13  20
ENDBRANCH   1  18
BRANCH  12  21
ATOM     21  N2  UNL     1      15.811  30.641  14.911  0.00  0.00    -0.325 N 
ATOM     22  C18 UNL     1      14.686  30.805  13.969  0.00  0.00    +0.105 C 
ATOM     23  C19 UNL     1      14.876  32.059  13.120  0.00  0.00    +0.019 C 
ATOM     24  C20 UNL     1      16.151  31.991  12.283  0.00  0.00    +0.003 C 
ATOM     25  C21 UNL     1      17.204  31.082  12.908  0.00  0.00    +0.019 C 
ATOM     26  C22 UNL     1      17.131  31.086  14.433  0.00  0.00    +0.105 C 
ENDBRANCH  12  21
BRANCH  11  27
ATOM     27  O3  UNL     1      15.699  31.992  17.498  0.00  0.00    -0.504 OA
ATOM     28  H22 UNL     1      14.892  32.371  17.110  0.00  0.00    +0.292 HD
ENDBRANCH  11  27
TORSDOF 4
ENDMDL
MODEL 3
REMARK VINA RESULT:    -3.190      1.599      4.864
REMARK INTER + INTRA:          -4.718
REMARK INTER:                  -3.846
REMARK INTRA:                  -0.872
REMARK UNBOUND:                -0.875
REMARK  Name = /home/vital/Documents/PhD_2021/Malaria_codes/data/pdb_ligands_mmv/ligand_57.pdb
REMARK  5 active torsions:
REMARK  status: ('A' for Active; 'I' for Inactive)
REMARK    1  A    between atoms: C1_1  and  O1_2
REMARK    2  A    between atoms: O1_2  and  C2_3
REMARK    3  A    between atoms: C7_8  and  N1_9
REMARK    4  A    between atoms: C16_19  and  O3_27
REMARK    5  A    between atoms: C17_20  and  N2_21
REMARK                            x       y       z     vdW  Elec       q    Type
REMARK                         _______ _______ _______ _____ _____    ______ ____
ROOT
ATOM      1  N1  UNL     1      16.004  29.921  16.424  0.00  0.00    -0.238 NA
ATOM      2  C8  UNL     1      15.350  28.855  16.794  0.00  0.00    +0.136 C 
ATOM      3  C9  UNL     1      14.532  27.985  15.844  0.00  0.00    +0.214 C 
ATOM      4  O2  UNL     1      13.696  28.428  15.074  0.00  0.00    -0.285 OA
ATOM      5  C10 UNL     1      14.811  26.549  15.941  0.00  0.00    +0.035 A 
ATOM      6  C11 UNL     1      14.621  25.711  14.838  0.00  0.00    +0.012 A 
ATOM      7  C12 UNL     1      14.945  24.363  14.945  0.00  0.00    +0.001 A 
ATOM      8  C13 UNL     1      15.457  23.865  16.144  0.00  0.00    +0.001 A 
ATOM      9  C14 UNL     1      15.625  24.711  17.247  0.00  0.00    +0.012 A 
ATOM     10  C15 UNL     1      15.284  26.070  17.165  0.00  0.00    +0.029 A 
ATOM     11  C16 UNL     1      15.367  26.981  18.330  0.00  0.00    +0.148 C 
ATOM     12  C17 UNL     1      15.402  28.332  18.220  0.00  0.00    +0.102 C 
ENDROOT
BRANCH   1  18
ATOM     13  C2  UNL     1      16.846  29.887  14.118  0.00  0.00    +0.145 A 
ATOM     14  C3  UNL     1      16.725  30.307  12.789  0.00  0.00    +0.048 A 
ATOM     15  C4  UNL     1      15.720  31.206  12.429  0.00  0.00    +0.004 A 
ATOM     16  C5  UNL     1      14.824  31.675  13.387  0.00  0.00    +0.002 A 
ATOM     17  C6  UNL     1      14.931  31.244  14.710  0.00  0.00    +0.031 A 
ATOM     18  C7  UNL     1      15.946  30.358  15.091  0.00  0.00    +0.106 A 
BRANCH  13  20
ATOM     19  C1  UNL     1      17.777  27.775  13.744  0.00  0.00    +0.277 C 
ATOM     20  O1  UNL     1      17.794  28.974  14.514  0.00  0.00    -0.493 OA
ENDBRANCH  13  20
ENDBRANCH   1  18
BRANCH  12  21
ATOM     21  N2  UNL     1      15.495  29.266  19.276  0.00  0.00    -0.325 N 
ATOM     22  C18 UNL     1      16.801  29.730  19.787  0.00  0.00    +0.105 C 
ATOM     23  C19 UNL     1      16.691  31.154  20.323  0.00  0.00    +0.019 C 
ATOM     24  C20 UNL     1      15.701  31.251  21.481  0.00  0.00    +0.003 C 
ATOM     25  C21 UNL     1      14.638  30.159  21.426  0.00  0.00    +0.019 C 
ATOM     26  C22 UNL     1      14.305  29.758  19.990  0.00  0.00    +0.105 C 
ENDBRANCH  12  21
BRANCH  11  27
ATOM     27  O3  UNL     1      15.344  26.364  19.573  0.00  0.00    -0.504 OA
ATOM     28  H22 UNL     1      15.544  27.038  20.245  0.00  0.00    +0.292 HD
ENDBRANCH  11  27
TORSDOF 4
ENDMDL
MODEL 4
REMARK VINA RESULT:    -3.154      1.799      5.717
REMARK INTER + INTRA:          -4.674
REMARK INTER:                  -3.676
REMARK INTRA:                  -0.999
REMARK UNBOUND:                -0.875
REMARK  Name = /home/vital/Documents/PhD_2021/Malaria_codes/data/pdb_ligands_mmv/ligand_57.pdb
REMARK  5 active torsions:
REMARK  status: ('A' for Active; 'I' for Inactive)
REMARK    1  A    between atoms: C1_1  and  O1_2
REMARK    2  A    between atoms: O1_2  and  C2_3
REMARK    3  A    between atoms: C7_8  and  N1_9
REMARK    4  A    between atoms: C16_19  and  O3_27
REMARK    5  A    between atoms: C17_20  and  N2_21
REMARK                            x       y       z     vdW  Elec       q    Type
REMARK                         _______ _______ _______ _____ _____    ______ ____
ROOT
ATOM      1  N1  UNL     1      15.201  28.084  16.992  0.00  0.00    -0.238 NA
ATOM      2  C8  UNL     1      15.789  29.117  16.458  0.00  0.00    +0.136 C 
ATOM      3  C9  UNL     1      16.270  29.171  15.010  0.00  0.00    +0.214 C 
ATOM      4  O2  UNL     1      16.962  28.308  14.497  0.00  0.00    -0.285 OA
ATOM      5  C10 UNL     1      15.850  30.366  14.273  0.00  0.00    +0.035 A 
ATOM      6  C11 UNL     1      15.693  30.328  12.885  0.00  0.00    +0.012 A 
ATOM      7  C12 UNL     1      15.242  31.464  12.220  0.00  0.00    +0.001 A 
ATOM      8  C13 UNL     1      14.951  32.621  12.943  0.00  0.00    +0.001 A 
ATOM      9  C14 UNL     1      15.131  32.652  14.331  0.00  0.00    +0.012 A 
ATOM     10  C15 UNL     1      15.605  31.524  15.017  0.00  0.00    +0.029 A 
ATOM     11  C16 UNL     1      15.888  31.538  16.471  0.00  0.00    +0.148 C 
ATOM     12  C17 UNL     1      15.990  30.415  17.223  0.00  0.00    +0.102 C 
ENDROOT
BRANCH   1  18
ATOM     13  C2  UNL     1      15.871  25.803  16.382  0.00  0.00    +0.145 A 
ATOM     14  C3  UNL     1      15.626  24.632  15.655  0.00  0.00    +0.048 A 
ATOM     15  C4  UNL     1      14.542  24.568  14.778  0.00  0.00    +0.004 A 
ATOM     16  C5  UNL     1      13.690  25.661  14.637  0.00  0.00    +0.002 A 
ATOM     17  C6  UNL     1      13.922  26.824  15.374  0.00  0.00    +0.031 A 
ATOM     18  C7  UNL     1      15.016  26.911  16.243  0.00  0.00    +0.106 A 
BRANCH  13  20
ATOM     19  C1  UNL     1      18.190  25.813  16.681  0.00  0.00    +0.277 C 
ATOM     20  O1  UNL     1      16.902  25.901  17.285  0.00  0.00    -0.493 OA
ENDBRANCH  13  20
ENDBRANCH   1  18
BRANCH  12  21
ATOM     21  N2  UNL     1      16.244  30.345  18.611  0.00  0.00    -0.325 N 
ATOM     22  C18 UNL     1      17.544  29.885  19.138  0.00  0.00    +0.105 C 
ATOM     23  C19 UNL     1      17.848  30.555  20.475  0.00  0.00    +0.019 C 
ATOM     24  C20 UNL     1      16.798  30.222  21.530  0.00  0.00    +0.003 C 
ATOM     25  C21 UNL     1      15.447  29.876  20.912  0.00  0.00    +0.019 C 
ATOM     26  C22 UNL     1      15.203  30.637  19.611  0.00  0.00    +0.105 C 
ENDBRANCH  12  21
BRANCH  11  27
ATOM     27  O3  UNL     1      16.111  32.792  17.022  0.00  0.00    -0.504 OA
ATOM     28  H22 UNL     1      16.350  32.670  17.957  0.00  0.00    +0.292 HD
ENDBRANCH  11  27
TORSDOF 4
ENDMDL
MODEL 5
REMARK VINA RESULT:    -3.055      2.387      6.167
REMARK INTER + INTRA:          -4.555
REMARK INTER:                  -3.805
REMARK INTRA:                  -0.751
REMARK UNBOUND:                -0.875
REMARK  Name = /home/vital/Documents/PhD_2021/Malaria_codes/data/pdb_ligands_mmv/ligand_57.pdb
REMARK  5 active torsions:
REMARK  status: ('A' for Active; 'I' for Inactive)
REMARK    1  A    between atoms: C1_1  and  O1_2
REMARK    2  A    between atoms: O1_2  and  C2_3
REMARK    3  A    between atoms: C7_8  and  N1_9
REMARK    4  A    between atoms: C16_19  and  O3_27
REMARK    5  A    between atoms: C17_20  and  N2_21
REMARK                            x       y       z     vdW  Elec       q    Type
REMARK                         _______ _______ _______ _____ _____    ______ ____
ROOT
ATOM      1  N1  UNL     1      17.435  27.294  14.882  0.00  0.00    -0.238 NA
ATOM      2  C8  UNL     1      17.536  28.212  13.962  0.00  0.00    +0.136 C 
ATOM      3  C9  UNL     1      16.354  28.746  13.156  0.00  0.00    +0.214 C 
ATOM      4  O2  UNL     1      15.551  28.030  12.582  0.00  0.00    -0.285 OA
ATOM      5  C10 UNL     1      16.264  30.208  13.103  0.00  0.00    +0.035 A 
ATOM      6  C11 UNL     1      15.028  30.839  12.935  0.00  0.00    +0.012 A 
ATOM      7  C12 UNL     1      14.969  32.229  12.942  0.00  0.00    +0.001 A 
ATOM      8  C13 UNL     1      16.136  32.973  13.119  0.00  0.00    +0.001 A 
ATOM      9  C14 UNL     1      17.370  32.328  13.266  0.00  0.00    +0.012 A 
ATOM     10  C15 UNL     1      17.454  30.928  13.241  0.00  0.00    +0.029 A 
ATOM     11  C16 UNL     1      18.747  30.208  13.311  0.00  0.00    +0.148 C 
ATOM     12  C17 UNL     1      18.856  28.900  13.651  0.00  0.00    +0.102 C 
ENDROOT
BRANCH   1  18
ATOM     13  C2  UNL     1      15.261  27.294  16.021  0.00  0.00    +0.145 A 
ATOM     14  C3  UNL     1      14.013  26.697  16.226  0.00  0.00    +0.048 A 
ATOM     15  C4  UNL     1      13.695  25.500  15.581  0.00  0.00    +0.004 A 
ATOM     16  C5  UNL     1      14.613  24.907  14.717  0.00  0.00    +0.002 A 
ATOM     17  C6  UNL     1      15.852  25.510  14.496  0.00  0.00    +0.031 A 
ATOM     18  C7  UNL     1      16.193  26.699  15.151  0.00  0.00    +0.106 A 
BRANCH  13  20
ATOM     19  C1  UNL     1      15.616  28.440  18.028  0.00  0.00    +0.277 C 
ATOM     20  O1  UNL     1      15.605  28.490  16.603  0.00  0.00    -0.493 OA
ENDBRANCH  13  20
ENDBRANCH   1  18
BRANCH  12  21
ATOM     21  N2  UNL     1      20.047  28.148  13.753  0.00  0.00    -0.325 N 
ATOM     22  C18 UNL     1      20.895  28.203  14.961  0.00  0.00    +0.105 C 
ATOM     23  C19 UNL     1      21.624  26.877  15.163  0.00  0.00    +0.019 C 
ATOM     24  C20 UNL     1      22.543  26.548  13.990  0.00  0.00    +0.003 C 
ATOM     25  C21 UNL     1      22.080  27.204  12.692  0.00  0.00    +0.019 C 
ATOM     26  C22 UNL     1      20.561  27.342  12.633  0.00  0.00    +0.105 C 
ENDBRANCH  12  21
BRANCH  11  27
ATOM     27  O3  UNL     1      19.861  30.947  12.940  0.00  0.00    -0.504 OA
ATOM     28  H22 UNL     1      19.967  30.865  11.976  0.00  0.00    +0.292 HD
ENDBRANCH  11  27
TORSDOF 4
ENDMDL
MODEL 6
REMARK VINA RESULT:    -3.031      1.635      6.412
REMARK INTER + INTRA:          -4.526
REMARK INTER:                  -3.552
REMARK INTRA:                  -0.974
REMARK UNBOUND:                -0.875
REMARK  Name = /home/vital/Documents/PhD_2021/Malaria_codes/data/pdb_ligands_mmv/ligand_57.pdb
REMARK  5 active torsions:
REMARK  status: ('A' for Active; 'I' for Inactive)
REMARK    1  A    between atoms: C1_1  and  O1_2
REMARK    2  A    between atoms: O1_2  and  C2_3
REMARK    3  A    between atoms: C7_8  and  N1_9
REMARK    4  A    between atoms: C16_19  and  O3_27
REMARK    5  A    between atoms: C17_20  and  N2_21
REMARK                            x       y       z     vdW  Elec       q    Type
REMARK                         _______ _______ _______ _____ _____    ______ ____
ROOT
ATOM      1  N1  UNL     1      15.257  29.483  17.118  0.00  0.00    -0.238 NA
ATOM      2  C8  UNL     1      15.772  28.590  16.320  0.00  0.00    +0.136 C 
ATOM      3  C9  UNL     1      16.454  27.311  16.797  0.00  0.00    +0.214 C 
ATOM      4  O2  UNL     1      17.327  27.289  17.648  0.00  0.00    -0.285 OA
ATOM      5  C10 UNL     1      15.991  26.090  16.132  0.00  0.00    +0.035 A 
ATOM      6  C11 UNL     1      16.051  24.856  16.787  0.00  0.00    +0.012 A 
ATOM      7  C12 UNL     1      15.555  23.723  16.149  0.00  0.00    +0.001 A 
ATOM      8  C13 UNL     1      15.003  23.831  14.872  0.00  0.00    +0.001 A 
ATOM      9  C14 UNL     1      14.966  25.069  14.220  0.00  0.00    +0.012 A 
ATOM     10  C15 UNL     1      15.480  26.220  14.838  0.00  0.00    +0.029 A 
ATOM     11  C16 UNL     1      15.536  27.532  14.153  0.00  0.00    +0.148 C 
ATOM     12  C17 UNL     1      15.677  28.711  14.807  0.00  0.00    +0.102 C 
ENDROOT
BRANCH   1  18
ATOM     13  C2  UNL     1      16.311  30.012  19.271  0.00  0.00    +0.145 A 
ATOM     14  C3  UNL     1      16.341  29.865  20.662  0.00  0.00    +0.048 A 
ATOM     15  C4  UNL     1      15.427  29.022  21.296  0.00  0.00    +0.004 A 
ATOM     16  C5  UNL     1      14.471  28.338  20.548  0.00  0.00    +0.002 A 
ATOM     17  C6  UNL     1      14.427  28.496  19.162  0.00  0.00    +0.031 A 
ATOM     18  C7  UNL     1      15.350  29.322  18.509  0.00  0.00    +0.106 A 
BRANCH  13  20
ATOM     19  C1  UNL     1      18.522  30.425  18.632  0.00  0.00    +0.277 C 
ATOM     20  O1  UNL     1      17.164  30.859  18.605  0.00  0.00    -0.493 OA
ENDBRANCH  13  20
ENDBRANCH   1  18
BRANCH  12  21
ATOM     21  N2  UNL     1      15.725  29.999  14.230  0.00  0.00    -0.325 N 
ATOM     22  C18 UNL     1      14.494  30.755  13.921  0.00  0.00    +0.105 C 
ATOM     23  C19 UNL     1      14.747  32.257  14.027  0.00  0.00    +0.019 C 
ATOM     24  C20 UNL     1      15.815  32.724  13.041  0.00  0.00    +0.003 C 
ATOM     25  C21 UNL     1      16.785  31.608  12.669  0.00  0.00    +0.019 C 
ATOM     26  C22 UNL     1      16.993  30.624  13.818  0.00  0.00    +0.105 C 
ENDBRANCH  12  21
BRANCH  11  27
ATOM     27  O3  UNL     1      15.500  27.482  12.766  0.00  0.00    -0.504 OA
ATOM     28  H22 UNL     1      15.293  28.375  12.440  0.00  0.00    +0.292 HD
ENDBRANCH  11  27
TORSDOF 4
ENDMDL
MODEL 7
REMARK VINA RESULT:    -2.903      2.594      5.639
REMARK INTER + INTRA:          -4.372
REMARK INTER:                  -3.398
REMARK INTRA:                  -0.974
REMARK UNBOUND:                -0.875
REMARK  Name = /home/vital/Documents/PhD_2021/Malaria_codes/data/pdb_ligands_mmv/ligand_57.pdb
REMARK  5 active torsions:
REMARK  status: ('A' for Active; 'I' for Inactive)
REMARK    1  A    between atoms: C1_1  and  O1_2
REMARK    2  A    between atoms: O1_2  and  C2_3
REMARK    3  A    between atoms: C7_8  and  N1_9
REMARK    4  A    between atoms: C16_19  and  O3_27
REMARK    5  A    between atoms: C17_20  and  N2_21
REMARK                            x       y       z     vdW  Elec       q    Type
REMARK                         _______ _______ _______ _____ _____    ______ ____
ROOT
ATOM      1  N1  UNL     1      14.548  27.358  19.033  0.00  0.00    -0.238 NA
ATOM      2  C8  UNL     1      15.294  28.426  19.098  0.00  0.00    +0.136 C 
ATOM      3  C9  UNL     1      16.170  28.926  17.952  0.00  0.00    +0.214 C 
ATOM      4  O2  UNL     1      16.956  28.218  17.346  0.00  0.00    -0.285 OA
ATOM      5  C10 UNL     1      16.012  30.350  17.642  0.00  0.00    +0.035 A 
ATOM      6  C11 UNL     1      16.257  30.828  16.351  0.00  0.00    +0.012 A 
ATOM      7  C12 UNL     1      16.047  32.175  16.074  0.00  0.00    +0.001 A 
ATOM      8  C13 UNL     1      15.594  33.028  17.081  0.00  0.00    +0.001 A 
ATOM      9  C14 UNL     1      15.370  32.540  18.374  0.00  0.00    +0.012 A 
ATOM     10  C15 UNL     1      15.596  31.189  18.679  0.00  0.00    +0.029 A 
ATOM     11  C16 UNL     1      15.452  30.649  20.050  0.00  0.00    +0.148 C 
ATOM     12  C17 UNL     1      15.303  29.328  20.321  0.00  0.00    +0.102 C 
ENDROOT
BRANCH   1  18
ATOM     13  C2  UNL     1      15.322  25.388  17.790  0.00  0.00    +0.145 A 
ATOM     14  C3  UNL     1      15.263  24.594  16.639  0.00  0.00    +0.048 A 
ATOM     15  C4  UNL     1      14.455  24.976  15.567  0.00  0.00    +0.004 A 
ATOM     16  C5  UNL     1      13.690  26.139  15.646  0.00  0.00    +0.002 A 
ATOM     17  C6  UNL     1      13.734  26.923  16.800  0.00  0.00    +0.031 A 
ATOM     18  C7  UNL     1      14.554  26.564  17.876  0.00  0.00    +0.106 A 
BRANCH  13  20
ATOM     19  C1  UNL     1      17.455  24.858  18.587  0.00  0.00    +0.277 C 
ATOM     20  O1  UNL     1      16.072  25.034  18.886  0.00  0.00    -0.493 OA
ENDBRANCH  13  20
ENDBRANCH   1  18
BRANCH  12  21
ATOM     21  N2  UNL     1      15.146  28.738  21.595  0.00  0.00    -0.325 N 
ATOM     22  C18 UNL     1      16.199  27.889  22.189  0.00  0.00    +0.105 C 
ATOM     23  C19 UNL     1      16.170  27.988  23.712  0.00  0.00    +0.019 C 
ATOM     24  C20 UNL     1      14.839  27.512  24.287  0.00  0.00    +0.003 C 
ATOM     25  C21 UNL     1      13.694  27.660  23.291  0.00  0.00    +0.019 C 
ATOM     26  C22 UNL     1      13.895  28.855  22.362  0.00  0.00    +0.105 C 
ENDBRANCH  12  21
BRANCH  11  27
ATOM     27  O3  UNL     1      15.541  31.584  21.072  0.00  0.00    -0.504 OA
ATOM     28  H22 UNL     1      14.762  31.478  21.644  0.00  0.00    +0.292 HD
ENDBRANCH  11  27
TORSDOF 4
ENDMDL
MODEL 8
REMARK VINA RESULT:    -2.888      1.465      5.404
REMARK INTER + INTRA:          -4.354
REMARK INTER:                  -3.502
REMARK INTRA:                  -0.852
REMARK UNBOUND:                -0.875
REMARK  Name = /home/vital/Documents/PhD_2021/Malaria_codes/data/pdb_ligands_mmv/ligand_57.pdb
REMARK  5 active torsions:
REMARK  status: ('A' for Active; 'I' for Inactive)
REMARK    1  A    between atoms: C1_1  and  O1_2
REMARK    2  A    between atoms: O1_2  and  C2_3
REMARK    3  A    between atoms: C7_8  and  N1_9
REMARK    4  A    between atoms: C16_19  and  O3_27
REMARK    5  A    between atoms: C17_20  and  N2_21
REMARK                            x       y       z     vdW  Elec       q    Type
REMARK                         _______ _______ _______ _____ _____    ______ ____
ROOT
ATOM      1  N1  UNL     1      16.333  27.157  16.206  0.00  0.00    -0.238 NA
ATOM      2  C8  UNL     1      15.598  28.016  16.855  0.00  0.00    +0.136 C 
ATOM      3  C9  UNL     1      14.680  27.647  18.017  0.00  0.00    +0.214 C 
ATOM      4  O2  UNL     1      13.865  26.741  17.972  0.00  0.00    -0.285 OA
ATOM      5  C10 UNL     1      14.835  28.490  19.206  0.00  0.00    +0.035 A 
ATOM      6  C11 UNL     1      14.541  27.988  20.477  0.00  0.00    +0.012 A 
ATOM      7  C12 UNL     1      14.749  28.794  21.592  0.00  0.00    +0.001 A 
ATOM      8  C13 UNL     1      15.248  30.087  21.429  0.00  0.00    +0.001 A 
ATOM      9  C14 UNL     1      15.520  30.584  20.149  0.00  0.00    +0.012 A 
ATOM     10  C15 UNL     1      15.298  29.794  19.011  0.00  0.00    +0.029 A 
ATOM     11  C16 UNL     1      15.494  30.308  17.636  0.00  0.00    +0.148 C 
ATOM     12  C17 UNL     1      15.644  29.505  16.553  0.00  0.00    +0.102 C 
ENDROOT
BRANCH   1  18
ATOM     13  C2  UNL     1      15.649  24.857  15.686  0.00  0.00    +0.145 A 
ATOM     14  C3  UNL     1      15.655  23.498  16.018  0.00  0.00    +0.048 A 
ATOM     15  C4  UNL     1      16.269  23.069  17.196  0.00  0.00    +0.004 A 
ATOM     16  C5  UNL     1      16.893  23.989  18.035  0.00  0.00    +0.002 A 
ATOM     17  C6  UNL     1      16.903  25.344  17.698  0.00  0.00    +0.031 A 
ATOM     18  C7  UNL     1      16.275  25.792  16.530  0.00  0.00    +0.106 A 
BRANCH  13  20
ATOM     19  C1  UNL     1      13.700  25.608  14.636  0.00  0.00    +0.277 C 
ATOM     20  O1  UNL     1      15.091  25.323  14.520  0.00  0.00    -0.493 OA
ENDBRANCH  13  20
ENDBRANCH   1  18
BRANCH  12  21
ATOM     21  N2  UNL     1      15.848  29.916  15.217  0.00  0.00    -0.325 N 
ATOM     22  C18 UNL     1      17.188  30.282  14.716  0.00  0.00    +0.105 C 
ATOM     23  C19 UNL     1      17.307  29.970  13.227  0.00  0.00    +0.019 C 
ATOM     24  C20 UNL     1      16.293  30.754  12.399  0.00  0.00    +0.003 C 
ATOM     25  C21 UNL     1      15.056  31.133  13.207  0.00  0.00    +0.019 C 
ATOM     26  C22 UNL     1      14.730  30.091  14.274  0.00  0.00    +0.105 C 
ENDBRANCH  12  21
BRANCH  11  27
ATOM     27  O3  UNL     1      15.452  31.688  17.504  0.00  0.00    -0.504 OA
ATOM     28  H22 UNL     1      16.364  32.022  17.554  0.00  0.00    +0.292 HD
ENDBRANCH  11  27
TORSDOF 4
ENDMDL
MODEL 9
REMARK VINA RESULT:    -2.771      3.519      6.360
REMARK INTER + INTRA:          -4.213
REMARK INTER:                  -3.213
REMARK INTRA:                  -1.000
REMARK UNBOUND:                -0.875
REMARK  Name = /home/vital/Documents/PhD_2021/Malaria_codes/data/pdb_ligands_mmv/ligand_57.pdb
REMARK  5 active torsions:
REMARK  status: ('A' for Active; 'I' for Inactive)
REMARK    1  A    between atoms: C1_1  and  O1_2
REMARK    2  A    between atoms: O1_2  and  C2_3
REMARK    3  A    between atoms: C7_8  and  N1_9
REMARK    4  A    between atoms: C16_19  and  O3_27
REMARK    5  A    between atoms: C17_20  and  N2_21
REMARK                            x       y       z     vdW  Elec       q    Type
REMARK                         _______ _______ _______ _____ _____    ______ ____
ROOT
ATOM      1  N1  UNL     1      17.039  27.678  19.452  0.00  0.00    -0.238 NA
ATOM      2  C8  UNL     1      16.435  26.601  19.035  0.00  0.00    +0.136 C 
ATOM      3  C9  UNL     1      15.002  26.575  18.511  0.00  0.00    +0.214 C 
ATOM      4  O2  UNL     1      14.058  27.068  19.105  0.00  0.00    -0.285 OA
ATOM      5  C10 UNL     1      14.834  25.882  17.230  0.00  0.00    +0.035 A 
ATOM      6  C11 UNL     1      13.797  26.234  16.362  0.00  0.00    +0.012 A 
ATOM      7  C12 UNL     1      13.696  25.595  15.130  0.00  0.00    +0.001 A 
ATOM      8  C13 UNL     1      14.627  24.618  14.776  0.00  0.00    +0.001 A 
ATOM      9  C14 UNL     1      15.650  24.261  15.664  0.00  0.00    +0.012 A 
ATOM     10  C15 UNL     1      15.756  24.879  16.919  0.00  0.00    +0.029 A 
ATOM     11  C16 UNL     1      16.771  24.475  17.920  0.00  0.00    +0.148 C 
ATOM     12  C17 UNL     1      17.143  25.257  18.964  0.00  0.00    +0.102 C 
ENDROOT
BRANCH   1  18
ATOM     13  C2  UNL     1      15.827  29.426  20.678  0.00  0.00    +0.145 A 
ATOM     14  C3  UNL     1      15.195  30.674  20.678  0.00  0.00    +0.048 A 
ATOM     15  C4  UNL     1      15.072  31.397  19.490  0.00  0.00    +0.004 A 
ATOM     16  C5  UNL     1      15.594  30.885  18.303  0.00  0.00    +0.002 A 
ATOM     17  C6  UNL     1      16.240  29.648  18.303  0.00  0.00    +0.031 A 
ATOM     18  C7  UNL     1      16.354  28.903  19.483  0.00  0.00    +0.106 A 
BRANCH  13  20
ATOM     19  C1  UNL     1      14.781  28.263  22.415  0.00  0.00    +0.277 C 
ATOM     20  O1  UNL     1      16.006  28.696  21.828  0.00  0.00    -0.493 OA
ENDBRANCH  13  20
ENDBRANCH   1  18
BRANCH  12  21
ATOM     21  N2  UNL     1      18.108  24.952  19.949  0.00  0.00    -0.325 N 
ATOM     22  C18 UNL     1      17.720  24.599  21.329  0.00  0.00    +0.105 C 
ATOM     23  C19 UNL     1      18.742  23.649  21.947  0.00  0.00    +0.019 C 
ATOM     24  C20 UNL     1      20.130  24.279  22.023  0.00  0.00    +0.003 C 
ATOM     25  C21 UNL     1      20.335  25.356  20.963  0.00  0.00    +0.019 C 
ATOM     26  C22 UNL     1      19.553  25.056  19.686  0.00  0.00    +0.105 C 
ENDBRANCH  12  21
BRANCH  11  27
ATOM     27  O3  UNL     1      17.287  23.197  17.764  0.00  0.00    -0.504 OA
ATOM     28  H22 UNL     1      17.368  22.797  18.647  0.00  0.00    +0.292 HD
ENDBRANCH  11  27
TORSDOF 4
ENDMDL
