MODEL 1
REMARK VINA RESULT:    -4.254      0.000      0.000
REMARK INTER + INTRA:          -6.102
REMARK INTER:                  -5.249
REMARK INTRA:                  -0.853
REMARK UNBOUND:                -0.853
REMARK  Name = /home/vital/Documents/PhD_2021/Malaria_codes/data/pdb_ligands_mmv/ligand_320.pdb
REMARK  6 active torsions:
REMARK  status: ('A' for Active; 'I' for Inactive)
REMARK    1  A    between atoms: C1_1  and  N1_2
REMARK    2  A    between atoms: N1_2  and  C2_3
REMARK    3  A    between atoms: N1_2  and  C3_4
REMARK    4  A    between atoms: C6_7  and  N2_10
REMARK    5  A    between atoms: C9_11  and  C10_12
REMARK    6  A    between atoms: C13_15  and  N3_18
REMARK                            x       y       z     vdW  Elec       q    Type
REMARK                         _______ _______ _______ _____ _____    ______ ____
ROOT
ATOM      1  C10 UNL     1      14.494  26.819  14.728  0.00  0.00    -0.007 A 
ATOM      2  C11 UNL     1      15.804  26.939  14.278  0.00  0.00    +0.011 A 
ATOM      3  C12 UNL     1      16.292  28.189  13.870  0.00  0.00    +0.024 A 
ATOM      4  C13 UNL     1      15.504  29.351  13.914  0.00  0.00    +0.030 A 
ATOM      5  C14 UNL     1      14.195  29.199  14.399  0.00  0.00    +0.024 A 
ATOM      6  C15 UNL     1      13.693  27.955  14.807  0.00  0.00    +0.011 A 
ENDROOT
BRANCH   4   7
ATOM      7  N3  UNL     1      15.995  30.578  13.508  0.00  0.00    -0.326 N 
ATOM      8  C16 UNL     1      15.393  31.330  12.393  0.00  0.00    +0.133 C 
ATOM      9  C17 UNL     1      15.609  32.839  12.594  0.00  0.00    +0.178 C 
ATOM     10  O1  UNL     1      16.987  33.228  12.685  0.00  0.00    -0.377 OA
ATOM     11  C18 UNL     1      17.831  32.199  13.221  0.00  0.00    +0.178 C 
ATOM     12  C19 UNL     1      17.116  31.242  14.190  0.00  0.00    +0.133 C 
ENDBRANCH   4   7
BRANCH   1  14
ATOM     13  N2  UNL     1      13.822  25.057  16.403  0.00  0.00    -0.255 NA
ATOM     14  C9  UNL     1      13.922  25.541  15.200  0.00  0.00    +0.119 C 
BRANCH  13  18
ATOM     15  C3  UNL     1      15.540  27.046  19.758  0.00  0.00    +0.029 A 
ATOM     16  C4  UNL     1      14.271  27.395  19.260  0.00  0.00    +0.025 A 
ATOM     17  C5  UNL     1      13.693  26.745  18.158  0.00  0.00    +0.029 A 
ATOM     18  C6  UNL     1      14.363  25.709  17.515  0.00  0.00    +0.064 A 
ATOM     19  C7  UNL     1      15.638  25.375  17.955  0.00  0.00    +0.029 A 
ATOM     20  C8  UNL     1      16.211  26.029  19.055  0.00  0.00    +0.025 A 
BRANCH  15  22
ATOM     21  C1  UNL     1      17.457  27.320  21.285  0.00  0.00    +0.129 C 
ATOM     22  N1  UNL     1      16.117  27.704  20.850  0.00  0.00    -0.336 N 
ATOM     23  C2  UNL     1      15.245  28.252  21.888  0.00  0.00    +0.129 C 
ENDBRANCH  15  22
ENDBRANCH  13  18
ENDBRANCH   1  14
TORSDOF 4
ENDMDL
MODEL 2
REMARK VINA RESULT:    -4.013      1.690      2.561
REMARK INTER + INTRA:          -5.804
REMARK INTER:                  -4.906
REMARK INTRA:                  -0.899
REMARK UNBOUND:                -0.853
REMARK  Name = /home/vital/Documents/PhD_2021/Malaria_codes/data/pdb_ligands_mmv/ligand_320.pdb
REMARK  6 active torsions:
REMARK  status: ('A' for Active; 'I' for Inactive)
REMARK    1  A    between atoms: C1_1  and  N1_2
REMARK    2  A    between atoms: N1_2  and  C2_3
REMARK    3  A    between atoms: N1_2  and  C3_4
REMARK    4  A    between atoms: C6_7  and  N2_10
REMARK    5  A    between atoms: C9_11  and  C10_12
REMARK    6  A    between atoms: C13_15  and  N3_18
REMARK                            x       y       z     vdW  Elec       q    Type
REMARK                         _______ _______ _______ _____ _____    ______ ____
ROOT
ATOM      1  C10 UNL     1      14.223  26.678  14.927  0.00  0.00    -0.007 A 
ATOM      2  C11 UNL     1      15.104  26.698  13.852  0.00  0.00    +0.011 A 
ATOM      3  C12 UNL     1      15.591  27.920  13.368  0.00  0.00    +0.024 A 
ATOM      4  C13 UNL     1      15.232  29.150  13.946  0.00  0.00    +0.030 A 
ATOM      5  C14 UNL     1      14.362  29.092  15.046  0.00  0.00    +0.024 A 
ATOM      6  C15 UNL     1      13.865  27.877  15.539  0.00  0.00    +0.011 A 
ENDROOT
BRANCH   4   7
ATOM      7  N3  UNL     1      15.716  30.351  13.460  0.00  0.00    -0.326 N 
ATOM      8  C16 UNL     1      16.891  31.014  14.052  0.00  0.00    +0.133 C 
ATOM      9  C17 UNL     1      17.616  31.855  12.988  0.00  0.00    +0.178 C 
ATOM     10  O1  UNL     1      16.801  32.871  12.386  0.00  0.00    -0.377 OA
ATOM     11  C18 UNL     1      15.408  32.534  12.357  0.00  0.00    +0.178 C 
ATOM     12  C19 UNL     1      15.127  31.024  12.292  0.00  0.00    +0.133 C 
ENDBRANCH   4   7
BRANCH   1  14
ATOM     13  N2  UNL     1      14.166  24.671  16.454  0.00  0.00    -0.255 NA
ATOM     14  C9  UNL     1      13.692  25.426  15.507  0.00  0.00    +0.119 C 
BRANCH  13  18
ATOM     15  C3  UNL     1      17.896  25.424  18.372  0.00  0.00    +0.029 A 
ATOM     16  C4  UNL     1      17.818  24.727  17.152  0.00  0.00    +0.025 A 
ATOM     17  C5  UNL     1      16.596  24.476  16.509  0.00  0.00    +0.029 A 
ATOM     18  C6  UNL     1      15.400  24.924  17.061  0.00  0.00    +0.064 A 
ATOM     19  C7  UNL     1      15.442  25.573  18.289  0.00  0.00    +0.029 A 
ATOM     20  C8  UNL     1      16.666  25.819  18.928  0.00  0.00    +0.025 A 
BRANCH  15  22
ATOM     21  C1  UNL     1      20.029  26.660  18.464  0.00  0.00    +0.129 C 
ATOM     22  N1  UNL     1      19.116  25.662  19.015  0.00  0.00    -0.336 N 
ATOM     23  C2  UNL     1      19.742  24.578  19.770  0.00  0.00    +0.129 C 
ENDBRANCH  15  22
ENDBRANCH  13  18
ENDBRANCH   1  14
TORSDOF 4
ENDMDL
MODEL 3
REMARK VINA RESULT:    -3.877      1.119      1.376
REMARK INTER + INTRA:          -5.637
REMARK INTER:                  -4.746
REMARK INTRA:                  -0.891
REMARK UNBOUND:                -0.853
REMARK  Name = /home/vital/Documents/PhD_2021/Malaria_codes/data/pdb_ligands_mmv/ligand_320.pdb
REMARK  6 active torsions:
REMARK  status: ('A' for Active; 'I' for Inactive)
REMARK    1  A    between atoms: C1_1  and  N1_2
REMARK    2  A    between atoms: N1_2  and  C2_3
REMARK    3  A    between atoms: N1_2  and  C3_4
REMARK    4  A    between atoms: C6_7  and  N2_10
REMARK    5  A    between atoms: C9_11  and  C10_12
REMARK    6  A    between atoms: C13_15  and  N3_18
REMARK                            x       y       z     vdW  Elec       q    Type
REMARK                         _______ _______ _______ _____ _____    ______ ____
ROOT
ATOM      1  C10 UNL     1      14.389  26.800  14.650  0.00  0.00    -0.007 A 
ATOM      2  C11 UNL     1      15.494  26.697  13.814  0.00  0.00    +0.011 A 
ATOM      3  C12 UNL     1      16.127  27.858  13.345  0.00  0.00    +0.024 A 
ATOM      4  C13 UNL     1      15.694  29.145  13.705  0.00  0.00    +0.030 A 
ATOM      5  C14 UNL     1      14.591  29.212  14.572  0.00  0.00    +0.024 A 
ATOM      6  C15 UNL     1      13.947  28.060  15.047  0.00  0.00    +0.011 A 
ENDROOT
BRANCH   4   7
ATOM      7  N3  UNL     1      16.324  30.282  13.236  0.00  0.00    -0.326 N 
ATOM      8  C16 UNL     1      15.701  31.162  12.232  0.00  0.00    +0.133 C 
ATOM      9  C17 UNL     1      16.205  32.604  12.406  0.00  0.00    +0.178 C 
ATOM     10  O1  UNL     1      17.628  32.748  12.285  0.00  0.00    -0.377 OA
ATOM     11  C18 UNL     1      18.350  31.573  12.678  0.00  0.00    +0.178 C 
ATOM     12  C19 UNL     1      17.635  30.721  13.740  0.00  0.00    +0.133 C 
ENDBRANCH   4   7
BRANCH   1  14
ATOM     13  N2  UNL     1      13.853  25.004  16.338  0.00  0.00    -0.255 NA
ATOM     14  C9  UNL     1      13.690  25.622  15.205  0.00  0.00    +0.119 C 
BRANCH  13  18
ATOM     15  C3  UNL     1      16.974  26.077  19.033  0.00  0.00    +0.029 A 
ATOM     16  C4  UNL     1      15.709  26.692  19.082  0.00  0.00    +0.025 A 
ATOM     17  C5  UNL     1      14.672  26.345  18.202  0.00  0.00    +0.029 A 
ATOM     18  C6  UNL     1      14.860  25.357  17.241  0.00  0.00    +0.064 A 
ATOM     19  C7  UNL     1      16.113  24.766  17.138  0.00  0.00    +0.029 A 
ATOM     20  C8  UNL     1      17.146  25.119  18.018  0.00  0.00    +0.025 A 
BRANCH  15  22
ATOM     21  C1  UNL     1      17.818  26.265  21.344  0.00  0.00    +0.129 C 
ATOM     22  N1  UNL     1      18.008  26.434  19.905  0.00  0.00    -0.336 N 
ATOM     23  C2  UNL     1      18.935  27.494  19.509  0.00  0.00    +0.129 C 
ENDBRANCH  15  22
ENDBRANCH  13  18
ENDBRANCH   1  14
TORSDOF 4
ENDMDL
MODEL 4
REMARK VINA RESULT:    -3.740      2.497      6.929
REMARK INTER + INTRA:          -5.468
REMARK INTER:                  -4.554
REMARK INTRA:                  -0.914
REMARK UNBOUND:                -0.853
REMARK  Name = /home/vital/Documents/PhD_2021/Malaria_codes/data/pdb_ligands_mmv/ligand_320.pdb
REMARK  6 active torsions:
REMARK  status: ('A' for Active; 'I' for Inactive)
REMARK    1  A    between atoms: C1_1  and  N1_2
REMARK    2  A    between atoms: N1_2  and  C2_3
REMARK    3  A    between atoms: N1_2  and  C3_4
REMARK    4  A    between atoms: C6_7  and  N2_10
REMARK    5  A    between atoms: C9_11  and  C10_12
REMARK    6  A    between atoms: C13_15  and  N3_18
REMARK                            x       y       z     vdW  Elec       q    Type
REMARK                         _______ _______ _______ _____ _____    ______ ____
ROOT
ATOM      1  C10 UNL     1      14.396  26.274  17.662  0.00  0.00    -0.007 A 
ATOM      2  C11 UNL     1      15.690  25.947  18.049  0.00  0.00    +0.011 A 
ATOM      3  C12 UNL     1      16.290  26.619  19.123  0.00  0.00    +0.024 A 
ATOM      4  C13 UNL     1      15.620  27.617  19.850  0.00  0.00    +0.030 A 
ATOM      5  C14 UNL     1      14.305  27.904  19.450  0.00  0.00    +0.024 A 
ATOM      6  C15 UNL     1      13.693  27.241  18.376  0.00  0.00    +0.011 A 
ENDROOT
BRANCH   4   7
ATOM      7  N3  UNL     1      16.221  28.275  20.907  0.00  0.00    -0.326 N 
ATOM      8  C16 UNL     1      15.758  29.595  21.370  0.00  0.00    +0.133 C 
ATOM      9  C17 UNL     1      16.059  29.766  22.868  0.00  0.00    +0.178 C 
ATOM     10  O1  UNL     1      17.448  29.651  23.206  0.00  0.00    -0.377 OA
ATOM     11  C18 UNL     1      18.178  28.796  22.315  0.00  0.00    +0.178 C 
ATOM     12  C19 UNL     1      17.329  27.685  21.675  0.00  0.00    +0.133 C 
ENDBRANCH   4   7
BRANCH   1  14
ATOM     13  N2  UNL     1      13.690  25.830  15.281  0.00  0.00    -0.255 NA
ATOM     14  C9  UNL     1      13.690  25.588  16.559  0.00  0.00    +0.119 C 
BRANCH  13  18
ATOM     15  C3  UNL     1      15.717  29.210  13.661  0.00  0.00    +0.029 A 
ATOM     16  C4  UNL     1      16.313  27.936  13.695  0.00  0.00    +0.025 A 
ATOM     17  C5  UNL     1      15.654  26.814  14.223  0.00  0.00    +0.029 A 
ATOM     18  C6  UNL     1      14.363  26.925  14.730  0.00  0.00    +0.064 A 
ATOM     19  C7  UNL     1      13.768  28.180  14.753  0.00  0.00    +0.029 A 
ATOM     20  C8  UNL     1      14.432  29.298  14.227  0.00  0.00    +0.025 A 
BRANCH  15  22
ATOM     21  C1  UNL     1      15.672  31.217  12.227  0.00  0.00    +0.129 C 
ATOM     22  N1  UNL     1      16.382  30.328  13.144  0.00  0.00    -0.336 N 
ATOM     23  C2  UNL     1      17.834  30.276  12.980  0.00  0.00    +0.129 C 
ENDBRANCH  15  22
ENDBRANCH  13  18
ENDBRANCH   1  14
TORSDOF 4
ENDMDL
MODEL 5
REMARK VINA RESULT:    -3.738      1.132      2.161
REMARK INTER + INTRA:          -5.465
REMARK INTER:                  -4.582
REMARK INTRA:                  -0.883
REMARK UNBOUND:                -0.853
REMARK  Name = /home/vital/Documents/PhD_2021/Malaria_codes/data/pdb_ligands_mmv/ligand_320.pdb
REMARK  6 active torsions:
REMARK  status: ('A' for Active; 'I' for Inactive)
REMARK    1  A    between atoms: C1_1  and  N1_2
REMARK    2  A    between atoms: N1_2  and  C2_3
REMARK    3  A    between atoms: N1_2  and  C3_4
REMARK    4  A    between atoms: C6_7  and  N2_10
REMARK    5  A    between atoms: C9_11  and  C10_12
REMARK    6  A    between atoms: C13_15  and  N3_18
REMARK                            x       y       z     vdW  Elec       q    Type
REMARK                         _______ _______ _______ _____ _____    ______ ____
ROOT
ATOM      1  C10 UNL     1      14.345  27.237  14.692  0.00  0.00    -0.007 A 
ATOM      2  C11 UNL     1      13.993  28.483  15.196  0.00  0.00    +0.011 A 
ATOM      3  C12 UNL     1      14.637  29.636  14.724  0.00  0.00    +0.024 A 
ATOM      4  C13 UNL     1      15.631  29.587  13.733  0.00  0.00    +0.030 A 
ATOM      5  C14 UNL     1      15.943  28.315  13.226  0.00  0.00    +0.024 A 
ATOM      6  C15 UNL     1      15.309  27.153  13.689  0.00  0.00    +0.011 A 
ENDROOT
BRANCH   4   7
ATOM      7  N3  UNL     1      16.260  30.730  13.275  0.00  0.00    -0.326 N 
ATOM      8  C16 UNL     1      17.579  31.150  13.781  0.00  0.00    +0.133 C 
ATOM      9  C17 UNL     1      18.331  31.946  12.702  0.00  0.00    +0.178 C 
ATOM     10  O1  UNL     1      17.643  33.123  12.254  0.00  0.00    -0.377 OA
ATOM     11  C18 UNL     1      16.216  33.015  12.350  0.00  0.00    +0.178 C 
ATOM     12  C19 UNL     1      15.685  31.578  12.220  0.00  0.00    +0.133 C 
ENDBRANCH   4   7
BRANCH   1  14
ATOM     13  N2  UNL     1      13.912  25.230  16.156  0.00  0.00    -0.255 NA
ATOM     14  C9  UNL     1      13.690  25.984  15.120  0.00  0.00    +0.119 C 
BRANCH  13  18
ATOM     15  C3  UNL     1      17.032  26.009  18.952  0.00  0.00    +0.029 A 
ATOM     16  C4  UNL     1      17.208  25.121  17.875  0.00  0.00    +0.025 A 
ATOM     17  C5  UNL     1      16.189  24.859  16.946  0.00  0.00    +0.029 A 
ATOM     18  C6  UNL     1      14.952  25.486  17.055  0.00  0.00    +0.064 A 
ATOM     19  C7  UNL     1      14.734  26.332  18.136  0.00  0.00    +0.029 A 
ATOM     20  C8  UNL     1      15.754  26.588  19.063  0.00  0.00    +0.025 A 
BRANCH  15  22
ATOM     21  C1  UNL     1      19.387  25.736  19.633  0.00  0.00    +0.129 C 
ATOM     22  N1  UNL     1      18.046  26.259  19.883  0.00  0.00    -0.336 N 
ATOM     23  C2  UNL     1      17.689  26.440  21.289  0.00  0.00    +0.129 C 
ENDBRANCH  15  22
ENDBRANCH  13  18
ENDBRANCH   1  14
TORSDOF 4
ENDMDL
MODEL 6
REMARK VINA RESULT:    -3.720      1.074      1.998
REMARK INTER + INTRA:          -5.442
REMARK INTER:                  -4.554
REMARK INTRA:                  -0.888
REMARK UNBOUND:                -0.853
REMARK  Name = /home/vital/Documents/PhD_2021/Malaria_codes/data/pdb_ligands_mmv/ligand_320.pdb
REMARK  6 active torsions:
REMARK  status: ('A' for Active; 'I' for Inactive)
REMARK    1  A    between atoms: C1_1  and  N1_2
REMARK    2  A    between atoms: N1_2  and  C2_3
REMARK    3  A    between atoms: N1_2  and  C3_4
REMARK    4  A    between atoms: C6_7  and  N2_10
REMARK    5  A    between atoms: C9_11  and  C10_12
REMARK    6  A    between atoms: C13_15  and  N3_18
REMARK                            x       y       z     vdW  Elec       q    Type
REMARK                         _______ _______ _______ _____ _____    ______ ____
ROOT
ATOM      1  C10 UNL     1      14.358  27.095  14.762  0.00  0.00    -0.007 A 
ATOM      2  C11 UNL     1      14.010  28.361  15.219  0.00  0.00    +0.011 A 
ATOM      3  C12 UNL     1      14.667  29.492  14.715  0.00  0.00    +0.024 A 
ATOM      4  C13 UNL     1      15.670  29.402  13.736  0.00  0.00    +0.030 A 
ATOM      5  C14 UNL     1      15.978  28.111  13.277  0.00  0.00    +0.024 A 
ATOM      6  C15 UNL     1      15.332  26.970  13.774  0.00  0.00    +0.011 A 
ENDROOT
BRANCH   4   7
ATOM      7  N3  UNL     1      16.313  30.524  13.246  0.00  0.00    -0.326 N 
ATOM      8  C16 UNL     1      15.700  31.389  12.223  0.00  0.00    +0.133 C 
ATOM      9  C17 UNL     1      16.217  32.830  12.370  0.00  0.00    +0.178 C 
ATOM     10  O1  UNL     1      17.641  32.958  12.250  0.00  0.00    -0.377 OA
ATOM     11  C18 UNL     1      18.352  31.785  12.669  0.00  0.00    +0.178 C 
ATOM     12  C19 UNL     1      17.626  30.961  13.745  0.00  0.00    +0.133 C 
ENDBRANCH   4   7
BRANCH   1  14
ATOM     13  N2  UNL     1      13.898  25.141  16.290  0.00  0.00    -0.255 NA
ATOM     14  C9  UNL     1      13.690  25.862  15.227  0.00  0.00    +0.119 C 
BRANCH  13  18
ATOM     15  C3  UNL     1      17.000  25.993  19.084  0.00  0.00    +0.029 A 
ATOM     16  C4  UNL     1      17.168  25.047  18.056  0.00  0.00    +0.025 A 
ATOM     17  C5  UNL     1      16.155  24.760  17.128  0.00  0.00    +0.029 A 
ATOM     18  C6  UNL     1      14.932  25.420  17.188  0.00  0.00    +0.064 A 
ATOM     19  C7  UNL     1      14.720  26.325  18.221  0.00  0.00    +0.029 A 
ATOM     20  C8  UNL     1      15.735  26.606  19.147  0.00  0.00    +0.025 A 
BRANCH  15  22
ATOM     21  C1  UNL     1      17.873  27.429  20.891  0.00  0.00    +0.129 C 
ATOM     22  N1  UNL     1      18.009  26.267  20.014  0.00  0.00    -0.336 N 
ATOM     23  C2  UNL     1      19.380  25.856  19.715  0.00  0.00    +0.129 C 
ENDBRANCH  15  22
ENDBRANCH  13  18
ENDBRANCH   1  14
TORSDOF 4
ENDMDL
MODEL 7
REMARK VINA RESULT:    -3.636      2.481      6.892
REMARK INTER + INTRA:          -5.339
REMARK INTER:                  -4.419
REMARK INTRA:                  -0.920
REMARK UNBOUND:                -0.853
REMARK  Name = /home/vital/Documents/PhD_2021/Malaria_codes/data/pdb_ligands_mmv/ligand_320.pdb
REMARK  6 active torsions:
REMARK  status: ('A' for Active; 'I' for Inactive)
REMARK    1  A    between atoms: C1_1  and  N1_2
REMARK    2  A    between atoms: N1_2  and  C2_3
REMARK    3  A    between atoms: N1_2  and  C3_4
REMARK    4  A    between atoms: C6_7  and  N2_10
REMARK    5  A    between atoms: C9_11  and  C10_12
REMARK    6  A    between atoms: C13_15  and  N3_18
REMARK                            x       y       z     vdW  Elec       q    Type
REMARK                         _______ _______ _______ _____ _____    ______ ____
ROOT
ATOM      1  C10 UNL     1      14.292  26.329  17.650  0.00  0.00    -0.007 A 
ATOM      2  C11 UNL     1      13.690  27.417  18.271  0.00  0.00    +0.011 A 
ATOM      3  C12 UNL     1      14.331  28.053  19.344  0.00  0.00    +0.024 A 
ATOM      4  C13 UNL     1      15.588  27.640  19.817  0.00  0.00    +0.030 A 
ATOM      5  C14 UNL     1      16.180  26.556  19.149  0.00  0.00    +0.024 A 
ATOM      6  C15 UNL     1      15.550  25.908  18.077  0.00  0.00    +0.011 A 
ENDROOT
BRANCH   4   7
ATOM      7  N3  UNL     1      16.211  28.273  20.877  0.00  0.00    -0.326 N 
ATOM      8  C16 UNL     1      15.517  29.277  21.702  0.00  0.00    +0.133 C 
ATOM      9  C17 UNL     1      16.100  29.287  23.125  0.00  0.00    +0.178 C 
ATOM     10  O1  UNL     1      17.505  29.574  23.183  0.00  0.00    -0.377 OA
ATOM     11  C18 UNL     1      18.215  29.159  22.008  0.00  0.00    +0.178 C 
ATOM     12  C19 UNL     1      17.587  27.955  21.286  0.00  0.00    +0.133 C 
ENDBRANCH   4   7
BRANCH   1  14
ATOM     13  N2  UNL     1      13.790  25.867  15.222  0.00  0.00    -0.255 NA
ATOM     14  C9  UNL     1      13.690  25.629  16.496  0.00  0.00    +0.119 C 
BRANCH  13  18
ATOM     15  C3  UNL     1      15.886  29.276  13.757  0.00  0.00    +0.029 A 
ATOM     16  C4  UNL     1      16.497  28.011  13.842  0.00  0.00    +0.025 A 
ATOM     17  C5  UNL     1      15.816  26.881  14.319  0.00  0.00    +0.029 A 
ATOM     18  C6  UNL     1      14.487  26.971  14.723  0.00  0.00    +0.064 A 
ATOM     19  C7  UNL     1      13.873  28.218  14.696  0.00  0.00    +0.029 A 
ATOM     20  C8  UNL     1      14.559  29.345  14.220  0.00  0.00    +0.025 A 
BRANCH  15  22
ATOM     21  C1  UNL     1      17.849  30.763  13.903  0.00  0.00    +0.129 C 
ATOM     22  N1  UNL     1      16.572  30.403  13.291  0.00  0.00    -0.336 N 
ATOM     23  C2  UNL     1      15.808  31.512  12.720  0.00  0.00    +0.129 C 
ENDBRANCH  15  22
ENDBRANCH  13  18
ENDBRANCH   1  14
TORSDOF 4
ENDMDL
MODEL 8
REMARK VINA RESULT:    -3.629      3.643      7.353
REMARK INTER + INTRA:          -5.330
REMARK INTER:                  -4.409
REMARK INTRA:                  -0.921
REMARK UNBOUND:                -0.853
REMARK  Name = /home/vital/Documents/PhD_2021/Malaria_codes/data/pdb_ligands_mmv/ligand_320.pdb
REMARK  6 active torsions:
REMARK  status: ('A' for Active; 'I' for Inactive)
REMARK    1  A    between atoms: C1_1  and  N1_2
REMARK    2  A    between atoms: N1_2  and  C2_3
REMARK    3  A    between atoms: N1_2  and  C3_4
REMARK    4  A    between atoms: C6_7  and  N2_10
REMARK    5  A    between atoms: C9_11  and  C10_12
REMARK    6  A    between atoms: C13_15  and  N3_18
REMARK                            x       y       z     vdW  Elec       q    Type
REMARK                         _______ _______ _______ _____ _____    ______ ____
ROOT
ATOM      1  C10 UNL     1      14.702  25.397  15.979  0.00  0.00    -0.007 A 
ATOM      2  C11 UNL     1      15.691  24.517  15.557  0.00  0.00    +0.011 A 
ATOM      3  C12 UNL     1      16.603  23.992  16.484  0.00  0.00    +0.024 A 
ATOM      4  C13 UNL     1      16.548  24.311  17.851  0.00  0.00    +0.030 A 
ATOM      5  C14 UNL     1      15.520  25.182  18.247  0.00  0.00    +0.024 A 
ATOM      6  C15 UNL     1      14.603  25.717  17.331  0.00  0.00    +0.011 A 
ENDROOT
BRANCH   4   7
ATOM      7  N3  UNL     1      17.452  23.789  18.757  0.00  0.00    -0.326 N 
ATOM      8  C16 UNL     1      17.638  24.370  20.098  0.00  0.00    +0.133 C 
ATOM      9  C17 UNL     1      18.096  23.285  21.087  0.00  0.00    +0.178 C 
ATOM     10  O1  UNL     1      19.323  22.638  20.722  0.00  0.00    -0.377 OA
ATOM     11  C18 UNL     1      19.545  22.604  19.305  0.00  0.00    +0.178 C 
ATOM     12  C19 UNL     1      18.255  22.590  18.468  0.00  0.00    +0.133 C 
ENDBRANCH   4   7
BRANCH   1  14
ATOM     13  N2  UNL     1      13.698  27.078  14.388  0.00  0.00    -0.255 NA
ATOM     14  C9  UNL     1      13.691  25.967  15.064  0.00  0.00    +0.119 C 
BRANCH  13  18
ATOM     15  C3  UNL     1      16.842  29.921  14.818  0.00  0.00    +0.029 A 
ATOM     16  C4  UNL     1      16.874  28.927  13.823  0.00  0.00    +0.025 A 
ATOM     17  C5  UNL     1      15.843  27.987  13.670  0.00  0.00    +0.029 A 
ATOM     18  C6  UNL     1      14.731  28.013  14.504  0.00  0.00    +0.064 A 
ATOM     19  C7  UNL     1      14.694  28.954  15.527  0.00  0.00    +0.029 A 
ATOM     20  C8  UNL     1      15.728  29.889  15.677  0.00  0.00    +0.025 A 
BRANCH  15  22
ATOM     21  C1  UNL     1      17.588  32.143  15.589  0.00  0.00    +0.129 C 
ATOM     22  N1  UNL     1      17.878  30.849  14.976  0.00  0.00    -0.336 N 
ATOM     23  C2  UNL     1      18.995  30.831  14.032  0.00  0.00    +0.129 C 
ENDBRANCH  15  22
ENDBRANCH  13  18
ENDBRANCH   1  14
TORSDOF 4
ENDMDL
MODEL 9
REMARK VINA RESULT:    -3.387      2.616      7.017
REMARK INTER + INTRA:          -5.032
REMARK INTER:                  -4.164
REMARK INTRA:                  -0.868
REMARK UNBOUND:                -0.853
REMARK  Name = /home/vital/Documents/PhD_2021/Malaria_codes/data/pdb_ligands_mmv/ligand_320.pdb
REMARK  6 active torsions:
REMARK  status: ('A' for Active; 'I' for Inactive)
REMARK    1  A    between atoms: C1_1  and  N1_2
REMARK    2  A    between atoms: N1_2  and  C2_3
REMARK    3  A    between atoms: N1_2  and  C3_4
REMARK    4  A    between atoms: C6_7  and  N2_10
REMARK    5  A    between atoms: C9_11  and  C10_12
REMARK    6  A    between atoms: C13_15  and  N3_18
REMARK                            x       y       z     vdW  Elec       q    Type
REMARK                         _______ _______ _______ _____ _____    ______ ____
ROOT
ATOM      1  C10 UNL     1      14.833  26.118  17.258  0.00  0.00    -0.007 A 
ATOM      2  C11 UNL     1      13.714  26.840  17.655  0.00  0.00    +0.011 A 
ATOM      3  C12 UNL     1      13.751  27.596  18.835  0.00  0.00    +0.024 A 
ATOM      4  C13 UNL     1      14.900  27.669  19.642  0.00  0.00    +0.030 A 
ATOM      5  C14 UNL     1      16.020  26.950  19.197  0.00  0.00    +0.024 A 
ATOM      6  C15 UNL     1      15.997  26.188  18.021  0.00  0.00    +0.011 A 
ENDROOT
BRANCH   4   7
ATOM      7  N3  UNL     1      14.925  28.417  20.805  0.00  0.00    -0.326 N 
ATOM      8  C16 UNL     1      13.691  28.852  21.480  0.00  0.00    +0.133 C 
ATOM      9  C17 UNL     1      13.939  29.005  22.990  0.00  0.00    +0.178 C 
ATOM     10  O1  UNL     1      14.970  29.946  23.323  0.00  0.00    -0.377 OA
ATOM     11  C18 UNL     1      15.978  30.062  22.310  0.00  0.00    +0.178 C 
ATOM     12  C19 UNL     1      16.181  28.786  21.476  0.00  0.00    +0.133 C 
ENDBRANCH   4   7
BRANCH   1  14
ATOM     13  N2  UNL     1      15.182  25.678  14.799  0.00  0.00    -0.255 NA
ATOM     14  C9  UNL     1      14.876  25.324  16.012  0.00  0.00    +0.119 C 
BRANCH  13  18
ATOM     15  C3  UNL     1      15.995  29.742  13.812  0.00  0.00    +0.029 A 
ATOM     16  C4  UNL     1      17.029  28.812  14.027  0.00  0.00    +0.025 A 
ATOM     17  C5  UNL     1      16.773  27.470  14.350  0.00  0.00    +0.029 A 
ATOM     18  C6  UNL     1      15.467  27.004  14.459  0.00  0.00    +0.064 A 
ATOM     19  C7  UNL     1      14.427  27.911  14.299  0.00  0.00    +0.029 A 
ATOM     20  C8  UNL     1      14.688  29.251  13.980  0.00  0.00    +0.025 A 
BRANCH  15  22
ATOM     21  C1  UNL     1      15.135  31.980  13.228  0.00  0.00    +0.129 C 
ATOM     22  N1  UNL     1      16.255  31.082  13.502  0.00  0.00    -0.336 N 
ATOM     23  C2  UNL     1      17.517  31.427  12.850  0.00  0.00    +0.129 C 
ENDBRANCH  15  22
ENDBRANCH  13  18
ENDBRANCH   1  14
TORSDOF 4
ENDMDL
