MODEL 1
REMARK VINA RESULT:    -4.874      0.000      0.000
REMARK INTER + INTRA:          -7.131
REMARK INTER:                  -6.298
REMARK INTRA:                  -0.833
REMARK UNBOUND:                -0.833
REMARK  Name = /home/vital/Documents/PhD_2021/Malaria_codes/data/pdb_ligands_mmv/ligand_292.pdb
REMARK  6 active torsions:
REMARK  status: ('A' for Active; 'I' for Inactive)
REMARK    1  A    between atoms: N1_1  and  C1_2
REMARK    2  A    between atoms: C4_5  and  C7_8
REMARK    3  A    between atoms: C10_12  and  C11_13
REMARK    4  A    between atoms: C11_13  and  C12_14
REMARK    5  A    between atoms: C16_19  and  C19_23
REMARK    6  A    between atoms: C22_26  and  N5_27
REMARK                            x       y       z     vdW  Elec       q    Type
REMARK                         _______ _______ _______ _____ _____    ______ ____
ROOT
ATOM      1  C11 UNL     1      18.664  22.729  18.325  0.00  0.00    +0.070 C 
ENDROOT
BRANCH   1   6
ATOM      2  C7  UNL     1      16.100  27.005  15.053  0.00  0.00    +0.139 A 
ATOM      3  N2  UNL     1      17.135  26.847  15.863  0.00  0.00    -0.228 NA
ATOM      4  C8  UNL     1      17.110  25.538  16.272  0.00  0.00    +0.090 A 
ATOM      5  C9  UNL     1      17.974  24.850  17.136  0.00  0.00    +0.033 A 
ATOM      6  C10 UNL     1      17.744  23.484  17.393  0.00  0.00    -0.041 A 
ATOM      7  C25 UNL     1      16.649  22.839  16.793  0.00  0.00    +0.006 A 
ATOM      8  C26 UNL     1      15.775  23.513  15.931  0.00  0.00    +0.028 A 
ATOM      9  C27 UNL     1      16.044  24.862  15.699  0.00  0.00    +0.066 A 
ATOM     10  N6  UNL     1      15.421  25.813  14.931  0.00  0.00    -0.338 N 
ATOM     11  H22 UNL     1      14.607  25.657  14.360  0.00  0.00    +0.167 HD
BRANCH   2  15
ATOM     12  C1  UNL     1      15.099  30.640  12.983  0.00  0.00    +0.025 A 
ATOM     13  C2  UNL     1      14.593  30.400  14.262  0.00  0.00    +0.023 A 
ATOM     14  C3  UNL     1      14.920  29.229  14.958  0.00  0.00    +0.013 A 
ATOM     15  C4  UNL     1      15.730  28.249  14.369  0.00  0.00    +0.017 A 
ATOM     16  C5  UNL     1      16.190  28.474  13.064  0.00  0.00    +0.013 A 
ATOM     17  C6  UNL     1      15.858  29.643  12.372  0.00  0.00    +0.023 A 
BRANCH  12  18
ATOM     18  N1  UNL     1      14.671  31.753  12.251  0.00  0.00    -0.358 N 
ATOM     19  H1  UNL     1      14.104  31.516  11.442  0.00  0.00    +0.142 HD
ATOM     20  H2  UNL     1      15.412  32.406  12.022  0.00  0.00    +0.142 HD
ENDBRANCH  12  18
ENDBRANCH   2  15
ENDBRANCH   1   6
BRANCH   1  21
ATOM     21  C12 UNL     1      18.917  23.436  19.637  0.00  0.00    -0.041 A 
ATOM     22  C13 UNL     1      20.199  23.921  19.949  0.00  0.00    +0.006 A 
ATOM     23  C14 UNL     1      20.468  24.573  21.160  0.00  0.00    +0.028 A 
ATOM     24  C15 UNL     1      19.398  24.718  22.043  0.00  0.00    +0.066 A 
ATOM     25  N3  UNL     1      19.294  25.285  23.286  0.00  0.00    -0.338 N 
ATOM     26  C16 UNL     1      17.994  25.162  23.728  0.00  0.00    +0.139 A 
ATOM     27  N4  UNL     1      17.272  24.526  22.820  0.00  0.00    -0.228 NA
ATOM     28  C17 UNL     1      18.120  24.250  21.777  0.00  0.00    +0.090 A 
ATOM     29  C18 UNL     1      17.867  23.596  20.562  0.00  0.00    +0.033 A 
ATOM     30  H12 UNL     1      20.050  25.704  23.801  0.00  0.00    +0.167 HD
BRANCH  26  31
ATOM     31  C19 UNL     1      17.509  25.651  25.023  0.00  0.00    +0.017 A 
ATOM     32  C20 UNL     1      16.446  26.555  25.143  0.00  0.00    +0.013 A 
ATOM     33  C21 UNL     1      16.019  26.992  26.404  0.00  0.00    +0.023 A 
ATOM     34  C22 UNL     1      16.613  26.508  27.571  0.00  0.00    +0.025 A 
ATOM     35  C23 UNL     1      17.707  25.652  27.454  0.00  0.00    +0.023 A 
ATOM     36  C24 UNL     1      18.134  25.209  26.197  0.00  0.00    +0.013 A 
BRANCH  34  37
ATOM     37  N5  UNL     1      16.261  27.042  28.816  0.00  0.00    -0.358 N 
ATOM     38  H16 UNL     1      17.050  27.378  29.358  0.00  0.00    +0.142 HD
ATOM     39  H17 UNL     1      15.508  27.721  28.769  0.00  0.00    +0.142 HD
ENDBRANCH  34  37
ENDBRANCH  26  31
ENDBRANCH   1  21
TORSDOF 6
ENDMDL
MODEL 2
REMARK VINA RESULT:    -4.737      6.808     11.553
REMARK INTER + INTRA:          -6.954
REMARK INTER:                  -6.342
REMARK INTRA:                  -0.612
REMARK UNBOUND:                -0.833
REMARK  Name = /home/vital/Documents/PhD_2021/Malaria_codes/data/pdb_ligands_mmv/ligand_292.pdb
REMARK  6 active torsions:
REMARK  status: ('A' for Active; 'I' for Inactive)
REMARK    1  A    between atoms: N1_1  and  C1_2
REMARK    2  A    between atoms: C4_5  and  C7_8
REMARK    3  A    between atoms: C10_12  and  C11_13
REMARK    4  A    between atoms: C11_13  and  C12_14
REMARK    5  A    between atoms: C16_19  and  C19_23
REMARK    6  A    between atoms: C22_26  and  N5_27
REMARK                            x       y       z     vdW  Elec       q    Type
REMARK                         _______ _______ _______ _____ _____    ______ ____
ROOT
ATOM      1  C11 UNL     1      15.636  33.982  18.354  0.00  0.00    +0.070 C 
ENDROOT
BRANCH   1   6
ATOM      2  C7  UNL     1      16.255  39.182  15.502  0.00  0.00    +0.139 A 
ATOM      3  N2  UNL     1      16.981  38.124  15.826  0.00  0.00    -0.228 NA
ATOM      4  C8  UNL     1      16.148  37.278  16.512  0.00  0.00    +0.090 A 
ATOM      5  C9  UNL     1      16.410  36.024  17.082  0.00  0.00    +0.033 A 
ATOM      6  C10 UNL     1      15.369  35.333  17.732  0.00  0.00    -0.041 A 
ATOM      7  C25 UNL     1      14.092  35.915  17.811  0.00  0.00    +0.006 A 
ATOM      8  C26 UNL     1      13.815  37.169  17.250  0.00  0.00    +0.028 A 
ATOM      9  C27 UNL     1      14.873  37.814  16.610  0.00  0.00    +0.066 A 
ATOM     10  N6  UNL     1      14.967  39.019  15.962  0.00  0.00    -0.338 N 
ATOM     11  H22 UNL     1      14.211  39.672  15.833  0.00  0.00    +0.167 HD
BRANCH   2  15
ATOM     12  C1  UNL     1      17.745  42.595  13.348  0.00  0.00    +0.025 A 
ATOM     13  C2  UNL     1      16.373  42.443  13.558  0.00  0.00    +0.023 A 
ATOM     14  C3  UNL     1      15.870  41.346  14.270  0.00  0.00    +0.013 A 
ATOM     15  C4  UNL     1      16.731  40.351  14.753  0.00  0.00    +0.017 A 
ATOM     16  C5  UNL     1      18.101  40.484  14.492  0.00  0.00    +0.013 A 
ATOM     17  C6  UNL     1      18.599  41.579  13.778  0.00  0.00    +0.023 A 
BRANCH  12  18
ATOM     18  N1  UNL     1      18.226  43.627  12.536  0.00  0.00    -0.358 N 
ATOM     19  H1  UNL     1      18.527  44.447  13.054  0.00  0.00    +0.142 HD
ATOM     20  H2  UNL     1      17.611  43.865  11.764  0.00  0.00    +0.142 HD
ENDBRANCH  12  18
ENDBRANCH   2  15
ENDBRANCH   1   6
BRANCH   1  21
ATOM     21  C12 UNL     1      15.557  32.834  17.372  0.00  0.00    -0.041 A 
ATOM     22  C13 UNL     1      15.471  33.083  15.992  0.00  0.00    +0.006 A 
ATOM     23  C14 UNL     1      15.388  32.043  15.057  0.00  0.00    +0.028 A 
ATOM     24  C15 UNL     1      15.395  30.744  15.565  0.00  0.00    +0.066 A 
ATOM     25  N3  UNL     1      15.327  29.514  14.964  0.00  0.00    -0.338 N 
ATOM     26  C16 UNL     1      15.375  28.537  15.936  0.00  0.00    +0.139 A 
ATOM     27  N4  UNL     1      15.457  29.098  17.130  0.00  0.00    -0.228 NA
ATOM     28  C17 UNL     1      15.473  30.454  16.919  0.00  0.00    +0.090 A 
ATOM     29  C18 UNL     1      15.553  31.507  17.843  0.00  0.00    +0.033 A 
ATOM     30  H12 UNL     1      15.235  29.353  13.974  0.00  0.00    +0.167 HD
BRANCH  26  31
ATOM     31  C19 UNL     1      15.322  27.096  15.664  0.00  0.00    +0.017 A 
ATOM     32  C20 UNL     1      16.308  26.205  16.104  0.00  0.00    +0.013 A 
ATOM     33  C21 UNL     1      16.213  24.836  15.820  0.00  0.00    +0.023 A 
ATOM     34  C22 UNL     1      15.113  24.322  15.130  0.00  0.00    +0.025 A 
ATOM     35  C23 UNL     1      14.158  25.213  14.643  0.00  0.00    +0.023 A 
ATOM     36  C24 UNL     1      14.248  26.580  14.928  0.00  0.00    +0.013 A 
BRANCH  34  37
ATOM     37  N5  UNL     1      15.087  22.975  14.747  0.00  0.00    -0.358 N 
ATOM     38  H16 UNL     1      15.517  22.348  15.419  0.00  0.00    +0.142 HD
ATOM     39  H17 UNL     1      14.170  22.654  14.452  0.00  0.00    +0.142 HD
ENDBRANCH  34  37
ENDBRANCH  26  31
ENDBRANCH   1  21
TORSDOF 6
ENDMDL
MODEL 3
REMARK VINA RESULT:    -4.708      3.093      6.038
REMARK INTER + INTRA:          -6.917
REMARK INTER:                  -6.054
REMARK INTRA:                  -0.863
REMARK UNBOUND:                -0.833
REMARK  Name = /home/vital/Documents/PhD_2021/Malaria_codes/data/pdb_ligands_mmv/ligand_292.pdb
REMARK  6 active torsions:
REMARK  status: ('A' for Active; 'I' for Inactive)
REMARK    1  A    between atoms: N1_1  and  C1_2
REMARK    2  A    between atoms: C4_5  and  C7_8
REMARK    3  A    between atoms: C10_12  and  C11_13
REMARK    4  A    between atoms: C11_13  and  C12_14
REMARK    5  A    between atoms: C16_19  and  C19_23
REMARK    6  A    between atoms: C22_26  and  N5_27
REMARK                            x       y       z     vdW  Elec       q    Type
REMARK                         _______ _______ _______ _____ _____    ______ ____
ROOT
ATOM      1  C11 UNL     1      13.727  26.816  14.790  0.00  0.00    +0.070 C 
ENDROOT
BRANCH   1   6
ATOM      2  C7  UNL     1      15.812  32.315  13.800  0.00  0.00    +0.139 A 
ATOM      3  N2  UNL     1      14.952  31.697  14.593  0.00  0.00    -0.228 NA
ATOM      4  C8  UNL     1      14.987  30.371  14.244  0.00  0.00    +0.090 A 
ATOM      5  C9  UNL     1      14.270  29.285  14.766  0.00  0.00    +0.033 A 
ATOM      6  C10 UNL     1      14.495  27.998  14.241  0.00  0.00    -0.041 A 
ATOM      7  C25 UNL     1      15.421  27.824  13.199  0.00  0.00    +0.006 A 
ATOM      8  C26 UNL     1      16.143  28.899  12.665  0.00  0.00    +0.028 A 
ATOM      9  C27 UNL     1      15.894  30.155  13.219  0.00  0.00    +0.066 A 
ATOM     10  N6  UNL     1      16.403  31.401  12.956  0.00  0.00    -0.338 N 
ATOM     11  H22 UNL     1      17.107  31.609  12.266  0.00  0.00    +0.167 HD
BRANCH   2  15
ATOM     12  C1  UNL     1      16.744  36.514  13.751  0.00  0.00    +0.025 A 
ATOM     13  C2  UNL     1      16.456  35.875  14.958  0.00  0.00    +0.023 A 
ATOM     14  C3  UNL     1      16.165  34.504  14.996  0.00  0.00    +0.013 A 
ATOM     15  C4  UNL     1      16.113  33.751  13.815  0.00  0.00    +0.017 A 
ATOM     16  C5  UNL     1      16.352  34.412  12.603  0.00  0.00    +0.013 A 
ATOM     17  C6  UNL     1      16.639  35.781  12.570  0.00  0.00    +0.023 A 
BRANCH  12  18
ATOM     18  N1  UNL     1      16.915  37.902  13.711  0.00  0.00    -0.358 N 
ATOM     19  H1  UNL     1      16.064  38.423  13.901  0.00  0.00    +0.142 HD
ATOM     20  H2  UNL     1      17.391  38.235  12.879  0.00  0.00    +0.142 HD
ENDBRANCH  12  18
ENDBRANCH   2  15
ENDBRANCH   1   6
BRANCH   1  21
ATOM     21  C12 UNL     1      14.578  25.859  15.595  0.00  0.00    -0.041 A 
ATOM     22  C13 UNL     1      14.828  24.559  15.122  0.00  0.00    +0.006 A 
ATOM     23  C14 UNL     1      15.604  23.645  15.846  0.00  0.00    +0.028 A 
ATOM     24  C15 UNL     1      16.117  24.089  17.065  0.00  0.00    +0.066 A 
ATOM     25  N3  UNL     1      16.895  23.485  18.018  0.00  0.00    -0.338 N 
ATOM     26  C16 UNL     1      17.124  24.378  19.042  0.00  0.00    +0.139 A 
ATOM     27  N4  UNL     1      16.511  25.521  18.784  0.00  0.00    -0.228 NA
ATOM     28  C17 UNL     1      15.890  25.361  17.571  0.00  0.00    +0.090 A 
ATOM     29  C18 UNL     1      15.108  26.263  16.835  0.00  0.00    +0.033 A 
ATOM     30  H12 UNL     1      17.227  22.535  17.983  0.00  0.00    +0.167 HD
BRANCH  26  31
ATOM     31  C19 UNL     1      17.916  24.079  20.240  0.00  0.00    +0.017 A 
ATOM     32  C20 UNL     1      18.956  24.903  20.687  0.00  0.00    +0.013 A 
ATOM     33  C21 UNL     1      19.684  24.574  21.839  0.00  0.00    +0.023 A 
ATOM     34  C22 UNL     1      19.364  23.442  22.591  0.00  0.00    +0.025 A 
ATOM     35  C23 UNL     1      18.367  22.590  22.118  0.00  0.00    +0.023 A 
ATOM     36  C24 UNL     1      17.635  22.917  20.971  0.00  0.00    +0.013 A 
BRANCH  34  37
ATOM     37  N5  UNL     1      20.172  23.059  23.668  0.00  0.00    -0.358 N 
ATOM     38  H16 UNL     1      21.120  23.419  23.620  0.00  0.00    +0.142 HD
ATOM     39  H17 UNL     1      19.744  23.219  24.574  0.00  0.00    +0.142 HD
ENDBRANCH  34  37
ENDBRANCH  26  31
ENDBRANCH   1  21
TORSDOF 6
ENDMDL
MODEL 4
REMARK VINA RESULT:    -4.554      6.634     10.593
REMARK INTER + INTRA:          -6.718
REMARK INTER:                  -5.917
REMARK INTRA:                  -0.801
REMARK UNBOUND:                -0.833
REMARK  Name = /home/vital/Documents/PhD_2021/Malaria_codes/data/pdb_ligands_mmv/ligand_292.pdb
REMARK  6 active torsions:
REMARK  status: ('A' for Active; 'I' for Inactive)
REMARK    1  A    between atoms: N1_1  and  C1_2
REMARK    2  A    between atoms: C4_5  and  C7_8
REMARK    3  A    between atoms: C10_12  and  C11_13
REMARK    4  A    between atoms: C11_13  and  C12_14
REMARK    5  A    between atoms: C16_19  and  C19_23
REMARK    6  A    between atoms: C22_26  and  N5_27
REMARK                            x       y       z     vdW  Elec       q    Type
REMARK                         _______ _______ _______ _____ _____    ______ ____
ROOT
ATOM      1  C11 UNL     1      16.025  33.381  20.162  0.00  0.00    +0.070 C 
ENDROOT
BRANCH   1   6
ATOM      2  C7  UNL     1      15.705  38.135  16.577  0.00  0.00    +0.139 A 
ATOM      3  N2  UNL     1      16.597  37.496  17.316  0.00  0.00    -0.228 NA
ATOM      4  C8  UNL     1      15.938  36.440  17.893  0.00  0.00    +0.090 A 
ATOM      5  C9  UNL     1      16.412  35.453  18.767  0.00  0.00    +0.033 A 
ATOM      6  C10 UNL     1      15.530  34.451  19.216  0.00  0.00    -0.041 A 
ATOM      7  C25 UNL     1      14.190  34.464  18.792  0.00  0.00    +0.006 A 
ATOM      8  C26 UNL     1      13.700  35.445  17.921  0.00  0.00    +0.028 A 
ATOM      9  C27 UNL     1      14.609  36.414  17.496  0.00  0.00    +0.066 A 
ATOM     10  N6  UNL     1      14.488  37.497  16.664  0.00  0.00    -0.338 N 
ATOM     11  H22 UNL     1      13.647  37.770  16.182  0.00  0.00    +0.167 HD
BRANCH   2  15
ATOM     12  C1  UNL     1      16.552  41.603  14.177  0.00  0.00    +0.025 A 
ATOM     13  C2  UNL     1      15.620  41.680  15.214  0.00  0.00    +0.023 A 
ATOM     14  C3  UNL     1      15.342  40.565  16.016  0.00  0.00    +0.013 A 
ATOM     15  C4  UNL     1      15.962  39.333  15.769  0.00  0.00    +0.017 A 
ATOM     16  C5  UNL     1      16.856  39.252  14.692  0.00  0.00    +0.013 A 
ATOM     17  C6  UNL     1      17.128  40.366  13.892  0.00  0.00    +0.023 A 
BRANCH  12  18
ATOM     18  N1  UNL     1      16.733  42.685  13.309  0.00  0.00    -0.358 N 
ATOM     19  H1  UNL     1      16.827  43.578  13.785  0.00  0.00    +0.142 HD
ATOM     20  H2  UNL     1      16.060  42.723  12.550  0.00  0.00    +0.142 HD
ENDBRANCH  12  18
ENDBRANCH   2  15
ENDBRANCH   1   6
BRANCH   1  21
ATOM     21  C12 UNL     1      15.496  31.999  19.848  0.00  0.00    -0.041 A 
ATOM     22  C13 UNL     1      14.624  31.351  20.740  0.00  0.00    +0.006 A 
ATOM     23  C14 UNL     1      14.124  30.068  20.484  0.00  0.00    +0.028 A 
ATOM     24  C15 UNL     1      14.534  29.463  19.296  0.00  0.00    +0.066 A 
ATOM     25  N3  UNL     1      14.257  28.245  18.733  0.00  0.00    -0.338 N 
ATOM     26  C16 UNL     1      14.927  28.143  17.532  0.00  0.00    +0.139 A 
ATOM     27  N4  UNL     1      15.630  29.242  17.318  0.00  0.00    -0.228 NA
ATOM     28  C17 UNL     1      15.397  30.065  18.391  0.00  0.00    +0.090 A 
ATOM     29  C18 UNL     1      15.892  31.348  18.664  0.00  0.00    +0.033 A 
ATOM     30  H12 UNL     1      13.674  27.533  19.141  0.00  0.00    +0.167 HD
BRANCH  26  31
ATOM     31  C19 UNL     1      14.871  26.972  16.650  0.00  0.00    +0.017 A 
ATOM     32  C20 UNL     1      14.629  27.071  15.274  0.00  0.00    +0.013 A 
ATOM     33  C21 UNL     1      14.585  25.923  14.472  0.00  0.00    +0.023 A 
ATOM     34  C22 UNL     1      14.822  24.658  15.015  0.00  0.00    +0.025 A 
ATOM     35  C23 UNL     1      15.007  24.551  16.393  0.00  0.00    +0.023 A 
ATOM     36  C24 UNL     1      15.056  25.696  17.197  0.00  0.00    +0.013 A 
BRANCH  34  37
ATOM     37  N5  UNL     1      14.657  23.511  14.231  0.00  0.00    -0.358 N 
ATOM     38  H16 UNL     1      14.554  22.656  14.768  0.00  0.00    +0.142 HD
ATOM     39  H17 UNL     1      13.941  23.606  13.516  0.00  0.00    +0.142 HD
ENDBRANCH  34  37
ENDBRANCH  26  31
ENDBRANCH   1  21
TORSDOF 6
ENDMDL
MODEL 5
REMARK VINA RESULT:    -4.541      6.615     12.083
REMARK INTER + INTRA:          -6.702
REMARK INTER:                  -5.909
REMARK INTRA:                  -0.793
REMARK UNBOUND:                -0.833
REMARK  Name = /home/vital/Documents/PhD_2021/Malaria_codes/data/pdb_ligands_mmv/ligand_292.pdb
REMARK  6 active torsions:
REMARK  status: ('A' for Active; 'I' for Inactive)
REMARK    1  A    between atoms: N1_1  and  C1_2
REMARK    2  A    between atoms: C4_5  and  C7_8
REMARK    3  A    between atoms: C10_12  and  C11_13
REMARK    4  A    between atoms: C11_13  and  C12_14
REMARK    5  A    between atoms: C16_19  and  C19_23
REMARK    6  A    between atoms: C22_26  and  N5_27
REMARK                            x       y       z     vdW  Elec       q    Type
REMARK                         _______ _______ _______ _____ _____    ______ ____
ROOT
ATOM      1  C11 UNL     1      16.130  33.297  20.128  0.00  0.00    +0.070 C 
ENDROOT
BRANCH   1   6
ATOM      2  C7  UNL     1      14.906  28.013  17.649  0.00  0.00    +0.139 A 
ATOM      3  N2  UNL     1      15.671  29.069  17.430  0.00  0.00    -0.228 NA
ATOM      4  C8  UNL     1      15.425  29.946  18.456  0.00  0.00    +0.090 A 
ATOM      5  C9  UNL     1      15.966  31.216  18.703  0.00  0.00    +0.033 A 
ATOM      6  C10 UNL     1      15.558  31.925  19.849  0.00  0.00    -0.041 A 
ATOM      7  C25 UNL     1      14.609  31.358  20.716  0.00  0.00    +0.006 A 
ATOM      8  C26 UNL     1      14.057  30.092  20.482  0.00  0.00    +0.028 A 
ATOM      9  C27 UNL     1      14.494  29.422  19.339  0.00  0.00    +0.066 A 
ATOM     10  N6  UNL     1      14.182  28.198  18.807  0.00  0.00    -0.338 N 
ATOM     11  H22 UNL     1      13.537  27.536  19.207  0.00  0.00    +0.167 HD
BRANCH   2  15
ATOM     12  C1  UNL     1      14.638  24.543  15.122  0.00  0.00    +0.025 A 
ATOM     13  C2  UNL     1      15.158  24.430  16.413  0.00  0.00    +0.023 A 
ATOM     14  C3  UNL     1      15.239  25.547  17.256  0.00  0.00    +0.013 A 
ATOM     15  C4  UNL     1      14.839  26.813  16.808  0.00  0.00    +0.017 A 
ATOM     16  C5  UNL     1      14.368  26.926  15.493  0.00  0.00    +0.013 A 
ATOM     17  C6  UNL     1      14.292  25.809  14.653  0.00  0.00    +0.023 A 
BRANCH  12  18
ATOM     18  N1  UNL     1      14.672  23.450  14.249  0.00  0.00    -0.358 N 
ATOM     19  H1  UNL     1      14.790  22.557  14.719  0.00  0.00    +0.142 HD
ATOM     20  H2  UNL     1      15.314  23.562  13.472  0.00  0.00    +0.142 HD
ENDBRANCH  12  18
ENDBRANCH   2  15
ENDBRANCH   1   6
BRANCH   1  21
ATOM     21  C12 UNL     1      15.582  34.380  19.225  0.00  0.00    -0.041 A 
ATOM     22  C13 UNL     1      14.226  34.379  18.854  0.00  0.00    +0.006 A 
ATOM     23  C14 UNL     1      13.690  35.362  18.012  0.00  0.00    +0.028 A 
ATOM     24  C15 UNL     1      14.570  36.344  17.558  0.00  0.00    +0.066 A 
ATOM     25  N3  UNL     1      14.404  37.430  16.739  0.00  0.00    -0.338 N 
ATOM     26  C16 UNL     1      15.611  38.084  16.611  0.00  0.00    +0.139 A 
ATOM     27  N4  UNL     1      16.540  37.448  17.304  0.00  0.00    -0.228 NA
ATOM     28  C17 UNL     1      15.916  36.378  17.894  0.00  0.00    +0.090 A 
ATOM     29  C18 UNL     1      16.438  35.385  18.736  0.00  0.00    +0.033 A 
ATOM     30  H12 UNL     1      13.543  37.694  16.288  0.00  0.00    +0.167 HD
BRANCH  26  31
ATOM     31  C19 UNL     1      15.816  39.292  15.804  0.00  0.00    +0.017 A 
ATOM     32  C20 UNL     1      15.142  40.494  16.054  0.00  0.00    +0.013 A 
ATOM     33  C21 UNL     1      15.373  41.622  15.254  0.00  0.00    +0.023 A 
ATOM     34  C22 UNL     1      16.308  41.588  14.218  0.00  0.00    +0.025 A 
ATOM     35  C23 UNL     1      16.939  40.378  13.932  0.00  0.00    +0.023 A 
ATOM     36  C24 UNL     1      16.715  39.251  14.730  0.00  0.00    +0.013 A 
BRANCH  34  37
ATOM     37  N5  UNL     1      16.442  42.680  13.353  0.00  0.00    -0.358 N 
ATOM     38  H16 UNL     1      17.289  43.220  13.499  0.00  0.00    +0.142 HD
ATOM     39  H17 UNL     1      16.299  42.444  12.376  0.00  0.00    +0.142 HD
ENDBRANCH  34  37
ENDBRANCH  26  31
ENDBRANCH   1  21
TORSDOF 6
ENDMDL
MODEL 6
REMARK VINA RESULT:    -4.170      3.583     11.148
REMARK INTER + INTRA:          -6.222
REMARK INTER:                  -5.376
REMARK INTRA:                  -0.846
REMARK UNBOUND:                -0.833
REMARK  Name = /home/vital/Documents/PhD_2021/Malaria_codes/data/pdb_ligands_mmv/ligand_292.pdb
REMARK  6 active torsions:
REMARK  status: ('A' for Active; 'I' for Inactive)
REMARK    1  A    between atoms: N1_1  and  C1_2
REMARK    2  A    between atoms: C4_5  and  C7_8
REMARK    3  A    between atoms: C10_12  and  C11_13
REMARK    4  A    between atoms: C11_13  and  C12_14
REMARK    5  A    between atoms: C16_19  and  C19_23
REMARK    6  A    between atoms: C22_26  and  N5_27
REMARK                            x       y       z     vdW  Elec       q    Type
REMARK                         _______ _______ _______ _____ _____    ______ ____
ROOT
ATOM      1  C11 UNL     1      13.731  28.567  14.256  0.00  0.00    +0.070 C 
ENDROOT
BRANCH   1   6
ATOM      2  C7  UNL     1      17.018  24.905  17.625  0.00  0.00    +0.139 A 
ATOM      3  N2  UNL     1      16.749  26.196  17.517  0.00  0.00    -0.228 NA
ATOM      4  C8  UNL     1      15.871  26.323  16.471  0.00  0.00    +0.090 A 
ATOM      5  C9  UNL     1      15.273  27.471  15.932  0.00  0.00    +0.033 A 
ATOM      6  C10 UNL     1      14.381  27.338  14.851  0.00  0.00    -0.041 A 
ATOM      7  C25 UNL     1      14.114  26.064  14.323  0.00  0.00    +0.006 A 
ATOM      8  C26 UNL     1      14.705  24.907  14.847  0.00  0.00    +0.028 A 
ATOM      9  C27 UNL     1      15.577  25.084  15.922  0.00  0.00    +0.066 A 
ATOM     10  N6  UNL     1      16.315  24.204  16.670  0.00  0.00    -0.338 N 
ATOM     11  H22 UNL     1      16.327  23.204  16.549  0.00  0.00    +0.167 HD
BRANCH   2  15
ATOM     12  C1  UNL     1      19.688  23.067  20.453  0.00  0.00    +0.025 A 
ATOM     13  C2  UNL     1      18.467  23.591  20.881  0.00  0.00    +0.023 A 
ATOM     14  C3  UNL     1      17.578  24.180  19.972  0.00  0.00    +0.013 A 
ATOM     15  C4  UNL     1      17.912  24.296  18.616  0.00  0.00    +0.017 A 
ATOM     16  C5  UNL     1      19.162  23.814  18.205  0.00  0.00    +0.013 A 
ATOM     17  C6  UNL     1      20.048  23.230  19.116  0.00  0.00    +0.023 A 
BRANCH  12  18
ATOM     18  N1  UNL     1      20.617  22.590  21.383  0.00  0.00    -0.358 N 
ATOM     19  H1  UNL     1      21.389  22.079  20.964  0.00  0.00    +0.142 HD
ATOM     20  H2  UNL     1      20.202  22.088  22.161  0.00  0.00    +0.142 HD
ENDBRANCH  12  18
ENDBRANCH   2  15
ENDBRANCH   1   6
BRANCH   1  21
ATOM     21  C12 UNL     1      14.720  29.595  13.753  0.00  0.00    -0.041 A 
ATOM     22  C13 UNL     1      15.701  29.238  12.811  0.00  0.00    +0.006 A 
ATOM     23  C14 UNL     1      16.637  30.163  12.331  0.00  0.00    +0.028 A 
ATOM     24  C15 UNL     1      16.548  31.461  12.836  0.00  0.00    +0.066 A 
ATOM     25  N3  UNL     1      17.278  32.597  12.603  0.00  0.00    -0.338 N 
ATOM     26  C16 UNL     1      16.766  33.623  13.368  0.00  0.00    +0.139 A 
ATOM     27  N4  UNL     1      15.749  33.180  14.088  0.00  0.00    -0.228 NA
ATOM     28  C17 UNL     1      15.600  31.853  13.770  0.00  0.00    +0.090 A 
ATOM     29  C18 UNL     1      14.672  30.914  14.242  0.00  0.00    +0.033 A 
ATOM     30  H12 UNL     1      18.073  32.664  11.988  0.00  0.00    +0.167 HD
BRANCH  26  31
ATOM     31  C19 UNL     1      17.299  34.990  13.382  0.00  0.00    +0.017 A 
ATOM     32  C20 UNL     1      16.714  36.023  14.125  0.00  0.00    +0.013 A 
ATOM     33  C21 UNL     1      17.261  37.314  14.106  0.00  0.00    +0.023 A 
ATOM     34  C22 UNL     1      18.421  37.592  13.382  0.00  0.00    +0.025 A 
ATOM     35  C23 UNL     1      18.973  36.580  12.597  0.00  0.00    +0.023 A 
ATOM     36  C24 UNL     1      18.433  35.289  12.616  0.00  0.00    +0.013 A 
BRANCH  34  37
ATOM     37  N5  UNL     1      18.888  38.907  13.274  0.00  0.00    -0.358 N 
ATOM     38  H16 UNL     1      18.424  39.561  13.896  0.00  0.00    +0.142 HD
ATOM     39  H17 UNL     1      19.899  38.984  13.317  0.00  0.00    +0.142 HD
ENDBRANCH  34  37
ENDBRANCH  26  31
ENDBRANCH   1  21
TORSDOF 6
ENDMDL
MODEL 7
REMARK VINA RESULT:    -4.137      4.354      8.044
REMARK INTER + INTRA:          -6.179
REMARK INTER:                  -5.399
REMARK INTRA:                  -0.780
REMARK UNBOUND:                -0.833
REMARK  Name = /home/vital/Documents/PhD_2021/Malaria_codes/data/pdb_ligands_mmv/ligand_292.pdb
REMARK  6 active torsions:
REMARK  status: ('A' for Active; 'I' for Inactive)
REMARK    1  A    between atoms: N1_1  and  C1_2
REMARK    2  A    between atoms: C4_5  and  C7_8
REMARK    3  A    between atoms: C10_12  and  C11_13
REMARK    4  A    between atoms: C11_13  and  C12_14
REMARK    5  A    between atoms: C16_19  and  C19_23
REMARK    6  A    between atoms: C22_26  and  N5_27
REMARK                            x       y       z     vdW  Elec       q    Type
REMARK                         _______ _______ _______ _____ _____    ______ ____
ROOT
ATOM      1  C11 UNL     1      13.798  28.938  14.220  0.00  0.00    +0.070 C 
ENDROOT
BRANCH   1   6
ATOM      2  C7  UNL     1      16.703  34.078  13.383  0.00  0.00    +0.139 A 
ATOM      3  N2  UNL     1      15.731  33.588  14.133  0.00  0.00    -0.228 NA
ATOM      4  C8  UNL     1      15.585  32.273  13.770  0.00  0.00    +0.090 A 
ATOM      5  C9  UNL     1      14.696  31.300  14.248  0.00  0.00    +0.033 A 
ATOM      6  C10 UNL     1      14.752  29.997  13.717  0.00  0.00    -0.041 A 
ATOM      7  C25 UNL     1      15.686  29.697  12.711  0.00  0.00    +0.006 A 
ATOM      8  C26 UNL     1      16.579  30.657  12.220  0.00  0.00    +0.028 A 
ATOM      9  C27 UNL     1      16.493  31.933  12.779  0.00  0.00    +0.066 A 
ATOM     10  N6  UNL     1      17.189  33.092  12.552  0.00  0.00    -0.338 N 
ATOM     11  H22 UNL     1      17.944  33.199  11.894  0.00  0.00    +0.167 HD
BRANCH   2  15
ATOM     12  C1  UNL     1      18.202  38.103  13.621  0.00  0.00    +0.025 A 
ATOM     13  C2  UNL     1      17.444  37.702  12.520  0.00  0.00    +0.023 A 
ATOM     14  C3  UNL     1      16.935  36.399  12.431  0.00  0.00    +0.013 A 
ATOM     15  C4  UNL     1      17.211  35.454  13.428  0.00  0.00    +0.017 A 
ATOM     16  C5  UNL     1      18.017  35.850  14.504  0.00  0.00    +0.013 A 
ATOM     17  C6  UNL     1      18.526  37.150  14.587  0.00  0.00    +0.023 A 
BRANCH  12  18
ATOM     18  N1  UNL     1      18.805  39.365  13.643  0.00  0.00    -0.358 N 
ATOM     19  H1  UNL     1      18.150  40.127  13.793  0.00  0.00    +0.142 HD
ATOM     20  H2  UNL     1      19.424  39.540  12.858  0.00  0.00    +0.142 HD
ENDBRANCH  12  18
ENDBRANCH   2  15
ENDBRANCH   1   6
BRANCH   1  21
ATOM     21  C12 UNL     1      14.483  27.672  14.683  0.00  0.00    -0.041 A 
ATOM     22  C13 UNL     1      14.070  26.419  14.197  0.00  0.00    +0.006 A 
ATOM     23  C14 UNL     1      14.677  25.227  14.612  0.00  0.00    +0.028 A 
ATOM     24  C15 UNL     1      15.717  25.344  15.534  0.00  0.00    +0.066 A 
ATOM     25  N3  UNL     1      16.518  24.418  16.149  0.00  0.00    -0.338 N 
ATOM     26  C16 UNL     1      17.401  25.071  16.983  0.00  0.00    +0.139 A 
ATOM     27  N4  UNL     1      17.182  26.374  16.932  0.00  0.00    -0.228 NA
ATOM     28  C17 UNL     1      16.152  26.559  16.044  0.00  0.00    +0.090 A 
ATOM     29  C18 UNL     1      15.531  27.743  15.621  0.00  0.00    +0.033 A 
ATOM     30  H12 UNL     1      16.456  23.421  16.027  0.00  0.00    +0.167 HD
BRANCH  26  31
ATOM     31  C19 UNL     1      18.410  24.400  17.809  0.00  0.00    +0.017 A 
ATOM     32  C20 UNL     1      18.078  23.490  18.820  0.00  0.00    +0.013 A 
ATOM     33  C21 UNL     1      19.080  22.874  19.583  0.00  0.00    +0.023 A 
ATOM     34  C22 UNL     1      20.430  23.120  19.328  0.00  0.00    +0.025 A 
ATOM     35  C23 UNL     1      20.762  24.068  18.361  0.00  0.00    +0.023 A 
ATOM     36  C24 UNL     1      19.765  24.682  17.594  0.00  0.00    +0.013 A 
BRANCH  34  37
ATOM     37  N5  UNL     1      21.415  22.594  20.173  0.00  0.00    -0.358 N 
ATOM     38  H16 UNL     1      21.620  21.614  20.006  0.00  0.00    +0.142 HD
ATOM     39  H17 UNL     1      22.256  23.162  20.219  0.00  0.00    +0.142 HD
ENDBRANCH  34  37
ENDBRANCH  26  31
ENDBRANCH   1  21
TORSDOF 6
ENDMDL
MODEL 8
REMARK VINA RESULT:    -3.735     19.844     23.052
REMARK INTER + INTRA:          -5.660
REMARK INTER:                  -4.893
REMARK INTRA:                  -0.767
REMARK UNBOUND:                -0.833
REMARK  Name = /home/vital/Documents/PhD_2021/Malaria_codes/data/pdb_ligands_mmv/ligand_292.pdb
REMARK  6 active torsions:
REMARK  status: ('A' for Active; 'I' for Inactive)
REMARK    1  A    between atoms: N1_1  and  C1_2
REMARK    2  A    between atoms: C4_5  and  C7_8
REMARK    3  A    between atoms: C10_12  and  C11_13
REMARK    4  A    between atoms: C11_13  and  C12_14
REMARK    5  A    between atoms: C16_19  and  C19_23
REMARK    6  A    between atoms: C22_26  and  N5_27
REMARK                            x       y       z     vdW  Elec       q    Type
REMARK                         _______ _______ _______ _____ _____    ______ ____
ROOT
ATOM      1  C11 UNL     1      15.032  44.709  23.957  0.00  0.00    +0.070 C 
ENDROOT
BRANCH   1   6
ATOM      2  C7  UNL     1      14.633  45.251  29.882  0.00  0.00    +0.139 A 
ATOM      3  N2  UNL     1      15.145  44.426  28.984  0.00  0.00    -0.228 NA
ATOM      4  C8  UNL     1      14.838  44.952  27.755  0.00  0.00    +0.090 A 
ATOM      5  C9  UNL     1      15.138  44.474  26.472  0.00  0.00    +0.033 A 
ATOM      6  C10 UNL     1      14.720  45.213  25.348  0.00  0.00    -0.041 A 
ATOM      7  C25 UNL     1      14.001  46.406  25.530  0.00  0.00    +0.006 A 
ATOM      8  C26 UNL     1      13.691  46.896  26.805  0.00  0.00    +0.028 A 
ATOM      9  C27 UNL     1      14.130  46.136  27.889  0.00  0.00    +0.066 A 
ATOM     10  N6  UNL     1      14.014  46.304  29.245  0.00  0.00    -0.338 N 
ATOM     11  H22 UNL     1      13.561  47.080  29.700  0.00  0.00    +0.167 HD
BRANCH   2  15
ATOM     12  C1  UNL     1      14.780  44.776  34.155  0.00  0.00    +0.025 A 
ATOM     13  C2  UNL     1      15.834  45.396  33.483  0.00  0.00    +0.023 A 
ATOM     14  C3  UNL     1      15.798  45.573  32.093  0.00  0.00    +0.013 A 
ATOM     15  C4  UNL     1      14.719  45.093  31.339  0.00  0.00    +0.017 A 
ATOM     16  C5  UNL     1      13.690  44.425  32.016  0.00  0.00    +0.013 A 
ATOM     17  C6  UNL     1      13.732  44.247  33.403  0.00  0.00    +0.023 A 
BRANCH  12  18
ATOM     18  N1  UNL     1      14.880  44.498  35.523  0.00  0.00    -0.358 N 
ATOM     19  H1  UNL     1      14.065  44.026  35.903  0.00  0.00    +0.142 HD
ATOM     20  H2  UNL     1      15.162  45.293  36.086  0.00  0.00    +0.142 HD
ENDBRANCH  12  18
ENDBRANCH   2  15
ENDBRANCH   1   6
BRANCH   1  21
ATOM     21  C12 UNL     1      16.232  45.377  23.323  0.00  0.00    -0.041 A 
ATOM     22  C13 UNL     1      16.116  46.657  22.754  0.00  0.00    +0.006 A 
ATOM     23  C14 UNL     1      17.206  47.299  22.151  0.00  0.00    +0.028 A 
ATOM     24  C15 UNL     1      18.415  46.605  22.144  0.00  0.00    +0.066 A 
ATOM     25  N3  UNL     1      19.657  46.912  21.654  0.00  0.00    -0.338 N 
ATOM     26  C16 UNL     1      20.514  45.864  21.914  0.00  0.00    +0.139 A 
ATOM     27  N4  UNL     1      19.862  44.898  22.538  0.00  0.00    -0.228 NA
ATOM     28  C17 UNL     1      18.571  45.338  22.690  0.00  0.00    +0.090 A 
ATOM     29  C18 UNL     1      17.470  44.707  23.287  0.00  0.00    +0.033 A 
ATOM     30  H12 UNL     1      19.898  47.758  21.164  0.00  0.00    +0.167 HD
BRANCH  26  31
ATOM     31  C19 UNL     1      21.930  45.837  21.529  0.00  0.00    +0.017 A 
ATOM     32  C20 UNL     1      22.423  46.510  20.405  0.00  0.00    +0.013 A 
ATOM     33  C21 UNL     1      23.785  46.454  20.079  0.00  0.00    +0.023 A 
ATOM     34  C22 UNL     1      24.689  45.762  20.887  0.00  0.00    +0.025 A 
ATOM     35  C23 UNL     1      24.193  45.045  21.975  0.00  0.00    +0.023 A 
ATOM     36  C24 UNL     1      22.834  45.102  22.307  0.00  0.00    +0.013 A 
BRANCH  34  37
ATOM     37  N5  UNL     1      26.022  45.613  20.488  0.00  0.00    -0.358 N 
ATOM     38  H16 UNL     1      26.475  44.788  20.867  0.00  0.00    +0.142 HD
ATOM     39  H17 UNL     1      26.158  45.701  19.486  0.00  0.00    +0.142 HD
ENDBRANCH  34  37
ENDBRANCH  26  31
ENDBRANCH   1  21
TORSDOF 6
ENDMDL
MODEL 9
REMARK VINA RESULT:    -3.256     19.589     21.189
REMARK INTER + INTRA:          -5.040
REMARK INTER:                  -4.317
REMARK INTRA:                  -0.723
REMARK UNBOUND:                -0.833
REMARK  Name = /home/vital/Documents/PhD_2021/Malaria_codes/data/pdb_ligands_mmv/ligand_292.pdb
REMARK  6 active torsions:
REMARK  status: ('A' for Active; 'I' for Inactive)
REMARK    1  A    between atoms: N1_1  and  C1_2
REMARK    2  A    between atoms: C4_5  and  C7_8
REMARK    3  A    between atoms: C10_12  and  C11_13
REMARK    4  A    between atoms: C11_13  and  C12_14
REMARK    5  A    between atoms: C16_19  and  C19_23
REMARK    6  A    between atoms: C22_26  and  N5_27
REMARK                            x       y       z     vdW  Elec       q    Type
REMARK                         _______ _______ _______ _____ _____    ______ ____
ROOT
ATOM      1  C11 UNL     1      14.818  44.708  24.014  0.00  0.00    +0.070 C 
ENDROOT
BRANCH   1   6
ATOM      2  C7  UNL     1      20.262  45.654  21.771  0.00  0.00    +0.139 A 
ATOM      3  N2  UNL     1      19.576  44.691  22.364  0.00  0.00    -0.228 NA
ATOM      4  C8  UNL     1      18.327  45.201  22.612  0.00  0.00    +0.090 A 
ATOM      5  C9  UNL     1      17.217  44.602  23.225  0.00  0.00    +0.033 A 
ATOM      6  C10 UNL     1      16.023  45.338  23.353  0.00  0.00    -0.041 A 
ATOM      7  C25 UNL     1      15.967  46.659  22.878  0.00  0.00    +0.006 A 
ATOM      8  C26 UNL     1      17.068  47.273  22.267  0.00  0.00    +0.028 A 
ATOM      9  C27 UNL     1      18.228  46.506  22.155  0.00  0.00    +0.066 A 
ATOM     10  N6  UNL     1      19.465  46.769  21.626  0.00  0.00    -0.338 N 
ATOM     11  H22 UNL     1      19.740  47.634  21.189  0.00  0.00    +0.167 HD
BRANCH   2  15
ATOM     12  C1  UNL     1      24.346  45.280  20.473  0.00  0.00    +0.025 A 
ATOM     13  C2  UNL     1      23.771  46.543  20.620  0.00  0.00    +0.023 A 
ATOM     14  C3  UNL     1      22.447  46.686  21.056  0.00  0.00    +0.013 A 
ATOM     15  C4  UNL     1      21.653  45.560  21.314  0.00  0.00    +0.017 A 
ATOM     16  C5  UNL     1      22.222  44.295  21.113  0.00  0.00    +0.013 A 
ATOM     17  C6  UNL     1      23.544  44.158  20.674  0.00  0.00    +0.023 A 
BRANCH  12  18
ATOM     18  N1  UNL     1      25.626  45.146  19.924  0.00  0.00    -0.358 N 
ATOM     19  H1  UNL     1      25.649  45.248  18.914  0.00  0.00    +0.142 HD
ATOM     20  H2  UNL     1      26.125  44.321  20.238  0.00  0.00    +0.142 HD
ENDBRANCH  12  18
ENDBRANCH   2  15
ENDBRANCH   1   6
BRANCH   1  21
ATOM     21  C12 UNL     1      14.555  45.219  25.413  0.00  0.00    -0.041 A 
ATOM     22  C13 UNL     1      13.940  46.467  25.611  0.00  0.00    +0.006 A 
ATOM     23  C14 UNL     1      13.690  46.974  26.893  0.00  0.00    +0.028 A 
ATOM     24  C15 UNL     1      14.084  46.176  27.967  0.00  0.00    +0.066 A 
ATOM     25  N3  UNL     1      14.004  46.344  29.324  0.00  0.00    -0.338 N 
ATOM     26  C16 UNL     1      14.544  45.240  29.947  0.00  0.00    +0.139 A 
ATOM     27  N4  UNL     1      14.977  44.382  29.038  0.00  0.00    -0.228 NA
ATOM     28  C17 UNL     1      14.699  44.941  27.816  0.00  0.00    +0.090 A 
ATOM     29  C18 UNL     1      14.944  44.450  26.526  0.00  0.00    +0.033 A 
ATOM     30  H12 UNL     1      13.629  47.155  29.790  0.00  0.00    +0.167 HD
BRANCH  26  31
ATOM     31  C19 UNL     1      14.635  45.070  31.401  0.00  0.00    +0.017 A 
ATOM     32  C20 UNL     1      15.637  45.670  32.173  0.00  0.00    +0.013 A 
ATOM     33  C21 UNL     1      15.681  45.478  33.561  0.00  0.00    +0.023 A 
ATOM     34  C22 UNL     1      14.706  44.720  34.212  0.00  0.00    +0.025 A 
ATOM     35  C23 UNL     1      13.740  44.076  33.440  0.00  0.00    +0.023 A 
ATOM     36  C24 UNL     1      13.690  44.268  32.055  0.00  0.00    +0.013 A 
BRANCH  34  37
ATOM     37  N5  UNL     1      14.828  44.435  35.577  0.00  0.00    -0.358 N 
ATOM     38  H16 UNL     1      14.493  45.177  36.184  0.00  0.00    +0.142 HD
ATOM     39  H17 UNL     1      14.457  43.527  35.838  0.00  0.00    +0.142 HD
ENDBRANCH  34  37
ENDBRANCH  26  31
ENDBRANCH   1  21
TORSDOF 6
ENDMDL
