MODEL 1
REMARK VINA RESULT:    -3.335      0.000      0.000
REMARK INTER + INTRA:          -4.791
REMARK INTER:                  -4.017
REMARK INTRA:                  -0.774
REMARK UNBOUND:                -0.774
REMARK  Name = /home/vital/Documents/PhD_2021/Malaria_codes/data/pdb_ligands_mmv/ligand_224.pdb
REMARK  4 active torsions:
REMARK  status: ('A' for Active; 'I' for Inactive)
REMARK    1  A    between atoms: O1_1  and  C1_2
REMARK    2  A    between atoms: C2_3  and  C3_4
REMARK    3  A    between atoms: C3_4  and  N1_5
REMARK    4  A    between atoms: N2_8  and  C8_11
REMARK                            x       y       z     vdW  Elec       q    Type
REMARK                         _______ _______ _______ _____ _____    ______ ____
ROOT
ATOM      1  C3  UNL     1      13.753  36.531  17.902  0.00  0.00    +0.123 C 
ENDROOT
BRANCH   1   3
ATOM      2  C1  UNL     1      15.101  34.505  17.095  0.00  0.00    +0.147 A 
ATOM      3  C2  UNL     1      14.331  35.142  18.087  0.00  0.00    +0.011 A 
ATOM      4  C14 UNL     1      14.038  34.425  19.247  0.00  0.00    +0.024 A 
ATOM      5  C15 UNL     1      14.511  33.119  19.409  0.00  0.00    +0.028 A 
ATOM      6 BR1  UNL     1      14.044  32.255  21.045  0.00  0.00    -0.050 Br
ATOM      7  C16 UNL     1      15.286  32.483  18.407  0.00  0.00    +0.018 A 
ATOM      8  C17 UNL     1      15.792  31.166  18.510  0.00  0.00    +0.013 A 
ATOM      9  C18 UNL     1      16.545  30.607  17.485  0.00  0.00    +0.020 A 
ATOM     10  C19 UNL     1      16.783  31.379  16.373  0.00  0.00    +0.111 A 
ATOM     11  N3  UNL     1      16.324  32.637  16.231  0.00  0.00    -0.251 NA
ATOM     12  C20 UNL     1      15.585  33.192  17.222  0.00  0.00    +0.114 A 
BRANCH   2  13
ATOM     13  O1  UNL     1      15.406  35.201  15.942  0.00  0.00    -0.504 OA
ATOM     14  H1  UNL     1      15.569  36.134  16.196  0.00  0.00    +0.292 HD
ENDBRANCH   2  13
ENDBRANCH   1   3
BRANCH   1  15
ATOM     15  N1  UNL     1      14.558  37.380  17.005  0.00  0.00    -0.295 NA
ATOM     16  C4  UNL     1      15.499  38.243  17.765  0.00  0.00    +0.103 C 
ATOM     17  C5  UNL     1      16.257  39.251  16.865  0.00  0.00    +0.120 C 
ATOM     18  N2  UNL     1      15.337  40.056  16.028  0.00  0.00    -0.325 N 
ATOM     19  C6  UNL     1      13.915  39.726  16.179  0.00  0.00    +0.120 C 
ATOM     20  C7  UNL     1      13.691  38.198  16.115  0.00  0.00    +0.103 C 
BRANCH  18  21
ATOM     21  C8  UNL     1      15.871  40.569  14.841  0.00  0.00    +0.065 A 
ATOM     22  C9  UNL     1      16.037  39.786  13.686  0.00  0.00    +0.026 A 
ATOM     23  C10 UNL     1      16.565  40.312  12.496  0.00  0.00    +0.002 A 
ATOM     24  C11 UNL     1      16.942  41.648  12.424  0.00  0.00    +0.003 A 
ATOM     25  C12 UNL     1      16.790  42.457  13.542  0.00  0.00    +0.040 A 
ATOM     26  C13 UNL     1      16.263  41.922  14.721  0.00  0.00    +0.144 A 
ATOM     27  F1  UNL     1      16.122  42.765  15.758  0.00  0.00    -0.204 F 
ENDBRANCH  18  21
ENDBRANCH   1  15
TORSDOF 4
ENDMDL
MODEL 2
REMARK VINA RESULT:    -3.296     13.172     16.246
REMARK INTER + INTRA:          -4.744
REMARK INTER:                  -4.245
REMARK INTRA:                  -0.499
REMARK UNBOUND:                -0.774
REMARK  Name = /home/vital/Documents/PhD_2021/Malaria_codes/data/pdb_ligands_mmv/ligand_224.pdb
REMARK  4 active torsions:
REMARK  status: ('A' for Active; 'I' for Inactive)
REMARK    1  A    between atoms: O1_1  and  C1_2
REMARK    2  A    between atoms: C2_3  and  C3_4
REMARK    3  A    between atoms: C3_4  and  N1_5
REMARK    4  A    between atoms: N2_8  and  C8_11
REMARK                            x       y       z     vdW  Elec       q    Type
REMARK                         _______ _______ _______ _____ _____    ______ ____
ROOT
ATOM      1  C3  UNL     1      26.965  45.467  18.695  0.00  0.00    +0.123 C 
ENDROOT
BRANCH   1   3
ATOM      2  C1  UNL     1      24.443  45.922  18.747  0.00  0.00    +0.147 A 
ATOM      3  C2  UNL     1      25.669  45.924  18.056  0.00  0.00    +0.011 A 
ATOM      4  C14 UNL     1      25.660  46.292  16.710  0.00  0.00    +0.024 A 
ATOM      5  C15 UNL     1      24.464  46.657  16.086  0.00  0.00    +0.028 A 
ATOM      6 BR1  UNL     1      24.594  47.147  14.246  0.00  0.00    -0.050 Br
ATOM      7  C16 UNL     1      23.232  46.655  16.787  0.00  0.00    +0.018 A 
ATOM      8  C17 UNL     1      21.989  47.011  16.213  0.00  0.00    +0.013 A 
ATOM      9  C18 UNL     1      20.820  46.984  16.963  0.00  0.00    +0.020 A 
ATOM     10  C19 UNL     1      20.916  46.602  18.280  0.00  0.00    +0.111 A 
ATOM     11  N3  UNL     1      22.075  46.255  18.870  0.00  0.00    -0.251 NA
ATOM     12  C20 UNL     1      23.222  46.275  18.149  0.00  0.00    +0.114 A 
BRANCH   2  13
ATOM     13  O1  UNL     1      24.433  45.565  20.081  0.00  0.00    -0.504 OA
ATOM     14  H1  UNL     1      24.353  44.588  20.124  0.00  0.00    +0.292 HD
ENDBRANCH   2  13
ENDBRANCH   1   3
BRANCH   1  15
ATOM     15  N1  UNL     1      27.986  45.061  17.712  0.00  0.00    -0.295 NA
ATOM     16  C4  UNL     1      28.352  43.629  17.861  0.00  0.00    +0.103 C 
ATOM     17  C5  UNL     1      29.525  43.205  16.943  0.00  0.00    +0.120 C 
ATOM     18  N2  UNL     1      30.706  44.087  17.099  0.00  0.00    -0.325 N 
ATOM     19  C6  UNL     1      30.530  45.193  18.046  0.00  0.00    +0.120 C 
ATOM     20  C7  UNL     1      29.193  45.928  17.799  0.00  0.00    +0.103 C 
BRANCH  18  21
ATOM     21  C8  UNL     1      31.570  44.163  16.001  0.00  0.00    +0.065 A 
ATOM     22  C9  UNL     1      31.126  44.504  14.712  0.00  0.00    +0.026 A 
ATOM     23  C10 UNL     1      32.002  44.587  13.618  0.00  0.00    +0.002 A 
ATOM     24  C11 UNL     1      33.359  44.334  13.782  0.00  0.00    +0.003 A 
ATOM     25  C12 UNL     1      33.838  43.998  15.041  0.00  0.00    +0.040 A 
ATOM     26  C13 UNL     1      32.957  43.917  16.122  0.00  0.00    +0.144 A 
ATOM     27  F1  UNL     1      33.490  43.610  17.317  0.00  0.00    -0.204 F 
ENDBRANCH  18  21
ENDBRANCH   1  15
TORSDOF 4
ENDMDL
MODEL 3
REMARK VINA RESULT:    -3.161     14.734     16.440
REMARK INTER + INTRA:          -4.581
REMARK INTER:                  -3.655
REMARK INTRA:                  -0.926
REMARK UNBOUND:                -0.774
REMARK  Name = /home/vital/Documents/PhD_2021/Malaria_codes/data/pdb_ligands_mmv/ligand_224.pdb
REMARK  4 active torsions:
REMARK  status: ('A' for Active; 'I' for Inactive)
REMARK    1  A    between atoms: O1_1  and  C1_2
REMARK    2  A    between atoms: C2_3  and  C3_4
REMARK    3  A    between atoms: C3_4  and  N1_5
REMARK    4  A    between atoms: N2_8  and  C8_11
REMARK                            x       y       z     vdW  Elec       q    Type
REMARK                         _______ _______ _______ _____ _____    ______ ____
ROOT
ATOM      1  C3  UNL     1      16.949  43.505  29.934  0.00  0.00    +0.123 C 
ENDROOT
BRANCH   1   3
ATOM      2  C1  UNL     1      17.978  44.830  31.872  0.00  0.00    +0.147 A 
ATOM      3  C2  UNL     1      16.890  44.135  31.311  0.00  0.00    +0.011 A 
ATOM      4  C14 UNL     1      15.748  43.965  32.094  0.00  0.00    +0.024 A 
ATOM      5  C15 UNL     1      15.697  44.486  33.391  0.00  0.00    +0.028 A 
ATOM      6 BR1  UNL     1      14.075  44.191  34.350  0.00  0.00    -0.050 Br
ATOM      7  C16 UNL     1      16.795  45.186  33.951  0.00  0.00    +0.018 A 
ATOM      8  C17 UNL     1      16.807  45.735  35.255  0.00  0.00    +0.013 A 
ATOM      9  C18 UNL     1      17.922  46.409  35.738  0.00  0.00    +0.020 A 
ATOM     10  C19 UNL     1      19.008  46.525  34.904  0.00  0.00    +0.111 A 
ATOM     11  N3  UNL     1      19.043  46.021  33.655  0.00  0.00    -0.251 NA
ATOM     12  C20 UNL     1      17.963  45.359  33.174  0.00  0.00    +0.114 A 
BRANCH   2  13
ATOM     13  O1  UNL     1      19.115  45.012  31.110  0.00  0.00    -0.504 OA
ATOM     14  H1  UNL     1      19.685  44.225  31.240  0.00  0.00    +0.292 HD
ENDBRANCH   2  13
ENDBRANCH   1   3
BRANCH   1  15
ATOM     15  N1  UNL     1      17.560  44.383  28.920  0.00  0.00    -0.295 NA
ATOM     16  C4  UNL     1      16.565  45.316  28.331  0.00  0.00    +0.103 C 
ATOM     17  C5  UNL     1      17.139  46.153  27.160  0.00  0.00    +0.120 C 
ATOM     18  N2  UNL     1      17.771  45.305  26.121  0.00  0.00    -0.325 N 
ATOM     19  C6  UNL     1      17.767  43.867  26.412  0.00  0.00    +0.120 C 
ATOM     20  C7  UNL     1      18.238  43.591  27.858  0.00  0.00    +0.103 C 
BRANCH  18  21
ATOM     21  C8  UNL     1      18.760  45.916  25.343  0.00  0.00    +0.065 A 
ATOM     22  C9  UNL     1      20.076  46.101  25.802  0.00  0.00    +0.026 A 
ATOM     23  C10 UNL     1      21.064  46.706  25.009  0.00  0.00    +0.002 A 
ATOM     24  C11 UNL     1      20.766  47.144  23.724  0.00  0.00    +0.003 A 
ATOM     25  C12 UNL     1      19.479  46.976  23.233  0.00  0.00    +0.040 A 
ATOM     26  C13 UNL     1      18.502  46.372  24.031  0.00  0.00    +0.144 A 
ATOM     27  F1  UNL     1      17.284  46.220  23.485  0.00  0.00    -0.204 F 
ENDBRANCH  18  21
ENDBRANCH   1  15
TORSDOF 4
ENDMDL
MODEL 4
REMARK VINA RESULT:    -3.147     13.731     16.598
REMARK INTER + INTRA:          -4.564
REMARK INTER:                  -3.960
REMARK INTRA:                  -0.604
REMARK UNBOUND:                -0.774
REMARK  Name = /home/vital/Documents/PhD_2021/Malaria_codes/data/pdb_ligands_mmv/ligand_224.pdb
REMARK  4 active torsions:
REMARK  status: ('A' for Active; 'I' for Inactive)
REMARK    1  A    between atoms: O1_1  and  C1_2
REMARK    2  A    between atoms: C2_3  and  C3_4
REMARK    3  A    between atoms: C3_4  and  N1_5
REMARK    4  A    between atoms: N2_8  and  C8_11
REMARK                            x       y       z     vdW  Elec       q    Type
REMARK                         _______ _______ _______ _____ _____    ______ ____
ROOT
ATOM      1  C3  UNL     1      27.681  45.270  19.507  0.00  0.00    +0.123 C 
ENDROOT
BRANCH   1   3
ATOM      2  C1  UNL     1      26.170  45.950  17.551  0.00  0.00    +0.147 A 
ATOM      3  C2  UNL     1      26.329  45.599  18.905  0.00  0.00    +0.011 A 
ATOM      4  C14 UNL     1      25.202  45.632  19.725  0.00  0.00    +0.024 A 
ATOM      5  C15 UNL     1      23.957  45.992  19.202  0.00  0.00    +0.028 A 
ATOM      6 BR1  UNL     1      22.497  45.987  20.430  0.00  0.00    -0.050 Br
ATOM      7  C16 UNL     1      23.802  46.344  17.837  0.00  0.00    +0.018 A 
ATOM      8  C17 UNL     1      22.572  46.720  17.248  0.00  0.00    +0.013 A 
ATOM      9  C18 UNL     1      22.495  47.053  15.901  0.00  0.00    +0.020 A 
ATOM     10  C19 UNL     1      23.655  47.002  15.165  0.00  0.00    +0.111 A 
ATOM     11  N3  UNL     1      24.848  46.650  15.681  0.00  0.00    -0.251 NA
ATOM     12  C20 UNL     1      24.936  46.325  16.993  0.00  0.00    +0.114 A 
BRANCH   2  13
ATOM     13  O1  UNL     1      27.274  45.920  16.722  0.00  0.00    -0.504 OA
ATOM     14  H1  UNL     1      27.854  46.668  16.976  0.00  0.00    +0.292 HD
ENDBRANCH   2  13
ENDBRANCH   1   3
BRANCH   1  15
ATOM     15  N1  UNL     1      28.677  44.855  18.503  0.00  0.00    -0.295 NA
ATOM     16  C4  UNL     1      28.974  43.402  18.593  0.00  0.00    +0.103 C 
ATOM     17  C5  UNL     1      30.122  42.959  17.652  0.00  0.00    +0.120 C 
ATOM     18  N2  UNL     1      31.345  43.775  17.837  0.00  0.00    -0.325 N 
ATOM     19  C6  UNL     1      31.226  44.850  18.829  0.00  0.00    +0.120 C 
ATOM     20  C7  UNL     1      29.925  45.658  18.618  0.00  0.00    +0.103 C 
BRANCH  18  21
ATOM     21  C8  UNL     1      32.207  43.853  16.738  0.00  0.00    +0.065 A 
ATOM     22  C9  UNL     1      32.059  44.818  15.727  0.00  0.00    +0.026 A 
ATOM     23  C10 UNL     1      32.936  44.893  14.633  0.00  0.00    +0.002 A 
ATOM     24  C11 UNL     1      33.998  44.004  14.519  0.00  0.00    +0.003 A 
ATOM     25  C12 UNL     1      34.182  43.039  15.500  0.00  0.00    +0.040 A 
ATOM     26  C13 UNL     1      33.302  42.972  16.584  0.00  0.00    +0.144 A 
ATOM     27  F1  UNL     1      33.551  42.028  17.508  0.00  0.00    -0.204 F 
ENDBRANCH  18  21
ENDBRANCH   1  15
TORSDOF 4
ENDMDL
MODEL 5
REMARK VINA RESULT:    -3.095      2.298      3.075
REMARK INTER + INTRA:          -4.502
REMARK INTER:                  -3.898
REMARK INTRA:                  -0.603
REMARK UNBOUND:                -0.774
REMARK  Name = /home/vital/Documents/PhD_2021/Malaria_codes/data/pdb_ligands_mmv/ligand_224.pdb
REMARK  4 active torsions:
REMARK  status: ('A' for Active; 'I' for Inactive)
REMARK    1  A    between atoms: O1_1  and  C1_2
REMARK    2  A    between atoms: C2_3  and  C3_4
REMARK    3  A    between atoms: C3_4  and  N1_5
REMARK    4  A    between atoms: N2_8  and  C8_11
REMARK                            x       y       z     vdW  Elec       q    Type
REMARK                         _______ _______ _______ _____ _____    ______ ____
ROOT
ATOM      1  C3  UNL     1      15.783  34.578  18.147  0.00  0.00    +0.123 C 
ENDROOT
BRANCH   1   3
ATOM      2  C1  UNL     1      15.487  33.532  15.826  0.00  0.00    +0.147 A 
ATOM      3  C2  UNL     1      15.748  33.393  17.203  0.00  0.00    +0.011 A 
ATOM      4  C14 UNL     1      15.904  32.104  17.712  0.00  0.00    +0.024 A 
ATOM      5  C15 UNL     1      15.815  30.995  16.866  0.00  0.00    +0.028 A 
ATOM      6 BR1  UNL     1      16.057  29.290  17.689  0.00  0.00    -0.050 Br
ATOM      7  C16 UNL     1      15.553  31.140  15.481  0.00  0.00    +0.018 A 
ATOM      8  C17 UNL     1      15.447  30.059  14.574  0.00  0.00    +0.013 A 
ATOM      9  C18 UNL     1      15.188  30.277  13.226  0.00  0.00    +0.020 A 
ATOM     10  C19 UNL     1      15.039  31.578  12.808  0.00  0.00    +0.111 A 
ATOM     11  N3  UNL     1      15.131  32.639  13.633  0.00  0.00    -0.251 NA
ATOM     12  C20 UNL     1      15.382  32.438  14.949  0.00  0.00    +0.114 A 
BRANCH   2  13
ATOM     13  O1  UNL     1      15.333  34.800  15.303  0.00  0.00    -0.504 OA
ATOM     14  H1  UNL     1      15.290  35.426  16.056  0.00  0.00    +0.292 HD
ENDBRANCH   2  13
ENDBRANCH   1   3
BRANCH   1  15
ATOM     15  N1  UNL     1      16.098  35.850  17.472  0.00  0.00    -0.295 NA
ATOM     16  C4  UNL     1      17.533  36.206  17.615  0.00  0.00    +0.103 C 
ATOM     17  C5  UNL     1      17.870  37.606  17.044  0.00  0.00    +0.120 C 
ATOM     18  N2  UNL     1      16.990  38.663  17.596  0.00  0.00    -0.325 N 
ATOM     19  C6  UNL     1      15.964  38.187  18.531  0.00  0.00    +0.120 C 
ATOM     20  C7  UNL     1      15.228  36.952  17.964  0.00  0.00    +0.103 C 
BRANCH  18  21
ATOM     21  C8  UNL     1      16.818  39.801  16.800  0.00  0.00    +0.065 A 
ATOM     22  C9  UNL     1      15.641  40.042  16.071  0.00  0.00    +0.026 A 
ATOM     23  C10 UNL     1      15.474  41.192  15.283  0.00  0.00    +0.002 A 
ATOM     24  C11 UNL     1      16.484  42.144  15.204  0.00  0.00    +0.003 A 
ATOM     25  C12 UNL     1      17.660  41.945  15.913  0.00  0.00    +0.040 A 
ATOM     26  C13 UNL     1      17.816  40.796  16.694  0.00  0.00    +0.144 A 
ATOM     27  F1  UNL     1      18.970  40.676  17.372  0.00  0.00    -0.204 F 
ENDBRANCH  18  21
ENDBRANCH   1  15
TORSDOF 4
ENDMDL
MODEL 6
REMARK VINA RESULT:    -2.995     12.152     13.101
REMARK INTER + INTRA:          -4.381
REMARK INTER:                  -3.469
REMARK INTRA:                  -0.912
REMARK UNBOUND:                -0.774
REMARK  Name = /home/vital/Documents/PhD_2021/Malaria_codes/data/pdb_ligands_mmv/ligand_224.pdb
REMARK  4 active torsions:
REMARK  status: ('A' for Active; 'I' for Inactive)
REMARK    1  A    between atoms: O1_1  and  C1_2
REMARK    2  A    between atoms: C2_3  and  C3_4
REMARK    3  A    between atoms: C3_4  and  N1_5
REMARK    4  A    between atoms: N2_8  and  C8_11
REMARK                            x       y       z     vdW  Elec       q    Type
REMARK                         _______ _______ _______ _____ _____    ______ ____
ROOT
ATOM      1  C3  UNL     1      21.329  46.476  23.196  0.00  0.00    +0.123 C 
ENDROOT
BRANCH   1   3
ATOM      2  C1  UNL     1      18.880  46.972  22.628  0.00  0.00    +0.147 A 
ATOM      3  C2  UNL     1      19.842  46.388  23.473  0.00  0.00    +0.011 A 
ATOM      4  C14 UNL     1      19.397  45.774  24.643  0.00  0.00    +0.024 A 
ATOM      5  C15 UNL     1      18.033  45.736  24.947  0.00  0.00    +0.028 A 
ATOM      6 BR1  UNL     1      17.559  44.857  26.573  0.00  0.00    -0.050 Br
ATOM      7  C16 UNL     1      17.068  46.324  24.091  0.00  0.00    +0.018 A 
ATOM      8  C17 UNL     1      15.675  46.322  24.342  0.00  0.00    +0.013 A 
ATOM      9  C18 UNL     1      14.787  46.920  23.457  0.00  0.00    +0.020 A 
ATOM     10  C19 UNL     1      15.309  47.511  22.331  0.00  0.00    +0.111 A 
ATOM     11  N3  UNL     1      16.626  47.538  22.049  0.00  0.00    -0.251 NA
ATOM     12  C20 UNL     1      17.502  46.960  22.906  0.00  0.00    +0.114 A 
BRANCH   2  13
ATOM     13  O1  UNL     1      19.301  47.581  21.462  0.00  0.00    -0.504 OA
ATOM     14  H1  UNL     1      19.694  46.887  20.892  0.00  0.00    +0.292 HD
ENDBRANCH   2  13
ENDBRANCH   1   3
BRANCH   1  15
ATOM     15  N1  UNL     1      21.657  46.420  21.760  0.00  0.00    -0.295 NA
ATOM     16  C4  UNL     1      21.872  45.024  21.301  0.00  0.00    +0.103 C 
ATOM     17  C5  UNL     1      22.360  44.937  19.833  0.00  0.00    +0.120 C 
ATOM     18  N2  UNL     1      23.554  45.779  19.589  0.00  0.00    -0.325 N 
ATOM     19  C6  UNL     1      24.016  46.548  20.750  0.00  0.00    +0.120 C 
ATOM     20  C7  UNL     1      22.836  47.269  21.442  0.00  0.00    +0.103 C 
BRANCH  18  21
ATOM     21  C8  UNL     1      23.747  46.211  18.272  0.00  0.00    +0.065 A 
ATOM     22  C9  UNL     1      22.729  46.822  17.520  0.00  0.00    +0.026 A 
ATOM     23  C10 UNL     1      22.936  47.260  16.202  0.00  0.00    +0.002 A 
ATOM     24  C11 UNL     1      24.176  47.104  15.594  0.00  0.00    +0.003 A 
ATOM     25  C12 UNL     1      25.209  46.509  16.305  0.00  0.00    +0.040 A 
ATOM     26  C13 UNL     1      24.992  46.075  17.616  0.00  0.00    +0.144 A 
ATOM     27  F1  UNL     1      26.041  45.529  18.255  0.00  0.00    -0.204 F 
ENDBRANCH  18  21
ENDBRANCH   1  15
TORSDOF 4
ENDMDL
MODEL 7
REMARK VINA RESULT:    -2.931     13.585     16.117
REMARK INTER + INTRA:          -4.304
REMARK INTER:                  -3.359
REMARK INTRA:                  -0.945
REMARK UNBOUND:                -0.774
REMARK  Name = /home/vital/Documents/PhD_2021/Malaria_codes/data/pdb_ligands_mmv/ligand_224.pdb
REMARK  4 active torsions:
REMARK  status: ('A' for Active; 'I' for Inactive)
REMARK    1  A    between atoms: O1_1  and  C1_2
REMARK    2  A    between atoms: C2_3  and  C3_4
REMARK    3  A    between atoms: C3_4  and  N1_5
REMARK    4  A    between atoms: N2_8  and  C8_11
REMARK                            x       y       z     vdW  Elec       q    Type
REMARK                         _______ _______ _______ _____ _____    ______ ____
ROOT
ATOM      1  C3  UNL     1      28.847  42.567  17.735  0.00  0.00    +0.123 C 
ENDROOT
BRANCH   1   3
ATOM      2  C1  UNL     1      30.326  43.353  15.795  0.00  0.00    +0.147 A 
ATOM      3  C2  UNL     1      30.195  42.844  17.101  0.00  0.00    +0.011 A 
ATOM      4  C14 UNL     1      31.361  42.521  17.796  0.00  0.00    +0.024 A 
ATOM      5  C15 UNL     1      32.613  42.713  17.205  0.00  0.00    +0.028 A 
ATOM      6 BR1  UNL     1      34.124  42.237  18.267  0.00  0.00    -0.050 Br
ATOM      7  C16 UNL     1      32.739  43.226  15.889  0.00  0.00    +0.018 A 
ATOM      8  C17 UNL     1      33.975  43.440  15.235  0.00  0.00    +0.013 A 
ATOM      9  C18 UNL     1      34.021  43.947  13.942  0.00  0.00    +0.020 A 
ATOM     10  C19 UNL     1      32.827  44.232  13.325  0.00  0.00    +0.111 A 
ATOM     11  N3  UNL     1      31.627  44.046  13.907  0.00  0.00    -0.251 NA
ATOM     12  C20 UNL     1      31.568  43.550  15.167  0.00  0.00    +0.114 A 
BRANCH   2  13
ATOM     13  O1  UNL     1      29.184  43.683  15.092  0.00  0.00    -0.504 OA
ATOM     14  H1  UNL     1      28.437  43.197  15.500  0.00  0.00    +0.292 HD
ENDBRANCH   2  13
ENDBRANCH   1   3
BRANCH   1  15
ATOM     15  N1  UNL     1      27.862  43.637  17.497  0.00  0.00    -0.295 NA
ATOM     16  C4  UNL     1      28.050  44.773  18.436  0.00  0.00    +0.103 C 
ATOM     17  C5  UNL     1      26.944  45.851  18.311  0.00  0.00    +0.120 C 
ATOM     18  N2  UNL     1      25.584  45.273  18.423  0.00  0.00    -0.325 N 
ATOM     19  C6  UNL     1      25.543  43.816  18.588  0.00  0.00    +0.120 C 
ATOM     20  C7  UNL     1      26.471  43.116  17.569  0.00  0.00    +0.103 C 
BRANCH  18  21
ATOM     21  C8  UNL     1      24.555  45.992  17.804  0.00  0.00    +0.065 A 
ATOM     22  C9  UNL     1      24.663  46.494  16.496  0.00  0.00    +0.026 A 
ATOM     23  C10 UNL     1      23.621  47.206  15.881  0.00  0.00    +0.002 A 
ATOM     24  C11 UNL     1      22.429  47.435  16.559  0.00  0.00    +0.003 A 
ATOM     25  C12 UNL     1      22.281  46.951  17.851  0.00  0.00    +0.040 A 
ATOM     26  C13 UNL     1      23.325  46.244  18.454  0.00  0.00    +0.144 A 
ATOM     27  F1  UNL     1      23.106  45.785  19.698  0.00  0.00    -0.204 F 
ENDBRANCH  18  21
ENDBRANCH   1  15
TORSDOF 4
ENDMDL
MODEL 8
REMARK VINA RESULT:    -2.849      3.004      3.932
REMARK INTER + INTRA:          -4.206
REMARK INTER:                  -3.878
REMARK INTRA:                  -0.328
REMARK UNBOUND:                -0.774
REMARK  Name = /home/vital/Documents/PhD_2021/Malaria_codes/data/pdb_ligands_mmv/ligand_224.pdb
REMARK  4 active torsions:
REMARK  status: ('A' for Active; 'I' for Inactive)
REMARK    1  A    between atoms: O1_1  and  C1_2
REMARK    2  A    between atoms: C2_3  and  C3_4
REMARK    3  A    between atoms: C3_4  and  N1_5
REMARK    4  A    between atoms: N2_8  and  C8_11
REMARK                            x       y       z     vdW  Elec       q    Type
REMARK                         _______ _______ _______ _____ _____    ______ ____
ROOT
ATOM      1  C3  UNL     1      15.736  33.593  17.365  0.00  0.00    +0.123 C 
ENDROOT
BRANCH   1   3
ATOM      2  C1  UNL     1      15.777  31.151  16.589  0.00  0.00    +0.147 A 
ATOM      3  C2  UNL     1      15.589  32.517  16.308  0.00  0.00    +0.011 A 
ATOM      4  C14 UNL     1      15.330  32.883  14.988  0.00  0.00    +0.024 A 
ATOM      5  C15 UNL     1      15.250  31.910  13.987  0.00  0.00    +0.028 A 
ATOM      6 BR1  UNL     1      14.882  32.545  12.226  0.00  0.00    -0.050 Br
ATOM      7  C16 UNL     1      15.439  30.535  14.276  0.00  0.00    +0.018 A 
ATOM      8  C17 UNL     1      15.375  29.503  13.310  0.00  0.00    +0.013 A 
ATOM      9  C18 UNL     1      15.572  28.175  13.667  0.00  0.00    +0.020 A 
ATOM     10  C19 UNL     1      15.829  27.901  14.989  0.00  0.00    +0.111 A 
ATOM     11  N3  UNL     1      15.900  28.848  15.943  0.00  0.00    -0.251 NA
ATOM     12  C20 UNL     1      15.712  30.147  15.608  0.00  0.00    +0.114 A 
BRANCH   2  13
ATOM     13  O1  UNL     1      16.030  30.769  17.892  0.00  0.00    -0.504 OA
ATOM     14  H1  UNL     1      15.537  29.937  18.056  0.00  0.00    +0.292 HD
ENDBRANCH   2  13
ENDBRANCH   1   3
BRANCH   1  15
ATOM     15  N1  UNL     1      15.980  34.933  16.799  0.00  0.00    -0.295 NA
ATOM     16  C4  UNL     1      17.218  35.543  17.348  0.00  0.00    +0.103 C 
ATOM     17  C5  UNL     1      17.428  37.007  16.887  0.00  0.00    +0.120 C 
ATOM     18  N2  UNL     1      16.241  37.854  17.153  0.00  0.00    -0.325 N 
ATOM     19  C6  UNL     1      15.103  37.151  17.756  0.00  0.00    +0.120 C 
ATOM     20  C7  UNL     1      14.811  35.829  17.010  0.00  0.00    +0.103 C 
BRANCH  18  21
ATOM     21  C8  UNL     1      16.087  38.977  16.332  0.00  0.00    +0.065 A 
ATOM     22  C9  UNL     1      15.236  38.984  15.214  0.00  0.00    +0.026 A 
ATOM     23  C10 UNL     1      15.080  40.120  14.402  0.00  0.00    +0.002 A 
ATOM     24  C11 UNL     1      15.773  41.291  14.689  0.00  0.00    +0.003 A 
ATOM     25  C12 UNL     1      16.620  41.325  15.788  0.00  0.00    +0.040 A 
ATOM     26  C13 UNL     1      16.767  40.189  16.589  0.00  0.00    +0.144 A 
ATOM     27  F1  UNL     1      17.585  40.298  17.649  0.00  0.00    -0.204 F 
ENDBRANCH  18  21
ENDBRANCH   1  15
TORSDOF 4
ENDMDL
MODEL 9
REMARK VINA RESULT:    -2.620     10.494     11.879
REMARK INTER + INTRA:          -3.929
REMARK INTER:                  -3.370
REMARK INTRA:                  -0.559
REMARK UNBOUND:                -0.774
REMARK  Name = /home/vital/Documents/PhD_2021/Malaria_codes/data/pdb_ligands_mmv/ligand_224.pdb
REMARK  4 active torsions:
REMARK  status: ('A' for Active; 'I' for Inactive)
REMARK    1  A    between atoms: O1_1  and  C1_2
REMARK    2  A    between atoms: C2_3  and  C3_4
REMARK    3  A    between atoms: C3_4  and  N1_5
REMARK    4  A    between atoms: N2_8  and  C8_11
REMARK                            x       y       z     vdW  Elec       q    Type
REMARK                         _______ _______ _______ _____ _____    ______ ____
ROOT
ATOM      1  C3  UNL     1      20.190  45.417  22.863  0.00  0.00    +0.123 C 
ENDROOT
BRANCH   1   3
ATOM      2  C1  UNL     1      17.781  46.208  23.238  0.00  0.00    +0.147 A 
ATOM      3  C2  UNL     1      18.701  45.170  22.998  0.00  0.00    +0.011 A 
ATOM      4  C14 UNL     1      18.216  43.863  22.960  0.00  0.00    +0.024 A 
ATOM      5  C15 UNL     1      16.854  43.609  23.144  0.00  0.00    +0.028 A 
ATOM      6 BR1  UNL     1      16.322  41.778  23.060  0.00  0.00    -0.050 Br
ATOM      7  C16 UNL     1      15.931  44.658  23.384  0.00  0.00    +0.018 A 
ATOM      8  C17 UNL     1      14.543  44.468  23.580  0.00  0.00    +0.013 A 
ATOM      9  C18 UNL     1      13.698  45.546  23.811  0.00  0.00    +0.020 A 
ATOM     10  C19 UNL     1      14.258  46.801  23.841  0.00  0.00    +0.111 A 
ATOM     11  N3  UNL     1      15.573  47.032  23.659  0.00  0.00    -0.251 NA
ATOM     12  C20 UNL     1      16.407  45.988  23.435  0.00  0.00    +0.114 A 
BRANCH   2  13
ATOM     13  O1  UNL     1      18.242  47.510  23.274  0.00  0.00    -0.504 OA
ATOM     14  H1  UNL     1      18.176  47.819  24.202  0.00  0.00    +0.292 HD
ENDBRANCH   2  13
ENDBRANCH   1   3
BRANCH   1  15
ATOM     15  N1  UNL     1      20.649  45.448  21.462  0.00  0.00    -0.295 NA
ATOM     16  C4  UNL     1      21.755  44.485  21.226  0.00  0.00    +0.103 C 
ATOM     17  C5  UNL     1      22.359  44.594  19.803  0.00  0.00    +0.120 C 
ATOM     18  N2  UNL     1      22.765  45.980  19.471  0.00  0.00    -0.325 N 
ATOM     19  C6  UNL     1      22.488  46.972  20.516  0.00  0.00    +0.120 C 
ATOM     20  C7  UNL     1      21.048  46.823  21.055  0.00  0.00    +0.103 C 
BRANCH  18  21
ATOM     21  C8  UNL     1      22.796  46.305  18.110  0.00  0.00    +0.065 A 
ATOM     22  C9  UNL     1      23.997  46.506  17.408  0.00  0.00    +0.026 A 
ATOM     23  C10 UNL     1      24.017  46.822  16.040  0.00  0.00    +0.002 A 
ATOM     24  C11 UNL     1      22.830  46.943  15.327  0.00  0.00    +0.003 A 
ATOM     25  C12 UNL     1      21.623  46.747  15.984  0.00  0.00    +0.040 A 
ATOM     26  C13 UNL     1      21.614  46.433  17.345  0.00  0.00    +0.144 A 
ATOM     27  F1  UNL     1      20.412  46.234  17.913  0.00  0.00    -0.204 F 
ENDBRANCH  18  21
ENDBRANCH   1  15
TORSDOF 4
ENDMDL
