MODEL 1
REMARK VINA RESULT:    -2.648      0.000      0.000
REMARK INTER + INTRA:          -3.456
REMARK INTER:                  -3.113
REMARK INTRA:                  -0.343
REMARK UNBOUND:                -0.343
REMARK  Name = /home/vital/Documents/PhD_2021/Malaria_codes/data/pdb_ligands_mmv/ligand_192.pdb
REMARK  6 active torsions:
REMARK  status: ('A' for Active; 'I' for Inactive)
REMARK    1  A    between atoms: C1_1  and  O1_2
REMARK    2  A    between atoms: O1_2  and  C2_3
REMARK    3  A    between atoms: C4_5  and  S1_6
REMARK    4  A    between atoms: S1_6  and  C5_7
REMARK    5  A    between atoms: C8_10  and  C9_11
REMARK    6  A    between atoms: C13_17  and  C14_18
REMARK                            x       y       z     vdW  Elec       q    Type
REMARK                         _______ _______ _______ _____ _____    ______ ____
ROOT
ATOM      1  C2  UNL     1      16.301  27.611  14.154  0.00  0.00    +0.133 A 
ATOM      2  C3  UNL     1      16.271  26.237  14.422  0.00  0.00    +0.061 A 
ATOM      3  C4  UNL     1      15.096  25.620  14.879  0.00  0.00    +0.011 A 
ATOM      4  C6  UNL     1      13.932  26.376  15.048  0.00  0.00    +0.015 A 
ATOM      5  C7  UNL     1      13.944  27.744  14.780  0.00  0.00    +0.018 A 
ATOM      6  C8  UNL     1      15.121  28.350  14.326  0.00  0.00    +0.079 A 
ENDROOT
BRANCH   6   7
ATOM      7  C9  UNL     1      15.088  29.805  14.087  0.00  0.00    +0.250 C 
ATOM      8  O2  UNL     1      14.768  30.185  12.963  0.00  0.00    -0.270 OA
ATOM      9  N1  UNL     1      15.486  30.657  15.116  0.00  0.00    -0.297 N 
ATOM     10  C10 UNL     1      15.887  30.212  16.452  0.00  0.00    +0.108 C 
ATOM     11  C11 UNL     1      15.606  31.275  17.508  0.00  0.00    +0.019 C 
ATOM     12  C12 UNL     1      16.297  32.604  17.199  0.00  0.00    +0.006 C 
ATOM     13  C13 UNL     1      16.566  32.811  15.700  0.00  0.00    +0.003 C 
ATOM     14  C14 UNL     1      16.642  34.296  15.357  0.00  0.00    +0.009 C 
ATOM     15  C15 UNL     1      15.516  32.094  14.846  0.00  0.00    +0.111 C 
ENDBRANCH   6   7
BRANCH   1  17
ATOM     16  C1  UNL     1      18.660  27.648  13.809  0.00  0.00    +0.277 C 
ATOM     17  O1  UNL     1      17.398  28.292  13.701  0.00  0.00    -0.494 OA
ENDBRANCH   1  17
BRANCH   3  18
ATOM     18  S1  UNL     1      15.110  23.863  15.196  0.00  0.00    -0.128 S 
ATOM     19  C5  UNL     1      16.200  23.818  16.645  0.00  0.00    +0.090 C 
ENDBRANCH   3  18
TORSDOF 3
ENDMDL
MODEL 2
REMARK VINA RESULT:    -2.470      2.074      2.609
REMARK INTER + INTRA:          -3.247
REMARK INTER:                  -2.976
REMARK INTRA:                  -0.270
REMARK UNBOUND:                -0.343
REMARK  Name = /home/vital/Documents/PhD_2021/Malaria_codes/data/pdb_ligands_mmv/ligand_192.pdb
REMARK  6 active torsions:
REMARK  status: ('A' for Active; 'I' for Inactive)
REMARK    1  A    between atoms: C1_1  and  O1_2
REMARK    2  A    between atoms: O1_2  and  C2_3
REMARK    3  A    between atoms: C4_5  and  S1_6
REMARK    4  A    between atoms: S1_6  and  C5_7
REMARK    5  A    between atoms: C8_10  and  C9_11
REMARK    6  A    between atoms: C13_17  and  C14_18
REMARK                            x       y       z     vdW  Elec       q    Type
REMARK                         _______ _______ _______ _____ _____    ______ ____
ROOT
ATOM      1  C2  UNL     1      17.563  26.783  15.639  0.00  0.00    +0.133 A 
ATOM      2  C3  UNL     1      17.156  25.655  16.361  0.00  0.00    +0.061 A 
ATOM      3  C4  UNL     1      16.077  24.873  15.922  0.00  0.00    +0.011 A 
ATOM      4  C6  UNL     1      15.412  25.204  14.739  0.00  0.00    +0.015 A 
ATOM      5  C7  UNL     1      15.808  26.321  14.006  0.00  0.00    +0.018 A 
ATOM      6  C8  UNL     1      16.884  27.096  14.452  0.00  0.00    +0.079 A 
ENDROOT
BRANCH   6   7
ATOM      7  C9  UNL     1      17.243  28.285  13.656  0.00  0.00    +0.250 C 
ATOM      8  O2  UNL     1      18.259  28.217  12.968  0.00  0.00    -0.270 OA
ATOM      9  N1  UNL     1      16.459  29.430  13.781  0.00  0.00    -0.297 N 
ATOM     10  C10 UNL     1      15.258  29.526  14.613  0.00  0.00    +0.108 C 
ATOM     11  C11 UNL     1      14.273  30.553  14.066  0.00  0.00    +0.019 C 
ATOM     12  C12 UNL     1      14.894  31.944  13.929  0.00  0.00    +0.006 C 
ATOM     13  C13 UNL     1      16.420  31.909  13.748  0.00  0.00    +0.003 C 
ATOM     14  C14 UNL     1      16.912  33.149  13.007  0.00  0.00    +0.009 C 
ATOM     15  C15 UNL     1      16.863  30.625  13.041  0.00  0.00    +0.111 C 
ENDBRANCH   6   7
BRANCH   1  17
ATOM     16  C1  UNL     1      18.537  28.242  17.255  0.00  0.00    +0.277 C 
ATOM     17  O1  UNL     1      18.606  27.599  15.990  0.00  0.00    -0.494 OA
ENDBRANCH   1  17
BRANCH   3  18
ATOM     18  S1  UNL     1      15.607  23.438  16.875  0.00  0.00    -0.128 S 
ATOM     19  C5  UNL     1      17.248  22.834  17.357  0.00  0.00    +0.090 C 
ENDBRANCH   3  18
TORSDOF 3
ENDMDL
MODEL 3
REMARK VINA RESULT:    -2.457     16.282     18.776
REMARK INTER + INTRA:          -3.231
REMARK INTER:                  -2.892
REMARK INTRA:                  -0.339
REMARK UNBOUND:                -0.343
REMARK  Name = /home/vital/Documents/PhD_2021/Malaria_codes/data/pdb_ligands_mmv/ligand_192.pdb
REMARK  6 active torsions:
REMARK  status: ('A' for Active; 'I' for Inactive)
REMARK    1  A    between atoms: C1_1  and  O1_2
REMARK    2  A    between atoms: O1_2  and  C2_3
REMARK    3  A    between atoms: C4_5  and  S1_6
REMARK    4  A    between atoms: S1_6  and  C5_7
REMARK    5  A    between atoms: C8_10  and  C9_11
REMARK    6  A    between atoms: C13_17  and  C14_18
REMARK                            x       y       z     vdW  Elec       q    Type
REMARK                         _______ _______ _______ _____ _____    ______ ____
ROOT
ATOM      1  C2  UNL     1      23.691  46.617  17.258  0.00  0.00    +0.133 A 
ATOM      2  C3  UNL     1      24.449  46.763  16.090  0.00  0.00    +0.061 A 
ATOM      3  C4  UNL     1      23.825  46.865  14.837  0.00  0.00    +0.011 A 
ATOM      4  C6  UNL     1      22.430  46.846  14.749  0.00  0.00    +0.015 A 
ATOM      5  C7  UNL     1      21.661  46.707  15.903  0.00  0.00    +0.018 A 
ATOM      6  C8  UNL     1      22.292  46.604  17.147  0.00  0.00    +0.079 A 
ENDROOT
BRANCH   6   7
ATOM      7  C9  UNL     1      21.433  46.428  18.334  0.00  0.00    +0.250 C 
ATOM      8  O2  UNL     1      21.209  47.422  19.021  0.00  0.00    -0.270 OA
ATOM      9  N1  UNL     1      20.986  45.146  18.646  0.00  0.00    -0.297 N 
ATOM     10  C10 UNL     1      21.264  43.953  17.844  0.00  0.00    +0.108 C 
ATOM     11  C11 UNL     1      20.166  42.905  17.991  0.00  0.00    +0.019 C 
ATOM     12  C12 UNL     1      19.949  42.486  19.446  0.00  0.00    +0.006 C 
ATOM     13  C13 UNL     1      20.363  43.569  20.455  0.00  0.00    +0.003 C 
ATOM     14  C14 UNL     1      19.591  43.422  21.763  0.00  0.00    +0.009 C 
ATOM     15  C15 UNL     1      20.193  44.971  19.862  0.00  0.00    +0.111 C 
ENDBRANCH   6   7
BRANCH   1  17
ATOM     16  C1  UNL     1      25.235  45.552  18.729  0.00  0.00    +0.277 C 
ATOM     17  O1  UNL     1      24.214  46.517  18.519  0.00  0.00    -0.494 OA
ENDBRANCH   1  17
BRANCH   3  18
ATOM     18  S1  UNL     1      24.840  47.060  13.380  0.00  0.00    -0.128 S 
ATOM     19  C5  UNL     1      25.741  45.486  13.418  0.00  0.00    +0.090 C 
ENDBRANCH   3  18
TORSDOF 3
ENDMDL
MODEL 4
REMARK VINA RESULT:    -2.454      2.476      3.566
REMARK INTER + INTRA:          -3.227
REMARK INTER:                  -2.825
REMARK INTRA:                  -0.403
REMARK UNBOUND:                -0.343
REMARK  Name = /home/vital/Documents/PhD_2021/Malaria_codes/data/pdb_ligands_mmv/ligand_192.pdb
REMARK  6 active torsions:
REMARK  status: ('A' for Active; 'I' for Inactive)
REMARK    1  A    between atoms: C1_1  and  O1_2
REMARK    2  A    between atoms: O1_2  and  C2_3
REMARK    3  A    between atoms: C4_5  and  S1_6
REMARK    4  A    between atoms: S1_6  and  C5_7
REMARK    5  A    between atoms: C8_10  and  C9_11
REMARK    6  A    between atoms: C13_17  and  C14_18
REMARK                            x       y       z     vdW  Elec       q    Type
REMARK                         _______ _______ _______ _____ _____    ______ ____
ROOT
ATOM      1  C2  UNL     1      16.824  25.916  15.256  0.00  0.00    +0.133 A 
ATOM      2  C3  UNL     1      16.845  25.048  16.354  0.00  0.00    +0.061 A 
ATOM      3  C4  UNL     1      17.803  25.197  17.368  0.00  0.00    +0.011 A 
ATOM      4  C6  UNL     1      18.736  26.235  17.299  0.00  0.00    +0.015 A 
ATOM      5  C7  UNL     1      18.725  27.111  16.215  0.00  0.00    +0.018 A 
ATOM      6  C8  UNL     1      17.767  26.954  15.208  0.00  0.00    +0.079 A 
ENDROOT
BRANCH   6   7
ATOM      7  C9  UNL     1      17.819  27.888  14.068  0.00  0.00    +0.250 C 
ATOM      8  O2  UNL     1      18.705  27.713  13.235  0.00  0.00    -0.270 OA
ATOM      9  N1  UNL     1      16.915  28.949  14.036  0.00  0.00    -0.297 N 
ATOM     10  C10 UNL     1      15.868  29.176  15.034  0.00  0.00    +0.108 C 
ATOM     11  C11 UNL     1      14.673  29.912  14.441  0.00  0.00    +0.019 C 
ATOM     12  C12 UNL     1      15.062  31.253  13.815  0.00  0.00    +0.006 C 
ATOM     13  C13 UNL     1      16.526  31.299  13.349  0.00  0.00    +0.003 C 
ATOM     14  C14 UNL     1      16.710  32.310  12.221  0.00  0.00    +0.009 C 
ATOM     15  C15 UNL     1      17.020  29.909  12.938  0.00  0.00    +0.111 C 
ENDBRANCH   6   7
BRANCH   1  17
ATOM     16  C1  UNL     1      14.572  25.562  14.557  0.00  0.00    +0.277 C 
ATOM     17  O1  UNL     1      15.924  25.849  14.226  0.00  0.00    -0.494 OA
ENDBRANCH   1  17
BRANCH   3  18
ATOM     18  S1  UNL     1      17.777  24.069  18.753  0.00  0.00    -0.128 S 
ATOM     19  C5  UNL     1      17.025  22.622  17.959  0.00  0.00    +0.090 C 
ENDBRANCH   3  18
TORSDOF 3
ENDMDL
MODEL 5
REMARK VINA RESULT:    -2.128      4.427      7.884
REMARK INTER + INTRA:          -2.845
REMARK INTER:                  -2.450
REMARK INTRA:                  -0.395
REMARK UNBOUND:                -0.343
REMARK  Name = /home/vital/Documents/PhD_2021/Malaria_codes/data/pdb_ligands_mmv/ligand_192.pdb
REMARK  6 active torsions:
REMARK  status: ('A' for Active; 'I' for Inactive)
REMARK    1  A    between atoms: C1_1  and  O1_2
REMARK    2  A    between atoms: O1_2  and  C2_3
REMARK    3  A    between atoms: C4_5  and  S1_6
REMARK    4  A    between atoms: S1_6  and  C5_7
REMARK    5  A    between atoms: C8_10  and  C9_11
REMARK    6  A    between atoms: C13_17  and  C14_18
REMARK                            x       y       z     vdW  Elec       q    Type
REMARK                         _______ _______ _______ _____ _____    ______ ____
ROOT
ATOM      1  C2  UNL     1      17.001  34.705  16.749  0.00  0.00    +0.133 A 
ATOM      2  C3  UNL     1      17.038  36.102  16.828  0.00  0.00    +0.061 A 
ATOM      3  C4  UNL     1      15.857  36.843  16.987  0.00  0.00    +0.011 A 
ATOM      4  C6  UNL     1      14.629  36.184  17.092  0.00  0.00    +0.015 A 
ATOM      5  C7  UNL     1      14.577  34.793  17.022  0.00  0.00    +0.018 A 
ATOM      6  C8  UNL     1      15.759  34.063  16.861  0.00  0.00    +0.079 A 
ENDROOT
BRANCH   6   7
ATOM      7  C9  UNL     1      15.644  32.596  16.761  0.00  0.00    +0.250 C 
ATOM      8  O2  UNL     1      15.717  31.952  17.805  0.00  0.00    -0.270 OA
ATOM      9  N1  UNL     1      15.533  32.023  15.496  0.00  0.00    -0.297 N 
ATOM     10  C10 UNL     1      15.465  32.782  14.245  0.00  0.00    +0.108 C 
ATOM     11  C11 UNL     1      14.692  32.028  13.169  0.00  0.00    +0.019 C 
ATOM     12  C12 UNL     1      15.286  30.647  12.881  0.00  0.00    +0.006 C 
ATOM     13  C13 UNL     1      16.060  30.062  14.073  0.00  0.00    +0.003 C 
ATOM     14  C14 UNL     1      16.080  28.537  14.017  0.00  0.00    +0.009 C 
ATOM     15  C15 UNL     1      15.490  30.564  15.402  0.00  0.00    +0.111 C 
ENDBRANCH   6   7
BRANCH   1  17
ATOM     16  C1  UNL     1      18.994  34.207  15.537  0.00  0.00    +0.277 C 
ATOM     17  O1  UNL     1      18.102  33.904  16.601  0.00  0.00    -0.494 OA
ENDBRANCH   1  17
BRANCH   3  18
ATOM     18  S1  UNL     1      15.962  38.623  17.093  0.00  0.00    -0.128 S 
ATOM     19  C5  UNL     1      14.437  39.075  16.222  0.00  0.00    +0.090 C 
ENDBRANCH   3  18
TORSDOF 3
ENDMDL
MODEL 6
REMARK VINA RESULT:    -2.007      3.843      4.702
REMARK INTER + INTRA:          -2.702
REMARK INTER:                  -2.246
REMARK INTRA:                  -0.457
REMARK UNBOUND:                -0.343
REMARK  Name = /home/vital/Documents/PhD_2021/Malaria_codes/data/pdb_ligands_mmv/ligand_192.pdb
REMARK  6 active torsions:
REMARK  status: ('A' for Active; 'I' for Inactive)
REMARK    1  A    between atoms: C1_1  and  O1_2
REMARK    2  A    between atoms: O1_2  and  C2_3
REMARK    3  A    between atoms: C4_5  and  S1_6
REMARK    4  A    between atoms: S1_6  and  C5_7
REMARK    5  A    between atoms: C8_10  and  C9_11
REMARK    6  A    between atoms: C13_17  and  C14_18
REMARK                            x       y       z     vdW  Elec       q    Type
REMARK                         _______ _______ _______ _____ _____    ______ ____
ROOT
ATOM      1  C2  UNL     1      15.921  26.837  18.916  0.00  0.00    +0.133 A 
ATOM      2  C3  UNL     1      16.035  25.915  17.869  0.00  0.00    +0.061 A 
ATOM      3  C4  UNL     1      14.985  25.731  16.956  0.00  0.00    +0.011 A 
ATOM      4  C6  UNL     1      13.817  26.490  17.075  0.00  0.00    +0.015 A 
ATOM      5  C7  UNL     1      13.690  27.416  18.109  0.00  0.00    +0.018 A 
ATOM      6  C8  UNL     1      14.742  27.591  19.015  0.00  0.00    +0.079 A 
ENDROOT
BRANCH   6   7
ATOM      7  C9  UNL     1      14.544  28.561  20.108  0.00  0.00    +0.250 C 
ATOM      8  O2  UNL     1      13.950  28.169  21.110  0.00  0.00    -0.270 OA
ATOM      9  N1  UNL     1      14.972  29.874  19.918  0.00  0.00    -0.297 N 
ATOM     10  C10 UNL     1      15.664  30.355  18.720  0.00  0.00    +0.108 C 
ATOM     11  C11 UNL     1      16.579  31.533  19.032  0.00  0.00    +0.019 C 
ATOM     12  C12 UNL     1      15.831  32.701  19.676  0.00  0.00    +0.006 C 
ATOM     13  C13 UNL     1      14.563  32.265  20.429  0.00  0.00    +0.003 C 
ATOM     14  C14 UNL     1      14.214  33.257  21.535  0.00  0.00    +0.009 C 
ATOM     15  C15 UNL     1      14.709  30.844  20.980  0.00  0.00    +0.111 C 
ENDBRANCH   6   7
BRANCH   1  17
ATOM     16  C1  UNL     1      18.209  27.332  19.366  0.00  0.00    +0.277 C 
ATOM     17  O1  UNL     1      16.894  27.085  19.846  0.00  0.00    -0.494 OA
ENDBRANCH   1  17
BRANCH   3  18
ATOM     18  S1  UNL     1      15.188  24.550  15.632  0.00  0.00    -0.128 S 
ATOM     19  C5  UNL     1      14.700  25.580  14.221  0.00  0.00    +0.090 C 
ENDBRANCH   3  18
TORSDOF 3
ENDMDL
MODEL 7
REMARK VINA RESULT:    -1.921     16.240     18.283
REMARK INTER + INTRA:          -2.601
REMARK INTER:                  -2.284
REMARK INTRA:                  -0.318
REMARK UNBOUND:                -0.343
REMARK  Name = /home/vital/Documents/PhD_2021/Malaria_codes/data/pdb_ligands_mmv/ligand_192.pdb
REMARK  6 active torsions:
REMARK  status: ('A' for Active; 'I' for Inactive)
REMARK    1  A    between atoms: C1_1  and  O1_2
REMARK    2  A    between atoms: O1_2  and  C2_3
REMARK    3  A    between atoms: C4_5  and  S1_6
REMARK    4  A    between atoms: S1_6  and  C5_7
REMARK    5  A    between atoms: C8_10  and  C9_11
REMARK    6  A    between atoms: C13_17  and  C14_18
REMARK                            x       y       z     vdW  Elec       q    Type
REMARK                         _______ _______ _______ _____ _____    ______ ____
ROOT
ATOM      1  C2  UNL     1      21.786  44.483  17.012  0.00  0.00    +0.133 A 
ATOM      2  C3  UNL     1      21.733  43.952  15.718  0.00  0.00    +0.061 A 
ATOM      3  C4  UNL     1      21.895  44.779  14.595  0.00  0.00    +0.011 A 
ATOM      4  C6  UNL     1      22.136  46.145  14.765  0.00  0.00    +0.015 A 
ATOM      5  C7  UNL     1      22.198  46.688  16.046  0.00  0.00    +0.018 A 
ATOM      6  C8  UNL     1      22.033  45.856  17.159  0.00  0.00    +0.079 A 
ENDROOT
BRANCH   6   7
ATOM      7  C9  UNL     1      22.077  46.487  18.492  0.00  0.00    +0.250 C 
ATOM      8  O2  UNL     1      23.182  46.647  19.005  0.00  0.00    -0.270 OA
ATOM      9  N1  UNL     1      20.872  46.797  19.120  0.00  0.00    -0.297 N 
ATOM     10  C10 UNL     1      19.550  46.592  18.525  0.00  0.00    +0.108 C 
ATOM     11  C11 UNL     1      18.527  47.585  19.066  0.00  0.00    +0.019 C 
ATOM     12  C12 UNL     1      18.401  47.523  20.589  0.00  0.00    +0.006 C 
ATOM     13  C13 UNL     1      19.673  47.006  21.280  0.00  0.00    +0.003 C 
ATOM     14  C14 UNL     1      19.771  47.532  22.710  0.00  0.00    +0.009 C 
ATOM     15  C15 UNL     1      20.924  47.358  20.470  0.00  0.00    +0.111 C 
ENDBRANCH   6   7
BRANCH   1  17
ATOM     16  C1  UNL     1      22.601  42.731  18.408  0.00  0.00    +0.277 C 
ATOM     17  O1  UNL     1      21.645  43.752  18.161  0.00  0.00    -0.494 OA
ENDBRANCH   1  17
BRANCH   3  18
ATOM     18  S1  UNL     1      21.829  44.047  12.967  0.00  0.00    -0.128 S 
ATOM     19  C5  UNL     1      23.009  42.688  13.190  0.00  0.00    +0.090 C 
ENDBRANCH   3  18
TORSDOF 3
ENDMDL
MODEL 8
REMARK VINA RESULT:    -1.889     26.205     29.069
REMARK INTER + INTRA:          -2.564
REMARK INTER:                  -2.160
REMARK INTRA:                  -0.404
REMARK UNBOUND:                -0.343
REMARK  Name = /home/vital/Documents/PhD_2021/Malaria_codes/data/pdb_ligands_mmv/ligand_192.pdb
REMARK  6 active torsions:
REMARK  status: ('A' for Active; 'I' for Inactive)
REMARK    1  A    between atoms: C1_1  and  O1_2
REMARK    2  A    between atoms: O1_2  and  C2_3
REMARK    3  A    between atoms: C4_5  and  S1_6
REMARK    4  A    between atoms: S1_6  and  C5_7
REMARK    5  A    between atoms: C8_10  and  C9_11
REMARK    6  A    between atoms: C13_17  and  C14_18
REMARK                            x       y       z     vdW  Elec       q    Type
REMARK                         _______ _______ _______ _____ _____    ______ ____
ROOT
ATOM      1  C2  UNL     1      33.753  46.558  30.215  0.00  0.00    +0.133 A 
ATOM      2  C3  UNL     1      33.998  46.515  31.593  0.00  0.00    +0.061 A 
ATOM      3  C4  UNL     1      35.304  46.369  32.085  0.00  0.00    +0.011 A 
ATOM      4  C6  UNL     1      36.380  46.289  31.196  0.00  0.00    +0.015 A 
ATOM      5  C7  UNL     1      36.153  46.337  29.822  0.00  0.00    +0.018 A 
ATOM      6  C8  UNL     1      34.847  46.481  29.340  0.00  0.00    +0.079 A 
ENDROOT
BRANCH   6   7
ATOM      7  C9  UNL     1      34.660  46.495  27.877  0.00  0.00    +0.250 C 
ATOM      8  O2  UNL     1      34.693  47.587  27.315  0.00  0.00    -0.270 OA
ATOM      9  N1  UNL     1      34.385  45.291  27.231  0.00  0.00    -0.297 N 
ATOM     10  C10 UNL     1      34.324  43.988  27.896  0.00  0.00    +0.108 C 
ATOM     11  C11 UNL     1      34.691  42.853  26.948  0.00  0.00    +0.019 C 
ATOM     12  C12 UNL     1      33.801  42.818  25.704  0.00  0.00    +0.006 C 
ATOM     13  C13 UNL     1      33.205  44.190  25.349  0.00  0.00    +0.003 C 
ATOM     14  C14 UNL     1      32.887  44.279  23.859  0.00  0.00    +0.009 C 
ATOM     15  C15 UNL     1      34.132  45.326  25.791  0.00  0.00    +0.111 C 
ENDBRANCH   6   7
BRANCH   1  17
ATOM     16  C1  UNL     1      31.461  45.904  30.164  0.00  0.00    +0.277 C 
ATOM     17  O1  UNL     1      32.516  46.704  29.648  0.00  0.00    -0.494 OA
ENDBRANCH   1  17
BRANCH   3  18
ATOM     18  S1  UNL     1      35.561  46.329  33.852  0.00  0.00    -0.128 S 
ATOM     19  C5  UNL     1      33.966  46.986  34.412  0.00  0.00    +0.090 C 
ENDBRANCH   3  18
TORSDOF 3
ENDMDL
