MODEL 1
REMARK VINA RESULT:    -3.114      0.000      0.000
REMARK INTER + INTRA:          -3.362
REMARK INTER:                  -3.296
REMARK INTRA:                  -0.066
REMARK UNBOUND:                -0.066
REMARK  Name = /home/vital/Documents/PhD_2021/Malaria_codes/data/pdb_ligands_mmv/ligand_239.pdb
REMARK  3 active torsions:
REMARK  status: ('A' for Active; 'I' for Inactive)
REMARK    1  A    between atoms: C1_1  and  O1_2
REMARK    2  A    between atoms: O1_2  and  C2_3
REMARK    3  A    between atoms: C7_11  and  C8_12
REMARK                            x       y       z     vdW  Elec       q    Type
REMARK                         _______ _______ _______ _____ _____    ______ ____
ROOT
ATOM      1  C2  UNL     1      15.094  29.948  14.726  0.00  0.00    +0.121 A 
ATOM      2  C3  UNL     1      15.598  29.515  13.507  0.00  0.00    +0.048 A 
ATOM      3  C4  UNL     1      15.648  28.144  13.221  0.00  0.00    +0.032 A 
ATOM      4  C5  UNL     1      15.207  27.183  14.122  0.00  0.00    +0.077 A 
ATOM      5  N1  UNL     1      15.286  25.893  13.777  0.00  0.00    -0.215 NA
ATOM      6  C6  UNL     1      14.871  24.993  14.668  0.00  0.00    +0.213 A 
ATOM      7  N2  UNL     1      14.937  23.663  14.308  0.00  0.00    -0.327 N 
ATOM      8  N3  UNL     1      14.349  25.279  15.859  0.00  0.00    -0.219 NA
ATOM      9  C7  UNL     1      14.272  26.585  16.201  0.00  0.00    +0.051 A 
ATOM     10  C8  UNL     1      13.695  26.864  17.558  0.00  0.00    +0.066 C 
ATOM     11  C9  UNL     1      14.697  27.612  15.351  0.00  0.00    +0.025 A 
ATOM     12  C10 UNL     1      14.645  28.998  15.644  0.00  0.00    +0.057 A 
ATOM     13  H6  UNL     1      14.924  23.584  13.301  0.00  0.00    +0.145 HD
ATOM     14  H7  UNL     1      14.247  23.140  14.826  0.00  0.00    +0.145 HD
ENDROOT
BRANCH   1  16
ATOM     15  C1  UNL     1      14.769  32.226  14.134  0.00  0.00    +0.277 C 
ATOM     16  O1  UNL     1      14.983  31.245  15.142  0.00  0.00    -0.495 OA
ENDBRANCH   1  16
TORSDOF 1
ENDMDL
MODEL 2
REMARK VINA RESULT:    -2.840      3.159      3.943
REMARK INTER + INTRA:          -3.071
REMARK INTER:                  -3.006
REMARK INTRA:                  -0.065
REMARK UNBOUND:                -0.066
REMARK  Name = /home/vital/Documents/PhD_2021/Malaria_codes/data/pdb_ligands_mmv/ligand_239.pdb
REMARK  3 active torsions:
REMARK  status: ('A' for Active; 'I' for Inactive)
REMARK    1  A    between atoms: C1_1  and  O1_2
REMARK    2  A    between atoms: O1_2  and  C2_3
REMARK    3  A    between atoms: C7_11  and  C8_12
REMARK                            x       y       z     vdW  Elec       q    Type
REMARK                         _______ _______ _______ _____ _____    ______ ____
ROOT
ATOM      1  C2  UNL     1      18.055  27.172  14.462  0.00  0.00    +0.121 A 
ATOM      2  C3  UNL     1      18.907  26.764  15.481  0.00  0.00    +0.048 A 
ATOM      3  C4  UNL     1      18.471  25.816  16.415  0.00  0.00    +0.032 A 
ATOM      4  C5  UNL     1      17.200  25.256  16.365  0.00  0.00    +0.077 A 
ATOM      5  N1  UNL     1      16.857  24.355  17.292  0.00  0.00    -0.215 NA
ATOM      6  C6  UNL     1      15.627  23.848  17.228  0.00  0.00    +0.213 A 
ATOM      7  N2  UNL     1      15.275  22.907  18.173  0.00  0.00    -0.327 N 
ATOM      8  N3  UNL     1      14.725  24.139  16.291  0.00  0.00    -0.219 NA
ATOM      9  C7  UNL     1      15.079  25.049  15.357  0.00  0.00    +0.051 A 
ATOM     10  C8  UNL     1      14.031  25.364  14.331  0.00  0.00    +0.066 C 
ATOM     11  C9  UNL     1      16.338  25.661  15.340  0.00  0.00    +0.025 A 
ATOM     12  C10 UNL     1      16.776  26.620  14.394  0.00  0.00    +0.057 A 
ATOM     13  H6  UNL     1      16.108  22.460  18.532  0.00  0.00    +0.145 HD
ATOM     14  H7  UNL     1      14.549  22.312  17.803  0.00  0.00    +0.145 HD
ENDROOT
BRANCH   1  16
ATOM     15  C1  UNL     1      19.716  28.299  13.190  0.00  0.00    +0.277 C 
ATOM     16  O1  UNL     1      18.341  28.083  13.484  0.00  0.00    -0.495 OA
ENDBRANCH   1  16
TORSDOF 1
ENDMDL
MODEL 3
REMARK VINA RESULT:    -2.784      3.069      4.918
REMARK INTER + INTRA:          -3.013
REMARK INTER:                  -2.945
REMARK INTRA:                  -0.068
REMARK UNBOUND:                -0.066
REMARK  Name = /home/vital/Documents/PhD_2021/Malaria_codes/data/pdb_ligands_mmv/ligand_239.pdb
REMARK  3 active torsions:
REMARK  status: ('A' for Active; 'I' for Inactive)
REMARK    1  A    between atoms: C1_1  and  O1_2
REMARK    2  A    between atoms: O1_2  and  C2_3
REMARK    3  A    between atoms: C7_11  and  C8_12
REMARK                            x       y       z     vdW  Elec       q    Type
REMARK                         _______ _______ _______ _____ _____    ______ ____
ROOT
ATOM      1  C2  UNL     1      14.906  24.595  16.258  0.00  0.00    +0.121 A 
ATOM      2  C3  UNL     1      14.923  24.560  14.870  0.00  0.00    +0.048 A 
ATOM      3  C4  UNL     1      14.890  25.756  14.142  0.00  0.00    +0.032 A 
ATOM      4  C5  UNL     1      14.838  26.999  14.761  0.00  0.00    +0.077 A 
ATOM      5  N1  UNL     1      14.809  28.097  13.999  0.00  0.00    -0.215 NA
ATOM      6  C6  UNL     1      14.743  29.274  14.621  0.00  0.00    +0.213 A 
ATOM      7  N2  UNL     1      14.729  30.409  13.837  0.00  0.00    -0.327 N 
ATOM      8  N3  UNL     1      14.742  29.444  15.942  0.00  0.00    -0.219 NA
ATOM      9  C7  UNL     1      14.772  28.329  16.706  0.00  0.00    +0.051 A 
ATOM     10  C8  UNL     1      14.752  28.562  18.189  0.00  0.00    +0.066 C 
ATOM     11  C9  UNL     1      14.822  27.042  16.159  0.00  0.00    +0.025 A 
ATOM     12  C10 UNL     1      14.856  25.833  16.899  0.00  0.00    +0.057 A 
ATOM     13  H6  UNL     1      15.154  30.208  12.942  0.00  0.00    +0.145 HD
ATOM     14  H7  UNL     1      15.097  31.187  14.364  0.00  0.00    +0.145 HD
ENDROOT
BRANCH   1  16
ATOM     15  C1  UNL     1      16.000  22.590  16.914  0.00  0.00    +0.277 C 
ATOM     16  O1  UNL     1      14.935  23.516  17.095  0.00  0.00    -0.495 OA
ENDBRANCH   1  16
TORSDOF 1
ENDMDL
MODEL 4
REMARK VINA RESULT:    -2.663      1.389      1.673
REMARK INTER + INTRA:          -2.884
REMARK INTER:                  -2.818
REMARK INTRA:                  -0.066
REMARK UNBOUND:                -0.066
REMARK  Name = /home/vital/Documents/PhD_2021/Malaria_codes/data/pdb_ligands_mmv/ligand_239.pdb
REMARK  3 active torsions:
REMARK  status: ('A' for Active; 'I' for Inactive)
REMARK    1  A    between atoms: C1_1  and  O1_2
REMARK    2  A    between atoms: O1_2  and  C2_3
REMARK    3  A    between atoms: C7_11  and  C8_12
REMARK                            x       y       z     vdW  Elec       q    Type
REMARK                         _______ _______ _______ _____ _____    ______ ____
ROOT
ATOM      1  C2  UNL     1      14.705  28.562  14.376  0.00  0.00    +0.121 A 
ATOM      2  C3  UNL     1      15.338  27.748  13.446  0.00  0.00    +0.048 A 
ATOM      3  C4  UNL     1      15.630  26.417  13.769  0.00  0.00    +0.032 A 
ATOM      4  C5  UNL     1      15.309  25.867  15.005  0.00  0.00    +0.077 A 
ATOM      5  N1  UNL     1      15.619  24.588  15.240  0.00  0.00    -0.215 NA
ATOM      6  C6  UNL     1      15.313  24.093  16.439  0.00  0.00    +0.213 A 
ATOM      7  N2  UNL     1      15.618  22.769  16.678  0.00  0.00    -0.327 N 
ATOM      8  N3  UNL     1      14.688  24.761  17.407  0.00  0.00    -0.219 NA
ATOM      9  C7  UNL     1      14.377  26.053  17.162  0.00  0.00    +0.051 A 
ATOM     10  C8  UNL     1      13.692  26.777  18.284  0.00  0.00    +0.066 C 
ATOM     11  C9  UNL     1      14.670  26.681  15.946  0.00  0.00    +0.025 A 
ATOM     12  C10 UNL     1      14.373  28.028  15.621  0.00  0.00    +0.057 A 
ATOM     13  H6  UNL     1      15.671  22.269  15.801  0.00  0.00    +0.145 HD
ATOM     14  H7  UNL     1      14.998  22.404  17.386  0.00  0.00    +0.145 HD
ENDROOT
BRANCH   1  16
ATOM     15  C1  UNL     1      15.255  30.679  13.447  0.00  0.00    +0.277 C 
ATOM     16  O1  UNL     1      14.359  29.872  14.202  0.00  0.00    -0.495 OA
ENDBRANCH   1  16
TORSDOF 1
ENDMDL
MODEL 5
REMARK VINA RESULT:    -2.607      2.494      3.356
REMARK INTER + INTRA:          -2.825
REMARK INTER:                  -2.727
REMARK INTRA:                  -0.098
REMARK UNBOUND:                -0.066
REMARK  Name = /home/vital/Documents/PhD_2021/Malaria_codes/data/pdb_ligands_mmv/ligand_239.pdb
REMARK  3 active torsions:
REMARK  status: ('A' for Active; 'I' for Inactive)
REMARK    1  A    between atoms: C1_1  and  O1_2
REMARK    2  A    between atoms: O1_2  and  C2_3
REMARK    3  A    between atoms: C7_11  and  C8_12
REMARK                            x       y       z     vdW  Elec       q    Type
REMARK                         _______ _______ _______ _____ _____    ______ ____
ROOT
ATOM      1  C2  UNL     1      15.296  27.479  14.269  0.00  0.00    +0.121 A 
ATOM      2  C3  UNL     1      14.099  26.775  14.226  0.00  0.00    +0.048 A 
ATOM      3  C4  UNL     1      13.923  25.650  15.041  0.00  0.00    +0.032 A 
ATOM      4  C5  UNL     1      14.912  25.200  15.907  0.00  0.00    +0.077 A 
ATOM      5  N1  UNL     1      14.669  24.119  16.656  0.00  0.00    -0.215 NA
ATOM      6  C6  UNL     1      15.642  23.702  17.465  0.00  0.00    +0.213 A 
ATOM      7  N2  UNL     1      15.389  22.595  18.249  0.00  0.00    -0.327 N 
ATOM      8  N3  UNL     1      16.824  24.299  17.615  0.00  0.00    -0.219 NA
ATOM      9  C7  UNL     1      17.062  25.392  16.856  0.00  0.00    +0.051 A 
ATOM     10  C8  UNL     1      18.409  26.025  17.040  0.00  0.00    +0.066 C 
ATOM     11  C9  UNL     1      16.119  25.906  15.958  0.00  0.00    +0.025 A 
ATOM     12  C10 UNL     1      16.300  27.044  15.133  0.00  0.00    +0.057 A 
ATOM     13  H6  UNL     1      14.392  22.496  18.383  0.00  0.00    +0.145 HD
ATOM     14  H7  UNL     1      15.969  22.627  19.074  0.00  0.00    +0.145 HD
ENDROOT
BRANCH   1  16
ATOM     15  C1  UNL     1      16.986  28.802  13.251  0.00  0.00    +0.277 C 
ATOM     16  O1  UNL     1      15.609  28.589  13.537  0.00  0.00    -0.495 OA
ENDBRANCH   1  16
TORSDOF 1
ENDMDL
MODEL 6
REMARK VINA RESULT:    -2.548      1.867      2.797
REMARK INTER + INTRA:          -2.763
REMARK INTER:                  -2.658
REMARK INTRA:                  -0.105
REMARK UNBOUND:                -0.066
REMARK  Name = /home/vital/Documents/PhD_2021/Malaria_codes/data/pdb_ligands_mmv/ligand_239.pdb
REMARK  3 active torsions:
REMARK  status: ('A' for Active; 'I' for Inactive)
REMARK    1  A    between atoms: C1_1  and  O1_2
REMARK    2  A    between atoms: O1_2  and  C2_3
REMARK    3  A    between atoms: C7_11  and  C8_12
REMARK                            x       y       z     vdW  Elec       q    Type
REMARK                         _______ _______ _______ _____ _____    ______ ____
ROOT
ATOM      1  C2  UNL     1      16.158  30.922  14.157  0.00  0.00    +0.121 A 
ATOM      2  C3  UNL     1      14.790  30.696  14.244  0.00  0.00    +0.048 A 
ATOM      3  C4  UNL     1      14.301  29.384  14.272  0.00  0.00    +0.032 A 
ATOM      4  C5  UNL     1      15.141  28.279  14.213  0.00  0.00    +0.077 A 
ATOM      5  N1  UNL     1      14.600  27.056  14.246  0.00  0.00    -0.215 NA
ATOM      6  C6  UNL     1      15.429  26.016  14.172  0.00  0.00    +0.213 A 
ATOM      7  N2  UNL     1      14.874  24.754  14.220  0.00  0.00    -0.327 N 
ATOM      8  N3  UNL     1      16.757  26.097  14.106  0.00  0.00    -0.219 NA
ATOM      9  C7  UNL     1      17.297  27.336  14.075  0.00  0.00    +0.051 A 
ATOM     10  C8  UNL     1      18.794  27.386  13.982  0.00  0.00    +0.066 C 
ATOM     11  C9  UNL     1      16.520  28.499  14.126  0.00  0.00    +0.025 A 
ATOM     12  C10 UNL     1      17.018  29.825  14.098  0.00  0.00    +0.057 A 
ATOM     13  H6  UNL     1      13.978  24.795  14.687  0.00  0.00    +0.145 HD
ATOM     14  H7  UNL     1      15.556  24.100  14.576  0.00  0.00    +0.145 HD
ENDROOT
BRANCH   1  16
ATOM     15  C1  UNL     1      18.198  32.137  14.092  0.00  0.00    +0.277 C 
ATOM     16  O1  UNL     1      16.776  32.140  14.121  0.00  0.00    -0.495 OA
ENDBRANCH   1  16
TORSDOF 1
ENDMDL
MODEL 7
REMARK VINA RESULT:    -2.519      3.442      5.302
REMARK INTER + INTRA:          -2.732
REMARK INTER:                  -2.644
REMARK INTRA:                  -0.088
REMARK UNBOUND:                -0.066
REMARK  Name = /home/vital/Documents/PhD_2021/Malaria_codes/data/pdb_ligands_mmv/ligand_239.pdb
REMARK  3 active torsions:
REMARK  status: ('A' for Active; 'I' for Inactive)
REMARK    1  A    between atoms: C1_1  and  O1_2
REMARK    2  A    between atoms: O1_2  and  C2_3
REMARK    3  A    between atoms: C7_11  and  C8_12
REMARK                            x       y       z     vdW  Elec       q    Type
REMARK                         _______ _______ _______ _____ _____    ______ ____
ROOT
ATOM      1  C2  UNL     1      15.671  24.368  15.934  0.00  0.00    +0.121 A 
ATOM      2  C3  UNL     1      14.680  24.514  14.972  0.00  0.00    +0.048 A 
ATOM      3  C4  UNL     1      14.756  25.564  14.047  0.00  0.00    +0.032 A 
ATOM      4  C5  UNL     1      15.799  26.482  14.052  0.00  0.00    +0.077 A 
ATOM      5  N1  UNL     1      15.803  27.457  13.137  0.00  0.00    -0.215 NA
ATOM      6  C6  UNL     1      16.807  28.332  13.177  0.00  0.00    +0.213 A 
ATOM      7  N2  UNL     1      16.821  29.329  12.224  0.00  0.00    -0.327 N 
ATOM      8  N3  UNL     1      17.827  28.290  14.033  0.00  0.00    -0.219 NA
ATOM      9  C7  UNL     1      17.816  27.302  14.955  0.00  0.00    +0.051 A 
ATOM     10  C8  UNL     1      18.972  27.300  15.913  0.00  0.00    +0.066 C 
ATOM     11  C9  UNL     1      16.801  26.340  15.018  0.00  0.00    +0.025 A 
ATOM     12  C10 UNL     1      16.727  25.280  15.955  0.00  0.00    +0.057 A 
ATOM     13  H6  UNL     1      16.297  29.031  11.413  0.00  0.00    +0.145 HD
ATOM     14  H7  UNL     1      17.770  29.640  12.077  0.00  0.00    +0.145 HD
ENDROOT
BRANCH   1  16
ATOM     15  C1  UNL     1      16.959  22.693  17.020  0.00  0.00    +0.277 C 
ATOM     16  O1  UNL     1      15.730  23.399  16.895  0.00  0.00    -0.495 OA
ENDBRANCH   1  16
TORSDOF 1
ENDMDL
MODEL 8
REMARK VINA RESULT:    -2.309     20.467     20.831
REMARK INTER + INTRA:          -2.510
REMARK INTER:                  -2.406
REMARK INTRA:                  -0.104
REMARK UNBOUND:                -0.066
REMARK  Name = /home/vital/Documents/PhD_2021/Malaria_codes/data/pdb_ligands_mmv/ligand_239.pdb
REMARK  3 active torsions:
REMARK  status: ('A' for Active; 'I' for Inactive)
REMARK    1  A    between atoms: C1_1  and  O1_2
REMARK    2  A    between atoms: O1_2  and  C2_3
REMARK    3  A    between atoms: C7_11  and  C8_12
REMARK                            x       y       z     vdW  Elec       q    Type
REMARK                         _______ _______ _______ _____ _____    ______ ____
ROOT
ATOM      1  C2  UNL     1      24.368  46.075  16.200  0.00  0.00    +0.121 A 
ATOM      2  C3  UNL     1      23.484  46.242  15.141  0.00  0.00    +0.048 A 
ATOM      3  C4  UNL     1      22.149  46.582  15.395  0.00  0.00    +0.032 A 
ATOM      4  C5  UNL     1      21.663  46.762  16.685  0.00  0.00    +0.077 A 
ATOM      5  N1  UNL     1      20.376  47.087  16.848  0.00  0.00    -0.215 NA
ATOM      6  C6  UNL     1      19.934  47.238  18.096  0.00  0.00    +0.213 A 
ATOM      7  N2  UNL     1      18.611  47.588  18.265  0.00  0.00    -0.327 N 
ATOM      8  N3  UNL     1      20.682  47.127  19.192  0.00  0.00    -0.219 NA
ATOM      9  C7  UNL     1      21.982  46.799  19.020  0.00  0.00    +0.051 A 
ATOM     10  C8  UNL     1      22.787  46.665  20.279  0.00  0.00    +0.066 C 
ATOM     11  C9  UNL     1      22.547  46.597  17.755  0.00  0.00    +0.025 A 
ATOM     12  C10 UNL     1      23.899  46.253  17.502  0.00  0.00    +0.057 A 
ATOM     13  H6  UNL     1      18.273  48.052  17.433  0.00  0.00    +0.145 HD
ATOM     14  H7  UNL     1      18.501  48.071  19.145  0.00  0.00    +0.145 HD
ENDROOT
BRANCH   1  16
ATOM     15  C1  UNL     1      26.355  45.405  17.316  0.00  0.00    +0.277 C 
ATOM     16  O1  UNL     1      25.690  45.746  16.106  0.00  0.00    -0.495 OA
ENDBRANCH   1  16
TORSDOF 1
ENDMDL
MODEL 9
REMARK VINA RESULT:    -2.261     19.615     20.837
REMARK INTER + INTRA:          -2.458
REMARK INTER:                  -2.381
REMARK INTRA:                  -0.077
REMARK UNBOUND:                -0.066
REMARK  Name = /home/vital/Documents/PhD_2021/Malaria_codes/data/pdb_ligands_mmv/ligand_239.pdb
REMARK  3 active torsions:
REMARK  status: ('A' for Active; 'I' for Inactive)
REMARK    1  A    between atoms: C1_1  and  O1_2
REMARK    2  A    between atoms: O1_2  and  C2_3
REMARK    3  A    between atoms: C7_11  and  C8_12
REMARK                            x       y       z     vdW  Elec       q    Type
REMARK                         _______ _______ _______ _____ _____    ______ ____
ROOT
ATOM      1  C2  UNL     1      22.444  46.471  15.022  0.00  0.00    +0.121 A 
ATOM      2  C3  UNL     1      23.728  46.221  15.487  0.00  0.00    +0.048 A 
ATOM      3  C4  UNL     1      24.007  46.324  16.856  0.00  0.00    +0.032 A 
ATOM      4  C5  UNL     1      23.034  46.674  17.785  0.00  0.00    +0.077 A 
ATOM      5  N1  UNL     1      23.376  46.751  19.076  0.00  0.00    -0.215 NA
ATOM      6  C6  UNL     1      22.427  47.104  19.941  0.00  0.00    +0.213 A 
ATOM      7  N2  UNL     1      22.773  47.169  21.275  0.00  0.00    -0.327 N 
ATOM      8  N3  UNL     1      21.155  47.349  19.627  0.00  0.00    -0.219 NA
ATOM      9  C7  UNL     1      20.817  47.268  18.321  0.00  0.00    +0.051 A 
ATOM     10  C8  UNL     1      19.381  47.569  18.006  0.00  0.00    +0.066 C 
ATOM     11  C9  UNL     1      21.738  46.926  17.324  0.00  0.00    +0.025 A 
ATOM     12  C10 UNL     1      21.453  46.822  15.939  0.00  0.00    +0.057 A 
ATOM     13  H6  UNL     1      23.573  46.577  21.447  0.00  0.00    +0.145 HD
ATOM     14  H7  UNL     1      21.952  47.021  21.843  0.00  0.00    +0.145 HD
ENDROOT
BRANCH   1  16
ATOM     15  C1  UNL     1      21.294  45.252  13.337  0.00  0.00    +0.277 C 
ATOM     16  O1  UNL     1      22.026  46.409  13.722  0.00  0.00    -0.495 OA
ENDBRANCH   1  16
TORSDOF 1
ENDMDL
