MODEL 1
REMARK VINA RESULT:    -4.114      0.000      0.000
REMARK INTER + INTRA:          -7.784
REMARK INTER:                  -6.158
REMARK INTRA:                  -1.626
REMARK UNBOUND:                -1.626
REMARK  Name = /home/vital/Documents/PhD_2021/Malaria_codes/data/pdb_ligands_mmv/ligand_260.pdb
REMARK  11 active torsions:
REMARK  status: ('A' for Active; 'I' for Inactive)
REMARK    1  A    between atoms: C1_1  and  C2_2
REMARK    2  A    between atoms: C2_2  and  O1_3
REMARK    3  A    between atoms: O1_3  and  C3_4
REMARK    4  A    between atoms: C3_4  and  C4_6
REMARK    5  A    between atoms: C4_6  and  C5_7
REMARK    6  A    between atoms: C5_7  and  C6_8
REMARK    7  A    between atoms: N1_16  and  C14_17
REMARK    8  A    between atoms: C14_17  and  C15_18
REMARK    9  A    between atoms: C19_22  and  O3_23
REMARK   10  A    between atoms: O3_23  and  C20_24
REMARK   11  A    between atoms: C21_25  and  O4_26
REMARK                            x       y       z     vdW  Elec       q    Type
REMARK                         _______ _______ _______ _____ _____    ______ ____
ROOT
ATOM      1  C4  UNL     1      15.082  26.826  15.759  0.00  0.00    +0.074 C 
ATOM      2  C12 UNL     1      16.370  27.648  16.038  0.00  0.00    +0.034 C 
ATOM      3  C13 UNL     1      17.630  26.780  16.230  0.00  0.00    +0.086 C 
ATOM      4  N1  UNL     1      17.327  25.532  16.924  0.00  0.00    -0.298 NA
ATOM      5  C22 UNL     1      16.408  24.679  16.157  0.00  0.00    +0.086 C 
ATOM      6  C23 UNL     1      15.501  25.457  15.188  0.00  0.00    +0.034 C 
ENDROOT
BRANCH   1   7
ATOM      7  C3  UNL     1      14.297  26.629  17.072  0.00  0.00    +0.314 C 
ATOM      8  O2  UNL     1      13.707  25.607  17.400  0.00  0.00    -0.250 OA
BRANCH   7   9
ATOM      9  O1  UNL     1      14.445  27.717  17.887  0.00  0.00    -0.465 OA
BRANCH   9  11
ATOM     10  C1  UNL     1      15.924  27.668  19.762  0.00  0.00    +0.048 C 
ATOM     11  C2  UNL     1      14.499  27.441  19.294  0.00  0.00    +0.229 C 
ENDBRANCH   9  11
ENDBRANCH   7   9
ENDBRANCH   1   7
BRANCH   1  12
ATOM     12  C5  UNL     1      14.087  27.577  14.833  0.00  0.00    +0.053 C 
BRANCH  12  13
ATOM     13  C6  UNL     1      14.617  28.735  14.018  0.00  0.00    -0.046 A 
ATOM     14  C7  UNL     1      15.511  28.510  12.962  0.00  0.00    +0.003 A 
ATOM     15  C8  UNL     1      16.023  29.580  12.220  0.00  0.00    +0.000 A 
ATOM     16  C9  UNL     1      15.642  30.887  12.520  0.00  0.00    +0.000 A 
ATOM     17  C10 UNL     1      14.766  31.127  13.575  0.00  0.00    +0.000 A 
ATOM     18  C11 UNL     1      14.258  30.060  14.323  0.00  0.00    +0.003 A 
ENDBRANCH  12  13
ENDBRANCH   1  12
BRANCH   4  19
ATOM     19  C14 UNL     1      18.528  24.754  17.298  0.00  0.00    +0.123 C 
BRANCH  19  20
ATOM     20  C15 UNL     1      18.933  24.865  18.753  0.00  0.00    +0.012 A 
ATOM     21  C16 UNL     1      20.247  25.219  19.092  0.00  0.00    +0.009 A 
ATOM     22  C17 UNL     1      20.630  25.349  20.429  0.00  0.00    +0.004 A 
ATOM     23  C18 UNL     1      19.708  25.132  21.455  0.00  0.00    +0.049 A 
ATOM     24  C19 UNL     1      18.396  24.775  21.144  0.00  0.00    +0.162 A 
ATOM     25  C21 UNL     1      18.026  24.630  19.797  0.00  0.00    +0.163 A 
BRANCH  24  26
ATOM     26  O3  UNL     1      17.404  24.514  22.060  0.00  0.00    -0.491 OA
ATOM     27  C20 UNL     1      17.803  24.492  23.424  0.00  0.00    +0.277 C 
ENDBRANCH  24  26
BRANCH  25  28
ATOM     28  O4  UNL     1      16.743  24.232  19.514  0.00  0.00    -0.503 OA
ATOM     29  H25 UNL     1      16.782  23.904  18.596  0.00  0.00    +0.292 HD
ENDBRANCH  25  28
ENDBRANCH  19  20
ENDBRANCH   4  19
TORSDOF 9
ENDMDL
MODEL 2
REMARK VINA RESULT:    -4.033      2.310      3.295
REMARK INTER + INTRA:          -7.663
REMARK INTER:                  -5.994
REMARK INTRA:                  -1.669
REMARK UNBOUND:                -1.626
REMARK  Name = /home/vital/Documents/PhD_2021/Malaria_codes/data/pdb_ligands_mmv/ligand_260.pdb
REMARK  11 active torsions:
REMARK  status: ('A' for Active; 'I' for Inactive)
REMARK    1  A    between atoms: C1_1  and  C2_2
REMARK    2  A    between atoms: C2_2  and  O1_3
REMARK    3  A    between atoms: O1_3  and  C3_4
REMARK    4  A    between atoms: C3_4  and  C4_6
REMARK    5  A    between atoms: C4_6  and  C5_7
REMARK    6  A    between atoms: C5_7  and  C6_8
REMARK    7  A    between atoms: N1_16  and  C14_17
REMARK    8  A    between atoms: C14_17  and  C15_18
REMARK    9  A    between atoms: C19_22  and  O3_23
REMARK   10  A    between atoms: O3_23  and  C20_24
REMARK   11  A    between atoms: C21_25  and  O4_26
REMARK                            x       y       z     vdW  Elec       q    Type
REMARK                         _______ _______ _______ _____ _____    ______ ____
ROOT
ATOM      1  C4  UNL     1      15.060  28.102  16.682  0.00  0.00    +0.074 C 
ATOM      2  C12 UNL     1      15.090  29.249  17.730  0.00  0.00    +0.034 C 
ATOM      3  C13 UNL     1      16.458  29.424  18.419  0.00  0.00    +0.086 C 
ATOM      4  N1  UNL     1      17.123  28.142  18.635  0.00  0.00    -0.298 NA
ATOM      5  C22 UNL     1      17.433  27.457  17.372  0.00  0.00    +0.086 C 
ATOM      6  C23 UNL     1      16.504  27.847  16.210  0.00  0.00    +0.034 C 
ENDROOT
BRANCH   1   7
ATOM      7  C3  UNL     1      14.484  26.825  17.327  0.00  0.00    +0.314 C 
ATOM      8  O2  UNL     1      14.392  26.618  18.531  0.00  0.00    -0.250 OA
BRANCH   7   9
ATOM      9  O1  UNL     1      13.975  25.992  16.370  0.00  0.00    -0.465 OA
BRANCH   9  11
ATOM     10  C1  UNL     1      15.024  24.530  14.801  0.00  0.00    +0.048 C 
ATOM     11  C2  UNL     1      14.615  24.713  16.250  0.00  0.00    +0.229 C 
ENDBRANCH   9  11
ENDBRANCH   7   9
ENDBRANCH   1   7
BRANCH   1  12
ATOM     12  C5  UNL     1      14.093  28.400  15.504  0.00  0.00    +0.053 C 
BRANCH  12  13
ATOM     13  C6  UNL     1      14.608  29.248  14.364  0.00  0.00    -0.046 A 
ATOM     14  C7  UNL     1      14.358  30.627  14.336  0.00  0.00    +0.003 A 
ATOM     15  C8  UNL     1      14.813  31.413  13.271  0.00  0.00    +0.000 A 
ATOM     16  C9  UNL     1      15.527  30.831  12.225  0.00  0.00    +0.000 A 
ATOM     17  C10 UNL     1      15.770  29.460  12.232  0.00  0.00    +0.000 A 
ATOM     18  C11 UNL     1      15.312  28.671  13.292  0.00  0.00    +0.003 A 
ENDBRANCH  12  13
ENDBRANCH   1  12
BRANCH   4  19
ATOM     19  C14 UNL     1      18.347  28.239  19.459  0.00  0.00    +0.123 C 
BRANCH  19  20
ATOM     20  C15 UNL     1      18.108  28.326  20.951  0.00  0.00    +0.012 A 
ATOM     21  C16 UNL     1      18.859  29.217  21.733  0.00  0.00    +0.009 A 
ATOM     22  C17 UNL     1      18.634  29.327  23.107  0.00  0.00    +0.004 A 
ATOM     23  C18 UNL     1      17.651  28.552  23.728  0.00  0.00    +0.049 A 
ATOM     24  C19 UNL     1      16.893  27.657  22.973  0.00  0.00    +0.162 A 
ATOM     25  C21 UNL     1      17.141  27.542  21.596  0.00  0.00    +0.163 A 
BRANCH  24  26
ATOM     26  O3  UNL     1      15.916  26.827  23.470  0.00  0.00    -0.491 OA
ATOM     27  C20 UNL     1      15.031  27.402  24.422  0.00  0.00    +0.277 C 
ENDBRANCH  24  26
BRANCH  25  28
ATOM     28  O4  UNL     1      16.416  26.621  20.880  0.00  0.00    -0.503 OA
ATOM     29  H25 UNL     1      15.584  27.078  20.659  0.00  0.00    +0.292 HD
ENDBRANCH  25  28
ENDBRANCH  19  20
ENDBRANCH   4  19
TORSDOF 9
ENDMDL
MODEL 3
REMARK VINA RESULT:    -3.903      1.635      2.377
REMARK INTER + INTRA:          -7.469
REMARK INTER:                  -6.090
REMARK INTRA:                  -1.379
REMARK UNBOUND:                -1.626
REMARK  Name = /home/vital/Documents/PhD_2021/Malaria_codes/data/pdb_ligands_mmv/ligand_260.pdb
REMARK  11 active torsions:
REMARK  status: ('A' for Active; 'I' for Inactive)
REMARK    1  A    between atoms: C1_1  and  C2_2
REMARK    2  A    between atoms: C2_2  and  O1_3
REMARK    3  A    between atoms: O1_3  and  C3_4
REMARK    4  A    between atoms: C3_4  and  C4_6
REMARK    5  A    between atoms: C4_6  and  C5_7
REMARK    6  A    between atoms: C5_7  and  C6_8
REMARK    7  A    between atoms: N1_16  and  C14_17
REMARK    8  A    between atoms: C14_17  and  C15_18
REMARK    9  A    between atoms: C19_22  and  O3_23
REMARK   10  A    between atoms: O3_23  and  C20_24
REMARK   11  A    between atoms: C21_25  and  O4_26
REMARK                            x       y       z     vdW  Elec       q    Type
REMARK                         _______ _______ _______ _____ _____    ______ ____
ROOT
ATOM      1  C4  UNL     1      14.589  27.349  15.838  0.00  0.00    +0.074 C 
ATOM      2  C12 UNL     1      15.376  26.407  14.885  0.00  0.00    +0.034 C 
ATOM      3  C13 UNL     1      15.518  24.966  15.415  0.00  0.00    +0.086 C 
ATOM      4  N1  UNL     1      15.684  24.937  16.866  0.00  0.00    -0.298 NA
ATOM      5  C22 UNL     1      14.511  25.473  17.570  0.00  0.00    +0.086 C 
ATOM      6  C23 UNL     1      13.693  26.477  16.740  0.00  0.00    +0.034 C 
ENDROOT
BRANCH   1   7
ATOM      7  C3  UNL     1      15.578  28.157  16.702  0.00  0.00    +0.314 C 
ATOM      8  O2  UNL     1      15.297  28.746  17.738  0.00  0.00    -0.250 OA
BRANCH   7   9
ATOM      9  O1  UNL     1      16.850  28.033  16.217  0.00  0.00    -0.465 OA
BRANCH   9  11
ATOM     10  C1  UNL     1      18.756  26.886  17.085  0.00  0.00    +0.048 C 
ATOM     11  C2  UNL     1      17.901  28.135  17.189  0.00  0.00    +0.229 C 
ENDBRANCH   9  11
ENDBRANCH   7   9
ENDBRANCH   1   7
BRANCH   1  12
ATOM     12  C5  UNL     1      13.784  28.432  15.070  0.00  0.00    +0.053 C 
BRANCH  12  13
ATOM     13  C6  UNL     1      14.541  29.339  14.126  0.00  0.00    -0.046 A 
ATOM     14  C7  UNL     1      15.312  28.797  13.088  0.00  0.00    +0.003 A 
ATOM     15  C8  UNL     1      16.034  29.630  12.226  0.00  0.00    +0.000 A 
ATOM     16  C9  UNL     1      15.988  31.014  12.388  0.00  0.00    +0.000 A 
ATOM     17  C10 UNL     1      15.239  31.565  13.423  0.00  0.00    +0.000 A 
ATOM     18  C11 UNL     1      14.521  30.734  14.290  0.00  0.00    +0.003 A 
ENDBRANCH  12  13
ENDBRANCH   1  12
BRANCH   4  19
ATOM     19  C14 UNL     1      16.013  23.598  17.399  0.00  0.00    +0.123 C 
BRANCH  19  20
ATOM     20  C15 UNL     1      17.422  23.449  17.930  0.00  0.00    +0.012 A 
ATOM     21  C16 UNL     1      18.387  22.760  17.180  0.00  0.00    +0.009 A 
ATOM     22  C17 UNL     1      19.698  22.635  17.644  0.00  0.00    +0.004 A 
ATOM     23  C18 UNL     1      20.075  23.199  18.865  0.00  0.00    +0.049 A 
ATOM     24  C19 UNL     1      19.133  23.887  19.631  0.00  0.00    +0.162 A 
ATOM     25  C21 UNL     1      17.813  23.991  19.163  0.00  0.00    +0.163 A 
BRANCH  24  26
ATOM     26  O3  UNL     1      19.373  24.466  20.855  0.00  0.00    -0.491 OA
ATOM     27  C20 UNL     1      19.706  23.576  21.913  0.00  0.00    +0.277 C 
ENDBRANCH  24  26
BRANCH  25  28
ATOM     28  O4  UNL     1      16.892  24.630  19.954  0.00  0.00    -0.503 OA
ATOM     29  H25 UNL     1      16.957  25.570  19.700  0.00  0.00    +0.292 HD
ENDBRANCH  25  28
ENDBRANCH  19  20
ENDBRANCH   4  19
TORSDOF 9
ENDMDL
MODEL 4
REMARK VINA RESULT:    -3.879      1.890      3.177
REMARK INTER + INTRA:          -7.433
REMARK INTER:                  -5.798
REMARK INTRA:                  -1.635
REMARK UNBOUND:                -1.626
REMARK  Name = /home/vital/Documents/PhD_2021/Malaria_codes/data/pdb_ligands_mmv/ligand_260.pdb
REMARK  11 active torsions:
REMARK  status: ('A' for Active; 'I' for Inactive)
REMARK    1  A    between atoms: C1_1  and  C2_2
REMARK    2  A    between atoms: C2_2  and  O1_3
REMARK    3  A    between atoms: O1_3  and  C3_4
REMARK    4  A    between atoms: C3_4  and  C4_6
REMARK    5  A    between atoms: C4_6  and  C5_7
REMARK    6  A    between atoms: C5_7  and  C6_8
REMARK    7  A    between atoms: N1_16  and  C14_17
REMARK    8  A    between atoms: C14_17  and  C15_18
REMARK    9  A    between atoms: C19_22  and  O3_23
REMARK   10  A    between atoms: O3_23  and  C20_24
REMARK   11  A    between atoms: C21_25  and  O4_26
REMARK                            x       y       z     vdW  Elec       q    Type
REMARK                         _______ _______ _______ _____ _____    ______ ____
ROOT
ATOM      1  C4  UNL     1      15.101  27.040  15.979  0.00  0.00    +0.074 C 
ATOM      2  C12 UNL     1      14.371  26.707  17.310  0.00  0.00    +0.034 C 
ATOM      3  C13 UNL     1      15.247  26.900  18.563  0.00  0.00    +0.086 C 
ATOM      4  N1  UNL     1      16.638  26.530  18.314  0.00  0.00    -0.298 NA
ATOM      5  C22 UNL     1      17.265  27.381  17.293  0.00  0.00    +0.086 C 
ATOM      6  C23 UNL     1      16.266  27.997  16.299  0.00  0.00    +0.034 C 
ENDROOT
BRANCH   1   7
ATOM      7  C3  UNL     1      15.645  25.742  15.347  0.00  0.00    +0.314 C 
ATOM      8  O2  UNL     1      16.598  25.672  14.581  0.00  0.00    -0.250 OA
BRANCH   7   9
ATOM      9  O1  UNL     1      14.991  24.652  15.850  0.00  0.00    -0.465 OA
BRANCH   9  11
ATOM     10  C1  UNL     1      16.267  23.186  17.237  0.00  0.00    +0.048 C 
ATOM     11  C2  UNL     1      15.727  23.421  15.839  0.00  0.00    +0.229 C 
ENDBRANCH   9  11
ENDBRANCH   7   9
ENDBRANCH   1   7
BRANCH   1  12
ATOM     12  C5  UNL     1      14.140  27.612  14.902  0.00  0.00    +0.053 C 
BRANCH  12  13
ATOM     13  C6  UNL     1      14.611  28.801  14.095  0.00  0.00    -0.046 A 
ATOM     14  C7  UNL     1      14.175  30.094  14.416  0.00  0.00    +0.003 A 
ATOM     15  C8  UNL     1      14.589  31.195  13.659  0.00  0.00    +0.000 A 
ATOM     16  C9  UNL     1      15.447  31.017  12.575  0.00  0.00    +0.000 A 
ATOM     17  C10 UNL     1      15.876  29.738  12.234  0.00  0.00    +0.000 A 
ATOM     18  C11 UNL     1      15.460  28.635  12.987  0.00  0.00    +0.003 A 
ENDBRANCH  12  13
ENDBRANCH   1  12
BRANCH   4  19
ATOM     19  C14 UNL     1      17.476  26.517  19.532  0.00  0.00    +0.123 C 
BRANCH  19  20
ATOM     20  C15 UNL     1      18.212  25.219  19.788  0.00  0.00    +0.012 A 
ATOM     21  C16 UNL     1      17.580  24.177  20.483  0.00  0.00    +0.009 A 
ATOM     22  C17 UNL     1      18.236  22.965  20.707  0.00  0.00    +0.004 A 
ATOM     23  C18 UNL     1      19.536  22.766  20.236  0.00  0.00    +0.049 A 
ATOM     24  C19 UNL     1      20.187  23.787  19.544  0.00  0.00    +0.162 A 
ATOM     25  C21 UNL     1      19.525  25.008  19.342  0.00  0.00    +0.163 A 
BRANCH  24  26
ATOM     26  O3  UNL     1      21.470  23.722  19.053  0.00  0.00    -0.491 OA
ATOM     27  C20 UNL     1      22.332  22.779  19.677  0.00  0.00    +0.277 C 
ENDBRANCH  24  26
BRANCH  25  28
ATOM     28  O4  UNL     1      20.201  26.016  18.700  0.00  0.00    -0.503 OA
ATOM     29  H25 UNL     1      19.526  26.700  18.533  0.00  0.00    +0.292 HD
ENDBRANCH  25  28
ENDBRANCH  19  20
ENDBRANCH   4  19
TORSDOF 9
ENDMDL
MODEL 5
REMARK VINA RESULT:    -3.834      1.633      2.673
REMARK INTER + INTRA:          -7.365
REMARK INTER:                  -5.618
REMARK INTRA:                  -1.747
REMARK UNBOUND:                -1.626
REMARK  Name = /home/vital/Documents/PhD_2021/Malaria_codes/data/pdb_ligands_mmv/ligand_260.pdb
REMARK  11 active torsions:
REMARK  status: ('A' for Active; 'I' for Inactive)
REMARK    1  A    between atoms: C1_1  and  C2_2
REMARK    2  A    between atoms: C2_2  and  O1_3
REMARK    3  A    between atoms: O1_3  and  C3_4
REMARK    4  A    between atoms: C3_4  and  C4_6
REMARK    5  A    between atoms: C4_6  and  C5_7
REMARK    6  A    between atoms: C5_7  and  C6_8
REMARK    7  A    between atoms: N1_16  and  C14_17
REMARK    8  A    between atoms: C14_17  and  C15_18
REMARK    9  A    between atoms: C19_22  and  O3_23
REMARK   10  A    between atoms: O3_23  and  C20_24
REMARK   11  A    between atoms: C21_25  and  O4_26
REMARK                            x       y       z     vdW  Elec       q    Type
REMARK                         _______ _______ _______ _____ _____    ______ ____
ROOT
ATOM      1  C4  UNL     1      15.279  27.966  16.616  0.00  0.00    +0.074 C 
ATOM      2  C12 UNL     1      14.734  28.634  17.909  0.00  0.00    +0.034 C 
ATOM      3  C13 UNL     1      15.838  29.177  18.838  0.00  0.00    +0.086 C 
ATOM      4  N1  UNL     1      17.021  28.321  18.832  0.00  0.00    -0.298 NA
ATOM      5  C22 UNL     1      17.655  28.258  17.508  0.00  0.00    +0.086 C 
ATOM      6  C23 UNL     1      16.687  28.529  16.343  0.00  0.00    +0.034 C 
ENDROOT
BRANCH   1   7
ATOM      7  C3  UNL     1      15.352  26.438  16.813  0.00  0.00    +0.314 C 
ATOM      8  O2  UNL     1      14.926  25.827  17.785  0.00  0.00    -0.250 OA
BRANCH   7   9
ATOM      9  O1  UNL     1      15.855  25.833  15.694  0.00  0.00    -0.465 OA
BRANCH   9  11
ATOM     10  C1  UNL     1      14.336  24.598  14.328  0.00  0.00    +0.048 C 
ATOM     11  C2  UNL     1      15.374  24.508  15.431  0.00  0.00    +0.229 C 
ENDBRANCH   9  11
ENDBRANCH   7   9
ENDBRANCH   1   7
BRANCH   1  12
ATOM     12  C5  UNL     1      14.322  28.146  15.407  0.00  0.00    +0.053 C 
BRANCH  12  13
ATOM     13  C6  UNL     1      14.734  29.108  14.316  0.00  0.00    -0.046 A 
ATOM     14  C7  UNL     1      15.494  28.661  13.226  0.00  0.00    +0.003 A 
ATOM     15  C8  UNL     1      15.899  29.551  12.225  0.00  0.00    +0.000 A 
ATOM     16  C9  UNL     1      15.543  30.897  12.299  0.00  0.00    +0.000 A 
ATOM     17  C10 UNL     1      14.801  31.358  13.382  0.00  0.00    +0.000 A 
ATOM     18  C11 UNL     1      14.400  30.471  14.387  0.00  0.00    +0.003 A 
ENDBRANCH  12  13
ENDBRANCH   1  12
BRANCH   4  19
ATOM     19  C14 UNL     1      18.030  28.695  19.846  0.00  0.00    +0.123 C 
BRANCH  19  20
ATOM     20  C15 UNL     1      18.729  27.529  20.513  0.00  0.00    +0.012 A 
ATOM     21  C16 UNL     1      20.073  27.643  20.901  0.00  0.00    +0.009 A 
ATOM     22  C17 UNL     1      20.725  26.586  21.539  0.00  0.00    +0.004 A 
ATOM     23  C18 UNL     1      20.048  25.394  21.806  0.00  0.00    +0.049 A 
ATOM     24  C19 UNL     1      18.713  25.254  21.428  0.00  0.00    +0.162 A 
ATOM     25  C21 UNL     1      18.072  26.317  20.771  0.00  0.00    +0.163 A 
BRANCH  24  26
ATOM     26  O3  UNL     1      17.947  24.127  21.614  0.00  0.00    -0.491 OA
ATOM     27  C20 UNL     1      17.764  23.711  22.961  0.00  0.00    +0.277 C 
ENDBRANCH  24  26
BRANCH  25  28
ATOM     28  O4  UNL     1      16.773  26.142  20.364  0.00  0.00    -0.503 OA
ATOM     29  H25 UNL     1      16.270  26.014  21.190  0.00  0.00    +0.292 HD
ENDBRANCH  25  28
ENDBRANCH  19  20
ENDBRANCH   4  19
TORSDOF 9
ENDMDL
MODEL 6
REMARK VINA RESULT:    -3.695      1.937      2.747
REMARK INTER + INTRA:          -7.157
REMARK INTER:                  -5.349
REMARK INTRA:                  -1.808
REMARK UNBOUND:                -1.626
REMARK  Name = /home/vital/Documents/PhD_2021/Malaria_codes/data/pdb_ligands_mmv/ligand_260.pdb
REMARK  11 active torsions:
REMARK  status: ('A' for Active; 'I' for Inactive)
REMARK    1  A    between atoms: C1_1  and  C2_2
REMARK    2  A    between atoms: C2_2  and  O1_3
REMARK    3  A    between atoms: O1_3  and  C3_4
REMARK    4  A    between atoms: C3_4  and  C4_6
REMARK    5  A    between atoms: C4_6  and  C5_7
REMARK    6  A    between atoms: C5_7  and  C6_8
REMARK    7  A    between atoms: N1_16  and  C14_17
REMARK    8  A    between atoms: C14_17  and  C15_18
REMARK    9  A    between atoms: C19_22  and  O3_23
REMARK   10  A    between atoms: O3_23  and  C20_24
REMARK   11  A    between atoms: C21_25  and  O4_26
REMARK                            x       y       z     vdW  Elec       q    Type
REMARK                         _______ _______ _______ _____ _____    ______ ____
ROOT
ATOM      1  C4  UNL     1      15.555  27.505  14.129  0.00  0.00    +0.074 C 
ATOM      2  C12 UNL     1      16.917  26.985  14.665  0.00  0.00    +0.034 C 
ATOM      3  C13 UNL     1      16.854  25.551  15.229  0.00  0.00    +0.086 C 
ATOM      4  N1  UNL     1      15.589  25.293  15.911  0.00  0.00    -0.298 NA
ATOM      5  C22 UNL     1      14.439  25.379  15.000  0.00  0.00    +0.086 C 
ATOM      6  C23 UNL     1      14.680  26.285  13.780  0.00  0.00    +0.034 C 
ENDROOT
BRANCH   1   7
ATOM      7  C3  UNL     1      14.862  28.357  15.212  0.00  0.00    +0.314 C 
ATOM      8  O2  UNL     1      13.690  28.713  15.193  0.00  0.00    -0.250 OA
BRANCH   7   9
ATOM      9  O1  UNL     1      15.705  28.569  16.268  0.00  0.00    -0.465 OA
BRANCH   9  11
ATOM     10  C1  UNL     1      17.089  30.363  17.020  0.00  0.00    +0.048 C 
ATOM     11  C2  UNL     1      15.662  29.880  16.849  0.00  0.00    +0.229 C 
ENDBRANCH   9  11
ENDBRANCH   7   9
ENDBRANCH   1   7
BRANCH   1  12
ATOM     12  C5  UNL     1      15.721  28.479  12.931  0.00  0.00    +0.053 C 
BRANCH  12  13
ATOM     13  C6  UNL     1      16.334  29.834  13.202  0.00  0.00    -0.046 A 
ATOM     14  C7  UNL     1      15.529  30.981  13.242  0.00  0.00    +0.003 A 
ATOM     15  C8  UNL     1      16.093  32.242  13.469  0.00  0.00    +0.000 A 
ATOM     16  C9  UNL     1      17.468  32.369  13.665  0.00  0.00    +0.000 A 
ATOM     17  C10 UNL     1      18.281  31.241  13.613  0.00  0.00    +0.000 A 
ATOM     18  C11 UNL     1      17.720  29.981  13.381  0.00  0.00    +0.003 A 
ENDBRANCH  12  13
ENDBRANCH   1  12
BRANCH   4  19
ATOM     19  C14 UNL     1      15.555  24.002  16.631  0.00  0.00    +0.123 C 
BRANCH  19  20
ATOM     20  C15 UNL     1      16.551  23.874  17.763  0.00  0.00    +0.012 A 
ATOM     21  C16 UNL     1      17.541  22.881  17.721  0.00  0.00    +0.009 A 
ATOM     22  C17 UNL     1      18.483  22.766  18.746  0.00  0.00    +0.004 A 
ATOM     23  C18 UNL     1      18.458  23.644  19.833  0.00  0.00    +0.049 A 
ATOM     24  C19 UNL     1      17.482  24.638  19.900  0.00  0.00    +0.162 A 
ATOM     25  C21 UNL     1      16.529  24.732  18.872  0.00  0.00    +0.163 A 
BRANCH  24  26
ATOM     26  O3  UNL     1      17.338  25.544  20.924  0.00  0.00    -0.491 OA
ATOM     27  C20 UNL     1      18.350  26.537  21.027  0.00  0.00    +0.277 C 
ENDBRANCH  24  26
BRANCH  25  28
ATOM     28  O4  UNL     1      15.548  25.687  18.982  0.00  0.00    -0.503 OA
ATOM     29  H25 UNL     1      15.550  25.937  19.924  0.00  0.00    +0.292 HD
ENDBRANCH  25  28
ENDBRANCH  19  20
ENDBRANCH   4  19
TORSDOF 9
ENDMDL
MODEL 7
REMARK VINA RESULT:    -3.542      2.454      7.611
REMARK INTER + INTRA:          -6.929
REMARK INTER:                  -5.314
REMARK INTRA:                  -1.615
REMARK UNBOUND:                -1.626
REMARK  Name = /home/vital/Documents/PhD_2021/Malaria_codes/data/pdb_ligands_mmv/ligand_260.pdb
REMARK  11 active torsions:
REMARK  status: ('A' for Active; 'I' for Inactive)
REMARK    1  A    between atoms: C1_1  and  C2_2
REMARK    2  A    between atoms: C2_2  and  O1_3
REMARK    3  A    between atoms: O1_3  and  C3_4
REMARK    4  A    between atoms: C3_4  and  C4_6
REMARK    5  A    between atoms: C4_6  and  C5_7
REMARK    6  A    between atoms: C5_7  and  C6_8
REMARK    7  A    between atoms: N1_16  and  C14_17
REMARK    8  A    between atoms: C14_17  and  C15_18
REMARK    9  A    between atoms: C19_22  and  O3_23
REMARK   10  A    between atoms: O3_23  and  C20_24
REMARK   11  A    between atoms: C21_25  and  O4_26
REMARK                            x       y       z     vdW  Elec       q    Type
REMARK                         _______ _______ _______ _____ _____    ______ ____
ROOT
ATOM      1  C4  UNL     1      16.133  25.286  17.479  0.00  0.00    +0.074 C 
ATOM      2  C12 UNL     1      17.159  25.951  16.521  0.00  0.00    +0.034 C 
ATOM      3  C13 UNL     1      17.176  27.491  16.603  0.00  0.00    +0.086 C 
ATOM      4  N1  UNL     1      15.839  28.035  16.827  0.00  0.00    -0.298 NA
ATOM      5  C22 UNL     1      15.273  27.606  18.113  0.00  0.00    +0.086 C 
ATOM      6  C23 UNL     1      15.841  26.272  18.627  0.00  0.00    +0.034 C 
ENDROOT
BRANCH   1   7
ATOM      7  C3  UNL     1      14.832  24.973  16.711  0.00  0.00    +0.314 C 
ATOM      8  O2  UNL     1      13.728  24.818  17.219  0.00  0.00    -0.250 OA
BRANCH   7   9
ATOM      9  O1  UNL     1      15.052  25.007  15.362  0.00  0.00    -0.465 OA
BRANCH   9  11
ATOM     10  C1  UNL     1      14.798  26.510  13.524  0.00  0.00    +0.048 C 
ATOM     11  C2  UNL     1      14.070  25.709  14.587  0.00  0.00    +0.229 C 
ENDBRANCH   9  11
ENDBRANCH   7   9
ENDBRANCH   1   7
BRANCH   1  12
ATOM     12  C5  UNL     1      16.611  23.901  17.993  0.00  0.00    +0.053 C 
BRANCH  12  13
ATOM     13  C6  UNL     1      18.100  23.676  18.134  0.00  0.00    -0.046 A 
ATOM     14  C7  UNL     1      18.775  22.822  17.251  0.00  0.00    +0.003 A 
ATOM     15  C8  UNL     1      20.148  22.591  17.391  0.00  0.00    +0.000 A 
ATOM     16  C9  UNL     1      20.863  23.216  18.412  0.00  0.00    +0.000 A 
ATOM     17  C10 UNL     1      20.203  24.054  19.306  0.00  0.00    +0.000 A 
ATOM     18  C11 UNL     1      18.829  24.282  19.171  0.00  0.00    +0.003 A 
ENDBRANCH  12  13
ENDBRANCH   1  12
BRANCH   4  19
ATOM     19  C14 UNL     1      15.774  29.509  16.724  0.00  0.00    +0.123 C 
BRANCH  19  20
ATOM     20  C15 UNL     1      15.811  30.054  15.312  0.00  0.00    +0.012 A 
ATOM     21  C16 UNL     1      14.692  29.917  14.476  0.00  0.00    +0.009 A 
ATOM     22  C17 UNL     1      14.702  30.436  13.179  0.00  0.00    +0.004 A 
ATOM     23  C18 UNL     1      15.826  31.105  12.692  0.00  0.00    +0.049 A 
ATOM     24  C19 UNL     1      16.952  31.252  13.502  0.00  0.00    +0.162 A 
ATOM     25  C21 UNL     1      16.938  30.711  14.798  0.00  0.00    +0.163 A 
BRANCH  24  26
ATOM     26  O3  UNL     1      18.124  31.869  13.132  0.00  0.00    -0.491 OA
ATOM     27  C20 UNL     1      18.062  33.279  12.962  0.00  0.00    +0.277 C 
ENDBRANCH  24  26
BRANCH  25  28
ATOM     28  O4  UNL     1      18.073  30.824  15.562  0.00  0.00    -0.503 OA
ATOM     29  H25 UNL     1      17.942  31.640  16.080  0.00  0.00    +0.292 HD
ENDBRANCH  25  28
ENDBRANCH  19  20
ENDBRANCH   4  19
TORSDOF 9
ENDMDL
