MODEL 1
REMARK VINA RESULT:    -3.322      0.000      0.000
REMARK INTER + INTRA:          -4.358
REMARK INTER:                  -3.808
REMARK INTRA:                  -0.550
REMARK UNBOUND:                -0.550
REMARK  Name = /home/vital/Documents/PhD_2021/Malaria_codes/data/pdb_ligands_mmv/ligand_88.pdb
REMARK  3 active torsions:
REMARK  status: ('A' for Active; 'I' for Inactive)
REMARK    1  A    between atoms: O1_1  and  C1_2
REMARK    2  A    between atoms: C6_8  and  C7_9
REMARK    3  A    between atoms: C7_9  and  N1_10
REMARK                            x       y       z     vdW  Elec       q    Type
REMARK                         _______ _______ _______ _____ _____    ______ ____
ROOT
ATOM      1  N1  UNL     1      34.891  39.960  15.757  0.00  0.00    -0.311 N 
ATOM      2  C8  UNL     1      34.388  41.207  15.810  0.00  0.00    +0.194 A 
ATOM      3  N2  UNL     1      34.170  42.040  14.819  0.00  0.00    -0.215 NA
ATOM      4  C9  UNL     1      33.655  43.175  15.401  0.00  0.00    +0.091 A 
ATOM      5  C10 UNL     1      33.252  44.382  14.813  0.00  0.00    +0.030 A 
ATOM      6  C11 UNL     1      32.756  45.398  15.641  0.00  0.00    +0.002 A 
ATOM      7  C12 UNL     1      32.663  45.216  17.023  0.00  0.00    +0.002 A 
ATOM      8  C13 UNL     1      33.060  44.017  17.628  0.00  0.00    +0.028 A 
ATOM      9  C14 UNL     1      33.550  43.022  16.780  0.00  0.00    +0.067 A 
ATOM     10  N3  UNL     1      34.021  41.755  17.009  0.00  0.00    -0.326 N 
ATOM     11  H7  UNL     1      34.712  39.299  16.504  0.00  0.00    +0.149 HD
ATOM     12  H12 UNL     1      34.111  41.308  17.907  0.00  0.00    +0.169 HD
ENDROOT
BRANCH   1  13
ATOM     13  C7  UNL     1      35.127  39.346  14.460  0.00  0.00    +0.143 C 
BRANCH  13  20
ATOM     14  C1  UNL     1      37.554  38.934  15.130  0.00  0.00    +0.122 A 
ATOM     15  C2  UNL     1      38.689  38.124  15.166  0.00  0.00    +0.047 A 
ATOM     16  C3  UNL     1      38.688  36.889  14.519  0.00  0.00    +0.023 A 
ATOM     17  C4  UNL     1      37.544  36.472  13.844  0.00  0.00    +0.042 A 
ATOM     18 CL1  UNL     1      37.536  34.950  13.039  0.00  0.00    -0.084 Cl
ATOM     19  C5  UNL     1      36.401  37.273  13.821  0.00  0.00    +0.028 A 
ATOM     20  C6  UNL     1      36.386  38.517  14.478  0.00  0.00    +0.012 A 
BRANCH  14  21
ATOM     21  O1  UNL     1      37.654  40.137  15.767  0.00  0.00    -0.506 OA
ATOM     22  H1  UNL     1      37.284  40.049  16.676  0.00  0.00    +0.292 HD
ENDBRANCH  14  21
ENDBRANCH  13  20
ENDBRANCH   1  13
TORSDOF 3
ENDMDL
MODEL 2
REMARK VINA RESULT:    -3.011     20.703     21.800
REMARK INTER + INTRA:          -4.001
REMARK INTER:                  -3.385
REMARK INTRA:                  -0.616
REMARK UNBOUND:                -0.550
REMARK  Name = /home/vital/Documents/PhD_2021/Malaria_codes/data/pdb_ligands_mmv/ligand_88.pdb
REMARK  3 active torsions:
REMARK  status: ('A' for Active; 'I' for Inactive)
REMARK    1  A    between atoms: O1_1  and  C1_2
REMARK    2  A    between atoms: C6_8  and  C7_9
REMARK    3  A    between atoms: C7_9  and  N1_10
REMARK                            x       y       z     vdW  Elec       q    Type
REMARK                         _______ _______ _______ _____ _____    ______ ____
ROOT
ATOM      1  N1  UNL     1      19.806  26.921  16.316  0.00  0.00    -0.311 N 
ATOM      2  C8  UNL     1      18.602  26.596  15.811  0.00  0.00    +0.194 A 
ATOM      3  N2  UNL     1      17.971  27.140  14.797  0.00  0.00    -0.215 NA
ATOM      4  C9  UNL     1      16.785  26.453  14.691  0.00  0.00    +0.091 A 
ATOM      5  C10 UNL     1      15.727  26.620  13.787  0.00  0.00    +0.030 A 
ATOM      6  C11 UNL     1      14.613  25.777  13.894  0.00  0.00    +0.002 A 
ATOM      7  C12 UNL     1      14.554  24.788  14.881  0.00  0.00    +0.002 A 
ATOM      8  C13 UNL     1      15.601  24.605  15.791  0.00  0.00    +0.028 A 
ATOM      9  C14 UNL     1      16.698  25.459  15.661  0.00  0.00    +0.067 A 
ATOM     10  N3  UNL     1      17.874  25.573  16.357  0.00  0.00    -0.326 N 
ATOM     11  H7  UNL     1      20.334  26.250  16.862  0.00  0.00    +0.149 HD
ATOM     12  H12 UNL     1      18.150  25.021  17.153  0.00  0.00    +0.169 HD
ENDROOT
BRANCH   1  13
ATOM     13  C7  UNL     1      20.623  27.904  15.624  0.00  0.00    +0.143 C 
BRANCH  13  20
ATOM     14  C1  UNL     1      21.110  27.279  13.199  0.00  0.00    +0.122 A 
ATOM     15  C2  UNL     1      21.929  26.703  12.228  0.00  0.00    +0.047 A 
ATOM     16  C3  UNL     1      23.107  26.058  12.601  0.00  0.00    +0.023 A 
ATOM     17  C4  UNL     1      23.458  25.999  13.946  0.00  0.00    +0.042 A 
ATOM     18 CL1  UNL     1      24.909  25.200  14.416  0.00  0.00    -0.084 Cl
ATOM     19  C5  UNL     1      22.648  26.589  14.919  0.00  0.00    +0.028 A 
ATOM     20  C6  UNL     1      21.462  27.252  14.555  0.00  0.00    +0.012 A 
BRANCH  14  21
ATOM     21  O1  UNL     1      19.963  27.866  12.746  0.00  0.00    -0.506 OA
ATOM     22  H1  UNL     1      20.103  28.167  11.819  0.00  0.00    +0.292 HD
ENDBRANCH  14  21
ENDBRANCH  13  20
ENDBRANCH   1  13
TORSDOF 3
ENDMDL
MODEL 3
REMARK VINA RESULT:    -2.962      1.412      2.042
REMARK INTER + INTRA:          -3.945
REMARK INTER:                  -3.316
REMARK INTRA:                  -0.629
REMARK UNBOUND:                -0.550
REMARK  Name = /home/vital/Documents/PhD_2021/Malaria_codes/data/pdb_ligands_mmv/ligand_88.pdb
REMARK  3 active torsions:
REMARK  status: ('A' for Active; 'I' for Inactive)
REMARK    1  A    between atoms: O1_1  and  C1_2
REMARK    2  A    between atoms: C6_8  and  C7_9
REMARK    3  A    between atoms: C7_9  and  N1_10
REMARK                            x       y       z     vdW  Elec       q    Type
REMARK                         _______ _______ _______ _____ _____    ______ ____
ROOT
ATOM      1  N1  UNL     1      33.870  38.784  15.256  0.00  0.00    -0.311 N 
ATOM      2  C8  UNL     1      33.739  40.097  14.991  0.00  0.00    +0.194 A 
ATOM      3  N2  UNL     1      34.332  41.109  15.580  0.00  0.00    -0.215 NA
ATOM      4  C9  UNL     1      33.856  42.232  14.944  0.00  0.00    +0.091 A 
ATOM      5  C10 UNL     1      34.147  43.584  15.172  0.00  0.00    +0.030 A 
ATOM      6  C11 UNL     1      33.519  44.549  14.374  0.00  0.00    +0.002 A 
ATOM      7  C12 UNL     1      32.619  44.176  13.371  0.00  0.00    +0.002 A 
ATOM      8  C13 UNL     1      32.318  42.831  13.128  0.00  0.00    +0.028 A 
ATOM      9  C14 UNL     1      32.959  41.891  13.938  0.00  0.00    +0.067 A 
ATOM     10  N3  UNL     1      32.908  40.522  13.990  0.00  0.00    -0.326 N 
ATOM     11  H7  UNL     1      33.640  38.090  14.554  0.00  0.00    +0.149 HD
ATOM     12  H12 UNL     1      32.338  39.925  13.412  0.00  0.00    +0.169 HD
ENDROOT
BRANCH   1  13
ATOM     13  C7  UNL     1      34.872  38.352  16.217  0.00  0.00    +0.143 C 
BRANCH  13  20
ATOM     14  C1  UNL     1      37.232  39.031  15.522  0.00  0.00    +0.122 A 
ATOM     15  C2  UNL     1      38.458  38.743  14.923  0.00  0.00    +0.047 A 
ATOM     16  C3  UNL     1      38.658  37.513  14.298  0.00  0.00    +0.023 A 
ATOM     17  C4  UNL     1      37.628  36.577  14.282  0.00  0.00    +0.042 A 
ATOM     18 CL1  UNL     1      37.865  35.058  13.508  0.00  0.00    -0.084 Cl
ATOM     19  C5  UNL     1      36.404  36.857  14.895  0.00  0.00    +0.028 A 
ATOM     20  C6  UNL     1      36.193  38.090  15.538  0.00  0.00    +0.012 A 
BRANCH  14  21
ATOM     21  O1  UNL     1      37.115  40.268  16.086  0.00  0.00    -0.506 OA
ATOM     22  H1  UNL     1      36.893  40.165  17.040  0.00  0.00    +0.292 HD
ENDBRANCH  14  21
ENDBRANCH  13  20
ENDBRANCH   1  13
TORSDOF 3
ENDMDL
MODEL 4
REMARK VINA RESULT:    -2.916     23.819     25.049
REMARK INTER + INTRA:          -3.891
REMARK INTER:                  -3.259
REMARK INTRA:                  -0.633
REMARK UNBOUND:                -0.550
REMARK  Name = /home/vital/Documents/PhD_2021/Malaria_codes/data/pdb_ligands_mmv/ligand_88.pdb
REMARK  3 active torsions:
REMARK  status: ('A' for Active; 'I' for Inactive)
REMARK    1  A    between atoms: O1_1  and  C1_2
REMARK    2  A    between atoms: C6_8  and  C7_9
REMARK    3  A    between atoms: C7_9  and  N1_10
REMARK                            x       y       z     vdW  Elec       q    Type
REMARK                         _______ _______ _______ _____ _____    ______ ____
ROOT
ATOM      1  N1  UNL     1      14.374  26.825  17.625  0.00  0.00    -0.311 N 
ATOM      2  C8  UNL     1      15.284  25.894  17.967  0.00  0.00    +0.194 A 
ATOM      3  N2  UNL     1      15.585  24.781  17.340  0.00  0.00    -0.215 NA
ATOM      4  C9  UNL     1      16.568  24.189  18.097  0.00  0.00    +0.091 A 
ATOM      5  C10 UNL     1      17.249  22.979  17.898  0.00  0.00    +0.030 A 
ATOM      6  C11 UNL     1      18.221  22.596  18.831  0.00  0.00    +0.002 A 
ATOM      7  C12 UNL     1      18.510  23.400  19.938  0.00  0.00    +0.002 A 
ATOM      8  C13 UNL     1      17.842  24.611  20.152  0.00  0.00    +0.028 A 
ATOM      9  C14 UNL     1      16.879  24.968  19.206  0.00  0.00    +0.067 A 
ATOM     10  N3  UNL     1      16.045  26.051  19.093  0.00  0.00    -0.326 N 
ATOM     11  H7  UNL     1      14.450  27.773  17.973  0.00  0.00    +0.149 HD
ATOM     12  H12 UNL     1      15.979  26.821  19.739  0.00  0.00    +0.169 HD
ENDROOT
BRANCH   1  13
ATOM     13  C7  UNL     1      13.690  26.711  16.346  0.00  0.00    +0.143 C 
BRANCH  13  20
ATOM     14  C1  UNL     1      15.369  26.895  14.433  0.00  0.00    +0.122 A 
ATOM     15  C2  UNL     1      15.992  27.627  13.423  0.00  0.00    +0.047 A 
ATOM     16  C3  UNL     1      15.697  28.979  13.257  0.00  0.00    +0.023 A 
ATOM     17  C4  UNL     1      14.774  29.587  14.102  0.00  0.00    +0.042 A 
ATOM     18 CL1  UNL     1      14.407  31.258  13.906  0.00  0.00    -0.084 Cl
ATOM     19  C5  UNL     1      14.136  28.852  15.103  0.00  0.00    +0.028 A 
ATOM     20  C6  UNL     1      14.417  27.485  15.276  0.00  0.00    +0.012 A 
BRANCH  14  21
ATOM     21  O1  UNL     1      15.737  25.585  14.540  0.00  0.00    -0.506 OA
ATOM     22  H1  UNL     1      15.788  25.343  15.494  0.00  0.00    +0.292 HD
ENDBRANCH  14  21
ENDBRANCH  13  20
ENDBRANCH   1  13
TORSDOF 3
ENDMDL
MODEL 5
REMARK VINA RESULT:    -2.898     23.635     24.640
REMARK INTER + INTRA:          -3.871
REMARK INTER:                  -3.295
REMARK INTRA:                  -0.577
REMARK UNBOUND:                -0.550
REMARK  Name = /home/vital/Documents/PhD_2021/Malaria_codes/data/pdb_ligands_mmv/ligand_88.pdb
REMARK  3 active torsions:
REMARK  status: ('A' for Active; 'I' for Inactive)
REMARK    1  A    between atoms: O1_1  and  C1_2
REMARK    2  A    between atoms: C6_8  and  C7_9
REMARK    3  A    between atoms: C7_9  and  N1_10
REMARK                            x       y       z     vdW  Elec       q    Type
REMARK                         _______ _______ _______ _____ _____    ______ ____
ROOT
ATOM      1  N1  UNL     1      17.454  23.564  18.970  0.00  0.00    -0.311 N 
ATOM      2  C8  UNL     1      17.061  24.174  17.837  0.00  0.00    +0.194 A 
ATOM      3  N2  UNL     1      17.696  25.087  17.141  0.00  0.00    -0.215 NA
ATOM      4  C9  UNL     1      16.870  25.381  16.081  0.00  0.00    +0.091 A 
ATOM      5  C10 UNL     1      17.046  26.293  15.031  0.00  0.00    +0.030 A 
ATOM      6  C11 UNL     1      16.039  26.404  14.063  0.00  0.00    +0.002 A 
ATOM      7  C12 UNL     1      14.881  25.625  14.141  0.00  0.00    +0.002 A 
ATOM      8  C13 UNL     1      14.688  24.709  15.181  0.00  0.00    +0.028 A 
ATOM      9  C14 UNL     1      15.708  24.618  16.130  0.00  0.00    +0.067 A 
ATOM     10  N3  UNL     1      15.861  23.855  17.259  0.00  0.00    -0.326 N 
ATOM     11  H7  UNL     1      17.065  22.666  19.235  0.00  0.00    +0.149 HD
ATOM     12  H12 UNL     1      15.197  23.192  17.623  0.00  0.00    +0.169 HD
ENDROOT
BRANCH   1  13
ATOM     13  C7  UNL     1      18.796  23.807  19.476  0.00  0.00    +0.143 C 
BRANCH  13  20
ATOM     14  C1  UNL     1      17.845  23.887  21.843  0.00  0.00    +0.122 A 
ATOM     15  C2  UNL     1      17.857  24.383  23.146  0.00  0.00    +0.047 A 
ATOM     16  C3  UNL     1      18.759  25.382  23.505  0.00  0.00    +0.023 A 
ATOM     17  C4  UNL     1      19.648  25.876  22.555  0.00  0.00    +0.042 A 
ATOM     18 CL1  UNL     1      20.763  27.114  22.989  0.00  0.00    -0.084 Cl
ATOM     19  C5  UNL     1      19.649  25.370  21.253  0.00  0.00    +0.028 A 
ATOM     20  C6  UNL     1      18.751  24.354  20.880  0.00  0.00    +0.012 A 
BRANCH  14  21
ATOM     21  O1  UNL     1      16.911  22.929  21.573  0.00  0.00    -0.506 OA
ATOM     22  H1  UNL     1      16.945  22.241  22.277  0.00  0.00    +0.292 HD
ENDBRANCH  14  21
ENDBRANCH  13  20
ENDBRANCH   1  13
TORSDOF 3
ENDMDL
MODEL 6
REMARK VINA RESULT:    -2.895     13.524     15.658
REMARK INTER + INTRA:          -3.867
REMARK INTER:                  -3.215
REMARK INTRA:                  -0.652
REMARK UNBOUND:                -0.550
REMARK  Name = /home/vital/Documents/PhD_2021/Malaria_codes/data/pdb_ligands_mmv/ligand_88.pdb
REMARK  3 active torsions:
REMARK  status: ('A' for Active; 'I' for Inactive)
REMARK    1  A    between atoms: O1_1  and  C1_2
REMARK    2  A    between atoms: C6_8  and  C7_9
REMARK    3  A    between atoms: C7_9  and  N1_10
REMARK                            x       y       z     vdW  Elec       q    Type
REMARK                         _______ _______ _______ _____ _____    ______ ____
ROOT
ATOM      1  N1  UNL     1      20.738  45.918  18.341  0.00  0.00    -0.311 N 
ATOM      2  C8  UNL     1      20.306  44.647  18.249  0.00  0.00    +0.194 A 
ATOM      3  N2  UNL     1      19.785  44.037  17.210  0.00  0.00    -0.215 NA
ATOM      4  C9  UNL     1      19.509  42.759  17.636  0.00  0.00    +0.091 A 
ATOM      5  C10 UNL     1      18.939  41.684  16.940  0.00  0.00    +0.030 A 
ATOM      6  C11 UNL     1      18.762  40.468  17.613  0.00  0.00    +0.002 A 
ATOM      7  C12 UNL     1      19.144  40.325  18.950  0.00  0.00    +0.002 A 
ATOM      8  C13 UNL     1      19.717  41.386  19.660  0.00  0.00    +0.028 A 
ATOM      9  C14 UNL     1      19.882  42.586  18.965  0.00  0.00    +0.067 A 
ATOM     10  N3  UNL     1      20.390  43.807  19.327  0.00  0.00    -0.326 N 
ATOM     11  H7  UNL     1      21.408  46.185  19.053  0.00  0.00    +0.149 HD
ATOM     12  H12 UNL     1      20.742  44.059  20.236  0.00  0.00    +0.169 HD
ENDROOT
BRANCH   1  13
ATOM     13  C7  UNL     1      20.780  46.740  17.142  0.00  0.00    +0.143 C 
BRANCH  13  20
ATOM     14  C1  UNL     1      23.328  46.741  17.290  0.00  0.00    +0.122 A 
ATOM     15  C2  UNL     1      24.585  46.677  16.689  0.00  0.00    +0.047 A 
ATOM     16  C3  UNL     1      24.694  46.622  15.301  0.00  0.00    +0.023 A 
ATOM     17  C4  UNL     1      23.539  46.627  14.523  0.00  0.00    +0.042 A 
ATOM     18 CL1  UNL     1      23.665  46.565  12.807  0.00  0.00    -0.084 Cl
ATOM     19  C5  UNL     1      22.279  46.674  15.123  0.00  0.00    +0.028 A 
ATOM     20  C6  UNL     1      22.155  46.720  16.523  0.00  0.00    +0.012 A 
BRANCH  14  21
ATOM     21  O1  UNL     1      23.317  46.818  18.653  0.00  0.00    -0.506 OA
ATOM     22  H1  UNL     1      22.924  45.991  19.017  0.00  0.00    +0.292 HD
ENDBRANCH  14  21
ENDBRANCH  13  20
ENDBRANCH   1  13
TORSDOF 3
ENDMDL
MODEL 7
REMARK VINA RESULT:    -2.616     23.624     24.250
REMARK INTER + INTRA:          -3.548
REMARK INTER:                  -2.961
REMARK INTRA:                  -0.587
REMARK UNBOUND:                -0.550
REMARK  Name = /home/vital/Documents/PhD_2021/Malaria_codes/data/pdb_ligands_mmv/ligand_88.pdb
REMARK  3 active torsions:
REMARK  status: ('A' for Active; 'I' for Inactive)
REMARK    1  A    between atoms: O1_1  and  C1_2
REMARK    2  A    between atoms: C6_8  and  C7_9
REMARK    3  A    between atoms: C7_9  and  N1_10
REMARK                            x       y       z     vdW  Elec       q    Type
REMARK                         _______ _______ _______ _____ _____    ______ ____
ROOT
ATOM      1  N1  UNL     1      16.579  26.046  18.770  0.00  0.00    -0.311 N 
ATOM      2  C8  UNL     1      16.022  27.209  19.155  0.00  0.00    +0.194 A 
ATOM      3  N2  UNL     1      16.197  28.404  18.642  0.00  0.00    -0.215 NA
ATOM      4  C9  UNL     1      15.411  29.244  19.395  0.00  0.00    +0.091 A 
ATOM      5  C10 UNL     1      15.222  30.630  19.292  0.00  0.00    +0.030 A 
ATOM      6  C11 UNL     1      14.354  31.257  20.196  0.00  0.00    +0.002 A 
ATOM      7  C12 UNL     1      13.690  30.521  21.181  0.00  0.00    +0.002 A 
ATOM      8  C13 UNL     1      13.865  29.138  21.298  0.00  0.00    +0.028 A 
ATOM      9  C14 UNL     1      14.734  28.539  20.384  0.00  0.00    +0.067 A 
ATOM     10  N3  UNL     1      15.142  27.242  20.203  0.00  0.00    -0.326 N 
ATOM     11  H7  UNL     1      16.140  25.162  19.001  0.00  0.00    +0.149 HD
ATOM     12  H12 UNL     1      14.868  26.449  20.759  0.00  0.00    +0.169 HD
ENDROOT
BRANCH   1  13
ATOM     13  C7  UNL     1      17.387  26.013  17.561  0.00  0.00    +0.143 C 
BRANCH  13  20
ATOM     14  C1  UNL     1      15.768  24.543  16.246  0.00  0.00    +0.122 A 
ATOM     15  C2  UNL     1      14.959  24.311  15.134  0.00  0.00    +0.047 A 
ATOM     16  C3  UNL     1      14.927  25.232  14.089  0.00  0.00    +0.023 A 
ATOM     17  C4  UNL     1      15.705  26.383  14.167  0.00  0.00    +0.042 A 
ATOM     18 CL1  UNL     1      15.675  27.524  12.878  0.00  0.00    -0.084 Cl
ATOM     19  C5  UNL     1      16.504  26.626  15.287  0.00  0.00    +0.028 A 
ATOM     20  C6  UNL     1      16.538  25.710  16.353  0.00  0.00    +0.012 A 
BRANCH  14  21
ATOM     21  O1  UNL     1      15.758  23.576  17.209  0.00  0.00    -0.506 OA
ATOM     22  H1  UNL     1      16.626  23.111  17.206  0.00  0.00    +0.292 HD
ENDBRANCH  14  21
ENDBRANCH  13  20
ENDBRANCH   1  13
TORSDOF 3
ENDMDL
MODEL 8
REMARK VINA RESULT:    -2.330     22.427     23.917
REMARK INTER + INTRA:          -3.220
REMARK INTER:                  -2.588
REMARK INTRA:                  -0.633
REMARK UNBOUND:                -0.550
REMARK  Name = /home/vital/Documents/PhD_2021/Malaria_codes/data/pdb_ligands_mmv/ligand_88.pdb
REMARK  3 active torsions:
REMARK  status: ('A' for Active; 'I' for Inactive)
REMARK    1  A    between atoms: O1_1  and  C1_2
REMARK    2  A    between atoms: C6_8  and  C7_9
REMARK    3  A    between atoms: C7_9  and  N1_10
REMARK                            x       y       z     vdW  Elec       q    Type
REMARK                         _______ _______ _______ _____ _____    ______ ____
ROOT
ATOM      1  N1  UNL     1      17.648  24.707  18.297  0.00  0.00    -0.311 N 
ATOM      2  C8  UNL     1      18.952  24.657  17.967  0.00  0.00    +0.194 A 
ATOM      3  N2  UNL     1      19.652  25.530  17.282  0.00  0.00    -0.215 NA
ATOM      4  C9  UNL     1      20.925  25.012  17.220  0.00  0.00    +0.091 A 
ATOM      5  C10 UNL     1      22.075  25.524  16.604  0.00  0.00    +0.030 A 
ATOM      6  C11 UNL     1      23.265  24.790  16.688  0.00  0.00    +0.002 A 
ATOM      7  C12 UNL     1      23.309  23.571  17.371  0.00  0.00    +0.002 A 
ATOM      8  C13 UNL     1      22.171  23.044  17.993  0.00  0.00    +0.028 A 
ATOM      9  C14 UNL     1      21.000  23.797  17.894  0.00  0.00    +0.067 A 
ATOM     10  N3  UNL     1      19.726  23.600  18.363  0.00  0.00    -0.326 N 
ATOM     11  H7  UNL     1      17.294  24.175  19.083  0.00  0.00    +0.149 HD
ATOM     12  H12 UNL     1      19.402  22.803  18.886  0.00  0.00    +0.169 HD
ENDROOT
BRANCH   1  13
ATOM     13  C7  UNL     1      16.888  25.910  17.998  0.00  0.00    +0.143 C 
BRANCH  13  20
ATOM     14  C1  UNL     1      15.380  24.663  16.360  0.00  0.00    +0.122 A 
ATOM     15  C2  UNL     1      14.690  24.590  15.150  0.00  0.00    +0.047 A 
ATOM     16  C3  UNL     1      14.799  25.623  14.220  0.00  0.00    +0.023 A 
ATOM     17  C4  UNL     1      15.596  26.725  14.512  0.00  0.00    +0.042 A 
ATOM     18 CL1  UNL     1      15.740  28.002  13.366  0.00  0.00    -0.084 Cl
ATOM     19  C5  UNL     1      16.276  26.809  15.729  0.00  0.00    +0.028 A 
ATOM     20  C6  UNL     1      16.167  25.778  16.681  0.00  0.00    +0.012 A 
BRANCH  14  21
ATOM     21  O1  UNL     1      15.237  23.596  17.199  0.00  0.00    -0.506 OA
ATOM     22  H1  UNL     1      15.171  22.773  16.661  0.00  0.00    +0.292 HD
ENDBRANCH  14  21
ENDBRANCH  13  20
ENDBRANCH   1  13
TORSDOF 3
ENDMDL
