MODEL 1
REMARK VINA RESULT:    -2.958      0.000      0.000
REMARK INTER + INTRA:          -6.443
REMARK INTER:                  -4.082
REMARK INTRA:                  -2.362
REMARK UNBOUND:                -2.362
REMARK  Name = /home/vital/Documents/PhD_2021/Malaria_codes/data/pdb_ligands_mmv/ligand_190.pdb
REMARK  7 active torsions:
REMARK  status: ('A' for Active; 'I' for Inactive)
REMARK    1  A    between atoms: N1_1  and  C1_2
REMARK    2  A    between atoms: C1_2  and  C2_3
REMARK    3  A    between atoms: C2_3  and  C3_4
REMARK    4  A    between atoms: C2_3  and  O2_12
REMARK    5  A    between atoms: C3_4  and  N2_5
REMARK    6  A    between atoms: N2_5  and  C4_6
REMARK    7  A    between atoms: C4_6  and  C5_7
REMARK                            x       y       z     vdW  Elec       q    Type
REMARK                         _______ _______ _______ _____ _____    ______ ____
ROOT
ATOM      1  N1  UNL     1      16.630  25.291  15.740  0.00  0.00    -0.337 N 
ATOM      2  C9  UNL     1      16.445  26.325  14.841  0.00  0.00    +0.050 A 
ATOM      3  C10 UNL     1      17.583  27.131  14.906  0.00  0.00    +0.009 A 
ATOM      4  C11 UNL     1      17.658  28.277  14.085  0.00  0.00    +0.030 A 
ATOM      5  C12 UNL     1      16.597  28.572  13.226  0.00  0.00    +0.042 A 
ATOM      6 CL1  UNL     1      16.687  29.969  12.222  0.00  0.00    -0.084 Cl
ATOM      7  C13 UNL     1      15.474  27.755  13.166  0.00  0.00    +0.022 A 
ATOM      8  C14 UNL     1      15.379  26.617  13.973  0.00  0.00    +0.028 A 
ATOM      9  C15 UNL     1      17.858  25.402  16.368  0.00  0.00    +0.050 A 
ATOM     10  C16 UNL     1      18.471  26.550  15.864  0.00  0.00    +0.009 A 
ATOM     11  C17 UNL     1      19.750  26.908  16.341  0.00  0.00    +0.030 A 
ATOM     12  C18 UNL     1      20.369  26.106  17.302  0.00  0.00    +0.042 A 
ATOM     13 CL2  UNL     1      21.931  26.539  17.886  0.00  0.00    -0.084 Cl
ATOM     14  C19 UNL     1      19.747  24.964  17.792  0.00  0.00    +0.022 A 
ATOM     15  C20 UNL     1      18.480  24.591  17.334  0.00  0.00    +0.028 A 
ENDROOT
BRANCH   1  16
ATOM     16  C1  UNL     1      15.654  24.241  16.022  0.00  0.00    +0.155 C 
BRANCH  16  17
ATOM     17  C2  UNL     1      14.953  24.451  17.374  0.00  0.00    +0.148 C 
BRANCH  17  18
ATOM     18  O2  UNL     1      14.567  23.187  17.937  0.00  0.00    -0.389 OA
ATOM     19  H16 UNL     1      14.648  23.295  18.902  0.00  0.00    +0.210 HD
ENDBRANCH  17  18
BRANCH  17  20
ATOM     20  C3  UNL     1      13.692  25.326  17.222  0.00  0.00    +0.114 C 
BRANCH  20  21
ATOM     21  N2  UNL     1      13.736  26.476  18.145  0.00  0.00    -0.311 NA
ATOM     22  H6  UNL     1      14.381  26.245  18.903  0.00  0.00    +0.122 HD
BRANCH  21  23
ATOM     23  C4  UNL     1      14.221  27.699  17.479  0.00  0.00    +0.112 C 
BRANCH  23  24
ATOM     24  C5  UNL     1      15.270  28.565  18.205  0.00  0.00    +0.132 C 
ATOM     25  C6  UNL     1      16.407  27.814  18.879  0.00  0.00    +0.035 C 
ATOM     26  C7  UNL     1      17.433  28.911  19.027  0.00  0.00    +0.031 C 
ATOM     27  C8  UNL     1      17.258  29.688  17.738  0.00  0.00    +0.160 C 
ATOM     28  O1  UNL     1      15.892  29.517  17.322  0.00  0.00    -0.375 OA
ENDBRANCH  23  24
ENDBRANCH  21  23
ENDBRANCH  20  21
ENDBRANCH  17  20
ENDBRANCH  16  17
ENDBRANCH   1  16
TORSDOF 7
ENDMDL
MODEL 2
REMARK VINA RESULT:    -2.616      3.209      5.254
REMARK INTER + INTRA:          -5.972
REMARK INTER:                  -3.653
REMARK INTRA:                  -2.319
REMARK UNBOUND:                -2.362
REMARK  Name = /home/vital/Documents/PhD_2021/Malaria_codes/data/pdb_ligands_mmv/ligand_190.pdb
REMARK  7 active torsions:
REMARK  status: ('A' for Active; 'I' for Inactive)
REMARK    1  A    between atoms: N1_1  and  C1_2
REMARK    2  A    between atoms: C1_2  and  C2_3
REMARK    3  A    between atoms: C2_3  and  C3_4
REMARK    4  A    between atoms: C2_3  and  O2_12
REMARK    5  A    between atoms: C3_4  and  N2_5
REMARK    6  A    between atoms: N2_5  and  C4_6
REMARK    7  A    between atoms: C4_6  and  C5_7
REMARK                            x       y       z     vdW  Elec       q    Type
REMARK                         _______ _______ _______ _____ _____    ______ ____
ROOT
ATOM      1  N1  UNL     1      16.177  29.462  13.285  0.00  0.00    -0.337 N 
ATOM      2  C9  UNL     1      17.552  29.377  13.173  0.00  0.00    +0.050 A 
ATOM      3  C10 UNL     1      17.925  28.124  13.666  0.00  0.00    +0.009 A 
ATOM      4  C11 UNL     1      19.292  27.772  13.675  0.00  0.00    +0.030 A 
ATOM      5  C12 UNL     1      20.234  28.680  13.187  0.00  0.00    +0.042 A 
ATOM      6 CL1  UNL     1      21.903  28.251  13.196  0.00  0.00    -0.084 Cl
ATOM      7  C13 UNL     1      19.847  29.920  12.692  0.00  0.00    +0.022 A 
ATOM      8  C14 UNL     1      18.499  30.290  12.676  0.00  0.00    +0.028 A 
ATOM      9  C15 UNL     1      15.656  28.298  13.821  0.00  0.00    +0.050 A 
ATOM     10  C16 UNL     1      16.734  27.447  14.071  0.00  0.00    +0.009 A 
ATOM     11  C17 UNL     1      16.485  26.174  14.628  0.00  0.00    +0.030 A 
ATOM     12  C18 UNL     1      15.171  25.798  14.913  0.00  0.00    +0.042 A 
ATOM     13 CL2  UNL     1      14.863  24.245  15.592  0.00  0.00    -0.084 Cl
ATOM     14  C19 UNL     1      14.108  26.656  14.655  0.00  0.00    +0.022 A 
ATOM     15  C20 UNL     1      14.331  27.921  14.104  0.00  0.00    +0.028 A 
ENDROOT
BRANCH   1  16
ATOM     16  C1  UNL     1      15.378  30.631  12.925  0.00  0.00    +0.155 C 
BRANCH  16  17
ATOM     17  C2  UNL     1      14.907  31.414  14.161  0.00  0.00    +0.148 C 
BRANCH  17  18
ATOM     18  O2  UNL     1      13.693  32.124  13.870  0.00  0.00    -0.389 OA
ATOM     19  H16 UNL     1      13.932  32.783  13.192  0.00  0.00    +0.210 HD
ENDBRANCH  17  18
BRANCH  17  20
ATOM     20  C3  UNL     1      15.972  32.431  14.620  0.00  0.00    +0.114 C 
BRANCH  20  21
ATOM     21  N2  UNL     1      16.252  32.285  16.061  0.00  0.00    -0.311 NA
ATOM     22  H6  UNL     1      15.447  31.829  16.493  0.00  0.00    +0.122 HD
BRANCH  21  23
ATOM     23  C4  UNL     1      17.444  31.452  16.308  0.00  0.00    +0.112 C 
BRANCH  23  24
ATOM     24  C5  UNL     1      17.350  30.328  17.360  0.00  0.00    +0.132 C 
ATOM     25  C6  UNL     1      16.077  29.497  17.340  0.00  0.00    +0.035 C 
ATOM     26  C7  UNL     1      16.520  28.267  18.094  0.00  0.00    +0.031 C 
ATOM     27  C8  UNL     1      17.943  28.088  17.605  0.00  0.00    +0.160 C 
ATOM     28  O1  UNL     1      18.437  29.390  17.251  0.00  0.00    -0.375 OA
ENDBRANCH  23  24
ENDBRANCH  21  23
ENDBRANCH  20  21
ENDBRANCH  17  20
ENDBRANCH  16  17
ENDBRANCH   1  16
TORSDOF 7
ENDMDL
MODEL 3
REMARK VINA RESULT:    -2.438      2.305      4.850
REMARK INTER + INTRA:          -5.726
REMARK INTER:                  -3.372
REMARK INTRA:                  -2.354
REMARK UNBOUND:                -2.362
REMARK  Name = /home/vital/Documents/PhD_2021/Malaria_codes/data/pdb_ligands_mmv/ligand_190.pdb
REMARK  7 active torsions:
REMARK  status: ('A' for Active; 'I' for Inactive)
REMARK    1  A    between atoms: N1_1  and  C1_2
REMARK    2  A    between atoms: C1_2  and  C2_3
REMARK    3  A    between atoms: C2_3  and  C3_4
REMARK    4  A    between atoms: C2_3  and  O2_12
REMARK    5  A    between atoms: C3_4  and  N2_5
REMARK    6  A    between atoms: N2_5  and  C4_6
REMARK    7  A    between atoms: C4_6  and  C5_7
REMARK                            x       y       z     vdW  Elec       q    Type
REMARK                         _______ _______ _______ _____ _____    ______ ____
ROOT
ATOM      1  N1  UNL     1      14.618  26.590  16.503  0.00  0.00    -0.337 N 
ATOM      2  C9  UNL     1      14.683  27.420  17.606  0.00  0.00    +0.050 A 
ATOM      3  C10 UNL     1      15.124  28.666  17.155  0.00  0.00    +0.009 A 
ATOM      4  C11 UNL     1      15.287  29.713  18.087  0.00  0.00    +0.030 A 
ATOM      5  C12 UNL     1      14.998  29.479  19.433  0.00  0.00    +0.042 A 
ATOM      6 CL1  UNL     1      15.195  30.757  20.573  0.00  0.00    -0.084 Cl
ATOM      7  C13 UNL     1      14.551  28.237  19.866  0.00  0.00    +0.022 A 
ATOM      8  C14 UNL     1      14.385  27.185  18.960  0.00  0.00    +0.028 A 
ATOM      9  C15 UNL     1      14.991  27.269  15.356  0.00  0.00    +0.050 A 
ATOM     10  C16 UNL     1      15.316  28.571  15.741  0.00  0.00    +0.009 A 
ATOM     11  C17 UNL     1      15.738  29.491  14.757  0.00  0.00    +0.030 A 
ATOM     12  C18 UNL     1      15.818  29.078  13.426  0.00  0.00    +0.042 A 
ATOM     13 CL2  UNL     1      16.331  30.197  12.222  0.00  0.00    -0.084 Cl
ATOM     14  C19 UNL     1      15.488  27.779  13.057  0.00  0.00    +0.022 A 
ATOM     15  C20 UNL     1      15.068  26.851  14.015  0.00  0.00    +0.028 A 
ENDROOT
BRANCH   1  16
ATOM     16  C1  UNL     1      14.245  25.178  16.536  0.00  0.00    +0.155 C 
BRANCH  16  17
ATOM     17  C2  UNL     1      15.462  24.254  16.373  0.00  0.00    +0.148 C 
BRANCH  17  18
ATOM     18  O2  UNL     1      15.096  23.072  15.642  0.00  0.00    -0.389 OA
ATOM     19  H16 UNL     1      15.391  23.230  14.726  0.00  0.00    +0.210 HD
ENDBRANCH  17  18
BRANCH  17  20
ATOM     20  C3  UNL     1      16.030  23.827  17.742  0.00  0.00    +0.114 C 
BRANCH  20  21
ATOM     21  N2  UNL     1      17.482  24.079  17.810  0.00  0.00    -0.311 NA
ATOM     22  H6  UNL     1      17.850  24.055  16.858  0.00  0.00    +0.122 HD
BRANCH  21  23
ATOM     23  C4  UNL     1      17.784  25.401  18.391  0.00  0.00    +0.112 C 
BRANCH  23  24
ATOM     24  C5  UNL     1      18.752  26.332  17.633  0.00  0.00    +0.132 C 
ATOM     25  C6  UNL     1      18.557  26.417  16.128  0.00  0.00    +0.035 C 
ATOM     26  C7  UNL     1      19.274  27.708  15.813  0.00  0.00    +0.031 C 
ATOM     27  C8  UNL     1      18.916  28.571  17.006  0.00  0.00    +0.160 C 
ATOM     28  O1  UNL     1      18.692  27.687  18.118  0.00  0.00    -0.375 OA
ENDBRANCH  23  24
ENDBRANCH  21  23
ENDBRANCH  20  21
ENDBRANCH  17  20
ENDBRANCH  16  17
ENDBRANCH   1  16
TORSDOF 7
ENDMDL
MODEL 4
REMARK VINA RESULT:    -2.414      3.154      5.199
REMARK INTER + INTRA:          -5.693
REMARK INTER:                  -3.495
REMARK INTRA:                  -2.198
REMARK UNBOUND:                -2.362
REMARK  Name = /home/vital/Documents/PhD_2021/Malaria_codes/data/pdb_ligands_mmv/ligand_190.pdb
REMARK  7 active torsions:
REMARK  status: ('A' for Active; 'I' for Inactive)
REMARK    1  A    between atoms: N1_1  and  C1_2
REMARK    2  A    between atoms: C1_2  and  C2_3
REMARK    3  A    between atoms: C2_3  and  C3_4
REMARK    4  A    between atoms: C2_3  and  O2_12
REMARK    5  A    between atoms: C3_4  and  N2_5
REMARK    6  A    between atoms: N2_5  and  C4_6
REMARK    7  A    between atoms: C4_6  and  C5_7
REMARK                            x       y       z     vdW  Elec       q    Type
REMARK                         _______ _______ _______ _____ _____    ______ ____
ROOT
ATOM      1  N1  UNL     1      15.672  29.276  17.072  0.00  0.00    -0.337 N 
ATOM      2  C9  UNL     1      15.493  30.194  16.054  0.00  0.00    +0.050 A 
ATOM      3  C10 UNL     1      15.171  29.471  14.903  0.00  0.00    +0.009 A 
ATOM      4  C11 UNL     1      14.939  30.169  13.699  0.00  0.00    +0.030 A 
ATOM      5  C12 UNL     1      15.032  31.562  13.689  0.00  0.00    +0.042 A 
ATOM      6 CL1  UNL     1      14.747  32.417  12.220  0.00  0.00    -0.084 Cl
ATOM      7  C13 UNL     1      15.345  32.269  14.844  0.00  0.00    +0.022 A 
ATOM      8  C14 UNL     1      15.581  31.597  16.047  0.00  0.00    +0.028 A 
ATOM      9  C15 UNL     1      15.461  27.987  16.612  0.00  0.00    +0.050 A 
ATOM     10  C16 UNL     1      15.149  28.085  15.255  0.00  0.00    +0.009 A 
ATOM     11  C17 UNL     1      14.886  26.905  14.527  0.00  0.00    +0.030 A 
ATOM     12  C18 UNL     1      14.941  25.673  15.181  0.00  0.00    +0.042 A 
ATOM     13 CL2  UNL     1      14.620  24.230  14.297  0.00  0.00    -0.084 Cl
ATOM     14  C19 UNL     1      15.250  25.592  16.534  0.00  0.00    +0.022 A 
ATOM     15  C20 UNL     1      15.515  26.748  17.275  0.00  0.00    +0.028 A 
ENDROOT
BRANCH   1  16
ATOM     16  C1  UNL     1      16.068  29.606  18.439  0.00  0.00    +0.155 C 
BRANCH  16  17
ATOM     17  C2  UNL     1      17.530  29.232  18.725  0.00  0.00    +0.148 C 
BRANCH  17  18
ATOM     18  O2  UNL     1      17.687  28.852  20.102  0.00  0.00    -0.389 OA
ATOM     19  H16 UNL     1      17.303  29.582  20.620  0.00  0.00    +0.210 HD
ENDBRANCH  17  18
BRANCH  17  20
ATOM     20  C3  UNL     1      18.479  30.412  18.431  0.00  0.00    +0.114 C 
BRANCH  20  21
ATOM     21  N2  UNL     1      19.680  29.953  17.707  0.00  0.00    -0.311 NA
ATOM     22  H6  UNL     1      19.691  28.932  17.733  0.00  0.00    +0.122 HD
BRANCH  21  23
ATOM     23  C4  UNL     1      19.669  30.382  16.296  0.00  0.00    +0.112 C 
BRANCH  23  24
ATOM     24  C5  UNL     1      18.865  29.546  15.280  0.00  0.00    +0.132 C 
ATOM     25  C6  UNL     1      19.333  29.616  13.836  0.00  0.00    +0.035 C 
ATOM     26  C7  UNL     1      18.696  28.373  13.263  0.00  0.00    +0.031 C 
ATOM     27  C8  UNL     1      18.837  27.387  14.405  0.00  0.00    +0.160 C 
ATOM     28  O1  UNL     1      18.846  28.147  15.624  0.00  0.00    -0.375 OA
ENDBRANCH  23  24
ENDBRANCH  21  23
ENDBRANCH  20  21
ENDBRANCH  17  20
ENDBRANCH  16  17
ENDBRANCH   1  16
TORSDOF 7
ENDMDL
MODEL 5
REMARK VINA RESULT:    -2.391      2.926      4.489
REMARK INTER + INTRA:          -5.661
REMARK INTER:                  -3.233
REMARK INTRA:                  -2.428
REMARK UNBOUND:                -2.362
REMARK  Name = /home/vital/Documents/PhD_2021/Malaria_codes/data/pdb_ligands_mmv/ligand_190.pdb
REMARK  7 active torsions:
REMARK  status: ('A' for Active; 'I' for Inactive)
REMARK    1  A    between atoms: N1_1  and  C1_2
REMARK    2  A    between atoms: C1_2  and  C2_3
REMARK    3  A    between atoms: C2_3  and  C3_4
REMARK    4  A    between atoms: C2_3  and  O2_12
REMARK    5  A    between atoms: C3_4  and  N2_5
REMARK    6  A    between atoms: N2_5  and  C4_6
REMARK    7  A    between atoms: C4_6  and  C5_7
REMARK                            x       y       z     vdW  Elec       q    Type
REMARK                         _______ _______ _______ _____ _____    ______ ____
ROOT
ATOM      1  N1  UNL     1      14.731  28.498  15.717  0.00  0.00    -0.337 N 
ATOM      2  C9  UNL     1      15.010  29.754  15.211  0.00  0.00    +0.050 A 
ATOM      3  C10 UNL     1      15.442  30.539  16.283  0.00  0.00    +0.009 A 
ATOM      4  C11 UNL     1      15.792  31.886  16.046  0.00  0.00    +0.030 A 
ATOM      5  C12 UNL     1      15.703  32.397  14.750  0.00  0.00    +0.042 A 
ATOM      6 CL1  UNL     1      16.131  34.041  14.460  0.00  0.00    -0.084 Cl
ATOM      7  C13 UNL     1      15.279  31.602  13.692  0.00  0.00    +0.022 A 
ATOM      8  C14 UNL     1      14.926  30.265  13.905  0.00  0.00    +0.028 A 
ATOM      9  C15 UNL     1      14.985  28.450  17.077  0.00  0.00    +0.050 A 
ATOM     10  C16 UNL     1      15.427  29.719  17.454  0.00  0.00    +0.009 A 
ATOM     11  C17 UNL     1      15.759  29.955  18.805  0.00  0.00    +0.030 A 
ATOM     12  C18 UNL     1      15.638  28.914  19.729  0.00  0.00    +0.042 A 
ATOM     13 CL2  UNL     1      16.043  29.197  21.379  0.00  0.00    -0.084 Cl
ATOM     14  C19 UNL     1      15.199  27.655  19.338  0.00  0.00    +0.022 A 
ATOM     15  C20 UNL     1      14.864  27.400  18.004  0.00  0.00    +0.028 A 
ENDROOT
BRANCH   1  16
ATOM     16  C1  UNL     1      14.205  27.379  14.939  0.00  0.00    +0.155 C 
BRANCH  16  17
ATOM     17  C2  UNL     1      15.314  26.620  14.194  0.00  0.00    +0.148 C 
BRANCH  17  18
ATOM     18  O2  UNL     1      14.881  26.282  12.866  0.00  0.00    -0.389 OA
ATOM     19  H16 UNL     1      14.974  27.101  12.345  0.00  0.00    +0.210 HD
ENDBRANCH  17  18
BRANCH  17  20
ATOM     20  C3  UNL     1      15.697  25.320  14.931  0.00  0.00    +0.114 C 
BRANCH  20  21
ATOM     21  N2  UNL     1      17.024  25.446  15.562  0.00  0.00    -0.311 NA
ATOM     22  H6  UNL     1      17.518  24.561  15.433  0.00  0.00    +0.122 HD
BRANCH  21  23
ATOM     23  C4  UNL     1      17.827  26.520  14.948  0.00  0.00    +0.112 C 
BRANCH  23  24
ATOM     24  C5  UNL     1      18.830  27.285  15.834  0.00  0.00    +0.132 C 
ATOM     25  C6  UNL     1      18.725  28.801  15.809  0.00  0.00    +0.035 C 
ATOM     26  C7  UNL     1      19.449  29.165  17.082  0.00  0.00    +0.031 C 
ATOM     27  C8  UNL     1      19.014  28.060  18.024  0.00  0.00    +0.160 C 
ATOM     28  O1  UNL     1      18.731  26.903  17.219  0.00  0.00    -0.375 OA
ENDBRANCH  23  24
ENDBRANCH  21  23
ENDBRANCH  20  21
ENDBRANCH  17  20
ENDBRANCH  16  17
ENDBRANCH   1  16
TORSDOF 7
ENDMDL
MODEL 6
REMARK VINA RESULT:    -2.371      2.430      4.009
REMARK INTER + INTRA:          -5.634
REMARK INTER:                  -3.275
REMARK INTRA:                  -2.358
REMARK UNBOUND:                -2.362
REMARK  Name = /home/vital/Documents/PhD_2021/Malaria_codes/data/pdb_ligands_mmv/ligand_190.pdb
REMARK  7 active torsions:
REMARK  status: ('A' for Active; 'I' for Inactive)
REMARK    1  A    between atoms: N1_1  and  C1_2
REMARK    2  A    between atoms: C1_2  and  C2_3
REMARK    3  A    between atoms: C2_3  and  C3_4
REMARK    4  A    between atoms: C2_3  and  O2_12
REMARK    5  A    between atoms: C3_4  and  N2_5
REMARK    6  A    between atoms: N2_5  and  C4_6
REMARK    7  A    between atoms: C4_6  and  C5_7
REMARK                            x       y       z     vdW  Elec       q    Type
REMARK                         _______ _______ _______ _____ _____    ______ ____
ROOT
ATOM      1  N1  UNL     1      14.596  27.038  16.231  0.00  0.00    -0.337 N 
ATOM      2  C9  UNL     1      15.092  27.920  15.289  0.00  0.00    +0.050 A 
ATOM      3  C10 UNL     1      15.426  29.096  15.966  0.00  0.00    +0.009 A 
ATOM      4  C11 UNL     1      15.958  30.179  15.234  0.00  0.00    +0.030 A 
ATOM      5  C12 UNL     1      16.140  30.048  13.856  0.00  0.00    +0.042 A 
ATOM      6 CL1  UNL     1      16.790  31.369  12.960  0.00  0.00    -0.084 Cl
ATOM      7  C13 UNL     1      15.811  28.869  13.197  0.00  0.00    +0.022 A 
ATOM      8  C14 UNL     1      15.282  27.784  13.903  0.00  0.00    +0.028 A 
ATOM      9  C15 UNL     1      14.616  27.607  17.492  0.00  0.00    +0.050 A 
ATOM     10  C16 UNL     1      15.128  28.898  17.350  0.00  0.00    +0.009 A 
ATOM     11  C17 UNL     1      15.257  29.713  18.494  0.00  0.00    +0.030 A 
ATOM     12  C18 UNL     1      14.871  29.209  19.738  0.00  0.00    +0.042 A 
ATOM     13 CL2  UNL     1      15.027  30.201  21.138  0.00  0.00    -0.084 Cl
ATOM     14  C19 UNL     1      14.365  27.921  19.865  0.00  0.00    +0.022 A 
ATOM     15  C20 UNL     1      14.229  27.096  18.744  0.00  0.00    +0.028 A 
ENDROOT
BRANCH   1  16
ATOM     16  C1  UNL     1      14.085  25.701  15.940  0.00  0.00    +0.155 C 
BRANCH  16  17
ATOM     17  C2  UNL     1      15.215  24.678  15.745  0.00  0.00    +0.148 C 
BRANCH  17  18
ATOM     18  O2  UNL     1      14.882  23.762  14.690  0.00  0.00    -0.389 OA
ATOM     19  H16 UNL     1      14.607  24.318  13.938  0.00  0.00    +0.210 HD
ENDBRANCH  17  18
BRANCH  17  20
ATOM     20  C3  UNL     1      15.468  23.871  17.035  0.00  0.00    +0.114 C 
BRANCH  20  21
ATOM     21  N2  UNL     1      16.527  24.499  17.848  0.00  0.00    -0.311 NA
ATOM     22  H6  UNL     1      16.596  23.982  18.726  0.00  0.00    +0.122 HD
BRANCH  21  23
ATOM     23  C4  UNL     1      17.839  24.451  17.176  0.00  0.00    +0.112 C 
BRANCH  23  24
ATOM     24  C5  UNL     1      18.719  25.717  17.193  0.00  0.00    +0.132 C 
ATOM     25  C6  UNL     1      18.521  26.686  16.039  0.00  0.00    +0.035 C 
ATOM     26  C7  UNL     1      19.118  27.948  16.612  0.00  0.00    +0.031 C 
ATOM     27  C8  UNL     1      18.679  27.880  18.061  0.00  0.00    +0.160 C 
ATOM     28  O1  UNL     1      18.534  26.489  18.395  0.00  0.00    -0.375 OA
ENDBRANCH  23  24
ENDBRANCH  21  23
ENDBRANCH  20  21
ENDBRANCH  17  20
ENDBRANCH  16  17
ENDBRANCH   1  16
TORSDOF 7
ENDMDL
MODEL 7
REMARK VINA RESULT:    -2.284      2.829      4.819
REMARK INTER + INTRA:          -5.513
REMARK INTER:                  -3.257
REMARK INTRA:                  -2.256
REMARK UNBOUND:                -2.362
REMARK  Name = /home/vital/Documents/PhD_2021/Malaria_codes/data/pdb_ligands_mmv/ligand_190.pdb
REMARK  7 active torsions:
REMARK  status: ('A' for Active; 'I' for Inactive)
REMARK    1  A    between atoms: N1_1  and  C1_2
REMARK    2  A    between atoms: C1_2  and  C2_3
REMARK    3  A    between atoms: C2_3  and  C3_4
REMARK    4  A    between atoms: C2_3  and  O2_12
REMARK    5  A    between atoms: C3_4  and  N2_5
REMARK    6  A    between atoms: N2_5  and  C4_6
REMARK    7  A    between atoms: C4_6  and  C5_7
REMARK                            x       y       z     vdW  Elec       q    Type
REMARK                         _______ _______ _______ _____ _____    ______ ____
ROOT
ATOM      1  N1  UNL     1      15.276  28.250  18.562  0.00  0.00    -0.337 N 
ATOM      2  C9  UNL     1      15.449  29.419  17.846  0.00  0.00    +0.050 A 
ATOM      3  C10 UNL     1      15.396  29.081  16.492  0.00  0.00    +0.009 A 
ATOM      4  C11 UNL     1      15.551  30.098  15.525  0.00  0.00    +0.030 A 
ATOM      5  C12 UNL     1      15.748  31.415  15.946  0.00  0.00    +0.042 A 
ATOM      6 CL1  UNL     1      15.936  32.658  14.768  0.00  0.00    -0.084 Cl
ATOM      7  C13 UNL     1      15.790  31.738  17.297  0.00  0.00    +0.022 A 
ATOM      8  C14 UNL     1      15.641  30.745  18.271  0.00  0.00    +0.028 A 
ATOM      9  C15 UNL     1      15.100  27.174  17.709  0.00  0.00    +0.050 A 
ATOM     10  C16 UNL     1      15.175  27.671  16.406  0.00  0.00    +0.009 A 
ATOM     11  C17 UNL     1      15.029  26.777  15.324  0.00  0.00    +0.030 A 
ATOM     12  C18 UNL     1      14.812  25.422  15.583  0.00  0.00    +0.042 A 
ATOM     13 CL2  UNL     1      14.633  24.327  14.264  0.00  0.00    -0.084 Cl
ATOM     14  C19 UNL     1      14.737  24.943  16.885  0.00  0.00    +0.022 A 
ATOM     15  C20 UNL     1      14.879  25.810  17.972  0.00  0.00    +0.028 A 
ENDROOT
BRANCH   1  16
ATOM     16  C1  UNL     1      15.311  28.146  20.019  0.00  0.00    +0.155 C 
BRANCH  16  17
ATOM     17  C2  UNL     1      16.565  27.410  20.517  0.00  0.00    +0.148 C 
BRANCH  17  18
ATOM     18  O2  UNL     1      16.316  26.813  21.799  0.00  0.00    -0.389 OA
ATOM     19  H16 UNL     1      16.586  25.880  21.710  0.00  0.00    +0.210 HD
ENDBRANCH  17  18
BRANCH  17  20
ATOM     20  C3  UNL     1      17.764  28.371  20.648  0.00  0.00    +0.114 C 
BRANCH  20  21
ATOM     21  N2  UNL     1      19.009  27.723  20.195  0.00  0.00    -0.311 NA
ATOM     22  H6  UNL     1      19.422  27.241  20.995  0.00  0.00    +0.122 HD
BRANCH  21  23
ATOM     23  C4  UNL     1      18.757  26.728  19.134  0.00  0.00    +0.112 C 
BRANCH  23  24
ATOM     24  C5  UNL     1      19.329  26.994  17.727  0.00  0.00    +0.132 C 
ATOM     25  C6  UNL     1      18.687  26.221  16.587  0.00  0.00    +0.035 C 
ATOM     26  C7  UNL     1      19.107  27.051  15.399  0.00  0.00    +0.031 C 
ATOM     27  C8  UNL     1      19.012  28.462  15.945  0.00  0.00    +0.160 C 
ATOM     28  O1  UNL     1      19.242  28.385  17.362  0.00  0.00    -0.375 OA
ENDBRANCH  23  24
ENDBRANCH  21  23
ENDBRANCH  20  21
ENDBRANCH  17  20
ENDBRANCH  16  17
ENDBRANCH   1  16
TORSDOF 7
ENDMDL
MODEL 8
REMARK VINA RESULT:    -2.255      2.499      4.865
REMARK INTER + INTRA:          -5.474
REMARK INTER:                  -3.160
REMARK INTRA:                  -2.314
REMARK UNBOUND:                -2.362
REMARK  Name = /home/vital/Documents/PhD_2021/Malaria_codes/data/pdb_ligands_mmv/ligand_190.pdb
REMARK  7 active torsions:
REMARK  status: ('A' for Active; 'I' for Inactive)
REMARK    1  A    between atoms: N1_1  and  C1_2
REMARK    2  A    between atoms: C1_2  and  C2_3
REMARK    3  A    between atoms: C2_3  and  C3_4
REMARK    4  A    between atoms: C2_3  and  O2_12
REMARK    5  A    between atoms: C3_4  and  N2_5
REMARK    6  A    between atoms: N2_5  and  C4_6
REMARK    7  A    between atoms: C4_6  and  C5_7
REMARK                            x       y       z     vdW  Elec       q    Type
REMARK                         _______ _______ _______ _____ _____    ______ ____
ROOT
ATOM      1  N1  UNL     1      17.537  27.595  17.917  0.00  0.00    -0.337 N 
ATOM      2  C9  UNL     1      16.802  28.626  18.471  0.00  0.00    +0.050 A 
ATOM      3  C10 UNL     1      16.550  29.543  17.449  0.00  0.00    +0.009 A 
ATOM      4  C11 UNL     1      15.812  30.710  17.744  0.00  0.00    +0.030 A 
ATOM      5  C12 UNL     1      15.350  30.915  19.046  0.00  0.00    +0.042 A 
ATOM      6 CL1  UNL     1      14.449  32.338  19.407  0.00  0.00    -0.084 Cl
ATOM      7  C13 UNL     1      15.602  29.989  20.051  0.00  0.00    +0.022 A 
ATOM      8  C14 UNL     1      16.332  28.827  19.781  0.00  0.00    +0.028 A 
ATOM      9  C15 UNL     1      17.752  27.816  16.567  0.00  0.00    +0.050 A 
ATOM     10  C16 UNL     1      17.145  29.034  16.253  0.00  0.00    +0.009 A 
ATOM     11  C17 UNL     1      17.213  29.510  14.926  0.00  0.00    +0.030 A 
ATOM     12  C18 UNL     1      17.882  28.752  13.963  0.00  0.00    +0.042 A 
ATOM     13 CL2  UNL     1      17.968  29.330  12.342  0.00  0.00    -0.084 Cl
ATOM     14  C19 UNL     1      18.479  27.541  14.291  0.00  0.00    +0.022 A 
ATOM     15  C20 UNL     1      18.424  27.050  15.599  0.00  0.00    +0.028 A 
ENDROOT
BRANCH   1  16
ATOM     16  C1  UNL     1      18.054  26.443  18.652  0.00  0.00    +0.155 C 
BRANCH  16  17
ATOM     17  C2  UNL     1      17.005  25.331  18.798  0.00  0.00    +0.148 C 
BRANCH  17  18
ATOM     18  O2  UNL     1      16.826  24.993  20.183  0.00  0.00    -0.389 OA
ATOM     19  H16 UNL     1      17.593  24.439  20.418  0.00  0.00    +0.210 HD
ENDBRANCH  17  18
BRANCH  17  20
ATOM     20  C3  UNL     1      17.425  24.059  18.033  0.00  0.00    +0.114 C 
BRANCH  20  21
ATOM     21  N2  UNL     1      16.715  23.963  16.744  0.00  0.00    -0.311 NA
ATOM     22  H6  UNL     1      16.831  23.012  16.391  0.00  0.00    +0.122 HD
BRANCH  21  23
ATOM     23  C4  UNL     1      15.272  24.232  16.888  0.00  0.00    +0.112 C 
BRANCH  23  24
ATOM     24  C5  UNL     1      14.546  24.978  15.750  0.00  0.00    +0.132 C 
ATOM     25  C6  UNL     1      14.292  26.459  15.976  0.00  0.00    +0.035 C 
ATOM     26  C7  UNL     1      14.056  26.934  14.563  0.00  0.00    +0.031 C 
ATOM     27  C8  UNL     1      15.057  26.110  13.779  0.00  0.00    +0.160 C 
ATOM     28  O1  UNL     1      15.257  24.884  14.501  0.00  0.00    -0.375 OA
ENDBRANCH  23  24
ENDBRANCH  21  23
ENDBRANCH  20  21
ENDBRANCH  17  20
ENDBRANCH  16  17
ENDBRANCH   1  16
TORSDOF 7
ENDMDL
MODEL 9
REMARK VINA RESULT:    -1.939      3.958      6.993
REMARK INTER + INTRA:          -5.038
REMARK INTER:                  -2.700
REMARK INTRA:                  -2.338
REMARK UNBOUND:                -2.362
REMARK  Name = /home/vital/Documents/PhD_2021/Malaria_codes/data/pdb_ligands_mmv/ligand_190.pdb
REMARK  7 active torsions:
REMARK  status: ('A' for Active; 'I' for Inactive)
REMARK    1  A    between atoms: N1_1  and  C1_2
REMARK    2  A    between atoms: C1_2  and  C2_3
REMARK    3  A    between atoms: C2_3  and  C3_4
REMARK    4  A    between atoms: C2_3  and  O2_12
REMARK    5  A    between atoms: C3_4  and  N2_5
REMARK    6  A    between atoms: N2_5  and  C4_6
REMARK    7  A    between atoms: C4_6  and  C5_7
REMARK                            x       y       z     vdW  Elec       q    Type
REMARK                         _______ _______ _______ _____ _____    ______ ____
ROOT
ATOM      1  N1  UNL     1      15.867  31.441  14.808  0.00  0.00    -0.337 N 
ATOM      2  C9  UNL     1      15.797  31.448  16.188  0.00  0.00    +0.050 A 
ATOM      3  C10 UNL     1      15.593  30.127  16.594  0.00  0.00    +0.009 A 
ATOM      4  C11 UNL     1      15.478  29.845  17.972  0.00  0.00    +0.030 A 
ATOM      5  C12 UNL     1      15.576  30.889  18.893  0.00  0.00    +0.042 A 
ATOM      6 CL1  UNL     1      15.437  30.546  20.576  0.00  0.00    -0.084 Cl
ATOM      7  C13 UNL     1      15.787  32.198  18.475  0.00  0.00    +0.022 A 
ATOM      8  C14 UNL     1      15.902  32.500  17.115  0.00  0.00    +0.028 A 
ATOM      9  C15 UNL     1      15.728  30.155  14.316  0.00  0.00    +0.050 A 
ATOM     10  C16 UNL     1      15.551  29.315  15.418  0.00  0.00    +0.009 A 
ATOM     11  C17 UNL     1      15.380  27.931  15.203  0.00  0.00    +0.030 A 
ATOM     12  C18 UNL     1      15.394  27.436  13.897  0.00  0.00    +0.042 A 
ATOM     13 CL2  UNL     1      15.187  25.747  13.630  0.00  0.00    -0.084 Cl
ATOM     14  C19 UNL     1      15.574  28.284  12.810  0.00  0.00    +0.022 A 
ATOM     15  C20 UNL     1      15.744  29.659  13.000  0.00  0.00    +0.028 A 
ENDROOT
BRANCH   1  16
ATOM     16  C1  UNL     1      16.027  32.627  13.970  0.00  0.00    +0.155 C 
BRANCH  16  17
ATOM     17  C2  UNL     1      17.487  33.100  13.909  0.00  0.00    +0.148 C 
BRANCH  17  18
ATOM     18  O2  UNL     1      17.561  34.521  14.107  0.00  0.00    -0.389 OA
ATOM     19  H16 UNL     1      16.641  34.840  14.049  0.00  0.00    +0.210 HD
ENDBRANCH  17  18
BRANCH  17  20
ATOM     20  C3  UNL     1      18.130  32.761  12.548  0.00  0.00    +0.114 C 
BRANCH  20  21
ATOM     21  N2  UNL     1      18.760  31.428  12.582  0.00  0.00    -0.311 NA
ATOM     22  H6  UNL     1      19.401  31.363  11.789  0.00  0.00    +0.122 HD
BRANCH  21  23
ATOM     23  C4  UNL     1      19.533  31.216  13.821  0.00  0.00    +0.112 C 
BRANCH  23  24
ATOM     24  C5  UNL     1      19.913  29.773  14.211  0.00  0.00    +0.132 C 
ATOM     25  C6  UNL     1      19.299  29.244  15.498  0.00  0.00    +0.035 C 
ATOM     26  C7  UNL     1      19.459  27.756  15.306  0.00  0.00    +0.031 C 
ATOM     27  C8  UNL     1      19.186  27.593  13.825  0.00  0.00    +0.160 C 
ATOM     28  O1  UNL     1      19.563  28.825  13.186  0.00  0.00    -0.375 OA
ENDBRANCH  23  24
ENDBRANCH  21  23
ENDBRANCH  20  21
ENDBRANCH  17  20
ENDBRANCH  16  17
ENDBRANCH   1  16
TORSDOF 7
ENDMDL
