MODEL 1
REMARK VINA RESULT:    -3.557      0.000      0.000
REMARK INTER + INTRA:          -5.196
REMARK INTER:                  -4.285
REMARK INTRA:                  -0.911
REMARK UNBOUND:                -0.911
REMARK  Name = /home/vital/Documents/PhD_2021/Malaria_codes/data/pdb_ligands_mmv/ligand_278.pdb
REMARK  5 active torsions:
REMARK  status: ('A' for Active; 'I' for Inactive)
REMARK    1  A    between atoms: C1_1  and  C2_2
REMARK    2  A    between atoms: N1_5  and  C5_6
REMARK    3  A    between atoms: C5_6  and  C6_7
REMARK    4  A    between atoms: C7_8  and  O1_9
REMARK    5  A    between atoms: C12_14  and  C15_19
REMARK                            x       y       z     vdW  Elec       q    Type
REMARK                         _______ _______ _______ _____ _____    ______ ____
ROOT
ATOM      1  C6  UNL     1      16.698  26.566  15.068  0.00  0.00    +0.051 A 
ATOM      2  C7  UNL     1      15.660  25.873  14.429  0.00  0.00    +0.125 A 
ATOM      3  C8  UNL     1      14.910  24.902  15.091  0.00  0.00    +0.046 A 
ATOM      4  C9  UNL     1      15.182  24.600  16.425  0.00  0.00    +0.015 A 
ATOM      5  C10 UNL     1      16.199  25.278  17.096  0.00  0.00    +0.019 A 
ATOM      6  C11 UNL     1      16.499  25.010  18.493  0.00  0.00    +0.029 A 
ATOM      7  C12 UNL     1      17.467  25.683  19.140  0.00  0.00    +0.092 A 
ATOM      8  C13 UNL     1      18.296  26.687  18.426  0.00  0.00    +0.347 A 
ATOM      9  O2  UNL     1      19.245  27.268  18.941  0.00  0.00    -0.244 OA
ATOM     10  O3  UNL     1      17.953  26.948  17.100  0.00  0.00    -0.421 OA
ATOM     11  C14 UNL     1      16.933  26.250  16.415  0.00  0.00    +0.147 A 
ENDROOT
BRANCH   7  12
ATOM     12  C15 UNL     1      17.702  25.367  20.514  0.00  0.00    +0.116 A 
ATOM     13  N2  UNL     1      17.439  26.165  21.535  0.00  0.00    -0.239 NA
ATOM     14  C16 UNL     1      17.817  25.585  22.733  0.00  0.00    +0.079 A 
ATOM     15  C17 UNL     1      17.650  26.150  24.013  0.00  0.00    +0.029 A 
ATOM     16  C18 UNL     1      18.086  25.452  25.145  0.00  0.00    +0.002 A 
ATOM     17  C19 UNL     1      18.684  24.203  25.013  0.00  0.00    +0.001 A 
ATOM     18  C20 UNL     1      18.862  23.623  23.753  0.00  0.00    +0.017 A 
ATOM     19  C21 UNL     1      18.420  24.334  22.626  0.00  0.00    +0.040 A 
ATOM     20  S1  UNL     1      18.503  23.898  20.966  0.00  0.00    -0.067 S 
ENDBRANCH   7  12
BRANCH   2  21
ATOM     21  O1  UNL     1      15.335  26.105  13.120  0.00  0.00    -0.506 OA
ATOM     22  H11 UNL     1      15.200  27.077  13.034  0.00  0.00    +0.292 HD
ENDBRANCH   2  21
BRANCH   1  23
ATOM     23  C5  UNL     1      17.474  27.678  14.390  0.00  0.00    +0.127 C 
BRANCH  23  28
ATOM     24  C1  UNL     1      14.767  32.420  12.537  0.00  0.00    +0.007 C 
ATOM     25  C2  UNL     1      15.723  31.458  13.238  0.00  0.00    -0.012 C 
ATOM     26  C3  UNL     1      14.965  30.509  14.170  0.00  0.00    +0.018 C 
ATOM     27  C4  UNL     1      15.903  29.473  14.793  0.00  0.00    +0.085 C 
ATOM     28  N1  UNL     1      16.609  28.702  13.753  0.00  0.00    -0.298 NA
ATOM     29  C22 UNL     1      17.419  29.611  12.914  0.00  0.00    +0.085 C 
ATOM     30  C23 UNL     1      16.533  30.648  12.220  0.00  0.00    +0.018 C 
ENDBRANCH  23  28
ENDBRANCH   1  23
TORSDOF 4
ENDMDL
MODEL 2
REMARK VINA RESULT:    -3.550      5.958     10.557
REMARK INTER + INTRA:          -5.187
REMARK INTER:                  -4.370
REMARK INTRA:                  -0.817
REMARK UNBOUND:                -0.911
REMARK  Name = /home/vital/Documents/PhD_2021/Malaria_codes/data/pdb_ligands_mmv/ligand_278.pdb
REMARK  5 active torsions:
REMARK  status: ('A' for Active; 'I' for Inactive)
REMARK    1  A    between atoms: C1_1  and  C2_2
REMARK    2  A    between atoms: N1_5  and  C5_6
REMARK    3  A    between atoms: C5_6  and  C6_7
REMARK    4  A    between atoms: C7_8  and  O1_9
REMARK    5  A    between atoms: C12_14  and  C15_19
REMARK                            x       y       z     vdW  Elec       q    Type
REMARK                         _______ _______ _______ _____ _____    ______ ____
ROOT
ATOM      1  C6  UNL     1      15.867  30.965  16.217  0.00  0.00    +0.051 A 
ATOM      2  C7  UNL     1      15.618  30.389  17.471  0.00  0.00    +0.125 A 
ATOM      3  C8  UNL     1      15.463  31.166  18.618  0.00  0.00    +0.046 A 
ATOM      4  C9  UNL     1      15.552  32.556  18.536  0.00  0.00    +0.015 A 
ATOM      5  C10 UNL     1      15.786  33.164  17.303  0.00  0.00    +0.019 A 
ATOM      6  C11 UNL     1      15.862  34.610  17.170  0.00  0.00    +0.029 A 
ATOM      7  C12 UNL     1      16.067  35.190  15.975  0.00  0.00    +0.092 A 
ATOM      8  C13 UNL     1      16.274  34.364  14.759  0.00  0.00    +0.347 A 
ATOM      9  O2  UNL     1      16.549  34.835  13.660  0.00  0.00    -0.244 OA
ATOM     10  O3  UNL     1      16.154  32.983  14.916  0.00  0.00    -0.421 OA
ATOM     11  C14 UNL     1      15.933  32.367  16.168  0.00  0.00    +0.147 A 
ENDROOT
BRANCH   7  12
ATOM     12  C15 UNL     1      16.125  36.617  15.922  0.00  0.00    +0.116 A 
ATOM     13  N2  UNL     1      15.107  37.412  15.636  0.00  0.00    -0.239 NA
ATOM     14  C16 UNL     1      15.497  38.740  15.627  0.00  0.00    +0.079 A 
ATOM     15  C17 UNL     1      14.656  39.846  15.390  0.00  0.00    +0.029 A 
ATOM     16  C18 UNL     1      15.187  41.140  15.406  0.00  0.00    +0.002 A 
ATOM     17  C19 UNL     1      16.541  41.341  15.652  0.00  0.00    +0.001 A 
ATOM     18  C20 UNL     1      17.395  40.260  15.888  0.00  0.00    +0.017 A 
ATOM     19  C21 UNL     1      16.849  38.966  15.870  0.00  0.00    +0.040 A 
ATOM     20  S1  UNL     1      17.630  37.455  16.113  0.00  0.00    -0.067 S 
ENDBRANCH   7  12
BRANCH   2  21
ATOM     21  O1  UNL     1      15.525  29.033  17.637  0.00  0.00    -0.506 OA
ATOM     22  H11 UNL     1      16.442  28.680  17.573  0.00  0.00    +0.292 HD
ENDBRANCH   2  21
BRANCH   1  23
ATOM     23  C5  UNL     1      15.962  30.143  14.947  0.00  0.00    +0.127 C 
BRANCH  23  28
ATOM     24  C1  UNL     1      14.751  24.521  14.540  0.00  0.00    +0.007 C 
ATOM     25  C2  UNL     1      15.077  25.977  14.216  0.00  0.00    -0.012 C 
ATOM     26  C3  UNL     1      13.989  26.916  14.745  0.00  0.00    +0.018 C 
ATOM     27  C4  UNL     1      14.360  28.383  14.519  0.00  0.00    +0.085 C 
ATOM     28  N1  UNL     1      15.655  28.705  15.146  0.00  0.00    -0.298 NA
ATOM     29  C22 UNL     1      16.722  27.864  14.562  0.00  0.00    +0.085 C 
ATOM     30  C23 UNL     1      16.436  26.379  14.796  0.00  0.00    +0.018 C 
ENDBRANCH  23  28
ENDBRANCH   1  23
TORSDOF 4
ENDMDL
MODEL 3
REMARK VINA RESULT:    -3.514     11.700     15.729
REMARK INTER + INTRA:          -5.144
REMARK INTER:                  -4.082
REMARK INTRA:                  -1.062
REMARK UNBOUND:                -0.911
REMARK  Name = /home/vital/Documents/PhD_2021/Malaria_codes/data/pdb_ligands_mmv/ligand_278.pdb
REMARK  5 active torsions:
REMARK  status: ('A' for Active; 'I' for Inactive)
REMARK    1  A    between atoms: C1_1  and  C2_2
REMARK    2  A    between atoms: N1_5  and  C5_6
REMARK    3  A    between atoms: C5_6  and  C6_7
REMARK    4  A    between atoms: C7_8  and  O1_9
REMARK    5  A    between atoms: C12_14  and  C15_19
REMARK                            x       y       z     vdW  Elec       q    Type
REMARK                         _______ _______ _______ _____ _____    ______ ____
ROOT
ATOM      1  C6  UNL     1      16.069  39.055  16.656  0.00  0.00    +0.051 A 
ATOM      2  C7  UNL     1      14.993  39.158  15.762  0.00  0.00    +0.125 A 
ATOM      3  C8  UNL     1      14.825  40.273  14.943  0.00  0.00    +0.046 A 
ATOM      4  C9  UNL     1      15.741  41.323  14.997  0.00  0.00    +0.015 A 
ATOM      5  C10 UNL     1      16.830  41.250  15.865  0.00  0.00    +0.019 A 
ATOM      6  C11 UNL     1      17.821  42.312  15.935  0.00  0.00    +0.029 A 
ATOM      7  C12 UNL     1      18.880  42.223  16.758  0.00  0.00    +0.092 A 
ATOM      8  C13 UNL     1      19.040  41.057  17.663  0.00  0.00    +0.347 A 
ATOM      9  O2  UNL     1      19.937  40.963  18.493  0.00  0.00    -0.244 OA
ATOM     10  O3  UNL     1      18.094  40.039  17.539  0.00  0.00    -0.421 OA
ATOM     11  C14 UNL     1      16.982  40.121  16.672  0.00  0.00    +0.147 A 
ENDROOT
BRANCH   7  12
ATOM     12  C15 UNL     1      19.814  43.305  16.769  0.00  0.00    +0.116 A 
ATOM     13  N2  UNL     1      19.857  44.266  17.677  0.00  0.00    -0.239 NA
ATOM     14  C16 UNL     1      20.850  45.185  17.385  0.00  0.00    +0.079 A 
ATOM     15  C17 UNL     1      21.185  46.313  18.161  0.00  0.00    +0.029 A 
ATOM     16  C18 UNL     1      22.213  47.165  17.742  0.00  0.00    +0.002 A 
ATOM     17  C19 UNL     1      22.905  46.906  16.564  0.00  0.00    +0.001 A 
ATOM     18  C20 UNL     1      22.589  45.795  15.776  0.00  0.00    +0.017 A 
ATOM     19  C21 UNL     1      21.555  44.947  16.208  0.00  0.00    +0.040 A 
ATOM     20  S1  UNL     1      20.936  43.527  15.467  0.00  0.00    -0.067 S 
ENDBRANCH   7  12
BRANCH   2  21
ATOM     21  O1  UNL     1      14.047  38.175  15.655  0.00  0.00    -0.506 OA
ATOM     22  H11 UNL     1      14.532  37.339  15.469  0.00  0.00    +0.292 HD
ENDBRANCH   2  21
BRANCH   1  23
ATOM     23  C5  UNL     1      16.313  37.819  17.498  0.00  0.00    +0.127 C 
BRANCH  23  28
ATOM     24  C1  UNL     1      15.596  32.433  15.568  0.00  0.00    +0.007 C 
ATOM     25  C2  UNL     1      16.084  33.665  16.326  0.00  0.00    -0.012 C 
ATOM     26  C3  UNL     1      16.668  34.706  15.367  0.00  0.00    +0.018 C 
ATOM     27  C4  UNL     1      17.061  35.987  16.107  0.00  0.00    +0.085 C 
ATOM     28  N1  UNL     1      15.909  36.556  16.830  0.00  0.00    -0.298 NA
ATOM     29  C22 UNL     1      15.408  35.584  17.826  0.00  0.00    +0.085 C 
ATOM     30  C23 UNL     1      14.951  34.292  17.145  0.00  0.00    +0.018 C 
ENDBRANCH  23  28
ENDBRANCH   1  23
TORSDOF 4
ENDMDL
MODEL 4
REMARK VINA RESULT:    -3.493     11.578     15.740
REMARK INTER + INTRA:          -5.118
REMARK INTER:                  -4.091
REMARK INTRA:                  -1.027
REMARK UNBOUND:                -0.911
REMARK  Name = /home/vital/Documents/PhD_2021/Malaria_codes/data/pdb_ligands_mmv/ligand_278.pdb
REMARK  5 active torsions:
REMARK  status: ('A' for Active; 'I' for Inactive)
REMARK    1  A    between atoms: C1_1  and  C2_2
REMARK    2  A    between atoms: N1_5  and  C5_6
REMARK    3  A    between atoms: C5_6  and  C6_7
REMARK    4  A    between atoms: C7_8  and  O1_9
REMARK    5  A    between atoms: C12_14  and  C15_19
REMARK                            x       y       z     vdW  Elec       q    Type
REMARK                         _______ _______ _______ _____ _____    ______ ____
ROOT
ATOM      1  C6  UNL     1      16.342  38.943  16.445  0.00  0.00    +0.051 A 
ATOM      2  C7  UNL     1      15.107  39.122  15.805  0.00  0.00    +0.125 A 
ATOM      3  C8  UNL     1      14.742  40.346  15.245  0.00  0.00    +0.046 A 
ATOM      4  C9  UNL     1      15.616  41.430  15.310  0.00  0.00    +0.015 A 
ATOM      5  C10 UNL     1      16.858  41.285  15.927  0.00  0.00    +0.019 A 
ATOM      6  C11 UNL     1      17.808  42.383  15.995  0.00  0.00    +0.029 A 
ATOM      7  C12 UNL     1      19.012  42.229  16.573  0.00  0.00    +0.092 A 
ATOM      8  C13 UNL     1      19.386  40.940  17.208  0.00  0.00    +0.347 A 
ATOM      9  O2  UNL     1      20.433  40.768  17.823  0.00  0.00    -0.244 OA
ATOM     10  O3  UNL     1      18.468  39.897  17.088  0.00  0.00    -0.421 OA
ATOM     11  C14 UNL     1      17.204  40.050  16.476  0.00  0.00    +0.147 A 
ENDROOT
BRANCH   7  12
ATOM     12  C15 UNL     1      19.894  43.353  16.599  0.00  0.00    +0.116 A 
ATOM     13  N2  UNL     1      20.664  43.740  15.595  0.00  0.00    -0.239 NA
ATOM     14  C16 UNL     1      21.430  44.839  15.948  0.00  0.00    +0.079 A 
ATOM     15  C17 UNL     1      22.332  45.520  15.107  0.00  0.00    +0.029 A 
ATOM     16  C18 UNL     1      23.048  46.617  15.599  0.00  0.00    +0.002 A 
ATOM     17  C19 UNL     1      22.876  47.037  16.914  0.00  0.00    +0.001 A 
ATOM     18  C20 UNL     1      21.988  46.376  17.767  0.00  0.00    +0.017 A 
ATOM     19  C21 UNL     1      21.274  45.276  17.261  0.00  0.00    +0.040 A 
ATOM     20  S1  UNL     1      20.132  44.267  18.052  0.00  0.00    -0.067 S 
ENDBRANCH   7  12
BRANCH   2  21
ATOM     21  O1  UNL     1      14.190  38.111  15.706  0.00  0.00    -0.506 OA
ATOM     22  H11 UNL     1      13.336  38.531  15.457  0.00  0.00    +0.292 HD
ENDBRANCH   2  21
BRANCH   1  23
ATOM     23  C5  UNL     1      16.788  37.601  16.992  0.00  0.00    +0.127 C 
BRANCH  23  28
ATOM     24  C1  UNL     1      15.370  32.498  14.715  0.00  0.00    +0.007 C 
ATOM     25  C2  UNL     1      16.059  33.612  15.499  0.00  0.00    -0.012 C 
ATOM     26  C3  UNL     1      16.581  34.704  14.561  0.00  0.00    +0.018 C 
ATOM     27  C4  UNL     1      17.178  35.874  15.345  0.00  0.00    +0.085 C 
ATOM     28  N1  UNL     1      16.192  36.442  16.282  0.00  0.00    -0.298 NA
ATOM     29  C22 UNL     1      15.762  35.410  17.250  0.00  0.00    +0.085 C 
ATOM     30  C23 UNL     1      15.110  34.227  16.532  0.00  0.00    +0.018 C 
ENDBRANCH  23  28
ENDBRANCH   1  23
TORSDOF 4
ENDMDL
MODEL 5
REMARK VINA RESULT:    -3.396      5.028      9.716
REMARK INTER + INTRA:          -5.002
REMARK INTER:                  -4.133
REMARK INTRA:                  -0.869
REMARK UNBOUND:                -0.911
REMARK  Name = /home/vital/Documents/PhD_2021/Malaria_codes/data/pdb_ligands_mmv/ligand_278.pdb
REMARK  5 active torsions:
REMARK  status: ('A' for Active; 'I' for Inactive)
REMARK    1  A    between atoms: C1_1  and  C2_2
REMARK    2  A    between atoms: N1_5  and  C5_6
REMARK    3  A    between atoms: C5_6  and  C6_7
REMARK    4  A    between atoms: C7_8  and  O1_9
REMARK    5  A    between atoms: C12_14  and  C15_19
REMARK                            x       y       z     vdW  Elec       q    Type
REMARK                         _______ _______ _______ _____ _____    ______ ____
ROOT
ATOM      1  C6  UNL     1      15.741  29.378  15.799  0.00  0.00    +0.051 A 
ATOM      2  C7  UNL     1      15.528  28.806  14.537  0.00  0.00    +0.125 A 
ATOM      3  C8  UNL     1      15.214  29.583  13.423  0.00  0.00    +0.046 A 
ATOM      4  C9  UNL     1      15.107  30.968  13.547  0.00  0.00    +0.015 A 
ATOM      5  C10 UNL     1      15.325  31.572  14.784  0.00  0.00    +0.019 A 
ATOM      6  C11 UNL     1      15.246  33.015  14.950  0.00  0.00    +0.029 A 
ATOM      7  C12 UNL     1      15.478  33.592  16.142  0.00  0.00    +0.092 A 
ATOM      8  C13 UNL     1      15.771  32.765  17.340  0.00  0.00    +0.347 A 
ATOM      9  O2  UNL     1      15.907  33.230  18.466  0.00  0.00    -0.244 OA
ATOM     10  O3  UNL     1      15.879  31.389  17.134  0.00  0.00    -0.421 OA
ATOM     11  C14 UNL     1      15.643  30.776  15.884  0.00  0.00    +0.147 A 
ENDROOT
BRANCH   7  12
ATOM     12  C15 UNL     1      15.387  35.016  16.228  0.00  0.00    +0.116 A 
ATOM     13  N2  UNL     1      14.404  35.683  16.808  0.00  0.00    -0.239 NA
ATOM     14  C16 UNL     1      14.587  37.050  16.687  0.00  0.00    +0.079 A 
ATOM     15  C17 UNL     1      13.744  38.047  17.218  0.00  0.00    +0.029 A 
ATOM     16  C18 UNL     1      14.049  39.397  17.014  0.00  0.00    +0.002 A 
ATOM     17  C19 UNL     1      15.179  39.761  16.290  0.00  0.00    +0.001 A 
ATOM     18  C20 UNL     1      16.030  38.790  15.753  0.00  0.00    +0.017 A 
ATOM     19  C21 UNL     1      15.712  37.438  15.965  0.00  0.00    +0.040 A 
ATOM     20  S1  UNL     1      16.544  36.033  15.433  0.00  0.00    -0.067 S 
ENDBRANCH   7  12
BRANCH   2  21
ATOM     21  O1  UNL     1      15.607  27.454  14.334  0.00  0.00    -0.506 OA
ATOM     22  H11 UNL     1      16.518  27.273  14.008  0.00  0.00    +0.292 HD
ENDBRANCH   2  21
BRANCH   1  23
ATOM     23  C5  UNL     1      16.158  28.559  17.005  0.00  0.00    +0.127 C 
BRANCH  23  28
ATOM     24  C1  UNL     1      15.771  22.822  17.427  0.00  0.00    +0.007 C 
ATOM     25  C2  UNL     1      15.963  24.304  17.737  0.00  0.00    -0.012 C 
ATOM     26  C3  UNL     1      17.114  24.894  16.917  0.00  0.00    +0.018 C 
ATOM     27  C4  UNL     1      17.243  26.402  17.143  0.00  0.00    +0.085 C 
ATOM     28  N1  UNL     1      15.984  27.097  16.819  0.00  0.00    -0.298 NA
ATOM     29  C22 UNL     1      14.893  26.594  17.682  0.00  0.00    +0.085 C 
ATOM     30  C23 UNL     1      14.678  25.094  17.469  0.00  0.00    +0.018 C 
ENDBRANCH  23  28
ENDBRANCH   1  23
TORSDOF 4
ENDMDL
MODEL 6
REMARK VINA RESULT:    -3.393     20.970     22.758
REMARK INTER + INTRA:          -4.998
REMARK INTER:                  -3.987
REMARK INTRA:                  -1.011
REMARK UNBOUND:                -0.911
REMARK  Name = /home/vital/Documents/PhD_2021/Malaria_codes/data/pdb_ligands_mmv/ligand_278.pdb
REMARK  5 active torsions:
REMARK  status: ('A' for Active; 'I' for Inactive)
REMARK    1  A    between atoms: C1_1  and  C2_2
REMARK    2  A    between atoms: N1_5  and  C5_6
REMARK    3  A    between atoms: C5_6  and  C6_7
REMARK    4  A    between atoms: C7_8  and  O1_9
REMARK    5  A    between atoms: C12_14  and  C15_19
REMARK                            x       y       z     vdW  Elec       q    Type
REMARK                         _______ _______ _______ _____ _____    ______ ____
ROOT
ATOM      1  C6  UNL     1      31.331  44.059  16.596  0.00  0.00    +0.051 A 
ATOM      2  C7  UNL     1      31.631  45.353  16.146  0.00  0.00    +0.125 A 
ATOM      3  C8  UNL     1      32.773  45.620  15.393  0.00  0.00    +0.046 A 
ATOM      4  C9  UNL     1      33.651  44.587  15.066  0.00  0.00    +0.015 A 
ATOM      5  C10 UNL     1      33.378  43.286  15.487  0.00  0.00    +0.019 A 
ATOM      6  C11 UNL     1      34.255  42.177  15.148  0.00  0.00    +0.029 A 
ATOM      7  C12 UNL     1      33.973  40.921  15.539  0.00  0.00    +0.092 A 
ATOM      8  C13 UNL     1      32.780  40.639  16.376  0.00  0.00    +0.347 A 
ATOM      9  O2  UNL     1      32.521  39.531  16.831  0.00  0.00    -0.244 OA
ATOM     10  O3  UNL     1      31.941  41.720  16.647  0.00  0.00    -0.421 OA
ATOM     11  C14 UNL     1      32.226  43.040  16.235  0.00  0.00    +0.147 A 
ENDROOT
BRANCH   7  12
ATOM     12  C15 UNL     1      34.880  39.882  15.164  0.00  0.00    +0.116 A 
ATOM     13  N2  UNL     1      36.134  39.781  15.572  0.00  0.00    -0.239 NA
ATOM     14  C16 UNL     1      36.759  38.686  14.999  0.00  0.00    +0.079 A 
ATOM     15  C17 UNL     1      38.085  38.272  15.242  0.00  0.00    +0.029 A 
ATOM     16  C18 UNL     1      38.591  37.144  14.588  0.00  0.00    +0.002 A 
ATOM     17  C19 UNL     1      37.796  36.430  13.698  0.00  0.00    +0.001 A 
ATOM     18  C20 UNL     1      36.479  36.823  13.440  0.00  0.00    +0.017 A 
ATOM     19  C21 UNL     1      35.982  37.957  14.104  0.00  0.00    +0.040 A 
ATOM     20  S1  UNL     1      34.430  38.685  13.993  0.00  0.00    -0.067 S 
ENDBRANCH   7  12
BRANCH   2  21
ATOM     21  O1  UNL     1      30.825  46.422  16.430  0.00  0.00    -0.506 OA
ATOM     22  H11 UNL     1      30.607  46.360  17.388  0.00  0.00    +0.292 HD
ENDBRANCH   2  21
BRANCH   1  23
ATOM     23  C5  UNL     1      30.056  43.734  17.349  0.00  0.00    +0.127 C 
BRANCH  23  28
ATOM     24  C1  UNL     1      25.008  46.420  16.608  0.00  0.00    +0.007 C 
ATOM     25  C2  UNL     1      26.092  45.423  17.010  0.00  0.00    -0.012 C 
ATOM     26  C3  UNL     1      26.792  44.843  15.778  0.00  0.00    +0.018 C 
ATOM     27  C4  UNL     1      27.950  43.926  16.175  0.00  0.00    +0.085 C 
ATOM     28  N1  UNL     1      28.925  44.638  17.021  0.00  0.00    -0.298 NA
ATOM     29  C22 UNL     1      28.269  45.112  18.258  0.00  0.00    +0.085 C 
ATOM     30  C23 UNL     1      27.126  46.076  17.933  0.00  0.00    +0.018 C 
ENDBRANCH  23  28
ENDBRANCH   1  23
TORSDOF 4
ENDMDL
MODEL 7
REMARK VINA RESULT:    -3.353     21.081     22.942
REMARK INTER + INTRA:          -4.950
REMARK INTER:                  -3.974
REMARK INTRA:                  -0.976
REMARK UNBOUND:                -0.911
REMARK  Name = /home/vital/Documents/PhD_2021/Malaria_codes/data/pdb_ligands_mmv/ligand_278.pdb
REMARK  5 active torsions:
REMARK  status: ('A' for Active; 'I' for Inactive)
REMARK    1  A    between atoms: C1_1  and  C2_2
REMARK    2  A    between atoms: N1_5  and  C5_6
REMARK    3  A    between atoms: C5_6  and  C6_7
REMARK    4  A    between atoms: C7_8  and  O1_9
REMARK    5  A    between atoms: C12_14  and  C15_19
REMARK                            x       y       z     vdW  Elec       q    Type
REMARK                         _______ _______ _______ _____ _____    ______ ____
ROOT
ATOM      1  C6  UNL     1      31.341  44.163  16.755  0.00  0.00    +0.051 A 
ATOM      2  C7  UNL     1      31.498  45.447  16.214  0.00  0.00    +0.125 A 
ATOM      3  C8  UNL     1      32.594  45.778  15.419  0.00  0.00    +0.046 A 
ATOM      4  C9  UNL     1      33.569  44.821  15.140  0.00  0.00    +0.015 A 
ATOM      5  C10 UNL     1      33.439  43.530  15.651  0.00  0.00    +0.019 A 
ATOM      6  C11 UNL     1      34.420  42.496  15.365  0.00  0.00    +0.029 A 
ATOM      7  C12 UNL     1      34.277  41.248  15.844  0.00  0.00    +0.092 A 
ATOM      8  C13 UNL     1      33.134  40.903  16.726  0.00  0.00    +0.347 A 
ATOM      9  O2  UNL     1      32.998  39.807  17.259  0.00  0.00    -0.244 OA
ATOM     10  O3  UNL     1      32.191  41.907  16.945  0.00  0.00    -0.421 OA
ATOM     11  C14 UNL     1      32.332  43.219  16.441  0.00  0.00    +0.147 A 
ENDROOT
BRANCH   7  12
ATOM     12  C15 UNL     1      35.280  40.284  15.516  0.00  0.00    +0.116 A 
ATOM     13  N2  UNL     1      35.161  39.342  14.596  0.00  0.00    -0.239 NA
ATOM     14  C16 UNL     1      36.291  38.543  14.548  0.00  0.00    +0.079 A 
ATOM     15  C17 UNL     1      36.506  37.469  13.662  0.00  0.00    +0.029 A 
ATOM     16  C18 UNL     1      37.698  36.741  13.728  0.00  0.00    +0.002 A 
ATOM     17  C19 UNL     1      38.673  37.070  14.664  0.00  0.00    +0.001 A 
ATOM     18  C20 UNL     1      38.481  38.131  15.555  0.00  0.00    +0.017 A 
ATOM     19  C21 UNL     1      37.280  38.854  15.478  0.00  0.00    +0.040 A 
ATOM     20  S1  UNL     1      36.753  40.186  16.426  0.00  0.00    -0.067 S 
ENDBRANCH   7  12
BRANCH   2  21
ATOM     21  O1  UNL     1      30.591  46.445  16.447  0.00  0.00    -0.506 OA
ATOM     22  H11 UNL     1      30.477  46.496  17.423  0.00  0.00    +0.292 HD
ENDBRANCH   2  21
BRANCH   1  23
ATOM     23  C5  UNL     1      30.120  43.761  17.559  0.00  0.00    +0.127 C 
BRANCH  23  28
ATOM     24  C1  UNL     1      24.909  46.176  17.053  0.00  0.00    +0.007 C 
ATOM     25  C2  UNL     1      26.059  45.228  17.386  0.00  0.00    -0.012 C 
ATOM     26  C3  UNL     1      26.759  44.744  16.113  0.00  0.00    +0.018 C 
ATOM     27  C4  UNL     1      27.978  43.879  16.442  0.00  0.00    +0.085 C 
ATOM     28  N1  UNL     1      28.931  44.611  17.297  0.00  0.00    -0.298 NA
ATOM     29  C22 UNL     1      28.280  44.992  18.569  0.00  0.00    +0.085 C 
ATOM     30  C23 UNL     1      27.076  45.900  18.313  0.00  0.00    +0.018 C 
ENDBRANCH  23  28
ENDBRANCH   1  23
TORSDOF 4
ENDMDL
MODEL 8
REMARK VINA RESULT:    -3.159     21.947     23.652
REMARK INTER + INTRA:          -4.717
REMARK INTER:                  -3.652
REMARK INTRA:                  -1.064
REMARK UNBOUND:                -0.911
REMARK  Name = /home/vital/Documents/PhD_2021/Malaria_codes/data/pdb_ligands_mmv/ligand_278.pdb
REMARK  5 active torsions:
REMARK  status: ('A' for Active; 'I' for Inactive)
REMARK    1  A    between atoms: C1_1  and  C2_2
REMARK    2  A    between atoms: N1_5  and  C5_6
REMARK    3  A    between atoms: C5_6  and  C6_7
REMARK    4  A    between atoms: C7_8  and  O1_9
REMARK    5  A    between atoms: C12_14  and  C15_19
REMARK                            x       y       z     vdW  Elec       q    Type
REMARK                         _______ _______ _______ _____ _____    ______ ____
ROOT
ATOM      1  C6  UNL     1      31.954  44.825  17.835  0.00  0.00    +0.051 A 
ATOM      2  C7  UNL     1      31.462  45.763  16.916  0.00  0.00    +0.125 A 
ATOM      3  C8  UNL     1      31.770  45.691  15.558  0.00  0.00    +0.046 A 
ATOM      4  C9  UNL     1      32.586  44.664  15.082  0.00  0.00    +0.015 A 
ATOM      5  C10 UNL     1      33.083  43.707  15.965  0.00  0.00    +0.019 A 
ATOM      6  C11 UNL     1      33.916  42.607  15.506  0.00  0.00    +0.029 A 
ATOM      7  C12 UNL     1      34.374  41.676  16.360  0.00  0.00    +0.092 A 
ATOM      8  C13 UNL     1      34.083  41.773  17.813  0.00  0.00    +0.347 A 
ATOM      9  O2  UNL     1      34.543  41.002  18.648  0.00  0.00    -0.244 OA
ATOM     10  O3  UNL     1      33.247  42.816  18.211  0.00  0.00    -0.421 OA
ATOM     11  C14 UNL     1      32.757  43.795  17.319  0.00  0.00    +0.147 A 
ENDROOT
BRANCH   7  12
ATOM     12  C15 UNL     1      35.185  40.622  15.834  0.00  0.00    +0.116 A 
ATOM     13  N2  UNL     1      36.484  40.486  16.039  0.00  0.00    -0.239 NA
ATOM     14  C16 UNL     1      36.984  39.387  15.361  0.00  0.00    +0.079 A 
ATOM     15  C17 UNL     1      38.320  38.939  15.388  0.00  0.00    +0.029 A 
ATOM     16  C18 UNL     1      38.690  37.811  14.647  0.00  0.00    +0.002 A 
ATOM     17  C19 UNL     1      37.747  37.131  13.883  0.00  0.00    +0.001 A 
ATOM     18  C20 UNL     1      36.417  37.558  13.840  0.00  0.00    +0.017 A 
ATOM     19  C21 UNL     1      36.058  38.692  14.589  0.00  0.00    +0.040 A 
ATOM     20  S1  UNL     1      34.527  39.457  14.733  0.00  0.00    -0.067 S 
ENDBRANCH   7  12
BRANCH   2  21
ATOM     21  O1  UNL     1      30.663  46.804  17.304  0.00  0.00    -0.506 OA
ATOM     22  H11 UNL     1      31.260  47.489  17.683  0.00  0.00    +0.292 HD
ENDBRANCH   2  21
BRANCH   1  23
ATOM     23  C5  UNL     1      31.569  44.841  19.301  0.00  0.00    +0.127 C 
BRANCH  23  28
ATOM     24  C1  UNL     1      26.380  46.363  21.301  0.00  0.00    +0.007 C 
ATOM     25  C2  UNL     1      27.778  45.767  21.158  0.00  0.00    -0.012 C 
ATOM     26  C3  UNL     1      27.842  44.790  19.980  0.00  0.00    +0.018 C 
ATOM     27  C4  UNL     1      29.265  44.270  19.765  0.00  0.00    +0.085 C 
ATOM     28  N1  UNL     1      30.209  45.382  19.551  0.00  0.00    -0.298 NA
ATOM     29  C22 UNL     1      30.218  46.270  20.734  0.00  0.00    +0.085 C 
ATOM     30  C23 UNL     1      28.830  46.865  20.979  0.00  0.00    +0.018 C 
ENDBRANCH  23  28
ENDBRANCH   1  23
TORSDOF 4
ENDMDL
MODEL 9
REMARK VINA RESULT:    -3.139      5.505      9.015
REMARK INTER + INTRA:          -4.692
REMARK INTER:                  -3.682
REMARK INTRA:                  -1.011
REMARK UNBOUND:                -0.911
REMARK  Name = /home/vital/Documents/PhD_2021/Malaria_codes/data/pdb_ligands_mmv/ligand_278.pdb
REMARK  5 active torsions:
REMARK  status: ('A' for Active; 'I' for Inactive)
REMARK    1  A    between atoms: C1_1  and  C2_2
REMARK    2  A    between atoms: N1_5  and  C5_6
REMARK    3  A    between atoms: C5_6  and  C6_7
REMARK    4  A    between atoms: C7_8  and  O1_9
REMARK    5  A    between atoms: C12_14  and  C15_19
REMARK                            x       y       z     vdW  Elec       q    Type
REMARK                         _______ _______ _______ _____ _____    ______ ____
ROOT
ATOM      1  C6  UNL     1      17.878  35.198  13.870  0.00  0.00    +0.051 A 
ATOM      2  C7  UNL     1      19.237  35.397  14.153  0.00  0.00    +0.125 A 
ATOM      3  C8  UNL     1      20.012  34.408  14.757  0.00  0.00    +0.046 A 
ATOM      4  C9  UNL     1      19.440  33.181  15.093  0.00  0.00    +0.015 A 
ATOM      5  C10 UNL     1      18.095  32.944  14.814  0.00  0.00    +0.019 A 
ATOM      6  C11 UNL     1      17.466  31.671  15.126  0.00  0.00    +0.029 A 
ATOM      7  C12 UNL     1      16.173  31.442  14.835  0.00  0.00    +0.092 A 
ATOM      8  C13 UNL     1      15.334  32.507  14.231  0.00  0.00    +0.347 A 
ATOM      9  O2  UNL     1      14.132  32.384  14.022  0.00  0.00    -0.244 OA
ATOM     10  O3  UNL     1      15.980  33.701  13.908  0.00  0.00    -0.421 OA
ATOM     11  C14 UNL     1      17.339  33.946  14.205  0.00  0.00    +0.147 A 
ENDROOT
BRANCH   7  12
ATOM     12  C15 UNL     1      15.626  30.164  15.167  0.00  0.00    +0.116 A 
ATOM     13  N2  UNL     1      15.199  29.267  14.294  0.00  0.00    -0.239 NA
ATOM     14  C16 UNL     1      14.689  28.150  14.934  0.00  0.00    +0.079 A 
ATOM     15  C17 UNL     1      14.181  26.998  14.303  0.00  0.00    +0.029 A 
ATOM     16  C18 UNL     1      13.690  25.940  15.076  0.00  0.00    +0.002 A 
ATOM     17  C19 UNL     1      13.700  26.021  16.465  0.00  0.00    +0.001 A 
ATOM     18  C20 UNL     1      14.198  27.155  17.113  0.00  0.00    +0.017 A 
ATOM     19  C21 UNL     1      14.688  28.209  16.325  0.00  0.00    +0.040 A 
ATOM     20  S1  UNL     1      15.348  29.716  16.819  0.00  0.00    -0.067 S 
ENDBRANCH   7  12
BRANCH   2  21
ATOM     21  O1  UNL     1      19.871  36.575  13.863  0.00  0.00    -0.506 OA
ATOM     22  H11 UNL     1      20.795  36.342  13.617  0.00  0.00    +0.292 HD
ENDBRANCH   2  21
BRANCH   1  23
ATOM     23  C5  UNL     1      17.037  36.231  13.145  0.00  0.00    +0.127 C 
BRANCH  23  28
ATOM     24  C1  UNL     1      16.118  41.549  15.175  0.00  0.00    +0.007 C 
ATOM     25  C2  UNL     1      15.947  40.181  14.519  0.00  0.00    -0.012 C 
ATOM     26  C3  UNL     1      16.907  40.013  13.338  0.00  0.00    +0.018 C 
ATOM     27  C4  UNL     1      16.816  38.606  12.743  0.00  0.00    +0.085 C 
ATOM     28  N1  UNL     1      17.088  37.579  13.766  0.00  0.00    -0.298 NA
ATOM     29  C22 UNL     1      16.097  37.681  14.859  0.00  0.00    +0.085 C 
ATOM     30  C23 UNL     1      16.168  39.053  15.532  0.00  0.00    +0.018 C 
ENDBRANCH  23  28
ENDBRANCH   1  23
TORSDOF 4
ENDMDL
