MODEL 1
REMARK VINA RESULT:    -4.110      0.000      0.000
REMARK INTER + INTRA:          -5.341
REMARK INTER:                  -5.071
REMARK INTRA:                  -0.271
REMARK UNBOUND:                -0.271
REMARK  Name = /home/vital/Documents/PhD_2021/Malaria_codes/data/pdb_ligands_mmv/ligand_66.pdb
REMARK  6 active torsions:
REMARK  status: ('A' for Active; 'I' for Inactive)
REMARK    1  A    between atoms: C1_1  and  O1_2
REMARK    2  A    between atoms: O1_2  and  C2_3
REMARK    3  A    between atoms: C6_7  and  C7_8
REMARK    4  A    between atoms: C8_9  and  C9_10
REMARK    5  A    between atoms: C17_21  and  O4_22
REMARK    6  A    between atoms: O4_22  and  C18_23
REMARK                            x       y       z     vdW  Elec       q    Type
REMARK                         _______ _______ _______ _____ _____    ______ ____
ROOT
ATOM      1  C7  UNL     1      15.103  28.400  21.022  0.00  0.00    +0.017 C 
ATOM      2  C8  UNL     1      14.238  27.807  20.186  0.00  0.00    +0.068 C 
ENDROOT
BRANCH   2   3
ATOM      3  C9  UNL     1      14.401  27.941  18.721  0.00  0.00    +0.224 A 
ATOM      4  N1  UNL     1      14.808  28.992  18.099  0.00  0.00    -0.173 NA
ATOM      5  C10 UNL     1      14.911  28.975  16.736  0.00  0.00    +0.284 A 
ATOM      6  O2  UNL     1      15.291  29.943  16.087  0.00  0.00    -0.265 OA
ATOM      7  C11 UNL     1      14.551  27.744  16.017  0.00  0.00    +0.084 A 
ATOM      8  C12 UNL     1      14.629  27.643  14.626  0.00  0.00    +0.017 A 
ATOM      9  C13 UNL     1      14.273  26.446  14.001  0.00  0.00    +0.001 A 
ATOM     10  C14 UNL     1      13.841  25.358  14.766  0.00  0.00    +0.004 A 
ATOM     11  C15 UNL     1      13.765  25.465  16.155  0.00  0.00    +0.047 A 
ATOM     12  C16 UNL     1      14.123  26.663  16.769  0.00  0.00    +0.143 A 
ATOM     13  O3  UNL     1      14.034  26.733  18.157  0.00  0.00    -0.437 OA
ENDBRANCH   2   3
BRANCH   1  18
ATOM     14  C2  UNL     1      15.626  27.286  24.623  0.00  0.00    +0.162 A 
ATOM     15  C3  UNL     1      14.737  28.131  25.289  0.00  0.00    +0.049 A 
ATOM     16  C4  UNL     1      13.976  29.059  24.574  0.00  0.00    +0.004 A 
ATOM     17  C5  UNL     1      14.098  29.153  23.187  0.00  0.00    +0.012 A 
ATOM     18  C6  UNL     1      14.999  28.336  22.492  0.00  0.00    +0.020 A 
ATOM     19  C17 UNL     1      15.765  27.408  23.226  0.00  0.00    +0.169 A 
BRANCH  14  21
ATOM     20  C1  UNL     1      16.631  26.470  26.627  0.00  0.00    +0.277 C 
ATOM     21  O1  UNL     1      16.398  26.331  25.232  0.00  0.00    -0.491 OA
ENDBRANCH  14  21
BRANCH  19  22
ATOM     22  O4  UNL     1      16.612  26.560  22.546  0.00  0.00    -0.491 OA
ATOM     23  C18 UNL     1      17.928  27.111  22.496  0.00  0.00    +0.277 C 
ENDBRANCH  19  22
ENDBRANCH   1  18
TORSDOF 4
ENDMDL
MODEL 2
REMARK VINA RESULT:    -3.981      4.228      7.411
REMARK INTER + INTRA:          -5.182
REMARK INTER:                  -4.864
REMARK INTRA:                  -0.318
REMARK UNBOUND:                -0.271
REMARK  Name = /home/vital/Documents/PhD_2021/Malaria_codes/data/pdb_ligands_mmv/ligand_66.pdb
REMARK  6 active torsions:
REMARK  status: ('A' for Active; 'I' for Inactive)
REMARK    1  A    between atoms: C1_1  and  O1_2
REMARK    2  A    between atoms: O1_2  and  C2_3
REMARK    3  A    between atoms: C6_7  and  C7_8
REMARK    4  A    between atoms: C8_9  and  C9_10
REMARK    5  A    between atoms: C17_21  and  O4_22
REMARK    6  A    between atoms: O4_22  and  C18_23
REMARK                            x       y       z     vdW  Elec       q    Type
REMARK                         _______ _______ _______ _____ _____    ______ ____
ROOT
ATOM      1  C7  UNL     1      14.713  28.662  16.012  0.00  0.00    +0.017 C 
ATOM      2  C8  UNL     1      15.705  29.541  15.808  0.00  0.00    +0.068 C 
ENDROOT
BRANCH   2   3
ATOM      3  C9  UNL     1      15.582  30.935  16.290  0.00  0.00    +0.224 A 
ATOM      4  N1  UNL     1      15.652  31.994  15.563  0.00  0.00    -0.173 NA
ATOM      5  C10 UNL     1      15.521  33.224  16.145  0.00  0.00    +0.284 A 
ATOM      6  O2  UNL     1      15.580  34.269  15.507  0.00  0.00    -0.265 OA
ATOM      7  C11 UNL     1      15.301  33.298  17.596  0.00  0.00    +0.084 A 
ATOM      8  C12 UNL     1      15.156  34.514  18.268  0.00  0.00    +0.017 A 
ATOM      9  C13 UNL     1      14.949  34.518  19.649  0.00  0.00    +0.001 A 
ATOM     10  C14 UNL     1      14.888  33.311  20.351  0.00  0.00    +0.004 A 
ATOM     11  C15 UNL     1      15.034  32.099  19.676  0.00  0.00    +0.047 A 
ATOM     12  C16 UNL     1      15.240  32.105  18.297  0.00  0.00    +0.143 A 
ATOM     13  O3  UNL     1      15.381  30.877  17.657  0.00  0.00    -0.437 OA
ENDBRANCH   2   3
BRANCH   1  18
ATOM     14  C2  UNL     1      14.772  24.857  16.041  0.00  0.00    +0.162 A 
ATOM     15  C3  UNL     1      14.908  24.588  14.678  0.00  0.00    +0.049 A 
ATOM     16  C4  UNL     1      14.976  25.635  13.756  0.00  0.00    +0.004 A 
ATOM     17  C5  UNL     1      14.905  26.961  14.186  0.00  0.00    +0.012 A 
ATOM     18  C6  UNL     1      14.745  27.264  15.545  0.00  0.00    +0.020 A 
ATOM     19  C17 UNL     1      14.672  26.197  16.463  0.00  0.00    +0.169 A 
BRANCH  14  21
ATOM     20  C1  UNL     1      15.853  23.059  17.177  0.00  0.00    +0.277 C 
ATOM     21  O1  UNL     1      14.719  23.901  17.022  0.00  0.00    -0.491 OA
ENDBRANCH  14  21
BRANCH  19  22
ATOM     22  O4  UNL     1      14.572  26.485  17.808  0.00  0.00    -0.491 OA
ATOM     23  C18 UNL     1      15.872  26.603  18.387  0.00  0.00    +0.277 C 
ENDBRANCH  19  22
ENDBRANCH   1  18
TORSDOF 4
ENDMDL
MODEL 3
REMARK VINA RESULT:    -3.977      2.122      8.119
REMARK INTER + INTRA:          -5.178
REMARK INTER:                  -4.957
REMARK INTRA:                  -0.220
REMARK UNBOUND:                -0.271
REMARK  Name = /home/vital/Documents/PhD_2021/Malaria_codes/data/pdb_ligands_mmv/ligand_66.pdb
REMARK  6 active torsions:
REMARK  status: ('A' for Active; 'I' for Inactive)
REMARK    1  A    between atoms: C1_1  and  O1_2
REMARK    2  A    between atoms: O1_2  and  C2_3
REMARK    3  A    between atoms: C6_7  and  C7_8
REMARK    4  A    between atoms: C8_9  and  C9_10
REMARK    5  A    between atoms: C17_21  and  O4_22
REMARK    6  A    between atoms: O4_22  and  C18_23
REMARK                            x       y       z     vdW  Elec       q    Type
REMARK                         _______ _______ _______ _____ _____    ______ ____
ROOT
ATOM      1  C7  UNL     1      14.710  28.217  19.043  0.00  0.00    +0.017 C 
ATOM      2  C8  UNL     1      13.690  28.507  19.865  0.00  0.00    +0.068 C 
ENDROOT
BRANCH   2   3
ATOM      3  C9  UNL     1      13.911  28.611  21.325  0.00  0.00    +0.224 A 
ATOM      4  N1  UNL     1      14.220  27.641  22.113  0.00  0.00    -0.173 NA
ATOM      5  C10 UNL     1      14.393  27.883  23.447  0.00  0.00    +0.284 A 
ATOM      6  O2  UNL     1      14.687  27.002  24.248  0.00  0.00    -0.265 OA
ATOM      7  C11 UNL     1      14.221  29.256  23.943  0.00  0.00    +0.084 A 
ATOM      8  C12 UNL     1      14.381  29.587  25.291  0.00  0.00    +0.017 A 
ATOM      9  C13 UNL     1      14.203  30.910  25.701  0.00  0.00    +0.001 A 
ATOM     10  C14 UNL     1      13.866  31.894  24.766  0.00  0.00    +0.004 A 
ATOM     11  C15 UNL     1      13.707  31.557  23.422  0.00  0.00    +0.047 A 
ATOM     12  C16 UNL     1      13.887  30.234  23.022  0.00  0.00    +0.143 A 
ATOM     13  O3  UNL     1      13.720  29.936  21.673  0.00  0.00    -0.437 OA
ENDBRANCH   2   3
BRANCH   1  18
ATOM     14  C2  UNL     1      14.154  26.659  15.616  0.00  0.00    +0.162 A 
ATOM     15  C3  UNL     1      14.403  27.755  14.788  0.00  0.00    +0.049 A 
ATOM     16  C4  UNL     1      14.744  28.992  15.339  0.00  0.00    +0.004 A 
ATOM     17  C5  UNL     1      14.837  29.148  16.723  0.00  0.00    +0.012 A 
ATOM     18  C6  UNL     1      14.572  28.073  17.582  0.00  0.00    +0.020 A 
ATOM     19  C17 UNL     1      14.222  26.832  17.013  0.00  0.00    +0.169 A 
BRANCH  14  21
ATOM     20  C1  UNL     1      14.737  24.781  14.267  0.00  0.00    +0.277 C 
ATOM     21  O1  UNL     1      13.835  25.403  15.171  0.00  0.00    -0.491 OA
ENDBRANCH  14  21
BRANCH  19  22
ATOM     22  O4  UNL     1      14.014  25.754  17.846  0.00  0.00    -0.491 OA
ATOM     23  C18 UNL     1      15.242  25.063  18.077  0.00  0.00    +0.277 C 
ENDBRANCH  19  22
ENDBRANCH   1  18
TORSDOF 4
ENDMDL
MODEL 4
REMARK VINA RESULT:    -3.963      4.394      7.622
REMARK INTER + INTRA:          -5.160
REMARK INTER:                  -4.925
REMARK INTRA:                  -0.235
REMARK UNBOUND:                -0.271
REMARK  Name = /home/vital/Documents/PhD_2021/Malaria_codes/data/pdb_ligands_mmv/ligand_66.pdb
REMARK  6 active torsions:
REMARK  status: ('A' for Active; 'I' for Inactive)
REMARK    1  A    between atoms: C1_1  and  O1_2
REMARK    2  A    between atoms: O1_2  and  C2_3
REMARK    3  A    between atoms: C6_7  and  C7_8
REMARK    4  A    between atoms: C8_9  and  C9_10
REMARK    5  A    between atoms: C17_21  and  O4_22
REMARK    6  A    between atoms: O4_22  and  C18_23
REMARK                            x       y       z     vdW  Elec       q    Type
REMARK                         _______ _______ _______ _____ _____    ______ ____
ROOT
ATOM      1  C7  UNL     1      14.775  28.489  16.467  0.00  0.00    +0.017 C 
ATOM      2  C8  UNL     1      15.559  29.532  16.160  0.00  0.00    +0.068 C 
ENDROOT
BRANCH   2   3
ATOM      3  C9  UNL     1      15.474  30.789  16.937  0.00  0.00    +0.224 A 
ATOM      4  N1  UNL     1      15.333  30.879  18.213  0.00  0.00    -0.173 NA
ATOM      5  C10 UNL     1      15.267  32.112  18.801  0.00  0.00    +0.284 A 
ATOM      6  O2  UNL     1      15.132  32.263  20.010  0.00  0.00    -0.265 OA
ATOM      7  C11 UNL     1      15.362  33.306  17.949  0.00  0.00    +0.084 A 
ATOM      8  C12 UNL     1      15.305  34.601  18.470  0.00  0.00    +0.017 A 
ATOM      9  C13 UNL     1      15.401  35.695  17.608  0.00  0.00    +0.001 A 
ATOM     10  C14 UNL     1      15.553  35.492  16.233  0.00  0.00    +0.004 A 
ATOM     11  C15 UNL     1      15.609  34.197  15.718  0.00  0.00    +0.047 A 
ATOM     12  C16 UNL     1      15.512  33.111  16.586  0.00  0.00    +0.143 A 
ATOM     13  O3  UNL     1      15.572  31.834  16.036  0.00  0.00    -0.437 OA
ENDBRANCH   2   3
BRANCH   1  18
ATOM     14  C2  UNL     1      14.849  24.756  15.735  0.00  0.00    +0.162 A 
ATOM     15  C3  UNL     1      14.895  24.764  14.340  0.00  0.00    +0.049 A 
ATOM     16  C4  UNL     1      14.897  25.974  13.642  0.00  0.00    +0.004 A 
ATOM     17  C5  UNL     1      14.851  27.187  14.331  0.00  0.00    +0.012 A 
ATOM     18  C6  UNL     1      14.781  27.212  15.730  0.00  0.00    +0.020 A 
ATOM     19  C17 UNL     1      14.773  25.984  16.421  0.00  0.00    +0.169 A 
BRANCH  14  21
ATOM     20  C1  UNL     1      15.979  22.753  16.372  0.00  0.00    +0.277 C 
ATOM     21  O1  UNL     1      14.864  23.624  16.509  0.00  0.00    -0.491 OA
ENDBRANCH  14  21
BRANCH  19  22
ATOM     22  O4  UNL     1      14.761  25.997  17.800  0.00  0.00    -0.491 OA
ATOM     23  C18 UNL     1      16.093  25.905  18.307  0.00  0.00    +0.277 C 
ENDBRANCH  19  22
ENDBRANCH   1  18
TORSDOF 4
ENDMDL
MODEL 5
REMARK VINA RESULT:    -3.896      4.564      7.752
REMARK INTER + INTRA:          -5.079
REMARK INTER:                  -4.756
REMARK INTRA:                  -0.323
REMARK UNBOUND:                -0.271
REMARK  Name = /home/vital/Documents/PhD_2021/Malaria_codes/data/pdb_ligands_mmv/ligand_66.pdb
REMARK  6 active torsions:
REMARK  status: ('A' for Active; 'I' for Inactive)
REMARK    1  A    between atoms: C1_1  and  O1_2
REMARK    2  A    between atoms: O1_2  and  C2_3
REMARK    3  A    between atoms: C6_7  and  C7_8
REMARK    4  A    between atoms: C8_9  and  C9_10
REMARK    5  A    between atoms: C17_21  and  O4_22
REMARK    6  A    between atoms: O4_22  and  C18_23
REMARK                            x       y       z     vdW  Elec       q    Type
REMARK                         _______ _______ _______ _____ _____    ______ ____
ROOT
ATOM      1  C7  UNL     1      15.846  28.290  15.427  0.00  0.00    +0.017 C 
ATOM      2  C8  UNL     1      14.947  27.303  15.557  0.00  0.00    +0.068 C 
ENDROOT
BRANCH   2   3
ATOM      3  C9  UNL     1      15.358  25.978  16.072  0.00  0.00    +0.224 A 
ATOM      4  N1  UNL     1      15.184  24.850  15.478  0.00  0.00    -0.173 NA
ATOM      5  C10 UNL     1      15.615  23.698  16.074  0.00  0.00    +0.284 A 
ATOM      6  O2  UNL     1      15.478  22.594  15.560  0.00  0.00    -0.265 OA
ATOM      7  C11 UNL     1      16.271  23.786  17.387  0.00  0.00    +0.084 A 
ATOM      8  C12 UNL     1      16.742  22.657  18.063  0.00  0.00    +0.017 A 
ATOM      9  C13 UNL     1      17.356  22.806  19.308  0.00  0.00    +0.001 A 
ATOM     10  C14 UNL     1      17.497  24.078  19.871  0.00  0.00    +0.004 A 
ATOM     11  C15 UNL     1      17.026  25.201  19.192  0.00  0.00    +0.047 A 
ATOM     12  C16 UNL     1      16.414  25.042  17.950  0.00  0.00    +0.143 A 
ATOM     13  O3  UNL     1      15.956  26.186  17.302  0.00  0.00    -0.437 OA
ENDBRANCH   2   3
BRANCH   1  18
ATOM     14  C2  UNL     1      15.448  32.067  15.199  0.00  0.00    +0.162 A 
ATOM     15  C3  UNL     1      14.826  32.190  13.956  0.00  0.00    +0.049 A 
ATOM     16  C4  UNL     1      14.542  31.053  13.195  0.00  0.00    +0.004 A 
ATOM     17  C5  UNL     1      14.879  29.784  13.668  0.00  0.00    +0.012 A 
ATOM     18  C6  UNL     1      15.525  29.630  14.901  0.00  0.00    +0.020 A 
ATOM     19  C17 UNL     1      15.811  30.785  15.655  0.00  0.00    +0.169 A 
BRANCH  14  21
ATOM     20  C1  UNL     1      16.394  34.243  15.448  0.00  0.00    +0.277 C 
ATOM     21  O1  UNL     1      15.748  33.118  16.027  0.00  0.00    -0.491 OA
ENDBRANCH  14  21
BRANCH  19  22
ATOM     22  O4  UNL     1      16.396  30.641  16.896  0.00  0.00    -0.491 OA
ATOM     23  C18 UNL     1      17.816  30.753  16.790  0.00  0.00    +0.277 C 
ENDBRANCH  19  22
ENDBRANCH   1  18
TORSDOF 4
ENDMDL
MODEL 6
REMARK VINA RESULT:    -3.835      2.699      3.760
REMARK INTER + INTRA:          -5.003
REMARK INTER:                  -4.667
REMARK INTRA:                  -0.336
REMARK UNBOUND:                -0.271
REMARK  Name = /home/vital/Documents/PhD_2021/Malaria_codes/data/pdb_ligands_mmv/ligand_66.pdb
REMARK  6 active torsions:
REMARK  status: ('A' for Active; 'I' for Inactive)
REMARK    1  A    between atoms: C1_1  and  O1_2
REMARK    2  A    between atoms: O1_2  and  C2_3
REMARK    3  A    between atoms: C6_7  and  C7_8
REMARK    4  A    between atoms: C8_9  and  C9_10
REMARK    5  A    between atoms: C17_21  and  O4_22
REMARK    6  A    between atoms: O4_22  and  C18_23
REMARK                            x       y       z     vdW  Elec       q    Type
REMARK                         _______ _______ _______ _____ _____    ______ ____
ROOT
ATOM      1  C7  UNL     1      14.656  28.562  19.907  0.00  0.00    +0.017 C 
ATOM      2  C8  UNL     1      13.914  27.561  19.410  0.00  0.00    +0.068 C 
ENDROOT
BRANCH   2   3
ATOM      3  C9  UNL     1      14.201  27.011  18.067  0.00  0.00    +0.224 A 
ATOM      4  N1  UNL     1      14.247  25.762  17.757  0.00  0.00    -0.173 NA
ATOM      5  C10 UNL     1      14.526  25.395  16.470  0.00  0.00    +0.284 A 
ATOM      6  O2  UNL     1      14.586  24.224  16.113  0.00  0.00    -0.265 OA
ATOM      7  C11 UNL     1      14.765  26.448  15.472  0.00  0.00    +0.084 A 
ATOM      8  C12 UNL     1      15.055  26.157  14.136  0.00  0.00    +0.017 A 
ATOM      9  C13 UNL     1      15.272  27.202  13.236  0.00  0.00    +0.001 A 
ATOM     10  C14 UNL     1      15.199  28.529  13.671  0.00  0.00    +0.004 A 
ATOM     11  C15 UNL     1      14.910  28.813  15.006  0.00  0.00    +0.047 A 
ATOM     12  C16 UNL     1      14.694  27.763  15.897  0.00  0.00    +0.143 A 
ATOM     13  O3  UNL     1      14.408  28.085  17.221  0.00  0.00    -0.437 OA
ENDBRANCH   2   3
BRANCH   1  18
ATOM     14  C2  UNL     1      14.652  31.103  22.739  0.00  0.00    +0.162 A 
ATOM     15  C3  UNL     1      14.077  30.350  23.765  0.00  0.00    +0.049 A 
ATOM     16  C4  UNL     1      13.690  29.028  23.536  0.00  0.00    +0.004 A 
ATOM     17  C5  UNL     1      13.870  28.446  22.280  0.00  0.00    +0.012 A 
ATOM     18  C6  UNL     1      14.423  29.182  21.224  0.00  0.00    +0.020 A 
ATOM     19  C17 UNL     1      14.803  30.517  21.467  0.00  0.00    +0.169 A 
BRANCH  14  21
ATOM     20  C1  UNL     1      14.144  33.355  23.340  0.00  0.00    +0.277 C 
ATOM     21  O1  UNL     1      15.083  32.398  22.871  0.00  0.00    -0.491 OA
ENDBRANCH  14  21
BRANCH  19  22
ATOM     22  O4  UNL     1      15.400  31.233  20.451  0.00  0.00    -0.491 OA
ATOM     23  C18 UNL     1      14.419  31.983  19.732  0.00  0.00    +0.277 C 
ENDBRANCH  19  22
ENDBRANCH   1  18
TORSDOF 4
ENDMDL
MODEL 7
REMARK VINA RESULT:    -3.757      1.717      2.687
REMARK INTER + INTRA:          -4.906
REMARK INTER:                  -4.614
REMARK INTRA:                  -0.292
REMARK UNBOUND:                -0.271
REMARK  Name = /home/vital/Documents/PhD_2021/Malaria_codes/data/pdb_ligands_mmv/ligand_66.pdb
REMARK  6 active torsions:
REMARK  status: ('A' for Active; 'I' for Inactive)
REMARK    1  A    between atoms: C1_1  and  O1_2
REMARK    2  A    between atoms: O1_2  and  C2_3
REMARK    3  A    between atoms: C6_7  and  C7_8
REMARK    4  A    between atoms: C8_9  and  C9_10
REMARK    5  A    between atoms: C17_21  and  O4_22
REMARK    6  A    between atoms: O4_22  and  C18_23
REMARK                            x       y       z     vdW  Elec       q    Type
REMARK                         _______ _______ _______ _____ _____    ______ ____
ROOT
ATOM      1  C7  UNL     1      14.686  28.785  19.947  0.00  0.00    +0.017 C 
ATOM      2  C8  UNL     1      13.705  28.187  19.256  0.00  0.00    +0.068 C 
ENDROOT
BRANCH   2   3
ATOM      3  C9  UNL     1      13.996  27.511  17.972  0.00  0.00    +0.224 A 
ATOM      4  N1  UNL     1      13.815  26.262  17.717  0.00  0.00    -0.173 NA
ATOM      5  C10 UNL     1      14.131  25.771  16.482  0.00  0.00    +0.284 A 
ATOM      6  O2  UNL     1      13.982  24.593  16.178  0.00  0.00    -0.265 OA
ATOM      7  C11 UNL     1      14.672  26.693  15.473  0.00  0.00    +0.084 A 
ATOM      8  C12 UNL     1      15.019  26.272  14.187  0.00  0.00    +0.017 A 
ATOM      9  C13 UNL     1      15.529  27.197  13.273  0.00  0.00    +0.001 A 
ATOM     10  C14 UNL     1      15.690  28.535  13.647  0.00  0.00    +0.004 A 
ATOM     11  C15 UNL     1      15.342  28.950  14.933  0.00  0.00    +0.047 A 
ATOM     12  C16 UNL     1      14.834  28.019  15.837  0.00  0.00    +0.143 A 
ATOM     13  O3  UNL     1      14.498  28.470  17.111  0.00  0.00    -0.437 OA
ENDBRANCH   2   3
BRANCH   1  18
ATOM     14  C2  UNL     1      14.522  29.520  23.676  0.00  0.00    +0.162 A 
ATOM     15  C3  UNL     1      13.989  30.811  23.665  0.00  0.00    +0.049 A 
ATOM     16  C4  UNL     1      13.690  31.438  22.454  0.00  0.00    +0.004 A 
ATOM     17  C5  UNL     1      13.922  30.785  21.243  0.00  0.00    +0.012 A 
ATOM     18  C6  UNL     1      14.478  29.499  21.220  0.00  0.00    +0.020 A 
ATOM     19  C17 UNL     1      14.781  28.879  22.449  0.00  0.00    +0.169 A 
BRANCH  14  21
ATOM     20  C1  UNL     1      14.680  29.481  26.056  0.00  0.00    +0.277 C 
ATOM     21  O1  UNL     1      14.828  28.814  24.811  0.00  0.00    -0.491 OA
ENDBRANCH  14  21
BRANCH  19  22
ATOM     22  O4  UNL     1      15.274  27.592  22.440  0.00  0.00    -0.491 OA
ATOM     23  C18 UNL     1      16.702  27.610  22.469  0.00  0.00    +0.277 C 
ENDBRANCH  19  22
ENDBRANCH   1  18
TORSDOF 4
ENDMDL
MODEL 8
REMARK VINA RESULT:    -3.752      4.980      8.649
REMARK INTER + INTRA:          -4.900
REMARK INTER:                  -4.610
REMARK INTRA:                  -0.291
REMARK UNBOUND:                -0.271
REMARK  Name = /home/vital/Documents/PhD_2021/Malaria_codes/data/pdb_ligands_mmv/ligand_66.pdb
REMARK  6 active torsions:
REMARK  status: ('A' for Active; 'I' for Inactive)
REMARK    1  A    between atoms: C1_1  and  O1_2
REMARK    2  A    between atoms: O1_2  and  C2_3
REMARK    3  A    between atoms: C6_7  and  C7_8
REMARK    4  A    between atoms: C8_9  and  C9_10
REMARK    5  A    between atoms: C17_21  and  O4_22
REMARK    6  A    between atoms: O4_22  and  C18_23
REMARK                            x       y       z     vdW  Elec       q    Type
REMARK                         _______ _______ _______ _____ _____    ______ ____
ROOT
ATOM      1  C7  UNL     1      15.917  29.378  14.175  0.00  0.00    +0.017 C 
ATOM      2  C8  UNL     1      14.974  28.449  13.957  0.00  0.00    +0.068 C 
ENDROOT
BRANCH   2   3
ATOM      3  C9  UNL     1      15.067  27.121  14.603  0.00  0.00    +0.224 A 
ATOM      4  N1  UNL     1      14.662  26.007  14.102  0.00  0.00    -0.173 NA
ATOM      5  C10 UNL     1      14.810  24.850  14.814  0.00  0.00    +0.284 A 
ATOM      6  O2  UNL     1      14.444  23.760  14.392  0.00  0.00    -0.265 OA
ATOM      7  C11 UNL     1      15.437  24.916  16.143  0.00  0.00    +0.084 A 
ATOM      8  C12 UNL     1      15.627  23.780  16.934  0.00  0.00    +0.017 A 
ATOM      9  C13 UNL     1      16.228  23.908  18.188  0.00  0.00    +0.001 A 
ATOM     10  C14 UNL     1      16.636  25.165  18.645  0.00  0.00    +0.004 A 
ATOM     11  C15 UNL     1      16.443  26.296  17.851  0.00  0.00    +0.047 A 
ATOM     12  C16 UNL     1      15.842  26.158  16.601  0.00  0.00    +0.143 A 
ATOM     13  O3  UNL     1      15.666  27.308  15.836  0.00  0.00    -0.437 OA
ENDBRANCH   2   3
BRANCH   1  18
ATOM     14  C2  UNL     1      17.055  32.833  13.060  0.00  0.00    +0.162 A 
ATOM     15  C3  UNL     1      15.888  33.312  12.462  0.00  0.00    +0.049 A 
ATOM     16  C4  UNL     1      14.741  32.516  12.417  0.00  0.00    +0.004 A 
ATOM     17  C5  UNL     1      14.750  31.233  12.967  0.00  0.00    +0.012 A 
ATOM     18  C6  UNL     1      15.912  30.715  13.554  0.00  0.00    +0.020 A 
ATOM     19  C17 UNL     1      17.064  31.527  13.587  0.00  0.00    +0.169 A 
BRANCH  14  21
ATOM     20  C1  UNL     1      18.148  34.831  13.773  0.00  0.00    +0.277 C 
ATOM     21  O1  UNL     1      18.221  33.545  13.173  0.00  0.00    -0.491 OA
ENDBRANCH  14  21
BRANCH  19  22
ATOM     22  O4  UNL     1      18.196  31.049  14.212  0.00  0.00    -0.491 OA
ATOM     23  C18 UNL     1      18.208  31.446  15.584  0.00  0.00    +0.277 C 
ENDBRANCH  19  22
ENDBRANCH   1  18
TORSDOF 4
ENDMDL
MODEL 9
REMARK VINA RESULT:    -3.664      2.352      8.234
REMARK INTER + INTRA:          -4.792
REMARK INTER:                  -4.498
REMARK INTRA:                  -0.295
REMARK UNBOUND:                -0.271
REMARK  Name = /home/vital/Documents/PhD_2021/Malaria_codes/data/pdb_ligands_mmv/ligand_66.pdb
REMARK  6 active torsions:
REMARK  status: ('A' for Active; 'I' for Inactive)
REMARK    1  A    between atoms: C1_1  and  O1_2
REMARK    2  A    between atoms: O1_2  and  C2_3
REMARK    3  A    between atoms: C6_7  and  C7_8
REMARK    4  A    between atoms: C8_9  and  C9_10
REMARK    5  A    between atoms: C17_21  and  O4_22
REMARK    6  A    between atoms: O4_22  and  C18_23
REMARK                            x       y       z     vdW  Elec       q    Type
REMARK                         _______ _______ _______ _____ _____    ______ ____
ROOT
ATOM      1  C7  UNL     1      14.548  28.360  18.252  0.00  0.00    +0.017 C 
ATOM      2  C8  UNL     1      13.690  27.877  19.163  0.00  0.00    +0.068 C 
ENDROOT
BRANCH   2   3
ATOM      3  C9  UNL     1      13.728  28.364  20.560  0.00  0.00    +0.224 A 
ATOM      4  N1  UNL     1      13.782  27.628  21.615  0.00  0.00    -0.173 NA
ATOM      5  C10 UNL     1      13.811  28.215  22.849  0.00  0.00    +0.284 A 
ATOM      6  O2  UNL     1      13.861  27.570  23.889  0.00  0.00    -0.265 OA
ATOM      7  C11 UNL     1      13.780  29.683  22.932  0.00  0.00    +0.084 A 
ATOM      8  C12 UNL     1      13.808  30.361  24.153  0.00  0.00    +0.017 A 
ATOM      9  C13 UNL     1      13.776  31.757  24.167  0.00  0.00    +0.001 A 
ATOM     10  C14 UNL     1      13.718  32.468  22.964  0.00  0.00    +0.004 A 
ATOM     11  C15 UNL     1      13.690  31.785  21.747  0.00  0.00    +0.047 A 
ATOM     12  C16 UNL     1      13.722  30.392  21.745  0.00  0.00    +0.143 A 
ATOM     13  O3  UNL     1      13.693  29.746  20.512  0.00  0.00    -0.437 OA
ENDBRANCH   2   3
BRANCH   1  18
ATOM     14  C2  UNL     1      15.430  28.192  14.554  0.00  0.00    +0.162 A 
ATOM     15  C3  UNL     1      14.613  27.139  14.139  0.00  0.00    +0.049 A 
ATOM     16  C4  UNL     1      13.785  26.485  15.055  0.00  0.00    +0.004 A 
ATOM     17  C5  UNL     1      13.767  26.875  16.395  0.00  0.00    +0.012 A 
ATOM     18  C6  UNL     1      14.592  27.913  16.848  0.00  0.00    +0.020 A 
ATOM     19  C17 UNL     1      15.427  28.560  15.914  0.00  0.00    +0.169 A 
BRANCH  14  21
ATOM     20  C1  UNL     1      15.713  29.380  12.505  0.00  0.00    +0.277 C 
ATOM     21  O1  UNL     1      16.258  28.907  13.729  0.00  0.00    -0.491 OA
ENDBRANCH  14  21
BRANCH  19  22
ATOM     22  O4  UNL     1      16.201  29.620  16.337  0.00  0.00    -0.491 OA
ATOM     23  C18 UNL     1      17.518  29.172  16.661  0.00  0.00    +0.277 C 
ENDBRANCH  19  22
ENDBRANCH   1  18
TORSDOF 4
ENDMDL
