MODEL 1
REMARK VINA RESULT:    -3.137      0.000      0.000
REMARK INTER + INTRA:          -7.730
REMARK INTER:                  -4.788
REMARK INTRA:                  -2.942
REMARK UNBOUND:                -2.942
REMARK  Name = /home/vital/Documents/PhD_2021/Malaria_codes/data/pdb_ligands_mmv/ligand_123.pdb
REMARK  11 active torsions:
REMARK  status: ('A' for Active; 'I' for Inactive)
REMARK    1  A    between atoms: C1_1  and  C2_2
REMARK    2  A    between atoms: C2_2  and  C3_3
REMARK    3  A    between atoms: C2_2  and  N1_8
REMARK    4  A    between atoms: C3_3  and  C4_4
REMARK    5  A    between atoms: C4_4  and  C5_5
REMARK    6  A    between atoms: C5_5  and  C7_7
REMARK    7  A    between atoms: C10_11  and  N2_14
REMARK    8  A    between atoms: C15_17  and  C18_20
REMARK    9  A    between atoms: N3_22  and  C19_23
REMARK   10  A    between atoms: C19_23  and  C20_24
REMARK   11  A    between atoms: C20_24  and  C21_25
REMARK                            x       y       z     vdW  Elec       q    Type
REMARK                         _______ _______ _______ _____ _____    ______ ____
ROOT
ATOM      1  N2  UNL     1      20.530  42.282  17.189  0.00  0.00    -0.299 NA
ATOM      2  C13 UNL     1      20.650  41.284  16.113  0.00  0.00    +0.085 C 
ATOM      3  C14 UNL     1      19.374  40.453  15.993  0.00  0.00    +0.028 C 
ATOM      4  C15 UNL     1      19.030  39.786  17.326  0.00  0.00    +0.077 C 
ATOM      5  C16 UNL     1      18.998  40.819  18.452  0.00  0.00    +0.028 C 
ATOM      6  C17 UNL     1      20.295  41.633  18.488  0.00  0.00    +0.085 C 
ENDROOT
BRANCH   1  10
ATOM      7  N1  UNL     1      24.417  44.229  17.632  0.00  0.00    -0.300 NA
ATOM      8  C8  UNL     1      23.286  44.624  18.477  0.00  0.00    +0.086 C 
ATOM      9  C9  UNL     1      22.199  43.552  18.582  0.00  0.00    +0.034 C 
ATOM     10  C10 UNL     1      21.664  43.237  17.177  0.00  0.00    +0.059 C 
ATOM     11  C11 UNL     1      22.807  42.922  16.189  0.00  0.00    +0.034 C 
ATOM     12  C12 UNL     1      24.199  43.047  16.807  0.00  0.00    +0.086 C 
BRANCH   7  14
ATOM     13  C1  UNL     1      26.452  45.696  17.741  0.00  0.00    +0.024 C 
ATOM     14  C2  UNL     1      25.130  45.369  17.034  0.00  0.00    +0.054 C 
BRANCH  14  15
ATOM     15  C3  UNL     1      24.252  46.641  16.956  0.00  0.00    +0.023 C 
BRANCH  15  16
ATOM     16  C4  UNL     1      23.780  47.008  15.540  0.00  0.00    +0.031 C 
BRANCH  16  17
ATOM     17  C5  UNL     1      22.385  46.597  15.107  0.00  0.00    -0.080 C 
ATOM     18  C6  UNL     1      22.074  46.000  13.943  0.00  0.00    +0.007 C 
ATOM     19  C7  UNL     1      21.305  46.927  16.105  0.00  0.00    +0.038 C 
ENDBRANCH  16  17
ENDBRANCH  15  16
ENDBRANCH  14  15
ENDBRANCH   7  14
ENDBRANCH   1  10
BRANCH   4  20
ATOM     20  C18 UNL     1      17.730  38.999  17.237  0.00  0.00    +0.216 C 
ATOM     21  O1  UNL     1      17.715  37.844  16.822  0.00  0.00    -0.276 OA
ATOM     22  N3  UNL     1      16.603  39.670  17.653  0.00  0.00    -0.315 N 
ATOM     23  H32 UNL     1      16.690  40.625  17.977  0.00  0.00    +0.149 HD
BRANCH  22  24
ATOM     24  C19 UNL     1      15.268  39.137  17.453  0.00  0.00    +0.109 C 
BRANCH  24  25
ATOM     25  C20 UNL     1      14.450  39.984  16.471  0.00  0.00    +0.054 C 
BRANCH  25  26
ATOM     26  C21 UNL     1      15.237  40.482  15.280  0.00  0.00    -0.046 A 
ATOM     27  C22 UNL     1      15.778  41.776  15.272  0.00  0.00    +0.004 A 
ATOM     28  C23 UNL     1      16.493  42.239  14.165  0.00  0.00    +0.000 A 
ATOM     29  C24 UNL     1      16.679  41.414  13.058  0.00  0.00    +0.000 A 
ATOM     30  C25 UNL     1      16.150  40.123  13.055  0.00  0.00    +0.000 A 
ATOM     31  C26 UNL     1      15.434  39.658  14.162  0.00  0.00    +0.004 A 
ENDBRANCH  25  26
ENDBRANCH  24  25
ENDBRANCH  22  24
ENDBRANCH   4  20
TORSDOF 9
ENDMDL
MODEL 2
REMARK VINA RESULT:    -3.022      6.483     11.549
REMARK INTER + INTRA:          -7.554
REMARK INTER:                  -4.787
REMARK INTRA:                  -2.767
REMARK UNBOUND:                -2.942
REMARK  Name = /home/vital/Documents/PhD_2021/Malaria_codes/data/pdb_ligands_mmv/ligand_123.pdb
REMARK  11 active torsions:
REMARK  status: ('A' for Active; 'I' for Inactive)
REMARK    1  A    between atoms: C1_1  and  C2_2
REMARK    2  A    between atoms: C2_2  and  C3_3
REMARK    3  A    between atoms: C2_2  and  N1_8
REMARK    4  A    between atoms: C3_3  and  C4_4
REMARK    5  A    between atoms: C4_4  and  C5_5
REMARK    6  A    between atoms: C5_5  and  C7_7
REMARK    7  A    between atoms: C10_11  and  N2_14
REMARK    8  A    between atoms: C15_17  and  C18_20
REMARK    9  A    between atoms: N3_22  and  C19_23
REMARK   10  A    between atoms: C19_23  and  C20_24
REMARK   11  A    between atoms: C20_24  and  C21_25
REMARK                            x       y       z     vdW  Elec       q    Type
REMARK                         _______ _______ _______ _____ _____    ______ ____
ROOT
ATOM      1  N2  UNL     1      27.852  44.236  15.995  0.00  0.00    -0.299 NA
ATOM      2  C13 UNL     1      28.079  42.796  16.206  0.00  0.00    +0.085 C 
ATOM      3  C14 UNL     1      29.406  42.355  15.593  0.00  0.00    +0.028 C 
ATOM      4  C15 UNL     1      29.464  42.709  14.105  0.00  0.00    +0.077 C 
ATOM      5  C16 UNL     1      29.137  44.187  13.891  0.00  0.00    +0.028 C 
ATOM      6  C17 UNL     1      27.812  44.560  14.561  0.00  0.00    +0.085 C 
ENDROOT
BRANCH   1  10
ATOM      7  N1  UNL     1      24.972  45.203  19.136  0.00  0.00    -0.300 NA
ATOM      8  C8  UNL     1      24.664  44.180  18.132  0.00  0.00    +0.086 C 
ATOM      9  C9  UNL     1      25.906  43.594  17.456  0.00  0.00    +0.034 C 
ATOM     10  C10 UNL     1      26.685  44.725  16.768  0.00  0.00    +0.059 C 
ATOM     11  C11 UNL     1      26.953  45.901  17.730  0.00  0.00    +0.034 C 
ATOM     12  C12 UNL     1      26.340  45.705  19.118  0.00  0.00    +0.086 C 
BRANCH   7  14
ATOM     13  C1  UNL     1      23.216  46.045  20.720  0.00  0.00    +0.024 C 
ATOM     14  C2  UNL     1      23.883  46.170  19.344  0.00  0.00    +0.054 C 
BRANCH  14  15
ATOM     15  C3  UNL     1      22.805  46.094  18.235  0.00  0.00    +0.023 C 
BRANCH  15  16
ATOM     16  C4  UNL     1      22.825  47.269  17.243  0.00  0.00    +0.031 C 
BRANCH  16  17
ATOM     17  C5  UNL     1      23.084  46.980  15.775  0.00  0.00    -0.080 C 
ATOM     18  C6  UNL     1      24.250  47.178  15.136  0.00  0.00    +0.007 C 
ATOM     19  C7  UNL     1      21.890  46.442  15.031  0.00  0.00    +0.038 C 
ENDBRANCH  16  17
ENDBRANCH  15  16
ENDBRANCH  14  15
ENDBRANCH   7  14
ENDBRANCH   1  10
BRANCH   4  20
ATOM     20  C18 UNL     1      30.804  42.326  13.493  0.00  0.00    +0.216 C 
ATOM     21  O1  UNL     1      31.206  41.167  13.521  0.00  0.00    -0.276 OA
ATOM     22  N3  UNL     1      31.506  43.358  12.914  0.00  0.00    -0.315 N 
ATOM     23  H32 UNL     1      31.116  44.291  12.933  0.00  0.00    +0.149 HD
BRANCH  22  24
ATOM     24  C19 UNL     1      32.876  43.202  12.460  0.00  0.00    +0.109 C 
BRANCH  24  25
ATOM     25  C20 UNL     1      33.860  44.018  13.306  0.00  0.00    +0.054 C 
BRANCH  25  26
ATOM     26  C21 UNL     1      33.452  44.171  14.754  0.00  0.00    -0.046 A 
ATOM     27  C22 UNL     1      33.723  43.156  15.683  0.00  0.00    +0.004 A 
ATOM     28  C23 UNL     1      33.334  43.293  17.018  0.00  0.00    +0.000 A 
ATOM     29  C24 UNL     1      32.674  44.446  17.438  0.00  0.00    +0.000 A 
ATOM     30  C25 UNL     1      32.403  45.466  16.525  0.00  0.00    +0.000 A 
ATOM     31  C26 UNL     1      32.792  45.330  15.190  0.00  0.00    +0.004 A 
ENDBRANCH  25  26
ENDBRANCH  24  25
ENDBRANCH  22  24
ENDBRANCH   4  20
TORSDOF 9
ENDMDL
MODEL 3
REMARK VINA RESULT:    -2.914      1.278      1.791
REMARK INTER + INTRA:          -7.390
REMARK INTER:                  -4.572
REMARK INTRA:                  -2.818
REMARK UNBOUND:                -2.942
REMARK  Name = /home/vital/Documents/PhD_2021/Malaria_codes/data/pdb_ligands_mmv/ligand_123.pdb
REMARK  11 active torsions:
REMARK  status: ('A' for Active; 'I' for Inactive)
REMARK    1  A    between atoms: C1_1  and  C2_2
REMARK    2  A    between atoms: C2_2  and  C3_3
REMARK    3  A    between atoms: C2_2  and  N1_8
REMARK    4  A    between atoms: C3_3  and  C4_4
REMARK    5  A    between atoms: C4_4  and  C5_5
REMARK    6  A    between atoms: C5_5  and  C7_7
REMARK    7  A    between atoms: C10_11  and  N2_14
REMARK    8  A    between atoms: C15_17  and  C18_20
REMARK    9  A    between atoms: N3_22  and  C19_23
REMARK   10  A    between atoms: C19_23  and  C20_24
REMARK   11  A    between atoms: C20_24  and  C21_25
REMARK                            x       y       z     vdW  Elec       q    Type
REMARK                         _______ _______ _______ _____ _____    ______ ____
ROOT
ATOM      1  N2  UNL     1      20.823  42.014  16.119  0.00  0.00    -0.299 NA
ATOM      2  C13 UNL     1      21.166  40.595  15.928  0.00  0.00    +0.085 C 
ATOM      3  C14 UNL     1      19.913  39.721  15.950  0.00  0.00    +0.028 C 
ATOM      4  C15 UNL     1      19.127  39.927  17.247  0.00  0.00    +0.077 C 
ATOM      5  C16 UNL     1      18.856  41.414  17.480  0.00  0.00    +0.028 C 
ATOM      6  C17 UNL     1      20.152  42.226  17.411  0.00  0.00    +0.085 C 
ENDROOT
BRANCH   1  10
ATOM      7  N1  UNL     1      24.668  43.691  14.898  0.00  0.00    -0.300 NA
ATOM      8  C8  UNL     1      24.405  43.380  16.306  0.00  0.00    +0.086 C 
ATOM      9  C9  UNL     1      23.287  42.355  16.506  0.00  0.00    +0.034 C 
ATOM     10  C10 UNL     1      21.991  42.896  15.882  0.00  0.00    +0.059 C 
ATOM     11  C11 UNL     1      22.208  43.357  14.426  0.00  0.00    +0.034 C 
ATOM     12  C12 UNL     1      23.658  43.228  13.956  0.00  0.00    +0.086 C 
BRANCH   7  14
ATOM     13  C1  UNL     1      26.683  44.988  14.149  0.00  0.00    +0.024 C 
ATOM     14  C2  UNL     1      25.248  45.028  14.690  0.00  0.00    +0.054 C 
BRANCH  14  15
ATOM     15  C3  UNL     1      25.198  45.900  15.968  0.00  0.00    +0.023 C 
BRANCH  15  16
ATOM     16  C4  UNL     1      24.240  47.099  15.888  0.00  0.00    +0.031 C 
BRANCH  16  17
ATOM     17  C5  UNL     1      22.786  46.898  16.272  0.00  0.00    -0.080 C 
ATOM     18  C6  UNL     1      21.753  46.836  15.414  0.00  0.00    +0.007 C 
ATOM     19  C7  UNL     1      22.550  46.780  17.756  0.00  0.00    +0.038 C 
ENDBRANCH  16  17
ENDBRANCH  15  16
ENDBRANCH  14  15
ENDBRANCH   7  14
ENDBRANCH   1  10
BRANCH   4  20
ATOM     20  C18 UNL     1      17.846  39.104  17.259  0.00  0.00    +0.216 C 
ATOM     21  O1  UNL     1      17.863  37.903  17.011  0.00  0.00    -0.276 OA
ATOM     22  N3  UNL     1      16.700  39.800  17.568  0.00  0.00    -0.315 N 
ATOM     23  H32 UNL     1      16.761  40.792  17.755  0.00  0.00    +0.149 HD
BRANCH  22  24
ATOM     24  C19 UNL     1      15.380  39.212  17.435  0.00  0.00    +0.109 C 
BRANCH  24  25
ATOM     25  C20 UNL     1      14.514  39.962  16.416  0.00  0.00    +0.054 C 
BRANCH  25  26
ATOM     26  C21 UNL     1      15.277  40.474  15.214  0.00  0.00    -0.046 A 
ATOM     27  C22 UNL     1      15.521  39.638  14.115  0.00  0.00    +0.004 A 
ATOM     28  C23 UNL     1      16.237  40.108  13.012  0.00  0.00    +0.000 A 
ATOM     29  C24 UNL     1      16.712  41.417  12.993  0.00  0.00    +0.000 A 
ATOM     30  C25 UNL     1      16.471  42.261  14.078  0.00  0.00    +0.000 A 
ATOM     31  C26 UNL     1      15.755  41.792  15.183  0.00  0.00    +0.004 A 
ENDBRANCH  25  26
ENDBRANCH  24  25
ENDBRANCH  22  24
ENDBRANCH   4  20
TORSDOF 9
ENDMDL
MODEL 4
REMARK VINA RESULT:    -2.914      5.192      8.370
REMARK INTER + INTRA:          -7.389
REMARK INTER:                  -4.507
REMARK INTRA:                  -2.882
REMARK UNBOUND:                -2.942
REMARK  Name = /home/vital/Documents/PhD_2021/Malaria_codes/data/pdb_ligands_mmv/ligand_123.pdb
REMARK  11 active torsions:
REMARK  status: ('A' for Active; 'I' for Inactive)
REMARK    1  A    between atoms: C1_1  and  C2_2
REMARK    2  A    between atoms: C2_2  and  C3_3
REMARK    3  A    between atoms: C2_2  and  N1_8
REMARK    4  A    between atoms: C3_3  and  C4_4
REMARK    5  A    between atoms: C4_4  and  C5_5
REMARK    6  A    between atoms: C5_5  and  C7_7
REMARK    7  A    between atoms: C10_11  and  N2_14
REMARK    8  A    between atoms: C15_17  and  C18_20
REMARK    9  A    between atoms: N3_22  and  C19_23
REMARK   10  A    between atoms: C19_23  and  C20_24
REMARK   11  A    between atoms: C20_24  and  C21_25
REMARK                            x       y       z     vdW  Elec       q    Type
REMARK                         _______ _______ _______ _____ _____    ______ ____
ROOT
ATOM      1  N2  UNL     1      27.313  45.354  17.941  0.00  0.00    -0.299 NA
ATOM      2  C13 UNL     1      27.037  44.232  17.027  0.00  0.00    +0.085 C 
ATOM      3  C14 UNL     1      25.536  44.074  16.793  0.00  0.00    +0.028 C 
ATOM      4  C15 UNL     1      24.793  43.900  18.120  0.00  0.00    +0.077 C 
ATOM      5  C16 UNL     1      25.158  45.021  19.092  0.00  0.00    +0.028 C 
ATOM      6  C17 UNL     1      26.677  45.139  19.249  0.00  0.00    +0.085 C 
ENDROOT
BRANCH   1  10
ATOM      7  N1  UNL     1      31.353  46.408  19.232  0.00  0.00    -0.300 NA
ATOM      8  C8  UNL     1      30.558  47.345  18.432  0.00  0.00    +0.086 C 
ATOM      9  C9  UNL     1      29.052  47.085  18.505  0.00  0.00    +0.034 C 
ATOM     10  C10 UNL     1      28.762  45.661  18.006  0.00  0.00    +0.059 C 
ATOM     11  C11 UNL     1      29.646  44.616  18.719  0.00  0.00    +0.034 C 
ATOM     12  C12 UNL     1      30.638  45.230  19.707  0.00  0.00    +0.086 C 
BRANCH   7  14
ATOM     13  C1  UNL     1      33.790  46.817  19.675  0.00  0.00    +0.024 C 
ATOM     14  C2  UNL     1      32.727  46.231  18.737  0.00  0.00    +0.054 C 
BRANCH  14  15
ATOM     15  C3  UNL     1      32.920  46.802  17.310  0.00  0.00    +0.023 C 
BRANCH  15  16
ATOM     16  C4  UNL     1      33.171  45.742  16.225  0.00  0.00    +0.031 C 
BRANCH  16  17
ATOM     17  C5  UNL     1      31.982  45.169  15.476  0.00  0.00    -0.080 C 
ATOM     18  C6  UNL     1      31.127  45.874  14.714  0.00  0.00    +0.007 C 
ATOM     19  C7  UNL     1      31.796  43.685  15.654  0.00  0.00    +0.038 C 
ENDBRANCH  16  17
ENDBRANCH  15  16
ENDBRANCH  14  15
ENDBRANCH   7  14
ENDBRANCH   1  10
BRANCH   4  20
ATOM     20  C18 UNL     1      23.289  43.797  17.906  0.00  0.00    +0.216 C 
ATOM     21  O1  UNL     1      22.787  42.796  17.404  0.00  0.00    -0.276 OA
ATOM     22  N3  UNL     1      22.557  44.887  18.318  0.00  0.00    -0.315 N 
ATOM     23  H32 UNL     1      23.040  45.681  18.718  0.00  0.00    +0.149 HD
BRANCH  22  24
ATOM     24  C19 UNL     1      21.146  45.030  18.013  0.00  0.00    +0.109 C 
BRANCH  24  25
ATOM     25  C20 UNL     1      20.887  46.142  16.989  0.00  0.00    +0.054 C 
BRANCH  25  26
ATOM     26  C21 UNL     1      22.064  46.437  16.086  0.00  0.00    -0.046 A 
ATOM     27  C22 UNL     1      22.120  45.903  14.790  0.00  0.00    +0.004 A 
ATOM     28  C23 UNL     1      23.213  46.165  13.961  0.00  0.00    +0.000 A 
ATOM     29  C24 UNL     1      24.258  46.966  14.417  0.00  0.00    +0.000 A 
ATOM     30  C25 UNL     1      24.213  47.508  15.701  0.00  0.00    +0.000 A 
ATOM     31  C26 UNL     1      23.119  47.247  16.531  0.00  0.00    +0.004 A 
ENDBRANCH  25  26
ENDBRANCH  24  25
ENDBRANCH  22  24
ENDBRANCH   4  20
TORSDOF 9
ENDMDL
MODEL 5
REMARK VINA RESULT:    -2.884     12.410     15.710
REMARK INTER + INTRA:          -7.343
REMARK INTER:                  -4.524
REMARK INTRA:                  -2.819
REMARK UNBOUND:                -2.942
REMARK  Name = /home/vital/Documents/PhD_2021/Malaria_codes/data/pdb_ligands_mmv/ligand_123.pdb
REMARK  11 active torsions:
REMARK  status: ('A' for Active; 'I' for Inactive)
REMARK    1  A    between atoms: C1_1  and  C2_2
REMARK    2  A    between atoms: C2_2  and  C3_3
REMARK    3  A    between atoms: C2_2  and  N1_8
REMARK    4  A    between atoms: C3_3  and  C4_4
REMARK    5  A    between atoms: C4_4  and  C5_5
REMARK    6  A    between atoms: C5_5  and  C7_7
REMARK    7  A    between atoms: C10_11  and  N2_14
REMARK    8  A    between atoms: C15_17  and  C18_20
REMARK    9  A    between atoms: N3_22  and  C19_23
REMARK   10  A    between atoms: C19_23  and  C20_24
REMARK   11  A    between atoms: C20_24  and  C21_25
REMARK                            x       y       z     vdW  Elec       q    Type
REMARK                         _______ _______ _______ _____ _____    ______ ____
ROOT
ATOM      1  N2  UNL     1      33.874  39.510  16.513  0.00  0.00    -0.299 NA
ATOM      2  C13 UNL     1      32.657  39.829  15.748  0.00  0.00    +0.085 C 
ATOM      3  C14 UNL     1      32.184  41.251  16.039  0.00  0.00    +0.028 C 
ATOM      4  C15 UNL     1      31.959  41.454  17.540  0.00  0.00    +0.077 C 
ATOM      5  C16 UNL     1      33.197  41.033  18.331  0.00  0.00    +0.028 C 
ATOM      6  C17 UNL     1      33.629  39.611  17.960  0.00  0.00    +0.085 C 
ENDROOT
BRANCH   1  10
ATOM      7  N1  UNL     1      34.685  35.295  15.693  0.00  0.00    -0.300 NA
ATOM      8  C8  UNL     1      35.444  36.013  16.721  0.00  0.00    +0.086 C 
ATOM      9  C9  UNL     1      34.730  37.260  17.248  0.00  0.00    +0.034 C 
ATOM     10  C10 UNL     1      34.470  38.223  16.081  0.00  0.00    +0.059 C 
ATOM     11  C11 UNL     1      33.772  37.514  14.901  0.00  0.00    +0.034 C 
ATOM     12  C12 UNL     1      33.551  36.020  15.133  0.00  0.00    +0.086 C 
BRANCH   7  14
ATOM     13  C1  UNL     1      35.364  32.999  14.939  0.00  0.00    +0.024 C 
ATOM     14  C2  UNL     1      35.530  34.515  14.775  0.00  0.00    +0.054 C 
BRANCH  14  15
ATOM     15  C3  UNL     1      37.028  34.890  14.887  0.00  0.00    +0.023 C 
BRANCH  15  16
ATOM     16  C4  UNL     1      37.576  35.699  13.700  0.00  0.00    +0.031 C 
BRANCH  16  17
ATOM     17  C5  UNL     1      37.804  37.189  13.876  0.00  0.00    -0.080 C 
ATOM     18  C6  UNL     1      38.687  37.747  14.722  0.00  0.00    +0.007 C 
ATOM     19  C7  UNL     1      36.928  38.055  13.009  0.00  0.00    +0.038 C 
ENDBRANCH  16  17
ENDBRANCH  15  16
ENDBRANCH  14  15
ENDBRANCH   7  14
ENDBRANCH   1  10
BRANCH   4  20
ATOM     20  C18 UNL     1      31.540  42.884  17.852  0.00  0.00    +0.216 C 
ATOM     21  O1  UNL     1      30.369  43.164  18.088  0.00  0.00    -0.276 OA
ATOM     22  N3  UNL     1      32.557  43.811  17.854  0.00  0.00    -0.315 N 
ATOM     23  H32 UNL     1      33.499  43.508  17.643  0.00  0.00    +0.149 HD
BRANCH  22  24
ATOM     24  C19 UNL     1      32.303  45.237  17.941  0.00  0.00    +0.109 C 
BRANCH  24  25
ATOM     25  C20 UNL     1      32.923  46.006  16.769  0.00  0.00    +0.054 C 
BRANCH  25  26
ATOM     26  C21 UNL     1      32.798  45.306  15.434  0.00  0.00    -0.046 A 
ATOM     27  C22 UNL     1      31.591  45.344  14.719  0.00  0.00    +0.004 A 
ATOM     28  C23 UNL     1      31.473  44.686  13.493  0.00  0.00    +0.000 A 
ATOM     29  C24 UNL     1      32.558  43.988  12.967  0.00  0.00    +0.000 A 
ATOM     30  C25 UNL     1      33.765  43.946  13.665  0.00  0.00    +0.000 A 
ATOM     31  C26 UNL     1      33.885  44.604  14.893  0.00  0.00    +0.004 A 
ENDBRANCH  25  26
ENDBRANCH  24  25
ENDBRANCH  22  24
ENDBRANCH   4  20
TORSDOF 9
ENDMDL
MODEL 6
REMARK VINA RESULT:    -2.879      5.729      8.734
REMARK INTER + INTRA:          -7.336
REMARK INTER:                  -4.405
REMARK INTRA:                  -2.931
REMARK UNBOUND:                -2.942
REMARK  Name = /home/vital/Documents/PhD_2021/Malaria_codes/data/pdb_ligands_mmv/ligand_123.pdb
REMARK  11 active torsions:
REMARK  status: ('A' for Active; 'I' for Inactive)
REMARK    1  A    between atoms: C1_1  and  C2_2
REMARK    2  A    between atoms: C2_2  and  C3_3
REMARK    3  A    between atoms: C2_2  and  N1_8
REMARK    4  A    between atoms: C3_3  and  C4_4
REMARK    5  A    between atoms: C4_4  and  C5_5
REMARK    6  A    between atoms: C5_5  and  C7_7
REMARK    7  A    between atoms: C10_11  and  N2_14
REMARK    8  A    between atoms: C15_17  and  C18_20
REMARK    9  A    between atoms: N3_22  and  C19_23
REMARK   10  A    between atoms: C19_23  and  C20_24
REMARK   11  A    between atoms: C20_24  and  C21_25
REMARK                            x       y       z     vdW  Elec       q    Type
REMARK                         _______ _______ _______ _____ _____    ______ ____
ROOT
ATOM      1  N2  UNL     1      16.935  35.659  16.435  0.00  0.00    -0.299 NA
ATOM      2  C13 UNL     1      17.902  35.098  17.393  0.00  0.00    +0.085 C 
ATOM      3  C14 UNL     1      17.915  33.572  17.330  0.00  0.00    +0.028 C 
ATOM      4  C15 UNL     1      16.513  33.006  17.569  0.00  0.00    +0.077 C 
ATOM      5  C16 UNL     1      15.501  33.662  16.630  0.00  0.00    +0.028 C 
ATOM      6  C17 UNL     1      15.571  35.189  16.725  0.00  0.00    +0.085 C 
ENDROOT
BRANCH   1  10
ATOM      7  N1  UNL     1      18.346  39.792  16.542  0.00  0.00    -0.300 NA
ATOM      8  C8  UNL     1      17.317  39.333  17.479  0.00  0.00    +0.086 C 
ATOM      9  C9  UNL     1      17.307  37.816  17.678  0.00  0.00    +0.034 C 
ATOM     10  C10 UNL     1      17.065  37.131  16.324  0.00  0.00    +0.059 C 
ATOM     11  C11 UNL     1      18.038  37.647  15.243  0.00  0.00    +0.034 C 
ATOM     12  C12 UNL     1      18.974  38.749  15.741  0.00  0.00    +0.086 C 
BRANCH   7  14
ATOM     13  C1  UNL     1      18.737  42.272  16.496  0.00  0.00    +0.024 C 
ATOM     14  C2  UNL     1      18.014  41.066  15.883  0.00  0.00    +0.054 C 
BRANCH  14  15
ATOM     15  C3  UNL     1      16.490  41.335  15.849  0.00  0.00    +0.023 C 
BRANCH  15  16
ATOM     16  C4  UNL     1      15.826  41.086  14.485  0.00  0.00    +0.031 C 
BRANCH  16  17
ATOM     17  C5  UNL     1      14.991  39.833  14.297  0.00  0.00    -0.080 C 
ATOM     18  C6  UNL     1      14.106  39.347  15.184  0.00  0.00    +0.007 C 
ATOM     19  C7  UNL     1      15.234  39.118  12.993  0.00  0.00    +0.038 C 
ENDBRANCH  16  17
ENDBRANCH  15  16
ENDBRANCH  14  15
ENDBRANCH   7  14
ENDBRANCH   1  10
BRANCH   4  20
ATOM     20  C18 UNL     1      16.499  31.488  17.454  0.00  0.00    +0.216 C 
ATOM     21  O1  UNL     1      17.417  30.809  17.903  0.00  0.00    -0.276 OA
ATOM     22  N3  UNL     1      15.397  30.953  16.826  0.00  0.00    -0.315 N 
ATOM     23  H32 UNL     1      14.680  31.575  16.474  0.00  0.00    +0.149 HD
BRANCH  22  24
ATOM     24  C19 UNL     1      15.318  29.550  16.465  0.00  0.00    +0.109 C 
BRANCH  24  25
ATOM     25  C20 UNL     1      14.875  29.352  15.010  0.00  0.00    +0.054 C 
BRANCH  25  26
ATOM     26  C21 UNL     1      15.357  30.431  14.065  0.00  0.00    -0.046 A 
ATOM     27  C22 UNL     1      16.694  30.463  13.641  0.00  0.00    +0.004 A 
ATOM     28  C23 UNL     1      17.140  31.467  12.779  0.00  0.00    +0.000 A 
ATOM     29  C24 UNL     1      16.256  32.445  12.329  0.00  0.00    +0.000 A 
ATOM     30  C25 UNL     1      14.923  32.422  12.739  0.00  0.00    +0.000 A 
ATOM     31  C26 UNL     1      14.475  31.417  13.601  0.00  0.00    +0.004 A 
ENDBRANCH  25  26
ENDBRANCH  24  25
ENDBRANCH  22  24
ENDBRANCH   4  20
TORSDOF 9
ENDMDL
MODEL 7
REMARK VINA RESULT:    -2.794      5.919      9.031
REMARK INTER + INTRA:          -7.206
REMARK INTER:                  -4.287
REMARK INTRA:                  -2.920
REMARK UNBOUND:                -2.942
REMARK  Name = /home/vital/Documents/PhD_2021/Malaria_codes/data/pdb_ligands_mmv/ligand_123.pdb
REMARK  11 active torsions:
REMARK  status: ('A' for Active; 'I' for Inactive)
REMARK    1  A    between atoms: C1_1  and  C2_2
REMARK    2  A    between atoms: C2_2  and  C3_3
REMARK    3  A    between atoms: C2_2  and  N1_8
REMARK    4  A    between atoms: C3_3  and  C4_4
REMARK    5  A    between atoms: C4_4  and  C5_5
REMARK    6  A    between atoms: C5_5  and  C7_7
REMARK    7  A    between atoms: C10_11  and  N2_14
REMARK    8  A    between atoms: C15_17  and  C18_20
REMARK    9  A    between atoms: N3_22  and  C19_23
REMARK   10  A    between atoms: C19_23  and  C20_24
REMARK   11  A    between atoms: C20_24  and  C21_25
REMARK                            x       y       z     vdW  Elec       q    Type
REMARK                         _______ _______ _______ _____ _____    ______ ____
ROOT
ATOM      1  N2  UNL     1      27.675  44.633  17.199  0.00  0.00    -0.299 NA
ATOM      2  C13 UNL     1      26.825  43.440  17.041  0.00  0.00    +0.085 C 
ATOM      3  C14 UNL     1      25.351  43.788  17.240  0.00  0.00    +0.028 C 
ATOM      4  C15 UNL     1      25.126  44.447  18.602  0.00  0.00    +0.077 C 
ATOM      5  C16 UNL     1      26.077  45.628  18.793  0.00  0.00    +0.028 C 
ATOM      6  C17 UNL     1      27.530  45.210  18.544  0.00  0.00    +0.085 C 
ENDROOT
BRANCH   1  10
ATOM      7  N1  UNL     1      31.545  44.556  15.171  0.00  0.00    -0.300 NA
ATOM      8  C8  UNL     1      30.652  43.395  15.116  0.00  0.00    +0.086 C 
ATOM      9  C9  UNL     1      29.187  43.737  15.397  0.00  0.00    +0.034 C 
ATOM     10  C10 UNL     1      29.076  44.363  16.795  0.00  0.00    +0.059 C 
ATOM     11  C11 UNL     1      30.071  45.528  16.979  0.00  0.00    +0.034 C 
ATOM     12  C12 UNL     1      30.972  45.757  15.766  0.00  0.00    +0.086 C 
BRANCH   7  14
ATOM     13  C1  UNL     1      33.899  44.351  14.322  0.00  0.00    +0.024 C 
ATOM     14  C2  UNL     1      32.936  44.212  15.508  0.00  0.00    +0.054 C 
BRANCH  14  15
ATOM     15  C3  UNL     1      33.064  42.796  16.120  0.00  0.00    +0.023 C 
BRANCH  15  16
ATOM     16  C4  UNL     1      33.638  42.763  17.545  0.00  0.00    +0.031 C 
BRANCH  16  17
ATOM     17  C5  UNL     1      32.812  43.345  18.678  0.00  0.00    -0.080 C 
ATOM     18  C6  UNL     1      33.097  44.473  19.352  0.00  0.00    +0.007 C 
ATOM     19  C7  UNL     1      31.593  42.533  19.033  0.00  0.00    +0.038 C 
ENDBRANCH  16  17
ENDBRANCH  15  16
ENDBRANCH  14  15
ENDBRANCH   7  14
ENDBRANCH   1  10
BRANCH   4  20
ATOM     20  C18 UNL     1      23.670  44.850  18.792  0.00  0.00    +0.216 C 
ATOM     21  O1  UNL     1      22.787  44.004  18.894  0.00  0.00    -0.276 OA
ATOM     22  N3  UNL     1      23.434  46.205  18.846  0.00  0.00    -0.315 N 
ATOM     23  H32 UNL     1      24.212  46.844  18.748  0.00  0.00    +0.149 HD
BRANCH  22  24
ATOM     24  C19 UNL     1      22.092  46.756  18.829  0.00  0.00    +0.109 C 
BRANCH  24  25
ATOM     25  C20 UNL     1      21.824  47.584  17.566  0.00  0.00    +0.054 C 
BRANCH  25  26
ATOM     26  C21 UNL     1      22.518  47.063  16.327  0.00  0.00    -0.046 A 
ATOM     27  C22 UNL     1      21.871  46.156  15.475  0.00  0.00    +0.004 A 
ATOM     28  C23 UNL     1      22.519  45.667  14.338  0.00  0.00    +0.000 A 
ATOM     29  C24 UNL     1      23.815  46.081  14.039  0.00  0.00    +0.000 A 
ATOM     30  C25 UNL     1      24.467  46.986  14.876  0.00  0.00    +0.000 A 
ATOM     31  C26 UNL     1      23.821  47.477  16.014  0.00  0.00    +0.004 A 
ENDBRANCH  25  26
ENDBRANCH  24  25
ENDBRANCH  22  24
ENDBRANCH   4  20
TORSDOF 9
ENDMDL
MODEL 8
REMARK VINA RESULT:    -2.601      6.156      9.335
REMARK INTER + INTRA:          -6.912
REMARK INTER:                  -4.005
REMARK INTRA:                  -2.907
REMARK UNBOUND:                -2.942
REMARK  Name = /home/vital/Documents/PhD_2021/Malaria_codes/data/pdb_ligands_mmv/ligand_123.pdb
REMARK  11 active torsions:
REMARK  status: ('A' for Active; 'I' for Inactive)
REMARK    1  A    between atoms: C1_1  and  C2_2
REMARK    2  A    between atoms: C2_2  and  C3_3
REMARK    3  A    between atoms: C2_2  and  N1_8
REMARK    4  A    between atoms: C3_3  and  C4_4
REMARK    5  A    between atoms: C4_4  and  C5_5
REMARK    6  A    between atoms: C5_5  and  C7_7
REMARK    7  A    between atoms: C10_11  and  N2_14
REMARK    8  A    between atoms: C15_17  and  C18_20
REMARK    9  A    between atoms: N3_22  and  C19_23
REMARK   10  A    between atoms: C19_23  and  C20_24
REMARK   11  A    between atoms: C20_24  and  C21_25
REMARK                            x       y       z     vdW  Elec       q    Type
REMARK                         _______ _______ _______ _____ _____    ______ ____
ROOT
ATOM      1  N2  UNL     1      16.615  35.073  16.179  0.00  0.00    -0.299 NA
ATOM      2  C13 UNL     1      17.931  34.416  16.110  0.00  0.00    +0.085 C 
ATOM      3  C14 UNL     1      17.782  32.905  15.950  0.00  0.00    +0.028 C 
ATOM      4  C15 UNL     1      16.934  32.318  17.081  0.00  0.00    +0.077 C 
ATOM      5  C16 UNL     1      15.607  33.068  17.203  0.00  0.00    +0.028 C 
ATOM      6  C17 UNL     1      15.838  34.577  17.325  0.00  0.00    +0.085 C 
ENDROOT
BRANCH   1  10
ATOM      7  N1  UNL     1      15.922  39.343  15.563  0.00  0.00    -0.300 NA
ATOM      8  C8  UNL     1      16.853  38.607  14.702  0.00  0.00    +0.086 C 
ATOM      9  C9  UNL     1      16.605  37.097  14.684  0.00  0.00    +0.034 C 
ATOM     10  C10 UNL     1      16.736  36.549  16.113  0.00  0.00    +0.059 C 
ATOM     11  C11 UNL     1      15.870  37.346  17.111  0.00  0.00    +0.034 C 
ATOM     12  C12 UNL     1      15.132  38.523  16.473  0.00  0.00    +0.086 C 
BRANCH   7  14
ATOM     13  C1  UNL     1      15.992  41.836  15.279  0.00  0.00    +0.024 C 
ATOM     14  C2  UNL     1      16.468  40.611  16.070  0.00  0.00    +0.054 C 
BRANCH  14  15
ATOM     15  C3  UNL     1      18.015  40.605  16.137  0.00  0.00    +0.023 C 
BRANCH  15  16
ATOM     16  C4  UNL     1      18.594  40.610  17.562  0.00  0.00    +0.031 C 
BRANCH  16  17
ATOM     17  C5  UNL     1      19.022  39.292  18.180  0.00  0.00    -0.080 C 
ATOM     18  C6  UNL     1      18.694  38.867  19.413  0.00  0.00    +0.007 C 
ATOM     19  C7  UNL     1      19.894  38.445  17.290  0.00  0.00    +0.038 C 
ENDBRANCH  16  17
ENDBRANCH  15  16
ENDBRANCH  14  15
ENDBRANCH   7  14
ENDBRANCH   1  10
BRANCH   4  20
ATOM     20  C18 UNL     1      16.730  30.820  16.905  0.00  0.00    +0.216 C 
ATOM     21  O1  UNL     1      17.686  30.053  16.839  0.00  0.00    -0.276 OA
ATOM     22  N3  UNL     1      15.419  30.407  16.833  0.00  0.00    -0.315 N 
ATOM     23  H32 UNL     1      14.682  31.097  16.888  0.00  0.00    +0.149 HD
BRANCH  22  24
ATOM     24  C19 UNL     1      15.056  29.048  16.476  0.00  0.00    +0.109 C 
BRANCH  24  25
ATOM     25  C20 UNL     1      14.346  28.979  15.119  0.00  0.00    +0.054 C 
BRANCH  25  26
ATOM     26  C21 UNL     1      14.856  29.976  14.102  0.00  0.00    -0.046 A 
ATOM     27  C22 UNL     1      15.889  29.630  13.219  0.00  0.00    +0.004 A 
ATOM     28  C23 UNL     1      16.368  30.556  12.290  0.00  0.00    +0.000 A 
ATOM     29  C24 UNL     1      15.818  31.834  12.230  0.00  0.00    +0.000 A 
ATOM     30  C25 UNL     1      14.786  32.190  13.099  0.00  0.00    +0.000 A 
ATOM     31  C26 UNL     1      14.306  31.264  14.030  0.00  0.00    +0.004 A 
ENDBRANCH  25  26
ENDBRANCH  24  25
ENDBRANCH  22  24
ENDBRANCH   4  20
TORSDOF 9
ENDMDL
MODEL 9
REMARK VINA RESULT:    -2.573      2.251      8.623
REMARK INTER + INTRA:          -6.869
REMARK INTER:                  -3.950
REMARK INTRA:                  -2.919
REMARK UNBOUND:                -2.942
REMARK  Name = /home/vital/Documents/PhD_2021/Malaria_codes/data/pdb_ligands_mmv/ligand_123.pdb
REMARK  11 active torsions:
REMARK  status: ('A' for Active; 'I' for Inactive)
REMARK    1  A    between atoms: C1_1  and  C2_2
REMARK    2  A    between atoms: C2_2  and  C3_3
REMARK    3  A    between atoms: C2_2  and  N1_8
REMARK    4  A    between atoms: C3_3  and  C4_4
REMARK    5  A    between atoms: C4_4  and  C5_5
REMARK    6  A    between atoms: C5_5  and  C7_7
REMARK    7  A    between atoms: C10_11  and  N2_14
REMARK    8  A    between atoms: C15_17  and  C18_20
REMARK    9  A    between atoms: N3_22  and  C19_23
REMARK   10  A    between atoms: C19_23  and  C20_24
REMARK   11  A    between atoms: C20_24  and  C21_25
REMARK                            x       y       z     vdW  Elec       q    Type
REMARK                         _______ _______ _______ _____ _____    ______ ____
ROOT
ATOM      1  N2  UNL     1      20.688  41.496  15.953  0.00  0.00    -0.299 NA
ATOM      2  C13 UNL     1      21.123  40.889  17.223  0.00  0.00    +0.085 C 
ATOM      3  C14 UNL     1      22.041  41.835  17.995  0.00  0.00    +0.028 C 
ATOM      4  C15 UNL     1      23.243  42.246  17.141  0.00  0.00    +0.077 C 
ATOM      5  C16 UNL     1      22.781  42.789  15.788  0.00  0.00    +0.028 C 
ATOM      6  C17 UNL     1      21.840  41.802  15.092  0.00  0.00    +0.085 C 
ENDROOT
BRANCH   1  10
ATOM      7  N1  UNL     1      18.377  38.334  14.016  0.00  0.00    -0.300 NA
ATOM      8  C8  UNL     1      18.824  39.503  13.253  0.00  0.00    +0.086 C 
ATOM      9  C9  UNL     1      20.015  40.226  13.887  0.00  0.00    +0.034 C 
ATOM     10  C10 UNL     1      19.628  40.691  15.299  0.00  0.00    +0.059 C 
ATOM     11  C11 UNL     1      19.036  39.538  16.137  0.00  0.00    +0.034 C 
ATOM     12  C12 UNL     1      18.915  38.224  15.365  0.00  0.00    +0.086 C 
BRANCH   7  14
ATOM     13  C1  UNL     1      16.746  36.729  12.981  0.00  0.00    +0.024 C 
ATOM     14  C2  UNL     1      16.958  38.004  13.807  0.00  0.00    +0.054 C 
BRANCH  14  15
ATOM     15  C3  UNL     1      16.165  39.173  13.172  0.00  0.00    +0.023 C 
BRANCH  15  16
ATOM     16  C4  UNL     1      15.014  39.711  14.037  0.00  0.00    +0.031 C 
BRANCH  16  17
ATOM     17  C5  UNL     1      15.348  40.552  15.255  0.00  0.00    -0.080 C 
ATOM     18  C6  UNL     1      15.923  41.767  15.229  0.00  0.00    +0.007 C 
ATOM     19  C7  UNL     1      14.991  39.907  16.569  0.00  0.00    +0.038 C 
ENDBRANCH  16  17
ENDBRANCH  15  16
ENDBRANCH  14  15
ENDBRANCH   7  14
ENDBRANCH   1  10
BRANCH   4  20
ATOM     20  C18 UNL     1      24.139  43.232  17.877  0.00  0.00    +0.216 C 
ATOM     21  O1  UNL     1      24.136  43.298  19.102  0.00  0.00    -0.276 OA
ATOM     22  N3  UNL     1      24.934  44.019  17.076  0.00  0.00    -0.315 N 
ATOM     23  H32 UNL     1      24.878  43.914  16.071  0.00  0.00    +0.149 HD
BRANCH  22  24
ATOM     24  C19 UNL     1      25.698  45.135  17.603  0.00  0.00    +0.109 C 
BRANCH  24  25
ATOM     25  C20 UNL     1      25.427  46.434  16.835  0.00  0.00    +0.054 C 
BRANCH  25  26
ATOM     26  C21 UNL     1      24.032  46.532  16.260  0.00  0.00    -0.046 A 
ATOM     27  C22 UNL     1      22.934  46.796  17.093  0.00  0.00    +0.004 A 
ATOM     28  C23 UNL     1      21.644  46.874  16.562  0.00  0.00    +0.000 A 
ATOM     29  C24 UNL     1      21.438  46.694  15.197  0.00  0.00    +0.000 A 
ATOM     30  C25 UNL     1      22.522  46.436  14.356  0.00  0.00    +0.000 A 
ATOM     31  C26 UNL     1      23.813  46.358  14.886  0.00  0.00    +0.004 A 
ENDBRANCH  25  26
ENDBRANCH  24  25
ENDBRANCH  22  24
ENDBRANCH   4  20
TORSDOF 9
ENDMDL
