MODEL 1
REMARK VINA RESULT:    -3.165      0.000      0.000
REMARK INTER + INTRA:          -7.482
REMARK INTER:                  -4.460
REMARK INTRA:                  -3.022
REMARK UNBOUND:                -3.022
REMARK  Name = /home/vital/Documents/PhD_2021/Malaria_codes/data/pdb_ligands_mmv/ligand_254.pdb
REMARK  8 active torsions:
REMARK  status: ('A' for Active; 'I' for Inactive)
REMARK    1  A    between atoms: C1_1  and  C2_2
REMARK    2  A    between atoms: C7_7  and  O1_8
REMARK    3  A    between atoms: O1_8  and  C8_9
REMARK    4  A    between atoms: C8_9  and  C9_10
REMARK    5  A    between atoms: C9_10  and  S1_11
REMARK    6  A    between atoms: S1_11  and  C10_12
REMARK    7  A    between atoms: C14_17  and  N2_18
REMARK    8  A    between atoms: C15_19  and  C16_21
REMARK                            x       y       z     vdW  Elec       q    Type
REMARK                         _______ _______ _______ _____ _____    ______ ____
ROOT
ATOM      1  C10 UNL     1      31.687  40.475  15.437  0.00  0.00    +0.136 A 
ATOM      2  N1  UNL     1      31.358  41.071  14.315  0.00  0.00    -0.233 NA
ATOM      3  C11 UNL     1      30.259  41.885  14.524  0.00  0.00    +0.080 A 
ATOM      4  C12 UNL     1      29.624  42.677  13.552  0.00  0.00    +0.031 A 
ATOM      5  C13 UNL     1      28.512  43.453  13.907  0.00  0.00    +0.025 A 
ATOM      6  C14 UNL     1      28.020  43.458  15.216  0.00  0.00    +0.035 A 
ATOM      7  C22 UNL     1      28.642  42.672  16.193  0.00  0.00    +0.040 A 
ATOM      8  C23 UNL     1      29.759  41.895  15.826  0.00  0.00    +0.042 A 
ATOM      9  S2  UNL     1      30.718  40.844  16.797  0.00  0.00    -0.061 S 
ENDROOT
BRANCH   6  10
ATOM     10  N2  UNL     1      26.891  44.267  15.468  0.00  0.00    -0.281 N 
ATOM     11  C15 UNL     1      26.756  45.241  16.441  0.00  0.00    +0.248 C 
ATOM     12  O2  UNL     1      27.622  45.629  17.215  0.00  0.00    -0.270 OA
ATOM     13  H14 UNL     1      26.123  44.164  14.816  0.00  0.00    +0.155 HD
BRANCH  11  14
ATOM     14  C16 UNL     1      25.417  45.895  16.489  0.00  0.00    +0.037 A 
ATOM     15  C17 UNL     1      24.658  45.937  17.668  0.00  0.00    +0.013 A 
ATOM     16  C18 UNL     1      23.406  46.556  17.668  0.00  0.00    +0.001 A 
ATOM     17  C19 UNL     1      22.915  47.142  16.502  0.00  0.00    +0.000 A 
ATOM     18  C20 UNL     1      23.676  47.120  15.333  0.00  0.00    +0.001 A 
ATOM     19  C21 UNL     1      24.928  46.503  15.327  0.00  0.00    +0.013 A 
ENDBRANCH  11  14
ENDBRANCH   6  10
BRANCH   1  20
ATOM     20  S1  UNL     1      33.036  39.361  15.534  0.00  0.00    -0.095 S 
BRANCH  20  21
ATOM     21  C9  UNL     1      34.444  40.464  15.208  0.00  0.00    +0.117 C 
BRANCH  21  22
ATOM     22  C8  UNL     1      34.468  41.672  16.141  0.00  0.00    +0.240 C 
BRANCH  22  23
ATOM     23  O1  UNL     1      34.525  42.850  15.329  0.00  0.00    -0.491 OA
BRANCH  23  30
ATOM     24  C1  UNL     1      33.675  44.059  12.987  0.00  0.00    +0.047 C 
ATOM     25  C2  UNL     1      33.085  44.413  14.324  0.00  0.00    -0.009 A 
ATOM     26  C3  UNL     1      32.069  45.378  14.402  0.00  0.00    +0.007 A 
ATOM     27  C4  UNL     1      31.508  45.717  15.632  0.00  0.00    +0.000 A 
ATOM     28  C5  UNL     1      31.956  45.094  16.793  0.00  0.00    +0.004 A 
ATOM     29  C6  UNL     1      32.965  44.131  16.727  0.00  0.00    +0.046 A 
ATOM     30  C7  UNL     1      33.536  43.784  15.499  0.00  0.00    +0.123 A 
ENDBRANCH  23  30
ENDBRANCH  22  23
ENDBRANCH  21  22
ENDBRANCH  20  21
ENDBRANCH   1  20
TORSDOF 7
ENDMDL
MODEL 2
REMARK VINA RESULT:    -3.095      5.653      8.717
REMARK INTER + INTRA:          -7.383
REMARK INTER:                  -4.356
REMARK INTRA:                  -3.027
REMARK UNBOUND:                -3.022
REMARK  Name = /home/vital/Documents/PhD_2021/Malaria_codes/data/pdb_ligands_mmv/ligand_254.pdb
REMARK  8 active torsions:
REMARK  status: ('A' for Active; 'I' for Inactive)
REMARK    1  A    between atoms: C1_1  and  C2_2
REMARK    2  A    between atoms: C7_7  and  O1_8
REMARK    3  A    between atoms: O1_8  and  C8_9
REMARK    4  A    between atoms: C8_9  and  C9_10
REMARK    5  A    between atoms: C9_10  and  S1_11
REMARK    6  A    between atoms: S1_11  and  C10_12
REMARK    7  A    between atoms: C14_17  and  N2_18
REMARK    8  A    between atoms: C15_19  and  C16_21
REMARK                            x       y       z     vdW  Elec       q    Type
REMARK                         _______ _______ _______ _____ _____    ______ ____
ROOT
ATOM      1  C10 UNL     1      25.674  43.221  17.094  0.00  0.00    +0.136 A 
ATOM      2  N1  UNL     1      25.237  43.325  15.861  0.00  0.00    -0.233 NA
ATOM      3  C11 UNL     1      23.888  43.019  15.817  0.00  0.00    +0.080 A 
ATOM      4  C12 UNL     1      23.080  43.020  14.666  0.00  0.00    +0.031 A 
ATOM      5  C13 UNL     1      21.724  42.683  14.770  0.00  0.00    +0.025 A 
ATOM      6  C14 UNL     1      21.153  42.347  16.001  0.00  0.00    +0.035 A 
ATOM      7  C22 UNL     1      21.947  42.340  17.155  0.00  0.00    +0.040 A 
ATOM      8  C23 UNL     1      23.309  42.679  17.039  0.00  0.00    +0.042 A 
ATOM      9  S2  UNL     1      24.517  42.757  18.266  0.00  0.00    -0.061 S 
ENDROOT
BRANCH   6  10
ATOM     10  N2  UNL     1      19.781  42.016  15.997  0.00  0.00    -0.281 N 
ATOM     11  C15 UNL     1      19.222  40.751  16.018  0.00  0.00    +0.248 C 
ATOM     12  O2  UNL     1      19.819  39.686  16.118  0.00  0.00    -0.270 OA
ATOM     13  H14 UNL     1      19.141  42.798  16.054  0.00  0.00    +0.155 HD
BRANCH  11  14
ATOM     14  C16 UNL     1      17.732  40.725  15.957  0.00  0.00    +0.037 A 
ATOM     15  C17 UNL     1      16.983  39.740  16.617  0.00  0.00    +0.013 A 
ATOM     16  C18 UNL     1      15.589  39.751  16.531  0.00  0.00    +0.001 A 
ATOM     17  C19 UNL     1      14.942  40.745  15.798  0.00  0.00    +0.000 A 
ATOM     18  C20 UNL     1      15.682  41.738  15.158  0.00  0.00    +0.001 A 
ATOM     19  C21 UNL     1      17.075  41.733  15.241  0.00  0.00    +0.013 A 
ENDBRANCH  11  14
ENDBRANCH   6  10
BRANCH   1  20
ATOM     20  S1  UNL     1      27.346  43.533  17.513  0.00  0.00    -0.095 S 
BRANCH  20  21
ATOM     21  C9  UNL     1      27.495  45.303  17.129  0.00  0.00    +0.117 C 
BRANCH  21  22
ATOM     22  C8  UNL     1      26.375  46.133  17.753  0.00  0.00    +0.240 C 
BRANCH  22  23
ATOM     23  O1  UNL     1      25.692  46.811  16.692  0.00  0.00    -0.491 OA
BRANCH  23  30
ATOM     24  C1  UNL     1      24.584  47.090  14.169  0.00  0.00    +0.047 C 
ATOM     25  C2  UNL     1      23.736  46.858  15.390  0.00  0.00    -0.009 A 
ATOM     26  C3  UNL     1      22.340  46.772  15.261  0.00  0.00    +0.007 A 
ATOM     27  C4  UNL     1      21.539  46.554  16.380  0.00  0.00    +0.000 A 
ATOM     28  C5  UNL     1      22.124  46.419  17.635  0.00  0.00    +0.004 A 
ATOM     29  C6  UNL     1      23.511  46.501  17.775  0.00  0.00    +0.046 A 
ATOM     30  C7  UNL     1      24.325  46.720  16.660  0.00  0.00    +0.123 A 
ENDBRANCH  23  30
ENDBRANCH  22  23
ENDBRANCH  21  22
ENDBRANCH  20  21
ENDBRANCH   1  20
TORSDOF 7
ENDMDL
MODEL 3
REMARK VINA RESULT:    -3.031      3.275      9.087
REMARK INTER + INTRA:          -7.293
REMARK INTER:                  -4.210
REMARK INTRA:                  -3.083
REMARK UNBOUND:                -3.022
REMARK  Name = /home/vital/Documents/PhD_2021/Malaria_codes/data/pdb_ligands_mmv/ligand_254.pdb
REMARK  8 active torsions:
REMARK  status: ('A' for Active; 'I' for Inactive)
REMARK    1  A    between atoms: C1_1  and  C2_2
REMARK    2  A    between atoms: C7_7  and  O1_8
REMARK    3  A    between atoms: O1_8  and  C8_9
REMARK    4  A    between atoms: C8_9  and  C9_10
REMARK    5  A    between atoms: C9_10  and  S1_11
REMARK    6  A    between atoms: S1_11  and  C10_12
REMARK    7  A    between atoms: C14_17  and  N2_18
REMARK    8  A    between atoms: C15_19  and  C16_21
REMARK                            x       y       z     vdW  Elec       q    Type
REMARK                         _______ _______ _______ _____ _____    ______ ____
ROOT
ATOM      1  C10 UNL     1      30.332  42.519  17.694  0.00  0.00    +0.136 A 
ATOM      2  N1  UNL     1      31.559  42.858  18.011  0.00  0.00    -0.233 NA
ATOM      3  C11 UNL     1      32.451  41.967  17.442  0.00  0.00    +0.080 A 
ATOM      4  C12 UNL     1      33.851  42.010  17.566  0.00  0.00    +0.031 A 
ATOM      5  C13 UNL     1      34.633  41.034  16.935  0.00  0.00    +0.025 A 
ATOM      6  C14 UNL     1      34.049  40.013  16.179  0.00  0.00    +0.035 A 
ATOM      7  C22 UNL     1      32.655  39.958  16.050  0.00  0.00    +0.040 A 
ATOM      8  C23 UNL     1      31.878  40.944  16.688  0.00  0.00    +0.042 A 
ATOM      9  S2  UNL     1      30.165  41.131  16.708  0.00  0.00    -0.061 S 
ENDROOT
BRANCH   6  10
ATOM     10  N2  UNL     1      34.925  39.075  15.591  0.00  0.00    -0.281 N 
ATOM     11  C15 UNL     1      35.187  38.899  14.245  0.00  0.00    +0.248 C 
ATOM     12  O2  UNL     1      34.759  39.578  13.319  0.00  0.00    -0.270 OA
ATOM     13  H14 UNL     1      35.469  38.518  16.238  0.00  0.00    +0.155 HD
BRANCH  11  14
ATOM     14  C16 UNL     1      36.128  37.786  13.931  0.00  0.00    +0.037 A 
ATOM     15  C17 UNL     1      35.857  36.852  12.922  0.00  0.00    +0.013 A 
ATOM     16  C18 UNL     1      36.765  35.822  12.664  0.00  0.00    +0.001 A 
ATOM     17  C19 UNL     1      37.945  35.729  13.400  0.00  0.00    +0.000 A 
ATOM     18  C20 UNL     1      38.228  36.669  14.391  0.00  0.00    +0.001 A 
ATOM     19  C21 UNL     1      37.325  37.700  14.653  0.00  0.00    +0.013 A 
ENDBRANCH  11  14
ENDBRANCH   6  10
BRANCH   1  20
ATOM     20  S1  UNL     1      28.944  43.431  18.254  0.00  0.00    -0.095 S 
BRANCH  20  21
ATOM     21  C9  UNL     1      29.116  44.974  17.308  0.00  0.00    +0.117 C 
BRANCH  21  22
ATOM     22  C8  UNL     1      29.312  44.726  15.814  0.00  0.00    +0.240 C 
BRANCH  22  23
ATOM     23  O1  UNL     1      30.473  45.455  15.400  0.00  0.00    -0.491 OA
BRANCH  23  30
ATOM     24  C1  UNL     1      32.997  46.119  16.327  0.00  0.00    +0.047 C 
ATOM     25  C2  UNL     1      32.787  45.063  15.278  0.00  0.00    -0.009 A 
ATOM     26  C3  UNL     1      33.894  44.380  14.748  0.00  0.00    +0.007 A 
ATOM     27  C4  UNL     1      33.719  43.396  13.777  0.00  0.00    +0.000 A 
ATOM     28  C5  UNL     1      32.439  43.084  13.329  0.00  0.00    +0.004 A 
ATOM     29  C6  UNL     1      31.331  43.755  13.850  0.00  0.00    +0.046 A 
ATOM     30  C7  UNL     1      31.494  44.745  14.824  0.00  0.00    +0.123 A 
ENDBRANCH  23  30
ENDBRANCH  22  23
ENDBRANCH  21  22
ENDBRANCH  20  21
ENDBRANCH   1  20
TORSDOF 7
ENDMDL
MODEL 4
REMARK VINA RESULT:    -2.996      5.304      8.616
REMARK INTER + INTRA:          -7.244
REMARK INTER:                  -4.165
REMARK INTRA:                  -3.079
REMARK UNBOUND:                -3.022
REMARK  Name = /home/vital/Documents/PhD_2021/Malaria_codes/data/pdb_ligands_mmv/ligand_254.pdb
REMARK  8 active torsions:
REMARK  status: ('A' for Active; 'I' for Inactive)
REMARK    1  A    between atoms: C1_1  and  C2_2
REMARK    2  A    between atoms: C7_7  and  O1_8
REMARK    3  A    between atoms: O1_8  and  C8_9
REMARK    4  A    between atoms: C8_9  and  C9_10
REMARK    5  A    between atoms: C9_10  and  S1_11
REMARK    6  A    between atoms: S1_11  and  C10_12
REMARK    7  A    between atoms: C14_17  and  N2_18
REMARK    8  A    between atoms: C15_19  and  C16_21
REMARK                            x       y       z     vdW  Elec       q    Type
REMARK                         _______ _______ _______ _____ _____    ______ ____
ROOT
ATOM      1  C10 UNL     1      35.162  34.830  17.031  0.00  0.00    +0.136 A 
ATOM      2  N1  UNL     1      36.143  35.626  17.386  0.00  0.00    -0.233 NA
ATOM      3  C11 UNL     1      35.788  36.941  17.143  0.00  0.00    +0.080 A 
ATOM      4  C12 UNL     1      36.587  38.071  17.394  0.00  0.00    +0.031 A 
ATOM      5  C13 UNL     1      36.097  39.348  17.093  0.00  0.00    +0.025 A 
ATOM      6  C14 UNL     1      34.822  39.526  16.547  0.00  0.00    +0.035 A 
ATOM      7  C22 UNL     1      34.017  38.409  16.289  0.00  0.00    +0.040 A 
ATOM      8  C23 UNL     1      34.519  37.129  16.596  0.00  0.00    +0.042 A 
ATOM      9  S2  UNL     1      33.769  35.591  16.393  0.00  0.00    -0.061 S 
ENDROOT
BRANCH   6  10
ATOM     10  N2  UNL     1      34.426  40.852  16.273  0.00  0.00    -0.281 N 
ATOM     11  C15 UNL     1      33.831  41.749  17.142  0.00  0.00    +0.248 C 
ATOM     12  O2  UNL     1      33.606  41.575  18.333  0.00  0.00    -0.270 OA
ATOM     13  H14 UNL     1      34.671  41.202  15.354  0.00  0.00    +0.155 HD
BRANCH  11  14
ATOM     14  C16 UNL     1      33.485  43.068  16.540  0.00  0.00    +0.037 A 
ATOM     15  C17 UNL     1      32.819  44.061  17.271  0.00  0.00    +0.013 A 
ATOM     16  C18 UNL     1      32.510  45.282  16.667  0.00  0.00    +0.001 A 
ATOM     17  C19 UNL     1      32.872  45.517  15.341  0.00  0.00    +0.000 A 
ATOM     18  C20 UNL     1      33.553  44.540  14.616  0.00  0.00    +0.001 A 
ATOM     19  C21 UNL     1      33.865  43.318  15.215  0.00  0.00    +0.013 A 
ENDBRANCH  11  14
ENDBRANCH   6  10
BRANCH   1  20
ATOM     20  S1  UNL     1      35.275  33.090  17.196  0.00  0.00    -0.095 S 
BRANCH  20  21
ATOM     21  C9  UNL     1      35.600  32.582  15.480  0.00  0.00    +0.117 C 
BRANCH  21  22
ATOM     22  C8  UNL     1      36.893  33.178  14.929  0.00  0.00    +0.240 C 
BRANCH  22  23
ATOM     23  O1  UNL     1      36.565  33.904  13.739  0.00  0.00    -0.491 OA
BRANCH  23  30
ATOM     24  C1  UNL     1      34.639  35.504  12.556  0.00  0.00    +0.047 C 
ATOM     25  C2  UNL     1      35.916  36.074  13.110  0.00  0.00    -0.009 A 
ATOM     26  C3  UNL     1      36.149  37.457  13.038  0.00  0.00    +0.007 A 
ATOM     27  C4  UNL     1      37.325  38.003  13.549  0.00  0.00    +0.000 A 
ATOM     28  C5  UNL     1      38.275  37.174  14.137  0.00  0.00    +0.004 A 
ATOM     29  C6  UNL     1      38.054  35.798  14.216  0.00  0.00    +0.046 A 
ATOM     30  C7  UNL     1      36.878  35.238  13.706  0.00  0.00    +0.123 A 
ENDBRANCH  23  30
ENDBRANCH  22  23
ENDBRANCH  21  22
ENDBRANCH  20  21
ENDBRANCH   1  20
TORSDOF 7
ENDMDL
MODEL 5
REMARK VINA RESULT:    -2.850      1.782      2.339
REMARK INTER + INTRA:          -7.038
REMARK INTER:                  -3.998
REMARK INTRA:                  -3.040
REMARK UNBOUND:                -3.022
REMARK  Name = /home/vital/Documents/PhD_2021/Malaria_codes/data/pdb_ligands_mmv/ligand_254.pdb
REMARK  8 active torsions:
REMARK  status: ('A' for Active; 'I' for Inactive)
REMARK    1  A    between atoms: C1_1  and  C2_2
REMARK    2  A    between atoms: C7_7  and  O1_8
REMARK    3  A    between atoms: O1_8  and  C8_9
REMARK    4  A    between atoms: C8_9  and  C9_10
REMARK    5  A    between atoms: C9_10  and  S1_11
REMARK    6  A    between atoms: S1_11  and  C10_12
REMARK    7  A    between atoms: C14_17  and  N2_18
REMARK    8  A    between atoms: C15_19  and  C16_21
REMARK                            x       y       z     vdW  Elec       q    Type
REMARK                         _______ _______ _______ _____ _____    ______ ____
ROOT
ATOM      1  C10 UNL     1      32.148  41.659  18.010  0.00  0.00    +0.136 A 
ATOM      2  N1  UNL     1      32.214  42.923  18.355  0.00  0.00    -0.233 NA
ATOM      3  C11 UNL     1      31.014  43.548  18.067  0.00  0.00    +0.080 A 
ATOM      4  C12 UNL     1      30.715  44.903  18.296  0.00  0.00    +0.031 A 
ATOM      5  C13 UNL     1      29.452  45.403  17.950  0.00  0.00    +0.025 A 
ATOM      6  C14 UNL     1      28.477  44.578  17.380  0.00  0.00    +0.035 A 
ATOM      7  C22 UNL     1      28.763  43.228  17.145  0.00  0.00    +0.040 A 
ATOM      8  C23 UNL     1      30.035  42.735  17.497  0.00  0.00    +0.042 A 
ATOM      9  S2  UNL     1      30.667  41.141  17.330  0.00  0.00    -0.061 S 
ENDROOT
BRANCH   6  10
ATOM     10  N2  UNL     1      27.242  45.181  17.060  0.00  0.00    -0.281 N 
ATOM     11  C15 UNL     1      26.254  45.590  17.938  0.00  0.00    +0.248 C 
ATOM     12  O2  UNL     1      26.306  45.570  19.162  0.00  0.00    -0.270 OA
ATOM     13  H14 UNL     1      27.099  45.396  16.081  0.00  0.00    +0.155 HD
BRANCH  11  14
ATOM     14  C16 UNL     1      25.034  46.151  17.290  0.00  0.00    +0.037 A 
ATOM     15  C17 UNL     1      23.815  46.253  17.974  0.00  0.00    +0.013 A 
ATOM     16  C18 UNL     1      22.696  46.781  17.327  0.00  0.00    +0.001 A 
ATOM     17  C19 UNL     1      22.792  47.217  16.006  0.00  0.00    +0.000 A 
ATOM     18  C20 UNL     1      24.008  47.136  15.329  0.00  0.00    +0.001 A 
ATOM     19  C21 UNL     1      25.130  46.610  15.970  0.00  0.00    +0.013 A 
ENDBRANCH  11  14
ENDBRANCH   6  10
BRANCH   1  20
ATOM     20  S1  UNL     1      33.501  40.567  18.229  0.00  0.00    -0.095 S 
BRANCH  20  21
ATOM     21  C9  UNL     1      34.063  40.336  16.515  0.00  0.00    +0.117 C 
BRANCH  21  22
ATOM     22  C8  UNL     1      34.619  41.620  15.904  0.00  0.00    +0.240 C 
BRANCH  22  23
ATOM     23  O1  UNL     1      33.854  41.910  14.729  0.00  0.00    -0.491 OA
BRANCH  23  30
ATOM     24  C1  UNL     1      31.368  41.754  13.518  0.00  0.00    +0.047 C 
ATOM     25  C2  UNL     1      31.895  43.041  14.091  0.00  0.00    -0.009 A 
ATOM     26  C3  UNL     1      31.112  44.204  14.023  0.00  0.00    +0.007 A 
ATOM     27  C4  UNL     1      31.581  45.405  14.551  0.00  0.00    +0.000 A 
ATOM     28  C5  UNL     1      32.835  45.454  15.153  0.00  0.00    +0.004 A 
ATOM     29  C6  UNL     1      33.622  44.303  15.228  0.00  0.00    +0.046 A 
ATOM     30  C7  UNL     1      33.162  43.093  14.701  0.00  0.00    +0.123 A 
ENDBRANCH  23  30
ENDBRANCH  22  23
ENDBRANCH  21  22
ENDBRANCH  20  21
ENDBRANCH   1  20
TORSDOF 7
ENDMDL
MODEL 6
REMARK VINA RESULT:    -2.842      3.344      8.821
REMARK INTER + INTRA:          -7.027
REMARK INTER:                  -4.009
REMARK INTRA:                  -3.018
REMARK UNBOUND:                -3.022
REMARK  Name = /home/vital/Documents/PhD_2021/Malaria_codes/data/pdb_ligands_mmv/ligand_254.pdb
REMARK  8 active torsions:
REMARK  status: ('A' for Active; 'I' for Inactive)
REMARK    1  A    between atoms: C1_1  and  C2_2
REMARK    2  A    between atoms: C7_7  and  O1_8
REMARK    3  A    between atoms: O1_8  and  C8_9
REMARK    4  A    between atoms: C8_9  and  C9_10
REMARK    5  A    between atoms: C9_10  and  S1_11
REMARK    6  A    between atoms: S1_11  and  C10_12
REMARK    7  A    between atoms: C14_17  and  N2_18
REMARK    8  A    between atoms: C15_19  and  C16_21
REMARK                            x       y       z     vdW  Elec       q    Type
REMARK                         _______ _______ _______ _____ _____    ______ ____
ROOT
ATOM      1  C10 UNL     1      22.935  42.920  17.962  0.00  0.00    +0.136 A 
ATOM      2  N1  UNL     1      23.403  44.019  18.504  0.00  0.00    -0.233 NA
ATOM      3  C11 UNL     1      24.714  44.214  18.107  0.00  0.00    +0.080 A 
ATOM      4  C12 UNL     1      25.540  45.286  18.491  0.00  0.00    +0.031 A 
ATOM      5  C13 UNL     1      26.855  45.354  18.012  0.00  0.00    +0.025 A 
ATOM      6  C14 UNL     1      27.366  44.374  17.155  0.00  0.00    +0.035 A 
ATOM      7  C22 UNL     1      26.554  43.301  16.767  0.00  0.00    +0.040 A 
ATOM      8  C23 UNL     1      25.233  43.242  17.254  0.00  0.00    +0.042 A 
ATOM      9  S2  UNL     1      24.017  42.059  16.954  0.00  0.00    -0.061 S 
ENDROOT
BRANCH   6  10
ATOM     10  N2  UNL     1      28.704  44.531  16.736  0.00  0.00    -0.281 N 
ATOM     11  C15 UNL     1      29.169  44.672  15.441  0.00  0.00    +0.248 C 
ATOM     12  O2  UNL     1      28.491  44.760  14.424  0.00  0.00    -0.270 OA
ATOM     13  H14 UNL     1      29.389  44.616  17.477  0.00  0.00    +0.155 HD
BRANCH  11  14
ATOM     14  C16 UNL     1      30.652  44.769  15.315  0.00  0.00    +0.037 A 
ATOM     15  C17 UNL     1      31.471  45.020  16.424  0.00  0.00    +0.013 A 
ATOM     16  C18 UNL     1      32.856  45.107  16.261  0.00  0.00    +0.001 A 
ATOM     17  C19 UNL     1      33.424  44.933  15.000  0.00  0.00    +0.000 A 
ATOM     18  C20 UNL     1      32.614  44.661  13.898  0.00  0.00    +0.001 A 
ATOM     19  C21 UNL     1      31.229  44.574  14.055  0.00  0.00    +0.013 A 
ENDBRANCH  11  14
ENDBRANCH   6  10
BRANCH   1  20
ATOM     20  S1  UNL     1      21.301  42.363  18.257  0.00  0.00    -0.095 S 
BRANCH  20  21
ATOM     21  C9  UNL     1      20.326  43.585  17.329  0.00  0.00    +0.117 C 
BRANCH  21  22
ATOM     22  C8  UNL     1      20.910  43.872  15.947  0.00  0.00    +0.240 C 
BRANCH  22  23
ATOM     23  O1  UNL     1      21.115  45.285  15.846  0.00  0.00    -0.491 OA
BRANCH  23  30
ATOM     24  C1  UNL     1      22.030  47.523  17.196  0.00  0.00    +0.047 C 
ATOM     25  C2  UNL     1      22.843  46.854  16.123  0.00  0.00    -0.009 A 
ATOM     26  C3  UNL     1      24.108  47.364  15.789  0.00  0.00    +0.007 A 
ATOM     27  C4  UNL     1      24.877  46.755  14.799  0.00  0.00    +0.000 A 
ATOM     28  C5  UNL     1      24.391  45.632  14.137  0.00  0.00    +0.004 A 
ATOM     29  C6  UNL     1      23.135  45.115  14.461  0.00  0.00    +0.046 A 
ATOM     30  C7  UNL     1      22.354  45.718  15.451  0.00  0.00    +0.123 A 
ENDBRANCH  23  30
ENDBRANCH  22  23
ENDBRANCH  21  22
ENDBRANCH  20  21
ENDBRANCH   1  20
TORSDOF 7
ENDMDL
MODEL 7
REMARK VINA RESULT:    -2.707      3.166      8.905
REMARK INTER + INTRA:          -6.837
REMARK INTER:                  -3.730
REMARK INTRA:                  -3.107
REMARK UNBOUND:                -3.022
REMARK  Name = /home/vital/Documents/PhD_2021/Malaria_codes/data/pdb_ligands_mmv/ligand_254.pdb
REMARK  8 active torsions:
REMARK  status: ('A' for Active; 'I' for Inactive)
REMARK    1  A    between atoms: C1_1  and  C2_2
REMARK    2  A    between atoms: C7_7  and  O1_8
REMARK    3  A    between atoms: O1_8  and  C8_9
REMARK    4  A    between atoms: C8_9  and  C9_10
REMARK    5  A    between atoms: C9_10  and  S1_11
REMARK    6  A    between atoms: S1_11  and  C10_12
REMARK    7  A    between atoms: C14_17  and  N2_18
REMARK    8  A    between atoms: C15_19  and  C16_21
REMARK                            x       y       z     vdW  Elec       q    Type
REMARK                         _______ _______ _______ _____ _____    ______ ____
ROOT
ATOM      1  C10 UNL     1      29.338  42.034  16.320  0.00  0.00    +0.136 A 
ATOM      2  N1  UNL     1      29.648  42.112  15.048  0.00  0.00    -0.233 NA
ATOM      3  C11 UNL     1      30.679  41.234  14.764  0.00  0.00    +0.080 A 
ATOM      4  C12 UNL     1      31.277  41.044  13.506  0.00  0.00    +0.031 A 
ATOM      5  C13 UNL     1      32.319  40.117  13.366  0.00  0.00    +0.025 A 
ATOM      6  C14 UNL     1      32.778  39.373  14.456  0.00  0.00    +0.035 A 
ATOM      7  C22 UNL     1      32.192  39.554  15.715  0.00  0.00    +0.040 A 
ATOM      8  C23 UNL     1      31.145  40.487  15.845  0.00  0.00    +0.042 A 
ATOM      9  S2  UNL     1      30.244  40.919  17.249  0.00  0.00    -0.061 S 
ENDROOT
BRANCH   6  10
ATOM     10  N2  UNL     1      33.838  38.473  14.211  0.00  0.00    -0.281 N 
ATOM     11  C15 UNL     1      35.184  38.673  14.458  0.00  0.00    +0.248 C 
ATOM     12  O2  UNL     1      35.693  39.644  15.003  0.00  0.00    -0.270 OA
ATOM     13  H14 UNL     1      33.566  37.555  13.882  0.00  0.00    +0.155 HD
BRANCH  11  14
ATOM     14  C16 UNL     1      36.070  37.547  14.043  0.00  0.00    +0.037 A 
ATOM     15  C17 UNL     1      35.682  36.627  13.059  0.00  0.00    +0.013 A 
ATOM     16  C18 UNL     1      36.541  35.585  12.703  0.00  0.00    +0.001 A 
ATOM     17  C19 UNL     1      37.787  35.465  13.318  0.00  0.00    +0.000 A 
ATOM     18  C20 UNL     1      38.184  36.390  14.282  0.00  0.00    +0.001 A 
ATOM     19  C21 UNL     1      37.330  37.434  14.642  0.00  0.00    +0.013 A 
ENDBRANCH  11  14
ENDBRANCH   6  10
BRANCH   1  20
ATOM     20  S1  UNL     1      28.073  43.018  17.027  0.00  0.00    -0.095 S 
BRANCH  20  21
ATOM     21  C9  UNL     1      29.039  44.335  17.826  0.00  0.00    +0.117 C 
BRANCH  21  22
ATOM     22  C8  UNL     1      29.887  45.123  16.831  0.00  0.00    +0.240 C 
BRANCH  22  23
ATOM     23  O1  UNL     1      31.263  44.903  17.161  0.00  0.00    -0.491 OA
BRANCH  23  30
ATOM     24  C1  UNL     1      33.272  43.142  17.889  0.00  0.00    +0.047 C 
ATOM     25  C2  UNL     1      33.141  43.662  16.484  0.00  0.00    -0.009 A 
ATOM     26  C3  UNL     1      34.053  43.247  15.501  0.00  0.00    +0.007 A 
ATOM     27  C4  UNL     1      33.945  43.716  14.193  0.00  0.00    +0.000 A 
ATOM     28  C5  UNL     1      32.926  44.602  13.856  0.00  0.00    +0.004 A 
ATOM     29  C6  UNL     1      32.012  45.021  14.826  0.00  0.00    +0.046 A 
ATOM     30  C7  UNL     1      32.111  44.557  16.141  0.00  0.00    +0.123 A 
ENDBRANCH  23  30
ENDBRANCH  22  23
ENDBRANCH  21  22
ENDBRANCH  20  21
ENDBRANCH   1  20
TORSDOF 7
ENDMDL
MODEL 8
REMARK VINA RESULT:    -2.641      5.289      8.447
REMARK INTER + INTRA:          -6.743
REMARK INTER:                  -3.855
REMARK INTRA:                  -2.888
REMARK UNBOUND:                -3.022
REMARK  Name = /home/vital/Documents/PhD_2021/Malaria_codes/data/pdb_ligands_mmv/ligand_254.pdb
REMARK  8 active torsions:
REMARK  status: ('A' for Active; 'I' for Inactive)
REMARK    1  A    between atoms: C1_1  and  C2_2
REMARK    2  A    between atoms: C7_7  and  O1_8
REMARK    3  A    between atoms: O1_8  and  C8_9
REMARK    4  A    between atoms: C8_9  and  C9_10
REMARK    5  A    between atoms: C9_10  and  S1_11
REMARK    6  A    between atoms: S1_11  and  C10_12
REMARK    7  A    between atoms: C14_17  and  N2_18
REMARK    8  A    between atoms: C15_19  and  C16_21
REMARK                            x       y       z     vdW  Elec       q    Type
REMARK                         _______ _______ _______ _____ _____    ______ ____
ROOT
ATOM      1  C10 UNL     1      34.572  34.718  16.372  0.00  0.00    +0.136 A 
ATOM      2  N1  UNL     1      35.272  35.394  17.252  0.00  0.00    -0.233 NA
ATOM      3  C11 UNL     1      35.033  36.748  17.099  0.00  0.00    +0.080 A 
ATOM      4  C12 UNL     1      35.609  37.779  17.863  0.00  0.00    +0.031 A 
ATOM      5  C13 UNL     1      35.275  39.112  17.592  0.00  0.00    +0.025 A 
ATOM      6  C14 UNL     1      34.375  39.442  16.574  0.00  0.00    +0.035 A 
ATOM      7  C22 UNL     1      33.796  38.425  15.805  0.00  0.00    +0.040 A 
ATOM      8  C23 UNL     1      34.138  37.088  16.085  0.00  0.00    +0.042 A 
ATOM      9  S2  UNL     1      33.593  35.644  15.318  0.00  0.00    -0.061 S 
ENDROOT
BRANCH   6  10
ATOM     10  N2  UNL     1      34.113  40.815  16.377  0.00  0.00    -0.281 N 
ATOM     11  C15 UNL     1      33.299  41.633  17.139  0.00  0.00    +0.248 C 
ATOM     12  O2  UNL     1      32.713  41.329  18.170  0.00  0.00    -0.270 OA
ATOM     13  H14 UNL     1      34.636  41.259  15.632  0.00  0.00    +0.155 HD
BRANCH  11  14
ATOM     14  C16 UNL     1      33.184  43.036  16.646  0.00  0.00    +0.037 A 
ATOM     15  C17 UNL     1      32.668  44.061  17.451  0.00  0.00    +0.013 A 
ATOM     16  C18 UNL     1      32.575  45.361  16.948  0.00  0.00    +0.001 A 
ATOM     17  C19 UNL     1      33.005  45.641  15.651  0.00  0.00    +0.000 A 
ATOM     18  C20 UNL     1      33.538  44.628  14.855  0.00  0.00    +0.001 A 
ATOM     19  C21 UNL     1      33.633  43.328  15.352  0.00  0.00    +0.013 A 
ENDBRANCH  11  14
ENDBRANCH   6  10
BRANCH   1  20
ATOM     20  S1  UNL     1      34.640  32.970  16.279  0.00  0.00    -0.095 S 
BRANCH  20  21
ATOM     21  C9  UNL     1      36.350  32.701  15.722  0.00  0.00    +0.117 C 
BRANCH  21  22
ATOM     22  C8  UNL     1      36.642  33.378  14.385  0.00  0.00    +0.240 C 
BRANCH  22  23
ATOM     23  O1  UNL     1      37.589  34.425  14.625  0.00  0.00    -0.491 OA
BRANCH  23  30
ATOM     24  C1  UNL     1      38.689  36.549  16.021  0.00  0.00    +0.047 C 
ATOM     25  C2  UNL     1      37.868  36.754  14.777  0.00  0.00    -0.009 A 
ATOM     26  C3  UNL     1      37.649  38.054  14.295  0.00  0.00    +0.007 A 
ATOM     27  C4  UNL     1      36.893  38.263  13.142  0.00  0.00    +0.000 A 
ATOM     28  C5  UNL     1      36.352  37.176  12.462  0.00  0.00    +0.004 A 
ATOM     29  C6  UNL     1      36.564  35.878  12.932  0.00  0.00    +0.046 A 
ATOM     30  C7  UNL     1      37.320  35.657  14.088  0.00  0.00    +0.123 A 
ENDBRANCH  23  30
ENDBRANCH  22  23
ENDBRANCH  21  22
ENDBRANCH  20  21
ENDBRANCH   1  20
TORSDOF 7
ENDMDL
MODEL 9
REMARK VINA RESULT:    -0.300      6.918      9.323
REMARK INTER + INTRA:          -3.444
REMARK INTER:                  -0.517
REMARK INTRA:                  -2.927
REMARK UNBOUND:                -3.022
REMARK  Name = /home/vital/Documents/PhD_2021/Malaria_codes/data/pdb_ligands_mmv/ligand_254.pdb
REMARK  8 active torsions:
REMARK  status: ('A' for Active; 'I' for Inactive)
REMARK    1  A    between atoms: C1_1  and  C2_2
REMARK    2  A    between atoms: C7_7  and  O1_8
REMARK    3  A    between atoms: O1_8  and  C8_9
REMARK    4  A    between atoms: C8_9  and  C9_10
REMARK    5  A    between atoms: C9_10  and  S1_11
REMARK    6  A    between atoms: S1_11  and  C10_12
REMARK    7  A    between atoms: C14_17  and  N2_18
REMARK    8  A    between atoms: C15_19  and  C16_21
REMARK                            x       y       z     vdW  Elec       q    Type
REMARK                         _______ _______ _______ _____ _____    ______ ____
ROOT
ATOM      1  C10 UNL     1      33.849  45.457  24.963  0.00  0.00    +0.136 A 
ATOM      2  N1  UNL     1      33.899  46.611  24.341  0.00  0.00    -0.233 NA
ATOM      3  C11 UNL     1      33.762  46.413  22.979  0.00  0.00    +0.080 A 
ATOM      4  C12 UNL     1      33.770  47.418  21.995  0.00  0.00    +0.031 A 
ATOM      5  C13 UNL     1      33.624  47.069  20.646  0.00  0.00    +0.025 A 
ATOM      6  C14 UNL     1      33.469  45.736  20.254  0.00  0.00    +0.035 A 
ATOM      7  C22 UNL     1      33.462  44.725  21.224  0.00  0.00    +0.040 A 
ATOM      8  C23 UNL     1      33.609  45.086  22.577  0.00  0.00    +0.042 A 
ATOM      9  S2  UNL     1      33.637  44.077  23.973  0.00  0.00    -0.061 S 
ENDROOT
BRANCH   6  10
ATOM     10  N2  UNL     1      33.339  45.490  18.871  0.00  0.00    -0.281 N 
ATOM     11  C15 UNL     1      32.195  45.605  18.100  0.00  0.00    +0.248 C 
ATOM     12  O2  UNL     1      31.101  46.014  18.469  0.00  0.00    -0.270 OA
ATOM     13  H14 UNL     1      34.197  45.270  18.381  0.00  0.00    +0.155 HD
BRANCH  11  14
ATOM     14  C16 UNL     1      32.365  45.227  16.668  0.00  0.00    +0.037 A 
ATOM     15  C17 UNL     1      33.351  44.319  16.257  0.00  0.00    +0.013 A 
ATOM     16  C18 UNL     1      33.478  43.994  14.904  0.00  0.00    +0.001 A 
ATOM     17  C19 UNL     1      32.619  44.564  13.965  0.00  0.00    +0.000 A 
ATOM     18  C20 UNL     1      31.624  45.451  14.373  0.00  0.00    +0.001 A 
ATOM     19  C21 UNL     1      31.492  45.779  15.723  0.00  0.00    +0.013 A 
ENDBRANCH  11  14
ENDBRANCH   6  10
BRANCH   1  20
ATOM     20  S1  UNL     1      33.996  45.335  26.704  0.00  0.00    -0.095 S 
BRANCH  20  21
ATOM     21  C9  UNL     1      35.791  45.126  26.905  0.00  0.00    +0.117 C 
BRANCH  21  22
ATOM     22  C8  UNL     1      36.592  46.127  26.075  0.00  0.00    +0.240 C 
BRANCH  22  23
ATOM     23  O1  UNL     1      37.382  45.384  25.140  0.00  0.00    -0.491 OA
BRANCH  23  30
ATOM     24  C1  UNL     1      37.282  43.424  23.185  0.00  0.00    +0.047 C 
ATOM     25  C2  UNL     1      37.405  44.884  22.843  0.00  0.00    -0.009 A 
ATOM     26  C3  UNL     1      37.466  45.279  21.497  0.00  0.00    +0.007 A 
ATOM     27  C4  UNL     1      37.577  46.627  21.161  0.00  0.00    +0.000 A 
ATOM     28  C5  UNL     1      37.626  47.590  22.164  0.00  0.00    +0.004 A 
ATOM     29  C6  UNL     1      37.565  47.208  23.506  0.00  0.00    +0.046 A 
ATOM     30  C7  UNL     1      37.454  45.859  23.856  0.00  0.00    +0.123 A 
ENDBRANCH  23  30
ENDBRANCH  22  23
ENDBRANCH  21  22
ENDBRANCH  20  21
ENDBRANCH   1  20
TORSDOF 7
ENDMDL
