MODEL 1
REMARK VINA RESULT:    -3.431      0.000      0.000
REMARK INTER + INTRA:          -7.013
REMARK INTER:                  -4.434
REMARK INTRA:                  -2.579
REMARK UNBOUND:                -2.579
REMARK  Name = /home/vital/Documents/PhD_2021/Malaria_codes/data/pdb_ligands_mmv/ligand_106.pdb
REMARK  5 active torsions:
REMARK  status: ('A' for Active; 'I' for Inactive)
REMARK    1  A    between atoms: C5_6  and  C7_8
REMARK    2  A    between atoms: C11_14  and  S1_15
REMARK    3  A    between atoms: S1_15  and  C12_16
REMARK    4  A    between atoms: C12_16  and  C13_17
REMARK    5  A    between atoms: N3_19  and  C14_20
REMARK                            x       y       z     vdW  Elec       q    Type
REMARK                         _______ _______ _______ _____ _____    ______ ____
ROOT
ATOM      1  C7  UNL     1      15.796  30.983  14.938  0.00  0.00    +0.185 A 
ATOM      2  N1  UNL     1      15.588  31.932  14.038  0.00  0.00    -0.127 NA
ATOM      3  N2  UNL     1      15.391  33.126  14.688  0.00  0.00    -0.128 NA
ATOM      4  C8  UNL     1      15.509  32.902  15.975  0.00  0.00    +0.178 A 
ATOM      5  C9  UNL     1      15.432  33.754  17.097  0.00  0.00    +0.053 A 
ATOM      6  C10 UNL     1      15.612  33.241  18.321  0.00  0.00    +0.040 A 
ATOM      7  C11 UNL     1      15.887  31.785  18.402  0.00  0.00    +0.118 A 
ATOM      8  N4  UNL     1      15.970  30.954  17.413  0.00  0.00    -0.157 NA
ATOM      9  N5  UNL     1      15.766  31.564  16.196  0.00  0.00    -0.192 N 
ENDROOT
BRANCH   1  15
ATOM     10  F1  UNL     1      14.402  26.478  13.692  0.00  0.00    -0.205 F 
ATOM     11  C1  UNL     1      15.378  27.334  14.020  0.00  0.00    +0.124 A 
ATOM     12  C2  UNL     1      16.687  26.875  14.103  0.00  0.00    +0.038 A 
ATOM     13  C3  UNL     1      17.701  27.767  14.439  0.00  0.00    +0.003 A 
ATOM     14  C4  UNL     1      17.390  29.106  14.701  0.00  0.00    +0.012 A 
ATOM     15  C5  UNL     1      16.065  29.573  14.635  0.00  0.00    +0.024 A 
ATOM     16  C6  UNL     1      15.060  28.666  14.275  0.00  0.00    +0.050 A 
ENDBRANCH   1  15
BRANCH   7  17
ATOM     17  S1  UNL     1      16.082  31.208  20.040  0.00  0.00    -0.095 S 
BRANCH  17  18
ATOM     18  C12 UNL     1      14.467  30.422  20.306  0.00  0.00    +0.172 C 
BRANCH  18  19
ATOM     19  C13 UNL     1      14.552  28.915  20.104  0.00  0.00    +0.227 C 
ATOM     20  O1  UNL     1      14.431  28.143  21.052  0.00  0.00    -0.275 OA
ATOM     21  N3  UNL     1      14.785  28.558  18.787  0.00  0.00    -0.285 N 
ATOM     22  H9  UNL     1      15.014  29.310  18.146  0.00  0.00    +0.155 HD
BRANCH  21  23
ATOM     23  C14 UNL     1      14.873  27.254  18.254  0.00  0.00    +0.037 A 
ATOM     24  C15 UNL     1      13.715  26.749  17.618  0.00  0.00    +0.027 A 
ATOM     25  C16 UNL     1      13.693  25.469  17.057  0.00  0.00    +0.051 A 
ATOM     26  C17 UNL     1      14.838  24.712  17.153  0.00  0.00    +0.166 A 
ATOM     27  O2  UNL     1      15.000  23.452  16.673  0.00  0.00    -0.453 OA
ATOM     28  C18 UNL     1      16.369  23.193  17.055  0.00  0.00    +0.466 C 
ATOM     29  O3  UNL     1      16.987  24.292  17.751  0.00  0.00    -0.453 OA
ATOM     30  C19 UNL     1      15.966  25.192  17.772  0.00  0.00    +0.168 A 
ATOM     31  C20 UNL     1      16.017  26.455  18.329  0.00  0.00    +0.072 A 
ENDBRANCH  21  23
ENDBRANCH  18  19
ENDBRANCH  17  18
ENDBRANCH   7  17
TORSDOF 5
ENDMDL
MODEL 2
REMARK VINA RESULT:    -3.366      2.463      4.284
REMARK INTER + INTRA:          -6.928
REMARK INTER:                  -4.622
REMARK INTRA:                  -2.306
REMARK UNBOUND:                -2.579
REMARK  Name = /home/vital/Documents/PhD_2021/Malaria_codes/data/pdb_ligands_mmv/ligand_106.pdb
REMARK  5 active torsions:
REMARK  status: ('A' for Active; 'I' for Inactive)
REMARK    1  A    between atoms: C5_6  and  C7_8
REMARK    2  A    between atoms: C11_14  and  S1_15
REMARK    3  A    between atoms: S1_15  and  C12_16
REMARK    4  A    between atoms: C12_16  and  C13_17
REMARK    5  A    between atoms: N3_19  and  C14_20
REMARK                            x       y       z     vdW  Elec       q    Type
REMARK                         _______ _______ _______ _____ _____    ______ ____
ROOT
ATOM      1  C7  UNL     1      15.662  30.634  18.110  0.00  0.00    +0.185 A 
ATOM      2  N1  UNL     1      15.654  31.622  18.993  0.00  0.00    -0.127 NA
ATOM      3  N2  UNL     1      15.605  32.819  18.322  0.00  0.00    -0.128 NA
ATOM      4  C8  UNL     1      15.556  32.553  17.038  0.00  0.00    +0.178 A 
ATOM      5  C9  UNL     1      15.469  33.382  15.901  0.00  0.00    +0.053 A 
ATOM      6  C10 UNL     1      15.419  32.822  14.685  0.00  0.00    +0.040 A 
ATOM      7  C11 UNL     1      15.458  31.340  14.630  0.00  0.00    +0.118 A 
ATOM      8  N4  UNL     1      15.536  30.527  15.634  0.00  0.00    -0.157 NA
ATOM      9  N5  UNL     1      15.590  31.186  16.841  0.00  0.00    -0.192 N 
ENDROOT
BRANCH   1  15
ATOM     10  F1  UNL     1      13.691  26.174  18.224  0.00  0.00    -0.205 F 
ATOM     11  C1  UNL     1      14.717  26.989  18.501  0.00  0.00    +0.124 A 
ATOM     12  C2  UNL     1      15.839  26.479  19.142  0.00  0.00    +0.038 A 
ATOM     13  C3  UNL     1      16.906  27.326  19.424  0.00  0.00    +0.003 A 
ATOM     14  C4  UNL     1      16.832  28.678  19.073  0.00  0.00    +0.012 A 
ATOM     15  C5  UNL     1      15.692  29.204  18.439  0.00  0.00    +0.024 A 
ATOM     16  C6  UNL     1      14.636  28.333  18.143  0.00  0.00    +0.050 A 
ENDBRANCH   1  15
BRANCH   7  17
ATOM     17  S1  UNL     1      15.412  30.706  13.002  0.00  0.00    -0.095 S 
BRANCH  17  18
ATOM     18  C12 UNL     1      17.121  30.117  12.831  0.00  0.00    +0.172 C 
BRANCH  18  19
ATOM     19  C13 UNL     1      17.252  28.674  13.302  0.00  0.00    +0.227 C 
ATOM     20  O1  UNL     1      18.298  28.050  13.142  0.00  0.00    -0.275 OA
ATOM     21  N3  UNL     1      16.094  28.188  13.885  0.00  0.00    -0.285 N 
ATOM     22  H9  UNL     1      15.267  28.770  13.807  0.00  0.00    +0.155 HD
BRANCH  21  23
ATOM     23  C14 UNL     1      15.893  26.916  14.463  0.00  0.00    +0.037 A 
ATOM     24  C15 UNL     1      14.694  26.248  14.125  0.00  0.00    +0.027 A 
ATOM     25  C16 UNL     1      14.395  24.984  14.643  0.00  0.00    +0.051 A 
ATOM     26  C17 UNL     1      15.307  24.416  15.502  0.00  0.00    +0.166 A 
ATOM     27  O2  UNL     1      15.185  23.203  16.102  0.00  0.00    -0.453 OA
ATOM     28  C18 UNL     1      16.416  23.150  16.855  0.00  0.00    +0.466 C 
ATOM     29  O3  UNL     1      17.237  24.324  16.692  0.00  0.00    -0.453 OA
ATOM     30  C19 UNL     1      16.473  25.058  15.840  0.00  0.00    +0.168 A 
ATOM     31  C20 UNL     1      16.796  26.304  15.339  0.00  0.00    +0.072 A 
ENDBRANCH  21  23
ENDBRANCH  18  19
ENDBRANCH  17  18
ENDBRANCH   7  17
TORSDOF 5
ENDMDL
MODEL 3
REMARK VINA RESULT:    -3.294      2.064      2.560
REMARK INTER + INTRA:          -6.836
REMARK INTER:                  -4.107
REMARK INTRA:                  -2.729
REMARK UNBOUND:                -2.579
REMARK  Name = /home/vital/Documents/PhD_2021/Malaria_codes/data/pdb_ligands_mmv/ligand_106.pdb
REMARK  5 active torsions:
REMARK  status: ('A' for Active; 'I' for Inactive)
REMARK    1  A    between atoms: C5_6  and  C7_8
REMARK    2  A    between atoms: C11_14  and  S1_15
REMARK    3  A    between atoms: S1_15  and  C12_16
REMARK    4  A    between atoms: C12_16  and  C13_17
REMARK    5  A    between atoms: N3_19  and  C14_20
REMARK                            x       y       z     vdW  Elec       q    Type
REMARK                         _______ _______ _______ _____ _____    ______ ____
ROOT
ATOM      1  C7  UNL     1      14.911  30.007  14.191  0.00  0.00    +0.185 A 
ATOM      2  N1  UNL     1      14.742  30.629  13.034  0.00  0.00    -0.127 NA
ATOM      3  N2  UNL     1      14.872  31.982  13.233  0.00  0.00    -0.128 NA
ATOM      4  C8  UNL     1      15.147  32.173  14.501  0.00  0.00    +0.178 A 
ATOM      5  C9  UNL     1      15.403  33.340  15.250  0.00  0.00    +0.053 A 
ATOM      6  C10 UNL     1      15.675  33.232  16.557  0.00  0.00    +0.040 A 
ATOM      7  C11 UNL     1      15.687  31.861  17.126  0.00  0.00    +0.118 A 
ATOM      8  N4  UNL     1      15.461  30.755  16.493  0.00  0.00    -0.157 NA
ATOM      9  N5  UNL     1      15.184  30.960  15.160  0.00  0.00    -0.192 N 
ENDROOT
BRANCH   1  15
ATOM     10  F1  UNL     1      13.691  26.011  16.708  0.00  0.00    -0.205 F 
ATOM     11  C1  UNL     1      14.265  26.567  15.633  0.00  0.00    +0.124 A 
ATOM     12  C2  UNL     1      14.861  25.750  14.680  0.00  0.00    +0.038 A 
ATOM     13  C3  UNL     1      15.452  26.329  13.561  0.00  0.00    +0.003 A 
ATOM     14  C4  UNL     1      15.452  27.721  13.417  0.00  0.00    +0.012 A 
ATOM     15  C5  UNL     1      14.865  28.554  14.387  0.00  0.00    +0.024 A 
ATOM     16  C6  UNL     1      14.256  27.953  15.495  0.00  0.00    +0.050 A 
ENDBRANCH   1  15
BRANCH   7  17
ATOM     17  S1  UNL     1      16.027  31.826  18.840  0.00  0.00    -0.095 S 
BRANCH  17  18
ATOM     18  C12 UNL     1      17.803  31.450  18.815  0.00  0.00    +0.172 C 
BRANCH  18  19
ATOM     19  C13 UNL     1      18.046  29.949  18.909  0.00  0.00    +0.227 C 
ATOM     20  O1  UNL     1      18.664  29.467  19.854  0.00  0.00    -0.275 OA
ATOM     21  N3  UNL     1      17.518  29.247  17.838  0.00  0.00    -0.285 N 
ATOM     22  H9  UNL     1      17.169  29.799  17.061  0.00  0.00    +0.155 HD
BRANCH  21  23
ATOM     23  C14 UNL     1      17.526  27.850  17.639  0.00  0.00    +0.037 A 
ATOM     24  C15 UNL     1      18.242  27.373  16.517  0.00  0.00    +0.027 A 
ATOM     25  C16 UNL     1      18.314  26.007  16.227  0.00  0.00    +0.051 A 
ATOM     26  C17 UNL     1      17.654  25.143  17.069  0.00  0.00    +0.166 A 
ATOM     27  O2  UNL     1      17.609  23.790  16.943  0.00  0.00    -0.453 OA
ATOM     28  C18 UNL     1      16.802  23.440  18.088  0.00  0.00    +0.466 C 
ATOM     29  O3  UNL     1      16.382  24.581  18.863  0.00  0.00    -0.453 OA
ATOM     30  C19 UNL     1      16.952  25.596  18.159  0.00  0.00    +0.168 A 
ATOM     31  C20 UNL     1      16.870  26.938  18.472  0.00  0.00    +0.072 A 
ENDBRANCH  21  23
ENDBRANCH  18  19
ENDBRANCH  17  18
ENDBRANCH   7  17
TORSDOF 5
ENDMDL
MODEL 4
REMARK VINA RESULT:    -3.276      3.134      4.629
REMARK INTER + INTRA:          -6.812
REMARK INTER:                  -4.116
REMARK INTRA:                  -2.696
REMARK UNBOUND:                -2.579
REMARK  Name = /home/vital/Documents/PhD_2021/Malaria_codes/data/pdb_ligands_mmv/ligand_106.pdb
REMARK  5 active torsions:
REMARK  status: ('A' for Active; 'I' for Inactive)
REMARK    1  A    between atoms: C5_6  and  C7_8
REMARK    2  A    between atoms: C11_14  and  S1_15
REMARK    3  A    between atoms: S1_15  and  C12_16
REMARK    4  A    between atoms: C12_16  and  C13_17
REMARK    5  A    between atoms: N3_19  and  C14_20
REMARK                            x       y       z     vdW  Elec       q    Type
REMARK                         _______ _______ _______ _____ _____    ______ ____
ROOT
ATOM      1  C7  UNL     1      14.853  29.361  14.281  0.00  0.00    +0.185 A 
ATOM      2  N1  UNL     1      13.941  30.310  14.126  0.00  0.00    -0.127 NA
ATOM      3  N2  UNL     1      14.551  31.435  13.627  0.00  0.00    -0.128 NA
ATOM      4  C8  UNL     1      15.822  31.157  13.456  0.00  0.00    +0.178 A 
ATOM      5  C9  UNL     1      16.900  31.916  12.956  0.00  0.00    +0.053 A 
ATOM      6  C10 UNL     1      18.114  31.356  12.879  0.00  0.00    +0.040 A 
ATOM      7  C11 UNL     1      18.231  29.949  13.336  0.00  0.00    +0.118 A 
ATOM      8  N4  UNL     1      17.283  29.202  13.803  0.00  0.00    -0.157 NA
ATOM      9  N5  UNL     1      16.074  29.858  13.852  0.00  0.00    -0.192 N 
ENDROOT
BRANCH   1  15
ATOM     10  F1  UNL     1      14.933  24.503  13.851  0.00  0.00    -0.205 F 
ATOM     11  C1  UNL     1      14.623  25.593  14.564  0.00  0.00    +0.124 A 
ATOM     12  C2  UNL     1      14.007  25.445  15.801  0.00  0.00    +0.038 A 
ATOM     13  C3  UNL     1      13.690  26.578  16.543  0.00  0.00    +0.003 A 
ATOM     14  C4  UNL     1      13.981  27.848  16.032  0.00  0.00    +0.012 A 
ATOM     15  C5  UNL     1      14.589  28.004  14.773  0.00  0.00    +0.024 A 
ATOM     16  C6  UNL     1      14.920  26.853  14.049  0.00  0.00    +0.050 A 
ENDBRANCH   1  15
BRANCH   7  17
ATOM     17  S1  UNL     1      19.857  29.317  13.220  0.00  0.00    -0.095 S 
BRANCH  17  18
ATOM     18  C12 UNL     1      19.545  27.553  13.515  0.00  0.00    +0.172 C 
BRANCH  18  19
ATOM     19  C13 UNL     1      19.456  27.255  15.006  0.00  0.00    +0.227 C 
ATOM     20  O1  UNL     1      20.470  27.157  15.693  0.00  0.00    -0.275 OA
ATOM     21  N3  UNL     1      18.153  27.105  15.451  0.00  0.00    -0.285 N 
ATOM     22  H9  UNL     1      17.432  27.063  14.739  0.00  0.00    +0.155 HD
BRANCH  21  23
ATOM     23  C14 UNL     1      17.719  26.870  16.773  0.00  0.00    +0.037 A 
ATOM     24  C15 UNL     1      17.507  25.522  17.141  0.00  0.00    +0.027 A 
ATOM     25  C16 UNL     1      17.076  25.178  18.426  0.00  0.00    +0.051 A 
ATOM     26  C17 UNL     1      16.856  26.201  19.319  0.00  0.00    +0.166 A 
ATOM     27  O2  UNL     1      16.434  26.059  20.603  0.00  0.00    -0.453 OA
ATOM     28  C18 UNL     1      16.397  27.439  21.028  0.00  0.00    +0.466 C 
ATOM     29  O3  UNL     1      16.790  28.366  19.997  0.00  0.00    -0.453 OA
ATOM     30  C19 UNL     1      17.055  27.514  18.970  0.00  0.00    +0.168 A 
ATOM     31  C20 UNL     1      17.486  27.882  17.710  0.00  0.00    +0.072 A 
ENDBRANCH  21  23
ENDBRANCH  18  19
ENDBRANCH  17  18
ENDBRANCH   7  17
TORSDOF 5
ENDMDL
MODEL 5
REMARK VINA RESULT:    -3.080      3.494      6.186
REMARK INTER + INTRA:          -6.559
REMARK INTER:                  -3.679
REMARK INTRA:                  -2.880
REMARK UNBOUND:                -2.579
REMARK  Name = /home/vital/Documents/PhD_2021/Malaria_codes/data/pdb_ligands_mmv/ligand_106.pdb
REMARK  5 active torsions:
REMARK  status: ('A' for Active; 'I' for Inactive)
REMARK    1  A    between atoms: C5_6  and  C7_8
REMARK    2  A    between atoms: C11_14  and  S1_15
REMARK    3  A    between atoms: S1_15  and  C12_16
REMARK    4  A    between atoms: C12_16  and  C13_17
REMARK    5  A    between atoms: N3_19  and  C14_20
REMARK                            x       y       z     vdW  Elec       q    Type
REMARK                         _______ _______ _______ _____ _____    ______ ____
ROOT
ATOM      1  C7  UNL     1      15.410  27.601  13.930  0.00  0.00    +0.185 A 
ATOM      2  N1  UNL     1      15.236  26.778  12.906  0.00  0.00    -0.127 NA
ATOM      3  N2  UNL     1      15.087  25.499  13.384  0.00  0.00    -0.128 NA
ATOM      4  C8  UNL     1      15.142  25.555  14.694  0.00  0.00    +0.178 A 
ATOM      5  C9  UNL     1      15.025  24.564  15.690  0.00  0.00    +0.053 A 
ATOM      6  C10 UNL     1      15.109  24.919  16.979  0.00  0.00    +0.040 A 
ATOM      7  C11 UNL     1      15.322  26.360  17.262  0.00  0.00    +0.118 A 
ATOM      8  N4  UNL     1      15.437  27.314  16.395  0.00  0.00    -0.157 NA
ATOM      9  N5  UNL     1      15.345  26.859  15.099  0.00  0.00    -0.192 N 
ENDROOT
BRANCH   1  15
ATOM     10  F1  UNL     1      18.093  31.594  13.123  0.00  0.00    -0.205 F 
ATOM     11  C1  UNL     1      16.914  31.039  13.433  0.00  0.00    +0.124 A 
ATOM     12  C2  UNL     1      15.823  31.860  13.693  0.00  0.00    +0.038 A 
ATOM     13  C3  UNL     1      14.597  31.282  14.009  0.00  0.00    +0.003 A 
ATOM     14  C4  UNL     1      14.481  29.889  14.074  0.00  0.00    +0.012 A 
ATOM     15  C5  UNL     1      15.586  29.054  13.829  0.00  0.00    +0.024 A 
ATOM     16  C6  UNL     1      16.806  29.652  13.491  0.00  0.00    +0.050 A 
ENDBRANCH   1  15
BRANCH   7  17
ATOM     17  S1  UNL     1      15.443  26.719  18.969  0.00  0.00    -0.095 S 
BRANCH  17  18
ATOM     18  C12 UNL     1      14.355  28.169  19.077  0.00  0.00    +0.172 C 
BRANCH  18  19
ATOM     19  C13 UNL     1      15.163  29.459  19.095  0.00  0.00    +0.227 C 
ATOM     20  O1  UNL     1      15.407  30.037  20.151  0.00  0.00    -0.275 OA
ATOM     21  N3  UNL     1      15.548  29.875  17.832  0.00  0.00    -0.285 N 
ATOM     22  H9  UNL     1      15.142  29.377  17.046  0.00  0.00    +0.155 HD
BRANCH  21  23
ATOM     23  C14 UNL     1      16.338  30.996  17.500  0.00  0.00    +0.037 A 
ATOM     24  C15 UNL     1      15.710  32.260  17.578  0.00  0.00    +0.027 A 
ATOM     25  C16 UNL     1      16.401  33.436  17.271  0.00  0.00    +0.051 A 
ATOM     26  C17 UNL     1      17.715  33.318  16.880  0.00  0.00    +0.166 A 
ATOM     27  O2  UNL     1      18.538  34.345  16.540  0.00  0.00    -0.453 OA
ATOM     28  C18 UNL     1      19.754  33.626  16.239  0.00  0.00    +0.466 C 
ATOM     29  O3  UNL     1      19.631  32.200  16.400  0.00  0.00    -0.453 OA
ATOM     30  C19 UNL     1      18.333  32.095  16.796  0.00  0.00    +0.168 A 
ATOM     31  C20 UNL     1      17.676  30.919  17.100  0.00  0.00    +0.072 A 
ENDBRANCH  21  23
ENDBRANCH  18  19
ENDBRANCH  17  18
ENDBRANCH   7  17
TORSDOF 5
ENDMDL
MODEL 6
REMARK VINA RESULT:    -2.700      1.679      2.163
REMARK INTER + INTRA:          -6.068
REMARK INTER:                  -3.269
REMARK INTRA:                  -2.799
REMARK UNBOUND:                -2.579
REMARK  Name = /home/vital/Documents/PhD_2021/Malaria_codes/data/pdb_ligands_mmv/ligand_106.pdb
REMARK  5 active torsions:
REMARK  status: ('A' for Active; 'I' for Inactive)
REMARK    1  A    between atoms: C5_6  and  C7_8
REMARK    2  A    between atoms: C11_14  and  S1_15
REMARK    3  A    between atoms: S1_15  and  C12_16
REMARK    4  A    between atoms: C12_16  and  C13_17
REMARK    5  A    between atoms: N3_19  and  C14_20
REMARK                            x       y       z     vdW  Elec       q    Type
REMARK                         _______ _______ _______ _____ _____    ______ ____
ROOT
ATOM      1  C7  UNL     1      16.704  31.848  17.043  0.00  0.00    +0.185 A 
ATOM      2  N1  UNL     1      17.520  32.835  16.701  0.00  0.00    -0.127 NA
ATOM      3  N2  UNL     1      17.461  33.813  17.664  0.00  0.00    -0.128 NA
ATOM      4  C8  UNL     1      16.634  33.405  18.597  0.00  0.00    +0.178 A 
ATOM      5  C9  UNL     1      16.217  33.982  19.813  0.00  0.00    +0.053 A 
ATOM      6  C10 UNL     1      15.355  33.317  20.592  0.00  0.00    +0.040 A 
ATOM      7  C11 UNL     1      14.896  31.994  20.102  0.00  0.00    +0.118 A 
ATOM      8  N4  UNL     1      15.241  31.412  18.999  0.00  0.00    -0.157 NA
ATOM      9  N5  UNL     1      16.123  32.168  18.259  0.00  0.00    -0.192 N 
ENDROOT
BRANCH   1  15
ATOM     10  F1  UNL     1      17.830  27.252  15.862  0.00  0.00    -0.205 F 
ATOM     11  C1  UNL     1      17.060  28.332  15.685  0.00  0.00    +0.124 A 
ATOM     12  C2  UNL     1      16.051  28.300  14.730  0.00  0.00    +0.038 A 
ATOM     13  C3  UNL     1      15.247  29.422  14.551  0.00  0.00    +0.003 A 
ATOM     14  C4  UNL     1      15.473  30.569  15.321  0.00  0.00    +0.012 A 
ATOM     15  C5  UNL     1      16.503  30.613  16.277  0.00  0.00    +0.024 A 
ATOM     16  C6  UNL     1      17.288  29.468  16.459  0.00  0.00    +0.050 A 
ENDBRANCH   1  15
BRANCH   7  17
ATOM     17  S1  UNL     1      13.755  31.216  21.174  0.00  0.00    -0.095 S 
BRANCH  17  18
ATOM     18  C12 UNL     1      14.828  29.973  21.949  0.00  0.00    +0.172 C 
BRANCH  18  19
ATOM     19  C13 UNL     1      14.646  28.609  21.295  0.00  0.00    +0.227 C 
ATOM     20  O1  UNL     1      14.199  27.658  21.931  0.00  0.00    -0.275 OA
ATOM     21  N3  UNL     1      15.044  28.587  19.969  0.00  0.00    -0.285 N 
ATOM     22  H9  UNL     1      15.533  29.408  19.628  0.00  0.00    +0.155 HD
BRANCH  21  23
ATOM     23  C14 UNL     1      14.967  27.504  19.067  0.00  0.00    +0.037 A 
ATOM     24  C15 UNL     1      13.864  27.492  18.183  0.00  0.00    +0.027 A 
ATOM     25  C16 UNL     1      13.691  26.465  17.251  0.00  0.00    +0.051 A 
ATOM     26  C17 UNL     1      14.630  25.459  17.230  0.00  0.00    +0.166 A 
ATOM     27  O2  UNL     1      14.624  24.383  16.400  0.00  0.00    -0.453 OA
ATOM     28  C18 UNL     1      15.824  23.706  16.829  0.00  0.00    +0.466 C 
ATOM     29  O3  UNL     1      16.513  24.383  17.898  0.00  0.00    -0.453 OA
ATOM     30  C19 UNL     1      15.702  25.459  18.087  0.00  0.00    +0.168 A 
ATOM     31  C20 UNL     1      15.900  26.464  19.014  0.00  0.00    +0.072 A 
ENDBRANCH  21  23
ENDBRANCH  18  19
ENDBRANCH  17  18
ENDBRANCH   7  17
TORSDOF 5
ENDMDL
MODEL 7
REMARK VINA RESULT:    -2.627     15.128     17.874
REMARK INTER + INTRA:          -5.974
REMARK INTER:                  -3.090
REMARK INTRA:                  -2.884
REMARK UNBOUND:                -2.579
REMARK  Name = /home/vital/Documents/PhD_2021/Malaria_codes/data/pdb_ligands_mmv/ligand_106.pdb
REMARK  5 active torsions:
REMARK  status: ('A' for Active; 'I' for Inactive)
REMARK    1  A    between atoms: C5_6  and  C7_8
REMARK    2  A    between atoms: C11_14  and  S1_15
REMARK    3  A    between atoms: S1_15  and  C12_16
REMARK    4  A    between atoms: C12_16  and  C13_17
REMARK    5  A    between atoms: N3_19  and  C14_20
REMARK                            x       y       z     vdW  Elec       q    Type
REMARK                         _______ _______ _______ _____ _____    ______ ____
ROOT
ATOM      1  C7  UNL     1      23.416  46.781  15.912  0.00  0.00    +0.185 A 
ATOM      2  N1  UNL     1      24.423  47.589  15.617  0.00  0.00    -0.127 NA
ATOM      3  N2  UNL     1      24.728  47.452  14.285  0.00  0.00    -0.128 NA
ATOM      4  C8  UNL     1      23.889  46.584  13.772  0.00  0.00    +0.178 A 
ATOM      5  C9  UNL     1      23.722  46.085  12.464  0.00  0.00    +0.053 A 
ATOM      6  C10 UNL     1      22.750  45.196  12.221  0.00  0.00    +0.040 A 
ATOM      7  C11 UNL     1      21.905  44.799  13.374  0.00  0.00    +0.118 A 
ATOM      8  N4  UNL     1      22.007  45.220  14.594  0.00  0.00    -0.157 NA
ATOM      9  N5  UNL     1      23.034  46.123  14.753  0.00  0.00    -0.192 N 
ENDROOT
BRANCH   1  15
ATOM     10  F1  UNL     1      23.397  45.357  20.577  0.00  0.00    -0.205 F 
ATOM     11  C1  UNL     1      22.774  45.946  19.548  0.00  0.00    +0.124 A 
ATOM     12  C2  UNL     1      21.484  46.434  19.721  0.00  0.00    +0.038 A 
ATOM     13  C3  UNL     1      20.841  47.051  18.653  0.00  0.00    +0.003 A 
ATOM     14  C4  UNL     1      21.492  47.160  17.419  0.00  0.00    +0.012 A 
ATOM     15  C5  UNL     1      22.791  46.654  17.233  0.00  0.00    +0.024 A 
ATOM     16  C6  UNL     1      23.431  46.055  18.325  0.00  0.00    +0.050 A 
ENDBRANCH   1  15
BRANCH   7  17
ATOM     17  S1  UNL     1      20.683  43.619  12.962  0.00  0.00    -0.095 S 
BRANCH  17  18
ATOM     18  C12 UNL     1      21.507  42.093  13.497  0.00  0.00    +0.172 C 
BRANCH  18  19
ATOM     19  C13 UNL     1      21.146  41.751  14.937  0.00  0.00    +0.227 C 
ATOM     20  O1  UNL     1      20.450  40.774  15.199  0.00  0.00    -0.275 OA
ATOM     21  N3  UNL     1      21.668  42.650  15.853  0.00  0.00    -0.285 N 
ATOM     22  H9  UNL     1      22.093  43.490  15.475  0.00  0.00    +0.155 HD
BRANCH  21  23
ATOM     23  C14 UNL     1      21.561  42.600  17.260  0.00  0.00    +0.037 A 
ATOM     24  C15 UNL     1      22.701  42.154  17.967  0.00  0.00    +0.027 A 
ATOM     25  C16 UNL     1      22.702  42.066  19.363  0.00  0.00    +0.051 A 
ATOM     26  C17 UNL     1      21.549  42.422  20.024  0.00  0.00    +0.166 A 
ATOM     27  O2  UNL     1      21.365  42.397  21.370  0.00  0.00    -0.453 OA
ATOM     28  C18 UNL     1      20.004  42.870  21.464  0.00  0.00    +0.466 C 
ATOM     29  O3  UNL     1      19.409  43.161  20.184  0.00  0.00    -0.453 OA
ATOM     30  C19 UNL     1      20.435  42.852  19.346  0.00  0.00    +0.168 A 
ATOM     31  C20 UNL     1      20.409  42.954  17.968  0.00  0.00    +0.072 A 
ENDBRANCH  21  23
ENDBRANCH  18  19
ENDBRANCH  17  18
ENDBRANCH   7  17
TORSDOF 5
ENDMDL
MODEL 8
REMARK VINA RESULT:    -2.465     14.989     17.466
REMARK INTER + INTRA:          -5.765
REMARK INTER:                  -2.955
REMARK INTRA:                  -2.810
REMARK UNBOUND:                -2.579
REMARK  Name = /home/vital/Documents/PhD_2021/Malaria_codes/data/pdb_ligands_mmv/ligand_106.pdb
REMARK  5 active torsions:
REMARK  status: ('A' for Active; 'I' for Inactive)
REMARK    1  A    between atoms: C5_6  and  C7_8
REMARK    2  A    between atoms: C11_14  and  S1_15
REMARK    3  A    between atoms: S1_15  and  C12_16
REMARK    4  A    between atoms: C12_16  and  C13_17
REMARK    5  A    between atoms: N3_19  and  C14_20
REMARK                            x       y       z     vdW  Elec       q    Type
REMARK                         _______ _______ _______ _____ _____    ______ ____
ROOT
ATOM      1  C7  UNL     1      23.159  46.583  16.372  0.00  0.00    +0.185 A 
ATOM      2  N1  UNL     1      24.006  47.590  16.217  0.00  0.00    -0.127 NA
ATOM      3  N2  UNL     1      24.677  47.428  15.029  0.00  0.00    -0.128 NA
ATOM      4  C8  UNL     1      24.216  46.342  14.457  0.00  0.00    +0.178 A 
ATOM      5  C9  UNL     1      24.518  45.716  13.230  0.00  0.00    +0.053 A 
ATOM      6  C10 UNL     1      23.864  44.598  12.887  0.00  0.00    +0.040 A 
ATOM      7  C11 UNL     1      22.851  44.096  13.847  0.00  0.00    +0.118 A 
ATOM      8  N4  UNL     1      22.530  44.623  14.985  0.00  0.00    -0.157 NA
ATOM      9  N5  UNL     1      23.253  45.762  15.259  0.00  0.00    -0.192 N 
ENDROOT
BRANCH   1  15
ATOM     10  F1  UNL     1      18.727  46.562  18.407  0.00  0.00    -0.205 F 
ATOM     11  C1  UNL     1      20.051  46.401  18.525  0.00  0.00    +0.124 A 
ATOM     12  C2  UNL     1      20.591  46.083  19.765  0.00  0.00    +0.038 A 
ATOM     13  C3  UNL     1      21.966  45.910  19.885  0.00  0.00    +0.003 A 
ATOM     14  C4  UNL     1      22.787  46.071  18.763  0.00  0.00    +0.012 A 
ATOM     15  C5  UNL     1      22.248  46.409  17.509  0.00  0.00    +0.024 A 
ATOM     16  C6  UNL     1      20.860  46.558  17.402  0.00  0.00    +0.050 A 
ENDBRANCH   1  15
BRANCH   7  17
ATOM     17  S1  UNL     1      22.072  42.622  13.323  0.00  0.00    -0.095 S 
BRANCH  17  18
ATOM     18  C12 UNL     1      20.442  42.817  14.100  0.00  0.00    +0.172 C 
BRANCH  18  19
ATOM     19  C13 UNL     1      20.396  42.127  15.456  0.00  0.00    +0.227 C 
ATOM     20  O1  UNL     1      19.952  40.987  15.570  0.00  0.00    -0.275 OA
ATOM     21  N3  UNL     1      20.879  42.920  16.484  0.00  0.00    -0.285 N 
ATOM     22  H9  UNL     1      21.067  43.891  16.259  0.00  0.00    +0.155 HD
BRANCH  21  23
ATOM     23  C14 UNL     1      21.017  42.572  17.845  0.00  0.00    +0.037 A 
ATOM     24  C15 UNL     1      19.832  42.538  18.615  0.00  0.00    +0.027 A 
ATOM     25  C16 UNL     1      19.856  42.207  19.973  0.00  0.00    +0.051 A 
ATOM     26  C17 UNL     1      21.078  41.922  20.536  0.00  0.00    +0.166 A 
ATOM     27  O2  UNL     1      21.295  41.585  21.835  0.00  0.00    -0.453 OA
ATOM     28  C18 UNL     1      22.727  41.402  21.830  0.00  0.00    +0.466 C 
ATOM     29  O3  UNL     1      23.329  41.635  20.541  0.00  0.00    -0.453 OA
ATOM     30  C19 UNL     1      22.235  41.956  19.799  0.00  0.00    +0.168 A 
ATOM     31  C20 UNL     1      22.240  42.274  18.454  0.00  0.00    +0.072 A 
ENDBRANCH  21  23
ENDBRANCH  18  19
ENDBRANCH  17  18
ENDBRANCH   7  17
TORSDOF 5
ENDMDL
