MODEL 1
REMARK VINA RESULT:    -4.482      0.000      0.000
REMARK INTER + INTRA:          -6.932
REMARK INTER:                  -5.792
REMARK INTRA:                  -1.140
REMARK UNBOUND:                -1.140
REMARK  Name = /home/vital/Documents/PhD_2021/Malaria_codes/data/pdb_ligands_mmv/ligand_176.pdb
REMARK  5 active torsions:
REMARK  status: ('A' for Active; 'I' for Inactive)
REMARK    1  A    between atoms: C5_7  and  C23_28
REMARK    2  A    between atoms: C7_9  and  C8_10
REMARK    3  A    between atoms: N2_12  and  C9_13
REMARK    4  A    between atoms: N3_16  and  C12_17
REMARK    5  A    between atoms: C12_17  and  C13_18
REMARK                            x       y       z     vdW  Elec       q    Type
REMARK                         _______ _______ _______ _____ _____    ______ ____
ROOT
ATOM      1 CL1  UNL     1      24.304  46.713  14.485  0.00  0.00    -0.084 Cl
ATOM      2  C1  UNL     1      23.614  46.799  16.055  0.00  0.00    +0.042 A 
ATOM      3  C2  UNL     1      22.345  47.330  16.228  0.00  0.00    +0.022 A 
ATOM      4  C3  UNL     1      21.801  47.404  17.513  0.00  0.00    +0.030 A 
ATOM      5  C4  UNL     1      22.491  46.953  18.630  0.00  0.00    +0.072 A 
ATOM      6  N1  UNL     1      21.903  47.083  19.830  0.00  0.00    -0.247 NA
ATOM      7  C5  UNL     1      22.552  46.692  20.955  0.00  0.00    +0.072 A 
ATOM      8  C6  UNL     1      23.804  46.109  20.891  0.00  0.00    +0.042 A 
ATOM      9  C7  UNL     1      24.402  45.939  19.640  0.00  0.00    +0.048 A 
ATOM     10  C21 UNL     1      23.769  46.390  18.460  0.00  0.00    +0.014 A 
ATOM     11  C22 UNL     1      24.328  46.335  17.157  0.00  0.00    +0.030 A 
ENDROOT
BRANCH   7  12
ATOM     12  C23 UNL     1      21.827  46.917  22.223  0.00  0.00    +0.003 A 
ATOM     13  C24 UNL     1      20.429  46.998  22.287  0.00  0.00    +0.030 A 
ATOM     14  C25 UNL     1      19.814  47.215  23.512  0.00  0.00    +0.111 A 
ATOM     15  N4  UNL     1      20.481  47.355  24.674  0.00  0.00    -0.263 NA
ATOM     16  C26 UNL     1      21.824  47.262  24.609  0.00  0.00    +0.111 A 
ATOM     17  C27 UNL     1      22.525  47.048  23.433  0.00  0.00    +0.030 A 
ENDBRANCH   7  12
BRANCH   9  18
ATOM     18  C8  UNL     1      25.719  45.264  19.643  0.00  0.00    +0.245 C 
ATOM     19  O1  UNL     1      25.791  44.079  19.346  0.00  0.00    -0.270 OA
ATOM     20  N2  UNL     1      26.800  46.073  19.917  0.00  0.00    -0.308 N 
ATOM     21  H4  UNL     1      26.658  47.076  19.931  0.00  0.00    +0.149 HD
BRANCH  20  22
ATOM     22  C9  UNL     1      28.171  45.583  19.799  0.00  0.00    +0.076 C 
ATOM     23  C10 UNL     1      29.068  46.279  20.833  0.00  0.00    +0.037 C 
ATOM     24  C11 UNL     1      30.508  46.362  20.335  0.00  0.00    +0.086 C 
ATOM     25  N3  UNL     1      30.593  47.188  19.131  0.00  0.00    -0.298 NA
ATOM     26  C19 UNL     1      29.479  47.040  18.193  0.00  0.00    +0.086 C 
ATOM     27  C20 UNL     1      28.704  45.735  18.366  0.00  0.00    +0.037 C 
BRANCH  25  28
ATOM     28  C12 UNL     1      31.925  47.234  18.520  0.00  0.00    +0.119 C 
BRANCH  28  29
ATOM     29  C13 UNL     1      32.307  46.062  17.637  0.00  0.00    -0.033 A 
ATOM     30  C14 UNL     1      32.736  44.849  18.195  0.00  0.00    +0.005 A 
ATOM     31  C15 UNL     1      33.089  43.773  17.378  0.00  0.00    +0.000 A 
ATOM     32  C16 UNL     1      33.011  43.895  15.992  0.00  0.00    +0.000 A 
ATOM     33  C17 UNL     1      32.578  45.089  15.423  0.00  0.00    +0.000 A 
ATOM     34  C18 UNL     1      32.225  46.164  16.240  0.00  0.00    +0.005 A 
ENDBRANCH  28  29
ENDBRANCH  25  28
ENDBRANCH  20  22
ENDBRANCH   9  18
TORSDOF 5
ENDMDL
MODEL 2
REMARK VINA RESULT:    -4.332      2.421      5.083
REMARK INTER + INTRA:          -6.739
REMARK INTER:                  -5.617
REMARK INTRA:                  -1.121
REMARK UNBOUND:                -1.140
REMARK  Name = /home/vital/Documents/PhD_2021/Malaria_codes/data/pdb_ligands_mmv/ligand_176.pdb
REMARK  5 active torsions:
REMARK  status: ('A' for Active; 'I' for Inactive)
REMARK    1  A    between atoms: C5_7  and  C23_28
REMARK    2  A    between atoms: C7_9  and  C8_10
REMARK    3  A    between atoms: N2_12  and  C9_13
REMARK    4  A    between atoms: N3_16  and  C12_17
REMARK    5  A    between atoms: C12_17  and  C13_18
REMARK                            x       y       z     vdW  Elec       q    Type
REMARK                         _______ _______ _______ _____ _____    ______ ____
ROOT
ATOM      1 CL1  UNL     1      22.631  46.560  23.122  0.00  0.00    -0.084 Cl
ATOM      2  C1  UNL     1      22.613  46.635  21.406  0.00  0.00    +0.042 A 
ATOM      3  C2  UNL     1      21.515  47.165  20.747  0.00  0.00    +0.022 A 
ATOM      4  C3  UNL     1      21.510  47.209  19.350  0.00  0.00    +0.030 A 
ATOM      5  C4  UNL     1      22.579  46.743  18.595  0.00  0.00    +0.072 A 
ATOM      6  N1  UNL     1      22.481  46.803  17.258  0.00  0.00    -0.247 NA
ATOM      7  C5  UNL     1      23.482  46.325  16.478  0.00  0.00    +0.072 A 
ATOM      8  C6  UNL     1      24.641  45.817  17.035  0.00  0.00    +0.042 A 
ATOM      9  C7  UNL     1      24.760  45.789  18.427  0.00  0.00    +0.048 A 
ATOM     10  C21 UNL     1      23.707  46.227  19.259  0.00  0.00    +0.014 A 
ATOM     11  C22 UNL     1      23.701  46.164  20.677  0.00  0.00    +0.030 A 
ENDROOT
BRANCH   7  12
ATOM     12  C23 UNL     1      23.252  46.406  15.020  0.00  0.00    +0.003 A 
ATOM     13  C24 UNL     1      22.035  46.039  14.428  0.00  0.00    +0.030 A 
ATOM     14  C25 UNL     1      21.890  46.137  13.051  0.00  0.00    +0.111 A 
ATOM     15  N4  UNL     1      22.858  46.570  12.222  0.00  0.00    -0.263 NA
ATOM     16  C26 UNL     1      24.021  46.935  12.797  0.00  0.00    +0.111 A 
ATOM     17  C27 UNL     1      24.259  46.872  14.161  0.00  0.00    +0.030 A 
ENDBRANCH   7  12
BRANCH   9  18
ATOM     18  C8  UNL     1      26.045  45.277  18.952  0.00  0.00    +0.245 C 
ATOM     19  O1  UNL     1      26.114  44.126  19.363  0.00  0.00    -0.270 OA
ATOM     20  N2  UNL     1      27.112  46.144  18.862  0.00  0.00    -0.308 N 
ATOM     21  H4  UNL     1      27.001  46.985  18.308  0.00  0.00    +0.149 HD
BRANCH  20  22
ATOM     22  C9  UNL     1      28.471  45.722  19.192  0.00  0.00    +0.076 C 
ATOM     23  C10 UNL     1      29.174  46.811  20.015  0.00  0.00    +0.037 C 
ATOM     24  C11 UNL     1      30.682  46.773  19.791  0.00  0.00    +0.086 C 
ATOM     25  N3  UNL     1      31.006  47.074  18.396  0.00  0.00    -0.298 NA
ATOM     26  C19 UNL     1      30.083  46.515  17.407  0.00  0.00    +0.086 C 
ATOM     27  C20 UNL     1      29.264  45.338  17.933  0.00  0.00    +0.037 C 
BRANCH  25  28
ATOM     28  C12 UNL     1      32.430  46.953  18.065  0.00  0.00    +0.119 C 
BRANCH  28  29
ATOM     29  C13 UNL     1      32.833  45.748  17.238  0.00  0.00    -0.033 A 
ATOM     30  C14 UNL     1      33.177  45.885  15.885  0.00  0.00    +0.005 A 
ATOM     31  C15 UNL     1      33.545  44.771  15.127  0.00  0.00    +0.000 A 
ATOM     32  C16 UNL     1      33.579  43.508  15.713  0.00  0.00    +0.000 A 
ATOM     33  C17 UNL     1      33.249  43.357  17.057  0.00  0.00    +0.000 A 
ATOM     34  C18 UNL     1      32.881  44.470  17.815  0.00  0.00    +0.005 A 
ENDBRANCH  28  29
ENDBRANCH  25  28
ENDBRANCH  20  22
ENDBRANCH   9  18
TORSDOF 5
ENDMDL
MODEL 3
REMARK VINA RESULT:    -4.323     17.710     19.937
REMARK INTER + INTRA:          -6.727
REMARK INTER:                  -6.265
REMARK INTRA:                  -0.462
REMARK UNBOUND:                -1.140
REMARK  Name = /home/vital/Documents/PhD_2021/Malaria_codes/data/pdb_ligands_mmv/ligand_176.pdb
REMARK  5 active torsions:
REMARK  status: ('A' for Active; 'I' for Inactive)
REMARK    1  A    between atoms: C5_7  and  C23_28
REMARK    2  A    between atoms: C7_9  and  C8_10
REMARK    3  A    between atoms: N2_12  and  C9_13
REMARK    4  A    between atoms: N3_16  and  C12_17
REMARK    5  A    between atoms: C12_17  and  C13_18
REMARK                            x       y       z     vdW  Elec       q    Type
REMARK                         _______ _______ _______ _____ _____    ______ ____
ROOT
ATOM      1 CL1  UNL     1      15.054  32.724  12.369  0.00  0.00    -0.084 Cl
ATOM      2  C1  UNL     1      15.262  31.162  13.050  0.00  0.00    +0.042 A 
ATOM      3  C2  UNL     1      15.413  30.059  12.224  0.00  0.00    +0.022 A 
ATOM      4  C3  UNL     1      15.569  28.792  12.793  0.00  0.00    +0.030 A 
ATOM      5  C4  UNL     1      15.586  28.601  14.168  0.00  0.00    +0.072 A 
ATOM      6  N1  UNL     1      15.719  27.347  14.629  0.00  0.00    -0.247 NA
ATOM      7  C5  UNL     1      15.703  27.105  15.964  0.00  0.00    +0.072 A 
ATOM      8  C6  UNL     1      15.602  28.139  16.876  0.00  0.00    +0.042 A 
ATOM      9  C7  UNL     1      15.501  29.448  16.398  0.00  0.00    +0.048 A 
ATOM     10  C21 UNL     1      15.458  29.719  15.013  0.00  0.00    +0.014 A 
ATOM     11  C22 UNL     1      15.278  31.001  14.432  0.00  0.00    +0.030 A 
ENDROOT
BRANCH   7  12
ATOM     12  C23 UNL     1      15.817  25.685  16.358  0.00  0.00    +0.003 A 
ATOM     13  C24 UNL     1      15.675  24.635  15.440  0.00  0.00    +0.030 A 
ATOM     14  C25 UNL     1      15.791  23.323  15.881  0.00  0.00    +0.111 A 
ATOM     15  N4  UNL     1      16.038  22.979  17.159  0.00  0.00    -0.263 NA
ATOM     16  C26 UNL     1      16.187  23.993  18.035  0.00  0.00    +0.111 A 
ATOM     17  C27 UNL     1      16.089  25.331  17.688  0.00  0.00    +0.030 A 
ENDBRANCH   7  12
BRANCH   9  18
ATOM     18  C8  UNL     1      15.445  30.506  17.431  0.00  0.00    +0.245 C 
ATOM     19  O1  UNL     1      15.049  30.232  18.556  0.00  0.00    -0.270 OA
ATOM     20  N2  UNL     1      15.931  31.737  17.047  0.00  0.00    -0.308 N 
ATOM     21  H4  UNL     1      16.436  31.802  16.171  0.00  0.00    +0.149 HD
BRANCH  20  22
ATOM     22  C9  UNL     1      16.086  32.830  18.003  0.00  0.00    +0.076 C 
ATOM     23  C10 UNL     1      14.764  33.598  18.142  0.00  0.00    +0.037 C 
ATOM     24  C11 UNL     1      15.018  35.054  18.519  0.00  0.00    +0.086 C 
ATOM     25  N3  UNL     1      15.754  35.742  17.459  0.00  0.00    -0.298 NA
ATOM     26  C19 UNL     1      16.788  34.944  16.799  0.00  0.00    +0.086 C 
ATOM     27  C20 UNL     1      17.258  33.749  17.625  0.00  0.00    +0.037 C 
BRANCH  25  28
ATOM     28  C12 UNL     1      16.138  37.120  17.784  0.00  0.00    +0.119 C 
BRANCH  28  29
ATOM     29  C13 UNL     1      15.576  38.209  16.892  0.00  0.00    -0.033 A 
ATOM     30  C14 UNL     1      16.167  39.480  16.845  0.00  0.00    +0.005 A 
ATOM     31  C15 UNL     1      15.643  40.480  16.023  0.00  0.00    +0.000 A 
ATOM     32  C16 UNL     1      14.525  40.221  15.234  0.00  0.00    +0.000 A 
ATOM     33  C17 UNL     1      13.932  38.961  15.263  0.00  0.00    +0.000 A 
ATOM     34  C18 UNL     1      14.455  37.961  16.084  0.00  0.00    +0.005 A 
ENDBRANCH  28  29
ENDBRANCH  25  28
ENDBRANCH  20  22
ENDBRANCH   9  18
TORSDOF 5
ENDMDL
MODEL 4
REMARK VINA RESULT:    -4.110     16.814     19.103
REMARK INTER + INTRA:          -6.451
REMARK INTER:                  -5.411
REMARK INTRA:                  -1.040
REMARK UNBOUND:                -1.140
REMARK  Name = /home/vital/Documents/PhD_2021/Malaria_codes/data/pdb_ligands_mmv/ligand_176.pdb
REMARK  5 active torsions:
REMARK  status: ('A' for Active; 'I' for Inactive)
REMARK    1  A    between atoms: C5_7  and  C23_28
REMARK    2  A    between atoms: C7_9  and  C8_10
REMARK    3  A    between atoms: N2_12  and  C9_13
REMARK    4  A    between atoms: N3_16  and  C12_17
REMARK    5  A    between atoms: C12_17  and  C13_18
REMARK                            x       y       z     vdW  Elec       q    Type
REMARK                         _______ _______ _______ _____ _____    ______ ____
ROOT
ATOM      1 CL1  UNL     1      15.295  31.347  19.804  0.00  0.00    -0.084 Cl
ATOM      2  C1  UNL     1      15.319  32.865  19.002  0.00  0.00    +0.042 A 
ATOM      3  C2  UNL     1      14.838  33.996  19.642  0.00  0.00    +0.022 A 
ATOM      4  C3  UNL     1      14.853  35.222  18.972  0.00  0.00    +0.030 A 
ATOM      5  C4  UNL     1      15.345  35.348  17.679  0.00  0.00    +0.072 A 
ATOM      6  N1  UNL     1      15.300  36.559  17.103  0.00  0.00    -0.247 NA
ATOM      7  C5  UNL     1      15.733  36.725  15.827  0.00  0.00    +0.072 A 
ATOM      8  C6  UNL     1      16.273  35.670  15.114  0.00  0.00    +0.042 A 
ATOM      9  C7  UNL     1      16.354  34.418  15.727  0.00  0.00    +0.048 A 
ATOM     10  C21 UNL     1      15.857  34.209  17.032  0.00  0.00    +0.014 A 
ATOM     11  C22 UNL     1      15.821  32.961  17.707  0.00  0.00    +0.030 A 
ENDROOT
BRANCH   7  12
ATOM     12  C23 UNL     1      15.603  38.091  15.280  0.00  0.00    +0.003 A 
ATOM     13  C24 UNL     1      16.007  38.423  13.979  0.00  0.00    +0.030 A 
ATOM     14  C25 UNL     1      15.859  39.728  13.530  0.00  0.00    +0.111 A 
ATOM     15  N4  UNL     1      15.340  40.724  14.274  0.00  0.00    -0.263 NA
ATOM     16  C26 UNL     1      14.941  40.397  15.520  0.00  0.00    +0.111 A 
ATOM     17  C27 UNL     1      15.050  39.123  16.053  0.00  0.00    +0.030 A 
ENDBRANCH   7  12
BRANCH   9  18
ATOM     18  C8  UNL     1      16.986  33.349  14.922  0.00  0.00    +0.245 C 
ATOM     19  O1  UNL     1      18.195  33.172  14.997  0.00  0.00    -0.270 OA
ATOM     20  N2  UNL     1      16.122  32.566  14.188  0.00  0.00    -0.308 N 
ATOM     21  H4  UNL     1      15.128  32.653  14.365  0.00  0.00    +0.149 HD
BRANCH  20  22
ATOM     22  C9  UNL     1      16.583  31.379  13.474  0.00  0.00    +0.076 C 
ATOM     23  C10 UNL     1      15.521  30.929  12.461  0.00  0.00    +0.037 C 
ATOM     24  C11 UNL     1      15.598  29.424  12.225  0.00  0.00    +0.086 C 
ATOM     25  N3  UNL     1      15.294  28.691  13.454  0.00  0.00    -0.298 NA
ATOM     26  C19 UNL     1      15.819  29.289  14.682  0.00  0.00    +0.086 C 
ATOM     27  C20 UNL     1      16.978  30.255  14.445  0.00  0.00    +0.037 C 
BRANCH  25  28
ATOM     28  C12 UNL     1      15.451  27.236  13.346  0.00  0.00    +0.119 C 
BRANCH  28  29
ATOM     29  C13 UNL     1      15.217  26.434  14.611  0.00  0.00    -0.033 A 
ATOM     30  C14 UNL     1      13.922  26.245  15.115  0.00  0.00    +0.005 A 
ATOM     31  C15 UNL     1      13.712  25.507  16.282  0.00  0.00    +0.000 A 
ATOM     32  C16 UNL     1      14.793  24.945  16.957  0.00  0.00    +0.000 A 
ATOM     33  C17 UNL     1      16.084  25.116  16.464  0.00  0.00    +0.000 A 
ATOM     34  C18 UNL     1      16.294  25.853  15.297  0.00  0.00    +0.005 A 
ENDBRANCH  28  29
ENDBRANCH  25  28
ENDBRANCH  20  22
ENDBRANCH   9  18
TORSDOF 5
ENDMDL
MODEL 5
REMARK VINA RESULT:    -4.103     21.712     23.911
REMARK INTER + INTRA:          -6.443
REMARK INTER:                  -5.427
REMARK INTRA:                  -1.015
REMARK UNBOUND:                -1.140
REMARK  Name = /home/vital/Documents/PhD_2021/Malaria_codes/data/pdb_ligands_mmv/ligand_176.pdb
REMARK  5 active torsions:
REMARK  status: ('A' for Active; 'I' for Inactive)
REMARK    1  A    between atoms: C5_7  and  C23_28
REMARK    2  A    between atoms: C7_9  and  C8_10
REMARK    3  A    between atoms: N2_12  and  C9_13
REMARK    4  A    between atoms: N3_16  and  C12_17
REMARK    5  A    between atoms: C12_17  and  C13_18
REMARK                            x       y       z     vdW  Elec       q    Type
REMARK                         _______ _______ _______ _____ _____    ______ ____
ROOT
ATOM      1 CL1  UNL     1      17.215  26.985  24.510  0.00  0.00    -0.084 Cl
ATOM      2  C1  UNL     1      18.609  26.355  23.730  0.00  0.00    +0.042 A 
ATOM      3  C2  UNL     1      19.868  26.593  24.259  0.00  0.00    +0.022 A 
ATOM      4  C3  UNL     1      20.994  26.084  23.606  0.00  0.00    +0.030 A 
ATOM      5  C4  UNL     1      20.893  25.335  22.441  0.00  0.00    +0.072 A 
ATOM      6  N1  UNL     1      22.027  24.904  21.868  0.00  0.00    -0.247 NA
ATOM      7  C5  UNL     1      21.982  24.202  20.708  0.00  0.00    +0.072 A 
ATOM      8  C6  UNL     1      20.775  23.872  20.119  0.00  0.00    +0.042 A 
ATOM      9  C7  UNL     1      19.593  24.288  20.735  0.00  0.00    +0.048 A 
ATOM     10  C21 UNL     1      19.617  25.069  21.912  0.00  0.00    +0.014 A 
ATOM     11  C22 UNL     1      18.477  25.605  22.564  0.00  0.00    +0.030 A 
ENDROOT
BRANCH   7  12
ATOM     12  C23 UNL     1      23.292  23.811  20.145  0.00  0.00    +0.003 A 
ATOM     13  C24 UNL     1      24.506  24.271  20.673  0.00  0.00    +0.030 A 
ATOM     14  C25 UNL     1      25.700  23.866  20.092  0.00  0.00    +0.111 A 
ATOM     15  N4  UNL     1      25.777  23.041  19.030  0.00  0.00    -0.263 NA
ATOM     16  C26 UNL     1      24.607  22.590  18.535  0.00  0.00    +0.111 A 
ATOM     17  C27 UNL     1      23.368  22.939  19.048  0.00  0.00    +0.030 A 
ENDBRANCH   7  12
BRANCH   9  18
ATOM     18  C8  UNL     1      18.339  23.858  20.076  0.00  0.00    +0.245 C 
ATOM     19  O1  UNL     1      17.732  22.887  20.508  0.00  0.00    -0.270 OA
ATOM     20  N2  UNL     1      17.906  24.659  19.041  0.00  0.00    -0.308 N 
ATOM     21  H4  UNL     1      18.360  25.555  18.906  0.00  0.00    +0.149 HD
BRANCH  20  22
ATOM     22  C9  UNL     1      16.609  24.451  18.404  0.00  0.00    +0.076 C 
ATOM     23  C10 UNL     1      16.785  23.659  17.100  0.00  0.00    +0.037 C 
ATOM     24  C11 UNL     1      15.686  24.006  16.101  0.00  0.00    +0.086 C 
ATOM     25  N3  UNL     1      15.765  25.414  15.712  0.00  0.00    -0.298 NA
ATOM     26  C19 UNL     1      16.123  26.338  16.788  0.00  0.00    +0.086 C 
ATOM     27  C20 UNL     1      15.868  25.779  18.185  0.00  0.00    +0.037 C 
BRANCH  25  28
ATOM     28  C12 UNL     1      14.677  25.862  14.836  0.00  0.00    +0.119 C 
BRANCH  28  29
ATOM     29  C13 UNL     1      14.759  27.288  14.329  0.00  0.00    -0.033 A 
ATOM     30  C14 UNL     1      13.939  28.291  14.864  0.00  0.00    +0.005 A 
ATOM     31  C15 UNL     1      14.016  29.604  14.392  0.00  0.00    +0.000 A 
ATOM     32  C16 UNL     1      14.919  29.929  13.381  0.00  0.00    +0.000 A 
ATOM     33  C17 UNL     1      15.746  28.946  12.846  0.00  0.00    +0.000 A 
ATOM     34  C18 UNL     1      15.669  27.635  13.318  0.00  0.00    +0.005 A 
ENDBRANCH  28  29
ENDBRANCH  25  28
ENDBRANCH  20  22
ENDBRANCH   9  18
TORSDOF 5
ENDMDL
MODEL 6
REMARK VINA RESULT:    -3.985     16.413     18.748
REMARK INTER + INTRA:          -6.289
REMARK INTER:                  -5.413
REMARK INTRA:                  -0.876
REMARK UNBOUND:                -1.140
REMARK  Name = /home/vital/Documents/PhD_2021/Malaria_codes/data/pdb_ligands_mmv/ligand_176.pdb
REMARK  5 active torsions:
REMARK  status: ('A' for Active; 'I' for Inactive)
REMARK    1  A    between atoms: C5_7  and  C23_28
REMARK    2  A    between atoms: C7_9  and  C8_10
REMARK    3  A    between atoms: N2_12  and  C9_13
REMARK    4  A    between atoms: N3_16  and  C12_17
REMARK    5  A    between atoms: C12_17  and  C13_18
REMARK                            x       y       z     vdW  Elec       q    Type
REMARK                         _______ _______ _______ _____ _____    ______ ____
ROOT
ATOM      1 CL1  UNL     1      16.717  34.002  20.115  0.00  0.00    -0.084 Cl
ATOM      2  C1  UNL     1      16.340  32.526  19.321  0.00  0.00    +0.042 A 
ATOM      3  C2  UNL     1      16.237  31.352  20.051  0.00  0.00    +0.022 A 
ATOM      4  C3  UNL     1      15.942  30.158  19.389  0.00  0.00    +0.030 A 
ATOM      5  C4  UNL     1      15.738  30.108  18.016  0.00  0.00    +0.072 A 
ATOM      6  N1  UNL     1      15.481  28.914  17.459  0.00  0.00    -0.247 NA
ATOM      7  C5  UNL     1      15.313  28.808  16.117  0.00  0.00    +0.072 A 
ATOM      8  C6  UNL     1      15.352  29.926  15.302  0.00  0.00    +0.042 A 
ATOM      9  C7  UNL     1      15.583  31.173  15.886  0.00  0.00    +0.048 A 
ATOM     10  C21 UNL     1      15.817  31.300  17.273  0.00  0.00    +0.014 A 
ATOM     11  C22 UNL     1      16.138  32.508  17.944  0.00  0.00    +0.030 A 
ENDROOT
BRANCH   7  12
ATOM     12  C23 UNL     1      15.074  27.442  15.607  0.00  0.00    +0.003 A 
ATOM     13  C24 UNL     1      15.992  26.398  15.790  0.00  0.00    +0.030 A 
ATOM     14  C25 UNL     1      15.703  25.140  15.281  0.00  0.00    +0.111 A 
ATOM     15  N4  UNL     1      14.575  24.841  14.608  0.00  0.00    -0.263 NA
ATOM     16  C26 UNL     1      13.690  25.845  14.447  0.00  0.00    +0.111 A 
ATOM     17  C27 UNL     1      13.891  27.132  14.919  0.00  0.00    +0.030 A 
ENDBRANCH   7  12
BRANCH   9  18
ATOM     18  C8  UNL     1      15.563  32.328  14.961  0.00  0.00    +0.245 C 
ATOM     19  O1  UNL     1      14.545  32.579  14.330  0.00  0.00    -0.270 OA
ATOM     20  N2  UNL     1      16.708  33.096  14.943  0.00  0.00    -0.308 N 
ATOM     21  H4  UNL     1      17.405  32.933  15.660  0.00  0.00    +0.149 HD
BRANCH  20  22
ATOM     22  C9  UNL     1      16.775  34.352  14.202  0.00  0.00    +0.076 C 
ATOM     23  C10 UNL     1      18.232  34.668  13.834  0.00  0.00    +0.037 C 
ATOM     24  C11 UNL     1      18.449  36.174  13.719  0.00  0.00    +0.086 C 
ATOM     25  N3  UNL     1      18.226  36.829  15.008  0.00  0.00    -0.298 NA
ATOM     26  C19 UNL     1      17.121  36.285  15.800  0.00  0.00    +0.086 C 
ATOM     27  C20 UNL     1      16.105  35.500  14.974  0.00  0.00    +0.037 C 
BRANCH  25  28
ATOM     28  C12 UNL     1      18.307  38.293  14.965  0.00  0.00    +0.119 C 
BRANCH  28  29
ATOM     29  C13 UNL     1      16.999  39.048  15.096  0.00  0.00    -0.033 A 
ATOM     30  C14 UNL     1      16.699  39.775  16.257  0.00  0.00    +0.005 A 
ATOM     31  C15 UNL     1      15.492  40.467  16.374  0.00  0.00    +0.000 A 
ATOM     32  C16 UNL     1      14.571  40.445  15.329  0.00  0.00    +0.000 A 
ATOM     33  C17 UNL     1      14.857  39.735  14.166  0.00  0.00    +0.000 A 
ATOM     34  C18 UNL     1      16.064  39.043  14.049  0.00  0.00    +0.005 A 
ENDBRANCH  28  29
ENDBRANCH  25  28
ENDBRANCH  20  22
ENDBRANCH   9  18
TORSDOF 5
ENDMDL
MODEL 7
REMARK VINA RESULT:    -3.940     15.734     18.186
REMARK INTER + INTRA:          -6.231
REMARK INTER:                  -5.219
REMARK INTRA:                  -1.013
REMARK UNBOUND:                -1.140
REMARK  Name = /home/vital/Documents/PhD_2021/Malaria_codes/data/pdb_ligands_mmv/ligand_176.pdb
REMARK  5 active torsions:
REMARK  status: ('A' for Active; 'I' for Inactive)
REMARK    1  A    between atoms: C5_7  and  C23_28
REMARK    2  A    between atoms: C7_9  and  C8_10
REMARK    3  A    between atoms: N2_12  and  C9_13
REMARK    4  A    between atoms: N3_16  and  C12_17
REMARK    5  A    between atoms: C12_17  and  C13_18
REMARK                            x       y       z     vdW  Elec       q    Type
REMARK                         _______ _______ _______ _____ _____    ______ ____
ROOT
ATOM      1 CL1  UNL     1      19.443  34.670  13.092  0.00  0.00    -0.084 Cl
ATOM      2  C1  UNL     1      18.598  33.213  13.430  0.00  0.00    +0.042 A 
ATOM      3  C2  UNL     1      18.682  32.143  12.552  0.00  0.00    +0.022 A 
ATOM      4  C3  UNL     1      17.979  30.969  12.835  0.00  0.00    +0.030 A 
ATOM      5  C4  UNL     1      17.201  30.834  13.977  0.00  0.00    +0.072 A 
ATOM      6  N1  UNL     1      16.542  29.678  14.159  0.00  0.00    -0.247 NA
ATOM      7  C5  UNL     1      15.739  29.513  15.240  0.00  0.00    +0.072 A 
ATOM      8  C6  UNL     1      15.620  30.502  16.199  0.00  0.00    +0.042 A 
ATOM      9  C7  UNL     1      16.334  31.690  16.030  0.00  0.00    +0.048 A 
ATOM     10  C21 UNL     1      17.132  31.907  14.884  0.00  0.00    +0.014 A 
ATOM     11  C22 UNL     1      17.829  33.106  14.585  0.00  0.00    +0.030 A 
ENDROOT
BRANCH   7  12
ATOM     12  C23 UNL     1      15.032  28.217  15.319  0.00  0.00    +0.003 A 
ATOM     13  C24 UNL     1      14.518  27.712  16.522  0.00  0.00    +0.030 A 
ATOM     14  C25 UNL     1      13.868  26.486  16.524  0.00  0.00    +0.111 A 
ATOM     15  N4  UNL     1      13.690  25.727  15.425  0.00  0.00    -0.263 NA
ATOM     16  C26 UNL     1      14.174  26.224  14.269  0.00  0.00    +0.111 A 
ATOM     17  C27 UNL     1      14.836  27.437  14.169  0.00  0.00    +0.030 A 
ENDBRANCH   7  12
BRANCH   9  18
ATOM     18  C8  UNL     1      16.197  32.683  17.118  0.00  0.00    +0.245 C 
ATOM     19  O1  UNL     1      16.836  32.537  18.152  0.00  0.00    -0.270 OA
ATOM     20  N2  UNL     1      15.391  33.765  16.838  0.00  0.00    -0.308 N 
ATOM     21  H4  UNL     1      15.086  33.901  15.882  0.00  0.00    +0.149 HD
BRANCH  20  22
ATOM     22  C9  UNL     1      15.288  34.899  17.753  0.00  0.00    +0.076 C 
ATOM     23  C10 UNL     1      13.939  35.607  17.561  0.00  0.00    +0.037 C 
ATOM     24  C11 UNL     1      14.047  37.087  17.916  0.00  0.00    +0.086 C 
ATOM     25  N3  UNL     1      14.973  37.769  17.013  0.00  0.00    -0.298 NA
ATOM     26  C19 UNL     1      16.157  36.997  16.634  0.00  0.00    +0.086 C 
ATOM     27  C20 UNL     1      16.478  35.858  17.599  0.00  0.00    +0.037 C 
BRANCH  25  28
ATOM     28  C12 UNL     1      15.221  39.175  17.349  0.00  0.00    +0.119 C 
BRANCH  28  29
ATOM     29  C13 UNL     1      15.876  40.023  16.277  0.00  0.00    -0.033 A 
ATOM     30  C14 UNL     1      17.258  40.264  16.293  0.00  0.00    +0.005 A 
ATOM     31  C15 UNL     1      17.856  41.048  15.304  0.00  0.00    +0.000 A 
ATOM     32  C16 UNL     1      17.081  41.597  14.284  0.00  0.00    +0.000 A 
ATOM     33  C17 UNL     1      15.710  41.359  14.250  0.00  0.00    +0.000 A 
ATOM     34  C18 UNL     1      15.112  40.575  15.238  0.00  0.00    +0.005 A 
ENDBRANCH  28  29
ENDBRANCH  25  28
ENDBRANCH  20  22
ENDBRANCH   9  18
TORSDOF 5
ENDMDL
MODEL 8
REMARK VINA RESULT:    -3.895     16.427     19.205
REMARK INTER + INTRA:          -6.174
REMARK INTER:                  -5.074
REMARK INTRA:                  -1.100
REMARK UNBOUND:                -1.140
REMARK  Name = /home/vital/Documents/PhD_2021/Malaria_codes/data/pdb_ligands_mmv/ligand_176.pdb
REMARK  5 active torsions:
REMARK  status: ('A' for Active; 'I' for Inactive)
REMARK    1  A    between atoms: C5_7  and  C23_28
REMARK    2  A    between atoms: C7_9  and  C8_10
REMARK    3  A    between atoms: N2_12  and  C9_13
REMARK    4  A    between atoms: N3_16  and  C12_17
REMARK    5  A    between atoms: C12_17  and  C13_18
REMARK                            x       y       z     vdW  Elec       q    Type
REMARK                         _______ _______ _______ _____ _____    ______ ____
ROOT
ATOM      1 CL1  UNL     1      14.432  30.441  23.561  0.00  0.00    -0.084 Cl
ATOM      2  C1  UNL     1      14.522  29.920  21.927  0.00  0.00    +0.042 A 
ATOM      3  C2  UNL     1      13.995  28.691  21.561  0.00  0.00    +0.022 A 
ATOM      4  C3  UNL     1      14.086  28.275  20.230  0.00  0.00    +0.030 A 
ATOM      5  C4  UNL     1      14.685  29.060  19.253  0.00  0.00    +0.072 A 
ATOM      6  N1  UNL     1      14.749  28.573  18.004  0.00  0.00    -0.247 NA
ATOM      7  C5  UNL     1      15.358  29.286  17.024  0.00  0.00    +0.072 A 
ATOM      8  C6  UNL     1      15.878  30.543  17.273  0.00  0.00    +0.042 A 
ATOM      9  C7  UNL     1      15.779  31.066  18.564  0.00  0.00    +0.048 A 
ATOM     10  C21 UNL     1      15.200  30.319  19.613  0.00  0.00    +0.014 A 
ATOM     11  C22 UNL     1      15.125  30.730  20.969  0.00  0.00    +0.030 A 
ENDROOT
BRANCH   7  12
ATOM     12  C23 UNL     1      15.405  28.638  15.696  0.00  0.00    +0.003 A 
ATOM     13  C24 UNL     1      15.871  29.300  14.551  0.00  0.00    +0.030 A 
ATOM     14  C25 UNL     1      15.884  28.631  13.335  0.00  0.00    +0.111 A 
ATOM     15  N4  UNL     1      15.471  27.359  13.172  0.00  0.00    -0.263 NA
ATOM     16  C26 UNL     1      15.037  26.724  14.278  0.00  0.00    +0.111 A 
ATOM     17  C27 UNL     1      14.987  27.309  15.534  0.00  0.00    +0.030 A 
ENDBRANCH   7  12
BRANCH   9  18
ATOM     18  C8  UNL     1      16.313  32.434  18.746  0.00  0.00    +0.245 C 
ATOM     19  O1  UNL     1      17.515  32.634  18.626  0.00  0.00    -0.270 OA
ATOM     20  N2  UNL     1      15.372  33.416  18.968  0.00  0.00    -0.308 N 
ATOM     21  H4  UNL     1      14.395  33.184  18.831  0.00  0.00    +0.149 HD
BRANCH  20  22
ATOM     22  C9  UNL     1      15.735  34.830  19.008  0.00  0.00    +0.076 C 
ATOM     23  C10 UNL     1      15.037  35.519  20.189  0.00  0.00    +0.037 C 
ATOM     24  C11 UNL     1      14.800  36.997  19.893  0.00  0.00    +0.086 C 
ATOM     25  N3  UNL     1      13.890  37.158  18.759  0.00  0.00    -0.298 NA
ATOM     26  C19 UNL     1      14.068  36.192  17.675  0.00  0.00    +0.086 C 
ATOM     27  C20 UNL     1      15.442  35.526  17.670  0.00  0.00    +0.037 C 
BRANCH  25  28
ATOM     28  C12 UNL     1      13.691  38.548  18.335  0.00  0.00    +0.119 C 
BRANCH  28  29
ATOM     29  C13 UNL     1      14.533  39.028  17.169  0.00  0.00    -0.033 A 
ATOM     30  C14 UNL     1      15.900  39.296  17.329  0.00  0.00    +0.005 A 
ATOM     31  C15 UNL     1      16.671  39.740  16.252  0.00  0.00    +0.000 A 
ATOM     32  C16 UNL     1      16.085  39.917  15.001  0.00  0.00    +0.000 A 
ATOM     33  C17 UNL     1      14.731  39.647  14.824  0.00  0.00    +0.000 A 
ATOM     34  C18 UNL     1      13.961  39.202  15.900  0.00  0.00    +0.005 A 
ENDBRANCH  28  29
ENDBRANCH  25  28
ENDBRANCH  20  22
ENDBRANCH   9  18
TORSDOF 5
ENDMDL
MODEL 9
REMARK VINA RESULT:    -3.789      1.160      1.570
REMARK INTER + INTRA:          -6.037
REMARK INTER:                  -4.912
REMARK INTRA:                  -1.125
REMARK UNBOUND:                -1.140
REMARK  Name = /home/vital/Documents/PhD_2021/Malaria_codes/data/pdb_ligands_mmv/ligand_176.pdb
REMARK  5 active torsions:
REMARK  status: ('A' for Active; 'I' for Inactive)
REMARK    1  A    between atoms: C5_7  and  C23_28
REMARK    2  A    between atoms: C7_9  and  C8_10
REMARK    3  A    between atoms: N2_12  and  C9_13
REMARK    4  A    between atoms: N3_16  and  C12_17
REMARK    5  A    between atoms: C12_17  and  C13_18
REMARK                            x       y       z     vdW  Elec       q    Type
REMARK                         _______ _______ _______ _____ _____    ______ ____
ROOT
ATOM      1 CL1  UNL     1      24.023  45.708  13.561  0.00  0.00    -0.084 Cl
ATOM      2  C1  UNL     1      23.213  45.993  15.048  0.00  0.00    +0.042 A 
ATOM      3  C2  UNL     1      21.969  46.604  15.054  0.00  0.00    +0.022 A 
ATOM      4  C3  UNL     1      21.327  46.840  16.272  0.00  0.00    +0.030 A 
ATOM      5  C4  UNL     1      21.893  46.472  17.486  0.00  0.00    +0.072 A 
ATOM      6  N1  UNL     1      21.217  46.757  18.610  0.00  0.00    -0.247 NA
ATOM      7  C5  UNL     1      21.747  46.452  19.821  0.00  0.00    +0.072 A 
ATOM      8  C6  UNL     1      22.962  45.801  19.925  0.00  0.00    +0.042 A 
ATOM      9  C7  UNL     1      23.649  45.471  18.755  0.00  0.00    +0.048 A 
ATOM     10  C21 UNL     1      23.144  45.829  17.485  0.00  0.00    +0.014 A 
ATOM     11  C22 UNL     1      23.804  45.610  16.248  0.00  0.00    +0.030 A 
ENDROOT
BRANCH   7  12
ATOM     12  C23 UNL     1      20.935  46.845  20.992  0.00  0.00    +0.003 A 
ATOM     13  C24 UNL     1      21.498  47.079  22.255  0.00  0.00    +0.030 A 
ATOM     14  C25 UNL     1      20.674  47.441  23.312  0.00  0.00    +0.111 A 
ATOM     15  N4  UNL     1      19.339  47.590  23.208  0.00  0.00    -0.263 NA
ATOM     16  C26 UNL     1      18.805  47.378  21.989  0.00  0.00    +0.111 A 
ATOM     17  C27 UNL     1      19.547  47.013  20.876  0.00  0.00    +0.030 A 
ENDBRANCH   7  12
BRANCH   9  18
ATOM     18  C8  UNL     1      24.918  44.733  18.941  0.00  0.00    +0.245 C 
ATOM     19  O1  UNL     1      24.948  43.525  18.744  0.00  0.00    -0.270 OA
ATOM     20  N2  UNL     1      26.014  45.505  19.259  0.00  0.00    -0.308 N 
ATOM     21  H4  UNL     1      25.930  46.512  19.183  0.00  0.00    +0.149 HD
BRANCH  20  22
ATOM     22  C9  UNL     1      27.359  44.938  19.317  0.00  0.00    +0.076 C 
ATOM     23  C10 UNL     1      27.951  45.132  20.720  0.00  0.00    +0.037 C 
ATOM     24  C11 UNL     1      29.472  45.222  20.660  0.00  0.00    +0.086 C 
ATOM     25  N3  UNL     1      29.892  46.399  19.899  0.00  0.00    -0.298 NA
ATOM     26  C19 UNL     1      29.072  46.706  18.726  0.00  0.00    +0.086 C 
ATOM     27  C20 UNL     1      28.263  45.516  18.217  0.00  0.00    +0.037 C 
BRANCH  25  28
ATOM     28  C12 UNL     1      31.341  46.505  19.698  0.00  0.00    +0.119 C 
BRANCH  28  29
ATOM     29  C13 UNL     1      31.885  45.964  18.390  0.00  0.00    -0.033 A 
ATOM     30  C14 UNL     1      32.137  44.594  18.226  0.00  0.00    +0.005 A 
ATOM     31  C15 UNL     1      32.640  44.101  17.020  0.00  0.00    +0.000 A 
ATOM     32  C16 UNL     1      32.894  44.971  15.962  0.00  0.00    +0.000 A 
ATOM     33  C17 UNL     1      32.641  46.333  16.107  0.00  0.00    +0.000 A 
ATOM     34  C18 UNL     1      32.137  46.825  17.311  0.00  0.00    +0.005 A 
ENDBRANCH  28  29
ENDBRANCH  25  28
ENDBRANCH  20  22
ENDBRANCH   9  18
TORSDOF 5
ENDMDL
