MODEL 1
REMARK VINA RESULT:    -3.346      0.000      0.000
REMARK INTER + INTRA:          -7.465
REMARK INTER:                  -4.911
REMARK INTRA:                  -2.554
REMARK UNBOUND:                -2.554
REMARK  Name = /home/vital/Documents/PhD_2021/Malaria_codes/data/pdb_ligands_mmv/ligand_301.pdb
REMARK  8 active torsions:
REMARK  status: ('A' for Active; 'I' for Inactive)
REMARK    1  A    between atoms: C1_2  and  C8_10
REMARK    2  A    between atoms: N1_3  and  C2_4
REMARK    3  A    between atoms: C8_10  and  N2_11
REMARK    4  A    between atoms: C8_10  and  C22_27
REMARK    5  A    between atoms: N2_11  and  C9_12
REMARK    6  A    between atoms: C9_12  and  C10_13
REMARK    7  A    between atoms: C10_13  and  C11_14
REMARK    8  A    between atoms: C17_20  and  C18_22
REMARK                            x       y       z     vdW  Elec       q    Type
REMARK                         _______ _______ _______ _____ _____    ______ ____
ROOT
ATOM      1  C8  UNL     1      16.836  30.936  15.671  0.00  0.00    +0.199 C 
ENDROOT
BRANCH   1   2
ATOM      2  C22 UNL     1      16.518  31.278  17.120  0.00  0.00    +0.019 A 
ATOM      3  C23 UNL     1      15.455  30.790  17.863  0.00  0.00    +0.013 A 
ATOM      4  C24 UNL     1      15.435  31.289  19.196  0.00  0.00    +0.008 A 
ATOM      5  C25 UNL     1      16.484  32.144  19.440  0.00  0.00    +0.045 A 
ATOM      6  S1  UNL     1      17.483  32.337  18.070  0.00  0.00    -0.099 S 
ENDBRANCH   1   2
BRANCH   1   8
ATOM      7  O1  UNL     1      18.294  29.342  14.500  0.00  0.00    -0.273 OA
ATOM      8  C1  UNL     1      17.611  29.597  15.491  0.00  0.00    +0.239 C 
ATOM      9  N1  UNL     1      17.556  28.741  16.584  0.00  0.00    -0.311 N 
ATOM     10  H1  UNL     1      16.795  28.875  17.239  0.00  0.00    +0.149 HD
BRANCH   9  11
ATOM     11  C2  UNL     1      18.186  27.428  16.549  0.00  0.00    +0.073 C 
ATOM     12  C3  UNL     1      19.608  27.501  17.108  0.00  0.00    +0.022 C 
ATOM     13  C4  UNL     1      20.339  26.162  16.981  0.00  0.00    +0.002 C 
ATOM     14  C5  UNL     1      19.406  24.950  17.013  0.00  0.00    +0.000 C 
ATOM     15  C6  UNL     1      18.164  25.215  17.851  0.00  0.00    +0.002 C 
ATOM     16  C7  UNL     1      17.344  26.388  17.309  0.00  0.00    +0.022 C 
ENDBRANCH   9  11
ENDBRANCH   1   8
BRANCH   1  17
ATOM     17  N2  UNL     1      15.606  31.028  14.858  0.00  0.00    -0.279 N 
ATOM     18  C17 UNL     1      15.044  32.246  14.439  0.00  0.00    +0.283 C 
ATOM     19  O2  UNL     1      14.286  32.280  13.467  0.00  0.00    -0.267 OA
BRANCH  18  20
ATOM     20  C18 UNL     1      15.331  33.467  15.174  0.00  0.00    +0.189 A 
ATOM     21  O3  UNL     1      14.519  33.883  16.198  0.00  0.00    -0.458 OA
ATOM     22  C19 UNL     1      15.000  35.073  16.640  0.00  0.00    +0.196 A 
ATOM     23  C20 UNL     1      16.098  35.452  15.907  0.00  0.00    +0.042 A 
ATOM     24  C21 UNL     1      16.301  34.430  14.951  0.00  0.00    +0.054 A 
ENDBRANCH  18  20
BRANCH  17  25
ATOM     25  C9  UNL     1      15.174  29.824  14.131  0.00  0.00    +0.114 C 
BRANCH  25  26
ATOM     26  C10 UNL     1      14.050  29.088  14.871  0.00  0.00    +0.054 C 
BRANCH  26  27
ATOM     27  C11 UNL     1      14.272  27.597  14.885  0.00  0.00    -0.046 A 
ATOM     28  C12 UNL     1      15.067  26.991  13.904  0.00  0.00    +0.004 A 
ATOM     29  C13 UNL     1      15.291  25.614  13.928  0.00  0.00    +0.000 A 
ATOM     30  C14 UNL     1      14.726  24.832  14.934  0.00  0.00    +0.000 A 
ATOM     31  C15 UNL     1      13.938  25.427  15.917  0.00  0.00    +0.000 A 
ATOM     32  C16 UNL     1      13.713  26.803  15.896  0.00  0.00    +0.004 A 
ENDBRANCH  26  27
ENDBRANCH  25  26
ENDBRANCH  17  25
ENDBRANCH   1  17
TORSDOF 8
ENDMDL
MODEL 2
REMARK VINA RESULT:    -3.311     18.669     21.138
REMARK INTER + INTRA:          -7.413
REMARK INTER:                  -4.706
REMARK INTRA:                  -2.706
REMARK UNBOUND:                -2.554
REMARK  Name = /home/vital/Documents/PhD_2021/Malaria_codes/data/pdb_ligands_mmv/ligand_301.pdb
REMARK  8 active torsions:
REMARK  status: ('A' for Active; 'I' for Inactive)
REMARK    1  A    between atoms: C1_2  and  C8_10
REMARK    2  A    between atoms: N1_3  and  C2_4
REMARK    3  A    between atoms: C8_10  and  N2_11
REMARK    4  A    between atoms: C8_10  and  C22_27
REMARK    5  A    between atoms: N2_11  and  C9_12
REMARK    6  A    between atoms: C9_12  and  C10_13
REMARK    7  A    between atoms: C10_13  and  C11_14
REMARK    8  A    between atoms: C17_20  and  C18_22
REMARK                            x       y       z     vdW  Elec       q    Type
REMARK                         _______ _______ _______ _____ _____    ______ ____
ROOT
ATOM      1  C8  UNL     1      29.462  43.996  17.814  0.00  0.00    +0.199 C 
ENDROOT
BRANCH   1   2
ATOM      2  C22 UNL     1      29.380  43.300  16.463  0.00  0.00    +0.019 A 
ATOM      3  C23 UNL     1      30.143  42.220  16.049  0.00  0.00    +0.013 A 
ATOM      4  C24 UNL     1      29.821  41.787  14.731  0.00  0.00    +0.008 A 
ATOM      5  C25 UNL     1      28.817  42.543  14.173  0.00  0.00    +0.045 A 
ATOM      6  S1  UNL     1      28.271  43.763  15.233  0.00  0.00    -0.099 S 
ENDBRANCH   1   2
BRANCH   1   8
ATOM      7  O1  UNL     1      30.152  42.835  19.867  0.00  0.00    -0.273 OA
ATOM      8  C1  UNL     1      30.481  43.350  18.799  0.00  0.00    +0.239 C 
ATOM      9  N1  UNL     1      31.791  43.308  18.337  0.00  0.00    -0.311 N 
ATOM     10  H1  UNL     1      32.043  43.957  17.600  0.00  0.00    +0.149 HD
BRANCH   9  11
ATOM     11  C2  UNL     1      32.869  42.783  19.164  0.00  0.00    +0.073 C 
ATOM     12  C3  UNL     1      33.946  42.136  18.293  0.00  0.00    +0.022 C 
ATOM     13  C4  UNL     1      35.039  41.473  19.135  0.00  0.00    +0.002 C 
ATOM     14  C5  UNL     1      35.243  42.132  20.501  0.00  0.00    +0.000 C 
ATOM     15  C6  UNL     1      34.919  43.619  20.466  0.00  0.00    +0.002 C 
ATOM     16  C7  UNL     1      33.466  43.881  20.061  0.00  0.00    +0.022 C 
ENDBRANCH   9  11
ENDBRANCH   1   8
BRANCH   1  17
ATOM     17  N2  UNL     1      29.663  45.446  17.613  0.00  0.00    -0.279 N 
ATOM     18  C17 UNL     1      28.733  46.419  18.014  0.00  0.00    +0.283 C 
ATOM     19  O2  UNL     1      29.090  47.585  18.196  0.00  0.00    -0.267 OA
BRANCH  18  20
ATOM     20  C18 UNL     1      27.334  46.058  18.185  0.00  0.00    +0.189 A 
ATOM     21  O3  UNL     1      26.451  46.141  17.140  0.00  0.00    -0.458 OA
ATOM     22  C19 UNL     1      25.224  45.807  17.616  0.00  0.00    +0.196 A 
ATOM     23  C20 UNL     1      25.289  45.529  18.961  0.00  0.00    +0.042 A 
ATOM     24  C21 UNL     1      26.642  45.710  19.331  0.00  0.00    +0.054 A 
ENDBRANCH  18  20
BRANCH  17  25
ATOM     25  C9  UNL     1      31.032  45.918  17.352  0.00  0.00    +0.114 C 
BRANCH  25  26
ATOM     26  C10 UNL     1      31.189  46.436  15.917  0.00  0.00    +0.054 C 
BRANCH  26  27
ATOM     27  C11 UNL     1      32.036  45.513  15.078  0.00  0.00    -0.046 A 
ATOM     28  C12 UNL     1      33.227  44.983  15.592  0.00  0.00    +0.004 A 
ATOM     29  C13 UNL     1      34.000  44.111  14.826  0.00  0.00    +0.000 A 
ATOM     30  C14 UNL     1      33.590  43.758  13.541  0.00  0.00    +0.000 A 
ATOM     31  C15 UNL     1      32.403  44.275  13.024  0.00  0.00    +0.000 A 
ATOM     32  C16 UNL     1      31.627  45.147  13.788  0.00  0.00    +0.004 A 
ENDBRANCH  26  27
ENDBRANCH  25  26
ENDBRANCH  17  25
ENDBRANCH   1  17
TORSDOF 8
ENDMDL
MODEL 3
REMARK VINA RESULT:    -3.223      3.440      6.135
REMARK INTER + INTRA:          -7.284
REMARK INTER:                  -4.540
REMARK INTRA:                  -2.744
REMARK UNBOUND:                -2.554
REMARK  Name = /home/vital/Documents/PhD_2021/Malaria_codes/data/pdb_ligands_mmv/ligand_301.pdb
REMARK  8 active torsions:
REMARK  status: ('A' for Active; 'I' for Inactive)
REMARK    1  A    between atoms: C1_2  and  C8_10
REMARK    2  A    between atoms: N1_3  and  C2_4
REMARK    3  A    between atoms: C8_10  and  N2_11
REMARK    4  A    between atoms: C8_10  and  C22_27
REMARK    5  A    between atoms: N2_11  and  C9_12
REMARK    6  A    between atoms: C9_12  and  C10_13
REMARK    7  A    between atoms: C10_13  and  C11_14
REMARK    8  A    between atoms: C17_20  and  C18_22
REMARK                            x       y       z     vdW  Elec       q    Type
REMARK                         _______ _______ _______ _____ _____    ______ ____
ROOT
ATOM      1  C8  UNL     1      16.838  28.035  18.797  0.00  0.00    +0.199 C 
ENDROOT
BRANCH   1   2
ATOM      2  C22 UNL     1      17.443  26.675  18.482  0.00  0.00    +0.019 A 
ATOM      3  C23 UNL     1      18.256  26.368  17.402  0.00  0.00    +0.013 A 
ATOM      4  C24 UNL     1      18.673  25.007  17.391  0.00  0.00    +0.008 A 
ATOM      5  C25 UNL     1      18.173  24.308  18.464  0.00  0.00    +0.045 A 
ATOM      6  S1  UNL     1      17.209  25.290  19.474  0.00  0.00    -0.099 S 
ENDBRANCH   1   2
BRANCH   1   8
ATOM      7  O1  UNL     1      17.362  30.199  17.756  0.00  0.00    -0.273 OA
ATOM      8  C1  UNL     1      16.927  29.055  17.623  0.00  0.00    +0.239 C 
ATOM      9  N1  UNL     1      16.570  28.547  16.380  0.00  0.00    -0.311 N 
ATOM     10  H1  UNL     1      15.990  27.715  16.370  0.00  0.00    +0.149 HD
BRANCH   9  11
ATOM     11  C2  UNL     1      16.550  29.391  15.194  0.00  0.00    +0.073 C 
ATOM     12  C3  UNL     1      16.880  28.570  13.947  0.00  0.00    +0.022 C 
ATOM     13  C4  UNL     1      16.979  29.448  12.697  0.00  0.00    +0.002 C 
ATOM     14  C5  UNL     1      16.107  30.703  12.759  0.00  0.00    +0.000 C 
ATOM     15  C6  UNL     1      14.858  30.482  13.599  0.00  0.00    +0.002 C 
ATOM     16  C7  UNL     1      15.196  30.107  15.045  0.00  0.00    +0.022 C 
ENDBRANCH   9  11
ENDBRANCH   1   8
BRANCH   1  17
ATOM     17  N2  UNL     1      15.472  27.859  19.332  0.00  0.00    -0.279 N 
ATOM     18  C17 UNL     1      15.140  28.051  20.683  0.00  0.00    +0.283 C 
ATOM     19  O2  UNL     1      13.974  28.284  21.011  0.00  0.00    -0.267 OA
BRANCH  18  20
ATOM     20  C18 UNL     1      16.168  27.941  21.705  0.00  0.00    +0.189 A 
ATOM     21  O3  UNL     1      16.360  26.769  22.391  0.00  0.00    -0.458 OA
ATOM     22  C19 UNL     1      17.332  26.992  23.313  0.00  0.00    +0.196 A 
ATOM     23  C20 UNL     1      17.762  28.296  23.254  0.00  0.00    +0.042 A 
ATOM     24  C21 UNL     1      17.001  28.912  22.234  0.00  0.00    +0.054 A 
ENDBRANCH  18  20
BRANCH  17  25
ATOM     25  C9  UNL     1      14.355  27.873  18.375  0.00  0.00    +0.114 C 
BRANCH  25  26
ATOM     26  C10 UNL     1      13.804  26.463  18.126  0.00  0.00    +0.054 C 
BRANCH  26  27
ATOM     27  C11 UNL     1      14.127  25.973  16.737  0.00  0.00    -0.046 A 
ATOM     28  C12 UNL     1      14.841  24.781  16.556  0.00  0.00    +0.004 A 
ATOM     29  C13 UNL     1      15.121  24.315  15.271  0.00  0.00    +0.000 A 
ATOM     30  C14 UNL     1      14.688  25.033  14.157  0.00  0.00    +0.000 A 
ATOM     31  C15 UNL     1      13.972  26.217  14.328  0.00  0.00    +0.000 A 
ATOM     32  C16 UNL     1      13.690  26.684  15.612  0.00  0.00    +0.004 A 
ENDBRANCH  26  27
ENDBRANCH  25  26
ENDBRANCH  17  25
ENDBRANCH   1  17
TORSDOF 8
ENDMDL
MODEL 4
REMARK VINA RESULT:    -3.059     17.927     19.889
REMARK INTER + INTRA:          -7.043
REMARK INTER:                  -3.753
REMARK INTRA:                  -3.290
REMARK UNBOUND:                -2.554
REMARK  Name = /home/vital/Documents/PhD_2021/Malaria_codes/data/pdb_ligands_mmv/ligand_301.pdb
REMARK  8 active torsions:
REMARK  status: ('A' for Active; 'I' for Inactive)
REMARK    1  A    between atoms: C1_2  and  C8_10
REMARK    2  A    between atoms: N1_3  and  C2_4
REMARK    3  A    between atoms: C8_10  and  N2_11
REMARK    4  A    between atoms: C8_10  and  C22_27
REMARK    5  A    between atoms: N2_11  and  C9_12
REMARK    6  A    between atoms: C9_12  and  C10_13
REMARK    7  A    between atoms: C10_13  and  C11_14
REMARK    8  A    between atoms: C17_20  and  C18_22
REMARK                            x       y       z     vdW  Elec       q    Type
REMARK                         _______ _______ _______ _____ _____    ______ ____
ROOT
ATOM      1  C8  UNL     1      27.799  43.634  16.212  0.00  0.00    +0.199 C 
ENDROOT
BRANCH   1   2
ATOM      2  C22 UNL     1      27.160  43.975  14.874  0.00  0.00    +0.019 A 
ATOM      3  C23 UNL     1      27.759  44.663  13.831  0.00  0.00    +0.013 A 
ATOM      4  C24 UNL     1      26.904  44.815  12.703  0.00  0.00    +0.008 A 
ATOM      5  C25 UNL     1      25.674  44.237  12.910  0.00  0.00    +0.045 A 
ATOM      6  S1  UNL     1      25.558  43.517  14.453  0.00  0.00    -0.099 S 
ENDBRANCH   1   2
BRANCH   1   8
ATOM      7  O1  UNL     1      28.682  41.508  17.073  0.00  0.00    -0.273 OA
ATOM      8  C1  UNL     1      28.691  42.357  16.182  0.00  0.00    +0.239 C 
ATOM      9  N1  UNL     1      29.433  42.192  15.019  0.00  0.00    -0.311 N 
ATOM     10  H1  UNL     1      29.601  43.019  14.456  0.00  0.00    +0.149 HD
BRANCH   9  11
ATOM     11  C2  UNL     1      30.355  41.077  14.861  0.00  0.00    +0.073 C 
ATOM     12  C3  UNL     1      30.655  40.835  13.381  0.00  0.00    +0.022 C 
ATOM     13  C4  UNL     1      31.531  39.597  13.172  0.00  0.00    +0.002 C 
ATOM     14  C5  UNL     1      32.457  39.297  14.352  0.00  0.00    +0.000 C 
ATOM     15  C6  UNL     1      32.861  40.564  15.091  0.00  0.00    +0.002 C 
ATOM     16  C7  UNL     1      31.651  41.310  15.658  0.00  0.00    +0.022 C 
ENDBRANCH   9  11
ENDBRANCH   1   8
BRANCH   1  17
ATOM     17  N2  UNL     1      28.482  44.827  16.755  0.00  0.00    -0.279 N 
ATOM     18  C17 UNL     1      27.831  45.811  17.516  0.00  0.00    +0.283 C 
ATOM     19  O2  UNL     1      28.477  46.548  18.265  0.00  0.00    -0.267 OA
BRANCH  18  20
ATOM     20  C18 UNL     1      26.392  45.987  17.398  0.00  0.00    +0.189 A 
ATOM     21  O3  UNL     1      25.849  46.676  16.344  0.00  0.00    -0.458 OA
ATOM     22  C19 UNL     1      24.507  46.728  16.541  0.00  0.00    +0.196 A 
ATOM     23  C20 UNL     1      24.168  46.103  17.717  0.00  0.00    +0.042 A 
ATOM     24  C21 UNL     1      25.382  45.643  18.278  0.00  0.00    +0.054 A 
ENDBRANCH  18  20
BRANCH  17  25
ATOM     25  C9  UNL     1      29.950  44.793  16.847  0.00  0.00    +0.114 C 
BRANCH  25  26
ATOM     26  C10 UNL     1      30.600  45.819  15.911  0.00  0.00    +0.054 C 
BRANCH  26  27
ATOM     27  C11 UNL     1      31.689  45.201  15.072  0.00  0.00    -0.046 A 
ATOM     28  C12 UNL     1      32.949  44.941  15.627  0.00  0.00    +0.004 A 
ATOM     29  C13 UNL     1      33.950  44.349  14.857  0.00  0.00    +0.000 A 
ATOM     30  C14 UNL     1      33.701  44.007  13.529  0.00  0.00    +0.000 A 
ATOM     31  C15 UNL     1      32.449  44.256  12.970  0.00  0.00    +0.000 A 
ATOM     32  C16 UNL     1      31.445  44.848  13.737  0.00  0.00    +0.004 A 
ENDBRANCH  26  27
ENDBRANCH  25  26
ENDBRANCH  17  25
ENDBRANCH   1  17
TORSDOF 8
ENDMDL
MODEL 5
REMARK VINA RESULT:    -2.914      2.607      6.663
REMARK INTER + INTRA:          -6.830
REMARK INTER:                  -3.957
REMARK INTRA:                  -2.873
REMARK UNBOUND:                -2.554
REMARK  Name = /home/vital/Documents/PhD_2021/Malaria_codes/data/pdb_ligands_mmv/ligand_301.pdb
REMARK  8 active torsions:
REMARK  status: ('A' for Active; 'I' for Inactive)
REMARK    1  A    between atoms: C1_2  and  C8_10
REMARK    2  A    between atoms: N1_3  and  C2_4
REMARK    3  A    between atoms: C8_10  and  N2_11
REMARK    4  A    between atoms: C8_10  and  C22_27
REMARK    5  A    between atoms: N2_11  and  C9_12
REMARK    6  A    between atoms: C9_12  and  C10_13
REMARK    7  A    between atoms: C10_13  and  C11_14
REMARK    8  A    between atoms: C17_20  and  C18_22
REMARK                            x       y       z     vdW  Elec       q    Type
REMARK                         _______ _______ _______ _____ _____    ______ ____
ROOT
ATOM      1  C8  UNL     1      17.006  28.266  17.876  0.00  0.00    +0.199 C 
ENDROOT
BRANCH   1   2
ATOM      2  C22 UNL     1      18.176  27.752  17.051  0.00  0.00    +0.019 A 
ATOM      3  C23 UNL     1      18.189  27.556  15.679  0.00  0.00    +0.013 A 
ATOM      4  C24 UNL     1      19.441  27.076  15.199  0.00  0.00    +0.008 A 
ATOM      5  C25 UNL     1      20.354  26.921  16.215  0.00  0.00    +0.045 A 
ATOM      6  S1  UNL     1      19.703  27.353  17.732  0.00  0.00    -0.099 S 
ENDBRANCH   1   2
BRANCH   1   8
ATOM      7  O1  UNL     1      16.734  30.396  19.071  0.00  0.00    -0.273 OA
ATOM      8  C1  UNL     1      16.955  29.817  18.007  0.00  0.00    +0.239 C 
ATOM      9  N1  UNL     1      17.275  30.511  16.847  0.00  0.00    -0.311 N 
ATOM     10  H1  UNL     1      17.190  30.009  15.970  0.00  0.00    +0.149 HD
BRANCH   9  11
ATOM     11  C2  UNL     1      17.220  31.965  16.795  0.00  0.00    +0.073 C 
ATOM     12  C3  UNL     1      17.737  32.472  15.448  0.00  0.00    +0.022 C 
ATOM     13  C4  UNL     1      17.800  34.001  15.401  0.00  0.00    +0.002 C 
ATOM     14  C5  UNL     1      16.766  34.684  16.299  0.00  0.00    +0.000 C 
ATOM     15  C6  UNL     1      15.506  33.846  16.448  0.00  0.00    +0.002 C 
ATOM     16  C7  UNL     1      15.796  32.477  17.071  0.00  0.00    +0.022 C 
ENDBRANCH   9  11
ENDBRANCH   1   8
BRANCH   1  17
ATOM     17  N2  UNL     1      15.749  27.666  17.381  0.00  0.00    -0.279 N 
ATOM     18  C17 UNL     1      15.241  26.441  17.844  0.00  0.00    +0.283 C 
ATOM     19  O2  UNL     1      14.044  26.176  17.718  0.00  0.00    -0.267 OA
BRANCH  18  20
ATOM     20  C18 UNL     1      16.138  25.465  18.443  0.00  0.00    +0.189 A 
ATOM     21  O3  UNL     1      16.558  25.596  19.741  0.00  0.00    -0.458 OA
ATOM     22  C19 UNL     1      17.428  24.583  19.991  0.00  0.00    +0.196 A 
ATOM     23  C20 UNL     1      17.597  23.806  18.871  0.00  0.00    +0.042 A 
ATOM     24  C21 UNL     1      16.783  24.384  17.869  0.00  0.00    +0.054 A 
ENDBRANCH  18  20
BRANCH  17  25
ATOM     25  C9  UNL     1      14.798  28.547  16.685  0.00  0.00    +0.114 C 
BRANCH  25  26
ATOM     26  C10 UNL     1      14.589  28.116  15.228  0.00  0.00    +0.054 C 
BRANCH  26  27
ATOM     27  C11 UNL     1      14.936  29.220  14.262  0.00  0.00    -0.046 A 
ATOM     28  C12 UNL     1      15.827  28.982  13.207  0.00  0.00    +0.004 A 
ATOM     29  C13 UNL     1      16.132  29.997  12.299  0.00  0.00    +0.000 A 
ATOM     30  C14 UNL     1      15.547  31.255  12.434  0.00  0.00    +0.000 A 
ATOM     31  C15 UNL     1      14.655  31.499  13.477  0.00  0.00    +0.000 A 
ATOM     32  C16 UNL     1      14.348  30.486  14.386  0.00  0.00    +0.004 A 
ENDBRANCH  26  27
ENDBRANCH  25  26
ENDBRANCH  17  25
ENDBRANCH   1  17
TORSDOF 8
ENDMDL
MODEL 6
REMARK VINA RESULT:    -2.886     14.982     18.756
REMARK INTER + INTRA:          -6.790
REMARK INTER:                  -3.583
REMARK INTRA:                  -3.207
REMARK UNBOUND:                -2.554
REMARK  Name = /home/vital/Documents/PhD_2021/Malaria_codes/data/pdb_ligands_mmv/ligand_301.pdb
REMARK  8 active torsions:
REMARK  status: ('A' for Active; 'I' for Inactive)
REMARK    1  A    between atoms: C1_2  and  C8_10
REMARK    2  A    between atoms: N1_3  and  C2_4
REMARK    3  A    between atoms: C8_10  and  N2_11
REMARK    4  A    between atoms: C8_10  and  C22_27
REMARK    5  A    between atoms: N2_11  and  C9_12
REMARK    6  A    between atoms: C9_12  and  C10_13
REMARK    7  A    between atoms: C10_13  and  C11_14
REMARK    8  A    between atoms: C17_20  and  C18_22
REMARK                            x       y       z     vdW  Elec       q    Type
REMARK                         _______ _______ _______ _____ _____    ______ ____
ROOT
ATOM      1  C8  UNL     1      27.194  43.777  15.709  0.00  0.00    +0.199 C 
ENDROOT
BRANCH   1   2
ATOM      2  C22 UNL     1      27.833  44.638  16.788  0.00  0.00    +0.019 A 
ATOM      3  C23 UNL     1      27.374  45.866  17.236  0.00  0.00    +0.013 A 
ATOM      4  C24 UNL     1      28.186  46.420  18.266  0.00  0.00    +0.008 A 
ATOM      5  C25 UNL     1      29.243  45.600  18.583  0.00  0.00    +0.045 A 
ATOM      6  S1  UNL     1      29.251  44.175  17.644  0.00  0.00    -0.099 S 
ENDBRANCH   1   2
BRANCH   1   8
ATOM      7  O1  UNL     1      25.777  41.784  15.956  0.00  0.00    -0.273 OA
ATOM      8  C1  UNL     1      25.944  42.981  16.189  0.00  0.00    +0.239 C 
ATOM      9  N1  UNL     1      25.069  43.701  16.993  0.00  0.00    -0.311 N 
ATOM     10  H1  UNL     1      25.115  44.712  16.937  0.00  0.00    +0.149 HD
BRANCH   9  11
ATOM     11  C2  UNL     1      23.829  43.112  17.478  0.00  0.00    +0.073 C 
ATOM     12  C3  UNL     1      23.271  43.925  18.647  0.00  0.00    +0.022 C 
ATOM     13  C4  UNL     1      22.028  43.271  19.255  0.00  0.00    +0.002 C 
ATOM     14  C5  UNL     1      21.222  42.441  18.254  0.00  0.00    +0.000 C 
ATOM     15  C6  UNL     1      21.344  42.987  16.839  0.00  0.00    +0.002 C 
ATOM     16  C7  UNL     1      22.794  42.988  16.346  0.00  0.00    +0.022 C 
ENDBRANCH   9  11
ENDBRANCH   1   8
BRANCH   1  17
ATOM     17  N2  UNL     1      26.955  44.593  14.500  0.00  0.00    -0.279 N 
ATOM     18  C17 UNL     1      27.936  44.840  13.526  0.00  0.00    +0.283 C 
ATOM     19  O2  UNL     1      27.610  45.166  12.383  0.00  0.00    -0.267 OA
BRANCH  18  20
ATOM     20  C18 UNL     1      29.344  44.745  13.876  0.00  0.00    +0.189 A 
ATOM     21  O3  UNL     1      30.013  45.815  14.411  0.00  0.00    -0.458 OA
ATOM     22  C19 UNL     1      31.311  45.447  14.568  0.00  0.00    +0.196 A 
ATOM     23  C20 UNL     1      31.504  44.161  14.123  0.00  0.00    +0.042 A 
ATOM     24  C21 UNL     1      30.244  43.716  13.659  0.00  0.00    +0.054 A 
ENDBRANCH  18  20
BRANCH  17  25
ATOM     25  C9  UNL     1      25.559  44.823  14.095  0.00  0.00    +0.114 C 
BRANCH  25  26
ATOM     26  C10 UNL     1      25.183  46.308  14.177  0.00  0.00    +0.054 C 
BRANCH  26  27
ATOM     27  C11 UNL     1      23.895  46.519  14.933  0.00  0.00    -0.046 A 
ATOM     28  C12 UNL     1      23.914  47.067  16.222  0.00  0.00    +0.004 A 
ATOM     29  C13 UNL     1      22.721  47.283  16.913  0.00  0.00    +0.000 A 
ATOM     30  C14 UNL     1      21.501  46.958  16.323  0.00  0.00    +0.000 A 
ATOM     31  C15 UNL     1      21.474  46.417  15.038  0.00  0.00    +0.000 A 
ATOM     32  C16 UNL     1      22.664  46.200  14.344  0.00  0.00    +0.004 A 
ENDBRANCH  26  27
ENDBRANCH  25  26
ENDBRANCH  17  25
ENDBRANCH   1  17
TORSDOF 8
ENDMDL
MODEL 7
REMARK VINA RESULT:    -2.844     14.215     18.430
REMARK INTER + INTRA:          -6.727
REMARK INTER:                  -3.427
REMARK INTRA:                  -3.301
REMARK UNBOUND:                -2.554
REMARK  Name = /home/vital/Documents/PhD_2021/Malaria_codes/data/pdb_ligands_mmv/ligand_301.pdb
REMARK  8 active torsions:
REMARK  status: ('A' for Active; 'I' for Inactive)
REMARK    1  A    between atoms: C1_2  and  C8_10
REMARK    2  A    between atoms: N1_3  and  C2_4
REMARK    3  A    between atoms: C8_10  and  N2_11
REMARK    4  A    between atoms: C8_10  and  C22_27
REMARK    5  A    between atoms: N2_11  and  C9_12
REMARK    6  A    between atoms: C9_12  and  C10_13
REMARK    7  A    between atoms: C10_13  and  C11_14
REMARK    8  A    between atoms: C17_20  and  C18_22
REMARK                            x       y       z     vdW  Elec       q    Type
REMARK                         _______ _______ _______ _____ _____    ______ ____
ROOT
ATOM      1  C8  UNL     1      25.124  44.495  19.609  0.00  0.00    +0.199 C 
ENDROOT
BRANCH   1   2
ATOM      2  C22 UNL     1      24.405  45.411  20.588  0.00  0.00    +0.019 A 
ATOM      3  C23 UNL     1      23.783  46.611  20.284  0.00  0.00    +0.013 A 
ATOM      4  C24 UNL     1      23.188  47.231  21.419  0.00  0.00    +0.008 A 
ATOM      5  C25 UNL     1      23.367  46.488  22.562  0.00  0.00    +0.045 A 
ATOM      6  S1  UNL     1      24.244  45.055  22.263  0.00  0.00    -0.099 S 
ENDBRANCH   1   2
BRANCH   1   8
ATOM      7  O1  UNL     1      24.503  42.334  18.616  0.00  0.00    -0.273 OA
ATOM      8  C1  UNL     1      24.185  43.495  18.870  0.00  0.00    +0.239 C 
ATOM      9  N1  UNL     1      22.911  43.981  18.603  0.00  0.00    -0.311 N 
ATOM     10  H1  UNL     1      22.793  44.988  18.593  0.00  0.00    +0.149 HD
BRANCH   9  11
ATOM     11  C2  UNL     1      21.935  43.186  17.871  0.00  0.00    +0.073 C 
ATOM     12  C3  UNL     1      20.538  43.793  18.008  0.00  0.00    +0.022 C 
ATOM     13  C4  UNL     1      19.470  42.920  17.346  0.00  0.00    +0.002 C 
ATOM     14  C5  UNL     1      19.996  42.095  16.169  0.00  0.00    +0.000 C 
ATOM     15  C6  UNL     1      21.145  42.795  15.459  0.00  0.00    +0.002 C 
ATOM     16  C7  UNL     1      22.334  43.040  16.392  0.00  0.00    +0.022 C 
ENDBRANCH   9  11
ENDBRANCH   1   8
BRANCH   1  17
ATOM     17  N2  UNL     1      25.968  45.301  18.703  0.00  0.00    -0.279 N 
ATOM     18  C17 UNL     1      27.259  45.743  19.037  0.00  0.00    +0.283 C 
ATOM     19  O2  UNL     1      28.061  46.050  18.153  0.00  0.00    -0.267 OA
BRANCH  18  20
ATOM     20  C18 UNL     1      27.642  45.872  20.434  0.00  0.00    +0.189 A 
ATOM     21  O3  UNL     1      27.960  44.769  21.184  0.00  0.00    -0.458 OA
ATOM     22  C19 UNL     1      28.207  45.195  22.450  0.00  0.00    +0.196 A 
ATOM     23  C20 UNL     1      28.034  46.555  22.542  0.00  0.00    +0.042 A 
ATOM     24  C21 UNL     1      27.652  46.989  21.252  0.00  0.00    +0.054 A 
ENDBRANCH  18  20
BRANCH  17  25
ATOM     25  C9  UNL     1      25.624  45.310  17.273  0.00  0.00    +0.114 C 
BRANCH  25  26
ATOM     26  C10 UNL     1      25.181  46.702  16.805  0.00  0.00    +0.054 C 
BRANCH  26  27
ATOM     27  C11 UNL     1      23.880  46.649  16.044  0.00  0.00    -0.046 A 
ATOM     28  C12 UNL     1      23.861  46.238  14.705  0.00  0.00    +0.004 A 
ATOM     29  C13 UNL     1      22.655  46.167  14.006  0.00  0.00    +0.000 A 
ATOM     30  C14 UNL     1      21.460  46.503  14.639  0.00  0.00    +0.000 A 
ATOM     31  C15 UNL     1      21.469  46.909  15.972  0.00  0.00    +0.000 A 
ATOM     32  C16 UNL     1      22.673  46.979  16.674  0.00  0.00    +0.004 A 
ENDBRANCH  26  27
ENDBRANCH  25  26
ENDBRANCH  17  25
ENDBRANCH   1  17
TORSDOF 8
ENDMDL
MODEL 8
REMARK VINA RESULT:    -2.809      2.246      2.780
REMARK INTER + INTRA:          -6.677
REMARK INTER:                  -4.096
REMARK INTRA:                  -2.581
REMARK UNBOUND:                -2.554
REMARK  Name = /home/vital/Documents/PhD_2021/Malaria_codes/data/pdb_ligands_mmv/ligand_301.pdb
REMARK  8 active torsions:
REMARK  status: ('A' for Active; 'I' for Inactive)
REMARK    1  A    between atoms: C1_2  and  C8_10
REMARK    2  A    between atoms: N1_3  and  C2_4
REMARK    3  A    between atoms: C8_10  and  N2_11
REMARK    4  A    between atoms: C8_10  and  C22_27
REMARK    5  A    between atoms: N2_11  and  C9_12
REMARK    6  A    between atoms: C9_12  and  C10_13
REMARK    7  A    between atoms: C10_13  and  C11_14
REMARK    8  A    between atoms: C17_20  and  C18_22
REMARK                            x       y       z     vdW  Elec       q    Type
REMARK                         _______ _______ _______ _____ _____    ______ ____
ROOT
ATOM      1  C8  UNL     1      17.178  30.534  16.879  0.00  0.00    +0.199 C 
ENDROOT
BRANCH   1   2
ATOM      2  C22 UNL     1      16.510  29.380  17.613  0.00  0.00    +0.019 A 
ATOM      3  C23 UNL     1      15.339  29.444  18.350  0.00  0.00    +0.013 A 
ATOM      4  C24 UNL     1      14.964  28.189  18.908  0.00  0.00    +0.008 A 
ATOM      5  C25 UNL     1      15.857  27.196  18.581  0.00  0.00    +0.045 A 
ATOM      6  S1  UNL     1      17.132  27.777  17.608  0.00  0.00    -0.099 S 
ENDBRANCH   1   2
BRANCH   1   8
ATOM      7  O1  UNL     1      19.624  30.706  16.718  0.00  0.00    -0.273 OA
ATOM      8  C1  UNL     1      18.585  30.191  16.306  0.00  0.00    +0.239 C 
ATOM      9  N1  UNL     1      18.595  29.181  15.352  0.00  0.00    -0.311 N 
ATOM     10  H1  UNL     1      17.722  28.985  14.876  0.00  0.00    +0.149 HD
BRANCH   9  11
ATOM     11  C2  UNL     1      19.826  28.783  14.683  0.00  0.00    +0.073 C 
ATOM     12  C3  UNL     1      20.456  27.582  15.390  0.00  0.00    +0.022 C 
ATOM     13  C4  UNL     1      21.810  27.209  14.782  0.00  0.00    +0.002 C 
ATOM     14  C5  UNL     1      21.934  27.564  13.299  0.00  0.00    +0.000 C 
ATOM     15  C6  UNL     1      20.589  27.507  12.590  0.00  0.00    +0.002 C 
ATOM     16  C7  UNL     1      19.577  28.484  13.195  0.00  0.00    +0.022 C 
ENDBRANCH   9  11
ENDBRANCH   1   8
BRANCH   1  17
ATOM     17  N2  UNL     1      16.244  31.091  15.879  0.00  0.00    -0.279 N 
ATOM     18  C17 UNL     1      15.756  32.407  15.924  0.00  0.00    +0.283 C 
ATOM     19  O2  UNL     1      15.323  32.947  14.904  0.00  0.00    -0.267 OA
BRANCH  18  20
ATOM     20  C18 UNL     1      15.729  33.127  17.188  0.00  0.00    +0.189 A 
ATOM     21  O3  UNL     1      14.847  32.781  18.179  0.00  0.00    -0.458 OA
ATOM     22  C19 UNL     1      15.013  33.664  19.197  0.00  0.00    +0.196 A 
ATOM     23  C20 UNL     1      15.972  34.594  18.877  0.00  0.00    +0.042 A 
ATOM     24  C21 UNL     1      16.420  34.261  17.577  0.00  0.00    +0.054 A 
ENDBRANCH  18  20
BRANCH  17  25
ATOM     25  C9  UNL     1      16.130  30.396  14.587  0.00  0.00    +0.114 C 
BRANCH  25  26
ATOM     26  C10 UNL     1      14.723  29.824  14.374  0.00  0.00    +0.054 C 
BRANCH  26  27
ATOM     27  C11 UNL     1      14.705  28.321  14.492  0.00  0.00    -0.046 A 
ATOM     28  C12 UNL     1      15.724  27.554  13.910  0.00  0.00    +0.004 A 
ATOM     29  C13 UNL     1      15.721  26.165  14.037  0.00  0.00    +0.000 A 
ATOM     30  C14 UNL     1      14.704  25.529  14.748  0.00  0.00    +0.000 A 
ATOM     31  C15 UNL     1      13.690  26.285  15.335  0.00  0.00    +0.000 A 
ATOM     32  C16 UNL     1      13.691  27.674  15.211  0.00  0.00    +0.004 A 
ENDBRANCH  26  27
ENDBRANCH  25  26
ENDBRANCH  17  25
ENDBRANCH   1  17
TORSDOF 8
ENDMDL
MODEL 9
REMARK VINA RESULT:    -2.779      2.273      3.567
REMARK INTER + INTRA:          -6.633
REMARK INTER:                  -3.417
REMARK INTRA:                  -3.216
REMARK UNBOUND:                -2.554
REMARK  Name = /home/vital/Documents/PhD_2021/Malaria_codes/data/pdb_ligands_mmv/ligand_301.pdb
REMARK  8 active torsions:
REMARK  status: ('A' for Active; 'I' for Inactive)
REMARK    1  A    between atoms: C1_2  and  C8_10
REMARK    2  A    between atoms: N1_3  and  C2_4
REMARK    3  A    between atoms: C8_10  and  N2_11
REMARK    4  A    between atoms: C8_10  and  C22_27
REMARK    5  A    between atoms: N2_11  and  C9_12
REMARK    6  A    between atoms: C9_12  and  C10_13
REMARK    7  A    between atoms: C10_13  and  C11_14
REMARK    8  A    between atoms: C17_20  and  C18_22
REMARK                            x       y       z     vdW  Elec       q    Type
REMARK                         _______ _______ _______ _____ _____    ______ ____
ROOT
ATOM      1  C8  UNL     1      17.699  28.822  15.199  0.00  0.00    +0.199 C 
ENDROOT
BRANCH   1   2
ATOM      2  C22 UNL     1      17.043  29.646  16.297  0.00  0.00    +0.019 A 
ATOM      3  C23 UNL     1      16.083  29.203  17.194  0.00  0.00    +0.013 A 
ATOM      4  C24 UNL     1      15.673  30.212  18.111  0.00  0.00    +0.008 A 
ATOM      5  C25 UNL     1      16.332  31.399  17.895  0.00  0.00    +0.045 A 
ATOM      6  S1  UNL     1      17.435  31.293  16.598  0.00  0.00    -0.099 S 
ENDBRANCH   1   2
BRANCH   1   8
ATOM      7  O1  UNL     1      19.997  28.002  14.900  0.00  0.00    -0.273 OA
ATOM      8  C1  UNL     1      19.018  28.118  15.637  0.00  0.00    +0.239 C 
ATOM      9  N1  UNL     1      19.049  27.712  16.965  0.00  0.00    -0.311 N 
ATOM     10  H1  UNL     1      18.157  27.596  17.434  0.00  0.00    +0.149 HD
BRANCH   9  11
ATOM     11  C2  UNL     1      20.191  26.993  17.511  0.00  0.00    +0.073 C 
ATOM     12  C3  UNL     1      20.197  27.076  19.038  0.00  0.00    +0.022 C 
ATOM     13  C4  UNL     1      21.446  26.428  19.639  0.00  0.00    +0.002 C 
ATOM     14  C5  UNL     1      22.020  25.295  18.784  0.00  0.00    +0.000 C 
ATOM     15  C6  UNL     1      20.935  24.582  17.990  0.00  0.00    +0.002 C 
ATOM     16  C7  UNL     1      20.204  25.529  17.036  0.00  0.00    +0.022 C 
ENDBRANCH   9  11
ENDBRANCH   1   8
BRANCH   1  17
ATOM     17  N2  UNL     1      16.703  27.907  14.604  0.00  0.00    -0.279 N 
ATOM     18  C17 UNL     1      15.841  28.276  13.559  0.00  0.00    +0.283 C 
ATOM     19  O2  UNL     1      15.328  27.415  12.840  0.00  0.00    -0.267 OA
BRANCH  18  20
ATOM     20  C18 UNL     1      15.522  29.679  13.343  0.00  0.00    +0.189 A 
ATOM     21  O3  UNL     1      16.317  30.470  12.554  0.00  0.00    -0.458 OA
ATOM     22  C19 UNL     1      15.808  31.728  12.596  0.00  0.00    +0.196 A 
ATOM     23  C20 UNL     1      14.708  31.775  13.418  0.00  0.00    +0.042 A 
ATOM     24  C21 UNL     1      14.535  30.462  13.914  0.00  0.00    +0.054 A 
ENDBRANCH  18  20
BRANCH  17  25
ATOM     25  C9  UNL     1      16.881  26.463  14.826  0.00  0.00    +0.114 C 
BRANCH  25  26
ATOM     26  C10 UNL     1      15.748  25.878  15.679  0.00  0.00    +0.054 C 
BRANCH  26  27
ATOM     27  C11 UNL     1      16.278  25.130  16.876  0.00  0.00    -0.046 A 
ATOM     28  C12 UNL     1      16.690  23.797  16.752  0.00  0.00    +0.004 A 
ATOM     29  C13 UNL     1      17.201  23.111  17.854  0.00  0.00    +0.000 A 
ATOM     30  C14 UNL     1      17.308  23.751  19.088  0.00  0.00    +0.000 A 
ATOM     31  C15 UNL     1      16.905  25.079  19.220  0.00  0.00    +0.000 A 
ATOM     32  C16 UNL     1      16.395  25.768  18.119  0.00  0.00    +0.004 A 
ENDBRANCH  26  27
ENDBRANCH  25  26
ENDBRANCH  17  25
ENDBRANCH   1  17
TORSDOF 8
ENDMDL
