MODEL 1
REMARK VINA RESULT:    -3.856      0.000      0.000
REMARK INTER + INTRA:          -4.258
REMARK INTER:                  -4.081
REMARK INTRA:                  -0.177
REMARK UNBOUND:                -0.177
REMARK  Name = /home/vital/Documents/PhD_2021/Malaria_codes/data/pdb_ligands_mmv/ligand_383.pdb
REMARK  2 active torsions:
REMARK  status: ('A' for Active; 'I' for Inactive)
REMARK    1  A    between atoms: C1_1  and  C2_2
REMARK    2  A    between atoms: C2_2  and  N1_3
REMARK                            x       y       z     vdW  Elec       q    Type
REMARK                         _______ _______ _______ _____ _____    ______ ____
ROOT
ATOM      1  N1  UNL     1      14.202  26.918  16.746  0.00  0.00    -0.347 N 
ATOM      2  C3  UNL     1      14.580  27.142  15.423  0.00  0.00    +0.024 A 
ATOM      3  C4  UNL     1      15.140  28.268  14.969  0.00  0.00    -0.003 A 
ATOM      4  C5  UNL     1      15.426  28.247  13.513  0.00  0.00    +0.039 C 
ATOM      5  C6  UNL     1      15.257  26.767  13.178  0.00  0.00    +0.011 C 
ATOM      6  C7  UNL     1      14.398  26.168  14.296  0.00  0.00    +0.054 C 
ATOM      7  C8  UNL     1      15.409  29.374  15.901  0.00  0.00    +0.065 A 
ATOM      8  N2  UNL     1      15.934  30.498  15.528  0.00  0.00    -0.299 NA
ATOM      9  C9  UNL     1      15.027  29.134  17.333  0.00  0.00    -0.003 A 
ATOM     10  C10 UNL     1      14.437  27.962  17.681  0.00  0.00    +0.024 A 
ATOM     11  C11 UNL     1      13.993  27.761  19.126  0.00  0.00    +0.054 C 
ATOM     12  C12 UNL     1      14.007  29.020  19.995  0.00  0.00    +0.006 C 
ATOM     13  C13 UNL     1      15.268  29.831  19.756  0.00  0.00    +0.005 C 
ATOM     14  C14 UNL     1      15.354  30.249  18.292  0.00  0.00    +0.039 C 
ATOM     15  H12 UNL     1      16.126  30.497  14.524  0.00  0.00    +0.187 HD
ENDROOT
BRANCH   1  17
ATOM     16  C1  UNL     1      14.833  24.663  17.543  0.00  0.00    +0.027 C 
ATOM     17  C2  UNL     1      13.690  25.591  17.151  0.00  0.00    +0.118 C 
ENDBRANCH   1  17
TORSDOF 1
ENDMDL
MODEL 2
REMARK VINA RESULT:    -3.740      2.102      4.563
REMARK INTER + INTRA:          -4.136
REMARK INTER:                  -3.958
REMARK INTRA:                  -0.177
REMARK UNBOUND:                -0.177
REMARK  Name = /home/vital/Documents/PhD_2021/Malaria_codes/data/pdb_ligands_mmv/ligand_383.pdb
REMARK  2 active torsions:
REMARK  status: ('A' for Active; 'I' for Inactive)
REMARK    1  A    between atoms: C1_1  and  C2_2
REMARK    2  A    between atoms: C2_2  and  N1_3
REMARK                            x       y       z     vdW  Elec       q    Type
REMARK                         _______ _______ _______ _____ _____    ______ ____
ROOT
ATOM      1  N1  UNL     1      15.968  26.751  17.324  0.00  0.00    -0.347 N 
ATOM      2  C3  UNL     1      15.208  27.080  16.202  0.00  0.00    +0.024 A 
ATOM      3  C4  UNL     1      14.827  26.215  15.257  0.00  0.00    -0.003 A 
ATOM      4  C5  UNL     1      14.040  26.836  14.164  0.00  0.00    +0.039 C 
ATOM      5  C6  UNL     1      13.695  28.200  14.756  0.00  0.00    +0.011 C 
ATOM      6  C7  UNL     1      14.717  28.458  15.867  0.00  0.00    +0.054 C 
ATOM      7  C8  UNL     1      15.203  24.798  15.373  0.00  0.00    +0.065 A 
ATOM      8  N2  UNL     1      14.882  23.908  14.488  0.00  0.00    -0.299 NA
ATOM      9  C9  UNL     1      16.002  24.428  16.589  0.00  0.00    -0.003 A 
ATOM     10  C10 UNL     1      16.361  25.393  17.474  0.00  0.00    +0.024 A 
ATOM     11  C11 UNL     1      17.230  25.012  18.667  0.00  0.00    +0.054 C 
ATOM     12  C12 UNL     1      17.851  23.615  18.605  0.00  0.00    +0.006 C 
ATOM     13  C13 UNL     1      16.838  22.593  18.122  0.00  0.00    +0.005 C 
ATOM     14  C14 UNL     1      16.338  22.966  16.730  0.00  0.00    +0.039 C 
ATOM     15  H12 UNL     1      14.347  24.329  13.725  0.00  0.00    +0.187 HD
ENDROOT
BRANCH   1  17
ATOM     16  C1  UNL     1      15.128  27.797  19.401  0.00  0.00    +0.027 C 
ATOM     17  C2  UNL     1      16.238  27.773  18.358  0.00  0.00    +0.118 C 
ENDBRANCH   1  17
TORSDOF 1
ENDMDL
MODEL 3
REMARK VINA RESULT:    -3.731      1.431      4.238
REMARK INTER + INTRA:          -4.126
REMARK INTER:                  -3.955
REMARK INTRA:                  -0.171
REMARK UNBOUND:                -0.177
REMARK  Name = /home/vital/Documents/PhD_2021/Malaria_codes/data/pdb_ligands_mmv/ligand_383.pdb
REMARK  2 active torsions:
REMARK  status: ('A' for Active; 'I' for Inactive)
REMARK    1  A    between atoms: C1_1  and  C2_2
REMARK    2  A    between atoms: C2_2  and  N1_3
REMARK                            x       y       z     vdW  Elec       q    Type
REMARK                         _______ _______ _______ _____ _____    ______ ____
ROOT
ATOM      1  N1  UNL     1      15.398  27.657  17.219  0.00  0.00    -0.347 N 
ATOM      2  C3  UNL     1      15.613  28.970  16.805  0.00  0.00    +0.024 A 
ATOM      3  C4  UNL     1      15.750  29.358  15.533  0.00  0.00    -0.003 A 
ATOM      4  C5  UNL     1      15.989  30.814  15.376  0.00  0.00    +0.039 C 
ATOM      5  C6  UNL     1      15.640  31.344  16.764  0.00  0.00    +0.011 C 
ATOM      6  C7  UNL     1      15.748  30.153  17.720  0.00  0.00    +0.054 C 
ATOM      7  C8  UNL     1      15.660  28.361  14.455  0.00  0.00    +0.065 A 
ATOM      8  N2  UNL     1      15.799  28.662  13.203  0.00  0.00    -0.299 NA
ATOM      9  C9  UNL     1      15.405  26.947  14.889  0.00  0.00    -0.003 A 
ATOM     10  C10 UNL     1      15.311  26.658  16.212  0.00  0.00    +0.024 A 
ATOM     11  C11 UNL     1      15.121  25.207  16.638  0.00  0.00    +0.054 C 
ATOM     12  C12 UNL     1      15.330  24.168  15.534  0.00  0.00    +0.006 C 
ATOM     13  C13 UNL     1      14.672  24.611  14.240  0.00  0.00    +0.005 C 
ATOM     14  C14 UNL     1      15.261  25.939  13.778  0.00  0.00    +0.039 C 
ATOM     15  H12 UNL     1      15.974  29.663  13.085  0.00  0.00    +0.187 HD
ENDROOT
BRANCH   1  17
ATOM     16  C1  UNL     1      13.691  27.590  19.007  0.00  0.00    +0.027 C 
ATOM     17  C2  UNL     1      15.154  27.365  18.648  0.00  0.00    +0.118 C 
ENDBRANCH   1  17
TORSDOF 1
ENDMDL
MODEL 4
REMARK VINA RESULT:    -3.687      2.362      4.812
REMARK INTER + INTRA:          -4.080
REMARK INTER:                  -3.928
REMARK INTRA:                  -0.152
REMARK UNBOUND:                -0.177
REMARK  Name = /home/vital/Documents/PhD_2021/Malaria_codes/data/pdb_ligands_mmv/ligand_383.pdb
REMARK  2 active torsions:
REMARK  status: ('A' for Active; 'I' for Inactive)
REMARK    1  A    between atoms: C1_1  and  C2_2
REMARK    2  A    between atoms: C2_2  and  N1_3
REMARK                            x       y       z     vdW  Elec       q    Type
REMARK                         _______ _______ _______ _____ _____    ______ ____
ROOT
ATOM      1  N1  UNL     1      16.073  26.176  17.462  0.00  0.00    -0.347 N 
ATOM      2  C3  UNL     1      16.400  24.823  17.393  0.00  0.00    +0.024 A 
ATOM      3  C4  UNL     1      15.973  23.981  16.446  0.00  0.00    -0.003 A 
ATOM      4  C5  UNL     1      16.458  22.590  16.621  0.00  0.00    +0.039 C 
ATOM      5  C6  UNL     1      17.554  22.766  17.670  0.00  0.00    +0.011 C 
ATOM      6  C7  UNL     1      17.262  24.091  18.380  0.00  0.00    +0.054 C 
ATOM      7  C8  UNL     1      15.104  24.479  15.368  0.00  0.00    +0.065 A 
ATOM      8  N2  UNL     1      14.641  23.718  14.428  0.00  0.00    -0.299 NA
ATOM      9  C9  UNL     1      14.765  25.941  15.421  0.00  0.00    -0.003 A 
ATOM     10  C10 UNL     1      15.229  26.700  16.446  0.00  0.00    +0.024 A 
ATOM     11  C11 UNL     1      14.820  28.166  16.521  0.00  0.00    +0.054 C 
ATOM     12  C12 UNL     1      13.690  28.579  15.575  0.00  0.00    +0.006 C 
ATOM     13  C13 UNL     1      13.890  27.978  14.196  0.00  0.00    +0.005 C 
ATOM     14  C14 UNL     1      13.919  26.456  14.286  0.00  0.00    +0.039 C 
ATOM     15  H12 UNL     1      14.962  22.755  14.546  0.00  0.00    +0.187 HD
ENDROOT
BRANCH   1  17
ATOM     16  C1  UNL     1      18.101  27.445  18.089  0.00  0.00    +0.027 C 
ATOM     17  C2  UNL     1      16.693  27.032  18.497  0.00  0.00    +0.118 C 
ENDBRANCH   1  17
TORSDOF 1
ENDMDL
MODEL 5
REMARK VINA RESULT:    -3.631      1.356      4.995
REMARK INTER + INTRA:          -4.020
REMARK INTER:                  -3.875
REMARK INTRA:                  -0.144
REMARK UNBOUND:                -0.177
REMARK  Name = /home/vital/Documents/PhD_2021/Malaria_codes/data/pdb_ligands_mmv/ligand_383.pdb
REMARK  2 active torsions:
REMARK  status: ('A' for Active; 'I' for Inactive)
REMARK    1  A    between atoms: C1_1  and  C2_2
REMARK    2  A    between atoms: C2_2  and  N1_3
REMARK                            x       y       z     vdW  Elec       q    Type
REMARK                         _______ _______ _______ _____ _____    ______ ____
ROOT
ATOM      1  N1  UNL     1      15.330  28.799  15.705  0.00  0.00    -0.347 N 
ATOM      2  C3  UNL     1      15.331  29.505  16.907  0.00  0.00    +0.024 A 
ATOM      3  C4  UNL     1      15.057  28.976  18.104  0.00  0.00    -0.003 A 
ATOM      4  C5  UNL     1      15.112  29.957  19.216  0.00  0.00    +0.039 C 
ATOM      5  C6  UNL     1      15.806  31.146  18.555  0.00  0.00    +0.011 C 
ATOM      6  C7  UNL     1      15.616  30.972  17.046  0.00  0.00    +0.054 C 
ATOM      7  C8  UNL     1      14.739  27.544  18.211  0.00  0.00    +0.065 A 
ATOM      8  N2  UNL     1      14.449  26.969  19.335  0.00  0.00    -0.299 NA
ATOM      9  C9  UNL     1      14.758  26.769  16.926  0.00  0.00    -0.003 A 
ATOM     10  C10 UNL     1      15.021  27.412  15.759  0.00  0.00    +0.024 A 
ATOM     11  C11 UNL     1      14.969  26.625  14.455  0.00  0.00    +0.054 C 
ATOM     12  C12 UNL     1      14.350  25.229  14.558  0.00  0.00    +0.006 C 
ATOM     13  C13 UNL     1      14.848  24.505  15.795  0.00  0.00    +0.005 C 
ATOM     14  C14 UNL     1      14.484  25.293  17.048  0.00  0.00    +0.039 C 
ATOM     15  H12 UNL     1      14.474  27.639  20.106  0.00  0.00    +0.187 HD
ENDROOT
BRANCH   1  17
ATOM     16  C1  UNL     1      14.571  30.138  13.770  0.00  0.00    +0.027 C 
ATOM     17  C2  UNL     1      15.754  29.468  14.456  0.00  0.00    +0.118 C 
ENDBRANCH   1  17
TORSDOF 1
ENDMDL
MODEL 6
REMARK VINA RESULT:    -3.590      1.306      3.450
REMARK INTER + INTRA:          -3.977
REMARK INTER:                  -3.811
REMARK INTRA:                  -0.166
REMARK UNBOUND:                -0.177
REMARK  Name = /home/vital/Documents/PhD_2021/Malaria_codes/data/pdb_ligands_mmv/ligand_383.pdb
REMARK  2 active torsions:
REMARK  status: ('A' for Active; 'I' for Inactive)
REMARK    1  A    between atoms: C1_1  and  C2_2
REMARK    2  A    between atoms: C2_2  and  N1_3
REMARK                            x       y       z     vdW  Elec       q    Type
REMARK                         _______ _______ _______ _____ _____    ______ ____
ROOT
ATOM      1  N1  UNL     1      15.404  28.863  15.404  0.00  0.00    -0.347 N 
ATOM      2  C3  UNL     1      14.809  27.602  15.389  0.00  0.00    +0.024 A 
ATOM      3  C4  UNL     1      14.285  26.992  16.456  0.00  0.00    -0.003 A 
ATOM      4  C5  UNL     1      13.731  25.647  16.162  0.00  0.00    +0.039 C 
ATOM      5  C6  UNL     1      13.691  25.647  14.636  0.00  0.00    +0.011 C 
ATOM      6  C7  UNL     1      14.681  26.722  14.180  0.00  0.00    +0.054 C 
ATOM      7  C8  UNL     1      14.303  27.668  17.763  0.00  0.00    +0.065 A 
ATOM      8  N2  UNL     1      13.829  27.130  18.842  0.00  0.00    -0.299 NA
ATOM      9  C9  UNL     1      14.921  29.036  17.786  0.00  0.00    -0.003 A 
ATOM     10  C10 UNL     1      15.451  29.551  16.647  0.00  0.00    +0.024 A 
ATOM     11  C11 UNL     1      16.136  30.912  16.702  0.00  0.00    +0.054 C 
ATOM     12  C12 UNL     1      16.406  31.451  18.108  0.00  0.00    +0.006 C 
ATOM     13  C13 UNL     1      15.207  31.233  19.012  0.00  0.00    +0.005 C 
ATOM     14  C14 UNL     1      14.889  29.745  19.114  0.00  0.00    +0.039 C 
ATOM     15  H12 UNL     1      13.453  26.198  18.651  0.00  0.00    +0.187 HD
ENDROOT
BRANCH   1  17
ATOM     16  C1  UNL     1      14.748  30.336  13.529  0.00  0.00    +0.027 C 
ATOM     17  C2  UNL     1      15.852  29.482  14.138  0.00  0.00    +0.118 C 
ENDBRANCH   1  17
TORSDOF 1
ENDMDL
MODEL 7
REMARK VINA RESULT:    -3.568      1.699      3.844
REMARK INTER + INTRA:          -3.953
REMARK INTER:                  -3.810
REMARK INTRA:                  -0.143
REMARK UNBOUND:                -0.177
REMARK  Name = /home/vital/Documents/PhD_2021/Malaria_codes/data/pdb_ligands_mmv/ligand_383.pdb
REMARK  2 active torsions:
REMARK  status: ('A' for Active; 'I' for Inactive)
REMARK    1  A    between atoms: C1_1  and  C2_2
REMARK    2  A    between atoms: C2_2  and  N1_3
REMARK                            x       y       z     vdW  Elec       q    Type
REMARK                         _______ _______ _______ _____ _____    ______ ____
ROOT
ATOM      1  N1  UNL     1      15.333  29.486  15.908  0.00  0.00    -0.347 N 
ATOM      2  C3  UNL     1      15.565  29.637  14.541  0.00  0.00    +0.024 A 
ATOM      3  C4  UNL     1      15.456  28.661  13.635  0.00  0.00    -0.003 A 
ATOM      4  C5  UNL     1      15.778  29.092  12.252  0.00  0.00    +0.039 C 
ATOM      5  C6  UNL     1      15.783  30.613  12.388  0.00  0.00    +0.011 C 
ATOM      6  C7  UNL     1      15.994  30.912  13.875  0.00  0.00    +0.054 C 
ATOM      7  C8  UNL     1      15.052  27.313  14.063  0.00  0.00    +0.065 A 
ATOM      8  N2  UNL     1      14.942  26.316  13.243  0.00  0.00    -0.299 NA
ATOM      9  C9  UNL     1      14.777  27.144  15.529  0.00  0.00    -0.003 A 
ATOM     10  C10 UNL     1      14.947  28.198  16.368  0.00  0.00    +0.024 A 
ATOM     11  C11 UNL     1      14.730  27.992  17.863  0.00  0.00    +0.054 C 
ATOM     12  C12 UNL     1      14.608  26.534  18.312  0.00  0.00    +0.006 C 
ATOM     13  C13 UNL     1      13.726  25.747  17.361  0.00  0.00    +0.005 C 
ATOM     14  C14 UNL     1      14.312  25.776  15.953  0.00  0.00    +0.039 C 
ATOM     15  H12 UNL     1      15.171  26.602  12.288  0.00  0.00    +0.187 HD
ENDROOT
BRANCH   1  17
ATOM     16  C1  UNL     1      16.776  30.852  17.381  0.00  0.00    +0.027 C 
ATOM     17  C2  UNL     1      15.380  30.665  16.799  0.00  0.00    +0.118 C 
ENDBRANCH   1  17
TORSDOF 1
ENDMDL
MODEL 8
REMARK VINA RESULT:    -3.461      1.435      2.734
REMARK INTER + INTRA:          -3.840
REMARK INTER:                  -3.694
REMARK INTRA:                  -0.146
REMARK UNBOUND:                -0.177
REMARK  Name = /home/vital/Documents/PhD_2021/Malaria_codes/data/pdb_ligands_mmv/ligand_383.pdb
REMARK  2 active torsions:
REMARK  status: ('A' for Active; 'I' for Inactive)
REMARK    1  A    between atoms: C1_1  and  C2_2
REMARK    2  A    between atoms: C2_2  and  N1_3
REMARK                            x       y       z     vdW  Elec       q    Type
REMARK                         _______ _______ _______ _____ _____    ______ ____
ROOT
ATOM      1  N1  UNL     1      15.120  27.685  17.190  0.00  0.00    -0.347 N 
ATOM      2  C3  UNL     1      14.942  26.718  16.202  0.00  0.00    +0.024 A 
ATOM      3  C4  UNL     1      15.034  26.943  14.887  0.00  0.00    -0.003 A 
ATOM      4  C5  UNL     1      14.782  25.739  14.057  0.00  0.00    +0.039 C 
ATOM      5  C6  UNL     1      14.845  24.620  15.094  0.00  0.00    +0.011 C 
ATOM      6  C7  UNL     1      14.598  25.279  16.454  0.00  0.00    +0.054 C 
ATOM      7  C8  UNL     1      15.358  28.293  14.401  0.00  0.00    +0.065 A 
ATOM      8  N2  UNL     1      15.447  28.586  13.142  0.00  0.00    -0.299 NA
ATOM      9  C9  UNL     1      15.574  29.337  15.457  0.00  0.00    -0.003 A 
ATOM     10  C10 UNL     1      15.427  29.007  16.766  0.00  0.00    +0.024 A 
ATOM     11  C11 UNL     1      15.582  30.094  17.823  0.00  0.00    +0.054 C 
ATOM     12  C12 UNL     1      15.619  31.527  17.286  0.00  0.00    +0.006 C 
ATOM     13  C13 UNL     1      16.494  31.621  16.050  0.00  0.00    +0.005 C 
ATOM     14  C14 UNL     1      15.958  30.705  14.955  0.00  0.00    +0.039 C 
ATOM     15  H12 UNL     1      15.265  27.764  12.562  0.00  0.00    +0.187 HD
ENDROOT
BRANCH   1  17
ATOM     16  C1  UNL     1      13.693  27.404  19.190  0.00  0.00    +0.027 C 
ATOM     17  C2  UNL     1      15.099  27.295  18.616  0.00  0.00    +0.118 C 
ENDBRANCH   1  17
TORSDOF 1
ENDMDL
