MODEL 1
REMARK VINA RESULT:    -3.756      0.000      0.000
REMARK INTER + INTRA:          -6.404
REMARK INTER:                  -4.634
REMARK INTRA:                  -1.770
REMARK UNBOUND:                -1.770
REMARK  Name = /home/vital/Documents/PhD_2021/Malaria_codes/data/pdb_ligands_mmv/ligand_149.pdb
REMARK  4 active torsions:
REMARK  status: ('A' for Active; 'I' for Inactive)
REMARK    1  A    between atoms: C1_2  and  C16_20
REMARK    2  A    between atoms: N1_3  and  C2_4
REMARK    3  A    between atoms: C2_4  and  C3_5
REMARK    4  A    between atoms: C9_11  and  C11_14
REMARK                            x       y       z     vdW  Elec       q    Type
REMARK                         _______ _______ _______ _____ _____    ______ ____
ROOT
ATOM      1  C3  UNL     1      15.785  30.725  18.364  0.00  0.00    +0.195 C 
ATOM      2  C4  UNL     1      16.056  32.120  17.786  0.00  0.00    +0.085 C 
ATOM      3  C5  UNL     1      15.644  31.887  16.382  0.00  0.00    -0.002 A 
ATOM      4  C6  UNL     1      15.492  32.809  15.363  0.00  0.00    +0.007 A 
ATOM      5  C7  UNL     1      15.161  32.335  14.094  0.00  0.00    +0.001 A 
ATOM      6  C8  UNL     1      15.005  30.956  13.863  0.00  0.00    +0.012 A 
ATOM      7  C9  UNL     1      15.171  30.011  14.895  0.00  0.00    +0.024 A 
ATOM      8  C10 UNL     1      15.482  30.526  16.151  0.00  0.00    +0.132 A 
ATOM      9  O2  UNL     1      15.697  29.764  17.275  0.00  0.00    -0.486 OA
ENDROOT
BRANCH   7  10
ATOM     10  C11 UNL     1      15.021  28.570  14.636  0.00  0.00    -0.012 A 
ATOM     11  C12 UNL     1      13.799  27.919  14.848  0.00  0.00    +0.028 A 
ATOM     12  C13 UNL     1      13.704  26.560  14.591  0.00  0.00    +0.111 A 
ATOM     13  N2  UNL     1      14.729  25.806  14.144  0.00  0.00    -0.263 NA
ATOM     14  C14 UNL     1      15.901  26.443  13.944  0.00  0.00    +0.111 A 
ATOM     15  C15 UNL     1      16.092  27.798  14.171  0.00  0.00    +0.028 A 
ENDBRANCH   7  10
BRANCH   1  16
ATOM     16  C2  UNL     1      16.839  30.241  19.365  0.00  0.00    +0.149 C 
BRANCH  16  19
ATOM     17  O1  UNL     1      15.657  28.086  20.749  0.00  0.00    -0.270 OA
ATOM     18  C1  UNL     1      16.564  27.843  19.958  0.00  0.00    +0.245 C 
ATOM     19  N1  UNL     1      17.154  28.831  19.203  0.00  0.00    -0.308 N 
ATOM     20  H1  UNL     1      17.899  28.603  18.561  0.00  0.00    +0.149 HD
BRANCH  18  21
ATOM     21  C16 UNL     1      17.088  26.486  19.750  0.00  0.00    +0.047 A 
ATOM     22  C17 UNL     1      18.184  25.954  20.416  0.00  0.00    +0.058 A 
ATOM     23  S1  UNL     1      18.562  24.357  19.938  0.00  0.00    -0.101 S 
ATOM     24  C18 UNL     1      17.260  24.323  18.851  0.00  0.00    -0.006 A 
ATOM     25  C19 UNL     1      16.959  23.112  18.022  0.00  0.00    +0.043 C 
ATOM     26  C20 UNL     1      16.007  23.473  16.875  0.00  0.00    +0.005 C 
ATOM     27  C21 UNL     1      14.842  24.339  17.367  0.00  0.00    +0.005 C 
ATOM     28  C22 UNL     1      15.327  25.672  17.962  0.00  0.00    +0.037 C 
ATOM     29  C23 UNL     1      16.526  25.495  18.855  0.00  0.00    -0.025 A 
ENDBRANCH  18  21
ENDBRANCH  16  19
ENDBRANCH   1  16
TORSDOF 4
ENDMDL
MODEL 2
REMARK VINA RESULT:    -3.621      2.546      5.833
REMARK INTER + INTRA:          -6.238
REMARK INTER:                  -4.197
REMARK INTRA:                  -2.041
REMARK UNBOUND:                -1.770
REMARK  Name = /home/vital/Documents/PhD_2021/Malaria_codes/data/pdb_ligands_mmv/ligand_149.pdb
REMARK  4 active torsions:
REMARK  status: ('A' for Active; 'I' for Inactive)
REMARK    1  A    between atoms: C1_2  and  C16_20
REMARK    2  A    between atoms: N1_3  and  C2_4
REMARK    3  A    between atoms: C2_4  and  C3_5
REMARK    4  A    between atoms: C9_11  and  C11_14
REMARK                            x       y       z     vdW  Elec       q    Type
REMARK                         _______ _______ _______ _____ _____    ______ ____
ROOT
ATOM      1  C3  UNL     1      18.228  26.616  16.712  0.00  0.00    +0.195 C 
ATOM      2  C4  UNL     1      17.550  25.264  16.966  0.00  0.00    +0.085 C 
ATOM      3  C5  UNL     1      16.479  25.333  15.945  0.00  0.00    -0.002 A 
ATOM      4  C6  UNL     1      15.604  24.340  15.543  0.00  0.00    +0.007 A 
ATOM      5  C7  UNL     1      14.625  24.668  14.607  0.00  0.00    +0.001 A 
ATOM      6  C8  UNL     1      14.526  25.978  14.104  0.00  0.00    +0.012 A 
ATOM      7  C9  UNL     1      15.406  26.997  14.518  0.00  0.00    +0.024 A 
ATOM      8  C10 UNL     1      16.382  26.624  15.440  0.00  0.00    +0.132 A 
ATOM      9  O2  UNL     1      17.318  27.479  15.973  0.00  0.00    -0.486 OA
ENDROOT
BRANCH   7  10
ATOM     10  C11 UNL     1      15.281  28.367  13.996  0.00  0.00    -0.012 A 
ATOM     11  C12 UNL     1      16.058  28.804  12.915  0.00  0.00    +0.028 A 
ATOM     12  C13 UNL     1      15.907  30.104  12.457  0.00  0.00    +0.111 A 
ATOM     13  N2  UNL     1      15.048  30.995  12.993  0.00  0.00    -0.263 NA
ATOM     14  C14 UNL     1      14.306  30.563  14.032  0.00  0.00    +0.111 A 
ATOM     15  C15 UNL     1      14.385  29.283  14.560  0.00  0.00    +0.028 A 
ENDBRANCH   7  10
BRANCH   1  16
ATOM     16  C2  UNL     1      18.677  27.347  17.983  0.00  0.00    +0.149 C 
BRANCH  16  19
ATOM     17  O1  UNL     1      16.138  27.803  19.125  0.00  0.00    -0.270 OA
ATOM     18  C1  UNL     1      16.753  28.762  18.668  0.00  0.00    +0.245 C 
ATOM     19  N1  UNL     1      18.019  28.633  18.146  0.00  0.00    -0.308 N 
ATOM     20  H1  UNL     1      18.501  29.439  17.775  0.00  0.00    +0.149 HD
BRANCH  18  21
ATOM     21  C16 UNL     1      16.192  30.121  18.647  0.00  0.00    +0.047 A 
ATOM     22  C17 UNL     1      15.366  30.647  19.631  0.00  0.00    +0.058 A 
ATOM     23  S1  UNL     1      14.857  32.247  19.310  0.00  0.00    -0.101 S 
ATOM     24  C18 UNL     1      15.744  32.289  17.864  0.00  0.00    -0.006 A 
ATOM     25  C19 UNL     1      15.765  33.505  16.990  0.00  0.00    +0.043 C 
ATOM     26  C20 UNL     1      16.301  33.152  15.596  0.00  0.00    +0.005 C 
ATOM     27  C21 UNL     1      17.560  32.284  15.685  0.00  0.00    +0.005 C 
ATOM     28  C22 UNL     1      17.289  30.948  16.395  0.00  0.00    +0.037 C 
ATOM     29  C23 UNL     1      16.439  31.117  17.626  0.00  0.00    -0.025 A 
ENDBRANCH  18  21
ENDBRANCH  16  19
ENDBRANCH   1  16
TORSDOF 4
ENDMDL
MODEL 3
REMARK VINA RESULT:    -3.432      2.582      5.498
REMARK INTER + INTRA:          -6.005
REMARK INTER:                  -4.026
REMARK INTRA:                  -1.979
REMARK UNBOUND:                -1.770
REMARK  Name = /home/vital/Documents/PhD_2021/Malaria_codes/data/pdb_ligands_mmv/ligand_149.pdb
REMARK  4 active torsions:
REMARK  status: ('A' for Active; 'I' for Inactive)
REMARK    1  A    between atoms: C1_2  and  C16_20
REMARK    2  A    between atoms: N1_3  and  C2_4
REMARK    3  A    between atoms: C2_4  and  C3_5
REMARK    4  A    between atoms: C9_11  and  C11_14
REMARK                            x       y       z     vdW  Elec       q    Type
REMARK                         _______ _______ _______ _____ _____    ______ ____
ROOT
ATOM      1  C3  UNL     1      17.241  24.315  17.706  0.00  0.00    +0.195 C 
ATOM      2  C4  UNL     1      15.780  23.994  17.368  0.00  0.00    +0.085 C 
ATOM      3  C5  UNL     1      15.662  24.718  16.081  0.00  0.00    -0.002 A 
ATOM      4  C6  UNL     1      14.625  24.691  15.167  0.00  0.00    +0.007 A 
ATOM      5  C7  UNL     1      14.712  25.521  14.051  0.00  0.00    +0.001 A 
ATOM      6  C8  UNL     1      15.820  26.371  13.877  0.00  0.00    +0.012 A 
ATOM      7  C9  UNL     1      16.874  26.412  14.810  0.00  0.00    +0.024 A 
ATOM      8  C10 UNL     1      16.758  25.553  15.901  0.00  0.00    +0.132 A 
ATOM      9  O2  UNL     1      17.674  25.462  16.922  0.00  0.00    -0.486 OA
ENDROOT
BRANCH   7  10
ATOM     10  C11 UNL     1      18.019  27.318  14.624  0.00  0.00    -0.012 A 
ATOM     11  C12 UNL     1      17.992  28.330  13.656  0.00  0.00    +0.028 A 
ATOM     12  C13 UNL     1      19.094  29.159  13.515  0.00  0.00    +0.111 A 
ATOM     13  N2  UNL     1      20.213  29.055  14.260  0.00  0.00    -0.263 NA
ATOM     14  C14 UNL     1      20.228  28.077  15.188  0.00  0.00    +0.111 A 
ATOM     15  C15 UNL     1      19.175  27.200  15.403  0.00  0.00    +0.028 A 
ENDBRANCH   7  10
BRANCH   1  16
ATOM     16  C2  UNL     1      17.496  24.608  19.189  0.00  0.00    +0.149 C 
BRANCH  16  19
ATOM     17  O1  UNL     1      15.453  26.429  19.871  0.00  0.00    -0.270 OA
ATOM     18  C1  UNL     1      16.594  26.859  19.733  0.00  0.00    +0.245 C 
ATOM     19  N1  UNL     1      17.656  26.027  19.456  0.00  0.00    -0.308 N 
ATOM     20  H1  UNL     1      18.584  26.409  19.346  0.00  0.00    +0.149 HD
BRANCH  18  21
ATOM     21  C16 UNL     1      16.920  28.287  19.855  0.00  0.00    +0.047 A 
ATOM     22  C17 UNL     1      17.542  28.862  20.954  0.00  0.00    +0.058 A 
ATOM     23  S1  UNL     1      17.763  30.550  20.807  0.00  0.00    -0.101 S 
ATOM     24  C18 UNL     1      17.058  30.556  19.264  0.00  0.00    -0.006 A 
ATOM     25  C19 UNL     1      16.921  31.816  18.467  0.00  0.00    +0.043 C 
ATOM     26  C20 UNL     1      15.925  31.616  17.317  0.00  0.00    +0.005 C 
ATOM     27  C21 UNL     1      16.183  30.298  16.578  0.00  0.00    +0.005 C 
ATOM     28  C22 UNL     1      16.027  29.080  17.502  0.00  0.00    +0.037 C 
ATOM     29  C23 UNL     1      16.674  29.295  18.845  0.00  0.00    -0.025 A 
ENDBRANCH  18  21
ENDBRANCH  16  19
ENDBRANCH   1  16
TORSDOF 4
ENDMDL
MODEL 4
REMARK VINA RESULT:    -3.333      1.910      2.223
REMARK INTER + INTRA:          -5.882
REMARK INTER:                  -3.744
REMARK INTRA:                  -2.139
REMARK UNBOUND:                -1.770
REMARK  Name = /home/vital/Documents/PhD_2021/Malaria_codes/data/pdb_ligands_mmv/ligand_149.pdb
REMARK  4 active torsions:
REMARK  status: ('A' for Active; 'I' for Inactive)
REMARK    1  A    between atoms: C1_2  and  C16_20
REMARK    2  A    between atoms: N1_3  and  C2_4
REMARK    3  A    between atoms: C2_4  and  C3_5
REMARK    4  A    between atoms: C9_11  and  C11_14
REMARK                            x       y       z     vdW  Elec       q    Type
REMARK                         _______ _______ _______ _____ _____    ______ ____
ROOT
ATOM      1  C3  UNL     1      16.559  31.542  17.472  0.00  0.00    +0.195 C 
ATOM      2  C4  UNL     1      16.712  32.770  16.566  0.00  0.00    +0.085 C 
ATOM      3  C5  UNL     1      16.005  32.275  15.362  0.00  0.00    -0.002 A 
ATOM      4  C6  UNL     1      15.645  32.973  14.224  0.00  0.00    +0.007 A 
ATOM      5  C7  UNL     1      15.045  32.266  13.183  0.00  0.00    +0.001 A 
ATOM      6  C8  UNL     1      14.831  30.880  13.290  0.00  0.00    +0.012 A 
ATOM      7  C9  UNL     1      15.206  30.160  14.442  0.00  0.00    +0.024 A 
ATOM      8  C10 UNL     1      15.785  30.907  15.466  0.00  0.00    +0.132 A 
ATOM      9  O2  UNL     1      16.231  30.382  16.656  0.00  0.00    -0.486 OA
ENDROOT
BRANCH   7  10
ATOM     10  C11 UNL     1      14.991  28.708  14.533  0.00  0.00    -0.012 A 
ATOM     11  C12 UNL     1      13.851  28.182  15.153  0.00  0.00    +0.028 A 
ATOM     12  C13 UNL     1      13.691  26.806  15.217  0.00  0.00    +0.111 A 
ATOM     13  N2  UNL     1      14.576  25.922  14.714  0.00  0.00    -0.263 NA
ATOM     14  C14 UNL     1      15.670  26.440  14.119  0.00  0.00    +0.111 A 
ATOM     15  C15 UNL     1      15.917  27.800  14.006  0.00  0.00    +0.028 A 
ENDBRANCH   7  10
BRANCH   1  16
ATOM     16  C2  UNL     1      17.801  31.218  18.311  0.00  0.00    +0.149 C 
BRANCH  16  19
ATOM     17  O1  UNL     1      19.592  30.044  16.476  0.00  0.00    -0.270 OA
ATOM     18  C1  UNL     1      19.015  29.313  17.276  0.00  0.00    +0.245 C 
ATOM     19  N1  UNL     1      18.169  29.814  18.239  0.00  0.00    -0.308 N 
ATOM     20  H1  UNL     1      17.706  29.189  18.883  0.00  0.00    +0.149 HD
BRANCH  18  21
ATOM     21  C16 UNL     1      19.182  27.853  17.273  0.00  0.00    +0.047 A 
ATOM     22  C17 UNL     1      20.376  27.197  17.005  0.00  0.00    +0.058 A 
ATOM     23  S1  UNL     1      20.245  25.494  17.055  0.00  0.00    -0.101 S 
ATOM     24  C18 UNL     1      18.600  25.585  17.459  0.00  0.00    -0.006 A 
ATOM     25  C19 UNL     1      17.777  24.354  17.686  0.00  0.00    +0.043 C 
ATOM     26  C20 UNL     1      16.282  24.697  17.648  0.00  0.00    +0.005 C 
ATOM     27  C21 UNL     1      15.975  25.953  18.471  0.00  0.00    +0.005 C 
ATOM     28  C22 UNL     1      16.715  27.188  17.932  0.00  0.00    +0.037 C 
ATOM     29  C23 UNL     1      18.147  26.887  17.579  0.00  0.00    -0.025 A 
ENDBRANCH  18  21
ENDBRANCH  16  19
ENDBRANCH   1  16
TORSDOF 4
ENDMDL
MODEL 5
REMARK VINA RESULT:    -3.331      3.224      5.515
REMARK INTER + INTRA:          -5.880
REMARK INTER:                  -3.617
REMARK INTRA:                  -2.263
REMARK UNBOUND:                -1.770
REMARK  Name = /home/vital/Documents/PhD_2021/Malaria_codes/data/pdb_ligands_mmv/ligand_149.pdb
REMARK  4 active torsions:
REMARK  status: ('A' for Active; 'I' for Inactive)
REMARK    1  A    between atoms: C1_2  and  C16_20
REMARK    2  A    between atoms: N1_3  and  C2_4
REMARK    3  A    between atoms: C2_4  and  C3_5
REMARK    4  A    between atoms: C9_11  and  C11_14
REMARK                            x       y       z     vdW  Elec       q    Type
REMARK                         _______ _______ _______ _____ _____    ______ ____
ROOT
ATOM      1  C3  UNL     1      15.438  29.481  14.499  0.00  0.00    +0.195 C 
ATOM      2  C4  UNL     1      15.557  28.369  13.450  0.00  0.00    +0.085 C 
ATOM      3  C5  UNL     1      15.153  27.209  14.277  0.00  0.00    -0.002 A 
ATOM      4  C6  UNL     1      14.893  25.911  13.875  0.00  0.00    +0.007 A 
ATOM      5  C7  UNL     1      14.596  24.967  14.858  0.00  0.00    +0.001 A 
ATOM      6  C8  UNL     1      14.580  25.330  16.217  0.00  0.00    +0.012 A 
ATOM      7  C9  UNL     1      14.855  26.648  16.633  0.00  0.00    +0.024 A 
ATOM      8  C10 UNL     1      15.128  27.564  15.620  0.00  0.00    +0.132 A 
ATOM      9  O2  UNL     1      15.435  28.888  15.828  0.00  0.00    -0.486 OA
ENDROOT
BRANCH   7  10
ATOM     10  C11 UNL     1      14.850  27.010  18.059  0.00  0.00    -0.012 A 
ATOM     11  C12 UNL     1      16.005  26.886  18.842  0.00  0.00    +0.028 A 
ATOM     12  C13 UNL     1      15.954  27.239  20.182  0.00  0.00    +0.111 A 
ATOM     13  N2  UNL     1      14.845  27.700  20.796  0.00  0.00    -0.263 NA
ATOM     14  C14 UNL     1      13.740  27.815  20.033  0.00  0.00    +0.111 A 
ATOM     15  C15 UNL     1      13.693  27.489  18.685  0.00  0.00    +0.028 A 
ENDBRANCH   7  10
BRANCH   1  16
ATOM     16  C2  UNL     1      16.550  30.534  14.432  0.00  0.00    +0.149 C 
BRANCH  16  19
ATOM     17  O1  UNL     1      18.933  29.463  13.371  0.00  0.00    -0.270 OA
ATOM     18  C1  UNL     1      18.838  29.578  14.589  0.00  0.00    +0.245 C 
ATOM     19  N1  UNL     1      17.732  30.143  15.182  0.00  0.00    -0.308 N 
ATOM     20  H1  UNL     1      17.679  30.224  16.187  0.00  0.00    +0.149 HD
BRANCH  18  21
ATOM     21  C16 UNL     1      19.892  29.129  15.509  0.00  0.00    +0.047 A 
ATOM     22  C17 UNL     1      20.973  29.904  15.908  0.00  0.00    +0.058 A 
ATOM     23  S1  UNL     1      22.041  29.092  16.966  0.00  0.00    -0.101 S 
ATOM     24  C18 UNL     1      21.080  27.694  16.941  0.00  0.00    -0.006 A 
ATOM     25  C19 UNL     1      21.446  26.474  17.728  0.00  0.00    +0.043 C 
ATOM     26  C20 UNL     1      20.649  25.260  17.232  0.00  0.00    +0.005 C 
ATOM     27  C21 UNL     1      19.167  25.602  17.047  0.00  0.00    +0.005 C 
ATOM     28  C22 UNL     1      18.959  26.710  16.002  0.00  0.00    +0.037 C 
ATOM     29  C23 UNL     1      19.947  27.836  16.159  0.00  0.00    -0.025 A 
ENDBRANCH  18  21
ENDBRANCH  16  19
ENDBRANCH   1  16
TORSDOF 4
ENDMDL
MODEL 6
REMARK VINA RESULT:    -3.204      3.103      7.005
REMARK INTER + INTRA:          -5.723
REMARK INTER:                  -4.205
REMARK INTRA:                  -1.518
REMARK UNBOUND:                -1.770
REMARK  Name = /home/vital/Documents/PhD_2021/Malaria_codes/data/pdb_ligands_mmv/ligand_149.pdb
REMARK  4 active torsions:
REMARK  status: ('A' for Active; 'I' for Inactive)
REMARK    1  A    between atoms: C1_2  and  C16_20
REMARK    2  A    between atoms: N1_3  and  C2_4
REMARK    3  A    between atoms: C2_4  and  C3_5
REMARK    4  A    between atoms: C9_11  and  C11_14
REMARK                            x       y       z     vdW  Elec       q    Type
REMARK                         _______ _______ _______ _____ _____    ______ ____
ROOT
ATOM      1  C3  UNL     1      15.371  29.063  14.300  0.00  0.00    +0.195 C 
ATOM      2  C4  UNL     1      15.587  27.835  13.407  0.00  0.00    +0.085 C 
ATOM      3  C5  UNL     1      15.252  26.766  14.376  0.00  0.00    -0.002 A 
ATOM      4  C6  UNL     1      15.093  25.412  14.147  0.00  0.00    +0.007 A 
ATOM      5  C7  UNL     1      14.846  24.585  15.242  0.00  0.00    +0.001 A 
ATOM      6  C8  UNL     1      14.781  25.120  16.542  0.00  0.00    +0.012 A 
ATOM      7  C9  UNL     1      14.954  26.497  16.783  0.00  0.00    +0.024 A 
ATOM      8  C10 UNL     1      15.179  27.291  15.660  0.00  0.00    +0.132 A 
ATOM      9  O2  UNL     1      15.388  28.650  15.695  0.00  0.00    -0.486 OA
ENDROOT
BRANCH   7  10
ATOM     10  C11 UNL     1      14.899  27.041  18.149  0.00  0.00    -0.012 A 
ATOM     11  C12 UNL     1      16.057  27.162  18.929  0.00  0.00    +0.028 A 
ATOM     12  C13 UNL     1      15.957  27.679  20.211  0.00  0.00    +0.111 A 
ATOM     13  N2  UNL     1      14.798  28.081  20.771  0.00  0.00    -0.263 NA
ATOM     14  C14 UNL     1      13.690  27.960  20.012  0.00  0.00    +0.111 A 
ATOM     15  C15 UNL     1      13.690  27.456  18.720  0.00  0.00    +0.028 A 
ENDBRANCH   7  10
BRANCH   1  16
ATOM     16  C2  UNL     1      16.407  30.176  14.104  0.00  0.00    +0.149 C 
BRANCH  16  19
ATOM     17  O1  UNL     1      14.623  32.345  14.372  0.00  0.00    -0.270 OA
ATOM     18  C1  UNL     1      15.511  32.213  15.210  0.00  0.00    +0.245 C 
ATOM     19  N1  UNL     1      16.385  31.151  15.182  0.00  0.00    -0.308 N 
ATOM     20  H1  UNL     1      17.107  31.068  15.883  0.00  0.00    +0.149 HD
BRANCH  18  21
ATOM     21  C16 UNL     1      15.709  33.171  16.307  0.00  0.00    +0.047 A 
ATOM     22  C17 UNL     1      15.926  34.531  16.137  0.00  0.00    +0.058 A 
ATOM     23  S1  UNL     1      16.143  35.377  17.606  0.00  0.00    -0.101 S 
ATOM     24  C18 UNL     1      15.927  33.957  18.510  0.00  0.00    -0.006 A 
ATOM     25  C19 UNL     1      15.983  33.962  20.006  0.00  0.00    +0.043 C 
ATOM     26  C20 UNL     1      16.148  32.533  20.540  0.00  0.00    +0.005 C 
ATOM     27  C21 UNL     1      15.192  31.561  19.839  0.00  0.00    +0.005 C 
ATOM     28  C22 UNL     1      15.451  31.490  18.326  0.00  0.00    +0.037 C 
ATOM     29  C23 UNL     1      15.673  32.851  17.719  0.00  0.00    -0.025 A 
ENDBRANCH  18  21
ENDBRANCH  16  19
ENDBRANCH   1  16
TORSDOF 4
ENDMDL
MODEL 7
REMARK VINA RESULT:    -3.167      2.716      5.958
REMARK INTER + INTRA:          -5.678
REMARK INTER:                  -3.428
REMARK INTRA:                  -2.249
REMARK UNBOUND:                -1.770
REMARK  Name = /home/vital/Documents/PhD_2021/Malaria_codes/data/pdb_ligands_mmv/ligand_149.pdb
REMARK  4 active torsions:
REMARK  status: ('A' for Active; 'I' for Inactive)
REMARK    1  A    between atoms: C1_2  and  C16_20
REMARK    2  A    between atoms: N1_3  and  C2_4
REMARK    3  A    between atoms: C2_4  and  C3_5
REMARK    4  A    between atoms: C9_11  and  C11_14
REMARK                            x       y       z     vdW  Elec       q    Type
REMARK                         _______ _______ _______ _____ _____    ______ ____
ROOT
ATOM      1  C3  UNL     1      15.631  29.166  14.430  0.00  0.00    +0.195 C 
ATOM      2  C4  UNL     1      15.785  27.986  13.463  0.00  0.00    +0.085 C 
ATOM      3  C5  UNL     1      15.344  26.884  14.350  0.00  0.00    -0.002 A 
ATOM      4  C6  UNL     1      15.095  25.563  14.027  0.00  0.00    +0.007 A 
ATOM      5  C7  UNL     1      14.757  24.688  15.058  0.00  0.00    +0.001 A 
ATOM      6  C8  UNL     1      14.691  25.142  16.389  0.00  0.00    +0.012 A 
ATOM      7  C9  UNL     1      14.955  26.484  16.726  0.00  0.00    +0.024 A 
ATOM      8  C10 UNL     1      15.270  27.329  15.664  0.00  0.00    +0.132 A 
ATOM      9  O2  UNL     1      15.575  28.664  15.795  0.00  0.00    -0.486 OA
ENDROOT
BRANCH   7  10
ATOM     10  C11 UNL     1      14.898  26.941  18.123  0.00  0.00    -0.012 A 
ATOM     11  C12 UNL     1      16.049  26.985  18.919  0.00  0.00    +0.028 A 
ATOM     12  C13 UNL     1      15.948  27.423  20.230  0.00  0.00    +0.111 A 
ATOM     13  N2  UNL     1      14.792  27.815  20.805  0.00  0.00    -0.263 NA
ATOM     14  C14 UNL     1      13.690  27.768  20.029  0.00  0.00    +0.111 A 
ATOM     15  C15 UNL     1      13.692  27.347  18.708  0.00  0.00    +0.028 A 
ENDBRANCH   7  10
BRANCH   1  16
ATOM     16  C2  UNL     1      16.749  30.211  14.335  0.00  0.00    +0.149 C 
BRANCH  16  19
ATOM     17  O1  UNL     1      18.674  29.057  16.042  0.00  0.00    -0.270 OA
ATOM     18  C1  UNL     1      18.071  30.052  16.433  0.00  0.00    +0.245 C 
ATOM     19  N1  UNL     1      17.158  30.707  15.638  0.00  0.00    -0.308 N 
ATOM     20  H1  UNL     1      16.675  31.523  15.986  0.00  0.00    +0.149 HD
BRANCH  18  21
ATOM     21  C16 UNL     1      18.277  30.625  17.770  0.00  0.00    +0.047 A 
ATOM     22  C17 UNL     1      19.518  30.926  18.316  0.00  0.00    +0.058 A 
ATOM     23  S1  UNL     1      19.429  31.560  19.901  0.00  0.00    -0.101 S 
ATOM     24  C18 UNL     1      17.735  31.474  19.892  0.00  0.00    -0.006 A 
ATOM     25  C19 UNL     1      16.920  31.920  21.067  0.00  0.00    +0.043 C 
ATOM     26  C20 UNL     1      15.486  31.383  20.956  0.00  0.00    +0.005 C 
ATOM     27  C21 UNL     1      14.921  31.584  19.546  0.00  0.00    +0.005 C 
ATOM     28  C22 UNL     1      15.745  30.837  18.484  0.00  0.00    +0.037 C 
ATOM     29  C23 UNL     1      17.228  30.992  18.699  0.00  0.00    -0.025 A 
ENDBRANCH  18  21
ENDBRANCH  16  19
ENDBRANCH   1  16
TORSDOF 4
ENDMDL
MODEL 8
REMARK VINA RESULT:    -3.110      3.873      6.357
REMARK INTER + INTRA:          -5.607
REMARK INTER:                  -3.431
REMARK INTRA:                  -2.176
REMARK UNBOUND:                -1.770
REMARK  Name = /home/vital/Documents/PhD_2021/Malaria_codes/data/pdb_ligands_mmv/ligand_149.pdb
REMARK  4 active torsions:
REMARK  status: ('A' for Active; 'I' for Inactive)
REMARK    1  A    between atoms: C1_2  and  C16_20
REMARK    2  A    between atoms: N1_3  and  C2_4
REMARK    3  A    between atoms: C2_4  and  C3_5
REMARK    4  A    between atoms: C9_11  and  C11_14
REMARK                            x       y       z     vdW  Elec       q    Type
REMARK                         _______ _______ _______ _____ _____    ______ ____
ROOT
ATOM      1  C3  UNL     1      16.894  28.421  14.446  0.00  0.00    +0.195 C 
ATOM      2  C4  UNL     1      15.992  27.703  13.434  0.00  0.00    +0.085 C 
ATOM      3  C5  UNL     1      15.699  26.471  14.201  0.00  0.00    -0.002 A 
ATOM      4  C6  UNL     1      14.794  25.466  13.909  0.00  0.00    +0.007 A 
ATOM      5  C7  UNL     1      14.748  24.358  14.753  0.00  0.00    +0.001 A 
ATOM      6  C8  UNL     1      15.613  24.266  15.860  0.00  0.00    +0.012 A 
ATOM      7  C9  UNL     1      16.544  25.280  16.157  0.00  0.00    +0.024 A 
ATOM      8  C10 UNL     1      16.545  26.378  15.300  0.00  0.00    +0.132 A 
ATOM      9  O2  UNL     1      17.390  27.457  15.416  0.00  0.00    -0.486 OA
ENDROOT
BRANCH   7  10
ATOM     10  C11 UNL     1      17.453  25.163  17.308  0.00  0.00    -0.012 A 
ATOM     11  C12 UNL     1      17.192  25.835  18.509  0.00  0.00    +0.028 A 
ATOM     12  C13 UNL     1      18.077  25.696  19.567  0.00  0.00    +0.111 A 
ATOM     13  N2  UNL     1      19.195  24.944  19.518  0.00  0.00    -0.263 NA
ATOM     14  C14 UNL     1      19.436  24.301  18.357  0.00  0.00    +0.111 A 
ATOM     15  C15 UNL     1      18.610  24.378  17.245  0.00  0.00    +0.028 A 
ENDBRANCH   7  10
BRANCH   1  16
ATOM     16  C2  UNL     1      18.090  29.149  13.820  0.00  0.00    +0.149 C 
BRANCH  16  19
ATOM     17  O1  UNL     1      19.551  26.850  13.086  0.00  0.00    -0.270 OA
ATOM     18  C1  UNL     1      19.982  27.548  13.999  0.00  0.00    +0.245 C 
ATOM     19  N1  UNL     1      19.359  28.715  14.379  0.00  0.00    -0.308 N 
ATOM     20  H1  UNL     1      19.735  29.269  15.135  0.00  0.00    +0.149 HD
BRANCH  18  21
ATOM     21  C16 UNL     1      21.195  27.200  14.753  0.00  0.00    +0.047 A 
ATOM     22  C17 UNL     1      22.354  26.687  14.188  0.00  0.00    +0.058 A 
ATOM     23  S1  UNL     1      23.583  26.361  15.330  0.00  0.00    -0.101 S 
ATOM     24  C18 UNL     1      22.612  26.917  16.605  0.00  0.00    -0.006 A 
ATOM     25  C19 UNL     1      23.103  26.929  18.019  0.00  0.00    +0.043 C 
ATOM     26  C20 UNL     1      21.928  27.099  18.992  0.00  0.00    +0.005 C 
ATOM     27  C21 UNL     1      20.977  28.209  18.530  0.00  0.00    +0.005 C 
ATOM     28  C22 UNL     1      20.360  27.903  17.156  0.00  0.00    +0.037 C 
ATOM     29  C23 UNL     1      21.375  27.367  16.181  0.00  0.00    -0.025 A 
ENDBRANCH  18  21
ENDBRANCH  16  19
ENDBRANCH   1  16
TORSDOF 4
ENDMDL
MODEL 9
REMARK VINA RESULT:    -3.105      3.055      4.160
REMARK INTER + INTRA:          -5.601
REMARK INTER:                  -3.372
REMARK INTRA:                  -2.230
REMARK UNBOUND:                -1.770
REMARK  Name = /home/vital/Documents/PhD_2021/Malaria_codes/data/pdb_ligands_mmv/ligand_149.pdb
REMARK  4 active torsions:
REMARK  status: ('A' for Active; 'I' for Inactive)
REMARK    1  A    between atoms: C1_2  and  C16_20
REMARK    2  A    between atoms: N1_3  and  C2_4
REMARK    3  A    between atoms: C2_4  and  C3_5
REMARK    4  A    between atoms: C9_11  and  C11_14
REMARK                            x       y       z     vdW  Elec       q    Type
REMARK                         _______ _______ _______ _____ _____    ______ ____
ROOT
ATOM      1  C3  UNL     1      16.606  30.222  18.328  0.00  0.00    +0.195 C 
ATOM      2  C4  UNL     1      16.755  31.557  17.587  0.00  0.00    +0.085 C 
ATOM      3  C5  UNL     1      16.005  31.235  16.351  0.00  0.00    -0.002 A 
ATOM      4  C6  UNL     1      15.625  32.082  15.326  0.00  0.00    +0.007 A 
ATOM      5  C7  UNL     1      14.983  31.527  14.220  0.00  0.00    +0.001 A 
ATOM      6  C8  UNL     1      14.748  30.142  14.150  0.00  0.00    +0.012 A 
ATOM      7  C9  UNL     1      15.142  29.272  15.185  0.00  0.00    +0.024 A 
ATOM      8  C10 UNL     1      15.763  29.868  16.280  0.00  0.00    +0.132 A 
ATOM      9  O2  UNL     1      16.233  29.185  17.378  0.00  0.00    -0.486 OA
ENDROOT
BRANCH   7  10
ATOM     10  C11 UNL     1      14.904  27.823  15.092  0.00  0.00    -0.012 A 
ATOM     11  C12 UNL     1      15.699  27.009  14.275  0.00  0.00    +0.028 A 
ATOM     12  C13 UNL     1      15.438  25.649  14.217  0.00  0.00    +0.111 A 
ATOM     13  N2  UNL     1      14.449  25.044  14.906  0.00  0.00    -0.263 NA
ATOM     14  C14 UNL     1      13.690  25.837  15.689  0.00  0.00    +0.111 A 
ATOM     15  C15 UNL     1      13.875  27.206  15.812  0.00  0.00    +0.028 A 
ENDBRANCH   7  10
BRANCH   1  16
ATOM     16  C2  UNL     1      17.865  29.773  19.079  0.00  0.00    +0.149 C 
BRANCH  16  19
ATOM     17  O1  UNL     1      20.164  30.863  17.862  0.00  0.00    -0.270 OA
ATOM     18  C1  UNL     1      19.876  29.694  17.622  0.00  0.00    +0.245 C 
ATOM     19  N1  UNL     1      18.804  29.072  18.220  0.00  0.00    -0.308 N 
ATOM     20  H1  UNL     1      18.589  28.109  18.003  0.00  0.00    +0.149 HD
BRANCH  18  21
ATOM     21  C16 UNL     1      20.651  28.866  16.687  0.00  0.00    +0.047 A 
ATOM     22  C17 UNL     1      21.816  28.186  17.017  0.00  0.00    +0.058 A 
ATOM     23  S1  UNL     1      22.499  27.329  15.705  0.00  0.00    -0.101 S 
ATOM     24  C18 UNL     1      21.248  27.820  14.671  0.00  0.00    -0.006 A 
ATOM     25  C19 UNL     1      21.198  27.390  13.237  0.00  0.00    +0.043 C 
ATOM     26  C20 UNL     1      20.216  28.267  12.449  0.00  0.00    +0.005 C 
ATOM     27  C21 UNL     1      18.899  28.454  13.210  0.00  0.00    +0.005 C 
ATOM     28  C22 UNL     1      19.111  29.152  14.564  0.00  0.00    +0.037 C 
ATOM     29  C23 UNL     1      20.305  28.609  15.305  0.00  0.00    -0.025 A 
ENDBRANCH  18  21
ENDBRANCH  16  19
ENDBRANCH   1  16
TORSDOF 4
ENDMDL
