MODEL 1
REMARK VINA RESULT:    -3.334      0.000      0.000
REMARK INTER + INTRA:          -5.400
REMARK INTER:                  -4.406
REMARK INTRA:                  -0.994
REMARK UNBOUND:                -0.994
REMARK  Name = /home/vital/Documents/PhD_2021/Malaria_codes/data/pdb_ligands_mmv/ligand_242.pdb
REMARK  7 active torsions:
REMARK  status: ('A' for Active; 'I' for Inactive)
REMARK    1  A    between atoms: C1_1  and  O1_2
REMARK    2  A    between atoms: O1_2  and  C2_3
REMARK    3  A    between atoms: C5_6  and  C6_7
REMARK    4  A    between atoms: C6_7  and  N1_8
REMARK    5  A    between atoms: N2_11  and  C9_12
REMARK    6  A    between atoms: C9_12  and  C10_13
REMARK    7  A    between atoms: C18_21  and  O2_22
REMARK                            x       y       z     vdW  Elec       q    Type
REMARK                         _______ _______ _______ _____ _____    ______ ____
ROOT
ATOM      1  N1  UNL     1      16.174  29.381  14.059  0.00  0.00    -0.296 NA
ATOM      2  C7  UNL     1      17.290  30.229  13.608  0.00  0.00    +0.100 C 
ATOM      3  C8  UNL     1      17.346  31.592  14.353  0.00  0.00    +0.100 C 
ATOM      4  N2  UNL     1      16.063  32.012  14.930  0.00  0.00    -0.296 NA
ATOM      5  C16 UNL     1      14.940  31.625  14.079  0.00  0.00    +0.100 C 
ATOM      6  C17 UNL     1      14.890  30.091  13.828  0.00  0.00    +0.100 C 
ENDROOT
BRANCH   1   7
ATOM      7  C6  UNL     1      16.197  28.067  13.392  0.00  0.00    +0.123 C 
BRANCH   7  11
ATOM      8  C2  UNL     1      15.090  24.692  15.888  0.00  0.00    +0.124 A 
ATOM      9  C3  UNL     1      14.698  24.751  14.550  0.00  0.00    +0.046 A 
ATOM     10  C4  UNL     1      15.044  25.855  13.760  0.00  0.00    +0.012 A 
ATOM     11  C5  UNL     1      15.776  26.925  14.296  0.00  0.00    +0.008 A 
ATOM     12  C18 UNL     1      16.161  26.846  15.641  0.00  0.00    +0.125 A 
ATOM     13  C19 UNL     1      15.827  25.746  16.428  0.00  0.00    +0.091 A 
BRANCH   8  15
ATOM     14  C1  UNL     1      15.893  23.223  17.577  0.00  0.00    +0.277 C 
ATOM     15  O1  UNL     1      14.821  23.673  16.761  0.00  0.00    -0.495 OA
ENDBRANCH   8  15
BRANCH  12  16
ATOM     16  O2  UNL     1      16.867  27.850  16.245  0.00  0.00    -0.506 OA
ATOM     17  H23 UNL     1      16.254  28.281  16.883  0.00  0.00    +0.292 HD
ENDBRANCH  12  16
ENDBRANCH   7  11
ENDBRANCH   1   7
BRANCH   4  18
ATOM     18  C9  UNL     1      16.034  33.389  15.421  0.00  0.00    +0.119 C 
BRANCH  18  19
ATOM     19  C10 UNL     1      15.390  33.619  16.773  0.00  0.00    -0.033 A 
ATOM     20  C11 UNL     1      14.617  34.766  17.012  0.00  0.00    +0.005 A 
ATOM     21  C12 UNL     1      14.027  34.979  18.259  0.00  0.00    +0.000 A 
ATOM     22  C13 UNL     1      14.205  34.052  19.284  0.00  0.00    +0.000 A 
ATOM     23  C14 UNL     1      14.976  32.914  19.065  0.00  0.00    +0.000 A 
ATOM     24  C15 UNL     1      15.567  32.699  17.818  0.00  0.00    +0.005 A 
ENDBRANCH  18  19
ENDBRANCH   4  18
TORSDOF 6
ENDMDL
MODEL 2
REMARK VINA RESULT:    -3.317     18.850     21.627
REMARK INTER + INTRA:          -5.378
REMARK INTER:                  -4.445
REMARK INTRA:                  -0.933
REMARK UNBOUND:                -0.994
REMARK  Name = /home/vital/Documents/PhD_2021/Malaria_codes/data/pdb_ligands_mmv/ligand_242.pdb
REMARK  7 active torsions:
REMARK  status: ('A' for Active; 'I' for Inactive)
REMARK    1  A    between atoms: C1_1  and  O1_2
REMARK    2  A    between atoms: O1_2  and  C2_3
REMARK    3  A    between atoms: C5_6  and  C6_7
REMARK    4  A    between atoms: C6_7  and  N1_8
REMARK    5  A    between atoms: N2_11  and  C9_12
REMARK    6  A    between atoms: C9_12  and  C10_13
REMARK    7  A    between atoms: C18_21  and  O2_22
REMARK                            x       y       z     vdW  Elec       q    Type
REMARK                         _______ _______ _______ _____ _____    ______ ____
ROOT
ATOM      1  N1  UNL     1      27.898  45.541  18.159  0.00  0.00    -0.296 NA
ATOM      2  C7  UNL     1      28.568  46.710  18.753  0.00  0.00    +0.100 C 
ATOM      3  C8  UNL     1      29.834  47.142  17.961  0.00  0.00    +0.100 C 
ATOM      4  N2  UNL     1      30.426  46.072  17.150  0.00  0.00    -0.296 NA
ATOM      5  C16 UNL     1      30.317  44.773  17.813  0.00  0.00    +0.100 C 
ATOM      6  C17 UNL     1      28.842  44.395  18.129  0.00  0.00    +0.100 C 
ENDROOT
BRANCH   1   7
ATOM      7  C6  UNL     1      26.660  45.208  18.886  0.00  0.00    +0.123 C 
BRANCH   7  11
ATOM      8  C2  UNL     1      23.095  46.835  17.018  0.00  0.00    +0.124 A 
ATOM      9  C3  UNL     1      23.154  46.642  18.399  0.00  0.00    +0.046 A 
ATOM     10  C4  UNL     1      24.303  46.097  18.988  0.00  0.00    +0.012 A 
ATOM     11  C5  UNL     1      25.407  45.723  18.207  0.00  0.00    +0.008 A 
ATOM     12  C18 UNL     1      25.327  45.927  16.823  0.00  0.00    +0.125 A 
ATOM     13  C19 UNL     1      24.191  46.476  16.234  0.00  0.00    +0.091 A 
BRANCH   8  15
ATOM     14  C1  UNL     1      21.518  46.580  15.257  0.00  0.00    +0.277 C 
ATOM     15  O1  UNL     1      22.038  47.359  16.324  0.00  0.00    -0.495 OA
ENDBRANCH   8  15
BRANCH  12  16
ATOM     16  O2  UNL     1      26.354  45.580  15.987  0.00  0.00    -0.506 OA
ATOM     17  H23 UNL     1      26.238  44.625  15.780  0.00  0.00    +0.292 HD
ENDBRANCH  12  16
ENDBRANCH   7  11
ENDBRANCH   1   7
BRANCH   4  18
ATOM     18  C9  UNL     1      31.742  46.382  16.591  0.00  0.00    +0.119 C 
BRANCH  18  19
ATOM     19  C10 UNL     1      32.205  45.539  15.421  0.00  0.00    -0.033 A 
ATOM     20  C11 UNL     1      33.440  44.874  15.462  0.00  0.00    +0.005 A 
ATOM     21  C12 UNL     1      33.868  44.100  14.383  0.00  0.00    +0.000 A 
ATOM     22  C13 UNL     1      33.069  43.984  13.246  0.00  0.00    +0.000 A 
ATOM     23  C14 UNL     1      31.845  44.645  13.187  0.00  0.00    +0.000 A 
ATOM     24  C15 UNL     1      31.416  45.419  14.266  0.00  0.00    +0.005 A 
ENDBRANCH  18  19
ENDBRANCH   4  18
TORSDOF 6
ENDMDL
MODEL 3
REMARK VINA RESULT:    -3.132     19.041     21.577
REMARK INTER + INTRA:          -5.133
REMARK INTER:                  -4.223
REMARK INTRA:                  -0.910
REMARK UNBOUND:                -0.994
REMARK  Name = /home/vital/Documents/PhD_2021/Malaria_codes/data/pdb_ligands_mmv/ligand_242.pdb
REMARK  7 active torsions:
REMARK  status: ('A' for Active; 'I' for Inactive)
REMARK    1  A    between atoms: C1_1  and  O1_2
REMARK    2  A    between atoms: O1_2  and  C2_3
REMARK    3  A    between atoms: C5_6  and  C6_7
REMARK    4  A    between atoms: C6_7  and  N1_8
REMARK    5  A    between atoms: N2_11  and  C9_12
REMARK    6  A    between atoms: C9_12  and  C10_13
REMARK    7  A    between atoms: C18_21  and  O2_22
REMARK                            x       y       z     vdW  Elec       q    Type
REMARK                         _______ _______ _______ _____ _____    ______ ____
ROOT
ATOM      1  N1  UNL     1      27.709  45.415  17.866  0.00  0.00    -0.296 NA
ATOM      2  C7  UNL     1      28.409  46.652  18.252  0.00  0.00    +0.100 C 
ATOM      3  C8  UNL     1      29.953  46.532  18.121  0.00  0.00    +0.100 C 
ATOM      4  N2  UNL     1      30.453  45.153  18.172  0.00  0.00    -0.296 NA
ATOM      5  C16 UNL     1      29.676  44.334  19.100  0.00  0.00    +0.100 C 
ATOM      6  C17 UNL     1      28.165  44.299  18.733  0.00  0.00    +0.100 C 
ENDROOT
BRANCH   1   7
ATOM      7  C6  UNL     1      26.247  45.588  17.924  0.00  0.00    +0.123 C 
BRANCH   7  11
ATOM      8  C2  UNL     1      24.530  46.604  14.069  0.00  0.00    +0.124 A 
ATOM      9  C3  UNL     1      24.123  47.264  15.229  0.00  0.00    +0.046 A 
ATOM     10  C4  UNL     1      24.670  46.913  16.471  0.00  0.00    +0.012 A 
ATOM     11  C5  UNL     1      25.622  45.888  16.576  0.00  0.00    +0.008 A 
ATOM     12  C18 UNL     1      26.018  45.239  15.400  0.00  0.00    +0.125 A 
ATOM     13  C19 UNL     1      25.484  45.590  14.162  0.00  0.00    +0.091 A 
BRANCH   8  15
ATOM     14  C1  UNL     1      23.043  46.014  12.309  0.00  0.00    +0.277 C 
ATOM     15  O1  UNL     1      24.079  46.853  12.802  0.00  0.00    -0.495 OA
ENDBRANCH   8  15
BRANCH  12  16
ATOM     16  O2  UNL     1      26.933  44.222  15.415  0.00  0.00    -0.506 OA
ATOM     17  H23 UNL     1      26.972  43.893  16.342  0.00  0.00    +0.292 HD
ENDBRANCH  12  16
ENDBRANCH   7  11
ENDBRANCH   1   7
BRANCH   4  18
ATOM     18  C9  UNL     1      31.906  45.032  18.292  0.00  0.00    +0.119 C 
BRANCH  18  19
ATOM     19  C10 UNL     1      32.652  44.518  17.078  0.00  0.00    -0.033 A 
ATOM     20  C11 UNL     1      33.177  43.216  17.058  0.00  0.00    +0.005 A 
ATOM     21  C12 UNL     1      33.868  42.745  15.941  0.00  0.00    +0.000 A 
ATOM     22  C13 UNL     1      34.047  43.568  14.831  0.00  0.00    +0.000 A 
ATOM     23  C14 UNL     1      33.540  44.865  14.839  0.00  0.00    +0.000 A 
ATOM     24  C15 UNL     1      32.848  45.338  15.956  0.00  0.00    +0.005 A 
ENDBRANCH  18  19
ENDBRANCH   4  18
TORSDOF 6
ENDMDL
MODEL 4
REMARK VINA RESULT:    -3.050      2.002      7.514
REMARK INTER + INTRA:          -5.025
REMARK INTER:                  -4.052
REMARK INTRA:                  -0.972
REMARK UNBOUND:                -0.994
REMARK  Name = /home/vital/Documents/PhD_2021/Malaria_codes/data/pdb_ligands_mmv/ligand_242.pdb
REMARK  7 active torsions:
REMARK  status: ('A' for Active; 'I' for Inactive)
REMARK    1  A    between atoms: C1_1  and  O1_2
REMARK    2  A    between atoms: O1_2  and  C2_3
REMARK    3  A    between atoms: C5_6  and  C6_7
REMARK    4  A    between atoms: C6_7  and  N1_8
REMARK    5  A    between atoms: N2_11  and  C9_12
REMARK    6  A    between atoms: C9_12  and  C10_13
REMARK    7  A    between atoms: C18_21  and  O2_22
REMARK                            x       y       z     vdW  Elec       q    Type
REMARK                         _______ _______ _______ _____ _____    ______ ____
ROOT
ATOM      1  N1  UNL     1      16.101  32.029  14.981  0.00  0.00    -0.296 NA
ATOM      2  C7  UNL     1      14.949  31.821  14.089  0.00  0.00    +0.100 C 
ATOM      3  C8  UNL     1      14.820  30.347  13.610  0.00  0.00    +0.100 C 
ATOM      4  N2  UNL     1      16.076  29.590  13.661  0.00  0.00    -0.296 NA
ATOM      5  C16 UNL     1      17.224  30.430  13.325  0.00  0.00    +0.100 C 
ATOM      6  C17 UNL     1      17.350  31.660  14.267  0.00  0.00    +0.100 C 
ENDROOT
BRANCH   1   7
ATOM      7  C6  UNL     1      16.147  33.415  15.481  0.00  0.00    +0.123 C 
BRANCH   7  11
ATOM      8  C2  UNL     1      14.256  33.863  19.363  0.00  0.00    +0.124 A 
ATOM      9  C3  UNL     1      14.090  34.830  18.370  0.00  0.00    +0.046 A 
ATOM     10  C4  UNL     1      14.722  34.685  17.128  0.00  0.00    +0.012 A 
ATOM     11  C5  UNL     1      15.541  33.577  16.861  0.00  0.00    +0.008 A 
ATOM     12  C18 UNL     1      15.694  32.618  17.869  0.00  0.00    +0.125 A 
ATOM     13  C19 UNL     1      15.061  32.754  19.103  0.00  0.00    +0.091 A 
BRANCH   8  15
ATOM     14  C1  UNL     1      14.577  33.786  21.717  0.00  0.00    +0.277 C 
ATOM     15  O1  UNL     1      13.693  33.886  20.609  0.00  0.00    -0.495 OA
ENDBRANCH   8  15
BRANCH  12  16
ATOM     16  O2  UNL     1      16.483  31.513  17.696  0.00  0.00    -0.506 OA
ATOM     17  H23 UNL     1      17.276  31.811  17.195  0.00  0.00    +0.292 HD
ENDBRANCH  12  16
ENDBRANCH   7  11
ENDBRANCH   1   7
BRANCH   4  18
ATOM     18  C9  UNL     1      16.034  28.288  12.996  0.00  0.00    +0.119 C 
BRANCH  18  19
ATOM     19  C10 UNL     1      15.935  27.067  13.887  0.00  0.00    -0.033 A 
ATOM     20  C11 UNL     1      16.918  26.803  14.853  0.00  0.00    +0.005 A 
ATOM     21  C12 UNL     1      16.828  25.677  15.671  0.00  0.00    +0.000 A 
ATOM     22  C13 UNL     1      15.757  24.796  15.532  0.00  0.00    +0.000 A 
ATOM     23  C14 UNL     1      14.778  25.039  14.573  0.00  0.00    +0.000 A 
ATOM     24  C15 UNL     1      14.867  26.166  13.754  0.00  0.00    +0.005 A 
ENDBRANCH  18  19
ENDBRANCH   4  18
TORSDOF 6
ENDMDL
MODEL 5
REMARK VINA RESULT:    -3.005      4.065      6.612
REMARK INTER + INTRA:          -4.965
REMARK INTER:                  -4.107
REMARK INTRA:                  -0.858
REMARK UNBOUND:                -0.994
REMARK  Name = /home/vital/Documents/PhD_2021/Malaria_codes/data/pdb_ligands_mmv/ligand_242.pdb
REMARK  7 active torsions:
REMARK  status: ('A' for Active; 'I' for Inactive)
REMARK    1  A    between atoms: C1_1  and  O1_2
REMARK    2  A    between atoms: O1_2  and  C2_3
REMARK    3  A    between atoms: C5_6  and  C6_7
REMARK    4  A    between atoms: C6_7  and  N1_8
REMARK    5  A    between atoms: N2_11  and  C9_12
REMARK    6  A    between atoms: C9_12  and  C10_13
REMARK    7  A    between atoms: C18_21  and  O2_22
REMARK                            x       y       z     vdW  Elec       q    Type
REMARK                         _______ _______ _______ _____ _____    ______ ____
ROOT
ATOM      1  N1  UNL     1      15.658  34.671  16.911  0.00  0.00    -0.296 NA
ATOM      2  C7  UNL     1      14.378  34.913  17.597  0.00  0.00    +0.100 C 
ATOM      3  C8  UNL     1      13.692  36.231  17.139  0.00  0.00    +0.100 C 
ATOM      4  N2  UNL     1      14.616  37.218  16.567  0.00  0.00    -0.296 NA
ATOM      5  C16 UNL     1      15.911  37.198  17.244  0.00  0.00    +0.100 C 
ATOM      6  C17 UNL     1      16.585  35.798  17.186  0.00  0.00    +0.100 C 
ENDROOT
BRANCH   1   7
ATOM      7  C6  UNL     1      16.240  33.376  17.307  0.00  0.00    +0.123 C 
BRANCH   7  11
ATOM      8  C2  UNL     1      15.079  30.104  14.703  0.00  0.00    +0.124 A 
ATOM      9  C3  UNL     1      15.422  29.870  16.035  0.00  0.00    +0.046 A 
ATOM     10  C4  UNL     1      15.816  30.932  16.861  0.00  0.00    +0.012 A 
ATOM     11  C5  UNL     1      15.885  32.243  16.366  0.00  0.00    +0.008 A 
ATOM     12  C18 UNL     1      15.534  32.456  15.027  0.00  0.00    +0.125 A 
ATOM     13  C19 UNL     1      15.135  31.405  14.204  0.00  0.00    +0.091 A 
BRANCH   8  15
ATOM     14  C1  UNL     1      15.690  28.349  13.218  0.00  0.00    +0.277 C 
ATOM     15  O1  UNL     1      14.677  29.159  13.799  0.00  0.00    -0.495 OA
ENDBRANCH   8  15
BRANCH  12  16
ATOM     16  O2  UNL     1      15.584  33.702  14.462  0.00  0.00    -0.506 OA
ATOM     17  H23 UNL     1      15.057  33.655  13.632  0.00  0.00    +0.292 HD
ENDBRANCH  12  16
ENDBRANCH   7  11
ENDBRANCH   1   7
BRANCH   4  18
ATOM     18  C9  UNL     1      14.039  38.545  16.353  0.00  0.00    +0.119 C 
BRANCH  18  19
ATOM     19  C10 UNL     1      14.815  39.492  15.460  0.00  0.00    -0.033 A 
ATOM     20  C11 UNL     1      15.137  39.131  14.143  0.00  0.00    +0.005 A 
ATOM     21  C12 UNL     1      15.855  40.002  13.322  0.00  0.00    +0.000 A 
ATOM     22  C13 UNL     1      16.263  41.243  13.807  0.00  0.00    +0.000 A 
ATOM     23  C14 UNL     1      15.959  41.612  15.115  0.00  0.00    +0.000 A 
ATOM     24  C15 UNL     1      15.241  40.742  15.937  0.00  0.00    +0.005 A 
ENDBRANCH  18  19
ENDBRANCH   4  18
TORSDOF 6
ENDMDL
MODEL 6
REMARK VINA RESULT:    -2.977      3.723      8.335
REMARK INTER + INTRA:          -4.928
REMARK INTER:                  -4.092
REMARK INTRA:                  -0.836
REMARK UNBOUND:                -0.994
REMARK  Name = /home/vital/Documents/PhD_2021/Malaria_codes/data/pdb_ligands_mmv/ligand_242.pdb
REMARK  7 active torsions:
REMARK  status: ('A' for Active; 'I' for Inactive)
REMARK    1  A    between atoms: C1_1  and  O1_2
REMARK    2  A    between atoms: O1_2  and  C2_3
REMARK    3  A    between atoms: C5_6  and  C6_7
REMARK    4  A    between atoms: C6_7  and  N1_8
REMARK    5  A    between atoms: N2_11  and  C9_12
REMARK    6  A    between atoms: C9_12  and  C10_13
REMARK    7  A    between atoms: C18_21  and  O2_22
REMARK                            x       y       z     vdW  Elec       q    Type
REMARK                         _______ _______ _______ _____ _____    ______ ____
ROOT
ATOM      1  N1  UNL     1      15.507  25.321  16.282  0.00  0.00    -0.296 NA
ATOM      2  C7  UNL     1      15.484  25.596  17.729  0.00  0.00    +0.100 C 
ATOM      3  C8  UNL     1      16.785  25.138  18.446  0.00  0.00    +0.100 C 
ATOM      4  N2  UNL     1      17.523  24.087  17.734  0.00  0.00    -0.296 NA
ATOM      5  C16 UNL     1      16.617  23.152  17.070  0.00  0.00    +0.100 C 
ATOM      6  C17 UNL     1      15.671  23.862  16.061  0.00  0.00    +0.100 C 
ENDROOT
BRANCH   1   7
ATOM      7  C6  UNL     1      14.297  25.841  15.621  0.00  0.00    +0.123 C 
BRANCH   7  11
ATOM      8  C2  UNL     1      14.998  29.657  13.674  0.00  0.00    +0.124 A 
ATOM      9  C3  UNL     1      13.969  29.507  14.605  0.00  0.00    +0.046 A 
ATOM     10  C4  UNL     1      13.739  28.265  15.211  0.00  0.00    +0.012 A 
ATOM     11  C5  UNL     1      14.525  27.148  14.889  0.00  0.00    +0.008 A 
ATOM     12  C18 UNL     1      15.554  27.320  13.954  0.00  0.00    +0.125 A 
ATOM     13  C19 UNL     1      15.791  28.554  13.355  0.00  0.00    +0.091 A 
BRANCH   8  15
ATOM     14  C1  UNL     1      14.647  31.994  13.414  0.00  0.00    +0.277 C 
ATOM     15  O1  UNL     1      15.327  30.811  13.017  0.00  0.00    -0.495 OA
ENDBRANCH   8  15
BRANCH  12  16
ATOM     16  O2  UNL     1      16.360  26.280  13.576  0.00  0.00    -0.506 OA
ATOM     17  H23 UNL     1      16.807  26.560  12.745  0.00  0.00    +0.292 HD
ENDBRANCH  12  16
ENDBRANCH   7  11
ENDBRANCH   1   7
BRANCH   4  18
ATOM     18  C9  UNL     1      18.609  23.475  18.498  0.00  0.00    +0.119 C 
BRANCH  18  19
ATOM     19  C10 UNL     1      20.016  23.692  17.981  0.00  0.00    -0.033 A 
ATOM     20  C11 UNL     1      20.710  22.657  17.336  0.00  0.00    +0.005 A 
ATOM     21  C12 UNL     1      22.008  22.856  16.864  0.00  0.00    +0.000 A 
ATOM     22  C13 UNL     1      22.631  24.091  17.033  0.00  0.00    +0.000 A 
ATOM     23  C14 UNL     1      21.959  25.126  17.679  0.00  0.00    +0.000 A 
ATOM     24  C15 UNL     1      20.661  24.928  18.152  0.00  0.00    +0.005 A 
ENDBRANCH  18  19
ENDBRANCH   4  18
TORSDOF 6
ENDMDL
MODEL 7
REMARK VINA RESULT:    -2.896     19.368     21.418
REMARK INTER + INTRA:          -4.822
REMARK INTER:                  -3.864
REMARK INTRA:                  -0.958
REMARK UNBOUND:                -0.994
REMARK  Name = /home/vital/Documents/PhD_2021/Malaria_codes/data/pdb_ligands_mmv/ligand_242.pdb
REMARK  7 active torsions:
REMARK  status: ('A' for Active; 'I' for Inactive)
REMARK    1  A    between atoms: C1_1  and  O1_2
REMARK    2  A    between atoms: O1_2  and  C2_3
REMARK    3  A    between atoms: C5_6  and  C6_7
REMARK    4  A    between atoms: C6_7  and  N1_8
REMARK    5  A    between atoms: N2_11  and  C9_12
REMARK    6  A    between atoms: C9_12  and  C10_13
REMARK    7  A    between atoms: C18_21  and  O2_22
REMARK                            x       y       z     vdW  Elec       q    Type
REMARK                         _______ _______ _______ _____ _____    ______ ____
ROOT
ATOM      1  N1  UNL     1      30.006  44.829  18.296  0.00  0.00    -0.296 NA
ATOM      2  C7  UNL     1      29.434  43.492  18.527  0.00  0.00    +0.100 C 
ATOM      3  C8  UNL     1      27.885  43.473  18.396  0.00  0.00    +0.100 C 
ATOM      4  N2  UNL     1      27.250  44.780  18.606  0.00  0.00    -0.296 NA
ATOM      5  C16 UNL     1      27.945  45.556  19.631  0.00  0.00    +0.100 C 
ATOM      6  C17 UNL     1      29.444  45.783  19.285  0.00  0.00    +0.100 C 
ENDROOT
BRANCH   1   7
ATOM      7  C6  UNL     1      31.479  44.796  18.346  0.00  0.00    +0.123 C 
BRANCH   7  11
ATOM      8  C2  UNL     1      33.276  44.412  14.414  0.00  0.00    +0.124 A 
ATOM      9  C3  UNL     1      33.752  43.666  15.493  0.00  0.00    +0.046 A 
ATOM     10  C4  UNL     1      33.177  43.814  16.763  0.00  0.00    +0.012 A 
ATOM     11  C5  UNL     1      32.126  44.718  16.978  0.00  0.00    +0.008 A 
ATOM     12  C18 UNL     1      31.662  45.455  15.881  0.00  0.00    +0.125 A 
ATOM     13  C19 UNL     1      32.225  45.306  14.615  0.00  0.00    +0.091 A 
BRANCH   8  15
ATOM     14  C1  UNL     1      33.349  43.243  12.344  0.00  0.00    +0.277 C 
ATOM     15  O1  UNL     1      33.747  44.358  13.130  0.00  0.00    -0.495 OA
ENDBRANCH   8  15
BRANCH  12  16
ATOM     16  O2  UNL     1      30.649  46.367  16.006  0.00  0.00    -0.506 OA
ATOM     17  H23 UNL     1      29.878  45.999  15.516  0.00  0.00    +0.292 HD
ENDBRANCH  12  16
ENDBRANCH   7  11
ENDBRANCH   1   7
BRANCH   4  18
ATOM     18  C9  UNL     1      25.793  44.742  18.727  0.00  0.00    +0.119 C 
BRANCH  18  19
ATOM     19  C10 UNL     1      25.006  45.640  17.795  0.00  0.00    -0.033 A 
ATOM     20  C11 UNL     1      23.679  45.990  18.089  0.00  0.00    +0.005 A 
ATOM     21  C12 UNL     1      22.953  46.815  17.229  0.00  0.00    +0.000 A 
ATOM     22  C13 UNL     1      23.541  47.297  16.062  0.00  0.00    +0.000 A 
ATOM     23  C14 UNL     1      24.854  46.951  15.751  0.00  0.00    +0.000 A 
ATOM     24  C15 UNL     1      25.582  46.127  16.611  0.00  0.00    +0.005 A 
ENDBRANCH  18  19
ENDBRANCH   4  18
TORSDOF 6
ENDMDL
MODEL 8
REMARK VINA RESULT:    -2.613     18.441     21.718
REMARK INTER + INTRA:          -4.447
REMARK INTER:                  -3.463
REMARK INTRA:                  -0.984
REMARK UNBOUND:                -0.994
REMARK  Name = /home/vital/Documents/PhD_2021/Malaria_codes/data/pdb_ligands_mmv/ligand_242.pdb
REMARK  7 active torsions:
REMARK  status: ('A' for Active; 'I' for Inactive)
REMARK    1  A    between atoms: C1_1  and  O1_2
REMARK    2  A    between atoms: O1_2  and  C2_3
REMARK    3  A    between atoms: C5_6  and  C6_7
REMARK    4  A    between atoms: C6_7  and  N1_8
REMARK    5  A    between atoms: N2_11  and  C9_12
REMARK    6  A    between atoms: C9_12  and  C10_13
REMARK    7  A    between atoms: C18_21  and  O2_22
REMARK                            x       y       z     vdW  Elec       q    Type
REMARK                         _______ _______ _______ _____ _____    ______ ____
ROOT
ATOM      1  N1  UNL     1      28.833  46.214  18.990  0.00  0.00    -0.296 NA
ATOM      2  C7  UNL     1      29.586  47.474  19.113  0.00  0.00    +0.100 C 
ATOM      3  C8  UNL     1      30.746  47.581  18.084  0.00  0.00    +0.100 C 
ATOM      4  N2  UNL     1      31.220  46.287  17.579  0.00  0.00    -0.296 NA
ATOM      5  C16 UNL     1      31.179  45.258  18.617  0.00  0.00    +0.100 C 
ATOM      6  C17 UNL     1      29.752  45.068  19.204  0.00  0.00    +0.100 C 
ENDROOT
BRANCH   1   7
ATOM      7  C6  UNL     1      27.692  46.180  19.922  0.00  0.00    +0.123 C 
BRANCH   7  11
ATOM      8  C2  UNL     1      23.940  44.810  18.223  0.00  0.00    +0.124 A 
ATOM      9  C3  UNL     1      24.291  44.488  19.534  0.00  0.00    +0.046 A 
ATOM     10  C4  UNL     1      25.514  44.919  20.065  0.00  0.00    +0.012 A 
ATOM     11  C5  UNL     1      26.414  45.667  19.291  0.00  0.00    +0.008 A 
ATOM     12  C18 UNL     1      26.042  45.981  17.978  0.00  0.00    +0.125 A 
ATOM     13  C19 UNL     1      24.823  45.562  17.448  0.00  0.00    +0.091 A 
BRANCH   8  15
ATOM     14  C1  UNL     1      22.627  44.873  16.242  0.00  0.00    +0.277 C 
ATOM     15  O1  UNL     1      22.780  44.455  17.591  0.00  0.00    -0.495 OA
ENDBRANCH   8  15
BRANCH  12  16
ATOM     16  O2  UNL     1      26.864  46.698  17.151  0.00  0.00    -0.506 OA
ATOM     17  H23 UNL     1      27.185  46.072  16.463  0.00  0.00    +0.292 HD
ENDBRANCH  12  16
ENDBRANCH   7  11
ENDBRANCH   1   7
BRANCH   4  18
ATOM     18  C9  UNL     1      32.458  46.347  16.803  0.00  0.00    +0.119 C 
BRANCH  18  19
ATOM     19  C10 UNL     1      32.496  45.553  15.513  0.00  0.00    -0.033 A 
ATOM     20  C11 UNL     1      31.404  45.566  14.632  0.00  0.00    +0.005 A 
ATOM     21  C12 UNL     1      31.437  44.832  13.446  0.00  0.00    +0.000 A 
ATOM     22  C13 UNL     1      32.561  44.072  13.127  0.00  0.00    +0.000 A 
ATOM     23  C14 UNL     1      33.649  44.042  13.995  0.00  0.00    +0.000 A 
ATOM     24  C15 UNL     1      33.617  44.776  15.181  0.00  0.00    +0.005 A 
ENDBRANCH  18  19
ENDBRANCH   4  18
TORSDOF 6
ENDMDL
