MODEL 1
REMARK VINA RESULT:    -3.282      0.000      0.000
REMARK INTER + INTRA:          -5.563
REMARK INTER:                  -4.049
REMARK INTRA:                  -1.514
REMARK UNBOUND:                -1.514
REMARK  Name = /home/vital/Documents/PhD_2021/Malaria_codes/data/pdb_ligands_mmv/ligand_31.pdb
REMARK  10 active torsions:
REMARK  status: ('A' for Active; 'I' for Inactive)
REMARK    1  A    between atoms: C1_1  and  S1_2
REMARK    2  A    between atoms: S1_2  and  C2_3
REMARK    3  A    between atoms: N2_6  and  C4_7
REMARK    4  A    between atoms: C5_8  and  C6_9
REMARK    5  A    between atoms: C10_13  and  C11_14
REMARK    6  A    between atoms: C15_18  and  C18_21
REMARK    7  A    between atoms: C18_21  and  C19_22
REMARK    8  A    between atoms: C18_21  and  C20_23
REMARK    9  A    between atoms: C18_21  and  C21_24
REMARK   10  A    between atoms: N3_25  and  C22_26
REMARK                            x       y       z     vdW  Elec       q    Type
REMARK                         _______ _______ _______ _____ _____    ______ ____
ROOT
ATOM      1  C2  UNL     1      16.713  35.651  14.437  0.00  0.00    +0.163 C 
ATOM      2  N1  UNL     1      16.550  36.872  14.853  0.00  0.00    -0.208 NA
ATOM      3  C3  UNL     1      16.189  36.767  16.178  0.00  0.00    +0.156 C 
ATOM      4  N2  UNL     1      15.971  37.766  16.971  0.00  0.00    -0.230 NA
ATOM      5  C12 UNL     1      16.074  35.286  16.625  0.00  0.00    +0.101 C 
ATOM      6  C13 UNL     1      14.611  35.005  17.008  0.00  0.00    +0.034 C 
ATOM      7  C14 UNL     1      14.504  33.926  18.085  0.00  0.00    +0.006 C 
ATOM      8  C15 UNL     1      15.190  34.347  19.406  0.00  0.00    -0.005 C 
ATOM      9  C16 UNL     1      16.439  35.227  19.149  0.00  0.00    +0.006 C 
ATOM     10  C17 UNL     1      17.068  35.022  17.769  0.00  0.00    +0.034 C 
ATOM     11  N3  UNL     1      16.529  34.639  15.360  0.00  0.00    -0.266 N 
ENDROOT
BRANCH   4  12
ATOM     12  C4  UNL     1      16.110  39.068  16.455  0.00  0.00    +0.072 A 
ATOM     13  C5  UNL     1      15.012  39.706  15.840  0.00  0.00    -0.025 A 
ATOM     14  C6  UNL     1      13.695  38.997  15.688  0.00  0.00    +0.046 C 
ATOM     15  C7  UNL     1      15.161  41.006  15.335  0.00  0.00    +0.005 A 
ATOM     16  C8  UNL     1      16.374  41.679  15.460  0.00  0.00    +0.001 A 
ATOM     17  C9  UNL     1      17.450  41.062  16.093  0.00  0.00    +0.005 A 
ATOM     18  C10 UNL     1      17.327  39.762  16.604  0.00  0.00    -0.025 A 
ATOM     19  C11 UNL     1      18.505  39.115  17.278  0.00  0.00    +0.046 C 
ENDBRANCH   4  12
BRANCH  11  20
ATOM     20  C22 UNL     1      16.138  33.330  15.053  0.00  0.00    +0.037 A 
ATOM     21  C23 UNL     1      16.845  32.238  15.577  0.00  0.00    +0.025 A 
ATOM     22  C24 UNL     1      16.464  30.923  15.290  0.00  0.00    +0.022 A 
ATOM     23  C25 UNL     1      15.371  30.684  14.465  0.00  0.00    +0.041 A 
ATOM     24 CL1  UNL     1      14.900  29.068  14.114  0.00  0.00    -0.084 Cl
ATOM     25  C26 UNL     1      14.661  31.748  13.919  0.00  0.00    +0.022 A 
ATOM     26  C27 UNL     1      15.046  33.060  14.211  0.00  0.00    +0.025 A 
ENDBRANCH  11  20
BRANCH   8  27
ATOM     27  C18 UNL     1      15.430  33.145  20.394  0.00  0.00    -0.035 C 
ATOM     28  C19 UNL     1      14.181  32.928  21.280  0.00  0.00    +0.011 C 
ATOM     29  C20 UNL     1      15.659  31.834  19.610  0.00  0.00    +0.011 C 
ATOM     30  C21 UNL     1      16.643  33.374  21.314  0.00  0.00    +0.011 C 
ENDBRANCH   8  27
BRANCH   1  32
ATOM     31  C1  UNL     1      18.975  35.198  13.079  0.00  0.00    +0.093 C 
ATOM     32  S1  UNL     1      17.204  35.372  12.791  0.00  0.00    -0.093 S 
ENDBRANCH   1  32
TORSDOF 4
ENDMDL
MODEL 2
REMARK VINA RESULT:    -3.155      6.194     10.734
REMARK INTER + INTRA:          -5.406
REMARK INTER:                  -3.983
REMARK INTRA:                  -1.424
REMARK UNBOUND:                -1.514
REMARK  Name = /home/vital/Documents/PhD_2021/Malaria_codes/data/pdb_ligands_mmv/ligand_31.pdb
REMARK  10 active torsions:
REMARK  status: ('A' for Active; 'I' for Inactive)
REMARK    1  A    between atoms: C1_1  and  S1_2
REMARK    2  A    between atoms: S1_2  and  C2_3
REMARK    3  A    between atoms: N2_6  and  C4_7
REMARK    4  A    between atoms: C5_8  and  C6_9
REMARK    5  A    between atoms: C10_13  and  C11_14
REMARK    6  A    between atoms: C15_18  and  C18_21
REMARK    7  A    between atoms: C18_21  and  C19_22
REMARK    8  A    between atoms: C18_21  and  C20_23
REMARK    9  A    between atoms: C18_21  and  C21_24
REMARK   10  A    between atoms: N3_25  and  C22_26
REMARK                            x       y       z     vdW  Elec       q    Type
REMARK                         _______ _______ _______ _____ _____    ______ ____
ROOT
ATOM      1  C2  UNL     1      17.735  29.540  21.244  0.00  0.00    +0.163 C 
ATOM      2  N1  UNL     1      17.584  28.679  22.206  0.00  0.00    -0.208 NA
ATOM      3  C3  UNL     1      16.967  27.588  21.634  0.00  0.00    +0.156 C 
ATOM      4  N2  UNL     1      16.673  26.490  22.254  0.00  0.00    -0.230 NA
ATOM      5  C12 UNL     1      16.659  27.826  20.133  0.00  0.00    +0.101 C 
ATOM      6  C13 UNL     1      15.132  27.814  19.941  0.00  0.00    +0.034 C 
ATOM      7  C14 UNL     1      14.740  27.317  18.550  0.00  0.00    +0.006 C 
ATOM      8  C15 UNL     1      15.186  25.857  18.302  0.00  0.00    -0.005 C 
ATOM      9  C16 UNL     1      16.522  25.536  19.017  0.00  0.00    +0.006 C 
ATOM     10  C17 UNL     1      17.390  26.767  19.290  0.00  0.00    +0.034 C 
ATOM     11  N3  UNL     1      17.301  29.164  19.986  0.00  0.00    -0.266 N 
ENDROOT
BRANCH   4  12
ATOM     12  C4  UNL     1      17.005  26.386  23.618  0.00  0.00    +0.072 A 
ATOM     13  C5  UNL     1      16.107  26.850  24.601  0.00  0.00    -0.025 A 
ATOM     14  C6  UNL     1      14.807  27.497  24.213  0.00  0.00    +0.046 C 
ATOM     15  C7  UNL     1      16.446  26.735  25.957  0.00  0.00    +0.005 A 
ATOM     16  C8  UNL     1      17.648  26.144  26.339  0.00  0.00    +0.001 A 
ATOM     17  C9  UNL     1      18.523  25.658  25.370  0.00  0.00    +0.005 A 
ATOM     18  C10 UNL     1      18.207  25.763  24.007  0.00  0.00    -0.025 A 
ATOM     19  C11 UNL     1      19.170  25.237  22.980  0.00  0.00    +0.046 C 
ENDBRANCH   4  12
BRANCH  11  20
ATOM     20  C22 UNL     1      16.882  30.046  18.983  0.00  0.00    +0.037 A 
ATOM     21  C23 UNL     1      17.427  29.962  17.693  0.00  0.00    +0.025 A 
ATOM     22  C24 UNL     1      17.014  30.827  16.674  0.00  0.00    +0.022 A 
ATOM     23  C25 UNL     1      16.052  31.795  16.936  0.00  0.00    +0.041 A 
ATOM     24 CL1  UNL     1      15.542  32.857  15.685  0.00  0.00    -0.084 Cl
ATOM     25  C26 UNL     1      15.505  31.911  18.210  0.00  0.00    +0.022 A 
ATOM     26  C27 UNL     1      15.921  31.042  19.224  0.00  0.00    +0.025 A 
ENDBRANCH  11  20
BRANCH   8  27
ATOM     27  C18 UNL     1      15.141  25.442  16.784  0.00  0.00    -0.035 C 
ATOM     28  C19 UNL     1      13.693  25.540  16.249  0.00  0.00    +0.011 C 
ATOM     29  C20 UNL     1      16.002  26.399  15.932  0.00  0.00    +0.011 C 
ATOM     30  C21 UNL     1      15.646  24.006  16.553  0.00  0.00    +0.011 C 
ENDBRANCH   8  27
BRANCH   1  32
ATOM     31  C1  UNL     1      20.177  30.617  21.045  0.00  0.00    +0.093 C 
ATOM     32  S1  UNL     1      18.513  31.060  21.577  0.00  0.00    -0.093 S 
ENDBRANCH   1  32
TORSDOF 4
ENDMDL
MODEL 3
REMARK VINA RESULT:    -3.102      6.085     10.810
REMARK INTER + INTRA:          -5.342
REMARK INTER:                  -3.950
REMARK INTRA:                  -1.391
REMARK UNBOUND:                -1.514
REMARK  Name = /home/vital/Documents/PhD_2021/Malaria_codes/data/pdb_ligands_mmv/ligand_31.pdb
REMARK  10 active torsions:
REMARK  status: ('A' for Active; 'I' for Inactive)
REMARK    1  A    between atoms: C1_1  and  S1_2
REMARK    2  A    between atoms: S1_2  and  C2_3
REMARK    3  A    between atoms: N2_6  and  C4_7
REMARK    4  A    between atoms: C5_8  and  C6_9
REMARK    5  A    between atoms: C10_13  and  C11_14
REMARK    6  A    between atoms: C15_18  and  C18_21
REMARK    7  A    between atoms: C18_21  and  C19_22
REMARK    8  A    between atoms: C18_21  and  C20_23
REMARK    9  A    between atoms: C18_21  and  C21_24
REMARK   10  A    between atoms: N3_25  and  C22_26
REMARK                            x       y       z     vdW  Elec       q    Type
REMARK                         _______ _______ _______ _____ _____    ______ ____
ROOT
ATOM      1  C2  UNL     1      17.564  29.746  21.491  0.00  0.00    +0.163 C 
ATOM      2  N1  UNL     1      17.409  28.850  22.419  0.00  0.00    -0.208 NA
ATOM      3  C3  UNL     1      16.831  27.766  21.795  0.00  0.00    +0.156 C 
ATOM      4  N2  UNL     1      16.547  26.641  22.369  0.00  0.00    -0.230 NA
ATOM      5  C12 UNL     1      16.555  28.049  20.295  0.00  0.00    +0.101 C 
ATOM      6  C13 UNL     1      15.034  28.010  20.064  0.00  0.00    +0.034 C 
ATOM      7  C14 UNL     1      14.688  27.553  18.647  0.00  0.00    +0.006 C 
ATOM      8  C15 UNL     1      15.173  26.113  18.361  0.00  0.00    -0.005 C 
ATOM      9  C16 UNL     1      16.498  25.796  19.099  0.00  0.00    +0.006 C 
ATOM     10  C17 UNL     1      17.331  27.036  19.437  0.00  0.00    +0.034 C 
ATOM     11  N3  UNL     1      17.170  29.405  20.211  0.00  0.00    -0.266 N 
ENDROOT
BRANCH   4  12
ATOM     12  C4  UNL     1      16.847  26.498  23.737  0.00  0.00    +0.072 A 
ATOM     13  C5  UNL     1      18.078  25.938  24.136  0.00  0.00    -0.025 A 
ATOM     14  C6  UNL     1      19.069  25.449  23.117  0.00  0.00    +0.046 C 
ATOM     15  C7  UNL     1      18.368  25.807  25.502  0.00  0.00    +0.005 A 
ATOM     16  C8  UNL     1      17.463  26.248  26.464  0.00  0.00    +0.001 A 
ATOM     17  C9  UNL     1      16.258  26.828  26.071  0.00  0.00    +0.005 A 
ATOM     18  C10 UNL     1      15.944  26.969  24.712  0.00  0.00    -0.025 A 
ATOM     19  C11 UNL     1      14.636  27.593  24.313  0.00  0.00    +0.046 C 
ENDBRANCH   4  12
BRANCH  11  20
ATOM     20  C22 UNL     1      16.756  30.312  19.227  0.00  0.00    +0.037 A 
ATOM     21  C23 UNL     1      15.749  31.247  19.505  0.00  0.00    +0.025 A 
ATOM     22  C24 UNL     1      15.329  32.169  18.539  0.00  0.00    +0.022 A 
ATOM     23  C25 UNL     1      15.908  32.158  17.276  0.00  0.00    +0.041 A 
ATOM     24 CL1  UNL     1      15.394  33.290  16.088  0.00  0.00    -0.084 Cl
ATOM     25  C26 UNL     1      16.898  31.231  16.968  0.00  0.00    +0.022 A 
ATOM     26  C27 UNL     1      17.315  30.314  17.938  0.00  0.00    +0.025 A 
ENDBRANCH  11  20
BRANCH   8  27
ATOM     27  C18 UNL     1      15.175  25.749  16.829  0.00  0.00    -0.035 C 
ATOM     28  C19 UNL     1      15.948  24.429  16.598  0.00  0.00    +0.011 C 
ATOM     29  C20 UNL     1      13.734  25.523  16.322  0.00  0.00    +0.011 C 
ATOM     30  C21 UNL     1      15.823  26.847  15.966  0.00  0.00    +0.011 C 
ENDBRANCH   8  27
BRANCH   1  32
ATOM     31  C1  UNL     1      17.136  31.782  23.177  0.00  0.00    +0.093 C 
ATOM     32  S1  UNL     1      18.298  31.271  21.896  0.00  0.00    -0.093 S 
ENDBRANCH   1  32
TORSDOF 4
ENDMDL
MODEL 4
REMARK VINA RESULT:    -3.026     17.464     19.967
REMARK INTER + INTRA:          -5.248
REMARK INTER:                  -3.706
REMARK INTRA:                  -1.542
REMARK UNBOUND:                -1.514
REMARK  Name = /home/vital/Documents/PhD_2021/Malaria_codes/data/pdb_ligands_mmv/ligand_31.pdb
REMARK  10 active torsions:
REMARK  status: ('A' for Active; 'I' for Inactive)
REMARK    1  A    between atoms: C1_1  and  S1_2
REMARK    2  A    between atoms: S1_2  and  C2_3
REMARK    3  A    between atoms: N2_6  and  C4_7
REMARK    4  A    between atoms: C5_8  and  C6_9
REMARK    5  A    between atoms: C10_13  and  C11_14
REMARK    6  A    between atoms: C15_18  and  C18_21
REMARK    7  A    between atoms: C18_21  and  C19_22
REMARK    8  A    between atoms: C18_21  and  C20_23
REMARK    9  A    between atoms: C18_21  and  C21_24
REMARK   10  A    between atoms: N3_25  and  C22_26
REMARK                            x       y       z     vdW  Elec       q    Type
REMARK                         _______ _______ _______ _____ _____    ______ ____
ROOT
ATOM      1  C2  UNL     1      33.944  40.141  13.846  0.00  0.00    +0.163 C 
ATOM      2  N1  UNL     1      34.746  39.126  13.968  0.00  0.00    -0.208 NA
ATOM      3  C3  UNL     1      34.947  38.973  15.322  0.00  0.00    +0.156 C 
ATOM      4  N2  UNL     1      35.661  38.040  15.868  0.00  0.00    -0.230 NA
ATOM      5  C12 UNL     1      34.205  40.062  16.138  0.00  0.00    +0.101 C 
ATOM      6  C13 UNL     1      35.251  40.923  16.868  0.00  0.00    +0.034 C 
ATOM      7  C14 UNL     1      34.707  41.488  18.178  0.00  0.00    +0.006 C 
ATOM      8  C15 UNL     1      34.332  40.376  19.185  0.00  0.00    -0.005 C 
ATOM      9  C16 UNL     1      33.793  39.112  18.470  0.00  0.00    +0.006 C 
ATOM     10  C17 UNL     1      33.198  39.389  17.087  0.00  0.00    +0.034 C 
ATOM     11  N3  UNL     1      33.505  40.743  15.010  0.00  0.00    -0.266 N 
ENDROOT
BRANCH   4  12
ATOM     12  C4  UNL     1      36.286  37.102  15.025  0.00  0.00    +0.072 A 
ATOM     13  C5  UNL     1      37.600  37.329  14.565  0.00  0.00    -0.025 A 
ATOM     14  C6  UNL     1      38.336  38.589  14.928  0.00  0.00    +0.046 C 
ATOM     15  C7  UNL     1      38.214  36.384  13.731  0.00  0.00    +0.005 A 
ATOM     16  C8  UNL     1      37.549  35.213  13.377  0.00  0.00    +0.001 A 
ATOM     17  C9  UNL     1      36.262  34.973  13.855  0.00  0.00    +0.005 A 
ATOM     18  C10 UNL     1      35.625  35.904  14.688  0.00  0.00    -0.025 A 
ATOM     19  C11 UNL     1      34.235  35.624  15.186  0.00  0.00    +0.046 C 
ENDBRANCH   4  12
BRANCH  11  20
ATOM     20  C22 UNL     1      33.111  42.082  15.125  0.00  0.00    +0.037 A 
ATOM     21  C23 UNL     1      31.838  42.405  15.618  0.00  0.00    +0.025 A 
ATOM     22  C24 UNL     1      31.429  43.737  15.751  0.00  0.00    +0.022 A 
ATOM     23  C25 UNL     1      32.289  44.764  15.382  0.00  0.00    +0.041 A 
ATOM     24 CL1  UNL     1      31.788  46.400  15.546  0.00  0.00    -0.084 Cl
ATOM     25  C26 UNL     1      33.551  44.472  14.875  0.00  0.00    +0.022 A 
ATOM     26  C27 UNL     1      33.954  43.139  14.747  0.00  0.00    +0.025 A 
ENDBRANCH  11  20
BRANCH   8  27
ATOM     27  C18 UNL     1      33.433  40.887  20.373  0.00  0.00    -0.035 C 
ATOM     28  C19 UNL     1      32.626  39.712  20.972  0.00  0.00    +0.011 C 
ATOM     29  C20 UNL     1      34.308  41.459  21.509  0.00  0.00    +0.011 C 
ATOM     30  C21 UNL     1      32.443  41.980  19.931  0.00  0.00    +0.011 C 
ENDBRANCH   8  27
BRANCH   1  32
ATOM     31  C1  UNL     1      31.849  39.771  12.221  0.00  0.00    +0.093 C 
ATOM     32  S1  UNL     1      33.431  40.634  12.258  0.00  0.00    -0.093 S 
ENDBRANCH   1  32
TORSDOF 4
ENDMDL
MODEL 5
REMARK VINA RESULT:    -2.981     17.425     19.892
REMARK INTER + INTRA:          -5.191
REMARK INTER:                  -3.702
REMARK INTRA:                  -1.490
REMARK UNBOUND:                -1.514
REMARK  Name = /home/vital/Documents/PhD_2021/Malaria_codes/data/pdb_ligands_mmv/ligand_31.pdb
REMARK  10 active torsions:
REMARK  status: ('A' for Active; 'I' for Inactive)
REMARK    1  A    between atoms: C1_1  and  S1_2
REMARK    2  A    between atoms: S1_2  and  C2_3
REMARK    3  A    between atoms: N2_6  and  C4_7
REMARK    4  A    between atoms: C5_8  and  C6_9
REMARK    5  A    between atoms: C10_13  and  C11_14
REMARK    6  A    between atoms: C15_18  and  C18_21
REMARK    7  A    between atoms: C18_21  and  C19_22
REMARK    8  A    between atoms: C18_21  and  C20_23
REMARK    9  A    between atoms: C18_21  and  C21_24
REMARK   10  A    between atoms: N3_25  and  C22_26
REMARK                            x       y       z     vdW  Elec       q    Type
REMARK                         _______ _______ _______ _____ _____    ______ ____
ROOT
ATOM      1  C2  UNL     1      33.970  40.128  13.875  0.00  0.00    +0.163 C 
ATOM      2  N1  UNL     1      34.779  39.122  14.021  0.00  0.00    -0.208 NA
ATOM      3  C3  UNL     1      34.955  38.981  15.379  0.00  0.00    +0.156 C 
ATOM      4  N2  UNL     1      35.666  38.060  15.947  0.00  0.00    -0.230 NA
ATOM      5  C12 UNL     1      34.186  40.070  16.172  0.00  0.00    +0.101 C 
ATOM      6  C13 UNL     1      35.210  40.946  16.915  0.00  0.00    +0.034 C 
ATOM      7  C14 UNL     1      34.634  41.517  18.210  0.00  0.00    +0.006 C 
ATOM      8  C15 UNL     1      34.250  40.409  19.219  0.00  0.00    -0.005 C 
ATOM      9  C16 UNL     1      33.737  39.134  18.503  0.00  0.00    +0.006 C 
ATOM     10  C17 UNL     1      33.167  39.395  17.106  0.00  0.00    +0.034 C 
ATOM     11  N3  UNL     1      33.503  40.735  15.025  0.00  0.00    -0.266 N 
ENDROOT
BRANCH   4  12
ATOM     12  C4  UNL     1      36.317  37.121  15.124  0.00  0.00    +0.072 A 
ATOM     13  C5  UNL     1      35.665  35.923  14.765  0.00  0.00    -0.025 A 
ATOM     14  C6  UNL     1      34.289  35.609  15.284  0.00  0.00    +0.046 C 
ATOM     15  C7  UNL     1      36.321  34.999  13.939  0.00  0.00    +0.005 A 
ATOM     16  C8  UNL     1      37.598  35.267  13.451  0.00  0.00    +0.001 A 
ATOM     17  C9  UNL     1      38.231  36.463  13.781  0.00  0.00    +0.005 A 
ATOM     18  C10 UNL     1      37.597  37.402  14.606  0.00  0.00    -0.025 A 
ATOM     19  C11 UNL     1      38.304  38.683  14.952  0.00  0.00    +0.046 C 
ENDBRANCH   4  12
BRANCH  11  20
ATOM     20  C22 UNL     1      33.094  42.071  15.122  0.00  0.00    +0.037 A 
ATOM     21  C23 UNL     1      31.805  42.386  15.577  0.00  0.00    +0.025 A 
ATOM     22  C24 UNL     1      31.380  43.714  15.691  0.00  0.00    +0.022 A 
ATOM     23  C25 UNL     1      32.241  44.747  15.340  0.00  0.00    +0.041 A 
ATOM     24 CL1  UNL     1      31.722  46.380  15.481  0.00  0.00    -0.084 Cl
ATOM     25  C26 UNL     1      33.520  44.464  14.871  0.00  0.00    +0.022 A 
ATOM     26  C27 UNL     1      33.939  43.134  14.761  0.00  0.00    +0.025 A 
ENDBRANCH  11  20
BRANCH   8  27
ATOM     27  C18 UNL     1      33.323  40.921  20.384  0.00  0.00    -0.035 C 
ATOM     28  C19 UNL     1      32.371  42.022  19.860  0.00  0.00    +0.011 C 
ATOM     29  C20 UNL     1      32.436  39.775  20.917  0.00  0.00    +0.011 C 
ATOM     30  C21 UNL     1      34.127  41.497  21.564  0.00  0.00    +0.011 C 
ENDBRANCH   8  27
BRANCH   1  32
ATOM     31  C1  UNL     1      31.901  39.744  12.221  0.00  0.00    +0.093 C 
ATOM     32  S1  UNL     1      33.485  40.604  12.273  0.00  0.00    -0.093 S 
ENDBRANCH   1  32
TORSDOF 4
ENDMDL
MODEL 6
REMARK VINA RESULT:    -2.907     13.084     16.044
REMARK INTER + INTRA:          -5.101
REMARK INTER:                  -3.664
REMARK INTRA:                  -1.437
REMARK UNBOUND:                -1.514
REMARK  Name = /home/vital/Documents/PhD_2021/Malaria_codes/data/pdb_ligands_mmv/ligand_31.pdb
REMARK  10 active torsions:
REMARK  status: ('A' for Active; 'I' for Inactive)
REMARK    1  A    between atoms: C1_1  and  S1_2
REMARK    2  A    between atoms: S1_2  and  C2_3
REMARK    3  A    between atoms: N2_6  and  C4_7
REMARK    4  A    between atoms: C5_8  and  C6_9
REMARK    5  A    between atoms: C10_13  and  C11_14
REMARK    6  A    between atoms: C15_18  and  C18_21
REMARK    7  A    between atoms: C18_21  and  C19_22
REMARK    8  A    between atoms: C18_21  and  C20_23
REMARK    9  A    between atoms: C18_21  and  C21_24
REMARK   10  A    between atoms: N3_25  and  C22_26
REMARK                            x       y       z     vdW  Elec       q    Type
REMARK                         _______ _______ _______ _____ _____    ______ ____
ROOT
ATOM      1  C2  UNL     1      27.530  44.642  15.411  0.00  0.00    +0.163 C 
ATOM      2  N1  UNL     1      28.818  44.562  15.570  0.00  0.00    -0.208 NA
ATOM      3  C3  UNL     1      29.027  44.606  16.930  0.00  0.00    +0.156 C 
ATOM      4  N2  UNL     1      30.181  44.514  17.509  0.00  0.00    -0.230 NA
ATOM      5  C12 UNL     1      27.697  44.778  17.709  0.00  0.00    +0.101 C 
ATOM      6  C13 UNL     1      27.732  46.129  18.443  0.00  0.00    +0.034 C 
ATOM      7  C14 UNL     1      26.910  46.097  19.731  0.00  0.00    +0.006 C 
ATOM      8  C15 UNL     1      27.459  45.072  20.751  0.00  0.00    -0.005 C 
ATOM      9  C16 UNL     1      28.062  43.830  20.049  0.00  0.00    +0.006 C 
ATOM     10  C17 UNL     1      27.499  43.576  18.649  0.00  0.00    +0.034 C 
ATOM     11  N3  UNL     1      26.756  44.714  16.553  0.00  0.00    -0.266 N 
ENDROOT
BRANCH   4  12
ATOM     12  C4  UNL     1      31.321  44.357  16.699  0.00  0.00    +0.072 A 
ATOM     13  C5  UNL     1      31.968  45.488  16.160  0.00  0.00    -0.025 A 
ATOM     14  C6  UNL     1      31.431  46.872  16.404  0.00  0.00    +0.046 C 
ATOM     15  C7  UNL     1      33.107  45.319  15.360  0.00  0.00    +0.005 A 
ATOM     16  C8  UNL     1      33.618  44.047  15.116  0.00  0.00    +0.001 A 
ATOM     17  C9  UNL     1      32.998  42.930  15.672  0.00  0.00    +0.005 A 
ATOM     18  C10 UNL     1      31.856  43.073  16.474  0.00  0.00    -0.025 A 
ATOM     19  C11 UNL     1      31.202  41.852  17.058  0.00  0.00    +0.046 C 
ENDBRANCH   4  12
BRANCH  11  20
ATOM     20  C22 UNL     1      25.492  45.312  16.633  0.00  0.00    +0.037 A 
ATOM     21  C23 UNL     1      25.297  46.620  16.167  0.00  0.00    +0.025 A 
ATOM     22  C24 UNL     1      24.040  47.232  16.228  0.00  0.00    +0.022 A 
ATOM     23  C25 UNL     1      22.961  46.541  16.768  0.00  0.00    +0.041 A 
ATOM     24 CL1  UNL     1      21.416  47.290  16.842  0.00  0.00    -0.084 Cl
ATOM     25  C26 UNL     1      23.129  45.248  17.252  0.00  0.00    +0.022 A 
ATOM     26  C27 UNL     1      24.388  44.642  17.185  0.00  0.00    +0.025 A 
ENDBRANCH  11  20
BRANCH   8  27
ATOM     27  C18 UNL     1      26.445  44.741  21.909  0.00  0.00    -0.035 C 
ATOM     28  C19 UNL     1      26.663  45.704  23.099  0.00  0.00    +0.011 C 
ATOM     29  C20 UNL     1      24.990  44.939  21.430  0.00  0.00    +0.011 C 
ATOM     30  C21 UNL     1      26.591  43.297  22.422  0.00  0.00    +0.011 C 
ENDBRANCH   8  27
BRANCH   1  32
ATOM     31  C1  UNL     1      28.396  44.258  12.907  0.00  0.00    +0.093 C 
ATOM     32  S1  UNL     1      26.868  44.594  13.802  0.00  0.00    -0.093 S 
ENDBRANCH   1  32
TORSDOF 4
ENDMDL
MODEL 7
REMARK VINA RESULT:    -2.727     15.760     19.020
REMARK INTER + INTRA:          -4.878
REMARK INTER:                  -3.338
REMARK INTRA:                  -1.541
REMARK UNBOUND:                -1.514
REMARK  Name = /home/vital/Documents/PhD_2021/Malaria_codes/data/pdb_ligands_mmv/ligand_31.pdb
REMARK  10 active torsions:
REMARK  status: ('A' for Active; 'I' for Inactive)
REMARK    1  A    between atoms: C1_1  and  S1_2
REMARK    2  A    between atoms: S1_2  and  C2_3
REMARK    3  A    between atoms: N2_6  and  C4_7
REMARK    4  A    between atoms: C5_8  and  C6_9
REMARK    5  A    between atoms: C10_13  and  C11_14
REMARK    6  A    between atoms: C15_18  and  C18_21
REMARK    7  A    between atoms: C18_21  and  C19_22
REMARK    8  A    between atoms: C18_21  and  C20_23
REMARK    9  A    between atoms: C18_21  and  C21_24
REMARK   10  A    between atoms: N3_25  and  C22_26
REMARK                            x       y       z     vdW  Elec       q    Type
REMARK                         _______ _______ _______ _____ _____    ______ ____
ROOT
ATOM      1  C2  UNL     1      33.209  38.226  16.961  0.00  0.00    +0.163 C 
ATOM      2  N1  UNL     1      34.318  38.135  16.289  0.00  0.00    -0.208 NA
ATOM      3  C3  UNL     1      34.437  39.326  15.608  0.00  0.00    +0.156 C 
ATOM      4  N2  UNL     1      35.433  39.653  14.848  0.00  0.00    -0.230 NA
ATOM      5  C12 UNL     1      33.222  40.256  15.862  0.00  0.00    +0.101 C 
ATOM      6  C13 UNL     1      32.480  40.463  14.530  0.00  0.00    +0.034 C 
ATOM      7  C14 UNL     1      31.789  41.824  14.472  0.00  0.00    +0.006 C 
ATOM      8  C15 UNL     1      32.794  42.996  14.557  0.00  0.00    -0.005 C 
ATOM      9  C16 UNL     1      34.003  42.651  15.462  0.00  0.00    +0.006 C 
ATOM     10  C17 UNL     1      33.709  41.567  16.502  0.00  0.00    +0.034 C 
ATOM     11  N3  UNL     1      32.502  39.409  16.857  0.00  0.00    -0.266 N 
ENDROOT
BRANCH   4  12
ATOM     12  C4  UNL     1      36.484  38.729  14.696  0.00  0.00    +0.072 A 
ATOM     13  C5  UNL     1      36.425  37.752  13.680  0.00  0.00    -0.025 A 
ATOM     14  C6  UNL     1      35.229  37.653  12.774  0.00  0.00    +0.046 C 
ATOM     15  C7  UNL     1      37.482  36.841  13.534  0.00  0.00    +0.005 A 
ATOM     16  C8  UNL     1      38.597  36.911  14.365  0.00  0.00    +0.001 A 
ATOM     17  C9  UNL     1      38.670  37.894  15.349  0.00  0.00    +0.005 A 
ATOM     18  C10 UNL     1      37.626  38.815  15.517  0.00  0.00    -0.025 A 
ATOM     19  C11 UNL     1      37.726  39.863  16.590  0.00  0.00    +0.046 C 
ENDBRANCH   4  12
BRANCH  11  20
ATOM     20  C22 UNL     1      31.118  39.538  17.030  0.00  0.00    +0.037 A 
ATOM     21  C23 UNL     1      30.603  40.457  17.955  0.00  0.00    +0.025 A 
ATOM     22  C24 UNL     1      29.223  40.609  18.135  0.00  0.00    +0.022 A 
ATOM     23  C25 UNL     1      28.341  39.832  17.393  0.00  0.00    +0.041 A 
ATOM     24 CL1  UNL     1      26.646  40.019  17.611  0.00  0.00    -0.084 Cl
ATOM     25  C26 UNL     1      28.824  38.902  16.480  0.00  0.00    +0.022 A 
ATOM     26  C27 UNL     1      30.204  38.757  16.304  0.00  0.00    +0.025 A 
ENDBRANCH  11  20
BRANCH   8  27
ATOM     27  C18 UNL     1      32.113  44.379  14.877  0.00  0.00    -0.035 C 
ATOM     28  C19 UNL     1      30.957  44.182  15.885  0.00  0.00    +0.011 C 
ATOM     29  C20 UNL     1      33.124  45.344  15.534  0.00  0.00    +0.011 C 
ATOM     30  C21 UNL     1      31.547  45.060  13.617  0.00  0.00    +0.011 C 
ENDBRANCH   8  27
BRANCH   1  32
ATOM     31  C1  UNL     1      33.377  37.526  19.540  0.00  0.00    +0.093 C 
ATOM     32  S1  UNL     1      32.722  36.902  17.980  0.00  0.00    -0.093 S 
ENDBRANCH   1  32
TORSDOF 4
ENDMDL
MODEL 8
REMARK VINA RESULT:    -2.410      3.097      4.890
REMARK INTER + INTRA:          -4.487
REMARK INTER:                  -3.003
REMARK INTRA:                  -1.484
REMARK UNBOUND:                -1.514
REMARK  Name = /home/vital/Documents/PhD_2021/Malaria_codes/data/pdb_ligands_mmv/ligand_31.pdb
REMARK  10 active torsions:
REMARK  status: ('A' for Active; 'I' for Inactive)
REMARK    1  A    between atoms: C1_1  and  S1_2
REMARK    2  A    between atoms: S1_2  and  C2_3
REMARK    3  A    between atoms: N2_6  and  C4_7
REMARK    4  A    between atoms: C5_8  and  C6_9
REMARK    5  A    between atoms: C10_13  and  C11_14
REMARK    6  A    between atoms: C15_18  and  C18_21
REMARK    7  A    between atoms: C18_21  and  C19_22
REMARK    8  A    between atoms: C18_21  and  C20_23
REMARK    9  A    between atoms: C18_21  and  C21_24
REMARK   10  A    between atoms: N3_25  and  C22_26
REMARK                            x       y       z     vdW  Elec       q    Type
REMARK                         _______ _______ _______ _____ _____    ______ ____
ROOT
ATOM      1  C2  UNL     1      16.370  31.161  14.055  0.00  0.00    +0.163 C 
ATOM      2  N1  UNL     1      16.461  32.352  14.566  0.00  0.00    -0.208 NA
ATOM      3  C3  UNL     1      16.825  32.166  15.881  0.00  0.00    +0.156 C 
ATOM      4  N2  UNL     1      17.058  33.114  16.731  0.00  0.00    -0.230 NA
ATOM      5  C12 UNL     1      16.931  30.660  16.238  0.00  0.00    +0.101 C 
ATOM      6  C13 UNL     1      15.864  30.334  17.297  0.00  0.00    +0.034 C 
ATOM      7  C14 UNL     1      16.304  29.193  18.214  0.00  0.00    +0.006 C 
ATOM      8  C15 UNL     1      17.574  29.548  19.021  0.00  0.00    -0.005 C 
ATOM      9  C16 UNL     1      18.531  30.461  18.215  0.00  0.00    +0.006 C 
ATOM     10  C17 UNL     1      18.364  30.346  16.697  0.00  0.00    +0.034 C 
ATOM     11  N3  UNL     1      16.666  30.094  14.883  0.00  0.00    -0.266 N 
ENDROOT
BRANCH   4  12
ATOM     12  C4  UNL     1      16.935  34.446  16.292  0.00  0.00    +0.072 A 
ATOM     13  C5  UNL     1      15.741  35.159  16.524  0.00  0.00    -0.025 A 
ATOM     14  C6  UNL     1      14.570  34.502  17.201  0.00  0.00    +0.046 C 
ATOM     15  C7  UNL     1      15.632  36.487  16.087  0.00  0.00    +0.005 A 
ATOM     16  C8  UNL     1      16.702  37.114  15.452  0.00  0.00    +0.001 A 
ATOM     17  C9  UNL     1      17.893  36.420  15.249  0.00  0.00    +0.005 A 
ATOM     18  C10 UNL     1      18.025  35.090  15.675  0.00  0.00    -0.025 A 
ATOM     19  C11 UNL     1      19.318  34.361  15.439  0.00  0.00    +0.046 C 
ENDBRANCH   4  12
BRANCH  11  20
ATOM     20  C22 UNL     1      16.152  28.799  14.743  0.00  0.00    +0.037 A 
ATOM     21  C23 UNL     1      17.018  27.701  14.636  0.00  0.00    +0.025 A 
ATOM     22  C24 UNL     1      16.524  26.398  14.506  0.00  0.00    +0.022 A 
ATOM     23  C25 UNL     1      15.152  26.180  14.474  0.00  0.00    +0.041 A 
ATOM     24 CL1  UNL     1      14.544  24.579  14.316  0.00  0.00    -0.084 Cl
ATOM     25  C26 UNL     1      14.270  27.251  14.563  0.00  0.00    +0.022 A 
ATOM     26  C27 UNL     1      14.770  28.551  14.694  0.00  0.00    +0.025 A 
ENDBRANCH  11  20
BRANCH   8  27
ATOM     27  C18 UNL     1      18.265  28.295  19.677  0.00  0.00    -0.035 C 
ATOM     28  C19 UNL     1      17.576  27.949  21.018  0.00  0.00    +0.011 C 
ATOM     29  C20 UNL     1      18.125  27.056  18.765  0.00  0.00    +0.011 C 
ATOM     30  C21 UNL     1      19.763  28.525  19.949  0.00  0.00    +0.011 C 
ENDBRANCH   8  27
BRANCH   1  32
ATOM     31  C1  UNL     1      14.909  32.451  12.220  0.00  0.00    +0.093 C 
ATOM     32  S1  UNL     1      15.947  30.985  12.377  0.00  0.00    -0.093 S 
ENDBRANCH   1  32
TORSDOF 4
ENDMDL
