MODEL 1
REMARK VINA RESULT:    -4.019      0.000      0.000
REMARK INTER + INTRA:          -5.671
REMARK INTER:                  -5.077
REMARK INTRA:                  -0.594
REMARK UNBOUND:                -0.594
REMARK  Name = /home/vital/Documents/PhD_2021/Malaria_codes/data/pdb_ligands_mmv/ligand_198.pdb
REMARK  6 active torsions:
REMARK  status: ('A' for Active; 'I' for Inactive)
REMARK    1  A    between atoms: C1_1  and  C2_2
REMARK    2  A    between atoms: C2_2  and  C3_3
REMARK    3  A    between atoms: C3_3  and  O1_4
REMARK    4  A    between atoms: C3_3  and  C4_5
REMARK    5  A    between atoms: C9_11  and  N1_12
REMARK    6  A    between atoms: C10_13  and  C11_15
REMARK                            x       y       z     vdW  Elec       q    Type
REMARK                         _______ _______ _______ _____ _____    ______ ____
ROOT
ATOM      1  C4  UNL     1      15.904  25.506  16.747  0.00  0.00    +0.002 A 
ATOM      2  C5  UNL     1      16.373  24.285  17.273  0.00  0.00    +0.009 A 
ATOM      3  C6  UNL     1      17.735  24.060  17.467  0.00  0.00    +0.016 A 
ATOM      4  C7  UNL     1      18.645  25.058  17.141  0.00  0.00    +0.020 A 
ATOM      5 BR1  UNL     1      20.493  24.758  17.414  0.00  0.00    -0.050 Br
ATOM      6  C8  UNL     1      18.210  26.271  16.608  0.00  0.00    +0.039 A 
ATOM      7  C9  UNL     1      16.846  26.502  16.392  0.00  0.00    +0.040 A 
ENDROOT
BRANCH   7   8
ATOM      8  N1  UNL     1      16.364  27.694  15.806  0.00  0.00    -0.281 N 
ATOM      9  C10 UNL     1      15.966  28.861  16.425  0.00  0.00    +0.248 C 
ATOM     10  O2  UNL     1      15.938  29.084  17.628  0.00  0.00    -0.270 OA
ATOM     11  H11 UNL     1      16.455  27.705  14.791  0.00  0.00    +0.155 HD
BRANCH   9  12
ATOM     12  C11 UNL     1      15.547  29.954  15.500  0.00  0.00    +0.038 A 
ATOM     13  C12 UNL     1      15.003  29.687  14.234  0.00  0.00    +0.013 A 
ATOM     14  C13 UNL     1      14.617  30.742  13.404  0.00  0.00    +0.002 A 
ATOM     15  C14 UNL     1      14.765  32.060  13.835  0.00  0.00    +0.020 A 
ATOM     16  C15 UNL     1      15.291  32.322  15.100  0.00  0.00    +0.042 A 
ATOM     17 CL1  UNL     1      15.462  33.951  15.629  0.00  0.00    -0.084 Cl
ATOM     18  C16 UNL     1      15.678  31.278  15.936  0.00  0.00    +0.033 A 
ENDBRANCH   9  12
ENDBRANCH   7   8
BRANCH   1  19
ATOM     19  C3  UNL     1      14.396  25.697  16.656  0.00  0.00    +0.146 C 
BRANCH  19  21
ATOM     20  C1  UNL     1      14.508  24.537  14.371  0.00  0.00    +0.007 C 
ATOM     21  C2  UNL     1      13.859  25.619  15.219  0.00  0.00    +0.033 C 
ENDBRANCH  19  21
BRANCH  19  22
ATOM     22  O1  UNL     1      13.721  24.686  17.420  0.00  0.00    -0.387 OA
ATOM     23  H7  UNL     1      13.603  25.052  18.315  0.00  0.00    +0.210 HD
ENDBRANCH  19  22
ENDBRANCH   1  19
TORSDOF 5
ENDMDL
MODEL 2
REMARK VINA RESULT:    -3.895      4.294      6.260
REMARK INTER + INTRA:          -5.513
REMARK INTER:                  -4.519
REMARK INTRA:                  -0.994
REMARK UNBOUND:                -0.594
REMARK  Name = /home/vital/Documents/PhD_2021/Malaria_codes/data/pdb_ligands_mmv/ligand_198.pdb
REMARK  6 active torsions:
REMARK  status: ('A' for Active; 'I' for Inactive)
REMARK    1  A    between atoms: C1_1  and  C2_2
REMARK    2  A    between atoms: C2_2  and  C3_3
REMARK    3  A    between atoms: C3_3  and  O1_4
REMARK    4  A    between atoms: C3_3  and  C4_5
REMARK    5  A    between atoms: C9_11  and  N1_12
REMARK    6  A    between atoms: C10_13  and  C11_15
REMARK                            x       y       z     vdW  Elec       q    Type
REMARK                         _______ _______ _______ _____ _____    ______ ____
ROOT
ATOM      1  C4  UNL     1      14.557  27.764  15.893  0.00  0.00    +0.002 A 
ATOM      2  C5  UNL     1      13.966  28.237  14.703  0.00  0.00    +0.009 A 
ATOM      3  C6  UNL     1      14.132  29.559  14.294  0.00  0.00    +0.016 A 
ATOM      4  C7  UNL     1      14.895  30.423  15.068  0.00  0.00    +0.020 A 
ATOM      5 BR1  UNL     1      15.131  32.214  14.507  0.00  0.00    -0.050 Br
ATOM      6  C8  UNL     1      15.482  29.985  16.255  0.00  0.00    +0.039 A 
ATOM      7  C9  UNL     1      15.308  28.664  16.686  0.00  0.00    +0.040 A 
ENDROOT
BRANCH   7   8
ATOM      8  N1  UNL     1      15.839  28.190  17.907  0.00  0.00    -0.281 N 
ATOM      9  C10 UNL     1      15.318  28.308  19.179  0.00  0.00    +0.248 C 
ATOM     10  O2  UNL     1      14.281  28.875  19.501  0.00  0.00    -0.270 OA
ATOM     11  H11 UNL     1      16.643  27.577  17.782  0.00  0.00    +0.155 HD
BRANCH   9  12
ATOM     12  C11 UNL     1      16.117  27.649  20.252  0.00  0.00    +0.038 A 
ATOM     13  C12 UNL     1      16.105  28.112  21.577  0.00  0.00    +0.013 A 
ATOM     14  C13 UNL     1      16.863  27.459  22.552  0.00  0.00    +0.002 A 
ATOM     15  C14 UNL     1      17.627  26.343  22.211  0.00  0.00    +0.020 A 
ATOM     16  C15 UNL     1      17.624  25.876  20.897  0.00  0.00    +0.042 A 
ATOM     17 CL1  UNL     1      18.561  24.492  20.485  0.00  0.00    -0.084 Cl
ATOM     18  C16 UNL     1      16.871  26.518  19.917  0.00  0.00    +0.033 A 
ENDBRANCH   9  12
ENDBRANCH   7   8
BRANCH   1  19
ATOM     19  C3  UNL     1      14.399  26.283  16.213  0.00  0.00    +0.146 C 
BRANCH  19  21
ATOM     20  C1  UNL     1      14.612  24.510  14.372  0.00  0.00    +0.007 C 
ATOM     21  C2  UNL     1      13.703  25.491  15.096  0.00  0.00    +0.033 C 
ENDBRANCH  19  21
BRANCH  19  22
ATOM     22  O1  UNL     1      15.684  25.681  16.427  0.00  0.00    -0.387 OA
ATOM     23  H7  UNL     1      15.928  25.877  17.350  0.00  0.00    +0.210 HD
ENDBRANCH  19  22
ENDBRANCH   1  19
TORSDOF 5
ENDMDL
MODEL 3
REMARK VINA RESULT:    -3.891      3.376      6.198
REMARK INTER + INTRA:          -5.508
REMARK INTER:                  -4.502
REMARK INTRA:                  -1.007
REMARK UNBOUND:                -0.594
REMARK  Name = /home/vital/Documents/PhD_2021/Malaria_codes/data/pdb_ligands_mmv/ligand_198.pdb
REMARK  6 active torsions:
REMARK  status: ('A' for Active; 'I' for Inactive)
REMARK    1  A    between atoms: C1_1  and  C2_2
REMARK    2  A    between atoms: C2_2  and  C3_3
REMARK    3  A    between atoms: C3_3  and  O1_4
REMARK    4  A    between atoms: C3_3  and  C4_5
REMARK    5  A    between atoms: C9_11  and  N1_12
REMARK    6  A    between atoms: C10_13  and  C11_15
REMARK                            x       y       z     vdW  Elec       q    Type
REMARK                         _______ _______ _______ _____ _____    ______ ____
ROOT
ATOM      1  C4  UNL     1      14.669  28.346  15.027  0.00  0.00    +0.002 A 
ATOM      2  C5  UNL     1      14.225  29.481  14.318  0.00  0.00    +0.009 A 
ATOM      3  C6  UNL     1      14.930  30.682  14.368  0.00  0.00    +0.016 A 
ATOM      4  C7  UNL     1      16.093  30.760  15.123  0.00  0.00    +0.020 A 
ATOM      5 BR1  UNL     1      17.058  32.386  15.181  0.00  0.00    -0.050 Br
ATOM      6  C8  UNL     1      16.550  29.656  15.843  0.00  0.00    +0.039 A 
ATOM      7  C9  UNL     1      15.840  28.450  15.816  0.00  0.00    +0.040 A 
ENDROOT
BRANCH   7   8
ATOM      8  N1  UNL     1      16.235  27.322  16.571  0.00  0.00    -0.281 N 
ATOM      9  C10 UNL     1      17.272  26.445  16.334  0.00  0.00    +0.248 C 
ATOM     10  O2  UNL     1      18.056  26.467  15.393  0.00  0.00    -0.270 OA
ATOM     11  H11 UNL     1      15.752  27.252  17.466  0.00  0.00    +0.155 HD
BRANCH   9  12
ATOM     12  C11 UNL     1      17.443  25.377  17.362  0.00  0.00    +0.038 A 
ATOM     13  C12 UNL     1      17.481  24.017  17.019  0.00  0.00    +0.013 A 
ATOM     14  C13 UNL     1      17.651  23.050  18.014  0.00  0.00    +0.002 A 
ATOM     15  C14 UNL     1      17.789  23.437  19.346  0.00  0.00    +0.020 A 
ATOM     16  C15 UNL     1      17.766  24.791  19.682  0.00  0.00    +0.042 A 
ATOM     17 CL1  UNL     1      17.947  25.261  21.328  0.00  0.00    -0.084 Cl
ATOM     18  C16 UNL     1      17.600  25.762  18.699  0.00  0.00    +0.033 A 
ENDBRANCH   9  12
ENDBRANCH   7   8
BRANCH   1  19
ATOM     19  C3  UNL     1      13.886  27.053  14.841  0.00  0.00    +0.146 C 
BRANCH  19  21
ATOM     20  C1  UNL     1      14.591  24.625  14.408  0.00  0.00    +0.007 C 
ATOM     21  C2  UNL     1      14.573  26.057  13.895  0.00  0.00    +0.033 C 
ENDBRANCH  19  21
BRANCH  19  22
ATOM     22  O1  UNL     1      13.711  26.393  16.104  0.00  0.00    -0.387 OA
ATOM     23  H7  UNL     1      13.323  27.052  16.707  0.00  0.00    +0.210 HD
ENDBRANCH  19  22
ENDBRANCH   1  19
TORSDOF 5
ENDMDL
MODEL 4
REMARK VINA RESULT:    -3.810      3.394      5.515
REMARK INTER + INTRA:          -5.407
REMARK INTER:                  -4.348
REMARK INTRA:                  -1.059
REMARK UNBOUND:                -0.594
REMARK  Name = /home/vital/Documents/PhD_2021/Malaria_codes/data/pdb_ligands_mmv/ligand_198.pdb
REMARK  6 active torsions:
REMARK  status: ('A' for Active; 'I' for Inactive)
REMARK    1  A    between atoms: C1_1  and  C2_2
REMARK    2  A    between atoms: C2_2  and  C3_3
REMARK    3  A    between atoms: C3_3  and  O1_4
REMARK    4  A    between atoms: C3_3  and  C4_5
REMARK    5  A    between atoms: C9_11  and  N1_12
REMARK    6  A    between atoms: C10_13  and  C11_15
REMARK                            x       y       z     vdW  Elec       q    Type
REMARK                         _______ _______ _______ _____ _____    ______ ____
ROOT
ATOM      1  C4  UNL     1      18.207  29.651  13.407  0.00  0.00    +0.002 A 
ATOM      2  C5  UNL     1      19.255  30.098  12.576  0.00  0.00    +0.009 A 
ATOM      3  C6  UNL     1      20.316  29.259  12.241  0.00  0.00    +0.016 A 
ATOM      4  C7  UNL     1      20.339  27.959  12.730  0.00  0.00    +0.020 A 
ATOM      5 BR1  UNL     1      21.773  26.815  12.267  0.00  0.00    -0.050 Br
ATOM      6  C8  UNL     1      19.322  27.494  13.563  0.00  0.00    +0.039 A 
ATOM      7  C9  UNL     1      18.260  28.333  13.921  0.00  0.00    +0.040 A 
ENDROOT
BRANCH   7   8
ATOM      8  N1  UNL     1      17.236  27.923  14.804  0.00  0.00    -0.281 N 
ATOM      9  C10 UNL     1      16.277  26.948  14.621  0.00  0.00    +0.248 C 
ATOM     10  O2  UNL     1      16.116  26.250  13.628  0.00  0.00    -0.270 OA
ATOM     11  H11 UNL     1      17.324  28.329  15.735  0.00  0.00    +0.155 HD
BRANCH   9  12
ATOM     12  C11 UNL     1      15.364  26.735  15.782  0.00  0.00    +0.038 A 
ATOM     13  C12 UNL     1      14.578  25.579  15.905  0.00  0.00    +0.013 A 
ATOM     14  C13 UNL     1      13.743  25.417  17.014  0.00  0.00    +0.002 A 
ATOM     15  C14 UNL     1      13.696  26.401  18.001  0.00  0.00    +0.020 A 
ATOM     16  C15 UNL     1      14.490  27.541  17.884  0.00  0.00    +0.042 A 
ATOM     17 CL1  UNL     1      14.433  28.747  19.111  0.00  0.00    -0.084 Cl
ATOM     18  C16 UNL     1      15.327  27.712  16.784  0.00  0.00    +0.033 A 
ENDBRANCH   9  12
ENDBRANCH   7   8
BRANCH   1  19
ATOM     19  C3  UNL     1      17.045  30.606  13.644  0.00  0.00    +0.146 C 
BRANCH  19  21
ATOM     20  C1  UNL     1      14.529  30.142  13.827  0.00  0.00    +0.007 C 
ATOM     21  C2  UNL     1      15.754  30.182  12.927  0.00  0.00    +0.033 C 
ENDBRANCH  19  21
BRANCH  19  22
ATOM     22  O1  UNL     1      16.748  30.688  15.046  0.00  0.00    -0.387 OA
ATOM     23  H7  UNL     1      15.847  30.334  15.157  0.00  0.00    +0.210 HD
ENDBRANCH  19  22
ENDBRANCH   1  19
TORSDOF 5
ENDMDL
MODEL 5
REMARK VINA RESULT:    -3.793      3.978      6.394
REMARK INTER + INTRA:          -5.385
REMARK INTER:                  -4.468
REMARK INTRA:                  -0.917
REMARK UNBOUND:                -0.594
REMARK  Name = /home/vital/Documents/PhD_2021/Malaria_codes/data/pdb_ligands_mmv/ligand_198.pdb
REMARK  6 active torsions:
REMARK  status: ('A' for Active; 'I' for Inactive)
REMARK    1  A    between atoms: C1_1  and  C2_2
REMARK    2  A    between atoms: C2_2  and  C3_3
REMARK    3  A    between atoms: C3_3  and  O1_4
REMARK    4  A    between atoms: C3_3  and  C4_5
REMARK    5  A    between atoms: C9_11  and  N1_12
REMARK    6  A    between atoms: C10_13  and  C11_15
REMARK                            x       y       z     vdW  Elec       q    Type
REMARK                         _______ _______ _______ _____ _____    ______ ____
ROOT
ATOM      1  C4  UNL     1      15.306  26.389  14.937  0.00  0.00    +0.002 A 
ATOM      2  C5  UNL     1      14.014  26.877  14.654  0.00  0.00    +0.009 A 
ATOM      3  C6  UNL     1      13.803  28.220  14.348  0.00  0.00    +0.016 A 
ATOM      4  C7  UNL     1      14.885  29.091  14.314  0.00  0.00    +0.020 A 
ATOM      5 BR1  UNL     1      14.601  30.912  13.886  0.00  0.00    -0.050 Br
ATOM      6  C8  UNL     1      16.172  28.638  14.600  0.00  0.00    +0.039 A 
ATOM      7  C9  UNL     1      16.395  27.295  14.927  0.00  0.00    +0.040 A 
ENDROOT
BRANCH   7   8
ATOM      8  N1  UNL     1      17.672  26.802  15.276  0.00  0.00    -0.281 N 
ATOM      9  C10 UNL     1      18.209  26.606  16.531  0.00  0.00    +0.248 C 
ATOM     10  O2  UNL     1      17.675  26.845  17.606  0.00  0.00    -0.270 OA
ATOM     11  H11 UNL     1      18.189  26.433  14.478  0.00  0.00    +0.155 HD
BRANCH   9  12
ATOM     12  C11 UNL     1      19.583  26.024  16.546  0.00  0.00    +0.038 A 
ATOM     13  C12 UNL     1      20.651  26.626  15.863  0.00  0.00    +0.013 A 
ATOM     14  C13 UNL     1      21.924  26.051  15.911  0.00  0.00    +0.002 A 
ATOM     15  C14 UNL     1      22.134  24.882  16.642  0.00  0.00    +0.020 A 
ATOM     16  C15 UNL     1      21.074  24.295  17.332  0.00  0.00    +0.042 A 
ATOM     17 CL1  UNL     1      21.343  22.857  18.240  0.00  0.00    -0.084 Cl
ATOM     18  C16 UNL     1      19.802  24.861  17.293  0.00  0.00    +0.033 A 
ENDBRANCH   9  12
ENDBRANCH   7   8
BRANCH   1  19
ATOM     19  C3  UNL     1      15.454  24.892  15.171  0.00  0.00    +0.146 C 
BRANCH  19  21
ATOM     20  C1  UNL     1      16.074  23.627  17.315  0.00  0.00    +0.007 C 
ATOM     21  C2  UNL     1      15.029  24.452  16.581  0.00  0.00    +0.033 C 
ENDBRANCH  19  21
BRANCH  19  22
ATOM     22  O1  UNL     1      14.648  24.161  14.234  0.00  0.00    -0.387 OA
ATOM     23  H7  UNL     1      14.626  24.692  13.418  0.00  0.00    +0.210 HD
ENDBRANCH  19  22
ENDBRANCH   1  19
TORSDOF 5
ENDMDL
MODEL 6
REMARK VINA RESULT:    -3.733      3.617      6.293
REMARK INTER + INTRA:          -5.309
REMARK INTER:                  -4.434
REMARK INTRA:                  -0.875
REMARK UNBOUND:                -0.594
REMARK  Name = /home/vital/Documents/PhD_2021/Malaria_codes/data/pdb_ligands_mmv/ligand_198.pdb
REMARK  6 active torsions:
REMARK  status: ('A' for Active; 'I' for Inactive)
REMARK    1  A    between atoms: C1_1  and  C2_2
REMARK    2  A    between atoms: C2_2  and  C3_3
REMARK    3  A    between atoms: C3_3  and  O1_4
REMARK    4  A    between atoms: C3_3  and  C4_5
REMARK    5  A    between atoms: C9_11  and  N1_12
REMARK    6  A    between atoms: C10_13  and  C11_15
REMARK                            x       y       z     vdW  Elec       q    Type
REMARK                         _______ _______ _______ _____ _____    ______ ____
ROOT
ATOM      1  C4  UNL     1      14.733  28.432  15.002  0.00  0.00    +0.002 A 
ATOM      2  C5  UNL     1      14.220  29.481  14.211  0.00  0.00    +0.009 A 
ATOM      3  C6  UNL     1      14.783  30.756  14.253  0.00  0.00    +0.016 A 
ATOM      4  C7  UNL     1      15.869  30.995  15.085  0.00  0.00    +0.020 A 
ATOM      5 BR1  UNL     1      16.641  32.721  15.134  0.00  0.00    -0.050 Br
ATOM      6  C8  UNL     1      16.390  29.979  15.886  0.00  0.00    +0.039 A 
ATOM      7  C9  UNL     1      15.822  28.699  15.866  0.00  0.00    +0.040 A 
ENDROOT
BRANCH   7   8
ATOM      8  N1  UNL     1      16.281  27.654  16.698  0.00  0.00    -0.281 N 
ATOM      9  C10 UNL     1      16.237  27.564  18.074  0.00  0.00    +0.248 C 
ATOM     10  O2  UNL     1      15.799  28.399  18.854  0.00  0.00    -0.270 OA
ATOM     11  H11 UNL     1      16.556  26.821  16.179  0.00  0.00    +0.155 HD
BRANCH   9  12
ATOM     12  C11 UNL     1      16.774  26.292  18.640  0.00  0.00    +0.038 A 
ATOM     13  C12 UNL     1      17.176  26.187  19.981  0.00  0.00    +0.013 A 
ATOM     14  C13 UNL     1      17.664  24.974  20.471  0.00  0.00    +0.002 A 
ATOM     15  C14 UNL     1      17.747  23.864  19.630  0.00  0.00    +0.020 A 
ATOM     16  C15 UNL     1      17.332  23.967  18.303  0.00  0.00    +0.042 A 
ATOM     17 CL1  UNL     1      17.428  22.590  17.273  0.00  0.00    -0.084 Cl
ATOM     18  C16 UNL     1      16.842  25.171  17.804  0.00  0.00    +0.033 A 
ENDBRANCH   9  12
ENDBRANCH   7   8
BRANCH   1  19
ATOM     19  C3  UNL     1      14.114  27.053  14.822  0.00  0.00    +0.146 C 
BRANCH  19  21
ATOM     20  C1  UNL     1      14.691  24.584  14.432  0.00  0.00    +0.007 C 
ATOM     21  C2  UNL     1      15.071  26.035  14.184  0.00  0.00    +0.033 C 
ENDBRANCH  19  21
BRANCH  19  22
ATOM     22  O1  UNL     1      13.709  26.521  16.093  0.00  0.00    -0.387 OA
ATOM     23  H7  UNL     1      14.204  27.019  16.769  0.00  0.00    +0.210 HD
ENDBRANCH  19  22
ENDBRANCH   1  19
TORSDOF 5
ENDMDL
MODEL 7
REMARK VINA RESULT:    -3.708      3.673      6.455
REMARK INTER + INTRA:          -5.278
REMARK INTER:                  -4.243
REMARK INTRA:                  -1.035
REMARK UNBOUND:                -0.594
REMARK  Name = /home/vital/Documents/PhD_2021/Malaria_codes/data/pdb_ligands_mmv/ligand_198.pdb
REMARK  6 active torsions:
REMARK  status: ('A' for Active; 'I' for Inactive)
REMARK    1  A    between atoms: C1_1  and  C2_2
REMARK    2  A    between atoms: C2_2  and  C3_3
REMARK    3  A    between atoms: C3_3  and  O1_4
REMARK    4  A    between atoms: C3_3  and  C4_5
REMARK    5  A    between atoms: C9_11  and  N1_12
REMARK    6  A    between atoms: C10_13  and  C11_15
REMARK                            x       y       z     vdW  Elec       q    Type
REMARK                         _______ _______ _______ _____ _____    ______ ____
ROOT
ATOM      1  C4  UNL     1      15.578  31.718  15.772  0.00  0.00    +0.002 A 
ATOM      2  C5  UNL     1      15.813  33.021  16.257  0.00  0.00    +0.009 A 
ATOM      3  C6  UNL     1      15.996  33.261  17.618  0.00  0.00    +0.016 A 
ATOM      4  C7  UNL     1      15.950  32.197  18.510  0.00  0.00    +0.020 A 
ATOM      5 BR1  UNL     1      16.210  32.520  20.356  0.00  0.00    -0.050 Br
ATOM      6  C8  UNL     1      15.707  30.900  18.060  0.00  0.00    +0.039 A 
ATOM      7  C9  UNL     1      15.505  30.649  16.698  0.00  0.00    +0.040 A 
ENDROOT
BRANCH   7   8
ATOM      8  N1  UNL     1      15.204  29.361  16.202  0.00  0.00    -0.281 N 
ATOM      9  C10 UNL     1      16.006  28.240  16.166  0.00  0.00    +0.248 C 
ATOM     10  O2  UNL     1      17.166  28.151  16.549  0.00  0.00    -0.270 OA
ATOM     11  H11 UNL     1      14.219  29.243  15.966  0.00  0.00    +0.155 HD
BRANCH   9  12
ATOM     12  C11 UNL     1      15.358  27.017  15.610  0.00  0.00    +0.038 A 
ATOM     13  C12 UNL     1      14.263  27.089  14.735  0.00  0.00    +0.013 A 
ATOM     14  C13 UNL     1      13.691  25.918  14.232  0.00  0.00    +0.002 A 
ATOM     15  C14 UNL     1      14.213  24.676  14.594  0.00  0.00    +0.020 A 
ATOM     16  C15 UNL     1      15.311  24.607  15.450  0.00  0.00    +0.042 A 
ATOM     17 CL1  UNL     1      15.955  23.071  15.884  0.00  0.00    -0.084 Cl
ATOM     18  C16 UNL     1      15.890  25.769  15.956  0.00  0.00    +0.033 A 
ENDBRANCH   9  12
ENDBRANCH   7   8
BRANCH   1  19
ATOM     19  C3  UNL     1      15.481  31.539  14.263  0.00  0.00    +0.146 C 
BRANCH  19  21
ATOM     20  C1  UNL     1      16.328  29.654  12.743  0.00  0.00    +0.007 C 
ATOM     21  C2  UNL     1      16.692  30.812  13.659  0.00  0.00    +0.033 C 
ENDBRANCH  19  21
BRANCH  19  22
ATOM     22  O1  UNL     1      14.313  30.775  13.927  0.00  0.00    -0.387 OA
ATOM     23  H7  UNL     1      13.741  31.365  13.404  0.00  0.00    +0.210 HD
ENDBRANCH  19  22
ENDBRANCH   1  19
TORSDOF 5
ENDMDL
