MODEL 1
REMARK VINA RESULT:    -3.414      0.000      0.000
REMARK INTER + INTRA:          -3.858
REMARK INTER:                  -4.412
REMARK INTRA:                   0.555
REMARK UNBOUND:                 0.555
REMARK  Name = /home/vital/Documents/PhD_2021/Malaria_codes/data/pdb_ligands_mmv/ligand_378.pdb
REMARK  12 active torsions:
REMARK  status: ('A' for Active; 'I' for Inactive)
REMARK    1  A    between atoms: C1_1  and  C2_2
REMARK    2  A    between atoms: C2_2  and  C3_3
REMARK    3  A    between atoms: C3_3  and  C4_4
REMARK    4  A    between atoms: C4_4  and  N1_5
REMARK    5  A    between atoms: N3_9  and  C7_10
REMARK    6  A    between atoms: C7_10  and  C8_11
REMARK    7  A    between atoms: C7_10  and  C9_12
REMARK    8  A    between atoms: C7_10  and  C10_13
REMARK    9  A    between atoms: N5_16  and  C12_17
REMARK   10  A    between atoms: C12_17  and  C13_18
REMARK   11  A    between atoms: C12_17  and  C14_19
REMARK   12  A    between atoms: C12_17  and  C15_20
REMARK                            x       y       z     vdW  Elec       q    Type
REMARK                         _______ _______ _______ _____ _____    ______ ____
ROOT
ATOM      1  N1  UNL     1      13.690  26.851  14.905  0.00  0.00    -0.313 N 
ATOM      2  C5  UNL     1      14.522  27.780  15.528  0.00  0.00    +0.221 A 
ATOM      3  N2  UNL     1      14.714  27.740  16.838  0.00  0.00    -0.181 NA
ATOM      4  C6  UNL     1      15.523  28.664  17.330  0.00  0.00    +0.221 A 
ATOM      5  N3  UNL     1      15.720  28.592  18.696  0.00  0.00    -0.309 N 
ATOM      6  N4  UNL     1      16.119  29.590  16.597  0.00  0.00    -0.181 NA
ATOM      7  C11 UNL     1      15.872  29.554  15.297  0.00  0.00    +0.221 A 
ATOM      8  N5  UNL     1      16.520  30.526  14.557  0.00  0.00    -0.309 N 
ATOM      9  N6  UNL     1      15.078  28.667  14.720  0.00  0.00    -0.181 NA
ATOM     10  H10 UNL     1      13.946  26.881  13.924  0.00  0.00    +0.149 HD
ATOM     11  H11 UNL     1      14.995  27.972  19.045  0.00  0.00    +0.149 HD
ATOM     12  H21 UNL     1      16.883  31.182  15.244  0.00  0.00    +0.149 HD
ENDROOT
BRANCH   5  13
ATOM     13  C7  UNL     1      15.967  29.782  19.515  0.00  0.00    +0.026 C 
ATOM     14  C8  UNL     1      14.962  30.901  19.203  0.00  0.00    +0.031 C 
ATOM     15  C9  UNL     1      15.766  29.350  20.984  0.00  0.00    +0.031 C 
ATOM     16  C10 UNL     1      17.411  30.284  19.369  0.00  0.00    +0.031 C 
ENDBRANCH   5  13
BRANCH   8  17
ATOM     17  C12 UNL     1      15.893  31.153  13.388  0.00  0.00    +0.026 C 
ATOM     18  C13 UNL     1      14.498  31.628  13.850  0.00  0.00    +0.031 C 
ATOM     19  C14 UNL     1      15.703  30.146  12.244  0.00  0.00    +0.031 C 
ATOM     20  C15 UNL     1      16.674  32.388  12.914  0.00  0.00    +0.031 C 
ENDBRANCH   8  17
BRANCH   1  21
ATOM     21  C4  UNL     1      13.712  25.530  15.511  0.00  0.00    +0.104 C 
BRANCH  21  22
ATOM     22  C3  UNL     1      14.588  24.605  14.663  0.00  0.00    +0.018 C 
BRANCH  22  24
ATOM     23  C1  UNL     1      15.423  24.159  17.000  0.00  0.00    +0.004 C 
ATOM     24  C2  UNL     1      15.501  23.748  15.539  0.00  0.00    -0.002 C 
ENDBRANCH  22  24
ENDBRANCH  21  22
ENDBRANCH   1  21
TORSDOF 5
ENDMDL
MODEL 2
REMARK VINA RESULT:    -3.390      1.884      5.176
REMARK INTER + INTRA:          -3.826
REMARK INTER:                  -4.351
REMARK INTRA:                   0.526
REMARK UNBOUND:                 0.555
REMARK  Name = /home/vital/Documents/PhD_2021/Malaria_codes/data/pdb_ligands_mmv/ligand_378.pdb
REMARK  12 active torsions:
REMARK  status: ('A' for Active; 'I' for Inactive)
REMARK    1  A    between atoms: C1_1  and  C2_2
REMARK    2  A    between atoms: C2_2  and  C3_3
REMARK    3  A    between atoms: C3_3  and  C4_4
REMARK    4  A    between atoms: C4_4  and  N1_5
REMARK    5  A    between atoms: N3_9  and  C7_10
REMARK    6  A    between atoms: C7_10  and  C8_11
REMARK    7  A    between atoms: C7_10  and  C9_12
REMARK    8  A    between atoms: C7_10  and  C10_13
REMARK    9  A    between atoms: N5_16  and  C12_17
REMARK   10  A    between atoms: C12_17  and  C13_18
REMARK   11  A    between atoms: C12_17  and  C14_19
REMARK   12  A    between atoms: C12_17  and  C15_20
REMARK                            x       y       z     vdW  Elec       q    Type
REMARK                         _______ _______ _______ _____ _____    ______ ____
ROOT
ATOM      1  N1  UNL     1      14.514  29.175  19.094  0.00  0.00    -0.313 N 
ATOM      2  C5  UNL     1      14.726  28.220  18.101  0.00  0.00    +0.221 A 
ATOM      3  N2  UNL     1      14.924  26.950  18.420  0.00  0.00    -0.181 NA
ATOM      4  C6  UNL     1      15.114  26.124  17.404  0.00  0.00    +0.221 A 
ATOM      5  N3  UNL     1      15.303  24.802  17.760  0.00  0.00    -0.309 N 
ATOM      6  N4  UNL     1      15.118  26.502  16.136  0.00  0.00    -0.181 NA
ATOM      7  C11 UNL     1      14.911  27.789  15.910  0.00  0.00    +0.221 A 
ATOM      8  N5  UNL     1      14.908  28.150  14.574  0.00  0.00    -0.309 N 
ATOM      9  N6  UNL     1      14.712  28.684  16.863  0.00  0.00    -0.181 NA
ATOM     10  H10 UNL     1      14.088  29.963  18.618  0.00  0.00    +0.149 HD
ATOM     11  H11 UNL     1      15.487  24.811  18.759  0.00  0.00    +0.149 HD
ATOM     12  H21 UNL     1      15.281  27.343  14.082  0.00  0.00    +0.149 HD
ENDROOT
BRANCH   5  13
ATOM     13  C7  UNL     1      16.149  23.894  16.981  0.00  0.00    +0.026 C 
ATOM     14  C8  UNL     1      17.561  24.466  16.786  0.00  0.00    +0.031 C 
ATOM     15  C9  UNL     1      16.265  22.593  17.803  0.00  0.00    +0.031 C 
ATOM     16  C10 UNL     1      15.509  23.538  15.630  0.00  0.00    +0.031 C 
ENDBRANCH   5  13
BRANCH   8  17
ATOM     17  C12 UNL     1      15.442  29.440  14.121  0.00  0.00    +0.026 C 
ATOM     18  C13 UNL     1      15.744  29.276  12.616  0.00  0.00    +0.031 C 
ATOM     19  C14 UNL     1      16.754  29.789  14.840  0.00  0.00    +0.031 C 
ATOM     20  C15 UNL     1      14.411  30.568  14.271  0.00  0.00    +0.031 C 
ENDBRANCH   8  17
BRANCH   1  21
ATOM     21  C4  UNL     1      13.783  28.682  20.249  0.00  0.00    +0.104 C 
BRANCH  21  22
ATOM     22  C3  UNL     1      14.268  29.416  21.501  0.00  0.00    +0.018 C 
BRANCH  22  24
ATOM     23  C1  UNL     1      13.855  28.021  23.560  0.00  0.00    +0.004 C 
ATOM     24  C2  UNL     1      14.874  28.447  22.515  0.00  0.00    -0.002 C 
ENDBRANCH  22  24
ENDBRANCH  21  22
ENDBRANCH   1  21
TORSDOF 5
ENDMDL
MODEL 3
REMARK VINA RESULT:    -3.388      2.478      5.738
REMARK INTER + INTRA:          -3.824
REMARK INTER:                  -4.248
REMARK INTRA:                   0.424
REMARK UNBOUND:                 0.555
REMARK  Name = /home/vital/Documents/PhD_2021/Malaria_codes/data/pdb_ligands_mmv/ligand_378.pdb
REMARK  12 active torsions:
REMARK  status: ('A' for Active; 'I' for Inactive)
REMARK    1  A    between atoms: C1_1  and  C2_2
REMARK    2  A    between atoms: C2_2  and  C3_3
REMARK    3  A    between atoms: C3_3  and  C4_4
REMARK    4  A    between atoms: C4_4  and  N1_5
REMARK    5  A    between atoms: N3_9  and  C7_10
REMARK    6  A    between atoms: C7_10  and  C8_11
REMARK    7  A    between atoms: C7_10  and  C9_12
REMARK    8  A    between atoms: C7_10  and  C10_13
REMARK    9  A    between atoms: N5_16  and  C12_17
REMARK   10  A    between atoms: C12_17  and  C13_18
REMARK   11  A    between atoms: C12_17  and  C14_19
REMARK   12  A    between atoms: C12_17  and  C15_20
REMARK                            x       y       z     vdW  Elec       q    Type
REMARK                         _______ _______ _______ _____ _____    ______ ____
ROOT
ATOM      1  N1  UNL     1      16.026  26.395  14.964  0.00  0.00    -0.313 N 
ATOM      2  C5  UNL     1      15.811  26.380  16.340  0.00  0.00    +0.221 A 
ATOM      3  N2  UNL     1      15.161  27.372  16.931  0.00  0.00    -0.181 NA
ATOM      4  C6  UNL     1      15.008  27.260  18.241  0.00  0.00    +0.221 A 
ATOM      5  N3  UNL     1      14.314  28.299  18.833  0.00  0.00    -0.309 N 
ATOM      6  N4  UNL     1      15.463  26.243  18.954  0.00  0.00    -0.181 NA
ATOM      7  C11 UNL     1      16.099  25.297  18.281  0.00  0.00    +0.221 A 
ATOM      8  N5  UNL     1      16.551  24.242  19.053  0.00  0.00    -0.309 N 
ATOM      9  N6  UNL     1      16.297  25.326  16.974  0.00  0.00    -0.181 NA
ATOM     10  H10 UNL     1      16.241  25.435  14.717  0.00  0.00    +0.149 HD
ATOM     11  H11 UNL     1      14.284  29.039  18.138  0.00  0.00    +0.149 HD
ATOM     12  H21 UNL     1      16.458  24.559  20.014  0.00  0.00    +0.149 HD
ENDROOT
BRANCH   5  13
ATOM     13  C7  UNL     1      14.586  28.743  20.202  0.00  0.00    +0.026 C 
ATOM     14  C8  UNL     1      16.071  28.588  20.561  0.00  0.00    +0.031 C 
ATOM     15  C9  UNL     1      14.233  30.245  20.252  0.00  0.00    +0.031 C 
ATOM     16  C10 UNL     1      13.696  28.020  21.223  0.00  0.00    +0.031 C 
ENDBRANCH   5  13
BRANCH   8  17
ATOM     17  C12 UNL     1      17.813  23.554  18.758  0.00  0.00    +0.026 C 
ATOM     18  C13 UNL     1      18.116  22.665  19.983  0.00  0.00    +0.031 C 
ATOM     19  C14 UNL     1      18.970  24.549  18.588  0.00  0.00    +0.031 C 
ATOM     20  C15 UNL     1      17.689  22.635  17.533  0.00  0.00    +0.031 C 
ENDBRANCH   8  17
BRANCH   1  21
ATOM     21  C4  UNL     1      14.951  27.004  14.198  0.00  0.00    +0.104 C 
BRANCH  21  22
ATOM     22  C3  UNL     1      15.548  27.988  13.190  0.00  0.00    +0.018 C 
BRANCH  22  24
ATOM     23  C1  UNL     1      14.210  29.774  14.362  0.00  0.00    +0.004 C 
ATOM     24  C2  UNL     1      15.548  29.415  13.738  0.00  0.00    -0.002 C 
ENDBRANCH  22  24
ENDBRANCH  21  22
ENDBRANCH   1  21
TORSDOF 5
ENDMDL
MODEL 4
REMARK VINA RESULT:    -3.206      2.723      5.605
REMARK INTER + INTRA:          -3.588
REMARK INTER:                  -3.996
REMARK INTRA:                   0.408
REMARK UNBOUND:                 0.555
REMARK  Name = /home/vital/Documents/PhD_2021/Malaria_codes/data/pdb_ligands_mmv/ligand_378.pdb
REMARK  12 active torsions:
REMARK  status: ('A' for Active; 'I' for Inactive)
REMARK    1  A    between atoms: C1_1  and  C2_2
REMARK    2  A    between atoms: C2_2  and  C3_3
REMARK    3  A    between atoms: C3_3  and  C4_4
REMARK    4  A    between atoms: C4_4  and  N1_5
REMARK    5  A    between atoms: N3_9  and  C7_10
REMARK    6  A    between atoms: C7_10  and  C8_11
REMARK    7  A    between atoms: C7_10  and  C9_12
REMARK    8  A    between atoms: C7_10  and  C10_13
REMARK    9  A    between atoms: N5_16  and  C12_17
REMARK   10  A    between atoms: C12_17  and  C13_18
REMARK   11  A    between atoms: C12_17  and  C14_19
REMARK   12  A    between atoms: C12_17  and  C15_20
REMARK                            x       y       z     vdW  Elec       q    Type
REMARK                         _______ _______ _______ _____ _____    ______ ____
ROOT
ATOM      1  N1  UNL     1      15.110  25.564  15.976  0.00  0.00    -0.313 N 
ATOM      2  C5  UNL     1      15.360  25.931  17.297  0.00  0.00    +0.221 A 
ATOM      3  N2  UNL     1      14.705  26.941  17.850  0.00  0.00    -0.181 NA
ATOM      4  C6  UNL     1      15.014  27.207  19.109  0.00  0.00    +0.221 A 
ATOM      5  N3  UNL     1      14.307  28.254  19.670  0.00  0.00    -0.309 N 
ATOM      6  N4  UNL     1      15.916  26.535  19.806  0.00  0.00    -0.181 NA
ATOM      7  C11 UNL     1      16.520  25.541  19.175  0.00  0.00    +0.221 A 
ATOM      8  N5  UNL     1      17.447  24.850  19.934  0.00  0.00    -0.309 N 
ATOM      9  N6  UNL     1      16.273  25.205  17.919  0.00  0.00    -0.181 NA
ATOM     10  H10 UNL     1      15.470  24.619  15.890  0.00  0.00    +0.149 HD
ATOM     11  H11 UNL     1      13.869  28.737  18.891  0.00  0.00    +0.149 HD
ATOM     12  H21 UNL     1      17.590  25.424  20.761  0.00  0.00    +0.149 HD
ENDROOT
BRANCH   5  13
ATOM     13  C7  UNL     1      14.883  29.127  20.696  0.00  0.00    +0.026 C 
ATOM     14  C8  UNL     1      16.311  29.558  20.334  0.00  0.00    +0.031 C 
ATOM     15  C9  UNL     1      13.996  30.389  20.744  0.00  0.00    +0.031 C 
ATOM     16  C10 UNL     1      14.842  28.475  22.086  0.00  0.00    +0.031 C 
ENDBRANCH   5  13
BRANCH   8  17
ATOM     17  C12 UNL     1      18.678  24.309  19.346  0.00  0.00    +0.026 C 
ATOM     18  C13 UNL     1      19.598  23.947  20.532  0.00  0.00    +0.031 C 
ATOM     19  C14 UNL     1      19.396  25.357  18.483  0.00  0.00    +0.031 C 
ATOM     20  C15 UNL     1      18.413  23.023  18.550  0.00  0.00    +0.031 C 
ENDBRANCH   8  17
BRANCH   1  21
ATOM     21  C4  UNL     1      13.729  25.739  15.559  0.00  0.00    +0.104 C 
BRANCH  21  22
ATOM     22  C3  UNL     1      13.697  26.541  14.255  0.00  0.00    +0.018 C 
BRANCH  22  24
ATOM     23  C1  UNL     1      15.448  28.165  13.448  0.00  0.00    +0.004 C 
ATOM     24  C2  UNL     1      14.320  27.924  14.437  0.00  0.00    -0.002 C 
ENDBRANCH  22  24
ENDBRANCH  21  22
ENDBRANCH   1  21
TORSDOF 5
ENDMDL
MODEL 5
REMARK VINA RESULT:    -3.163      3.841      5.465
REMARK INTER + INTRA:          -3.533
REMARK INTER:                  -4.103
REMARK INTRA:                   0.570
REMARK UNBOUND:                 0.555
REMARK  Name = /home/vital/Documents/PhD_2021/Malaria_codes/data/pdb_ligands_mmv/ligand_378.pdb
REMARK  12 active torsions:
REMARK  status: ('A' for Active; 'I' for Inactive)
REMARK    1  A    between atoms: C1_1  and  C2_2
REMARK    2  A    between atoms: C2_2  and  C3_3
REMARK    3  A    between atoms: C3_3  and  C4_4
REMARK    4  A    between atoms: C4_4  and  N1_5
REMARK    5  A    between atoms: N3_9  and  C7_10
REMARK    6  A    between atoms: C7_10  and  C8_11
REMARK    7  A    between atoms: C7_10  and  C9_12
REMARK    8  A    between atoms: C7_10  and  C10_13
REMARK    9  A    between atoms: N5_16  and  C12_17
REMARK   10  A    between atoms: C12_17  and  C13_18
REMARK   11  A    between atoms: C12_17  and  C14_19
REMARK   12  A    between atoms: C12_17  and  C15_20
REMARK                            x       y       z     vdW  Elec       q    Type
REMARK                         _______ _______ _______ _____ _____    ______ ____
ROOT
ATOM      1  N1  UNL     1      20.190  28.180  13.936  0.00  0.00    -0.313 N 
ATOM      2  C5  UNL     1      18.899  27.935  14.398  0.00  0.00    +0.221 A 
ATOM      3  N2  UNL     1      18.576  26.751  14.899  0.00  0.00    -0.181 NA
ATOM      4  C6  UNL     1      17.325  26.623  15.311  0.00  0.00    +0.221 A 
ATOM      5  N3  UNL     1      17.015  25.386  15.844  0.00  0.00    -0.309 N 
ATOM      6  N4  UNL     1      16.421  27.587  15.242  0.00  0.00    -0.181 NA
ATOM      7  C11 UNL     1      16.832  28.736  14.729  0.00  0.00    +0.221 A 
ATOM      8  N5  UNL     1      15.868  29.727  14.683  0.00  0.00    -0.309 N 
ATOM      9  N6  UNL     1      18.061  28.953  14.293  0.00  0.00    -0.181 NA
ATOM     10  H10 UNL     1      20.276  29.190  13.907  0.00  0.00    +0.149 HD
ATOM     11  H11 UNL     1      17.779  24.773  15.574  0.00  0.00    +0.149 HD
ATOM     12  H21 UNL     1      14.991  29.251  14.875  0.00  0.00    +0.149 HD
ENDROOT
BRANCH   5  13
ATOM     13  C7  UNL     1      15.679  24.797  15.732  0.00  0.00    +0.026 C 
ATOM     14  C8  UNL     1      15.073  25.030  14.341  0.00  0.00    +0.031 C 
ATOM     15  C9  UNL     1      15.853  23.277  15.934  0.00  0.00    +0.031 C 
ATOM     16  C10 UNL     1      14.737  25.309  16.833  0.00  0.00    +0.031 C 
ENDBRANCH   5  13
BRANCH   8  17
ATOM     17  C12 UNL     1      15.808  30.695  13.582  0.00  0.00    +0.026 C 
ATOM     18  C13 UNL     1      14.548  31.552  13.830  0.00  0.00    +0.031 C 
ATOM     19  C14 UNL     1      15.652  29.994  12.224  0.00  0.00    +0.031 C 
ATOM     20  C15 UNL     1      17.021  31.637  13.582  0.00  0.00    +0.031 C 
ENDBRANCH   8  17
BRANCH   1  21
ATOM     21  C4  UNL     1      21.231  27.493  14.682  0.00  0.00    +0.104 C 
BRANCH  21  22
ATOM     22  C3  UNL     1      22.567  27.668  13.957  0.00  0.00    +0.018 C 
BRANCH  22  24
ATOM     23  C1  UNL     1      23.824  25.762  12.889  0.00  0.00    +0.004 C 
ATOM     24  C2  UNL     1      22.670  26.740  12.747  0.00  0.00    -0.002 C 
ENDBRANCH  22  24
ENDBRANCH  21  22
ENDBRANCH   1  21
TORSDOF 5
ENDMDL
MODEL 6
REMARK VINA RESULT:    -3.108      3.121      4.526
REMARK INTER + INTRA:          -3.462
REMARK INTER:                  -3.853
REMARK INTRA:                   0.391
REMARK UNBOUND:                 0.555
REMARK  Name = /home/vital/Documents/PhD_2021/Malaria_codes/data/pdb_ligands_mmv/ligand_378.pdb
REMARK  12 active torsions:
REMARK  status: ('A' for Active; 'I' for Inactive)
REMARK    1  A    between atoms: C1_1  and  C2_2
REMARK    2  A    between atoms: C2_2  and  C3_3
REMARK    3  A    between atoms: C3_3  and  C4_4
REMARK    4  A    between atoms: C4_4  and  N1_5
REMARK    5  A    between atoms: N3_9  and  C7_10
REMARK    6  A    between atoms: C7_10  and  C8_11
REMARK    7  A    between atoms: C7_10  and  C9_12
REMARK    8  A    between atoms: C7_10  and  C10_13
REMARK    9  A    between atoms: N5_16  and  C12_17
REMARK   10  A    between atoms: C12_17  and  C13_18
REMARK   11  A    between atoms: C12_17  and  C14_19
REMARK   12  A    between atoms: C12_17  and  C15_20
REMARK                            x       y       z     vdW  Elec       q    Type
REMARK                         _______ _______ _______ _____ _____    ______ ____
ROOT
ATOM      1  N1  UNL     1      15.509  27.719  16.475  0.00  0.00    -0.313 N 
ATOM      2  C5  UNL     1      16.434  28.051  15.487  0.00  0.00    +0.221 A 
ATOM      3  N2  UNL     1      17.544  27.342  15.339  0.00  0.00    -0.181 NA
ATOM      4  C6  UNL     1      18.354  27.738  14.370  0.00  0.00    +0.221 A 
ATOM      5  N3  UNL     1      19.497  26.975  14.224  0.00  0.00    -0.309 N 
ATOM      6  N4  UNL     1      18.112  28.772  13.581  0.00  0.00    -0.181 NA
ATOM      7  C11 UNL     1      16.979  29.421  13.799  0.00  0.00    +0.221 A 
ATOM      8  N5  UNL     1      16.750  30.488  12.949  0.00  0.00    -0.309 N 
ATOM      9  N6  UNL     1      16.112  29.095  14.743  0.00  0.00    -0.181 NA
ATOM     10  H10 UNL     1      14.646  28.173  16.195  0.00  0.00    +0.149 HD
ATOM     11  H11 UNL     1      19.561  26.413  15.068  0.00  0.00    +0.149 HD
ATOM     12  H21 UNL     1      17.636  30.644  12.477  0.00  0.00    +0.149 HD
ENDROOT
BRANCH   5  13
ATOM     13  C7  UNL     1      20.765  27.544  13.760  0.00  0.00    +0.026 C 
ATOM     14  C8  UNL     1      21.048  28.902  14.418  0.00  0.00    +0.031 C 
ATOM     15  C9  UNL     1      21.871  26.559  14.194  0.00  0.00    +0.031 C 
ATOM     16  C10 UNL     1      20.813  27.655  12.229  0.00  0.00    +0.031 C 
ENDBRANCH   5  13
BRANCH   8  17
ATOM     17  C12 UNL     1      16.080  31.710  13.408  0.00  0.00    +0.026 C 
ATOM     18  C13 UNL     1      16.327  32.772  12.315  0.00  0.00    +0.031 C 
ATOM     19  C14 UNL     1      16.685  32.224  14.723  0.00  0.00    +0.031 C 
ATOM     20  C15 UNL     1      14.561  31.515  13.536  0.00  0.00    +0.031 C 
ENDBRANCH   8  17
BRANCH   1  21
ATOM     21  C4  UNL     1      15.400  26.294  16.737  0.00  0.00    +0.104 C 
BRANCH  21  22
ATOM     22  C3  UNL     1      13.952  25.852  16.515  0.00  0.00    +0.018 C 
BRANCH  22  24
ATOM     23  C1  UNL     1      14.679  24.483  14.527  0.00  0.00    +0.004 C 
ATOM     24  C2  UNL     1      13.692  25.515  15.047  0.00  0.00    -0.002 C 
ENDBRANCH  22  24
ENDBRANCH  21  22
ENDBRANCH   1  21
TORSDOF 5
ENDMDL
MODEL 7
REMARK VINA RESULT:    -2.965      2.128      6.421
REMARK INTER + INTRA:          -3.277
REMARK INTER:                  -3.697
REMARK INTRA:                   0.419
REMARK UNBOUND:                 0.555
REMARK  Name = /home/vital/Documents/PhD_2021/Malaria_codes/data/pdb_ligands_mmv/ligand_378.pdb
REMARK  12 active torsions:
REMARK  status: ('A' for Active; 'I' for Inactive)
REMARK    1  A    between atoms: C1_1  and  C2_2
REMARK    2  A    between atoms: C2_2  and  C3_3
REMARK    3  A    between atoms: C3_3  and  C4_4
REMARK    4  A    between atoms: C4_4  and  N1_5
REMARK    5  A    between atoms: N3_9  and  C7_10
REMARK    6  A    between atoms: C7_10  and  C8_11
REMARK    7  A    between atoms: C7_10  and  C9_12
REMARK    8  A    between atoms: C7_10  and  C10_13
REMARK    9  A    between atoms: N5_16  and  C12_17
REMARK   10  A    between atoms: C12_17  and  C13_18
REMARK   11  A    between atoms: C12_17  and  C14_19
REMARK   12  A    between atoms: C12_17  and  C15_20
REMARK                            x       y       z     vdW  Elec       q    Type
REMARK                         _______ _______ _______ _____ _____    ______ ____
ROOT
ATOM      1  N1  UNL     1      14.031  27.596  20.139  0.00  0.00    -0.313 N 
ATOM      2  C5  UNL     1      14.780  27.580  18.964  0.00  0.00    +0.221 A 
ATOM      3  N2  UNL     1      14.589  28.500  18.030  0.00  0.00    -0.181 NA
ATOM      4  C6  UNL     1      15.353  28.396  16.955  0.00  0.00    +0.221 A 
ATOM      5  N3  UNL     1      15.147  29.376  16.002  0.00  0.00    -0.309 N 
ATOM      6  N4  UNL     1      16.259  27.447  16.781  0.00  0.00    -0.181 NA
ATOM      7  C11 UNL     1      16.383  26.572  17.765  0.00  0.00    +0.221 A 
ATOM      8  N5  UNL     1      17.347  25.601  17.559  0.00  0.00    -0.309 N 
ATOM      9  N6  UNL     1      15.663  26.599  18.874  0.00  0.00    -0.181 NA
ATOM     10  H10 UNL     1      14.553  27.027  20.796  0.00  0.00    +0.149 HD
ATOM     11  H11 UNL     1      14.271  29.824  16.255  0.00  0.00    +0.149 HD
ATOM     12  H21 UNL     1      17.594  25.680  16.577  0.00  0.00    +0.149 HD
ENDROOT
BRANCH   5  13
ATOM     13  C7  UNL     1      15.324  29.125  14.570  0.00  0.00    +0.026 C 
ATOM     14  C8  UNL     1      14.645  27.817  14.137  0.00  0.00    +0.031 C 
ATOM     15  C9  UNL     1      14.635  30.293  13.833  0.00  0.00    +0.031 C 
ATOM     16  C10 UNL     1      16.807  29.131  14.169  0.00  0.00    +0.031 C 
ENDBRANCH   5  13
BRANCH   8  17
ATOM     17  C12 UNL     1      17.171  24.224  18.034  0.00  0.00    +0.026 C 
ATOM     18  C13 UNL     1      18.263  23.384  17.338  0.00  0.00    +0.031 C 
ATOM     19  C14 UNL     1      15.800  23.661  17.630  0.00  0.00    +0.031 C 
ATOM     20  C15 UNL     1      17.390  24.111  19.550  0.00  0.00    +0.031 C 
ENDBRANCH   8  17
BRANCH   1  21
ATOM     21  C4  UNL     1      13.690  28.928  20.610  0.00  0.00    +0.104 C 
BRANCH  21  22
ATOM     22  C3  UNL     1      14.728  29.376  21.642  0.00  0.00    +0.018 C 
BRANCH  22  24
ATOM     23  C1  UNL     1      15.961  28.238  23.523  0.00  0.00    +0.004 C 
ATOM     24  C2  UNL     1      14.600  28.582  22.941  0.00  0.00    -0.002 C 
ENDBRANCH  22  24
ENDBRANCH  21  22
ENDBRANCH   1  21
TORSDOF 5
ENDMDL
MODEL 8
REMARK VINA RESULT:    -2.883      1.165      6.142
REMARK INTER + INTRA:          -3.170
REMARK INTER:                  -3.568
REMARK INTRA:                   0.397
REMARK UNBOUND:                 0.555
REMARK  Name = /home/vital/Documents/PhD_2021/Malaria_codes/data/pdb_ligands_mmv/ligand_378.pdb
REMARK  12 active torsions:
REMARK  status: ('A' for Active; 'I' for Inactive)
REMARK    1  A    between atoms: C1_1  and  C2_2
REMARK    2  A    between atoms: C2_2  and  C3_3
REMARK    3  A    between atoms: C3_3  and  C4_4
REMARK    4  A    between atoms: C4_4  and  N1_5
REMARK    5  A    between atoms: N3_9  and  C7_10
REMARK    6  A    between atoms: C7_10  and  C8_11
REMARK    7  A    between atoms: C7_10  and  C9_12
REMARK    8  A    between atoms: C7_10  and  C10_13
REMARK    9  A    between atoms: N5_16  and  C12_17
REMARK   10  A    between atoms: C12_17  and  C13_18
REMARK   11  A    between atoms: C12_17  and  C14_19
REMARK   12  A    between atoms: C12_17  and  C15_20
REMARK                            x       y       z     vdW  Elec       q    Type
REMARK                         _______ _______ _______ _____ _____    ______ ____
ROOT
ATOM      1  N1  UNL     1      15.807  29.211  19.024  0.00  0.00    -0.313 N 
ATOM      2  C5  UNL     1      15.957  29.077  17.645  0.00  0.00    +0.221 A 
ATOM      3  N2  UNL     1      16.178  30.140  16.886  0.00  0.00    -0.181 NA
ATOM      4  C6  UNL     1      16.308  29.904  15.590  0.00  0.00    +0.221 A 
ATOM      5  N3  UNL     1      16.554  31.025  14.820  0.00  0.00    -0.309 N 
ATOM      6  N4  UNL     1      16.225  28.701  15.046  0.00  0.00    -0.181 NA
ATOM      7  C11 UNL     1      16.004  27.697  15.880  0.00  0.00    +0.221 A 
ATOM      8  N5  UNL     1      15.935  26.452  15.282  0.00  0.00    -0.309 N 
ATOM      9  N6  UNL     1      15.862  27.840  17.187  0.00  0.00    -0.181 NA
ATOM     10  H10 UNL     1      15.965  28.282  19.401  0.00  0.00    +0.149 HD
ATOM     11  H11 UNL     1      16.341  31.819  15.417  0.00  0.00    +0.149 HD
ATOM     12  H21 UNL     1      15.868  26.641  14.286  0.00  0.00    +0.149 HD
ENDROOT
BRANCH   5  13
ATOM     13  C7  UNL     1      16.084  31.144  13.438  0.00  0.00    +0.026 C 
ATOM     14  C8  UNL     1      14.703  30.498  13.253  0.00  0.00    +0.031 C 
ATOM     15  C9  UNL     1      15.951  32.655  13.150  0.00  0.00    +0.031 C 
ATOM     16  C10 UNL     1      17.098  30.566  12.439  0.00  0.00    +0.031 C 
ENDBRANCH   5  13
BRANCH   8  17
ATOM     17  C12 UNL     1      15.022  25.411  15.768  0.00  0.00    +0.026 C 
ATOM     18  C13 UNL     1      14.733  24.493  14.561  0.00  0.00    +0.031 C 
ATOM     19  C14 UNL     1      13.691  26.009  16.247  0.00  0.00    +0.031 C 
ATOM     20  C15 UNL     1      15.669  24.551  16.864  0.00  0.00    +0.031 C 
ENDBRANCH   8  17
BRANCH   1  21
ATOM     21  C4  UNL     1      16.618  30.263  19.613  0.00  0.00    +0.104 C 
BRANCH  21  22
ATOM     22  C3  UNL     1      15.796  30.994  20.678  0.00  0.00    +0.018 C 
BRANCH  22  24
ATOM     23  C1  UNL     1      14.827  32.805  19.216  0.00  0.00    +0.004 C 
ATOM     24  C2  UNL     1      14.523  31.594  20.083  0.00  0.00    -0.002 C 
ENDBRANCH  22  24
ENDBRANCH  21  22
ENDBRANCH   1  21
TORSDOF 5
ENDMDL
MODEL 9
REMARK VINA RESULT:    -2.847      2.571      3.643
REMARK INTER + INTRA:          -3.124
REMARK INTER:                  -3.612
REMARK INTRA:                   0.488
REMARK UNBOUND:                 0.555
REMARK  Name = /home/vital/Documents/PhD_2021/Malaria_codes/data/pdb_ligands_mmv/ligand_378.pdb
REMARK  12 active torsions:
REMARK  status: ('A' for Active; 'I' for Inactive)
REMARK    1  A    between atoms: C1_1  and  C2_2
REMARK    2  A    between atoms: C2_2  and  C3_3
REMARK    3  A    between atoms: C3_3  and  C4_4
REMARK    4  A    between atoms: C4_4  and  N1_5
REMARK    5  A    between atoms: N3_9  and  C7_10
REMARK    6  A    between atoms: C7_10  and  C8_11
REMARK    7  A    between atoms: C7_10  and  C9_12
REMARK    8  A    between atoms: C7_10  and  C10_13
REMARK    9  A    between atoms: N5_16  and  C12_17
REMARK   10  A    between atoms: C12_17  and  C13_18
REMARK   11  A    between atoms: C12_17  and  C14_19
REMARK   12  A    between atoms: C12_17  and  C15_20
REMARK                            x       y       z     vdW  Elec       q    Type
REMARK                         _______ _______ _______ _____ _____    ______ ____
ROOT
ATOM      1  N1  UNL     1      16.730  24.338  17.425  0.00  0.00    -0.313 N 
ATOM      2  C5  UNL     1      16.458  25.660  17.774  0.00  0.00    +0.221 A 
ATOM      3  N2  UNL     1      16.440  26.031  19.046  0.00  0.00    -0.181 NA
ATOM      4  C6  UNL     1      16.174  27.308  19.268  0.00  0.00    +0.221 A 
ATOM      5  N3  UNL     1      16.176  27.675  20.601  0.00  0.00    -0.309 N 
ATOM      6  N4  UNL     1      15.932  28.190  18.313  0.00  0.00    -0.181 NA
ATOM      7  C11 UNL     1      15.973  27.732  17.072  0.00  0.00    +0.221 A 
ATOM      8  N5  UNL     1      15.729  28.682  16.096  0.00  0.00    -0.309 N 
ATOM      9  N6  UNL     1      16.231  26.474  16.757  0.00  0.00    -0.181 NA
ATOM     10  H10 UNL     1      16.995  24.370  16.447  0.00  0.00    +0.149 HD
ATOM     11  H11 UNL     1      16.152  26.804  21.125  0.00  0.00    +0.149 HD
ATOM     12  H21 UNL     1      15.365  29.487  16.597  0.00  0.00    +0.149 HD
ENDROOT
BRANCH   5  13
ATOM     13  C7  UNL     1      15.311  28.736  21.122  0.00  0.00    +0.026 C 
ATOM     14  C8  UNL     1      13.836  28.481  20.783  0.00  0.00    +0.031 C 
ATOM     15  C9  UNL     1      15.464  28.710  22.658  0.00  0.00    +0.031 C 
ATOM     16  C10 UNL     1      15.755  30.123  20.633  0.00  0.00    +0.031 C 
ENDBRANCH   5  13
BRANCH   8  17
ATOM     17  C12 UNL     1      15.006  28.353  14.862  0.00  0.00    +0.026 C 
ATOM     18  C13 UNL     1      14.665  29.700  14.190  0.00  0.00    +0.031 C 
ATOM     19  C14 UNL     1      13.690  27.618  15.160  0.00  0.00    +0.031 C 
ATOM     20  C15 UNL     1      15.878  27.550  13.885  0.00  0.00    +0.031 C 
ENDBRANCH   8  17
BRANCH   1  21
ATOM     21  C4  UNL     1      17.679  23.673  18.302  0.00  0.00    +0.104 C 
BRANCH  21  22
ATOM     22  C3  UNL     1      18.866  23.178  17.472  0.00  0.00    +0.018 C 
BRANCH  22  24
ATOM     23  C1  UNL     1      21.337  23.629  17.256  0.00  0.00    +0.004 C 
ATOM     24  C2  UNL     1      19.953  24.247  17.362  0.00  0.00    -0.002 C 
ENDBRANCH  22  24
ENDBRANCH  21  22
ENDBRANCH   1  21
TORSDOF 5
ENDMDL
