MODEL 1
REMARK VINA RESULT:    -4.089      0.000      0.000
REMARK INTER + INTRA:          -5.395
REMARK INTER:                  -4.806
REMARK INTRA:                  -0.588
REMARK UNBOUND:                -0.588
REMARK  Name = /home/vital/Documents/PhD_2021/Malaria_codes/data/pdb_ligands_mmv/ligand_19.pdb
REMARK  5 active torsions:
REMARK  status: ('A' for Active; 'I' for Inactive)
REMARK    1  A    between atoms: C1_1  and  C2_2
REMARK    2  A    between atoms: C4_4  and  N1_5
REMARK    3  A    between atoms: N1_5  and  C5_6
REMARK    4  A    between atoms: C8_9  and  C9_10
REMARK    5  A    between atoms: C12_16  and  C14_20
REMARK                            x       y       z     vdW  Elec       q    Type
REMARK                         _______ _______ _______ _____ _____    ______ ____
ROOT
ATOM      1  C1  UNL     1      14.670  24.105  14.225  0.00  0.00    +0.066 C 
ATOM      2  C2  UNL     1      14.558  25.343  15.082  0.00  0.00    +0.045 A 
ATOM      3  C3  UNL     1      14.172  26.614  14.394  0.00  0.00    +0.067 A 
ATOM      4  C4  UNL     1      14.098  27.724  15.151  0.00  0.00    +0.130 A 
ATOM      5  N2  UNL     1      14.345  27.581  16.534  0.00  0.00    -0.182 N 
ATOM      6  N3  UNL     1      14.288  28.541  17.500  0.00  0.00    -0.138 NA
ATOM      7  C12 UNL     1      14.613  27.854  18.614  0.00  0.00    +0.257 A 
ATOM      8  N4  UNL     1      14.860  26.513  18.394  0.00  0.00    -0.186 NA
ATOM      9  C13 UNL     1      14.687  26.354  17.103  0.00  0.00    +0.255 A 
ATOM     10  N5  UNL     1      14.800  25.223  16.354  0.00  0.00    -0.216 NA
ENDROOT
BRANCH   7  11
ATOM     11  C14 UNL     1      14.697  28.485  19.988  0.00  0.00    +0.454 C 
ATOM     12  F1  UNL     1      14.636  29.844  19.931  0.00  0.00    -0.163 F 
ATOM     13  F2  UNL     1      13.693  28.090  20.818  0.00  0.00    -0.163 F 
ATOM     14  F3  UNL     1      15.862  28.176  20.624  0.00  0.00    -0.163 F 
ENDBRANCH   7  11
BRANCH   4  15
ATOM     15  N1  UNL     1      13.734  28.995  14.721  0.00  0.00    -0.299 N 
ATOM     16  H5  UNL     1      12.906  29.353  15.209  0.00  0.00    +0.154 HD
BRANCH  15  17
ATOM     17  C5  UNL     1      14.516  30.019  14.156  0.00  0.00    +0.034 A 
ATOM     18  C6  UNL     1      15.182  29.751  12.951  0.00  0.00    +0.023 A 
ATOM     19  C7  UNL     1      16.013  30.702  12.350  0.00  0.00    +0.006 A 
ATOM     20  C8  UNL     1      16.210  31.954  12.944  0.00  0.00    -0.032 A 
ATOM     21  C9  UNL     1      17.107  32.960  12.281  0.00  0.00    +0.045 C 
ATOM     22  C10 UNL     1      15.551  32.225  14.151  0.00  0.00    +0.046 A 
ATOM     23 CL1  UNL     1      15.732  33.745  14.954  0.00  0.00    -0.083 Cl
ATOM     24  C11 UNL     1      14.719  31.268  14.748  0.00  0.00    +0.043 A 
ENDBRANCH  15  17
ENDBRANCH   4  15
TORSDOF 3
ENDMDL
MODEL 2
REMARK VINA RESULT:    -4.034      4.102      4.793
REMARK INTER + INTRA:          -5.329
REMARK INTER:                  -4.672
REMARK INTRA:                  -0.657
REMARK UNBOUND:                -0.588
REMARK  Name = /home/vital/Documents/PhD_2021/Malaria_codes/data/pdb_ligands_mmv/ligand_19.pdb
REMARK  5 active torsions:
REMARK  status: ('A' for Active; 'I' for Inactive)
REMARK    1  A    between atoms: C1_1  and  C2_2
REMARK    2  A    between atoms: C4_4  and  N1_5
REMARK    3  A    between atoms: N1_5  and  C5_6
REMARK    4  A    between atoms: C8_9  and  C9_10
REMARK    5  A    between atoms: C12_16  and  C14_20
REMARK                            x       y       z     vdW  Elec       q    Type
REMARK                         _______ _______ _______ _____ _____    ______ ____
ROOT
ATOM      1  C1  UNL     1      21.087  26.716  17.211  0.00  0.00    +0.066 C 
ATOM      2  C2  UNL     1      19.851  26.644  16.348  0.00  0.00    +0.045 A 
ATOM      3  C3  UNL     1      19.842  27.473  15.102  0.00  0.00    +0.067 A 
ATOM      4  C4  UNL     1      18.730  27.431  14.344  0.00  0.00    +0.130 A 
ATOM      5  N2  UNL     1      17.691  26.573  14.767  0.00  0.00    -0.182 N 
ATOM      6  N3  UNL     1      16.500  26.331  14.151  0.00  0.00    -0.138 NA
ATOM      7  C12 UNL     1      15.914  25.449  14.985  0.00  0.00    +0.257 A 
ATOM      8  N4  UNL     1      16.682  25.120  16.085  0.00  0.00    -0.186 NA
ATOM      9  C13 UNL     1      17.783  25.820  15.938  0.00  0.00    +0.255 A 
ATOM     10  N5  UNL     1      18.883  25.869  16.738  0.00  0.00    -0.216 NA
ENDROOT
BRANCH   7  11
ATOM     11  C14 UNL     1      14.540  24.859  14.744  0.00  0.00    +0.454 C 
ATOM     12  F1  UNL     1      13.818  24.758  15.895  0.00  0.00    -0.163 F 
ATOM     13  F2  UNL     1      13.787  25.597  13.882  0.00  0.00    -0.163 F 
ATOM     14  F3  UNL     1      14.606  23.604  14.217  0.00  0.00    -0.163 F 
ENDBRANCH   7  11
BRANCH   4  15
ATOM     15  N1  UNL     1      18.524  28.098  13.142  0.00  0.00    -0.299 N 
ATOM     16  H5  UNL     1      18.306  27.459  12.370  0.00  0.00    +0.154 HD
BRANCH  15  17
ATOM     17  C5  UNL     1      18.085  29.413  12.899  0.00  0.00    +0.034 A 
ATOM     18  C6  UNL     1      19.031  30.354  12.469  0.00  0.00    +0.023 A 
ATOM     19  C7  UNL     1      18.681  31.691  12.249  0.00  0.00    +0.006 A 
ATOM     20  C8  UNL     1      17.368  32.129  12.462  0.00  0.00    -0.032 A 
ATOM     21  C9  UNL     1      17.016  33.568  12.220  0.00  0.00    +0.045 C 
ATOM     22  C10 UNL     1      16.420  31.192  12.897  0.00  0.00    +0.046 A 
ATOM     23 CL1  UNL     1      14.776  31.642  13.182  0.00  0.00    -0.083 Cl
ATOM     24  C11 UNL     1      16.777  29.855  13.115  0.00  0.00    +0.043 A 
ENDBRANCH  15  17
ENDBRANCH   4  15
TORSDOF 3
ENDMDL
MODEL 3
REMARK VINA RESULT:    -3.901      4.974      6.048
REMARK INTER + INTRA:          -5.173
REMARK INTER:                  -4.535
REMARK INTRA:                  -0.638
REMARK UNBOUND:                -0.588
REMARK  Name = /home/vital/Documents/PhD_2021/Malaria_codes/data/pdb_ligands_mmv/ligand_19.pdb
REMARK  5 active torsions:
REMARK  status: ('A' for Active; 'I' for Inactive)
REMARK    1  A    between atoms: C1_1  and  C2_2
REMARK    2  A    between atoms: C4_4  and  N1_5
REMARK    3  A    between atoms: N1_5  and  C5_6
REMARK    4  A    between atoms: C8_9  and  C9_10
REMARK    5  A    between atoms: C12_16  and  C14_20
REMARK                            x       y       z     vdW  Elec       q    Type
REMARK                         _______ _______ _______ _____ _____    ______ ____
ROOT
ATOM      1  C1  UNL     1      14.651  31.706  13.481  0.00  0.00    +0.066 C 
ATOM      2  C2  UNL     1      15.164  30.294  13.628  0.00  0.00    +0.045 A 
ATOM      3  C3  UNL     1      16.573  30.033  13.199  0.00  0.00    +0.067 A 
ATOM      4  C4  UNL     1      17.025  28.770  13.304  0.00  0.00    +0.130 A 
ATOM      5  N2  UNL     1      16.144  27.813  13.854  0.00  0.00    -0.182 N 
ATOM      6  N3  UNL     1      16.385  26.494  14.097  0.00  0.00    -0.138 NA
ATOM      7  C12 UNL     1      15.213  26.073  14.615  0.00  0.00    +0.257 A 
ATOM      8  N4  UNL     1      14.256  27.064  14.715  0.00  0.00    -0.186 NA
ATOM      9  C13 UNL     1      14.845  28.139  14.245  0.00  0.00    +0.255 A 
ATOM     10  N5  UNL     1      14.355  29.403  14.119  0.00  0.00    -0.216 NA
ENDROOT
BRANCH   7  11
ATOM     11  C14 UNL     1      14.959  24.647  15.055  0.00  0.00    +0.454 C 
ATOM     12  F1  UNL     1      16.103  24.022  15.448  0.00  0.00    -0.163 F 
ATOM     13  F2  UNL     1      14.093  24.558  16.102  0.00  0.00    -0.163 F 
ATOM     14  F3  UNL     1      14.428  23.889  14.054  0.00  0.00    -0.163 F 
ENDBRANCH   7  11
BRANCH   4  15
ATOM     15  N1  UNL     1      18.301  28.319  12.988  0.00  0.00    -0.299 N 
ATOM     16  H5  UNL     1      18.482  28.324  11.979  0.00  0.00    +0.154 HD
BRANCH  15  17
ATOM     17  C5  UNL     1      19.483  28.337  13.752  0.00  0.00    +0.034 A 
ATOM     18  C6  UNL     1      20.259  29.504  13.736  0.00  0.00    +0.023 A 
ATOM     19  C7  UNL     1      21.469  29.584  14.434  0.00  0.00    +0.006 A 
ATOM     20  C8  UNL     1      21.944  28.489  15.166  0.00  0.00    -0.032 A 
ATOM     21  C9  UNL     1      23.246  28.598  15.907  0.00  0.00    +0.045 C 
ATOM     22  C10 UNL     1      21.173  27.319  15.181  0.00  0.00    +0.046 A 
ATOM     23 CL1  UNL     1      21.679  25.919  16.061  0.00  0.00    -0.083 Cl
ATOM     24  C11 UNL     1      19.962  27.245  14.480  0.00  0.00    +0.043 A 
ENDBRANCH  15  17
ENDBRANCH   4  15
TORSDOF 3
ENDMDL
MODEL 4
REMARK VINA RESULT:    -3.707      3.817      6.231
REMARK INTER + INTRA:          -4.946
REMARK INTER:                  -4.315
REMARK INTRA:                  -0.631
REMARK UNBOUND:                -0.588
REMARK  Name = /home/vital/Documents/PhD_2021/Malaria_codes/data/pdb_ligands_mmv/ligand_19.pdb
REMARK  5 active torsions:
REMARK  status: ('A' for Active; 'I' for Inactive)
REMARK    1  A    between atoms: C1_1  and  C2_2
REMARK    2  A    between atoms: C4_4  and  N1_5
REMARK    3  A    between atoms: N1_5  and  C5_6
REMARK    4  A    between atoms: C8_9  and  C9_10
REMARK    5  A    between atoms: C12_16  and  C14_20
REMARK                            x       y       z     vdW  Elec       q    Type
REMARK                         _______ _______ _______ _____ _____    ______ ____
ROOT
ATOM      1  C1  UNL     1      16.271  23.269  17.571  0.00  0.00    +0.066 C 
ATOM      2  C2  UNL     1      15.839  24.641  17.115  0.00  0.00    +0.045 A 
ATOM      3  C3  UNL     1      14.956  25.419  18.038  0.00  0.00    +0.067 A 
ATOM      4  C4  UNL     1      14.547  26.632  17.623  0.00  0.00    +0.130 A 
ATOM      5  N2  UNL     1      15.027  27.083  16.374  0.00  0.00    -0.182 N 
ATOM      6  N3  UNL     1      14.791  28.279  15.766  0.00  0.00    -0.138 NA
ATOM      7  C12 UNL     1      15.485  28.165  14.615  0.00  0.00    +0.257 A 
ATOM      8  N4  UNL     1      16.149  26.962  14.478  0.00  0.00    -0.186 NA
ATOM      9  C13 UNL     1      15.862  26.301  15.575  0.00  0.00    +0.255 A 
ATOM     10  N5  UNL     1      16.263  25.057  15.958  0.00  0.00    -0.216 NA
ENDROOT
BRANCH   7  11
ATOM     11  C14 UNL     1      15.542  29.253  13.564  0.00  0.00    +0.454 C 
ATOM     12  F1  UNL     1      14.315  29.789  13.316  0.00  0.00    -0.163 F 
ATOM     13  F2  UNL     1      16.351  30.291  13.913  0.00  0.00    -0.163 F 
ATOM     14  F3  UNL     1      16.009  28.789  12.371  0.00  0.00    -0.163 F 
ENDBRANCH   7  11
BRANCH   4  15
ATOM     15  N1  UNL     1      13.752  27.524  18.332  0.00  0.00    -0.299 N 
ATOM     16  H5  UNL     1      12.751  27.324  18.232  0.00  0.00    +0.154 HD
BRANCH  15  17
ATOM     17  C5  UNL     1      14.042  28.281  19.483  0.00  0.00    +0.034 A 
ATOM     18  C6  UNL     1      14.722  29.495  19.318  0.00  0.00    +0.023 A 
ATOM     19  C7  UNL     1      15.085  30.282  20.417  0.00  0.00    +0.006 A 
ATOM     20  C8  UNL     1      14.783  29.869  21.720  0.00  0.00    -0.032 A 
ATOM     21  C9  UNL     1      15.184  30.729  22.884  0.00  0.00    +0.045 C 
ATOM     22  C10 UNL     1      14.108  28.653  21.890  0.00  0.00    +0.046 A 
ATOM     23 CL1  UNL     1      13.691  28.066  23.462  0.00  0.00    -0.083 Cl
ATOM     24  C11 UNL     1      13.747  27.870  20.785  0.00  0.00    +0.043 A 
ENDBRANCH  15  17
ENDBRANCH   4  15
TORSDOF 3
ENDMDL
MODEL 5
REMARK VINA RESULT:    -3.684      3.573      5.632
REMARK INTER + INTRA:          -4.919
REMARK INTER:                  -4.283
REMARK INTRA:                  -0.635
REMARK UNBOUND:                -0.588
REMARK  Name = /home/vital/Documents/PhD_2021/Malaria_codes/data/pdb_ligands_mmv/ligand_19.pdb
REMARK  5 active torsions:
REMARK  status: ('A' for Active; 'I' for Inactive)
REMARK    1  A    between atoms: C1_1  and  C2_2
REMARK    2  A    between atoms: C4_4  and  N1_5
REMARK    3  A    between atoms: N1_5  and  C5_6
REMARK    4  A    between atoms: C8_9  and  C9_10
REMARK    5  A    between atoms: C12_16  and  C14_20
REMARK                            x       y       z     vdW  Elec       q    Type
REMARK                         _______ _______ _______ _____ _____    ______ ____
ROOT
ATOM      1  C1  UNL     1      15.712  29.978  12.287  0.00  0.00    +0.066 C 
ATOM      2  C2  UNL     1      15.878  29.045  13.462  0.00  0.00    +0.045 A 
ATOM      3  C3  UNL     1      16.272  29.659  14.768  0.00  0.00    +0.067 A 
ATOM      4  C4  UNL     1      16.447  28.826  15.811  0.00  0.00    +0.130 A 
ATOM      5  N2  UNL     1      16.196  27.454  15.592  0.00  0.00    -0.182 N 
ATOM      6  N3  UNL     1      16.262  26.435  16.494  0.00  0.00    -0.138 NA
ATOM      7  C12 UNL     1      15.932  25.362  15.746  0.00  0.00    +0.257 A 
ATOM      8  N4  UNL     1      15.654  25.661  14.427  0.00  0.00    -0.186 NA
ATOM      9  C13 UNL     1      15.817  26.961  14.343  0.00  0.00    +0.255 A 
ATOM     10  N5  UNL     1      15.665  27.778  13.265  0.00  0.00    -0.216 NA
ENDROOT
BRANCH   7  11
ATOM     11  C14 UNL     1      15.863  23.952  16.295  0.00  0.00    +0.454 C 
ATOM     12  F1  UNL     1      14.836  23.796  17.175  0.00  0.00    -0.163 F 
ATOM     13  F2  UNL     1      15.687  23.011  15.327  0.00  0.00    -0.163 F 
ATOM     14  F3  UNL     1      17.000  23.606  16.963  0.00  0.00    -0.163 F 
ENDBRANCH   7  11
BRANCH   4  15
ATOM     15  N1  UNL     1      16.784  29.188  17.110  0.00  0.00    -0.299 N 
ATOM     16  H5  UNL     1      17.773  29.439  17.204  0.00  0.00    +0.154 HD
BRANCH  15  17
ATOM     17  C5  UNL     1      15.986  29.728  18.136  0.00  0.00    +0.034 A 
ATOM     18  C6  UNL     1      15.799  31.117  18.163  0.00  0.00    +0.023 A 
ATOM     19  C7  UNL     1      15.056  31.734  19.176  0.00  0.00    +0.006 A 
ATOM     20  C8  UNL     1      14.483  30.974  20.202  0.00  0.00    -0.032 A 
ATOM     21  C9  UNL     1      13.690  31.657  21.279  0.00  0.00    +0.045 C 
ATOM     22  C10 UNL     1      14.671  29.585  20.182  0.00  0.00    +0.046 A 
ATOM     23 CL1  UNL     1      13.997  28.567  21.406  0.00  0.00    -0.083 Cl
ATOM     24  C11 UNL     1      15.416  28.974  19.165  0.00  0.00    +0.043 A 
ENDBRANCH  15  17
ENDBRANCH   4  15
TORSDOF 3
ENDMDL
MODEL 6
REMARK VINA RESULT:    -3.662      3.535      6.322
REMARK INTER + INTRA:          -4.893
REMARK INTER:                  -4.290
REMARK INTRA:                  -0.603
REMARK UNBOUND:                -0.588
REMARK  Name = /home/vital/Documents/PhD_2021/Malaria_codes/data/pdb_ligands_mmv/ligand_19.pdb
REMARK  5 active torsions:
REMARK  status: ('A' for Active; 'I' for Inactive)
REMARK    1  A    between atoms: C1_1  and  C2_2
REMARK    2  A    between atoms: C4_4  and  N1_5
REMARK    3  A    between atoms: N1_5  and  C5_6
REMARK    4  A    between atoms: C8_9  and  C9_10
REMARK    5  A    between atoms: C12_16  and  C14_20
REMARK                            x       y       z     vdW  Elec       q    Type
REMARK                         _______ _______ _______ _____ _____    ______ ____
ROOT
ATOM      1  C1  UNL     1      14.704  24.554  14.567  0.00  0.00    +0.066 C 
ATOM      2  C2  UNL     1      14.997  26.000  14.885  0.00  0.00    +0.045 A 
ATOM      3  C3  UNL     1      15.545  26.300  16.245  0.00  0.00    +0.067 A 
ATOM      4  C4  UNL     1      15.782  27.592  16.541  0.00  0.00    +0.130 A 
ATOM      5  N2  UNL     1      15.536  28.543  15.527  0.00  0.00    -0.182 N 
ATOM      6  N3  UNL     1      15.737  29.890  15.574  0.00  0.00    -0.138 NA
ATOM      7  C12 UNL     1      15.336  30.288  14.349  0.00  0.00    +0.257 A 
ATOM      8  N4  UNL     1      14.904  29.257  13.538  0.00  0.00    -0.186 NA
ATOM      9  C13 UNL     1      15.036  28.180  14.276  0.00  0.00    +0.255 A 
ATOM     10  N5  UNL     1      14.759  26.884  13.963  0.00  0.00    -0.216 NA
ENDROOT
BRANCH   7  11
ATOM     11  C14 UNL     1      15.358  31.732  13.892  0.00  0.00    +0.454 C 
ATOM     12  F1  UNL     1      16.628  32.190  13.710  0.00  0.00    -0.163 F 
ATOM     13  F2  UNL     1      14.706  31.928  12.713  0.00  0.00    -0.163 F 
ATOM     14  F3  UNL     1      14.772  32.565  14.797  0.00  0.00    -0.163 F 
ENDBRANCH   7  11
BRANCH   4  15
ATOM     15  N1  UNL     1      16.312  28.084  17.728  0.00  0.00    -0.299 N 
ATOM     16  H5  UNL     1      17.058  28.769  17.572  0.00  0.00    +0.154 HD
BRANCH  15  17
ATOM     17  C5  UNL     1      15.725  28.202  19.002  0.00  0.00    +0.034 A 
ATOM     18  C6  UNL     1      14.340  28.408  19.073  0.00  0.00    +0.023 A 
ATOM     19  C7  UNL     1      13.691  28.579  20.301  0.00  0.00    +0.006 A 
ATOM     20  C8  UNL     1      14.414  28.556  21.499  0.00  0.00    -0.032 A 
ATOM     21  C9  UNL     1      13.695  28.742  22.805  0.00  0.00    +0.045 C 
ATOM     22  C10 UNL     1      15.799  28.355  21.432  0.00  0.00    +0.046 A 
ATOM     23 CL1  UNL     1      16.772  28.309  22.861  0.00  0.00    -0.083 Cl
ATOM     24  C11 UNL     1      16.444  28.184  20.200  0.00  0.00    +0.043 A 
ENDBRANCH  15  17
ENDBRANCH   4  15
TORSDOF 3
ENDMDL
MODEL 7
REMARK VINA RESULT:    -3.549      3.156      4.720
REMARK INTER + INTRA:          -4.760
REMARK INTER:                  -4.183
REMARK INTRA:                  -0.578
REMARK UNBOUND:                -0.588
REMARK  Name = /home/vital/Documents/PhD_2021/Malaria_codes/data/pdb_ligands_mmv/ligand_19.pdb
REMARK  5 active torsions:
REMARK  status: ('A' for Active; 'I' for Inactive)
REMARK    1  A    between atoms: C1_1  and  C2_2
REMARK    2  A    between atoms: C4_4  and  N1_5
REMARK    3  A    between atoms: N1_5  and  C5_6
REMARK    4  A    between atoms: C8_9  and  C9_10
REMARK    5  A    between atoms: C12_16  and  C14_20
REMARK                            x       y       z     vdW  Elec       q    Type
REMARK                         _______ _______ _______ _____ _____    ______ ____
ROOT
ATOM      1  C1  UNL     1      14.587  29.067  21.989  0.00  0.00    +0.066 C 
ATOM      2  C2  UNL     1      15.183  28.215  20.895  0.00  0.00    +0.045 A 
ATOM      3  C3  UNL     1      14.611  28.373  19.522  0.00  0.00    +0.067 A 
ATOM      4  C4  UNL     1      15.122  27.594  18.549  0.00  0.00    +0.130 A 
ATOM      5  N2  UNL     1      16.184  26.733  18.902  0.00  0.00    -0.182 N 
ATOM      6  N3  UNL     1      16.885  25.891  18.093  0.00  0.00    -0.138 NA
ATOM      7  C12 UNL     1      17.761  25.326  18.948  0.00  0.00    +0.257 A 
ATOM      8  N4  UNL     1      17.649  25.779  20.247  0.00  0.00    -0.186 NA
ATOM      9  C13 UNL     1      16.672  26.655  20.207  0.00  0.00    +0.255 A 
ATOM     10  N5  UNL     1      16.150  27.407  21.214  0.00  0.00    -0.216 NA
ENDROOT
BRANCH   7  11
ATOM     11  C14 UNL     1      18.784  24.290  18.531  0.00  0.00    +0.454 C 
ATOM     12  F1  UNL     1      19.023  24.318  17.190  0.00  0.00    -0.163 F 
ATOM     13  F2  UNL     1      19.991  24.457  19.139  0.00  0.00    -0.163 F 
ATOM     14  F3  UNL     1      18.380  23.022  18.825  0.00  0.00    -0.163 F 
ENDBRANCH   7  11
BRANCH   4  15
ATOM     15  N1  UNL     1      14.757  27.600  17.208  0.00  0.00    -0.299 N 
ATOM     16  H5  UNL     1      14.055  26.885  16.989  0.00  0.00    +0.154 HD
BRANCH  15  17
ATOM     17  C5  UNL     1      14.779  28.647  16.268  0.00  0.00    +0.034 A 
ATOM     18  C6  UNL     1      13.836  28.620  15.231  0.00  0.00    +0.023 A 
ATOM     19  C7  UNL     1      13.821  29.600  14.233  0.00  0.00    +0.006 A 
ATOM     20  C8  UNL     1      14.762  30.637  14.239  0.00  0.00    -0.032 A 
ATOM     21  C9  UNL     1      14.728  31.678  13.157  0.00  0.00    +0.045 C 
ATOM     22  C10 UNL     1      15.710  30.665  15.271  0.00  0.00    +0.046 A 
ATOM     23 CL1  UNL     1      16.906  31.910  15.361  0.00  0.00    -0.083 Cl
ATOM     24  C11 UNL     1      15.718  29.680  16.268  0.00  0.00    +0.043 A 
ENDBRANCH  15  17
ENDBRANCH   4  15
TORSDOF 3
ENDMDL
MODEL 8
REMARK VINA RESULT:    -3.545      2.736      4.250
REMARK INTER + INTRA:          -4.755
REMARK INTER:                  -4.157
REMARK INTRA:                  -0.599
REMARK UNBOUND:                -0.588
REMARK  Name = /home/vital/Documents/PhD_2021/Malaria_codes/data/pdb_ligands_mmv/ligand_19.pdb
REMARK  5 active torsions:
REMARK  status: ('A' for Active; 'I' for Inactive)
REMARK    1  A    between atoms: C1_1  and  C2_2
REMARK    2  A    between atoms: C4_4  and  N1_5
REMARK    3  A    between atoms: N1_5  and  C5_6
REMARK    4  A    between atoms: C8_9  and  C9_10
REMARK    5  A    between atoms: C12_16  and  C14_20
REMARK                            x       y       z     vdW  Elec       q    Type
REMARK                         _______ _______ _______ _____ _____    ______ ____
ROOT
ATOM      1  C1  UNL     1      13.778  30.630  21.526  0.00  0.00    +0.066 C 
ATOM      2  C2  UNL     1      14.355  29.834  20.380  0.00  0.00    +0.045 A 
ATOM      3  C3  UNL     1      15.116  30.593  19.339  0.00  0.00    +0.067 A 
ATOM      4  C4  UNL     1      15.608  29.889  18.302  0.00  0.00    +0.130 A 
ATOM      5  N2  UNL     1      15.403  28.492  18.314  0.00  0.00    -0.182 N 
ATOM      6  N3  UNL     1      15.839  27.573  17.408  0.00  0.00    -0.138 NA
ATOM      7  C12 UNL     1      15.359  26.417  17.910  0.00  0.00    +0.257 A 
ATOM      8  N4  UNL     1      14.655  26.567  19.089  0.00  0.00    -0.186 NA
ATOM      9  C13 UNL     1      14.692  27.856  19.332  0.00  0.00    +0.255 A 
ATOM     10  N5  UNL     1      14.157  28.549  20.375  0.00  0.00    -0.216 NA
ENDROOT
BRANCH   7  11
ATOM     11  C14 UNL     1      15.572  25.069  17.253  0.00  0.00    +0.454 C 
ATOM     12  F1  UNL     1      14.456  24.634  16.606  0.00  0.00    -0.163 F 
ATOM     13  F2  UNL     1      16.572  25.079  16.329  0.00  0.00    -0.163 F 
ATOM     14  F3  UNL     1      15.897  24.104  18.158  0.00  0.00    -0.163 F 
ENDBRANCH   7  11
BRANCH   4  15
ATOM     15  N1  UNL     1      16.362  30.389  17.248  0.00  0.00    -0.299 N 
ATOM     16  H5  UNL     1      17.277  29.933  17.167  0.00  0.00    +0.154 HD
BRANCH  15  17
ATOM     17  C5  UNL     1      15.950  30.995  16.046  0.00  0.00    +0.034 A 
ATOM     18  C6  UNL     1      15.057  30.291  15.226  0.00  0.00    +0.023 A 
ATOM     19  C7  UNL     1      14.635  30.808  13.996  0.00  0.00    +0.006 A 
ATOM     20  C8  UNL     1      15.103  32.047  13.545  0.00  0.00    -0.032 A 
ATOM     21  C9  UNL     1      14.637  32.581  12.221  0.00  0.00    +0.045 C 
ATOM     22  C10 UNL     1      16.000  32.752  14.359  0.00  0.00    +0.046 A 
ATOM     23 CL1  UNL     1      16.627  34.292  13.884  0.00  0.00    -0.083 Cl
ATOM     24  C11 UNL     1      16.418  32.230  15.590  0.00  0.00    +0.043 A 
ENDBRANCH  15  17
ENDBRANCH   4  15
TORSDOF 3
ENDMDL
MODEL 9
REMARK VINA RESULT:    -3.317     16.938     18.999
REMARK INTER + INTRA:          -4.487
REMARK INTER:                  -3.914
REMARK INTRA:                  -0.573
REMARK UNBOUND:                -0.588
REMARK  Name = /home/vital/Documents/PhD_2021/Malaria_codes/data/pdb_ligands_mmv/ligand_19.pdb
REMARK  5 active torsions:
REMARK  status: ('A' for Active; 'I' for Inactive)
REMARK    1  A    between atoms: C1_1  and  C2_2
REMARK    2  A    between atoms: C4_4  and  N1_5
REMARK    3  A    between atoms: N1_5  and  C5_6
REMARK    4  A    between atoms: C8_9  and  C9_10
REMARK    5  A    between atoms: C12_16  and  C14_20
REMARK                            x       y       z     vdW  Elec       q    Type
REMARK                         _______ _______ _______ _____ _____    ______ ____
ROOT
ATOM      1  C1  UNL     1      14.534  47.314  23.686  0.00  0.00    +0.066 C 
ATOM      2  C2  UNL     1      14.394  46.479  24.936  0.00  0.00    +0.045 A 
ATOM      3  C3  UNL     1      14.100  45.023  24.752  0.00  0.00    +0.067 A 
ATOM      4  C4  UNL     1      13.949  44.281  25.865  0.00  0.00    +0.130 A 
ATOM      5  N2  UNL     1      14.128  44.933  27.105  0.00  0.00    -0.182 N 
ATOM      6  N3  UNL     1      14.069  44.390  28.354  0.00  0.00    -0.138 NA
ATOM      7  C12 UNL     1      14.310  45.454  29.147  0.00  0.00    +0.257 A 
ATOM      8  N4  UNL     1      14.526  46.631  28.456  0.00  0.00    -0.186 NA
ATOM      9  C13 UNL     1      14.415  46.295  27.192  0.00  0.00    +0.255 A 
ATOM     10  N5  UNL     1      14.542  47.074  26.082  0.00  0.00    -0.216 NA
ENDROOT
BRANCH   7  11
ATOM     11  C14 UNL     1      14.348  45.377  30.659  0.00  0.00    +0.454 C 
ATOM     12  F1  UNL     1      15.623  45.318  31.135  0.00  0.00    -0.163 F 
ATOM     13  F2  UNL     1      13.761  46.446  31.263  0.00  0.00    -0.163 F 
ATOM     14  F3  UNL     1      13.708  44.271  31.131  0.00  0.00    -0.163 F 
ENDBRANCH   7  11
BRANCH   4  15
ATOM     15  N1  UNL     1      13.701  42.915  25.921  0.00  0.00    -0.299 N 
ATOM     16  H5  UNL     1      12.712  42.701  26.086  0.00  0.00    +0.154 HD
BRANCH  15  17
ATOM     17  C5  UNL     1      14.397  41.843  25.332  0.00  0.00    +0.034 A 
ATOM     18  C6  UNL     1      15.798  41.864  25.376  0.00  0.00    +0.023 A 
ATOM     19  C7  UNL     1      16.562  40.857  24.775  0.00  0.00    +0.006 A 
ATOM     20  C8  UNL     1      15.941  39.799  24.101  0.00  0.00    -0.032 A 
ATOM     21  C9  UNL     1      16.781  38.730  23.463  0.00  0.00    +0.045 C 
ATOM     22  C10 UNL     1      14.541  39.776  24.049  0.00  0.00    +0.046 A 
ATOM     23 CL1  UNL     1      13.690  38.506  23.242  0.00  0.00    -0.083 Cl
ATOM     24  C11 UNL     1      13.782  40.788  24.654  0.00  0.00    +0.043 A 
ENDBRANCH  15  17
ENDBRANCH   4  15
TORSDOF 3
ENDMDL
