MODEL 1
REMARK VINA RESULT:    -4.674      0.000      0.000
REMARK INTER + INTRA:          -9.370
REMARK INTER:                  -6.450
REMARK INTRA:                  -2.920
REMARK UNBOUND:                -2.920
REMARK  Name = /home/vital/Documents/PhD_2021/Malaria_codes/data/pdb_ligands_mmv/ligand_236.pdb
REMARK  7 active torsions:
REMARK  status: ('A' for Active; 'I' for Inactive)
REMARK    1  A    between atoms: O1_1  and  C1_2
REMARK    2  A    between atoms: C1_2  and  C2_3
REMARK    3  A    between atoms: C1_2  and  C10_12
REMARK    4  A    between atoms: C2_3  and  N1_4
REMARK    5  A    between atoms: N1_4  and  C3_5
REMARK    6  A    between atoms: C3_5  and  C4_6
REMARK    7  A    between atoms: C10_12  and  N2_13
REMARK                            x       y       z     vdW  Elec       q    Type
REMARK                         _______ _______ _______ _____ _____    ______ ____
ROOT
ATOM      1  C10 UNL     1      16.333  25.168  17.737  0.00  0.00    +0.155 C 
ENDROOT
BRANCH   1   2
ATOM      2  N2  UNL     1      16.448  26.601  17.532  0.00  0.00    -0.337 N 
ATOM      3  C11 UNL     1      15.795  27.564  18.278  0.00  0.00    +0.050 A 
ATOM      4  C12 UNL     1      14.883  27.456  19.343  0.00  0.00    +0.026 A 
ATOM      5  C13 UNL     1      14.392  28.632  19.918  0.00  0.00    +0.002 A 
ATOM      6  C14 UNL     1      14.794  29.878  19.450  0.00  0.00    +0.001 A 
ATOM      7  C15 UNL     1      15.700  29.977  18.390  0.00  0.00    +0.010 A 
ATOM      8  C16 UNL     1      16.210  28.805  17.790  0.00  0.00    +0.008 A 
ATOM      9  C17 UNL     1      17.121  28.567  16.716  0.00  0.00    +0.008 A 
ATOM     10  C18 UNL     1      17.850  29.414  15.852  0.00  0.00    +0.010 A 
ATOM     11  C19 UNL     1      18.676  28.858  14.871  0.00  0.00    +0.001 A 
ATOM     12  C20 UNL     1      18.784  27.478  14.739  0.00  0.00    +0.002 A 
ATOM     13  C21 UNL     1      18.074  26.618  15.581  0.00  0.00    +0.026 A 
ATOM     14  C22 UNL     1      17.247  27.185  16.567  0.00  0.00    +0.050 A 
ENDBRANCH   1   2
BRANCH   1  15
ATOM     15  C1  UNL     1      15.153  24.539  16.994  0.00  0.00    +0.148 C 
BRANCH  15  16
ATOM     16  O1  UNL     1      14.653  23.440  17.775  0.00  0.00    -0.389 OA
ATOM     17  H1  UNL     1      14.041  23.858  18.419  0.00  0.00    +0.210 HD
ENDBRANCH  15  16
BRANCH  15  18
ATOM     18  C2  UNL     1      15.529  24.008  15.595  0.00  0.00    +0.114 C 
BRANCH  18  19
ATOM     19  N1  UNL     1      14.575  24.546  14.608  0.00  0.00    -0.310 NA
ATOM     20  H5  UNL     1      13.905  23.817  14.354  0.00  0.00    +0.122 HD
BRANCH  19  21
ATOM     21  C3  UNL     1      13.823  25.667  15.178  0.00  0.00    +0.116 C 
BRANCH  21  22
ATOM     22  C4  UNL     1      14.281  26.972  14.574  0.00  0.00    -0.034 A 
ATOM     23  C5  UNL     1      15.150  26.978  13.474  0.00  0.00    +0.005 A 
ATOM     24  C6  UNL     1      15.568  28.181  12.905  0.00  0.00    +0.000 A 
ATOM     25  C7  UNL     1      15.118  29.392  13.426  0.00  0.00    +0.000 A 
ATOM     26  C8  UNL     1      14.247  29.400  14.515  0.00  0.00    +0.000 A 
ATOM     27  C9  UNL     1      13.828  28.197  15.085  0.00  0.00    +0.005 A 
ENDBRANCH  21  22
ENDBRANCH  19  21
ENDBRANCH  18  19
ENDBRANCH  15  18
ENDBRANCH   1  15
TORSDOF 7
ENDMDL
MODEL 2
REMARK VINA RESULT:    -4.517      0.255      3.352
REMARK INTER + INTRA:          -9.153
REMARK INTER:                  -6.274
REMARK INTRA:                  -2.879
REMARK UNBOUND:                -2.920
REMARK  Name = /home/vital/Documents/PhD_2021/Malaria_codes/data/pdb_ligands_mmv/ligand_236.pdb
REMARK  7 active torsions:
REMARK  status: ('A' for Active; 'I' for Inactive)
REMARK    1  A    between atoms: O1_1  and  C1_2
REMARK    2  A    between atoms: C1_2  and  C2_3
REMARK    3  A    between atoms: C1_2  and  C10_12
REMARK    4  A    between atoms: C2_3  and  N1_4
REMARK    5  A    between atoms: N1_4  and  C3_5
REMARK    6  A    between atoms: C3_5  and  C4_6
REMARK    7  A    between atoms: C10_12  and  N2_13
REMARK                            x       y       z     vdW  Elec       q    Type
REMARK                         _______ _______ _______ _____ _____    ______ ____
ROOT
ATOM      1  C10 UNL     1      16.354  25.302  17.519  0.00  0.00    +0.155 C 
ENDROOT
BRANCH   1   2
ATOM      2  N2  UNL     1      16.470  26.740  17.356  0.00  0.00    -0.337 N 
ATOM      3  C11 UNL     1      17.278  27.371  16.428  0.00  0.00    +0.050 A 
ATOM      4  C12 UNL     1      18.170  26.857  15.470  0.00  0.00    +0.026 A 
ATOM      5  C13 UNL     1      18.850  27.759  14.646  0.00  0.00    +0.002 A 
ATOM      6  C14 UNL     1      18.651  29.130  14.770  0.00  0.00    +0.001 A 
ATOM      7  C15 UNL     1      17.764  29.633  15.726  0.00  0.00    +0.010 A 
ATOM      8  C16 UNL     1      17.065  28.743  16.572  0.00  0.00    +0.008 A 
ATOM      9  C17 UNL     1      16.118  28.929  17.625  0.00  0.00    +0.008 A 
ATOM     10  C18 UNL     1      15.529  30.068  18.215  0.00  0.00    +0.010 A 
ATOM     11  C19 UNL     1      14.614  29.913  19.261  0.00  0.00    +0.001 A 
ATOM     12  C20 UNL     1      14.283  28.645  19.726  0.00  0.00    +0.002 A 
ATOM     13  C21 UNL     1      14.852  27.501  19.159  0.00  0.00    +0.026 A 
ATOM     14  C22 UNL     1      15.768  27.666  18.106  0.00  0.00    +0.050 A 
ENDBRANCH   1   2
BRANCH   1  15
ATOM     15  C1  UNL     1      15.159  24.699  16.778  0.00  0.00    +0.148 C 
BRANCH  15  16
ATOM     16  O1  UNL     1      14.645  23.603  17.553  0.00  0.00    -0.389 OA
ATOM     17  H1  UNL     1      13.738  23.885  17.804  0.00  0.00    +0.210 HD
ENDBRANCH  15  16
BRANCH  15  18
ATOM     18  C2  UNL     1      15.517  24.175  15.373  0.00  0.00    +0.114 C 
BRANCH  18  19
ATOM     19  N1  UNL     1      14.563  24.734  14.397  0.00  0.00    -0.310 NA
ATOM     20  H5  UNL     1      13.901  24.008  14.118  0.00  0.00    +0.122 HD
BRANCH  19  21
ATOM     21  C3  UNL     1      13.799  25.831  14.997  0.00  0.00    +0.116 C 
BRANCH  21  22
ATOM     22  C4  UNL     1      14.239  27.156  14.424  0.00  0.00    -0.034 A 
ATOM     23  C5  UNL     1      13.695  28.354  14.909  0.00  0.00    +0.005 A 
ATOM     24  C6  UNL     1      14.106  29.582  14.391  0.00  0.00    +0.000 A 
ATOM     25  C7  UNL     1      15.069  29.627  13.385  0.00  0.00    +0.000 A 
ATOM     26  C8  UNL     1      15.624  28.444  12.899  0.00  0.00    +0.000 A 
ATOM     27  C9  UNL     1      15.213  27.214  13.417  0.00  0.00    +0.005 A 
ENDBRANCH  21  22
ENDBRANCH  19  21
ENDBRANCH  18  19
ENDBRANCH  15  18
ENDBRANCH   1  15
TORSDOF 7
ENDMDL
MODEL 3
REMARK VINA RESULT:    -4.295      1.467      4.345
REMARK INTER + INTRA:          -8.847
REMARK INTER:                  -5.781
REMARK INTRA:                  -3.066
REMARK UNBOUND:                -2.920
REMARK  Name = /home/vital/Documents/PhD_2021/Malaria_codes/data/pdb_ligands_mmv/ligand_236.pdb
REMARK  7 active torsions:
REMARK  status: ('A' for Active; 'I' for Inactive)
REMARK    1  A    between atoms: O1_1  and  C1_2
REMARK    2  A    between atoms: C1_2  and  C2_3
REMARK    3  A    between atoms: C1_2  and  C10_12
REMARK    4  A    between atoms: C2_3  and  N1_4
REMARK    5  A    between atoms: N1_4  and  C3_5
REMARK    6  A    between atoms: C3_5  and  C4_6
REMARK    7  A    between atoms: C10_12  and  N2_13
REMARK                            x       y       z     vdW  Elec       q    Type
REMARK                         _______ _______ _______ _____ _____    ______ ____
ROOT
ATOM      1  C10 UNL     1      13.995  25.379  15.341  0.00  0.00    +0.155 C 
ENDROOT
BRANCH   1   2
ATOM      2  N2  UNL     1      14.438  26.717  15.693  0.00  0.00    -0.337 N 
ATOM      3  C11 UNL     1      14.963  27.638  14.806  0.00  0.00    +0.050 A 
ATOM      4  C12 UNL     1      15.230  27.554  13.428  0.00  0.00    +0.026 A 
ATOM      5  C13 UNL     1      15.760  28.677  12.786  0.00  0.00    +0.002 A 
ATOM      6  C14 UNL     1      16.019  29.847  13.491  0.00  0.00    +0.001 A 
ATOM      7  C15 UNL     1      15.753  29.922  14.861  0.00  0.00    +0.010 A 
ATOM      8  C16 UNL     1      15.218  28.801  15.534  0.00  0.00    +0.008 A 
ATOM      9  C17 UNL     1      14.848  28.555  16.892  0.00  0.00    +0.008 A 
ATOM     10  C18 UNL     1      14.881  29.338  18.067  0.00  0.00    +0.010 A 
ATOM     11  C19 UNL     1      14.441  28.791  19.276  0.00  0.00    +0.001 A 
ATOM     12  C20 UNL     1      13.975  27.482  19.330  0.00  0.00    +0.002 A 
ATOM     13  C21 UNL     1      13.932  26.687  18.182  0.00  0.00    +0.026 A 
ATOM     14  C22 UNL     1      14.373  27.245  16.969  0.00  0.00    +0.050 A 
ENDBRANCH   1   2
BRANCH   1  15
ATOM     15  C1  UNL     1      15.142  24.380  15.176  0.00  0.00    +0.148 C 
BRANCH  15  16
ATOM     16  O1  UNL     1      14.687  23.293  14.353  0.00  0.00    -0.389 OA
ATOM     17  H1  UNL     1      13.856  22.993  14.783  0.00  0.00    +0.210 HD
ENDBRANCH  15  16
BRANCH  15  18
ATOM     18  C2  UNL     1      15.641  23.801  16.515  0.00  0.00    +0.114 C 
BRANCH  18  19
ATOM     19  N1  UNL     1      17.087  24.065  16.640  0.00  0.00    -0.310 NA
ATOM     20  H5  UNL     1      17.456  24.355  15.733  0.00  0.00    +0.122 HD
BRANCH  19  21
ATOM     21  C3  UNL     1      17.330  25.152  17.592  0.00  0.00    +0.116 C 
BRANCH  21  22
ATOM     22  C4  UNL     1      17.918  26.350  16.886  0.00  0.00    -0.034 A 
ATOM     23  C5  UNL     1      18.205  26.294  15.515  0.00  0.00    +0.005 A 
ATOM     24  C6  UNL     1      18.738  27.402  14.856  0.00  0.00    +0.000 A 
ATOM     25  C7  UNL     1      18.987  28.579  15.559  0.00  0.00    +0.000 A 
ATOM     26  C8  UNL     1      18.698  28.650  16.922  0.00  0.00    +0.000 A 
ATOM     27  C9  UNL     1      18.165  27.542  17.582  0.00  0.00    +0.005 A 
ENDBRANCH  21  22
ENDBRANCH  19  21
ENDBRANCH  18  19
ENDBRANCH  15  18
ENDBRANCH   1  15
TORSDOF 7
ENDMDL
MODEL 4
REMARK VINA RESULT:    -4.180      1.474      3.173
REMARK INTER + INTRA:          -8.688
REMARK INTER:                  -5.650
REMARK INTRA:                  -3.038
REMARK UNBOUND:                -2.920
REMARK  Name = /home/vital/Documents/PhD_2021/Malaria_codes/data/pdb_ligands_mmv/ligand_236.pdb
REMARK  7 active torsions:
REMARK  status: ('A' for Active; 'I' for Inactive)
REMARK    1  A    between atoms: O1_1  and  C1_2
REMARK    2  A    between atoms: C1_2  and  C2_3
REMARK    3  A    between atoms: C1_2  and  C10_12
REMARK    4  A    between atoms: C2_3  and  N1_4
REMARK    5  A    between atoms: N1_4  and  C3_5
REMARK    6  A    between atoms: C3_5  and  C4_6
REMARK    7  A    between atoms: C10_12  and  N2_13
REMARK                            x       y       z     vdW  Elec       q    Type
REMARK                         _______ _______ _______ _____ _____    ______ ____
ROOT
ATOM      1  C10 UNL     1      13.939  25.547  15.317  0.00  0.00    +0.155 C 
ENDROOT
BRANCH   1   2
ATOM      2  N2  UNL     1      14.372  26.875  15.716  0.00  0.00    -0.337 N 
ATOM      3  C11 UNL     1      14.330  27.368  17.007  0.00  0.00    +0.050 A 
ATOM      4  C12 UNL     1      13.870  26.797  18.207  0.00  0.00    +0.026 A 
ATOM      5  C13 UNL     1      13.971  27.549  19.381  0.00  0.00    +0.002 A 
ATOM      6  C14 UNL     1      14.512  28.830  19.365  0.00  0.00    +0.001 A 
ATOM      7  C15 UNL     1      14.965  29.392  18.168  0.00  0.00    +0.010 A 
ATOM      8  C16 UNL     1      14.873  28.653  16.967  0.00  0.00    +0.008 A 
ATOM      9  C17 UNL     1      15.231  28.933  15.612  0.00  0.00    +0.008 A 
ATOM     10  C18 UNL     1      15.807  30.049  14.968  0.00  0.00    +0.010 A 
ATOM     11  C19 UNL     1      16.033  30.013  13.589  0.00  0.00    +0.001 A 
ATOM     12  C20 UNL     1      15.693  28.887  12.848  0.00  0.00    +0.002 A 
ATOM     13  C21 UNL     1      15.122  27.769  13.461  0.00  0.00    +0.026 A 
ATOM     14  C22 UNL     1      14.900  27.812  14.849  0.00  0.00    +0.050 A 
ENDBRANCH   1   2
BRANCH   1  15
ATOM     15  C1  UNL     1      15.095  24.570  15.097  0.00  0.00    +0.148 C 
BRANCH  15  16
ATOM     16  O1  UNL     1      14.631  23.491  14.267  0.00  0.00    -0.389 OA
ATOM     17  H1  UNL     1      14.584  23.879  13.366  0.00  0.00    +0.210 HD
ENDBRANCH  15  16
BRANCH  15  18
ATOM     18  C2  UNL     1      15.644  23.972  16.408  0.00  0.00    +0.114 C 
BRANCH  18  19
ATOM     19  N1  UNL     1      17.083  24.278  16.507  0.00  0.00    -0.310 NA
ATOM     20  H5  UNL     1      17.434  24.548  15.587  0.00  0.00    +0.122 HD
BRANCH  19  21
ATOM     21  C3  UNL     1      17.307  25.402  17.420  0.00  0.00    +0.116 C 
BRANCH  21  22
ATOM     22  C4  UNL     1      17.954  26.554  16.690  0.00  0.00    -0.034 A 
ATOM     23  C5  UNL     1      18.190  26.476  15.310  0.00  0.00    +0.005 A 
ATOM     24  C6  UNL     1      18.777  27.543  14.629  0.00  0.00    +0.000 A 
ATOM     25  C7  UNL     1      19.130  28.701  15.318  0.00  0.00    +0.000 A 
ATOM     26  C8  UNL     1      18.893  28.794  16.689  0.00  0.00    +0.000 A 
ATOM     27  C9  UNL     1      18.306  27.728  17.372  0.00  0.00    +0.005 A 
ENDBRANCH  21  22
ENDBRANCH  19  21
ENDBRANCH  18  19
ENDBRANCH  15  18
ENDBRANCH   1  15
TORSDOF 7
ENDMDL
MODEL 5
REMARK VINA RESULT:    -3.977      2.294      4.982
REMARK INTER + INTRA:          -8.408
REMARK INTER:                  -5.372
REMARK INTRA:                  -3.036
REMARK UNBOUND:                -2.920
REMARK  Name = /home/vital/Documents/PhD_2021/Malaria_codes/data/pdb_ligands_mmv/ligand_236.pdb
REMARK  7 active torsions:
REMARK  status: ('A' for Active; 'I' for Inactive)
REMARK    1  A    between atoms: O1_1  and  C1_2
REMARK    2  A    between atoms: C1_2  and  C2_3
REMARK    3  A    between atoms: C1_2  and  C10_12
REMARK    4  A    between atoms: C2_3  and  N1_4
REMARK    5  A    between atoms: N1_4  and  C3_5
REMARK    6  A    between atoms: C3_5  and  C4_6
REMARK    7  A    between atoms: C10_12  and  N2_13
REMARK                            x       y       z     vdW  Elec       q    Type
REMARK                         _______ _______ _______ _____ _____    ______ ____
ROOT
ATOM      1  C10 UNL     1      18.479  27.553  14.255  0.00  0.00    +0.155 C 
ENDROOT
BRANCH   1   2
ATOM      2  N2  UNL     1      17.048  27.796  14.316  0.00  0.00    -0.337 N 
ATOM      3  C11 UNL     1      16.448  29.035  14.190  0.00  0.00    +0.050 A 
ATOM      4  C12 UNL     1      16.993  30.319  14.013  0.00  0.00    +0.026 A 
ATOM      5  C13 UNL     1      16.116  31.403  13.903  0.00  0.00    +0.002 A 
ATOM      6  C14 UNL     1      14.739  31.218  13.969  0.00  0.00    +0.001 A 
ATOM      7  C15 UNL     1      14.205  29.938  14.147  0.00  0.00    +0.010 A 
ATOM      8  C16 UNL     1      15.069  28.827  14.262  0.00  0.00    +0.008 A 
ATOM      9  C17 UNL     1      14.850  27.428  14.451  0.00  0.00    +0.008 A 
ATOM     10  C18 UNL     1      13.690  26.635  14.596  0.00  0.00    +0.010 A 
ATOM     11  C19 UNL     1      13.813  25.254  14.776  0.00  0.00    +0.001 A 
ATOM     12  C20 UNL     1      15.069  24.657  14.815  0.00  0.00    +0.002 A 
ATOM     13  C21 UNL     1      16.231  25.419  14.674  0.00  0.00    +0.026 A 
ATOM     14  C22 UNL     1      16.099  26.806  14.491  0.00  0.00    +0.050 A 
ENDBRANCH   1   2
BRANCH   1  15
ATOM     15  C1  UNL     1      19.203  27.847  15.570  0.00  0.00    +0.148 C 
BRANCH  15  16
ATOM     16  O1  UNL     1      20.380  28.620  15.282  0.00  0.00    -0.389 OA
ATOM     17  H1  UNL     1      20.645  28.993  16.151  0.00  0.00    +0.210 HD
ENDBRANCH  15  16
BRANCH  15  18
ATOM     18  C2  UNL     1      19.632  26.572  16.326  0.00  0.00    +0.114 C 
BRANCH  18  19
ATOM     19  N1  UNL     1      18.669  26.314  17.412  0.00  0.00    -0.310 NA
ATOM     20  H5  UNL     1      19.156  25.881  18.199  0.00  0.00    +0.122 HD
BRANCH  19  21
ATOM     21  C3  UNL     1      18.080  27.569  17.886  0.00  0.00    +0.116 C 
BRANCH  21  22
ATOM     22  C4  UNL     1      16.578  27.445  17.981  0.00  0.00    -0.034 A 
ATOM     23  C5  UNL     1      15.983  26.195  18.203  0.00  0.00    +0.005 A 
ATOM     24  C6  UNL     1      14.597  26.076  18.303  0.00  0.00    +0.000 A 
ATOM     25  C7  UNL     1      13.790  27.207  18.187  0.00  0.00    +0.000 A 
ATOM     26  C8  UNL     1      14.370  28.457  17.975  0.00  0.00    +0.000 A 
ATOM     27  C9  UNL     1      15.758  28.577  17.875  0.00  0.00    +0.005 A 
ENDBRANCH  21  22
ENDBRANCH  19  21
ENDBRANCH  18  19
ENDBRANCH  15  18
ENDBRANCH   1  15
TORSDOF 7
ENDMDL
MODEL 6
REMARK VINA RESULT:    -3.812      2.593      5.179
REMARK INTER + INTRA:          -8.180
REMARK INTER:                  -5.107
REMARK INTRA:                  -3.073
REMARK UNBOUND:                -2.920
REMARK  Name = /home/vital/Documents/PhD_2021/Malaria_codes/data/pdb_ligands_mmv/ligand_236.pdb
REMARK  7 active torsions:
REMARK  status: ('A' for Active; 'I' for Inactive)
REMARK    1  A    between atoms: O1_1  and  C1_2
REMARK    2  A    between atoms: C1_2  and  C2_3
REMARK    3  A    between atoms: C1_2  and  C10_12
REMARK    4  A    between atoms: C2_3  and  N1_4
REMARK    5  A    between atoms: N1_4  and  C3_5
REMARK    6  A    between atoms: C3_5  and  C4_6
REMARK    7  A    between atoms: C10_12  and  N2_13
REMARK                            x       y       z     vdW  Elec       q    Type
REMARK                         _______ _______ _______ _____ _____    ______ ____
ROOT
ATOM      1  C10 UNL     1      18.098  28.623  13.883  0.00  0.00    +0.155 C 
ENDROOT
BRANCH   1   2
ATOM      2  N2  UNL     1      17.798  27.442  14.674  0.00  0.00    -0.337 N 
ATOM      3  C11 UNL     1      16.712  26.610  14.477  0.00  0.00    +0.050 A 
ATOM      4  C12 UNL     1      15.651  26.668  13.556  0.00  0.00    +0.026 A 
ATOM      5  C13 UNL     1      14.687  25.655  13.589  0.00  0.00    +0.002 A 
ATOM      6  C14 UNL     1      14.774  24.617  14.510  0.00  0.00    +0.001 A 
ATOM      7  C15 UNL     1      15.830  24.568  15.424  0.00  0.00    +0.010 A 
ATOM      8  C16 UNL     1      16.816  25.579  15.412  0.00  0.00    +0.008 A 
ATOM      9  C17 UNL     1      17.989  25.817  16.194  0.00  0.00    +0.008 A 
ATOM     10  C18 UNL     1      18.597  25.134  17.269  0.00  0.00    +0.010 A 
ATOM     11  C19 UNL     1      19.770  25.640  17.837  0.00  0.00    +0.001 A 
ATOM     12  C20 UNL     1      20.339  26.813  17.352  0.00  0.00    +0.002 A 
ATOM     13  C21 UNL     1      19.757  27.507  16.288  0.00  0.00    +0.026 A 
ATOM     14  C22 UNL     1      18.579  26.990  15.721  0.00  0.00    +0.050 A 
ENDBRANCH   1   2
BRANCH   1  15
ATOM     15  C1  UNL     1      17.206  29.821  14.215  0.00  0.00    +0.148 C 
BRANCH  15  16
ATOM     16  O1  UNL     1      17.287  30.765  13.134  0.00  0.00    -0.389 OA
ATOM     17  H1  UNL     1      17.585  30.231  12.365  0.00  0.00    +0.210 HD
ENDBRANCH  15  16
BRANCH  15  18
ATOM     18  C2  UNL     1      17.612  30.539  15.518  0.00  0.00    +0.114 C 
BRANCH  18  19
ATOM     19  N1  UNL     1      16.473  30.509  16.454  0.00  0.00    -0.310 NA
ATOM     20  H5  UNL     1      15.644  30.165  15.966  0.00  0.00    +0.122 HD
BRANCH  19  21
ATOM     21  C3  UNL     1      16.747  29.599  17.569  0.00  0.00    +0.116 C 
BRANCH  21  22
ATOM     22  C4  UNL     1      15.719  28.495  17.614  0.00  0.00    -0.034 A 
ATOM     23  C5  UNL     1      14.641  28.492  16.717  0.00  0.00    +0.005 A 
ATOM     24  C6  UNL     1      13.694  27.468  16.747  0.00  0.00    +0.000 A 
ATOM     25  C7  UNL     1      13.817  26.432  17.671  0.00  0.00    +0.000 A 
ATOM     26  C8  UNL     1      14.888  26.418  18.563  0.00  0.00    +0.000 A 
ATOM     27  C9  UNL     1      15.836  27.443  18.534  0.00  0.00    +0.005 A 
ENDBRANCH  21  22
ENDBRANCH  19  21
ENDBRANCH  18  19
ENDBRANCH  15  18
ENDBRANCH   1  15
TORSDOF 7
ENDMDL
MODEL 7
REMARK VINA RESULT:    -3.781      2.290      4.951
REMARK INTER + INTRA:          -8.137
REMARK INTER:                  -5.140
REMARK INTRA:                  -2.997
REMARK UNBOUND:                -2.920
REMARK  Name = /home/vital/Documents/PhD_2021/Malaria_codes/data/pdb_ligands_mmv/ligand_236.pdb
REMARK  7 active torsions:
REMARK  status: ('A' for Active; 'I' for Inactive)
REMARK    1  A    between atoms: O1_1  and  C1_2
REMARK    2  A    between atoms: C1_2  and  C2_3
REMARK    3  A    between atoms: C1_2  and  C10_12
REMARK    4  A    between atoms: C2_3  and  N1_4
REMARK    5  A    between atoms: N1_4  and  C3_5
REMARK    6  A    between atoms: C3_5  and  C4_6
REMARK    7  A    between atoms: C10_12  and  N2_13
REMARK                            x       y       z     vdW  Elec       q    Type
REMARK                         _______ _______ _______ _____ _____    ______ ____
ROOT
ATOM      1  C10 UNL     1      18.495  27.556  14.211  0.00  0.00    +0.155 C 
ENDROOT
BRANCH   1   2
ATOM      2  N2  UNL     1      17.077  27.858  14.297  0.00  0.00    -0.337 N 
ATOM      3  C11 UNL     1      16.087  26.939  14.591  0.00  0.00    +0.050 A 
ATOM      4  C12 UNL     1      16.145  25.557  14.842  0.00  0.00    +0.026 A 
ATOM      5  C13 UNL     1      14.954  24.884  15.129  0.00  0.00    +0.002 A 
ATOM      6  C14 UNL     1      13.741  25.563  15.164  0.00  0.00    +0.001 A 
ATOM      7  C15 UNL     1      13.690  26.937  14.911  0.00  0.00    +0.010 A 
ATOM      8  C16 UNL     1      14.880  27.640  14.618  0.00  0.00    +0.008 A 
ATOM      9  C17 UNL     1      15.163  29.007  14.315  0.00  0.00    +0.008 A 
ATOM     10  C18 UNL     1      14.362  30.164  14.196  0.00  0.00    +0.010 A 
ATOM     11  C19 UNL     1      14.956  31.388  13.875  0.00  0.00    +0.001 A 
ATOM     12  C20 UNL     1      16.329  31.474  13.672  0.00  0.00    +0.002 A 
ATOM     13  C21 UNL     1      17.144  30.344  13.785  0.00  0.00    +0.026 A 
ATOM     14  C22 UNL     1      16.539  29.118  14.110  0.00  0.00    +0.050 A 
ENDBRANCH   1   2
BRANCH   1  15
ATOM     15  C1  UNL     1      19.262  27.861  15.499  0.00  0.00    +0.148 C 
BRANCH  15  16
ATOM     16  O1  UNL     1      20.429  28.632  15.166  0.00  0.00    -0.389 OA
ATOM     17  H1  UNL     1      21.173  27.995  15.246  0.00  0.00    +0.210 HD
ENDBRANCH  15  16
BRANCH  15  18
ATOM     18  C2  UNL     1      19.716  26.593  16.250  0.00  0.00    +0.114 C 
BRANCH  18  19
ATOM     19  N1  UNL     1      18.748  26.301  17.324  0.00  0.00    -0.310 NA
ATOM     20  H5  UNL     1      19.185  25.688  18.015  0.00  0.00    +0.122 HD
BRANCH  19  21
ATOM     21  C3  UNL     1      18.353  27.535  18.008  0.00  0.00    +0.116 C 
BRANCH  21  22
ATOM     22  C4  UNL     1      16.851  27.604  18.146  0.00  0.00    -0.034 A 
ATOM     23  C5  UNL     1      16.171  28.806  17.904  0.00  0.00    +0.005 A 
ATOM     24  C6  UNL     1      14.782  28.872  18.019  0.00  0.00    +0.000 A 
ATOM     25  C7  UNL     1      14.057  27.737  18.374  0.00  0.00    +0.000 A 
ATOM     26  C8  UNL     1      14.721  26.533  18.609  0.00  0.00    +0.000 A 
ATOM     27  C9  UNL     1      16.110  26.466  18.494  0.00  0.00    +0.005 A 
ENDBRANCH  21  22
ENDBRANCH  19  21
ENDBRANCH  18  19
ENDBRANCH  15  18
ENDBRANCH   1  15
TORSDOF 7
ENDMDL
MODEL 8
REMARK VINA RESULT:    -3.610      1.759      4.605
REMARK INTER + INTRA:          -7.901
REMARK INTER:                  -4.789
REMARK INTRA:                  -3.112
REMARK UNBOUND:                -2.920
REMARK  Name = /home/vital/Documents/PhD_2021/Malaria_codes/data/pdb_ligands_mmv/ligand_236.pdb
REMARK  7 active torsions:
REMARK  status: ('A' for Active; 'I' for Inactive)
REMARK    1  A    between atoms: O1_1  and  C1_2
REMARK    2  A    between atoms: C1_2  and  C2_3
REMARK    3  A    between atoms: C1_2  and  C10_12
REMARK    4  A    between atoms: C2_3  and  N1_4
REMARK    5  A    between atoms: N1_4  and  C3_5
REMARK    6  A    between atoms: C3_5  and  C4_6
REMARK    7  A    between atoms: C10_12  and  N2_13
REMARK                            x       y       z     vdW  Elec       q    Type
REMARK                         _______ _______ _______ _____ _____    ______ ____
ROOT
ATOM      1  C10 UNL     1      15.412  27.499  18.679  0.00  0.00    +0.155 C 
ENDROOT
BRANCH   1   2
ATOM      2  N2  UNL     1      15.305  27.683  17.242  0.00  0.00    -0.337 N 
ATOM      3  C11 UNL     1      15.147  26.665  16.321  0.00  0.00    +0.050 A 
ATOM      4  C12 UNL     1      15.079  25.269  16.481  0.00  0.00    +0.026 A 
ATOM      5  C13 UNL     1      14.899  24.479  15.341  0.00  0.00    +0.002 A 
ATOM      6  C14 UNL     1      14.790  25.058  14.081  0.00  0.00    +0.001 A 
ATOM      7  C15 UNL     1      14.860  26.446  13.931  0.00  0.00    +0.010 A 
ATOM      8  C16 UNL     1      15.043  27.266  15.066  0.00  0.00    +0.008 A 
ATOM      9  C17 UNL     1      15.159  28.678  15.249  0.00  0.00    +0.008 A 
ATOM     10  C18 UNL     1      15.135  29.779  14.365  0.00  0.00    +0.010 A 
ATOM     11  C19 UNL     1      15.284  31.075  14.869  0.00  0.00    +0.001 A 
ATOM     12  C20 UNL     1      15.457  31.287  16.232  0.00  0.00    +0.002 A 
ATOM     13  C21 UNL     1      15.484  30.214  17.127  0.00  0.00    +0.026 A 
ATOM     14  C22 UNL     1      15.331  28.914  16.614  0.00  0.00    +0.050 A 
ENDBRANCH   1   2
BRANCH   1  15
ATOM     15  C1  UNL     1      16.783  26.992  19.128  0.00  0.00    +0.148 C 
BRANCH  15  16
ATOM     16  O1  UNL     1      16.593  26.007  20.158  0.00  0.00    -0.389 OA
ATOM     17  H1  UNL     1      17.499  25.826  20.492  0.00  0.00    +0.210 HD
ENDBRANCH  15  16
BRANCH  15  18
ATOM     18  C2  UNL     1      17.691  28.108  19.685  0.00  0.00    +0.114 C 
BRANCH  18  19
ATOM     19  N1  UNL     1      18.531  28.631  18.592  0.00  0.00    -0.310 NA
ATOM     20  H5  UNL     1      19.348  29.099  18.988  0.00  0.00    +0.122 HD
BRANCH  19  21
ATOM     21  C3  UNL     1      19.008  27.537  17.742  0.00  0.00    +0.116 C 
BRANCH  21  22
ATOM     22  C4  UNL     1      18.856  27.897  16.283  0.00  0.00    -0.034 A 
ATOM     23  C5  UNL     1      18.912  29.237  15.874  0.00  0.00    +0.005 A 
ATOM     24  C6  UNL     1      18.784  29.573  14.526  0.00  0.00    +0.000 A 
ATOM     25  C7  UNL     1      18.603  28.574  13.572  0.00  0.00    +0.000 A 
ATOM     26  C8  UNL     1      18.555  27.237  13.965  0.00  0.00    +0.000 A 
ATOM     27  C9  UNL     1      18.682  26.899  15.314  0.00  0.00    +0.005 A 
ENDBRANCH  21  22
ENDBRANCH  19  21
ENDBRANCH  18  19
ENDBRANCH  15  18
ENDBRANCH   1  15
TORSDOF 7
ENDMDL
MODEL 9
REMARK VINA RESULT:    -3.549      1.733      4.217
REMARK INTER + INTRA:          -7.817
REMARK INTER:                  -4.720
REMARK INTRA:                  -3.097
REMARK UNBOUND:                -2.920
REMARK  Name = /home/vital/Documents/PhD_2021/Malaria_codes/data/pdb_ligands_mmv/ligand_236.pdb
REMARK  7 active torsions:
REMARK  status: ('A' for Active; 'I' for Inactive)
REMARK    1  A    between atoms: O1_1  and  C1_2
REMARK    2  A    between atoms: C1_2  and  C2_3
REMARK    3  A    between atoms: C1_2  and  C10_12
REMARK    4  A    between atoms: C2_3  and  N1_4
REMARK    5  A    between atoms: N1_4  and  C3_5
REMARK    6  A    between atoms: C3_5  and  C4_6
REMARK    7  A    between atoms: C10_12  and  N2_13
REMARK                            x       y       z     vdW  Elec       q    Type
REMARK                         _______ _______ _______ _____ _____    ______ ____
ROOT
ATOM      1  C10 UNL     1      15.495  27.241  18.962  0.00  0.00    +0.155 C 
ENDROOT
BRANCH   1   2
ATOM      2  N2  UNL     1      15.309  27.544  17.554  0.00  0.00    -0.337 N 
ATOM      3  C11 UNL     1      15.355  28.811  17.003  0.00  0.00    +0.050 A 
ATOM      4  C12 UNL     1      15.547  30.075  17.590  0.00  0.00    +0.026 A 
ATOM      5  C13 UNL     1      15.557  31.198  16.758  0.00  0.00    +0.002 A 
ATOM      6  C14 UNL     1      15.380  31.071  15.384  0.00  0.00    +0.001 A 
ATOM      7  C15 UNL     1      15.188  29.812  14.809  0.00  0.00    +0.010 A 
ATOM      8  C16 UNL     1      15.173  28.661  15.627  0.00  0.00    +0.008 A 
ATOM      9  C17 UNL     1      15.000  27.268  15.360  0.00  0.00    +0.008 A 
ATOM     10  C18 UNL     1      14.777  26.523  14.182  0.00  0.00    +0.010 A 
ATOM     11  C19 UNL     1      14.641  25.133  14.256  0.00  0.00    +0.001 A 
ATOM     12  C20 UNL     1      14.721  24.481  15.481  0.00  0.00    +0.002 A 
ATOM     13  C21 UNL     1      14.941  25.196  16.662  0.00  0.00    +0.026 A 
ATOM     14  C22 UNL     1      15.079  26.592  16.579  0.00  0.00    +0.050 A 
ENDBRANCH   1   2
BRANCH   1  15
ATOM     15  C1  UNL     1      16.900  26.737  19.297  0.00  0.00    +0.148 C 
BRANCH  15  16
ATOM     16  O1  UNL     1      16.792  25.706  20.293  0.00  0.00    -0.389 OA
ATOM     17  H1  UNL     1      17.719  25.422  20.451  0.00  0.00    +0.210 HD
ENDBRANCH  15  16
BRANCH  15  18
ATOM     18  C2  UNL     1      17.828  27.843  19.842  0.00  0.00    +0.114 C 
BRANCH  18  19
ATOM     19  N1  UNL     1      18.623  28.391  18.727  0.00  0.00    -0.310 NA
ATOM     20  H5  UNL     1      19.456  28.850  19.100  0.00  0.00    +0.122 HD
BRANCH  19  21
ATOM     21  C3  UNL     1      19.065  27.316  17.834  0.00  0.00    +0.116 C 
BRANCH  21  22
ATOM     22  C4  UNL     1      18.868  27.713  16.391  0.00  0.00    -0.034 A 
ATOM     23  C5  UNL     1      18.610  26.739  15.417  0.00  0.00    +0.005 A 
ATOM     24  C6  UNL     1      18.415  27.101  14.084  0.00  0.00    +0.000 A 
ATOM     25  C7  UNL     1      18.473  28.442  13.711  0.00  0.00    +0.000 A 
ATOM     26  C8  UNL     1      18.721  29.422  14.671  0.00  0.00    +0.000 A 
ATOM     27  C9  UNL     1      18.916  29.060  16.006  0.00  0.00    +0.005 A 
ENDBRANCH  21  22
ENDBRANCH  19  21
ENDBRANCH  18  19
ENDBRANCH  15  18
ENDBRANCH   1  15
TORSDOF 7
ENDMDL
