MODEL 1
REMARK VINA RESULT:    -2.441      0.000      0.000
REMARK INTER + INTRA:          -9.757
REMARK INTER:                  -3.725
REMARK INTRA:                  -6.032
REMARK UNBOUND:                -6.032
REMARK  Name = /home/vital/Documents/PhD_2021/Malaria_codes/data/pdb_ligands_mmv/ligand_293.pdb
REMARK  9 active torsions:
REMARK  status: ('A' for Active; 'I' for Inactive)
REMARK    1  A    between atoms: C1_1  and  C2_2
REMARK    2  A    between atoms: C1_1  and  C18_20
REMARK    3  A    between atoms: C2_2  and  C3_3
REMARK    4  A    between atoms: C3_3  and  C4_4
REMARK    5  A    between atoms: C4_4  and  N1_5
REMARK    6  A    between atoms: N1_5  and  C5_6
REMARK    7  A    between atoms: C18_20  and  C19_21
REMARK    8  A    between atoms: C19_21  and  N3_22
REMARK    9  A    between atoms: N3_22  and  C20_23
REMARK                            x       y       z     vdW  Elec       q    Type
REMARK                         _______ _______ _______ _____ _____    ______ ____
ROOT
ATOM      1  C1  UNL     1      20.866  30.753  18.146  0.00  0.00    +0.002 C 
ENDROOT
BRANCH   1   2
ATOM      2  C2  UNL     1      21.043  29.569  19.100  0.00  0.00    +0.002 C 
BRANCH   2   3
ATOM      3  C3  UNL     1      21.354  28.250  18.385  0.00  0.00    +0.019 C 
BRANCH   3   4
ATOM      4  C4  UNL     1      20.110  27.538  17.851  0.00  0.00    +0.101 C 
BRANCH   4   5
ATOM      5  N1  UNL     1      20.387  26.861  16.571  0.00  0.00    -0.343 N 
ATOM      6  H9  UNL     1      20.249  25.857  16.684  0.00  0.00    +0.146 HD
BRANCH   5   7
ATOM      7  C5  UNL     1      19.550  27.300  15.505  0.00  0.00    +0.041 A 
ATOM      8  C6  UNL     1      19.984  28.259  14.577  0.00  0.00    -0.005 A 
ATOM      9  C7  UNL     1      21.319  28.958  14.611  0.00  0.00    +0.039 C 
ATOM     10  C8  UNL     1      21.179  30.452  14.300  0.00  0.00    +0.005 C 
ATOM     11  C9  UNL     1      20.226  30.782  13.143  0.00  0.00    +0.006 C 
ATOM     12  C10 UNL     1      19.610  29.554  12.477  0.00  0.00    +0.056 C 
ATOM     13  C11 UNL     1      19.135  28.568  13.512  0.00  0.00    +0.047 A 
ATOM     14  N2  UNL     1      17.919  28.012  13.330  0.00  0.00    -0.251 NA
ATOM     15  C12 UNL     1      17.488  27.123  14.236  0.00  0.00    +0.073 A 
ATOM     16  C13 UNL     1      16.225  26.569  14.061  0.00  0.00    +0.028 A 
ATOM     17  C14 UNL     1      15.693  25.642  14.960  0.00  0.00    +0.002 A 
ATOM     18  C15 UNL     1      16.434  25.256  16.066  0.00  0.00    +0.001 A 
ATOM     19  C16 UNL     1      17.705  25.795  16.260  0.00  0.00    +0.012 A 
ATOM     20  C17 UNL     1      18.258  26.726  15.349  0.00  0.00    +0.021 A 
ENDBRANCH   5   7
ENDBRANCH   4   5
ENDBRANCH   3   4
ENDBRANCH   2   3
ENDBRANCH   1   2
BRANCH   1  21
ATOM     21  C18 UNL     1      19.803  31.755  18.615  0.00  0.00    +0.019 C 
BRANCH  21  22
ATOM     22  C19 UNL     1      18.577  31.809  17.703  0.00  0.00    +0.101 C 
BRANCH  22  23
ATOM     23  N3  UNL     1      18.481  30.608  16.854  0.00  0.00    -0.343 N 
ATOM     24  H26 UNL     1      18.902  30.803  15.947  0.00  0.00    +0.146 HD
BRANCH  23  25
ATOM     25  C20 UNL     1      17.134  30.179  16.637  0.00  0.00    +0.041 A 
ATOM     26  C21 UNL     1      16.489  29.312  17.545  0.00  0.00    -0.005 A 
ATOM     27  C22 UNL     1      17.146  28.852  18.826  0.00  0.00    +0.039 C 
ATOM     28  C23 UNL     1      16.183  28.226  19.834  0.00  0.00    +0.005 C 
ATOM     29  C24 UNL     1      15.276  27.220  19.142  0.00  0.00    +0.006 C 
ATOM     30  C25 UNL     1      14.426  27.931  18.096  0.00  0.00    +0.056 C 
ATOM     31  C26 UNL     1      15.218  28.844  17.194  0.00  0.00    +0.047 A 
ATOM     32  N4  UNL     1      14.578  29.207  16.058  0.00  0.00    -0.251 NA
ATOM     33  C27 UNL     1      15.177  30.060  15.218  0.00  0.00    +0.073 A 
ATOM     34  C28 UNL     1      14.495  30.437  14.067  0.00  0.00    +0.028 A 
ATOM     35  C29 UNL     1      15.038  31.335  13.146  0.00  0.00    +0.002 A 
ATOM     36  C30 UNL     1      16.292  31.878  13.378  0.00  0.00    +0.001 A 
ATOM     37  C31 UNL     1      16.994  31.511  14.524  0.00  0.00    +0.012 A 
ATOM     38  C32 UNL     1      16.459  30.588  15.456  0.00  0.00    +0.021 A 
ENDBRANCH  23  25
ENDBRANCH  22  23
ENDBRANCH  21  22
ENDBRANCH   1  21
TORSDOF 9
ENDMDL
MODEL 2
REMARK VINA RESULT:    -2.398      1.674      4.357
REMARK INTER + INTRA:          -9.692
REMARK INTER:                  -4.618
REMARK INTRA:                  -5.074
REMARK UNBOUND:                -6.032
REMARK  Name = /home/vital/Documents/PhD_2021/Malaria_codes/data/pdb_ligands_mmv/ligand_293.pdb
REMARK  9 active torsions:
REMARK  status: ('A' for Active; 'I' for Inactive)
REMARK    1  A    between atoms: C1_1  and  C2_2
REMARK    2  A    between atoms: C1_1  and  C18_20
REMARK    3  A    between atoms: C2_2  and  C3_3
REMARK    4  A    between atoms: C3_3  and  C4_4
REMARK    5  A    between atoms: C4_4  and  N1_5
REMARK    6  A    between atoms: N1_5  and  C5_6
REMARK    7  A    between atoms: C18_20  and  C19_21
REMARK    8  A    between atoms: C19_21  and  N3_22
REMARK    9  A    between atoms: N3_22  and  C20_23
REMARK                            x       y       z     vdW  Elec       q    Type
REMARK                         _______ _______ _______ _____ _____    ______ ____
ROOT
ATOM      1  C1  UNL     1      21.166  28.933  15.363  0.00  0.00    +0.002 C 
ENDROOT
BRANCH   1   2
ATOM      2  C2  UNL     1      21.146  27.635  14.554  0.00  0.00    +0.002 C 
BRANCH   2   3
ATOM      3  C3  UNL     1      19.923  27.502  13.641  0.00  0.00    +0.019 C 
BRANCH   3   4
ATOM      4  C4  UNL     1      19.046  28.755  13.609  0.00  0.00    +0.101 C 
BRANCH   4   5
ATOM      5  N1  UNL     1      17.833  28.541  12.801  0.00  0.00    -0.343 N 
ATOM      6  H9  UNL     1      17.751  27.550  12.571  0.00  0.00    +0.146 HD
BRANCH   5   7
ATOM      7  C5  UNL     1      16.633  28.936  13.463  0.00  0.00    +0.041 A 
ATOM      8  C6  UNL     1      16.261  30.285  13.565  0.00  0.00    -0.005 A 
ATOM      9  C7  UNL     1      17.068  31.450  13.052  0.00  0.00    +0.039 C 
ATOM     10  C8  UNL     1      17.083  32.609  14.054  0.00  0.00    +0.005 C 
ATOM     11  C9  UNL     1      15.728  32.908  14.710  0.00  0.00    +0.006 C 
ATOM     12  C10 UNL     1      14.589  32.018  14.217  0.00  0.00    +0.056 C 
ATOM     13  C11 UNL     1      15.028  30.579  14.152  0.00  0.00    +0.047 A 
ATOM     14  N2  UNL     1      14.182  29.647  14.638  0.00  0.00    -0.251 NA
ATOM     15  C12 UNL     1      14.553  28.360  14.574  0.00  0.00    +0.073 A 
ATOM     16  C13 UNL     1      13.692  27.403  15.098  0.00  0.00    +0.028 A 
ATOM     17  C14 UNL     1      14.002  26.041  15.081  0.00  0.00    +0.002 A 
ATOM     18  C15 UNL     1      15.203  25.618  14.532  0.00  0.00    +0.001 A 
ATOM     19  C16 UNL     1      16.080  26.560  13.998  0.00  0.00    +0.012 A 
ATOM     20  C17 UNL     1      15.771  27.940  13.998  0.00  0.00    +0.021 A 
ENDBRANCH   5   7
ENDBRANCH   4   5
ENDBRANCH   3   4
ENDBRANCH   2   3
ENDBRANCH   1   2
BRANCH   1  21
ATOM     21  C18 UNL     1      21.292  28.704  16.874  0.00  0.00    +0.019 C 
BRANCH  21  22
ATOM     22  C19 UNL     1      19.998  28.984  17.640  0.00  0.00    +0.101 C 
BRANCH  22  23
ATOM     23  N3  UNL     1      18.825  28.954  16.747  0.00  0.00    -0.343 N 
ATOM     24  H26 UNL     1      18.629  29.898  16.419  0.00  0.00    +0.146 HD
BRANCH  23  25
ATOM     25  C20 UNL     1      17.648  28.450  17.383  0.00  0.00    +0.041 A 
ATOM     26  C21 UNL     1      16.697  29.322  17.957  0.00  0.00    -0.005 A 
ATOM     27  C22 UNL     1      16.824  30.826  17.866  0.00  0.00    +0.039 C 
ATOM     28  C23 UNL     1      15.546  31.585  18.219  0.00  0.00    +0.005 C 
ATOM     29  C24 UNL     1      14.945  31.035  19.503  0.00  0.00    +0.006 C 
ATOM     30  C25 UNL     1      14.554  29.576  19.302  0.00  0.00    +0.056 C 
ATOM     31  C26 UNL     1      15.639  28.744  18.666  0.00  0.00    +0.047 A 
ATOM     32  N4  UNL     1      15.472  27.407  18.796  0.00  0.00    -0.251 NA
ATOM     33  C27 UNL     1      16.354  26.582  18.218  0.00  0.00    +0.073 A 
ATOM     34  C28 UNL     1      16.154  25.212  18.344  0.00  0.00    +0.028 A 
ATOM     35  C29 UNL     1      17.015  24.281  17.759  0.00  0.00    +0.002 A 
ATOM     36  C30 UNL     1      18.103  24.724  17.022  0.00  0.00    +0.001 A 
ATOM     37  C31 UNL     1      18.323  26.094  16.885  0.00  0.00    +0.012 A 
ATOM     38  C32 UNL     1      17.466  27.045  17.490  0.00  0.00    +0.021 A 
ENDBRANCH  23  25
ENDBRANCH  22  23
ENDBRANCH  21  22
ENDBRANCH   1  21
TORSDOF 9
ENDMDL
MODEL 3
REMARK VINA RESULT:    -2.373      2.107      5.006
REMARK INTER + INTRA:          -9.654
REMARK INTER:                  -3.666
REMARK INTRA:                  -5.988
REMARK UNBOUND:                -6.032
REMARK  Name = /home/vital/Documents/PhD_2021/Malaria_codes/data/pdb_ligands_mmv/ligand_293.pdb
REMARK  9 active torsions:
REMARK  status: ('A' for Active; 'I' for Inactive)
REMARK    1  A    between atoms: C1_1  and  C2_2
REMARK    2  A    between atoms: C1_1  and  C18_20
REMARK    3  A    between atoms: C2_2  and  C3_3
REMARK    4  A    between atoms: C3_3  and  C4_4
REMARK    5  A    between atoms: C4_4  and  N1_5
REMARK    6  A    between atoms: N1_5  and  C5_6
REMARK    7  A    between atoms: C18_20  and  C19_21
REMARK    8  A    between atoms: C19_21  and  N3_22
REMARK    9  A    between atoms: N3_22  and  C20_23
REMARK                            x       y       z     vdW  Elec       q    Type
REMARK                         _______ _______ _______ _____ _____    ______ ____
ROOT
ATOM      1  C1  UNL     1      20.994  26.828  17.041  0.00  0.00    +0.002 C 
ENDROOT
BRANCH   1   2
ATOM      2  C2  UNL     1      21.407  27.732  18.205  0.00  0.00    +0.002 C 
BRANCH   2   3
ATOM      3  C3  UNL     1      20.857  27.274  19.560  0.00  0.00    +0.019 C 
BRANCH   3   4
ATOM      4  C4  UNL     1      19.510  27.905  19.917  0.00  0.00    +0.101 C 
BRANCH   4   5
ATOM      5  N1  UNL     1      18.633  26.943  20.608  0.00  0.00    -0.343 N 
ATOM      6  H9  UNL     1      18.358  27.326  21.512  0.00  0.00    +0.146 HD
BRANCH   5   7
ATOM      7  C5  UNL     1      17.445  26.637  19.883  0.00  0.00    +0.041 A 
ATOM      8  C6  UNL     1      17.321  25.452  19.141  0.00  0.00    -0.005 A 
ATOM      9  C7  UNL     1      18.399  24.411  18.981  0.00  0.00    +0.039 C 
ATOM     10  C8  UNL     1      18.481  23.904  17.537  0.00  0.00    +0.005 C 
ATOM     11  C9  UNL     1      17.124  23.640  16.871  0.00  0.00    +0.006 C 
ATOM     12  C10 UNL     1      15.924  23.894  17.781  0.00  0.00    +0.056 C 
ATOM     13  C11 UNL     1      16.091  25.189  18.533  0.00  0.00    +0.047 A 
ATOM     14  N2  UNL     1      15.023  26.010  18.603  0.00  0.00    -0.251 NA
ATOM     15  C12 UNL     1      15.151  27.159  19.281  0.00  0.00    +0.073 A 
ATOM     16  C13 UNL     1      14.059  28.017  19.331  0.00  0.00    +0.028 A 
ATOM     17  C14 UNL     1      14.107  29.238  20.007  0.00  0.00    +0.002 A 
ATOM     18  C15 UNL     1      15.275  29.621  20.647  0.00  0.00    +0.001 A 
ATOM     19  C16 UNL     1      16.383  28.776  20.613  0.00  0.00    +0.012 A 
ATOM     20  C17 UNL     1      16.341  27.532  19.942  0.00  0.00    +0.021 A 
ENDBRANCH   5   7
ENDBRANCH   4   5
ENDBRANCH   3   4
ENDBRANCH   2   3
ENDBRANCH   1   2
BRANCH   1  21
ATOM     21  C18 UNL     1      20.797  27.588  15.724  0.00  0.00    +0.019 C 
BRANCH  21  22
ATOM     22  C19 UNL     1      19.364  27.522  15.195  0.00  0.00    +0.101 C 
BRANCH  22  23
ATOM     23  N3  UNL     1      18.394  27.309  16.285  0.00  0.00    -0.343 N 
ATOM     24  H26 UNL     1      18.082  26.340  16.271  0.00  0.00    +0.146 HD
BRANCH  23  25
ATOM     25  C20 UNL     1      17.242  28.150  16.184  0.00  0.00    +0.041 A 
ATOM     26  C21 UNL     1      17.232  29.445  16.746  0.00  0.00    -0.005 A 
ATOM     27  C22 UNL     1      18.450  30.045  17.410  0.00  0.00    +0.039 C 
ATOM     28  C23 UNL     1      18.364  31.555  17.629  0.00  0.00    +0.005 C 
ATOM     29  C24 UNL     1      17.016  31.924  18.230  0.00  0.00    +0.006 C 
ATOM     30  C25 UNL     1      15.902  31.551  17.260  0.00  0.00    +0.056 C 
ATOM     31  C26 UNL     1      16.025  30.152  16.711  0.00  0.00    +0.047 A 
ATOM     32  N4  UNL     1      14.895  29.669  16.142  0.00  0.00    -0.251 NA
ATOM     33  C27 UNL     1      14.919  28.455  15.576  0.00  0.00    +0.073 A 
ATOM     34  C28 UNL     1      13.755  27.986  14.979  0.00  0.00    +0.028 A 
ATOM     35  C29 UNL     1      13.696  26.740  14.352  0.00  0.00    +0.002 A 
ATOM     36  C30 UNL     1      14.828  25.940  14.311  0.00  0.00    +0.001 A 
ATOM     37  C31 UNL     1      16.005  26.391  14.907  0.00  0.00    +0.012 A 
ATOM     38  C32 UNL     1      16.070  27.645  15.560  0.00  0.00    +0.021 A 
ENDBRANCH  23  25
ENDBRANCH  22  23
ENDBRANCH  21  22
ENDBRANCH   1  21
TORSDOF 9
ENDMDL
MODEL 4
REMARK VINA RESULT:    -2.297      2.176      4.933
REMARK INTER + INTRA:          -9.538
REMARK INTER:                  -4.094
REMARK INTRA:                  -5.444
REMARK UNBOUND:                -6.032
REMARK  Name = /home/vital/Documents/PhD_2021/Malaria_codes/data/pdb_ligands_mmv/ligand_293.pdb
REMARK  9 active torsions:
REMARK  status: ('A' for Active; 'I' for Inactive)
REMARK    1  A    between atoms: C1_1  and  C2_2
REMARK    2  A    between atoms: C1_1  and  C18_20
REMARK    3  A    between atoms: C2_2  and  C3_3
REMARK    4  A    between atoms: C3_3  and  C4_4
REMARK    5  A    between atoms: C4_4  and  N1_5
REMARK    6  A    between atoms: N1_5  and  C5_6
REMARK    7  A    between atoms: C18_20  and  C19_21
REMARK    8  A    between atoms: C19_21  and  N3_22
REMARK    9  A    between atoms: N3_22  and  C20_23
REMARK                            x       y       z     vdW  Elec       q    Type
REMARK                         _______ _______ _______ _____ _____    ______ ____
ROOT
ATOM      1  C1  UNL     1      21.385  29.348  16.658  0.00  0.00    +0.002 C 
ENDROOT
BRANCH   1   2
ATOM      2  C2  UNL     1      20.852  30.246  15.539  0.00  0.00    +0.002 C 
BRANCH   2   3
ATOM      3  C3  UNL     1      20.986  31.743  15.841  0.00  0.00    +0.019 C 
BRANCH   3   4
ATOM      4  C4  UNL     1      19.659  32.500  15.769  0.00  0.00    +0.101 C 
BRANCH   4   5
ATOM      5  N1  UNL     1      18.580  31.757  16.443  0.00  0.00    -0.343 N 
ATOM      6  H9  UNL     1      18.672  31.871  17.453  0.00  0.00    +0.146 HD
BRANCH   5   7
ATOM      7  C5  UNL     1      17.274  32.191  16.071  0.00  0.00    +0.041 A 
ATOM      8  C6  UNL     1      16.609  33.206  16.776  0.00  0.00    -0.005 A 
ATOM      9  C7  UNL     1      17.143  33.909  17.998  0.00  0.00    +0.039 C 
ATOM     10  C8  UNL     1      16.056  34.093  19.061  0.00  0.00    +0.005 C 
ATOM     11  C9  UNL     1      14.693  34.540  18.516  0.00  0.00    +0.006 C 
ATOM     12  C10 UNL     1      14.669  34.759  17.005  0.00  0.00    +0.056 C 
ATOM     13  C11 UNL     1      15.370  33.632  16.292  0.00  0.00    +0.047 A 
ATOM     14  N2  UNL     1      14.769  33.118  15.199  0.00  0.00    -0.251 NA
ATOM     15  C12 UNL     1      15.387  32.124  14.546  0.00  0.00    +0.073 A 
ATOM     16  C13 UNL     1      14.756  31.578  13.434  0.00  0.00    +0.028 A 
ATOM     17  C14 UNL     1      15.323  30.534  12.700  0.00  0.00    +0.002 A 
ATOM     18  C15 UNL     1      16.550  30.014  13.082  0.00  0.00    +0.001 A 
ATOM     19  C16 UNL     1      17.203  30.548  14.192  0.00  0.00    +0.012 A 
ATOM     20  C17 UNL     1      16.644  31.614  14.936  0.00  0.00    +0.021 A 
ENDBRANCH   5   7
ENDBRANCH   4   5
ENDBRANCH   3   4
ENDBRANCH   2   3
ENDBRANCH   1   2
BRANCH   1  21
ATOM     21  C18 UNL     1      20.867  27.906  16.575  0.00  0.00    +0.019 C 
BRANCH  21  22
ATOM     22  C19 UNL     1      19.502  27.790  15.897  0.00  0.00    +0.101 C 
BRANCH  22  23
ATOM     23  N3  UNL     1      18.526  27.099  16.760  0.00  0.00    -0.343 N 
ATOM     24  H26 UNL     1      18.378  26.154  16.409  0.00  0.00    +0.146 HD
BRANCH  23  25
ATOM     25  C20 UNL     1      17.259  27.758  16.817  0.00  0.00    +0.041 A 
ATOM     26  C21 UNL     1      16.976  28.712  17.818  0.00  0.00    -0.005 A 
ATOM     27  C22 UNL     1      18.009  29.148  18.831  0.00  0.00    +0.039 C 
ATOM     28  C23 UNL     1      17.644  30.424  19.589  0.00  0.00    +0.005 C 
ATOM     29  C24 UNL     1      16.207  30.351  20.080  0.00  0.00    +0.006 C 
ATOM     30  C25 UNL     1      15.262  30.255  18.888  0.00  0.00    +0.056 C 
ATOM     31  C26 UNL     1      15.672  29.217  17.875  0.00  0.00    +0.047 A 
ATOM     32  N4  UNL     1      14.697  28.860  17.007  0.00  0.00    -0.251 NA
ATOM     33  C27 UNL     1      14.979  27.984  16.034  0.00  0.00    +0.073 A 
ATOM     34  C28 UNL     1      13.970  27.647  15.140  0.00  0.00    +0.028 A 
ATOM     35  C29 UNL     1      14.183  26.755  14.087  0.00  0.00    +0.002 A 
ATOM     36  C30 UNL     1      15.435  26.186  13.914  0.00  0.00    +0.001 A 
ATOM     37  C31 UNL     1      16.460  26.509  14.802  0.00  0.00    +0.012 A 
ATOM     38  C32 UNL     1      16.250  27.398  15.883  0.00  0.00    +0.021 A 
ENDBRANCH  23  25
ENDBRANCH  22  23
ENDBRANCH  21  22
ENDBRANCH   1  21
TORSDOF 9
ENDMDL
MODEL 5
REMARK VINA RESULT:    -2.277      1.199      3.373
REMARK INTER + INTRA:          -9.507
REMARK INTER:                  -4.355
REMARK INTRA:                  -5.152
REMARK UNBOUND:                -6.032
REMARK  Name = /home/vital/Documents/PhD_2021/Malaria_codes/data/pdb_ligands_mmv/ligand_293.pdb
REMARK  9 active torsions:
REMARK  status: ('A' for Active; 'I' for Inactive)
REMARK    1  A    between atoms: C1_1  and  C2_2
REMARK    2  A    between atoms: C1_1  and  C18_20
REMARK    3  A    between atoms: C2_2  and  C3_3
REMARK    4  A    between atoms: C3_3  and  C4_4
REMARK    5  A    between atoms: C4_4  and  N1_5
REMARK    6  A    between atoms: N1_5  and  C5_6
REMARK    7  A    between atoms: C18_20  and  C19_21
REMARK    8  A    between atoms: C19_21  and  N3_22
REMARK    9  A    between atoms: N3_22  and  C20_23
REMARK                            x       y       z     vdW  Elec       q    Type
REMARK                         _______ _______ _______ _____ _____    ______ ____
ROOT
ATOM      1  C1  UNL     1      19.640  30.681  19.853  0.00  0.00    +0.002 C 
ENDROOT
BRANCH   1   2
ATOM      2  C2  UNL     1      20.332  29.468  19.228  0.00  0.00    +0.002 C 
BRANCH   2   3
ATOM      3  C3  UNL     1      19.792  28.127  19.736  0.00  0.00    +0.019 C 
BRANCH   3   4
ATOM      4  C4  UNL     1      18.642  27.573  18.894  0.00  0.00    +0.101 C 
BRANCH   4   5
ATOM      5  N1  UNL     1      19.124  26.589  17.908  0.00  0.00    -0.343 N 
ATOM      6  H9  UNL     1      19.092  25.656  18.319  0.00  0.00    +0.146 HD
BRANCH   5   7
ATOM      7  C5  UNL     1      18.355  26.564  16.708  0.00  0.00    +0.041 A 
ATOM      8  C6  UNL     1      17.232  25.734  16.573  0.00  0.00    -0.005 A 
ATOM      9  C7  UNL     1      16.737  24.765  17.616  0.00  0.00    +0.039 C 
ATOM     10  C8  UNL     1      16.320  23.430  16.991  0.00  0.00    +0.005 C 
ATOM     11  C9  UNL     1      15.518  23.553  15.688  0.00  0.00    +0.006 C 
ATOM     12  C10 UNL     1      15.242  24.994  15.262  0.00  0.00    +0.056 C 
ATOM     13  C11 UNL     1      16.484  25.836  15.398  0.00  0.00    +0.047 A 
ATOM     14  N2  UNL     1      16.783  26.672  14.382  0.00  0.00    -0.251 NA
ATOM     15  C12 UNL     1      17.877  27.439  14.495  0.00  0.00    +0.073 A 
ATOM     16  C13 UNL     1      18.200  28.280  13.437  0.00  0.00    +0.028 A 
ATOM     17  C14 UNL     1      19.325  29.107  13.466  0.00  0.00    +0.002 A 
ATOM     18  C15 UNL     1      20.157  29.094  14.575  0.00  0.00    +0.001 A 
ATOM     19  C16 UNL     1      19.851  28.260  15.649  0.00  0.00    +0.012 A 
ATOM     20  C17 UNL     1      18.707  27.428  15.636  0.00  0.00    +0.021 A 
ENDBRANCH   5   7
ENDBRANCH   4   5
ENDBRANCH   3   4
ENDBRANCH   2   3
ENDBRANCH   1   2
BRANCH   1  21
ATOM     21  C18 UNL     1      19.255  31.754  18.827  0.00  0.00    +0.019 C 
BRANCH  21  22
ATOM     22  C19 UNL     1      18.456  31.204  17.645  0.00  0.00    +0.101 C 
BRANCH  22  23
ATOM     23  N3  UNL     1      17.054  31.660  17.681  0.00  0.00    -0.343 N 
ATOM     24  H26 UNL     1      16.796  31.874  18.642  0.00  0.00    +0.146 HD
BRANCH  23  25
ATOM     25  C20 UNL     1      16.134  30.688  17.178  0.00  0.00    +0.041 A 
ATOM     26  C21 UNL     1      15.590  29.694  18.019  0.00  0.00    -0.005 A 
ATOM     27  C22 UNL     1      15.880  29.645  19.502  0.00  0.00    +0.039 C 
ATOM     28  C23 UNL     1      14.937  28.742  20.296  0.00  0.00    +0.005 C 
ATOM     29  C24 UNL     1      14.777  27.402  19.594  0.00  0.00    +0.006 C 
ATOM     30  C25 UNL     1      14.144  27.612  18.225  0.00  0.00    +0.056 C 
ATOM     31  C26 UNL     1      14.795  28.710  17.421  0.00  0.00    +0.047 A 
ATOM     32  N4  UNL     1      14.505  28.688  16.099  0.00  0.00    -0.251 NA
ATOM     33  C27 UNL     1      14.992  29.655  15.310  0.00  0.00    +0.073 A 
ATOM     34  C28 UNL     1      14.666  29.627  13.960  0.00  0.00    +0.028 A 
ATOM     35  C29 UNL     1      15.116  30.604  13.070  0.00  0.00    +0.002 A 
ATOM     36  C30 UNL     1      15.909  31.642  13.536  0.00  0.00    +0.001 A 
ATOM     37  C31 UNL     1      16.250  31.686  14.887  0.00  0.00    +0.012 A 
ATOM     38  C32 UNL     1      15.813  30.691  15.794  0.00  0.00    +0.021 A 
ENDBRANCH  23  25
ENDBRANCH  22  23
ENDBRANCH  21  22
ENDBRANCH   1  21
TORSDOF 9
ENDMDL
MODEL 6
REMARK VINA RESULT:    -2.208      1.803      5.132
REMARK INTER + INTRA:          -9.401
REMARK INTER:                  -3.893
REMARK INTRA:                  -5.509
REMARK UNBOUND:                -6.032
REMARK  Name = /home/vital/Documents/PhD_2021/Malaria_codes/data/pdb_ligands_mmv/ligand_293.pdb
REMARK  9 active torsions:
REMARK  status: ('A' for Active; 'I' for Inactive)
REMARK    1  A    between atoms: C1_1  and  C2_2
REMARK    2  A    between atoms: C1_1  and  C18_20
REMARK    3  A    between atoms: C2_2  and  C3_3
REMARK    4  A    between atoms: C3_3  and  C4_4
REMARK    5  A    between atoms: C4_4  and  N1_5
REMARK    6  A    between atoms: N1_5  and  C5_6
REMARK    7  A    between atoms: C18_20  and  C19_21
REMARK    8  A    between atoms: C19_21  and  N3_22
REMARK    9  A    between atoms: N3_22  and  C20_23
REMARK                            x       y       z     vdW  Elec       q    Type
REMARK                         _______ _______ _______ _____ _____    ______ ____
ROOT
ATOM      1  C1  UNL     1      21.874  29.146  15.137  0.00  0.00    +0.002 C 
ENDROOT
BRANCH   1   2
ATOM      2  C2  UNL     1      21.043  27.871  14.979  0.00  0.00    +0.002 C 
BRANCH   2   3
ATOM      3  C3  UNL     1      20.482  27.679  13.566  0.00  0.00    +0.019 C 
BRANCH   3   4
ATOM      4  C4  UNL     1      18.953  27.674  13.511  0.00  0.00    +0.101 C 
BRANCH   4   5
ATOM      5  N1  UNL     1      18.371  28.255  14.734  0.00  0.00    -0.343 N 
ATOM      6  H9  UNL     1      18.809  29.156  14.921  0.00  0.00    +0.146 HD
BRANCH   5   7
ATOM      7  C5  UNL     1      16.963  28.461  14.649  0.00  0.00    +0.041 A 
ATOM      8  C6  UNL     1      16.050  27.478  15.058  0.00  0.00    -0.005 A 
ATOM      9  C7  UNL     1      16.420  26.111  15.576  0.00  0.00    +0.039 C 
ATOM     10  C8  UNL     1      15.511  25.024  14.993  0.00  0.00    +0.005 C 
ATOM     11  C9  UNL     1      14.022  25.392  14.940  0.00  0.00    +0.006 C 
ATOM     12  C10 UNL     1      13.701  26.770  15.514  0.00  0.00    +0.056 C 
ATOM     13  C11 UNL     1      14.691  27.795  15.024  0.00  0.00    +0.047 A 
ATOM     14  N2  UNL     1      14.202  28.983  14.609  0.00  0.00    -0.251 NA
ATOM     15  C12 UNL     1      15.072  29.910  14.183  0.00  0.00    +0.073 A 
ATOM     16  C13 UNL     1      14.567  31.124  13.732  0.00  0.00    +0.028 A 
ATOM     17  C14 UNL     1      15.399  32.143  13.263  0.00  0.00    +0.002 A 
ATOM     18  C15 UNL     1      16.771  31.950  13.237  0.00  0.00    +0.001 A 
ATOM     19  C16 UNL     1      17.301  30.742  13.688  0.00  0.00    +0.012 A 
ATOM     20  C17 UNL     1      16.468  29.708  14.177  0.00  0.00    +0.021 A 
ENDBRANCH   5   7
ENDBRANCH   4   5
ENDBRANCH   3   4
ENDBRANCH   2   3
ENDBRANCH   1   2
BRANCH   1  21
ATOM     21  C18 UNL     1      21.468  29.986  16.355  0.00  0.00    +0.019 C 
BRANCH  21  22
ATOM     22  C19 UNL     1      20.164  30.758  16.152  0.00  0.00    +0.101 C 
BRANCH  22  23
ATOM     23  N3  UNL     1      19.614  31.238  17.434  0.00  0.00    -0.343 N 
ATOM     24  H26 UNL     1      19.898  30.603  18.178  0.00  0.00    +0.146 HD
BRANCH  23  25
ATOM     25  C20 UNL     1      18.187  31.321  17.437  0.00  0.00    +0.041 A 
ATOM     26  C21 UNL     1      17.523  32.494  17.020  0.00  0.00    -0.005 A 
ATOM     27  C22 UNL     1      18.267  33.691  16.475  0.00  0.00    +0.039 C 
ATOM     28  C23 UNL     1      17.381  34.704  15.750  0.00  0.00    +0.005 C 
ATOM     29  C24 UNL     1      16.138  35.000  16.575  0.00  0.00    +0.006 C 
ATOM     30  C25 UNL     1      15.317  33.727  16.740  0.00  0.00    +0.056 C 
ATOM     31  C26 UNL     1      16.133  32.535  17.171  0.00  0.00    +0.047 A 
ATOM     32  N4  UNL     1      15.406  31.503  17.663  0.00  0.00    -0.251 NA
ATOM     33  C27 UNL     1      16.036  30.377  18.022  0.00  0.00    +0.073 A 
ATOM     34  C28 UNL     1      15.271  29.322  18.504  0.00  0.00    +0.028 A 
ATOM     35  C29 UNL     1      15.844  28.106  18.885  0.00  0.00    +0.002 A 
ATOM     36  C30 UNL     1      17.215  27.933  18.778  0.00  0.00    +0.001 A 
ATOM     37  C31 UNL     1      18.001  28.980  18.300  0.00  0.00    +0.012 A 
ATOM     38  C32 UNL     1      17.431  30.222  17.928  0.00  0.00    +0.021 A 
ENDBRANCH  23  25
ENDBRANCH  22  23
ENDBRANCH  21  22
ENDBRANCH   1  21
TORSDOF 9
ENDMDL
MODEL 7
REMARK VINA RESULT:    -2.115      1.504      4.231
REMARK INTER + INTRA:          -9.261
REMARK INTER:                  -4.077
REMARK INTRA:                  -5.183
REMARK UNBOUND:                -6.032
REMARK  Name = /home/vital/Documents/PhD_2021/Malaria_codes/data/pdb_ligands_mmv/ligand_293.pdb
REMARK  9 active torsions:
REMARK  status: ('A' for Active; 'I' for Inactive)
REMARK    1  A    between atoms: C1_1  and  C2_2
REMARK    2  A    between atoms: C1_1  and  C18_20
REMARK    3  A    between atoms: C2_2  and  C3_3
REMARK    4  A    between atoms: C3_3  and  C4_4
REMARK    5  A    between atoms: C4_4  and  N1_5
REMARK    6  A    between atoms: N1_5  and  C5_6
REMARK    7  A    between atoms: C18_20  and  C19_21
REMARK    8  A    between atoms: C19_21  and  N3_22
REMARK    9  A    between atoms: N3_22  and  C20_23
REMARK                            x       y       z     vdW  Elec       q    Type
REMARK                         _______ _______ _______ _____ _____    ______ ____
ROOT
ATOM      1  C1  UNL     1      21.457  29.473  15.909  0.00  0.00    +0.002 C 
ENDROOT
BRANCH   1   2
ATOM      2  C2  UNL     1      21.654  28.299  14.947  0.00  0.00    +0.002 C 
BRANCH   2   3
ATOM      3  C3  UNL     1      20.340  27.729  14.401  0.00  0.00    +0.019 C 
BRANCH   3   4
ATOM      4  C4  UNL     1      19.398  28.796  13.843  0.00  0.00    +0.101 C 
BRANCH   4   5
ATOM      5  N1  UNL     1      18.260  28.188  13.131  0.00  0.00    -0.343 N 
ATOM      6  H9  UNL     1      18.353  27.173  13.150  0.00  0.00    +0.146 HD
BRANCH   5   7
ATOM      7  C5  UNL     1      16.994  28.520  13.696  0.00  0.00    +0.041 A 
ATOM      8  C6  UNL     1      16.329  27.649  14.572  0.00  0.00    -0.005 A 
ATOM      9  C7  UNL     1      16.821  26.284  14.979  0.00  0.00    +0.039 C 
ATOM     10  C8  UNL     1      15.684  25.257  14.991  0.00  0.00    +0.005 C 
ATOM     11  C9  UNL     1      14.371  25.759  15.607  0.00  0.00    +0.006 C 
ATOM     12  C10 UNL     1      14.440  27.189  16.137  0.00  0.00    +0.056 C 
ATOM     13  C11 UNL     1      15.136  28.090  15.150  0.00  0.00    +0.047 A 
ATOM     14  N2  UNL     1      14.578  29.294  14.905  0.00  0.00    -0.251 NA
ATOM     15  C12 UNL     1      15.193  30.112  14.040  0.00  0.00    +0.073 A 
ATOM     16  C13 UNL     1      14.605  31.342  13.769  0.00  0.00    +0.028 A 
ATOM     17  C14 UNL     1      15.172  32.253  12.875  0.00  0.00    +0.002 A 
ATOM     18  C15 UNL     1      16.356  31.931  12.228  0.00  0.00    +0.001 A 
ATOM     19  C16 UNL     1      16.965  30.705  12.486  0.00  0.00    +0.012 A 
ATOM     20  C17 UNL     1      16.406  29.780  13.399  0.00  0.00    +0.021 A 
ENDBRANCH   5   7
ENDBRANCH   4   5
ENDBRANCH   3   4
ENDBRANCH   2   3
ENDBRANCH   1   2
BRANCH   1  21
ATOM     21  C18 UNL     1      21.504  29.060  17.385  0.00  0.00    +0.019 C 
BRANCH  21  22
ATOM     22  C19 UNL     1      20.166  29.233  18.105  0.00  0.00    +0.101 C 
BRANCH  22  23
ATOM     23  N3  UNL     1      19.028  28.999  17.197  0.00  0.00    -0.343 N 
ATOM     24  H26 UNL     1      19.275  29.317  16.262  0.00  0.00    +0.146 HD
BRANCH  23  25
ATOM     25  C20 UNL     1      17.837  29.679  17.600  0.00  0.00    +0.041 A 
ATOM     26  C21 UNL     1      16.906  29.070  18.469  0.00  0.00    -0.005 A 
ATOM     27  C22 UNL     1      17.147  27.709  19.082  0.00  0.00    +0.039 C 
ATOM     28  C23 UNL     1      16.223  27.378  20.254  0.00  0.00    +0.005 C 
ATOM     29  C24 UNL     1      14.783  27.714  19.900  0.00  0.00    +0.006 C 
ATOM     30  C25 UNL     1      14.654  29.210  19.641  0.00  0.00    +0.056 C 
ATOM     31  C26 UNL     1      15.711  29.754  18.714  0.00  0.00    +0.047 A 
ATOM     32  N4  UNL     1      15.428  30.970  18.188  0.00  0.00    -0.251 NA
ATOM     33  C27 UNL     1      16.330  31.562  17.396  0.00  0.00    +0.073 A 
ATOM     34  C28 UNL     1      16.029  32.819  16.884  0.00  0.00    +0.028 A 
ATOM     35  C29 UNL     1      16.920  33.515  16.063  0.00  0.00    +0.002 A 
ATOM     36  C30 UNL     1      18.145  32.949  15.747  0.00  0.00    +0.001 A 
ATOM     37  C31 UNL     1      18.465  31.688  16.248  0.00  0.00    +0.012 A 
ATOM     38  C32 UNL     1      17.562  30.967  17.067  0.00  0.00    +0.021 A 
ENDBRANCH  23  25
ENDBRANCH  22  23
ENDBRANCH  21  22
ENDBRANCH   1  21
TORSDOF 9
ENDMDL
MODEL 8
REMARK VINA RESULT:    -2.067      1.561      4.773
REMARK INTER + INTRA:          -9.186
REMARK INTER:                  -3.258
REMARK INTRA:                  -5.928
REMARK UNBOUND:                -6.032
REMARK  Name = /home/vital/Documents/PhD_2021/Malaria_codes/data/pdb_ligands_mmv/ligand_293.pdb
REMARK  9 active torsions:
REMARK  status: ('A' for Active; 'I' for Inactive)
REMARK    1  A    between atoms: C1_1  and  C2_2
REMARK    2  A    between atoms: C1_1  and  C18_20
REMARK    3  A    between atoms: C2_2  and  C3_3
REMARK    4  A    between atoms: C3_3  and  C4_4
REMARK    5  A    between atoms: C4_4  and  N1_5
REMARK    6  A    between atoms: N1_5  and  C5_6
REMARK    7  A    between atoms: C18_20  and  C19_21
REMARK    8  A    between atoms: C19_21  and  N3_22
REMARK    9  A    between atoms: N3_22  and  C20_23
REMARK                            x       y       z     vdW  Elec       q    Type
REMARK                         _______ _______ _______ _____ _____    ______ ____
ROOT
ATOM      1  C1  UNL     1      18.092  32.362  18.845  0.00  0.00    +0.002 C 
ENDROOT
BRANCH   1   2
ATOM      2  C2  UNL     1      16.621  32.688  19.113  0.00  0.00    +0.002 C 
BRANCH   2   3
ATOM      3  C3  UNL     1      15.752  31.447  19.342  0.00  0.00    +0.019 C 
BRANCH   3   4
ATOM      4  C4  UNL     1      15.512  30.627  18.073  0.00  0.00    +0.101 C 
BRANCH   4   5
ATOM      5  N1  UNL     1      15.308  29.202  18.386  0.00  0.00    -0.343 N 
ATOM      6  H9  UNL     1      14.361  28.931  18.122  0.00  0.00    +0.146 HD
BRANCH   5   7
ATOM      7  C5  UNL     1      16.215  28.336  17.707  0.00  0.00    +0.041 A 
ATOM      8  C6  UNL     1      17.448  27.977  18.271  0.00  0.00    -0.005 A 
ATOM      9  C7  UNL     1      17.978  28.474  19.592  0.00  0.00    +0.039 C 
ATOM     10  C8  UNL     1      19.466  28.826  19.505  0.00  0.00    +0.005 C 
ATOM     11  C9  UNL     1      20.320  27.819  18.724  0.00  0.00    +0.006 C 
ATOM     12  C10 UNL     1      19.539  26.616  18.199  0.00  0.00    +0.056 C 
ATOM     13  C11 UNL     1      18.238  27.055  17.580  0.00  0.00    +0.047 A 
ATOM     14  N2  UNL     1      17.894  26.502  16.398  0.00  0.00    -0.251 NA
ATOM     15  C12 UNL     1      16.732  26.873  15.841  0.00  0.00    +0.073 A 
ATOM     16  C13 UNL     1      16.390  26.322  14.611  0.00  0.00    +0.028 A 
ATOM     17  C14 UNL     1      15.203  26.658  13.955  0.00  0.00    +0.002 A 
ATOM     18  C15 UNL     1      14.334  27.569  14.533  0.00  0.00    +0.001 A 
ATOM     19  C16 UNL     1      14.655  28.132  15.767  0.00  0.00    +0.012 A 
ATOM     20  C17 UNL     1      15.848  27.790  16.447  0.00  0.00    +0.021 A 
ENDBRANCH   5   7
ENDBRANCH   4   5
ENDBRANCH   3   4
ENDBRANCH   2   3
ENDBRANCH   1   2
BRANCH   1  21
ATOM     21  C18 UNL     1      18.678  33.140  17.660  0.00  0.00    +0.019 C 
BRANCH  21  22
ATOM     22  C19 UNL     1      19.254  32.238  16.568  0.00  0.00    +0.101 C 
BRANCH  22  23
ATOM     23  N3  UNL     1      18.605  30.914  16.562  0.00  0.00    -0.343 N 
ATOM     24  H26 UNL     1      19.186  30.254  17.076  0.00  0.00    +0.146 HD
BRANCH  23  25
ATOM     25  C20 UNL     1      18.397  30.395  15.247  0.00  0.00    +0.041 A 
ATOM     26  C21 UNL     1      17.259  30.754  14.492  0.00  0.00    -0.005 A 
ATOM     27  C22 UNL     1      16.244  31.757  14.990  0.00  0.00    +0.039 C 
ATOM     28  C23 UNL     1      15.298  32.280  13.911  0.00  0.00    +0.005 C 
ATOM     29  C24 UNL     1      14.756  31.126  13.082  0.00  0.00    +0.006 C 
ATOM     30  C25 UNL     1      15.903  30.425  12.366  0.00  0.00    +0.056 C 
ATOM     31  C26 UNL     1      17.070  30.107  13.266  0.00  0.00    +0.047 A 
ATOM     32  N4  UNL     1      17.934  29.191  12.766  0.00  0.00    -0.251 NA
ATOM     33  C27 UNL     1      19.032  28.882  13.467  0.00  0.00    +0.073 A 
ATOM     34  C28 UNL     1      19.917  27.956  12.927  0.00  0.00    +0.028 A 
ATOM     35  C29 UNL     1      21.094  27.589  13.583  0.00  0.00    +0.002 A 
ATOM     36  C30 UNL     1      21.404  28.162  14.806  0.00  0.00    +0.001 A 
ATOM     37  C31 UNL     1      20.528  29.091  15.366  0.00  0.00    +0.012 A 
ATOM     38  C32 UNL     1      19.324  29.457  14.718  0.00  0.00    +0.021 A 
ENDBRANCH  23  25
ENDBRANCH  22  23
ENDBRANCH  21  22
ENDBRANCH   1  21
TORSDOF 9
ENDMDL
MODEL 9
REMARK VINA RESULT:    -1.827      1.763      5.448
REMARK INTER + INTRA:          -8.821
REMARK INTER:                  -3.361
REMARK INTRA:                  -5.459
REMARK UNBOUND:                -6.032
REMARK  Name = /home/vital/Documents/PhD_2021/Malaria_codes/data/pdb_ligands_mmv/ligand_293.pdb
REMARK  9 active torsions:
REMARK  status: ('A' for Active; 'I' for Inactive)
REMARK    1  A    between atoms: C1_1  and  C2_2
REMARK    2  A    between atoms: C1_1  and  C18_20
REMARK    3  A    between atoms: C2_2  and  C3_3
REMARK    4  A    between atoms: C3_3  and  C4_4
REMARK    5  A    between atoms: C4_4  and  N1_5
REMARK    6  A    between atoms: N1_5  and  C5_6
REMARK    7  A    between atoms: C18_20  and  C19_21
REMARK    8  A    between atoms: C19_21  and  N3_22
REMARK    9  A    between atoms: N3_22  and  C20_23
REMARK                            x       y       z     vdW  Elec       q    Type
REMARK                         _______ _______ _______ _____ _____    ______ ____
ROOT
ATOM      1  C1  UNL     1      18.119  31.585  18.774  0.00  0.00    +0.002 C 
ENDROOT
BRANCH   1   2
ATOM      2  C2  UNL     1      17.653  32.497  17.638  0.00  0.00    +0.002 C 
BRANCH   2   3
ATOM      3  C3  UNL     1      16.210  32.234  17.194  0.00  0.00    +0.019 C 
BRANCH   3   4
ATOM      4  C4  UNL     1      15.967  30.796  16.732  0.00  0.00    +0.101 C 
BRANCH   4   5
ATOM      5  N1  UNL     1      16.027  30.687  15.264  0.00  0.00    -0.343 N 
ATOM      6  H9  UNL     1      16.652  31.405  14.897  0.00  0.00    +0.146 HD
BRANCH   5   7
ATOM      7  C5  UNL     1      16.501  29.422  14.808  0.00  0.00    +0.041 A 
ATOM      8  C6  UNL     1      15.631  28.338  14.615  0.00  0.00    -0.005 A 
ATOM      9  C7  UNL     1      14.150  28.352  14.895  0.00  0.00    +0.039 C 
ATOM     10  C8  UNL     1      13.696  27.062  15.584  0.00  0.00    +0.005 C 
ATOM     11  C9  UNL     1      14.304  25.776  15.006  0.00  0.00    +0.006 C 
ATOM     12  C10 UNL     1      15.231  26.008  13.815  0.00  0.00    +0.056 C 
ATOM     13  C11 UNL     1      16.163  27.162  14.082  0.00  0.00    +0.047 A 
ATOM     14  N2  UNL     1      17.462  26.999  13.758  0.00  0.00    -0.251 NA
ATOM     15  C12 UNL     1      18.301  28.022  13.977  0.00  0.00    +0.073 A 
ATOM     16  C13 UNL     1      19.645  27.846  13.666  0.00  0.00    +0.028 A 
ATOM     17  C14 UNL     1      20.590  28.854  13.870  0.00  0.00    +0.002 A 
ATOM     18  C15 UNL     1      20.190  30.071  14.401  0.00  0.00    +0.001 A 
ATOM     19  C16 UNL     1      18.848  30.271  14.717  0.00  0.00    +0.012 A 
ATOM     20  C17 UNL     1      17.880  29.261  14.504  0.00  0.00    +0.021 A 
ENDBRANCH   5   7
ENDBRANCH   4   5
ENDBRANCH   3   4
ENDBRANCH   2   3
ENDBRANCH   1   2
BRANCH   1  21
ATOM     21  C18 UNL     1      19.637  31.608  18.987  0.00  0.00    +0.019 C 
BRANCH  21  22
ATOM     22  C19 UNL     1      20.376  30.520  18.207  0.00  0.00    +0.101 C 
BRANCH  22  23
ATOM     23  N3  UNL     1      20.427  29.254  18.961  0.00  0.00    -0.343 N 
ATOM     24  H26 UNL     1      21.333  29.172  19.417  0.00  0.00    +0.146 HD
BRANCH  23  25
ATOM     25  C20 UNL     1      20.236  28.101  18.137  0.00  0.00    +0.041 A 
ATOM     26  C21 UNL     1      18.976  27.473  18.041  0.00  0.00    -0.005 A 
ATOM     27  C22 UNL     1      17.747  28.020  18.732  0.00  0.00    +0.039 C 
ATOM     28  C23 UNL     1      16.431  27.428  18.230  0.00  0.00    +0.005 C 
ATOM     29  C24 UNL     1      16.535  25.914  18.138  0.00  0.00    +0.006 C 
ATOM     30  C25 UNL     1      17.608  25.534  17.125  0.00  0.00    +0.056 C 
ATOM     31  C26 UNL     1      18.905  26.281  17.313  0.00  0.00    +0.047 A 
ATOM     32  N4  UNL     1      19.968  25.731  16.680  0.00  0.00    -0.251 NA
ATOM     33  C27 UNL     1      21.154  26.350  16.741  0.00  0.00    +0.073 A 
ATOM     34  C28 UNL     1      22.228  25.781  16.067  0.00  0.00    +0.028 A 
ATOM     35  C29 UNL     1      23.494  26.369  16.063  0.00  0.00    +0.002 A 
ATOM     36  C30 UNL     1      23.698  27.559  16.744  0.00  0.00    +0.001 A 
ATOM     37  C31 UNL     1      22.635  28.145  17.429  0.00  0.00    +0.012 A 
ATOM     38  C32 UNL     1      21.351  27.548  17.453  0.00  0.00    +0.021 A 
ENDBRANCH  23  25
ENDBRANCH  22  23
ENDBRANCH  21  22
ENDBRANCH   1  21
TORSDOF 9
ENDMDL
