MODEL 1
REMARK VINA RESULT:    -3.568      0.000      0.000
REMARK INTER + INTRA:          -6.013
REMARK INTER:                  -4.716
REMARK INTRA:                  -1.297
REMARK UNBOUND:                -1.297
REMARK  Name = /home/vital/Documents/PhD_2021/Malaria_codes/data/pdb_ligands_mmv/ligand_113.pdb
REMARK  7 active torsions:
REMARK  status: ('A' for Active; 'I' for Inactive)
REMARK    1  A    between atoms: C1_1  and  O1_2
REMARK    2  A    between atoms: O1_2  and  C2_3
REMARK    3  A    between atoms: C6_7  and  O2_8
REMARK    4  A    between atoms: C7_9  and  C8_10
REMARK    5  A    between atoms: C8_10  and  N1_11
REMARK    6  A    between atoms: N2_18  and  C15_19
REMARK    7  A    between atoms: C15_19  and  C16_20
REMARK                            x       y       z     vdW  Elec       q    Type
REMARK                         _______ _______ _______ _____ _____    ______ ____
ROOT
ATOM      1  N1  UNL     1      17.657  25.143  22.177  0.00  0.00    -0.297 NA
ATOM      2  C9  UNL     1      17.560  23.714  22.473  0.00  0.00    +0.085 C 
ATOM      3  C10 UNL     1      17.782  23.022  21.126  0.00  0.00    +0.025 C 
ATOM      4  C11 UNL     1      18.256  24.135  20.158  0.00  0.00    -0.003 C 
ATOM      5  C12 UNL     1      19.425  23.685  19.276  0.00  0.00    +0.011 C 
ATOM      6  C13 UNL     1      19.013  22.590  18.289  0.00  0.00    +0.016 C 
ATOM      7  C14 UNL     1      17.518  22.591  17.952  0.00  0.00    +0.085 C 
ATOM      8  N2  UNL     1      16.987  23.949  17.936  0.00  0.00    -0.298 NA
ATOM      9  C22 UNL     1      17.091  24.629  19.249  0.00  0.00    +0.093 C 
ATOM     10  C23 UNL     1      18.681  25.243  21.135  0.00  0.00    +0.093 C 
ENDROOT
BRANCH   1  11
ATOM     11  C8  UNL     1      17.976  25.926  23.380  0.00  0.00    +0.127 C 
BRANCH  11  17
ATOM     12  C2  UNL     1      16.548  26.673  25.347  0.00  0.00    +0.128 A 
ATOM     13  C3  UNL     1      15.441  27.356  25.868  0.00  0.00    +0.046 A 
ATOM     14  C4  UNL     1      14.547  28.006  25.014  0.00  0.00    +0.007 A 
ATOM     15  C5  UNL     1      14.758  27.989  23.639  0.00  0.00    +0.046 A 
ATOM     16  C6  UNL     1      15.868  27.324  23.120  0.00  0.00    +0.125 A 
ATOM     17  C7  UNL     1      16.782  26.660  23.956  0.00  0.00    +0.050 A 
BRANCH  12  19
ATOM     18  C1  UNL     1      17.433  26.370  27.528  0.00  0.00    +0.277 C 
ATOM     19  O1  UNL     1      17.476  26.044  26.141  0.00  0.00    -0.495 OA
ENDBRANCH  12  19
BRANCH  16  20
ATOM     20  O2  UNL     1      16.075  27.320  21.766  0.00  0.00    -0.506 OA
ATOM     21  H7  UNL     1      15.808  28.181  21.405  0.00  0.00    +0.292 HD
ENDBRANCH  16  20
ENDBRANCH  11  17
ENDBRANCH   1  11
BRANCH   8  22
ATOM     22  C15 UNL     1      15.616  23.989  17.402  0.00  0.00    +0.119 C 
BRANCH  22  23
ATOM     23  C16 UNL     1      15.477  24.887  16.189  0.00  0.00    -0.033 A 
ATOM     24  C17 UNL     1      14.211  25.185  15.657  0.00  0.00    +0.008 A 
ATOM     25  C18 UNL     1      14.093  26.009  14.536  0.00  0.00    +0.038 A 
ATOM     26  C19 UNL     1      15.239  26.534  13.947  0.00  0.00    +0.123 A 
ATOM     27  F1  UNL     1      15.122  27.325  12.870  0.00  0.00    -0.205 F 
ATOM     28  C20 UNL     1      16.502  26.256  14.461  0.00  0.00    +0.038 A 
ATOM     29  C21 UNL     1      16.621  25.434  15.583  0.00  0.00    +0.008 A 
ENDBRANCH  22  23
ENDBRANCH   8  22
TORSDOF 6
ENDMDL
MODEL 2
REMARK VINA RESULT:    -3.269      4.074      5.375
REMARK INTER + INTRA:          -5.617
REMARK INTER:                  -4.520
REMARK INTRA:                  -1.097
REMARK UNBOUND:                -1.297
REMARK  Name = /home/vital/Documents/PhD_2021/Malaria_codes/data/pdb_ligands_mmv/ligand_113.pdb
REMARK  7 active torsions:
REMARK  status: ('A' for Active; 'I' for Inactive)
REMARK    1  A    between atoms: C1_1  and  O1_2
REMARK    2  A    between atoms: O1_2  and  C2_3
REMARK    3  A    between atoms: C6_7  and  O2_8
REMARK    4  A    between atoms: C7_9  and  C8_10
REMARK    5  A    between atoms: C8_10  and  N1_11
REMARK    6  A    between atoms: N2_18  and  C15_19
REMARK    7  A    between atoms: C15_19  and  C16_20
REMARK                            x       y       z     vdW  Elec       q    Type
REMARK                         _______ _______ _______ _____ _____    ______ ____
ROOT
ATOM      1  N1  UNL     1      15.484  28.174  18.758  0.00  0.00    -0.297 NA
ATOM      2  C9  UNL     1      14.165  27.556  18.894  0.00  0.00    +0.085 C 
ATOM      3  C10 UNL     1      14.242  26.284  18.047  0.00  0.00    +0.025 C 
ATOM      4  C11 UNL     1      15.735  26.124  17.667  0.00  0.00    -0.003 C 
ATOM      5  C12 UNL     1      16.223  24.679  17.805  0.00  0.00    +0.011 C 
ATOM      6  C13 UNL     1      15.558  23.748  16.787  0.00  0.00    +0.016 C 
ATOM      7  C14 UNL     1      15.059  24.463  15.528  0.00  0.00    +0.085 C 
ATOM      8  N2  UNL     1      15.940  25.568  15.171  0.00  0.00    -0.298 NA
ATOM      9  C22 UNL     1      16.007  26.619  16.214  0.00  0.00    +0.093 C 
ATOM     10  C23 UNL     1      16.420  27.050  18.686  0.00  0.00    +0.093 C 
ENDROOT
BRANCH   1  11
ATOM     11  C8  UNL     1      15.771  29.095  19.867  0.00  0.00    +0.127 C 
BRANCH  11  17
ATOM     12  C2  UNL     1      14.839  31.381  20.479  0.00  0.00    +0.128 A 
ATOM     13  C3  UNL     1      14.572  32.720  20.164  0.00  0.00    +0.046 A 
ATOM     14  C4  UNL     1      14.910  33.230  18.908  0.00  0.00    +0.007 A 
ATOM     15  C5  UNL     1      15.526  32.412  17.966  0.00  0.00    +0.046 A 
ATOM     16  C6  UNL     1      15.807  31.084  18.284  0.00  0.00    +0.125 A 
ATOM     17  C7  UNL     1      15.475  30.545  19.539  0.00  0.00    +0.050 A 
BRANCH  12  19
ATOM     18  C1  UNL     1      13.712  31.609  22.555  0.00  0.00    +0.277 C 
ATOM     19  O1  UNL     1      14.558  30.835  21.708  0.00  0.00    -0.495 OA
ENDBRANCH  12  19
BRANCH  16  20
ATOM     20  O2  UNL     1      16.422  30.287  17.354  0.00  0.00    -0.506 OA
ATOM     21  H7  UNL     1      16.441  30.757  16.504  0.00  0.00    +0.292 HD
ENDBRANCH  16  20
ENDBRANCH  11  17
ENDBRANCH   1  11
BRANCH   8  22
ATOM     22  C15 UNL     1      15.605  26.125  13.850  0.00  0.00    +0.119 C 
BRANCH  22  23
ATOM     23  C16 UNL     1      15.281  27.605  13.894  0.00  0.00    -0.033 A 
ATOM     24  C17 UNL     1      16.077  28.536  13.205  0.00  0.00    +0.008 A 
ATOM     25  C18 UNL     1      15.773  29.898  13.255  0.00  0.00    +0.038 A 
ATOM     26  C19 UNL     1      14.676  30.329  13.994  0.00  0.00    +0.123 A 
ATOM     27  F1  UNL     1      14.387  31.638  14.041  0.00  0.00    -0.205 F 
ATOM     28  C20 UNL     1      13.871  29.423  14.679  0.00  0.00    +0.038 A 
ATOM     29  C21 UNL     1      14.172  28.062  14.628  0.00  0.00    +0.008 A 
ENDBRANCH  22  23
ENDBRANCH   8  22
TORSDOF 6
ENDMDL
MODEL 3
REMARK VINA RESULT:    -3.044     22.126     23.349
REMARK INTER + INTRA:          -5.319
REMARK INTER:                  -4.134
REMARK INTRA:                  -1.185
REMARK UNBOUND:                -1.297
REMARK  Name = /home/vital/Documents/PhD_2021/Malaria_codes/data/pdb_ligands_mmv/ligand_113.pdb
REMARK  7 active torsions:
REMARK  status: ('A' for Active; 'I' for Inactive)
REMARK    1  A    between atoms: C1_1  and  O1_2
REMARK    2  A    between atoms: O1_2  and  C2_3
REMARK    3  A    between atoms: C6_7  and  O2_8
REMARK    4  A    between atoms: C7_9  and  C8_10
REMARK    5  A    between atoms: C8_10  and  N1_11
REMARK    6  A    between atoms: N2_18  and  C15_19
REMARK    7  A    between atoms: C15_19  and  C16_20
REMARK                            x       y       z     vdW  Elec       q    Type
REMARK                         _______ _______ _______ _____ _____    ______ ____
ROOT
ATOM      1  N1  UNL     1      30.728  43.343  18.528  0.00  0.00    -0.297 NA
ATOM      2  C9  UNL     1      30.259  43.140  19.899  0.00  0.00    +0.085 C 
ATOM      3  C10 UNL     1      28.736  43.047  19.781  0.00  0.00    +0.025 C 
ATOM      4  C11 UNL     1      28.440  42.952  18.263  0.00  0.00    -0.003 C 
ATOM      5  C12 UNL     1      27.375  41.900  17.940  0.00  0.00    +0.011 C 
ATOM      6  C13 UNL     1      25.998  42.289  18.486  0.00  0.00    +0.016 C 
ATOM      7  C14 UNL     1      25.813  43.798  18.678  0.00  0.00    +0.085 C 
ATOM      8  N2  UNL     1      26.527  44.547  17.651  0.00  0.00    -0.298 NA
ATOM      9  C22 UNL     1      27.993  44.328  17.685  0.00  0.00    +0.093 C 
ATOM     10  C23 UNL     1      29.814  42.554  17.699  0.00  0.00    +0.093 C 
ENDROOT
BRANCH   1  11
ATOM     11  C8  UNL     1      32.136  42.952  18.371  0.00  0.00    +0.127 C 
BRANCH  11  17
ATOM     12  C2  UNL     1      33.556  42.581  16.294  0.00  0.00    +0.128 A 
ATOM     13  C3  UNL     1      34.123  43.043  15.099  0.00  0.00    +0.046 A 
ATOM     14  C4  UNL     1      33.921  44.362  14.685  0.00  0.00    +0.007 A 
ATOM     15  C5  UNL     1      33.144  45.223  15.455  0.00  0.00    +0.046 A 
ATOM     16  C6  UNL     1      32.567  44.761  16.637  0.00  0.00    +0.125 A 
ATOM     17  C7  UNL     1      32.756  43.439  17.077  0.00  0.00    +0.050 A 
BRANCH  12  19
ATOM     18  C1  UNL     1      35.025  40.776  16.760  0.00  0.00    +0.277 C 
ATOM     19  O1  UNL     1      33.694  41.286  16.733  0.00  0.00    -0.495 OA
ENDBRANCH  12  19
BRANCH  16  20
ATOM     20  O2  UNL     1      31.796  45.611  17.384  0.00  0.00    -0.506 OA
ATOM     21  H7  UNL     1      31.281  46.176  16.784  0.00  0.00    +0.292 HD
ENDBRANCH  16  20
ENDBRANCH  11  17
ENDBRANCH   1  11
BRANCH   8  22
ATOM     22  C15 UNL     1      26.184  45.978  17.685  0.00  0.00    +0.119 C 
BRANCH  22  23
ATOM     23  C16 UNL     1      24.875  46.292  16.988  0.00  0.00    -0.033 A 
ATOM     24  C17 UNL     1      23.689  46.449  17.724  0.00  0.00    +0.008 A 
ATOM     25  C18 UNL     1      22.487  46.734  17.072  0.00  0.00    +0.038 A 
ATOM     26  C19 UNL     1      22.471  46.861  15.687  0.00  0.00    +0.123 A 
ATOM     27  F1  UNL     1      21.315  47.134  15.065  0.00  0.00    -0.205 F 
ATOM     28  C20 UNL     1      23.636  46.715  14.940  0.00  0.00    +0.038 A 
ATOM     29  C21 UNL     1      24.838  46.433  15.590  0.00  0.00    +0.008 A 
ENDBRANCH  22  23
ENDBRANCH   8  22
TORSDOF 6
ENDMDL
MODEL 4
REMARK VINA RESULT:    -3.002     23.446     24.709
REMARK INTER + INTRA:          -5.265
REMARK INTER:                  -4.433
REMARK INTRA:                  -0.832
REMARK UNBOUND:                -1.297
REMARK  Name = /home/vital/Documents/PhD_2021/Malaria_codes/data/pdb_ligands_mmv/ligand_113.pdb
REMARK  7 active torsions:
REMARK  status: ('A' for Active; 'I' for Inactive)
REMARK    1  A    between atoms: C1_1  and  O1_2
REMARK    2  A    between atoms: O1_2  and  C2_3
REMARK    3  A    between atoms: C6_7  and  O2_8
REMARK    4  A    between atoms: C7_9  and  C8_10
REMARK    5  A    between atoms: C8_10  and  N1_11
REMARK    6  A    between atoms: N2_18  and  C15_19
REMARK    7  A    between atoms: C15_19  and  C16_20
REMARK                            x       y       z     vdW  Elec       q    Type
REMARK                         _______ _______ _______ _____ _____    ______ ____
ROOT
ATOM      1  N1  UNL     1      33.803  40.625  16.633  0.00  0.00    -0.297 NA
ATOM      2  C9  UNL     1      33.586  39.194  16.847  0.00  0.00    +0.085 C 
ATOM      3  C10 UNL     1      34.960  38.645  17.238  0.00  0.00    +0.025 C 
ATOM      4  C11 UNL     1      35.855  39.888  17.472  0.00  0.00    -0.003 C 
ATOM      5  C12 UNL     1      36.725  39.755  18.726  0.00  0.00    +0.011 C 
ATOM      6  C13 UNL     1      37.780  38.655  18.580  0.00  0.00    +0.016 C 
ATOM      7  C14 UNL     1      38.159  38.350  17.126  0.00  0.00    +0.085 C 
ATOM      8  N2  UNL     1      38.119  39.558  16.312  0.00  0.00    -0.298 NA
ATOM      9  C22 UNL     1      36.770  40.168  16.242  0.00  0.00    +0.093 C 
ATOM     10  C23 UNL     1      34.809  41.004  17.628  0.00  0.00    +0.093 C 
ENDROOT
BRANCH   1  11
ATOM     11  C8  UNL     1      32.553  41.388  16.754  0.00  0.00    +0.127 C 
BRANCH  11  17
ATOM     12  C2  UNL     1      32.211  43.857  17.260  0.00  0.00    +0.128 A 
ATOM     13  C3  UNL     1      32.360  45.209  16.922  0.00  0.00    +0.046 A 
ATOM     14  C4  UNL     1      32.976  45.574  15.723  0.00  0.00    +0.007 A 
ATOM     15  C5  UNL     1      33.457  44.594  14.860  0.00  0.00    +0.046 A 
ATOM     16  C6  UNL     1      33.324  43.248  15.201  0.00  0.00    +0.125 A 
ATOM     17  C7  UNL     1      32.706  42.855  16.401  0.00  0.00    +0.050 A 
BRANCH  12  19
ATOM     18  C1  UNL     1      31.614  44.406  19.490  0.00  0.00    +0.277 C 
ATOM     19  O1  UNL     1      31.643  43.442  18.440  0.00  0.00    -0.495 OA
ENDBRANCH  12  19
BRANCH  16  20
ATOM     20  O2  UNL     1      33.808  42.290  14.351  0.00  0.00    -0.506 OA
ATOM     21  H7  UNL     1      33.440  42.442  13.465  0.00  0.00    +0.292 HD
ENDBRANCH  16  20
ENDBRANCH  11  17
ENDBRANCH   1  11
BRANCH   8  22
ATOM     22  C15 UNL     1      38.689  39.330  14.974  0.00  0.00    +0.119 C 
BRANCH  22  23
ATOM     23  C16 UNL     1      38.119  38.105  14.286  0.00  0.00    -0.033 A 
ATOM     24  C17 UNL     1      38.685  36.836  14.493  0.00  0.00    +0.008 A 
ATOM     25  C18 UNL     1      38.155  35.714  13.851  0.00  0.00    +0.038 A 
ATOM     26  C19 UNL     1      37.062  35.862  13.004  0.00  0.00    +0.123 A 
ATOM     27  F1  UNL     1      36.556  34.782  12.389  0.00  0.00    -0.205 F 
ATOM     28  C20 UNL     1      36.482  37.109  12.790  0.00  0.00    +0.038 A 
ATOM     29  C21 UNL     1      37.009  38.230  13.433  0.00  0.00    +0.008 A 
ENDBRANCH  22  23
ENDBRANCH   8  22
TORSDOF 6
ENDMDL
MODEL 5
REMARK VINA RESULT:    -2.931      2.202      2.441
REMARK INTER + INTRA:          -5.171
REMARK INTER:                  -3.809
REMARK INTRA:                  -1.361
REMARK UNBOUND:                -1.297
REMARK  Name = /home/vital/Documents/PhD_2021/Malaria_codes/data/pdb_ligands_mmv/ligand_113.pdb
REMARK  7 active torsions:
REMARK  status: ('A' for Active; 'I' for Inactive)
REMARK    1  A    between atoms: C1_1  and  O1_2
REMARK    2  A    between atoms: O1_2  and  C2_3
REMARK    3  A    between atoms: C6_7  and  O2_8
REMARK    4  A    between atoms: C7_9  and  C8_10
REMARK    5  A    between atoms: C8_10  and  N1_11
REMARK    6  A    between atoms: N2_18  and  C15_19
REMARK    7  A    between atoms: C15_19  and  C16_20
REMARK                            x       y       z     vdW  Elec       q    Type
REMARK                         _______ _______ _______ _____ _____    ______ ____
ROOT
ATOM      1  N1  UNL     1      18.012  25.157  22.438  0.00  0.00    -0.297 NA
ATOM      2  C9  UNL     1      17.893  23.750  22.055  0.00  0.00    +0.085 C 
ATOM      3  C10 UNL     1      17.845  23.765  20.526  0.00  0.00    +0.025 C 
ATOM      4  C11 UNL     1      18.203  25.215  20.111  0.00  0.00    -0.003 C 
ATOM      5  C12 UNL     1      19.179  25.262  18.931  0.00  0.00    +0.011 C 
ATOM      6  C13 UNL     1      18.547  24.733  17.641  0.00  0.00    +0.016 C 
ATOM      7  C14 UNL     1      17.019  24.839  17.611  0.00  0.00    +0.085 C 
ATOM      8  N2  UNL     1      16.565  26.033  18.314  0.00  0.00    -0.298 NA
ATOM      9  C22 UNL     1      16.927  26.033  19.752  0.00  0.00    +0.093 C 
ATOM     10  C23 UNL     1      18.847  25.760  21.397  0.00  0.00    +0.093 C 
ENDROOT
BRANCH   1  11
ATOM     11  C8  UNL     1      18.574  25.307  23.788  0.00  0.00    +0.127 C 
BRANCH  11  17
ATOM     12  C2  UNL     1      18.849  27.441  25.144  0.00  0.00    +0.128 A 
ATOM     13  C3  UNL     1      18.306  28.525  25.847  0.00  0.00    +0.046 A 
ATOM     14  C4  UNL     1      16.923  28.653  25.988  0.00  0.00    +0.007 A 
ATOM     15  C5  UNL     1      16.073  27.708  25.420  0.00  0.00    +0.046 A 
ATOM     16  C6  UNL     1      16.611  26.637  24.707  0.00  0.00    +0.125 A 
ATOM     17  C7  UNL     1      18.000  26.484  24.552  0.00  0.00    +0.050 A 
BRANCH  12  19
ATOM     18  C1  UNL     1      20.894  28.421  24.443  0.00  0.00    +0.277 C 
ATOM     19  O1  UNL     1      20.200  27.283  24.946  0.00  0.00    -0.495 OA
ENDBRANCH  12  19
BRANCH  16  20
ATOM     20  O2  UNL     1      15.769  25.716  24.143  0.00  0.00    -0.506 OA
ATOM     21  H7  UNL     1      16.299  24.984  23.786  0.00  0.00    +0.292 HD
ENDBRANCH  16  20
ENDBRANCH  11  17
ENDBRANCH   1  11
BRANCH   8  22
ATOM     22  C15 UNL     1      15.127  26.269  18.110  0.00  0.00    +0.119 C 
BRANCH  22  23
ATOM     23  C16 UNL     1      14.840  27.267  17.006  0.00  0.00    -0.033 A 
ATOM     24  C17 UNL     1      13.992  26.932  15.937  0.00  0.00    +0.008 A 
ATOM     25  C18 UNL     1      13.737  27.857  14.922  0.00  0.00    +0.038 A 
ATOM     26  C19 UNL     1      14.330  29.114  14.975  0.00  0.00    +0.123 A 
ATOM     27  F1  UNL     1      14.083  30.000  13.998  0.00  0.00    -0.205 F 
ATOM     28  C20 UNL     1      15.168  29.469  16.028  0.00  0.00    +0.038 A 
ATOM     29  C21 UNL     1      15.421  28.546  17.044  0.00  0.00    +0.008 A 
ENDBRANCH  22  23
ENDBRANCH   8  22
TORSDOF 6
ENDMDL
MODEL 6
REMARK VINA RESULT:    -2.892     22.362     23.597
REMARK INTER + INTRA:          -5.119
REMARK INTER:                  -3.891
REMARK INTRA:                  -1.228
REMARK UNBOUND:                -1.297
REMARK  Name = /home/vital/Documents/PhD_2021/Malaria_codes/data/pdb_ligands_mmv/ligand_113.pdb
REMARK  7 active torsions:
REMARK  status: ('A' for Active; 'I' for Inactive)
REMARK    1  A    between atoms: C1_1  and  O1_2
REMARK    2  A    between atoms: O1_2  and  C2_3
REMARK    3  A    between atoms: C6_7  and  O2_8
REMARK    4  A    between atoms: C7_9  and  C8_10
REMARK    5  A    between atoms: C8_10  and  N1_11
REMARK    6  A    between atoms: N2_18  and  C15_19
REMARK    7  A    between atoms: C15_19  and  C16_20
REMARK                            x       y       z     vdW  Elec       q    Type
REMARK                         _______ _______ _______ _____ _____    ______ ____
ROOT
ATOM      1  N1  UNL     1      30.531  44.167  18.536  0.00  0.00    -0.297 NA
ATOM      2  C9  UNL     1      30.199  44.680  19.865  0.00  0.00    +0.085 C 
ATOM      3  C10 UNL     1      28.669  44.664  19.917  0.00  0.00    +0.025 C 
ATOM      4  C11 UNL     1      28.217  43.881  18.659  0.00  0.00    -0.003 C 
ATOM      5  C12 UNL     1      27.088  42.891  18.961  0.00  0.00    +0.011 C 
ATOM      6  C13 UNL     1      25.788  43.602  19.350  0.00  0.00    +0.016 C 
ATOM      7  C14 UNL     1      25.676  45.029  18.804  0.00  0.00    +0.085 C 
ATOM      8  N2  UNL     1      26.308  45.138  17.494  0.00  0.00    -0.298 NA
ATOM      9  C22 UNL     1      27.761  44.846  17.524  0.00  0.00    +0.093 C 
ATOM     10  C23 UNL     1      29.511  43.154  18.258  0.00  0.00    +0.093 C 
ENDROOT
BRANCH   1  11
ATOM     11  C8  UNL     1      31.902  43.637  18.485  0.00  0.00    +0.127 C 
BRANCH  11  17
ATOM     12  C2  UNL     1      33.385  42.848  16.575  0.00  0.00    +0.128 A 
ATOM     13  C3  UNL     1      34.009  43.063  15.339  0.00  0.00    +0.046 A 
ATOM     14  C4  UNL     1      33.864  44.284  14.678  0.00  0.00    +0.007 A 
ATOM     15  C5  UNL     1      33.086  45.293  15.239  0.00  0.00    +0.046 A 
ATOM     16  C6  UNL     1      32.451  45.076  16.461  0.00  0.00    +0.125 A 
ATOM     17  C7  UNL     1      32.583  43.857  17.149  0.00  0.00    +0.050 A 
BRANCH  12  19
ATOM     18  C1  UNL     1      34.741  41.015  17.235  0.00  0.00    +0.277 C 
ATOM     19  O1  UNL     1      33.468  41.657  17.254  0.00  0.00    -0.495 OA
ENDBRANCH  12  19
BRANCH  16  20
ATOM     20  O2  UNL     1      31.680  46.069  17.003  0.00  0.00    -0.506 OA
ATOM     21  H7  UNL     1      30.747  45.802  16.958  0.00  0.00    +0.292 HD
ENDBRANCH  16  20
ENDBRANCH  11  17
ENDBRANCH   1  11
BRANCH   8  22
ATOM     22  C15 UNL     1      26.020  46.434  16.860  0.00  0.00    +0.119 C 
BRANCH  22  23
ATOM     23  C16 UNL     1      24.708  46.447  16.101  0.00  0.00    -0.033 A 
ATOM     24  C17 UNL     1      24.629  45.942  14.793  0.00  0.00    +0.008 A 
ATOM     25  C18 UNL     1      23.416  45.962  14.101  0.00  0.00    +0.038 A 
ATOM     26  C19 UNL     1      22.285  46.488  14.716  0.00  0.00    +0.123 A 
ATOM     27  F1  UNL     1      21.121  46.506  14.048  0.00  0.00    -0.205 F 
ATOM     28  C20 UNL     1      22.339  46.987  16.014  0.00  0.00    +0.038 A 
ATOM     29  C21 UNL     1      23.550  46.965  16.707  0.00  0.00    +0.008 A 
ENDBRANCH  22  23
ENDBRANCH   8  22
TORSDOF 6
ENDMDL
MODEL 7
REMARK VINA RESULT:    -2.847      4.618      6.808
REMARK INTER + INTRA:          -5.059
REMARK INTER:                  -3.976
REMARK INTRA:                  -1.084
REMARK UNBOUND:                -1.297
REMARK  Name = /home/vital/Documents/PhD_2021/Malaria_codes/data/pdb_ligands_mmv/ligand_113.pdb
REMARK  7 active torsions:
REMARK  status: ('A' for Active; 'I' for Inactive)
REMARK    1  A    between atoms: C1_1  and  O1_2
REMARK    2  A    between atoms: O1_2  and  C2_3
REMARK    3  A    between atoms: C6_7  and  O2_8
REMARK    4  A    between atoms: C7_9  and  C8_10
REMARK    5  A    between atoms: C8_10  and  N1_11
REMARK    6  A    between atoms: N2_18  and  C15_19
REMARK    7  A    between atoms: C15_19  and  C16_20
REMARK                            x       y       z     vdW  Elec       q    Type
REMARK                         _______ _______ _______ _____ _____    ______ ____
ROOT
ATOM      1  N1  UNL     1      16.399  30.540  17.072  0.00  0.00    -0.297 NA
ATOM      2  C9  UNL     1      17.663  30.867  16.412  0.00  0.00    +0.085 C 
ATOM      3  C10 UNL     1      17.380  30.690  14.918  0.00  0.00    +0.025 C 
ATOM      4  C11 UNL     1      15.846  30.507  14.803  0.00  0.00    -0.003 C 
ATOM      5  C12 UNL     1      15.246  31.309  13.644  0.00  0.00    +0.011 C 
ATOM      6  C13 UNL     1      15.710  30.786  12.282  0.00  0.00    +0.016 C 
ATOM      7  C14 UNL     1      16.133  29.313  12.296  0.00  0.00    +0.085 C 
ATOM      8  N2  UNL     1      15.322  28.546  13.234  0.00  0.00    -0.298 NA
ATOM      9  C22 UNL     1      15.465  29.005  14.636  0.00  0.00    +0.093 C 
ATOM     10  C23 UNL     1      15.362  31.036  16.163  0.00  0.00    +0.093 C 
ENDROOT
BRANCH   1  11
ATOM     11  C8  UNL     1      16.319  31.129  18.416  0.00  0.00    +0.127 C 
BRANCH  11  17
ATOM     12  C2  UNL     1      14.549  31.063  20.241  0.00  0.00    +0.128 A 
ATOM     13  C3  UNL     1      13.701  30.352  21.100  0.00  0.00    +0.046 A 
ATOM     14  C4  UNL     1      13.708  28.956  21.102  0.00  0.00    +0.007 A 
ATOM     15  C5  UNL     1      14.551  28.261  20.240  0.00  0.00    +0.046 A 
ATOM     16  C6  UNL     1      15.384  28.967  19.372  0.00  0.00    +0.125 A 
ATOM     17  C7  UNL     1      15.398  30.372  19.352  0.00  0.00    +0.050 A 
BRANCH  12  19
ATOM     18  C1  UNL     1      14.289  33.122  21.393  0.00  0.00    +0.277 C 
ATOM     19  O1  UNL     1      14.560  32.436  20.174  0.00  0.00    -0.495 OA
ENDBRANCH  12  19
BRANCH  16  20
ATOM     20  O2  UNL     1      16.204  28.277  18.520  0.00  0.00    -0.506 OA
ATOM     21  H7  UNL     1      15.859  27.375  18.415  0.00  0.00    +0.292 HD
ENDBRANCH  16  20
ENDBRANCH  11  17
ENDBRANCH   1  11
BRANCH   8  22
ATOM     22  C15 UNL     1      15.562  27.100  13.102  0.00  0.00    +0.119 C 
BRANCH  22  23
ATOM     23  C16 UNL     1      15.283  26.332  14.379  0.00  0.00    -0.033 A 
ATOM     24  C17 UNL     1      16.335  25.780  15.129  0.00  0.00    +0.008 A 
ATOM     25  C18 UNL     1      16.067  25.071  16.302  0.00  0.00    +0.038 A 
ATOM     26  C19 UNL     1      14.751  24.913  16.723  0.00  0.00    +0.123 A 
ATOM     27  F1  UNL     1      14.498  24.230  17.850  0.00  0.00    -0.205 F 
ATOM     28  C20 UNL     1      13.695  25.457  15.998  0.00  0.00    +0.038 A 
ATOM     29  C21 UNL     1      13.961  26.168  14.827  0.00  0.00    +0.008 A 
ENDBRANCH  22  23
ENDBRANCH   8  22
TORSDOF 6
ENDMDL
MODEL 8
REMARK VINA RESULT:    -2.708     21.776     23.560
REMARK INTER + INTRA:          -4.876
REMARK INTER:                  -3.515
REMARK INTRA:                  -1.362
REMARK UNBOUND:                -1.297
REMARK  Name = /home/vital/Documents/PhD_2021/Malaria_codes/data/pdb_ligands_mmv/ligand_113.pdb
REMARK  7 active torsions:
REMARK  status: ('A' for Active; 'I' for Inactive)
REMARK    1  A    between atoms: C1_1  and  O1_2
REMARK    2  A    between atoms: O1_2  and  C2_3
REMARK    3  A    between atoms: C6_7  and  O2_8
REMARK    4  A    between atoms: C7_9  and  C8_10
REMARK    5  A    between atoms: C8_10  and  N1_11
REMARK    6  A    between atoms: N2_18  and  C15_19
REMARK    7  A    between atoms: C15_19  and  C16_20
REMARK                            x       y       z     vdW  Elec       q    Type
REMARK                         _______ _______ _______ _____ _____    ______ ____
ROOT
ATOM      1  N1  UNL     1      34.982  36.253  17.506  0.00  0.00    -0.297 NA
ATOM      2  C9  UNL     1      34.770  36.133  18.949  0.00  0.00    +0.085 C 
ATOM      3  C10 UNL     1      33.727  37.202  19.280  0.00  0.00    +0.025 C 
ATOM      4  C11 UNL     1      33.209  37.718  17.914  0.00  0.00    -0.003 C 
ATOM      5  C12 UNL     1      31.686  37.884  17.890  0.00  0.00    +0.011 C 
ATOM      6  C13 UNL     1      31.215  39.002  18.825  0.00  0.00    +0.016 C 
ATOM      7  C14 UNL     1      32.281  40.067  19.101  0.00  0.00    +0.085 C 
ATOM      8  N2  UNL     1      33.122  40.281  17.929  0.00  0.00    -0.298 NA
ATOM      9  C22 UNL     1      33.877  39.071  17.527  0.00  0.00    +0.093 C 
ATOM     10  C23 UNL     1      33.668  36.601  16.961  0.00  0.00    +0.093 C 
ENDROOT
BRANCH   1  11
ATOM     11  C8  UNL     1      35.537  35.019  16.933  0.00  0.00    +0.127 C 
BRANCH  11  17
ATOM     12  C2  UNL     1      36.336  34.399  14.599  0.00  0.00    +0.128 A 
ATOM     13  C3  UNL     1      37.145  34.631  13.479  0.00  0.00    +0.046 A 
ATOM     14  C4  UNL     1      38.046  35.698  13.468  0.00  0.00    +0.007 A 
ATOM     15  C5  UNL     1      38.137  36.546  14.569  0.00  0.00    +0.046 A 
ATOM     16  C6  UNL     1      37.321  36.326  15.678  0.00  0.00    +0.125 A 
ATOM     17  C7  UNL     1      36.408  35.258  15.715  0.00  0.00    +0.050 A 
BRANCH  12  19
ATOM     18  C1  UNL     1      34.563  33.254  13.513  0.00  0.00    +0.277 C 
ATOM     19  O1  UNL     1      35.410  33.385  14.652  0.00  0.00    -0.495 OA
ENDBRANCH  12  19
BRANCH  16  20
ATOM     20  O2  UNL     1      37.409  37.169  16.753  0.00  0.00    -0.506 OA
ATOM     21  H7  UNL     1      36.794  37.910  16.621  0.00  0.00    +0.292 HD
ENDBRANCH  16  20
ENDBRANCH  11  17
ENDBRANCH   1  11
BRANCH   8  22
ATOM     22  C15 UNL     1      34.003  41.448  18.099  0.00  0.00    +0.119 C 
BRANCH  22  23
ATOM     23  C16 UNL     1      33.718  42.557  17.105  0.00  0.00    -0.033 A 
ATOM     24  C17 UNL     1      34.260  42.517  15.810  0.00  0.00    +0.008 A 
ATOM     25  C18 UNL     1      33.996  43.546  14.903  0.00  0.00    +0.038 A 
ATOM     26  C19 UNL     1      33.193  44.613  15.291  0.00  0.00    +0.123 A 
ATOM     27  F1  UNL     1      32.941  45.600  14.418  0.00  0.00    -0.205 F 
ATOM     28  C20 UNL     1      32.641  44.669  16.568  0.00  0.00    +0.038 A 
ATOM     29  C21 UNL     1      32.902  43.640  17.474  0.00  0.00    +0.008 A 
ENDBRANCH  22  23
ENDBRANCH   8  22
TORSDOF 6
ENDMDL
MODEL 9
REMARK VINA RESULT:    -2.708      5.065      7.849
REMARK INTER + INTRA:          -4.876
REMARK INTER:                  -3.610
REMARK INTRA:                  -1.266
REMARK UNBOUND:                -1.297
REMARK  Name = /home/vital/Documents/PhD_2021/Malaria_codes/data/pdb_ligands_mmv/ligand_113.pdb
REMARK  7 active torsions:
REMARK  status: ('A' for Active; 'I' for Inactive)
REMARK    1  A    between atoms: C1_1  and  O1_2
REMARK    2  A    between atoms: O1_2  and  C2_3
REMARK    3  A    between atoms: C6_7  and  O2_8
REMARK    4  A    between atoms: C7_9  and  C8_10
REMARK    5  A    between atoms: C8_10  and  N1_11
REMARK    6  A    between atoms: N2_18  and  C15_19
REMARK    7  A    between atoms: C15_19  and  C16_20
REMARK                            x       y       z     vdW  Elec       q    Type
REMARK                         _______ _______ _______ _____ _____    ______ ____
ROOT
ATOM      1  N1  UNL     1      15.862  28.839  18.127  0.00  0.00    -0.297 NA
ATOM      2  C9  UNL     1      17.316  28.883  18.279  0.00  0.00    +0.085 C 
ATOM      3  C10 UNL     1      17.638  30.359  18.523  0.00  0.00    +0.025 C 
ATOM      4  C11 UNL     1      16.272  31.052  18.750  0.00  0.00    -0.003 C 
ATOM      5  C12 UNL     1      16.305  32.043  19.918  0.00  0.00    +0.011 C 
ATOM      6  C13 UNL     1      17.203  33.248  19.623  0.00  0.00    +0.016 C 
ATOM      7  C14 UNL     1      17.380  33.538  18.129  0.00  0.00    +0.085 C 
ATOM      8  N2  UNL     1      16.164  33.224  17.389  0.00  0.00    -0.298 NA
ATOM      9  C22 UNL     1      15.790  31.791  17.466  0.00  0.00    +0.093 C 
ATOM     10  C23 UNL     1      15.357  29.854  19.054  0.00  0.00    +0.093 C 
ENDROOT
BRANCH   1  11
ATOM     11  C8  UNL     1      15.328  27.496  18.394  0.00  0.00    +0.127 C 
BRANCH  11  17
ATOM     12  C2  UNL     1      15.158  25.308  17.108  0.00  0.00    +0.128 A 
ATOM     13  C3  UNL     1      14.864  24.594  15.938  0.00  0.00    +0.046 A 
ATOM     14  C4  UNL     1      14.453  25.266  14.785  0.00  0.00    +0.007 A 
ATOM     15  C5  UNL     1      14.321  26.651  14.795  0.00  0.00    +0.046 A 
ATOM     16  C6  UNL     1      14.597  27.363  15.962  0.00  0.00    +0.125 A 
ATOM     17  C7  UNL     1      15.015  26.711  17.135  0.00  0.00    +0.050 A 
BRANCH  12  19
ATOM     18  C1  UNL     1      16.584  23.739  18.172  0.00  0.00    +0.277 C 
ATOM     19  O1  UNL     1      15.535  24.697  18.279  0.00  0.00    -0.495 OA
ENDBRANCH  12  19
BRANCH  16  20
ATOM     20  O2  UNL     1      14.456  28.725  15.967  0.00  0.00    -0.506 OA
ATOM     21  H7  UNL     1      13.783  28.968  16.624  0.00  0.00    +0.292 HD
ENDBRANCH  16  20
ENDBRANCH  11  17
ENDBRANCH   1  11
BRANCH   8  22
ATOM     22  C15 UNL     1      16.237  33.699  15.998  0.00  0.00    +0.119 C 
BRANCH  22  23
ATOM     23  C16 UNL     1      16.065  32.588  14.980  0.00  0.00    -0.033 A 
ATOM     24  C17 UNL     1      14.836  32.397  14.326  0.00  0.00    +0.008 A 
ATOM     25  C18 UNL     1      14.686  31.368  13.394  0.00  0.00    +0.038 A 
ATOM     26  C19 UNL     1      15.762  30.531  13.117  0.00  0.00    +0.123 A 
ATOM     27  F1  UNL     1      15.614  29.544  12.222  0.00  0.00    -0.205 F 
ATOM     28  C20 UNL     1      16.989  30.707  13.749  0.00  0.00    +0.038 A 
ATOM     29  C21 UNL     1      17.141  31.736  14.679  0.00  0.00    +0.008 A 
ENDBRANCH  22  23
ENDBRANCH   8  22
TORSDOF 6
ENDMDL
