MODEL 1
REMARK VINA RESULT:    -3.506      0.000      0.000
REMARK INTER + INTRA:          -6.288
REMARK INTER:                  -4.531
REMARK INTRA:                  -1.757
REMARK UNBOUND:                -1.757
REMARK  Name = /home/vital/Documents/PhD_2021/Malaria_codes/data/pdb_ligands_mmv/ligand_295.pdb
REMARK  6 active torsions:
REMARK  status: ('A' for Active; 'I' for Inactive)
REMARK    1  A    between atoms: C1_1  and  O1_2
REMARK    2  A    between atoms: O1_2  and  C2_3
REMARK    3  A    between atoms: C5_6  and  C19_23
REMARK    4  A    between atoms: C7_8  and  C8_9
REMARK    5  A    between atoms: C8_9  and  N1_10
REMARK    6  A    between atoms: N2_13  and  C13_16
REMARK                            x       y       z     vdW  Elec       q    Type
REMARK                         _______ _______ _______ _____ _____    ______ ____
ROOT
ATOM      1  C2  UNL     1      15.275  31.314  14.847  0.00  0.00    +0.124 A 
ATOM      2  C3  UNL     1      15.203  30.918  13.511  0.00  0.00    +0.046 A 
ATOM      3  C4  UNL     1      15.430  29.586  13.163  0.00  0.00    +0.009 A 
ATOM      4  C5  UNL     1      15.741  28.632  14.143  0.00  0.00    -0.024 A 
ATOM      5  C6  UNL     1      15.844  29.060  15.482  0.00  0.00    +0.014 A 
ATOM      6  C7  UNL     1      15.615  30.398  15.850  0.00  0.00    +0.009 A 
ENDROOT
BRANCH   4   7
ATOM      7  C19 UNL     1      16.020  27.171  13.807  0.00  0.00    +0.131 C 
ATOM      8  N3  UNL     1      14.781  26.450  13.433  0.00  0.00    -0.304 NA
ATOM      9  C20 UNL     1      14.080  25.840  14.581  0.00  0.00    +0.086 C 
ATOM     10  C21 UNL     1      14.932  24.800  15.348  0.00  0.00    +0.052 C 
ATOM     11  C22 UNL     1      16.292  25.349  15.600  0.00  0.00    -0.016 A 
ATOM     12  C23 UNL     1      16.761  26.424  14.873  0.00  0.00    +0.042 A 
ATOM     13  N4  UNL     1      18.029  26.705  15.305  0.00  0.00    -0.356 N 
ATOM     14  C24 UNL     1      18.387  25.827  16.307  0.00  0.00    +0.047 A 
ATOM     15  C25 UNL     1      19.575  25.736  17.042  0.00  0.00    +0.026 A 
ATOM     16  C26 UNL     1      19.665  24.729  18.008  0.00  0.00    +0.002 A 
ATOM     17  C27 UNL     1      18.607  23.849  18.230  0.00  0.00    +0.001 A 
ATOM     18  C28 UNL     1      17.425  23.953  17.487  0.00  0.00    +0.010 A 
ATOM     19  C29 UNL     1      17.310  24.959  16.509  0.00  0.00    +0.003 A 
ATOM     20  H22 UNL     1      14.159  27.106  12.968  0.00  0.00    +0.123 HD
ATOM     21  H27 UNL     1      18.612  27.454  14.963  0.00  0.00    +0.166 HD
ENDBRANCH   4   7
BRANCH   1  23
ATOM     22  C1  UNL     1      16.003  33.453  14.430  0.00  0.00    +0.277 C 
ATOM     23  O1  UNL     1      15.090  32.635  15.162  0.00  0.00    -0.495 OA
ENDBRANCH   1  23
BRANCH   6  24
ATOM     24  C8  UNL     1      15.721  30.811  17.304  0.00  0.00    +0.123 C 
BRANCH  24  25
ATOM     25  N1  UNL     1      16.316  29.783  18.170  0.00  0.00    -0.295 NA
ATOM     26  C9  UNL     1      15.448  29.470  19.328  0.00  0.00    +0.103 C 
ATOM     27  C10 UNL     1      16.100  29.662  20.717  0.00  0.00    +0.120 C 
ATOM     28  N2  UNL     1      17.391  28.959  20.815  0.00  0.00    -0.327 N 
ATOM     29  C11 UNL     1      18.247  29.075  19.610  0.00  0.00    +0.120 C 
ATOM     30  C12 UNL     1      17.693  30.099  18.591  0.00  0.00    +0.103 C 
BRANCH  28  31
ATOM     31  C13 UNL     1      17.503  27.741  21.493  0.00  0.00    +0.030 A 
ATOM     32  C14 UNL     1      17.189  27.676  22.866  0.00  0.00    +0.026 A 
ATOM     33  C15 UNL     1      17.281  26.483  23.590  0.00  0.00    +0.040 A 
ATOM     34  C16 UNL     1      17.689  25.328  22.945  0.00  0.00    +0.124 A 
ATOM     35  F1  UNL     1      17.780  24.182  23.630  0.00  0.00    -0.205 F 
ATOM     36  C17 UNL     1      18.004  25.348  21.595  0.00  0.00    +0.040 A 
ATOM     37  C18 UNL     1      17.907  26.547  20.876  0.00  0.00    +0.026 A 
ENDBRANCH  28  31
ENDBRANCH  24  25
ENDBRANCH   6  24
TORSDOF 5
ENDMDL
MODEL 2
REMARK VINA RESULT:    -3.444      2.716      4.765
REMARK INTER + INTRA:          -6.207
REMARK INTER:                  -4.245
REMARK INTRA:                  -1.962
REMARK UNBOUND:                -1.757
REMARK  Name = /home/vital/Documents/PhD_2021/Malaria_codes/data/pdb_ligands_mmv/ligand_295.pdb
REMARK  6 active torsions:
REMARK  status: ('A' for Active; 'I' for Inactive)
REMARK    1  A    between atoms: C1_1  and  O1_2
REMARK    2  A    between atoms: O1_2  and  C2_3
REMARK    3  A    between atoms: C5_6  and  C19_23
REMARK    4  A    between atoms: C7_8  and  C8_9
REMARK    5  A    between atoms: C8_9  and  N1_10
REMARK    6  A    between atoms: N2_13  and  C13_16
REMARK                            x       y       z     vdW  Elec       q    Type
REMARK                         _______ _______ _______ _____ _____    ______ ____
ROOT
ATOM      1  C2  UNL     1      15.408  33.974  18.718  0.00  0.00    +0.124 A 
ATOM      2  C3  UNL     1      15.459  34.869  17.649  0.00  0.00    +0.046 A 
ATOM      3  C4  UNL     1      15.848  34.426  16.384  0.00  0.00    +0.009 A 
ATOM      4  C5  UNL     1      16.200  33.087  16.170  0.00  0.00    -0.024 A 
ATOM      5  C6  UNL     1      16.177  32.206  17.270  0.00  0.00    +0.014 A 
ATOM      6  C7  UNL     1      15.785  32.635  18.551  0.00  0.00    +0.009 A 
ENDROOT
BRANCH   4   7
ATOM      7  C19 UNL     1      16.654  32.563  14.811  0.00  0.00    +0.131 C 
ATOM      8  N3  UNL     1      15.835  33.121  13.709  0.00  0.00    -0.304 NA
ATOM      9  C20 UNL     1      14.639  32.314  13.393  0.00  0.00    +0.086 C 
ATOM     10  C21 UNL     1      14.965  30.866  12.955  0.00  0.00    +0.052 C 
ATOM     11  C22 UNL     1      15.957  30.267  13.890  0.00  0.00    -0.016 A 
ATOM     12  C23 UNL     1      16.717  31.070  14.714  0.00  0.00    +0.042 A 
ATOM     13  N4  UNL     1      17.540  30.261  15.449  0.00  0.00    -0.356 N 
ATOM     14  C24 UNL     1      17.320  28.941  15.114  0.00  0.00    +0.047 A 
ATOM     15  C25 UNL     1      17.921  27.775  15.602  0.00  0.00    +0.026 A 
ATOM     16  C26 UNL     1      17.498  26.554  15.069  0.00  0.00    +0.002 A 
ATOM     17  C27 UNL     1      16.513  26.501  14.085  0.00  0.00    +0.001 A 
ATOM     18  C28 UNL     1      15.920  27.676  13.606  0.00  0.00    +0.010 A 
ATOM     19  C29 UNL     1      16.328  28.918  14.129  0.00  0.00    +0.003 A 
ATOM     20  H22 UNL     1      15.547  34.060  13.970  0.00  0.00    +0.123 HD
ATOM     21  H27 UNL     1      18.197  30.573  16.150  0.00  0.00    +0.166 HD
ENDBRANCH   4   7
BRANCH   1  23
ATOM     22  C1  UNL     1      13.728  34.939  19.952  0.00  0.00    +0.277 C 
ATOM     23  O1  UNL     1      15.065  34.437  19.960  0.00  0.00    -0.495 OA
ENDBRANCH   1  23
BRANCH   6  24
ATOM     24  C8  UNL     1      15.759  31.651  19.702  0.00  0.00    +0.123 C 
BRANCH  24  25
ATOM     25  N1  UNL     1      16.027  30.262  19.301  0.00  0.00    -0.295 NA
ATOM     26  C9  UNL     1      14.791  29.560  18.888  0.00  0.00    +0.103 C 
ATOM     27  C10 UNL     1      14.467  28.268  19.672  0.00  0.00    +0.120 C 
ATOM     28  N2  UNL     1      15.616  27.346  19.703  0.00  0.00    -0.327 N 
ATOM     29  C11 UNL     1      16.925  28.004  19.932  0.00  0.00    +0.120 C 
ATOM     30  C12 UNL     1      16.775  29.496  20.314  0.00  0.00    +0.103 C 
BRANCH  28  31
ATOM     31  C13 UNL     1      15.667  26.224  18.869  0.00  0.00    +0.030 A 
ATOM     32  C14 UNL     1      14.618  25.984  17.959  0.00  0.00    +0.026 A 
ATOM     33  C15 UNL     1      14.621  24.879  17.102  0.00  0.00    +0.040 A 
ATOM     34  C16 UNL     1      15.684  23.993  17.141  0.00  0.00    +0.124 A 
ATOM     35  F1  UNL     1      15.696  22.933  16.323  0.00  0.00    -0.205 F 
ATOM     36  C17 UNL     1      16.739  24.196  18.018  0.00  0.00    +0.040 A 
ATOM     37  C18 UNL     1      16.729  25.306  18.872  0.00  0.00    +0.026 A 
ENDBRANCH  28  31
ENDBRANCH  24  25
ENDBRANCH   6  24
TORSDOF 5
ENDMDL
MODEL 3
REMARK VINA RESULT:    -3.303      3.078      6.210
REMARK INTER + INTRA:          -6.025
REMARK INTER:                  -4.030
REMARK INTRA:                  -1.995
REMARK UNBOUND:                -1.757
REMARK  Name = /home/vital/Documents/PhD_2021/Malaria_codes/data/pdb_ligands_mmv/ligand_295.pdb
REMARK  6 active torsions:
REMARK  status: ('A' for Active; 'I' for Inactive)
REMARK    1  A    between atoms: C1_1  and  O1_2
REMARK    2  A    between atoms: O1_2  and  C2_3
REMARK    3  A    between atoms: C5_6  and  C19_23
REMARK    4  A    between atoms: C7_8  and  C8_9
REMARK    5  A    between atoms: C8_9  and  N1_10
REMARK    6  A    between atoms: N2_13  and  C13_16
REMARK                            x       y       z     vdW  Elec       q    Type
REMARK                         _______ _______ _______ _____ _____    ______ ____
ROOT
ATOM      1  C2  UNL     1      17.961  32.347  20.849  0.00  0.00    +0.124 A 
ATOM      2  C3  UNL     1      18.551  33.476  20.281  0.00  0.00    +0.046 A 
ATOM      3  C4  UNL     1      18.518  33.663  18.899  0.00  0.00    +0.009 A 
ATOM      4  C5  UNL     1      17.905  32.720  18.063  0.00  0.00    -0.024 A 
ATOM      5  C6  UNL     1      17.347  31.567  18.652  0.00  0.00    +0.014 A 
ATOM      6  C7  UNL     1      17.368  31.366  20.044  0.00  0.00    +0.009 A 
ENDROOT
BRANCH   4   7
ATOM      7  C19 UNL     1      17.866  32.869  16.545  0.00  0.00    +0.131 C 
ATOM      8  N3  UNL     1      17.106  34.072  16.134  0.00  0.00    -0.304 NA
ATOM      9  C20 UNL     1      15.663  33.825  15.942  0.00  0.00    +0.086 C 
ATOM     10  C21 UNL     1      15.352  32.766  14.857  0.00  0.00    +0.052 C 
ATOM     11  C22 UNL     1      16.222  31.575  15.052  0.00  0.00    -0.016 A 
ATOM     12  C23 UNL     1      17.365  31.658  15.818  0.00  0.00    +0.042 A 
ATOM     13  N4  UNL     1      17.967  30.429  15.815  0.00  0.00    -0.356 N 
ATOM     14  C24 UNL     1      17.224  29.547  15.058  0.00  0.00    +0.047 A 
ATOM     15  C25 UNL     1      17.446  28.194  14.775  0.00  0.00    +0.026 A 
ATOM     16  C26 UNL     1      16.516  27.539  13.962  0.00  0.00    +0.002 A 
ATOM     17  C27 UNL     1      15.407  28.212  13.452  0.00  0.00    +0.001 A 
ATOM     18  C28 UNL     1      15.198  29.565  13.744  0.00  0.00    +0.010 A 
ATOM     19  C29 UNL     1      16.120  30.246  14.562  0.00  0.00    +0.003 A 
ATOM     20  H22 UNL     1      17.234  34.788  16.845  0.00  0.00    +0.123 HD
ATOM     21  H27 UNL     1      18.815  30.189  16.309  0.00  0.00    +0.166 HD
ENDBRANCH   4   7
BRANCH   1  23
ATOM     22  C1  UNL     1      17.391  33.232  22.891  0.00  0.00    +0.277 C 
ATOM     23  O1  UNL     1      18.041  32.162  22.204  0.00  0.00    -0.495 OA
ENDBRANCH   1  23
BRANCH   6  24
ATOM     24  C8  UNL     1      16.742  30.121  20.637  0.00  0.00    +0.123 C 
BRANCH  24  25
ATOM     25  N1  UNL     1      16.623  29.007  19.686  0.00  0.00    -0.295 NA
ATOM     26  C9  UNL     1      15.267  28.931  19.093  0.00  0.00    +0.103 C 
ATOM     27  C10 UNL     1      14.528  27.589  19.294  0.00  0.00    +0.120 C 
ATOM     28  N2  UNL     1      15.355  26.443  18.876  0.00  0.00    -0.327 N 
ATOM     29  C11 UNL     1      16.779  26.534  19.279  0.00  0.00    +0.120 C 
ATOM     30  C12 UNL     1      17.043  27.710  20.248  0.00  0.00    +0.103 C 
BRANCH  28  31
ATOM     31  C13 UNL     1      15.136  25.800  17.654  0.00  0.00    +0.030 A 
ATOM     32  C14 UNL     1      16.084  24.872  17.175  0.00  0.00    +0.026 A 
ATOM     33  C15 UNL     1      15.913  24.199  15.961  0.00  0.00    +0.040 A 
ATOM     34  C16 UNL     1      14.781  24.445  15.204  0.00  0.00    +0.124 A 
ATOM     35  F1  UNL     1      14.609  23.805  14.040  0.00  0.00    -0.205 F 
ATOM     36  C17 UNL     1      13.822  25.346  15.640  0.00  0.00    +0.040 A 
ATOM     37  C18 UNL     1      14.000  26.014  16.858  0.00  0.00    +0.026 A 
ENDBRANCH  28  31
ENDBRANCH  24  25
ENDBRANCH   6  24
TORSDOF 5
ENDMDL
MODEL 4
REMARK VINA RESULT:    -3.226      5.635      8.855
REMARK INTER + INTRA:          -5.926
REMARK INTER:                  -4.794
REMARK INTRA:                  -1.132
REMARK UNBOUND:                -1.757
REMARK  Name = /home/vital/Documents/PhD_2021/Malaria_codes/data/pdb_ligands_mmv/ligand_295.pdb
REMARK  6 active torsions:
REMARK  status: ('A' for Active; 'I' for Inactive)
REMARK    1  A    between atoms: C1_1  and  O1_2
REMARK    2  A    between atoms: O1_2  and  C2_3
REMARK    3  A    between atoms: C5_6  and  C19_23
REMARK    4  A    between atoms: C7_8  and  C8_9
REMARK    5  A    between atoms: C8_9  and  N1_10
REMARK    6  A    between atoms: N2_13  and  C13_16
REMARK                            x       y       z     vdW  Elec       q    Type
REMARK                         _______ _______ _______ _____ _____    ______ ____
ROOT
ATOM      1  C2  UNL     1      15.820  32.481  19.570  0.00  0.00    +0.124 A 
ATOM      2  C3  UNL     1      15.241  31.287  19.138  0.00  0.00    +0.046 A 
ATOM      3  C4  UNL     1      15.584  30.753  17.895  0.00  0.00    +0.009 A 
ATOM      4  C5  UNL     1      16.501  31.409  17.062  0.00  0.00    -0.024 A 
ATOM      5  C6  UNL     1      17.047  32.632  17.501  0.00  0.00    +0.014 A 
ATOM      6  C7  UNL     1      16.715  33.181  18.753  0.00  0.00    +0.009 A 
ENDROOT
BRANCH   4   7
ATOM      7  C19 UNL     1      16.887  30.876  15.685  0.00  0.00    +0.131 C 
ATOM      8  N3  UNL     1      16.403  31.762  14.601  0.00  0.00    -0.304 NA
ATOM      9  C20 UNL     1      15.045  31.428  14.125  0.00  0.00    +0.086 C 
ATOM     10  C21 UNL     1      14.922  29.995  13.555  0.00  0.00    +0.052 C 
ATOM     11  C22 UNL     1      15.571  29.026  14.480  0.00  0.00    -0.016 A 
ATOM     12  C23 UNL     1      16.469  29.460  15.432  0.00  0.00    +0.042 A 
ATOM     13  N4  UNL     1      16.910  28.366  16.126  0.00  0.00    -0.356 N 
ATOM     14  C24 UNL     1      16.305  27.227  15.637  0.00  0.00    +0.047 A 
ATOM     15  C25 UNL     1      16.445  25.891  16.034  0.00  0.00    +0.026 A 
ATOM     16  C26 UNL     1      15.700  24.928  15.346  0.00  0.00    +0.002 A 
ATOM     17  C27 UNL     1      14.849  25.288  14.302  0.00  0.00    +0.001 A 
ATOM     18  C28 UNL     1      14.720  26.627  13.917  0.00  0.00    +0.010 A 
ATOM     19  C29 UNL     1      15.458  27.616  14.595  0.00  0.00    +0.003 A 
ATOM     20  H22 UNL     1      16.413  32.719  14.944  0.00  0.00    +0.123 HD
ATOM     21  H27 UNL     1      17.563  28.383  16.896  0.00  0.00    +0.166 HD
ENDBRANCH   4   7
BRANCH   1  23
ATOM     22  C1  UNL     1      15.347  31.980  21.762  0.00  0.00    +0.277 C 
ATOM     23  O1  UNL     1      15.439  33.008  20.776  0.00  0.00    -0.495 OA
ENDBRANCH   1  23
BRANCH   6  24
ATOM     24  C8  UNL     1      17.339  34.490  19.192  0.00  0.00    +0.123 C 
BRANCH  24  25
ATOM     25  N1  UNL     1      16.812  35.665  18.483  0.00  0.00    -0.295 NA
ATOM     26  C9  UNL     1      17.886  36.621  18.128  0.00  0.00    +0.103 C 
ATOM     27  C10 UNL     1      17.705  38.056  18.675  0.00  0.00    +0.120 C 
ATOM     28  N2  UNL     1      16.378  38.602  18.344  0.00  0.00    -0.327 N 
ATOM     29  C11 UNL     1      15.261  37.640  18.500  0.00  0.00    +0.120 C 
ATOM     30  C12 UNL     1      15.705  36.330  19.194  0.00  0.00    +0.103 C 
BRANCH  28  31
ATOM     31  C13 UNL     1      16.211  39.521  17.303  0.00  0.00    +0.030 A 
ATOM     32  C14 UNL     1      17.301  40.320  16.899  0.00  0.00    +0.026 A 
ATOM     33  C15 UNL     1      17.189  41.252  15.862  0.00  0.00    +0.040 A 
ATOM     34  C16 UNL     1      15.978  41.398  15.208  0.00  0.00    +0.124 A 
ATOM     35  F1  UNL     1      15.862  42.287  14.215  0.00  0.00    -0.205 F 
ATOM     36  C17 UNL     1      14.883  40.629  15.572  0.00  0.00    +0.040 A 
ATOM     37  C18 UNL     1      15.004  39.696  16.610  0.00  0.00    +0.026 A 
ENDBRANCH  28  31
ENDBRANCH  24  25
ENDBRANCH   6  24
TORSDOF 5
ENDMDL
MODEL 5
REMARK VINA RESULT:    -3.148     14.759     18.881
REMARK INTER + INTRA:          -5.825
REMARK INTER:                  -3.786
REMARK INTRA:                  -2.039
REMARK UNBOUND:                -1.757
REMARK  Name = /home/vital/Documents/PhD_2021/Malaria_codes/data/pdb_ligands_mmv/ligand_295.pdb
REMARK  6 active torsions:
REMARK  status: ('A' for Active; 'I' for Inactive)
REMARK    1  A    between atoms: C1_1  and  O1_2
REMARK    2  A    between atoms: O1_2  and  C2_3
REMARK    3  A    between atoms: C5_6  and  C19_23
REMARK    4  A    between atoms: C7_8  and  C8_9
REMARK    5  A    between atoms: C8_9  and  N1_10
REMARK    6  A    between atoms: N2_13  and  C13_16
REMARK                            x       y       z     vdW  Elec       q    Type
REMARK                         _______ _______ _______ _____ _____    ______ ____
ROOT
ATOM      1  C2  UNL     1      19.725  41.912  21.041  0.00  0.00    +0.124 A 
ATOM      2  C3  UNL     1      19.240  42.872  21.929  0.00  0.00    +0.046 A 
ATOM      3  C4  UNL     1      19.520  44.224  21.719  0.00  0.00    +0.009 A 
ATOM      4  C5  UNL     1      20.296  44.633  20.625  0.00  0.00    -0.024 A 
ATOM      5  C6  UNL     1      20.807  43.644  19.761  0.00  0.00    +0.014 A 
ATOM      6  C7  UNL     1      20.531  42.278  19.956  0.00  0.00    +0.009 A 
ENDROOT
BRANCH   4   7
ATOM      7  C19 UNL     1      20.647  46.095  20.369  0.00  0.00    +0.131 C 
ATOM      8  N3  UNL     1      19.438  46.911  20.113  0.00  0.00    -0.304 NA
ATOM      9  C20 UNL     1      19.051  46.967  18.688  0.00  0.00    +0.086 C 
ATOM     10  C21 UNL     1      20.142  47.570  17.772  0.00  0.00    +0.052 C 
ATOM     11  C22 UNL     1      21.462  46.961  18.091  0.00  0.00    -0.016 A 
ATOM     12  C23 UNL     1      21.662  46.305  19.287  0.00  0.00    +0.042 A 
ATOM     13  N4  UNL     1      22.956  45.861  19.315  0.00  0.00    -0.356 N 
ATOM     14  C24 UNL     1      23.598  46.218  18.147  0.00  0.00    +0.047 A 
ATOM     15  C25 UNL     1      24.914  45.978  17.733  0.00  0.00    +0.026 A 
ATOM     16  C26 UNL     1      25.300  46.467  16.481  0.00  0.00    +0.002 A 
ATOM     17  C27 UNL     1      24.405  47.169  15.676  0.00  0.00    +0.001 A 
ATOM     18  C28 UNL     1      23.092  47.401  16.103  0.00  0.00    +0.010 A 
ATOM     19  C29 UNL     1      22.678  46.917  17.359  0.00  0.00    +0.003 A 
ATOM     20  H22 UNL     1      18.671  46.523  20.655  0.00  0.00    +0.123 HD
ATOM     21  H27 UNL     1      23.379  45.331  20.063  0.00  0.00    +0.166 HD
ENDBRANCH   4   7
BRANCH   1  23
ATOM     22  C1  UNL     1      18.269  40.443  22.041  0.00  0.00    +0.277 C 
ATOM     23  O1  UNL     1      19.474  40.588  21.289  0.00  0.00    -0.495 OA
ENDBRANCH   1  23
BRANCH   6  24
ATOM     24  C8  UNL     1      21.087  41.250  18.993  0.00  0.00    +0.123 C 
BRANCH  24  25
ATOM     25  N1  UNL     1      22.209  41.743  18.182  0.00  0.00    -0.295 NA
ATOM     26  C9  UNL     1      21.765  42.185  16.839  0.00  0.00    +0.103 C 
ATOM     27  C10 UNL     1      22.453  41.481  15.648  0.00  0.00    +0.120 C 
ATOM     28  N2  UNL     1      23.922  41.526  15.762  0.00  0.00    -0.327 N 
ATOM     29  C11 UNL     1      24.439  41.272  17.128  0.00  0.00    +0.120 C 
ATOM     30  C12 UNL     1      23.332  40.793  18.098  0.00  0.00    +0.103 C 
BRANCH  28  31
ATOM     31  C13 UNL     1      24.680  42.430  15.012  0.00  0.00    +0.030 A 
ATOM     32  C14 UNL     1      26.064  42.546  15.252  0.00  0.00    +0.026 A 
ATOM     33  C15 UNL     1      26.869  43.433  14.529  0.00  0.00    +0.040 A 
ATOM     34  C16 UNL     1      26.296  44.220  13.546  0.00  0.00    +0.124 A 
ATOM     35  F1  UNL     1      27.058  45.072  12.849  0.00  0.00    -0.205 F 
ATOM     36  C17 UNL     1      24.939  44.135  13.275  0.00  0.00    +0.040 A 
ATOM     37  C18 UNL     1      24.140  43.242  14.003  0.00  0.00    +0.026 A 
ENDBRANCH  28  31
ENDBRANCH  24  25
ENDBRANCH   6  24
TORSDOF 5
ENDMDL
MODEL 6
REMARK VINA RESULT:    -3.146      3.327      7.286
REMARK INTER + INTRA:          -5.822
REMARK INTER:                  -4.180
REMARK INTRA:                  -1.642
REMARK UNBOUND:                -1.757
REMARK  Name = /home/vital/Documents/PhD_2021/Malaria_codes/data/pdb_ligands_mmv/ligand_295.pdb
REMARK  6 active torsions:
REMARK  status: ('A' for Active; 'I' for Inactive)
REMARK    1  A    between atoms: C1_1  and  O1_2
REMARK    2  A    between atoms: O1_2  and  C2_3
REMARK    3  A    between atoms: C5_6  and  C19_23
REMARK    4  A    between atoms: C7_8  and  C8_9
REMARK    5  A    between atoms: C8_9  and  N1_10
REMARK    6  A    between atoms: N2_13  and  C13_16
REMARK                            x       y       z     vdW  Elec       q    Type
REMARK                         _______ _______ _______ _____ _____    ______ ____
ROOT
ATOM      1  C2  UNL     1      17.738  25.603  23.390  0.00  0.00    +0.124 A 
ATOM      2  C3  UNL     1      17.941  24.225  23.448  0.00  0.00    +0.046 A 
ATOM      3  C4  UNL     1      18.044  23.482  22.271  0.00  0.00    +0.009 A 
ATOM      4  C5  UNL     1      17.935  24.105  21.019  0.00  0.00    -0.024 A 
ATOM      5  C6  UNL     1      17.693  25.493  20.983  0.00  0.00    +0.014 A 
ATOM      6  C7  UNL     1      17.591  26.256  22.160  0.00  0.00    +0.009 A 
ENDROOT
BRANCH   4   7
ATOM      7  C19 UNL     1      18.017  23.331  19.707  0.00  0.00    +0.131 C 
ATOM      8  N3  UNL     1      19.421  23.109  19.290  0.00  0.00    -0.304 NA
ATOM      9  C20 UNL     1      19.967  24.193  18.449  0.00  0.00    +0.086 C 
ATOM     10  C21 UNL     1      19.187  24.409  17.130  0.00  0.00    +0.052 C 
ATOM     11  C22 UNL     1      17.726  24.440  17.407  0.00  0.00    -0.016 A 
ATOM     12  C23 UNL     1      17.224  23.932  18.587  0.00  0.00    +0.042 A 
ATOM     13  N4  UNL     1      15.865  24.082  18.568  0.00  0.00    -0.356 N 
ATOM     14  C24 UNL     1      15.477  24.687  17.390  0.00  0.00    +0.047 A 
ATOM     15  C25 UNL     1      14.201  25.040  16.935  0.00  0.00    +0.026 A 
ATOM     16  C26 UNL     1      14.103  25.646  15.679  0.00  0.00    +0.002 A 
ATOM     17  C27 UNL     1      15.239  25.888  14.908  0.00  0.00    +0.001 A 
ATOM     18  C28 UNL     1      16.509  25.530  15.375  0.00  0.00    +0.010 A 
ATOM     19  C29 UNL     1      16.633  24.920  16.638  0.00  0.00    +0.003 A 
ATOM     20  H22 UNL     1      19.990  23.013  20.127  0.00  0.00    +0.123 HD
ATOM     21  H27 UNL     1      15.234  23.814  19.309  0.00  0.00    +0.166 HD
ENDBRANCH   4   7
BRANCH   1  23
ATOM     22  C1  UNL     1      18.588  25.902  25.503  0.00  0.00    +0.277 C 
ATOM     23  O1  UNL     1      17.598  26.307  24.558  0.00  0.00    -0.495 OA
ENDBRANCH   1  23
BRANCH   6  24
ATOM     24  C8  UNL     1      17.346  27.748  22.074  0.00  0.00    +0.123 C 
BRANCH  24  25
ATOM     25  N1  UNL     1      16.750  28.179  20.801  0.00  0.00    -0.295 NA
ATOM     26  C9  UNL     1      17.660  29.063  20.038  0.00  0.00    +0.103 C 
ATOM     27  C10 UNL     1      17.090  30.455  19.682  0.00  0.00    +0.120 C 
ATOM     28  N2  UNL     1      15.774  30.354  19.026  0.00  0.00    -0.327 N 
ATOM     29  C11 UNL     1      14.864  29.349  19.626  0.00  0.00    +0.120 C 
ATOM     30  C12 UNL     1      15.412  28.779  20.956  0.00  0.00    +0.103 C 
BRANCH  28  31
ATOM     31  C13 UNL     1      15.641  30.505  17.642  0.00  0.00    +0.030 A 
ATOM     32  C14 UNL     1      15.904  31.757  17.050  0.00  0.00    +0.026 A 
ATOM     33  C15 UNL     1      15.789  31.962  15.671  0.00  0.00    +0.040 A 
ATOM     34  C16 UNL     1      15.409  30.908  14.858  0.00  0.00    +0.124 A 
ATOM     35  F1  UNL     1      15.296  31.095  13.538  0.00  0.00    -0.205 F 
ATOM     36  C17 UNL     1      15.145  29.660  15.400  0.00  0.00    +0.040 A 
ATOM     37  C18 UNL     1      15.265  29.462  16.782  0.00  0.00    +0.026 A 
ENDBRANCH  28  31
ENDBRANCH  24  25
ENDBRANCH   6  24
TORSDOF 5
ENDMDL
MODEL 7
REMARK VINA RESULT:    -3.075      4.229      7.668
REMARK INTER + INTRA:          -5.730
REMARK INTER:                  -3.673
REMARK INTRA:                  -2.057
REMARK UNBOUND:                -1.757
REMARK  Name = /home/vital/Documents/PhD_2021/Malaria_codes/data/pdb_ligands_mmv/ligand_295.pdb
REMARK  6 active torsions:
REMARK  status: ('A' for Active; 'I' for Inactive)
REMARK    1  A    between atoms: C1_1  and  O1_2
REMARK    2  A    between atoms: O1_2  and  C2_3
REMARK    3  A    between atoms: C5_6  and  C19_23
REMARK    4  A    between atoms: C7_8  and  C8_9
REMARK    5  A    between atoms: C8_9  and  N1_10
REMARK    6  A    between atoms: N2_13  and  C13_16
REMARK                            x       y       z     vdW  Elec       q    Type
REMARK                         _______ _______ _______ _____ _____    ______ ____
ROOT
ATOM      1  C2  UNL     1      19.621  24.130  17.786  0.00  0.00    +0.124 A 
ATOM      2  C3  UNL     1      18.590  23.287  18.200  0.00  0.00    +0.046 A 
ATOM      3  C4  UNL     1      17.259  23.649  17.983  0.00  0.00    +0.009 A 
ATOM      4  C5  UNL     1      16.940  24.863  17.359  0.00  0.00    -0.024 A 
ATOM      5  C6  UNL     1      17.996  25.718  16.982  0.00  0.00    +0.014 A 
ATOM      6  C7  UNL     1      19.342  25.366  17.190  0.00  0.00    +0.009 A 
ENDROOT
BRANCH   4   7
ATOM      7  C19 UNL     1      15.502  25.313  17.124  0.00  0.00    +0.131 C 
ATOM      8  N3  UNL     1      14.738  24.312  16.344  0.00  0.00    -0.304 NA
ATOM      9  C20 UNL     1      14.823  24.508  14.882  0.00  0.00    +0.086 C 
ATOM     10  C21 UNL     1      14.286  25.879  14.408  0.00  0.00    +0.052 C 
ATOM     11  C22 UNL     1      14.835  26.962  15.269  0.00  0.00    -0.016 A 
ATOM     12  C23 UNL     1      15.373  26.671  16.505  0.00  0.00    +0.042 A 
ATOM     13  N4  UNL     1      15.787  27.844  17.073  0.00  0.00    -0.356 N 
ATOM     14  C24 UNL     1      15.528  28.895  16.217  0.00  0.00    +0.047 A 
ATOM     15  C25 UNL     1      15.778  30.264  16.369  0.00  0.00    +0.026 A 
ATOM     16  C26 UNL     1      15.400  31.114  15.326  0.00  0.00    +0.002 A 
ATOM     17  C27 UNL     1      14.795  30.613  14.174  0.00  0.00    +0.001 A 
ATOM     18  C28 UNL     1      14.551  29.241  14.036  0.00  0.00    +0.010 A 
ATOM     19  C29 UNL     1      14.924  28.365  15.072  0.00  0.00    +0.003 A 
ATOM     20  H22 UNL     1      15.089  23.387  16.580  0.00  0.00    +0.123 HD
ATOM     21  H27 UNL     1      16.236  27.935  17.973  0.00  0.00    +0.166 HD
ENDBRANCH   4   7
BRANCH   1  23
ATOM     22  C1  UNL     1      21.262  22.590  17.328  0.00  0.00    +0.277 C 
ATOM     23  O1  UNL     1      20.918  23.774  18.046  0.00  0.00    -0.495 OA
ENDBRANCH   1  23
BRANCH   6  24
ATOM     24  C8  UNL     1      20.445  26.308  16.754  0.00  0.00    +0.123 C 
BRANCH  24  25
ATOM     25  N1  UNL     1      19.958  27.607  16.269  0.00  0.00    -0.295 NA
ATOM     26  C9  UNL     1      19.840  27.635  14.793  0.00  0.00    +0.103 C 
ATOM     27  C10 UNL     1      20.649  28.745  14.083  0.00  0.00    +0.120 C 
ATOM     28  N2  UNL     1      20.378  30.072  14.662  0.00  0.00    -0.327 N 
ATOM     29  C11 UNL     1      20.299  30.092  16.142  0.00  0.00    +0.120 C 
ATOM     30  C12 UNL     1      20.740  28.750  16.773  0.00  0.00    +0.103 C 
BRANCH  28  31
ATOM     31  C13 UNL     1      19.531  30.982  14.022  0.00  0.00    +0.030 A 
ATOM     32  C14 UNL     1      19.338  32.264  14.578  0.00  0.00    +0.026 A 
ATOM     33  C15 UNL     1      18.504  33.213  13.978  0.00  0.00    +0.040 A 
ATOM     34  C16 UNL     1      17.848  32.892  12.802  0.00  0.00    +0.124 A 
ATOM     35  F1  UNL     1      17.048  33.794  12.220  0.00  0.00    -0.205 F 
ATOM     36  C17 UNL     1      18.013  31.644  12.220  0.00  0.00    +0.040 A 
ATOM     37  C18 UNL     1      18.852  30.700  12.827  0.00  0.00    +0.026 A 
ENDBRANCH  28  31
ENDBRANCH  24  25
ENDBRANCH   6  24
TORSDOF 5
ENDMDL
MODEL 8
REMARK VINA RESULT:    -3.018      3.540      7.142
REMARK INTER + INTRA:          -5.656
REMARK INTER:                  -4.089
REMARK INTRA:                  -1.568
REMARK UNBOUND:                -1.757
REMARK  Name = /home/vital/Documents/PhD_2021/Malaria_codes/data/pdb_ligands_mmv/ligand_295.pdb
REMARK  6 active torsions:
REMARK  status: ('A' for Active; 'I' for Inactive)
REMARK    1  A    between atoms: C1_1  and  O1_2
REMARK    2  A    between atoms: O1_2  and  C2_3
REMARK    3  A    between atoms: C5_6  and  C19_23
REMARK    4  A    between atoms: C7_8  and  C8_9
REMARK    5  A    between atoms: C8_9  and  N1_10
REMARK    6  A    between atoms: N2_13  and  C13_16
REMARK                            x       y       z     vdW  Elec       q    Type
REMARK                         _______ _______ _______ _____ _____    ______ ____
ROOT
ATOM      1  C2  UNL     1      21.064  27.253  20.063  0.00  0.00    +0.124 A 
ATOM      2  C3  UNL     1      20.519  26.684  21.213  0.00  0.00    +0.046 A 
ATOM      3  C4  UNL     1      19.494  25.743  21.111  0.00  0.00    +0.009 A 
ATOM      4  C5  UNL     1      18.992  25.364  19.858  0.00  0.00    -0.024 A 
ATOM      5  C6  UNL     1      19.531  25.977  18.709  0.00  0.00    +0.014 A 
ATOM      6  C7  UNL     1      20.567  26.925  18.795  0.00  0.00    +0.009 A 
ENDROOT
BRANCH   4   7
ATOM      7  C19 UNL     1      17.857  24.358  19.698  0.00  0.00    +0.131 C 
ATOM      8  N3  UNL     1      18.369  22.982  19.501  0.00  0.00    -0.304 NA
ATOM      9  C20 UNL     1      18.604  22.635  18.084  0.00  0.00    +0.086 C 
ATOM     10  C21 UNL     1      17.333  22.718  17.206  0.00  0.00    +0.052 C 
ATOM     11  C22 UNL     1      16.613  23.991  17.479  0.00  0.00    -0.016 A 
ATOM     12  C23 UNL     1      16.868  24.708  18.629  0.00  0.00    +0.042 A 
ATOM     13  N4  UNL     1      16.065  25.816  18.623  0.00  0.00    -0.356 N 
ATOM     14  C24 UNL     1      15.294  25.828  17.479  0.00  0.00    +0.047 A 
ATOM     15  C25 UNL     1      14.340  26.757  17.045  0.00  0.00    +0.026 A 
ATOM     16  C26 UNL     1      13.699  26.509  15.828  0.00  0.00    +0.002 A 
ATOM     17  C27 UNL     1      14.001  25.376  15.074  0.00  0.00    +0.001 A 
ATOM     18  C28 UNL     1      14.957  24.457  15.520  0.00  0.00    +0.010 A 
ATOM     19  C29 UNL     1      15.618  24.685  16.742  0.00  0.00    +0.003 A 
ATOM     20  H22 UNL     1      19.239  22.889  20.019  0.00  0.00    +0.123 HD
ATOM     21  H27 UNL     1      16.049  26.534  19.333  0.00  0.00    +0.166 HD
ENDBRANCH   4   7
BRANCH   1  23
ATOM     22  C1  UNL     1      21.577  29.291  20.991  0.00  0.00    +0.277 C 
ATOM     23  O1  UNL     1      22.041  28.206  20.188  0.00  0.00    -0.495 OA
ENDBRANCH   1  23
BRANCH   6  24
ATOM     24  C8  UNL     1      21.128  27.548  17.533  0.00  0.00    +0.123 C 
BRANCH  24  25
ATOM     25  N1  UNL     1      20.099  27.978  16.577  0.00  0.00    -0.295 NA
ATOM     26  C9  UNL     1      19.239  29.047  17.136  0.00  0.00    +0.103 C 
ATOM     27  C10 UNL     1      17.726  28.734  17.167  0.00  0.00    +0.120 C 
ATOM     28  N2  UNL     1      17.233  28.291  15.851  0.00  0.00    -0.327 N 
ATOM     29  C11 UNL     1      18.135  27.352  15.142  0.00  0.00    +0.120 C 
ATOM     30  C12 UNL     1      19.299  26.864  16.037  0.00  0.00    +0.103 C 
BRANCH  28  31
ATOM     31  C13 UNL     1      16.521  29.157  15.015  0.00  0.00    +0.030 A 
ATOM     32  C14 UNL     1      16.063  30.391  15.519  0.00  0.00    +0.026 A 
ATOM     33  C15 UNL     1      15.349  31.295  14.725  0.00  0.00    +0.040 A 
ATOM     34  C16 UNL     1      15.085  30.976  13.404  0.00  0.00    +0.124 A 
ATOM     35  F1  UNL     1      14.403  31.835  12.637  0.00  0.00    -0.205 F 
ATOM     36  C17 UNL     1      15.522  29.774  12.868  0.00  0.00    +0.040 A 
ATOM     37  C18 UNL     1      16.238  28.875  13.670  0.00  0.00    +0.026 A 
ENDBRANCH  28  31
ENDBRANCH  24  25
ENDBRANCH   6  24
TORSDOF 5
ENDMDL
MODEL 9
REMARK VINA RESULT:    -2.828      3.216      5.001
REMARK INTER + INTRA:          -5.412
REMARK INTER:                  -3.347
REMARK INTRA:                  -2.065
REMARK UNBOUND:                -1.757
REMARK  Name = /home/vital/Documents/PhD_2021/Malaria_codes/data/pdb_ligands_mmv/ligand_295.pdb
REMARK  6 active torsions:
REMARK  status: ('A' for Active; 'I' for Inactive)
REMARK    1  A    between atoms: C1_1  and  O1_2
REMARK    2  A    between atoms: O1_2  and  C2_3
REMARK    3  A    between atoms: C5_6  and  C19_23
REMARK    4  A    between atoms: C7_8  and  C8_9
REMARK    5  A    between atoms: C8_9  and  N1_10
REMARK    6  A    between atoms: N2_13  and  C13_16
REMARK                            x       y       z     vdW  Elec       q    Type
REMARK                         _______ _______ _______ _____ _____    ______ ____
ROOT
ATOM      1  C2  UNL     1      20.460  33.458  15.628  0.00  0.00    +0.124 A 
ATOM      2  C3  UNL     1      20.135  34.195  14.490  0.00  0.00    +0.046 A 
ATOM      3  C4  UNL     1      19.146  33.736  13.617  0.00  0.00    +0.009 A 
ATOM      4  C5  UNL     1      18.476  32.530  13.865  0.00  0.00    -0.024 A 
ATOM      5  C6  UNL     1      18.845  31.782  15.001  0.00  0.00    +0.014 A 
ATOM      6  C7  UNL     1      19.836  32.232  15.892  0.00  0.00    +0.009 A 
ENDROOT
BRANCH   4   7
ATOM      7  C19 UNL     1      17.407  31.977  12.928  0.00  0.00    +0.131 C 
ATOM      8  N3  UNL     1      16.298  32.940  12.735  0.00  0.00    -0.304 NA
ATOM      9  C20 UNL     1      15.212  32.799  13.726  0.00  0.00    +0.086 C 
ATOM     10  C21 UNL     1      14.539  31.406  13.716  0.00  0.00    +0.052 C 
ATOM     11  C22 UNL     1      15.580  30.342  13.697  0.00  0.00    -0.016 A 
ATOM     12  C23 UNL     1      16.874  30.634  13.323  0.00  0.00    +0.042 A 
ATOM     13  N4  UNL     1      17.604  29.479  13.389  0.00  0.00    -0.356 N 
ATOM     14  C24 UNL     1      16.797  28.439  13.805  0.00  0.00    +0.047 A 
ATOM     15  C25 UNL     1      17.104  27.090  14.018  0.00  0.00    +0.026 A 
ATOM     16  C26 UNL     1      16.072  26.248  14.441  0.00  0.00    +0.002 A 
ATOM     17  C27 UNL     1      14.783  26.737  14.645  0.00  0.00    +0.001 A 
ATOM     18  C28 UNL     1      14.491  28.089  14.428  0.00  0.00    +0.010 A 
ATOM     19  C29 UNL     1      15.514  28.958  14.003  0.00  0.00    +0.003 A 
ATOM     20  H22 UNL     1      16.680  33.881  12.786  0.00  0.00    +0.123 HD
ATOM     21  H27 UNL     1      18.589  29.394  13.186  0.00  0.00    +0.166 HD
ENDBRANCH   4   7
BRANCH   1  23
ATOM     22  C1  UNL     1      22.636  34.189  15.690  0.00  0.00    +0.277 C 
ATOM     23  O1  UNL     1      21.462  33.905  16.449  0.00  0.00    -0.495 OA
ENDBRANCH   1  23
BRANCH   6  24
ATOM     24  C8  UNL     1      20.189  31.404  17.110  0.00  0.00    +0.123 C 
BRANCH  24  25
ATOM     25  N1  UNL     1      19.581  30.066  17.114  0.00  0.00    -0.295 NA
ATOM     26  C9  UNL     1      18.312  30.040  17.877  0.00  0.00    +0.103 C 
ATOM     27  C10 UNL     1      18.260  29.026  19.043  0.00  0.00    +0.120 C 
ATOM     28  N2  UNL     1      18.645  27.673  18.607  0.00  0.00    -0.327 N 
ATOM     29  C11 UNL     1      19.805  27.631  17.686  0.00  0.00    +0.120 C 
ATOM     30  C12 UNL     1      20.504  29.005  17.556  0.00  0.00    +0.103 C 
BRANCH  28  31
ATOM     31  C13 UNL     1      17.682  26.686  18.374  0.00  0.00    +0.030 A 
ATOM     32  C14 UNL     1      16.320  26.972  18.604  0.00  0.00    +0.026 A 
ATOM     33  C15 UNL     1      15.317  26.023  18.384  0.00  0.00    +0.040 A 
ATOM     34  C16 UNL     1      15.664  24.764  17.925  0.00  0.00    +0.124 A 
ATOM     35  F1  UNL     1      14.711  23.849  17.712  0.00  0.00    -0.205 F 
ATOM     36  C17 UNL     1      16.991  24.442  17.682  0.00  0.00    +0.040 A 
ATOM     37  C18 UNL     1      17.989  25.400  17.903  0.00  0.00    +0.026 A 
ENDBRANCH  28  31
ENDBRANCH  24  25
ENDBRANCH   6  24
TORSDOF 5
ENDMDL
