MODEL 1
REMARK VINA RESULT:    -3.824      0.000      0.000
REMARK INTER + INTRA:          -7.892
REMARK INTER:                  -5.725
REMARK INTRA:                  -2.167
REMARK UNBOUND:                -2.167
REMARK  Name = /home/vital/Documents/PhD_2021/Malaria_codes/data/pdb_ligands_mmv/ligand_336.pdb
REMARK  10 active torsions:
REMARK  status: ('A' for Active; 'I' for Inactive)
REMARK    1  A    between atoms: C1_1  and  C2_2
REMARK    2  A    between atoms: C2_2  and  C3_3
REMARK    3  A    between atoms: C3_3  and  C4_4
REMARK    4  A    between atoms: C4_4  and  C5_5
REMARK    5  A    between atoms: C5_5  and  C6_6
REMARK    6  A    between atoms: C6_6  and  C7_7
REMARK    7  A    between atoms: C11_11  and  C16_19
REMARK    8  A    between atoms: C15_17  and  O3_18
REMARK    9  A    between atoms: C18_22  and  C19_23
REMARK   10  A    between atoms: C20_24  and  C21_25
REMARK                            x       y       z     vdW  Elec       q    Type
REMARK                         _______ _______ _______ _____ _____    ______ ____
ROOT
ATOM      1  C7  UNL     1      22.368  46.901  16.590  0.00  0.00    -0.005 A 
ATOM      2  C8  UNL     1      23.596  46.619  17.219  0.00  0.00    +0.018 A 
ATOM      3  C9  UNL     1      24.628  45.994  16.514  0.00  0.00    +0.019 A 
ATOM      4  C10 UNL     1      25.918  45.719  17.119  0.00  0.00    +0.028 A 
ATOM      5  C11 UNL     1      26.893  45.109  16.425  0.00  0.00    +0.086 A 
ATOM      6  C12 UNL     1      26.664  44.670  15.018  0.00  0.00    +0.347 A 
ATOM      7  O1  UNL     1      27.496  44.031  14.378  0.00  0.00    -0.244 OA
ATOM      8  O2  UNL     1      25.430  44.994  14.451  0.00  0.00    -0.422 OA
ATOM      9  C13 UNL     1      24.421  45.645  15.185  0.00  0.00    +0.143 A 
ATOM     10  C14 UNL     1      23.220  45.911  14.535  0.00  0.00    +0.092 A 
ATOM     11  C15 UNL     1      22.200  46.543  15.245  0.00  0.00    +0.124 A 
ENDROOT
BRANCH   5  12
ATOM     12  C16 UNL     1      28.180  44.878  16.994  0.00  0.00    +0.086 A 
ATOM     13  C17 UNL     1      28.551  43.748  17.689  0.00  0.00    +0.075 A 
ATOM     14  S1  UNL     1      30.164  43.924  18.238  0.00  0.00    -0.076 S 
ATOM     15  C18 UNL     1      30.228  45.513  17.541  0.00  0.00    +0.102 A 
ATOM     16  N1  UNL     1      29.127  45.876  16.913  0.00  0.00    -0.239 NA
BRANCH  15  17
ATOM     17  C19 UNL     1      31.414  46.291  17.625  0.00  0.00    +0.035 C 
ATOM     18  C20 UNL     1      32.406  46.284  16.718  0.00  0.00    +0.010 C 
BRANCH  18  19
ATOM     19  C21 UNL     1      32.508  45.485  15.487  0.00  0.00    -0.025 A 
ATOM     20  C22 UNL     1      31.530  45.535  14.486  0.00  0.00    +0.008 A 
ATOM     21  C23 UNL     1      31.640  44.737  13.345  0.00  0.00    +0.001 A 
ATOM     22  C24 UNL     1      32.717  43.866  13.203  0.00  0.00    +0.000 A 
ATOM     23  C25 UNL     1      33.686  43.793  14.203  0.00  0.00    +0.001 A 
ATOM     24  C26 UNL     1      33.581  44.595  15.342  0.00  0.00    +0.008 A 
ENDBRANCH  18  19
ENDBRANCH  15  17
ENDBRANCH   5  12
BRANCH  11  25
ATOM     25  O3  UNL     1      21.012  46.827  14.634  0.00  0.00    -0.506 OA
ATOM     26  H17 UNL     1      21.039  46.507  13.717  0.00  0.00    +0.292 HD
ENDBRANCH  11  25
BRANCH   1  27
ATOM     27  C6  UNL     1      21.263  47.564  17.380  0.00  0.00    +0.039 C 
BRANCH  27  28
ATOM     28  C5  UNL     1      20.904  46.777  18.644  0.00  0.00    +0.005 C 
BRANCH  28  29
ATOM     29  C4  UNL     1      19.773  45.780  18.376  0.00  0.00    +0.000 C 
BRANCH  29  30
ATOM     30  C3  UNL     1      20.263  44.336  18.512  0.00  0.00    -0.000 C 
BRANCH  30  32
ATOM     31  C1  UNL     1      21.733  43.020  16.883  0.00  0.00    +0.004 C 
ATOM     32  C2  UNL     1      20.355  43.594  17.176  0.00  0.00    -0.003 C 
ENDBRANCH  30  32
ENDBRANCH  29  30
ENDBRANCH  28  29
ENDBRANCH  27  28
ENDBRANCH   1  27
TORSDOF 9
ENDMDL
MODEL 2
REMARK VINA RESULT:    -3.683     20.746     22.990
REMARK INTER + INTRA:          -7.680
REMARK INTER:                  -5.216
REMARK INTRA:                  -2.464
REMARK UNBOUND:                -2.167
REMARK  Name = /home/vital/Documents/PhD_2021/Malaria_codes/data/pdb_ligands_mmv/ligand_336.pdb
REMARK  10 active torsions:
REMARK  status: ('A' for Active; 'I' for Inactive)
REMARK    1  A    between atoms: C1_1  and  C2_2
REMARK    2  A    between atoms: C2_2  and  C3_3
REMARK    3  A    between atoms: C3_3  and  C4_4
REMARK    4  A    between atoms: C4_4  and  C5_5
REMARK    5  A    between atoms: C5_5  and  C6_6
REMARK    6  A    between atoms: C6_6  and  C7_7
REMARK    7  A    between atoms: C11_11  and  C16_19
REMARK    8  A    between atoms: C15_17  and  O3_18
REMARK    9  A    between atoms: C18_22  and  C19_23
REMARK   10  A    between atoms: C20_24  and  C21_25
REMARK                            x       y       z     vdW  Elec       q    Type
REMARK                         _______ _______ _______ _____ _____    ______ ____
ROOT
ATOM      1  C7  UNL     1      14.826  25.497  15.986  0.00  0.00    -0.005 A 
ATOM      2  C8  UNL     1      15.234  26.037  17.220  0.00  0.00    +0.018 A 
ATOM      3  C9  UNL     1      16.078  25.314  18.067  0.00  0.00    +0.019 A 
ATOM      4  C10 UNL     1      16.546  25.853  19.331  0.00  0.00    +0.028 A 
ATOM      5  C11 UNL     1      17.351  25.136  20.134  0.00  0.00    +0.086 A 
ATOM      6  C12 UNL     1      17.760  23.751  19.761  0.00  0.00    +0.347 A 
ATOM      7  O1  UNL     1      18.420  23.030  20.505  0.00  0.00    -0.244 OA
ATOM      8  O2  UNL     1      17.332  23.283  18.516  0.00  0.00    -0.422 OA
ATOM      9  C13 UNL     1      16.500  24.049  17.679  0.00  0.00    +0.143 A 
ATOM     10  C14 UNL     1      16.116  23.488  16.465  0.00  0.00    +0.092 A 
ATOM     11  C15 UNL     1      15.281  24.221  15.623  0.00  0.00    +0.124 A 
ENDROOT
BRANCH   5  12
ATOM     12  C16 UNL     1      17.856  25.674  21.355  0.00  0.00    +0.086 A 
ATOM     13  C17 UNL     1      19.035  26.374  21.487  0.00  0.00    +0.075 A 
ATOM     14  S1  UNL     1      19.271  26.779  23.134  0.00  0.00    -0.076 S 
ATOM     15  C18 UNL     1      17.802  25.952  23.549  0.00  0.00    +0.102 A 
ATOM     16  N1  UNL     1      17.160  25.433  22.520  0.00  0.00    -0.239 NA
BRANCH  15  17
ATOM     17  C19 UNL     1      17.349  25.915  24.895  0.00  0.00    +0.035 C 
ATOM     18  C20 UNL     1      16.384  26.699  25.405  0.00  0.00    +0.010 C 
BRANCH  18  19
ATOM     19  C21 UNL     1      15.615  27.755  24.727  0.00  0.00    -0.025 A 
ATOM     20  C22 UNL     1      14.385  27.497  24.110  0.00  0.00    +0.008 A 
ATOM     21  C23 UNL     1      13.697  28.515  23.444  0.00  0.00    +0.001 A 
ATOM     22  C24 UNL     1      14.242  29.794  23.371  0.00  0.00    +0.000 A 
ATOM     23  C25 UNL     1      15.476  30.057  23.965  0.00  0.00    +0.001 A 
ATOM     24  C26 UNL     1      16.162  29.041  24.636  0.00  0.00    +0.008 A 
ENDBRANCH  18  19
ENDBRANCH  15  17
ENDBRANCH   5  12
BRANCH  11  25
ATOM     25  O3  UNL     1      14.892  23.703  14.420  0.00  0.00    -0.506 OA
ATOM     26  H17 UNL     1      13.922  23.692  14.376  0.00  0.00    +0.292 HD
ENDBRANCH  11  25
BRANCH   1  27
ATOM     27  C6  UNL     1      13.900  26.293  15.095  0.00  0.00    +0.039 C 
BRANCH  27  28
ATOM     28  C5  UNL     1      14.460  27.681  14.772  0.00  0.00    +0.005 C 
BRANCH  28  29
ATOM     29  C4  UNL     1      15.470  27.619  13.623  0.00  0.00    +0.000 C 
BRANCH  29  30
ATOM     30  C3  UNL     1      16.850  28.108  14.070  0.00  0.00    -0.000 C 
BRANCH  30  32
ATOM     31  C1  UNL     1      18.669  27.000  15.487  0.00  0.00    +0.004 C 
ATOM     32  C2  UNL     1      17.888  26.988  14.182  0.00  0.00    -0.003 C 
ENDBRANCH  30  32
ENDBRANCH  29  30
ENDBRANCH  28  29
ENDBRANCH  27  28
ENDBRANCH   1  27
TORSDOF 9
ENDMDL
MODEL 3
REMARK VINA RESULT:    -3.468     12.901     17.346
REMARK INTER + INTRA:          -7.358
REMARK INTER:                  -6.007
REMARK INTRA:                  -1.351
REMARK UNBOUND:                -2.167
REMARK  Name = /home/vital/Documents/PhD_2021/Malaria_codes/data/pdb_ligands_mmv/ligand_336.pdb
REMARK  10 active torsions:
REMARK  status: ('A' for Active; 'I' for Inactive)
REMARK    1  A    between atoms: C1_1  and  C2_2
REMARK    2  A    between atoms: C2_2  and  C3_3
REMARK    3  A    between atoms: C3_3  and  C4_4
REMARK    4  A    between atoms: C4_4  and  C5_5
REMARK    5  A    between atoms: C5_5  and  C6_6
REMARK    6  A    between atoms: C6_6  and  C7_7
REMARK    7  A    between atoms: C11_11  and  C16_19
REMARK    8  A    between atoms: C15_17  and  O3_18
REMARK    9  A    between atoms: C18_22  and  C19_23
REMARK   10  A    between atoms: C20_24  and  C21_25
REMARK                            x       y       z     vdW  Elec       q    Type
REMARK                         _______ _______ _______ _____ _____    ______ ____
ROOT
ATOM      1  C7  UNL     1      15.113  30.106  14.359  0.00  0.00    -0.005 A 
ATOM      2  C8  UNL     1      15.052  31.179  15.269  0.00  0.00    +0.018 A 
ATOM      3  C9  UNL     1      15.575  32.429  14.929  0.00  0.00    +0.019 A 
ATOM      4  C10 UNL     1      15.500  33.566  15.828  0.00  0.00    +0.028 A 
ATOM      5  C11 UNL     1      16.018  34.757  15.484  0.00  0.00    +0.086 A 
ATOM      6  C12 UNL     1      16.713  34.935  14.177  0.00  0.00    +0.347 A 
ATOM      7  O1  UNL     1      17.277  35.979  13.860  0.00  0.00    -0.244 OA
ATOM      8  O2  UNL     1      16.724  33.834  13.316  0.00  0.00    -0.422 OA
ATOM      9  C13 UNL     1      16.167  32.596  13.683  0.00  0.00    +0.143 A 
ATOM     10  C14 UNL     1      16.241  31.556  12.761  0.00  0.00    +0.092 A 
ATOM     11  C15 UNL     1      15.708  30.316  13.107  0.00  0.00    +0.124 A 
ENDROOT
BRANCH   5  12
ATOM     12  C16 UNL     1      15.907  35.893  16.340  0.00  0.00    +0.086 A 
ATOM     13  C17 UNL     1      16.776  36.208  17.360  0.00  0.00    +0.075 A 
ATOM     14  S1  UNL     1      16.226  37.621  18.157  0.00  0.00    -0.076 S 
ATOM     15  C18 UNL     1      14.847  37.678  17.104  0.00  0.00    +0.102 A 
ATOM     16  N1  UNL     1      14.815  36.722  16.196  0.00  0.00    -0.239 NA
BRANCH  15  17
ATOM     17  C19 UNL     1      13.892  38.723  17.222  0.00  0.00    +0.035 C 
ATOM     18  C20 UNL     1      13.851  39.821  16.447  0.00  0.00    +0.010 C 
BRANCH  18  19
ATOM     19  C21 UNL     1      14.762  40.199  15.356  0.00  0.00    -0.025 A 
ATOM     20  C22 UNL     1      14.838  39.466  14.165  0.00  0.00    +0.008 A 
ATOM     21  C23 UNL     1      15.739  39.831  13.162  0.00  0.00    +0.001 A 
ATOM     22  C24 UNL     1      16.586  40.920  13.348  0.00  0.00    +0.000 A 
ATOM     23  C25 UNL     1      16.533  41.645  14.538  0.00  0.00    +0.001 A 
ATOM     24  C26 UNL     1      15.628  41.284  15.539  0.00  0.00    +0.008 A 
ENDBRANCH  18  19
ENDBRANCH  15  17
ENDBRANCH   5  12
BRANCH  11  25
ATOM     25  O3  UNL     1      15.757  29.276  12.221  0.00  0.00    -0.506 OA
ATOM     26  H17 UNL     1      16.422  29.468  11.540  0.00  0.00    +0.292 HD
ENDBRANCH  11  25
BRANCH   1  27
ATOM     27  C6  UNL     1      14.554  28.760  14.758  0.00  0.00    +0.039 C 
BRANCH  27  28
ATOM     28  C5  UNL     1      15.289  28.161  15.960  0.00  0.00    +0.005 C 
BRANCH  28  29
ATOM     29  C4  UNL     1      15.419  26.641  15.831  0.00  0.00    +0.000 C 
BRANCH  29  30
ATOM     30  C3  UNL     1      14.694  26.126  14.584  0.00  0.00    -0.000 C 
BRANCH  30  32
ATOM     31  C1  UNL     1      15.401  23.892  15.609  0.00  0.00    +0.004 C 
ATOM     32  C2  UNL     1      14.725  24.602  14.447  0.00  0.00    -0.003 C 
ENDBRANCH  30  32
ENDBRANCH  29  30
ENDBRANCH  28  29
ENDBRANCH  27  28
ENDBRANCH   1  27
TORSDOF 9
ENDMDL
MODEL 4
REMARK VINA RESULT:    -3.385      5.464      9.142
REMARK INTER + INTRA:          -7.234
REMARK INTER:                  -5.128
REMARK INTRA:                  -2.106
REMARK UNBOUND:                -2.167
REMARK  Name = /home/vital/Documents/PhD_2021/Malaria_codes/data/pdb_ligands_mmv/ligand_336.pdb
REMARK  10 active torsions:
REMARK  status: ('A' for Active; 'I' for Inactive)
REMARK    1  A    between atoms: C1_1  and  C2_2
REMARK    2  A    between atoms: C2_2  and  C3_3
REMARK    3  A    between atoms: C3_3  and  C4_4
REMARK    4  A    between atoms: C4_4  and  C5_5
REMARK    5  A    between atoms: C5_5  and  C6_6
REMARK    6  A    between atoms: C6_6  and  C7_7
REMARK    7  A    between atoms: C11_11  and  C16_19
REMARK    8  A    between atoms: C15_17  and  O3_18
REMARK    9  A    between atoms: C18_22  and  C19_23
REMARK   10  A    between atoms: C20_24  and  C21_25
REMARK                            x       y       z     vdW  Elec       q    Type
REMARK                         _______ _______ _______ _____ _____    ______ ____
ROOT
ATOM      1  C7  UNL     1      15.226  40.019  15.229  0.00  0.00    -0.005 A 
ATOM      2  C8  UNL     1      16.074  40.659  16.153  0.00  0.00    +0.018 A 
ATOM      3  C9  UNL     1      17.267  41.251  15.733  0.00  0.00    +0.019 A 
ATOM      4  C10 UNL     1      18.147  41.948  16.652  0.00  0.00    +0.028 A 
ATOM      5  C11 UNL     1      19.295  42.503  16.226  0.00  0.00    +0.086 A 
ATOM      6  C12 UNL     1      19.710  42.391  14.798  0.00  0.00    +0.347 A 
ATOM      7  O1  UNL     1      20.789  42.805  14.385  0.00  0.00    -0.244 OA
ATOM      8  O2  UNL     1      18.816  41.757  13.932  0.00  0.00    -0.422 OA
ATOM      9  C13 UNL     1      17.611  41.191  14.388  0.00  0.00    +0.143 A 
ATOM     10  C14 UNL     1      16.795  40.568  13.449  0.00  0.00    +0.092 A 
ATOM     11  C15 UNL     1      15.603  39.988  13.878  0.00  0.00    +0.124 A 
ENDROOT
BRANCH   5  12
ATOM     12  C16 UNL     1      20.143  43.232  17.111  0.00  0.00    +0.086 A 
ATOM     13  C17 UNL     1      21.030  42.672  18.004  0.00  0.00    +0.075 A 
ATOM     14  S1  UNL     1      21.795  43.916  18.898  0.00  0.00    -0.076 S 
ATOM     15  C18 UNL     1      20.851  45.105  18.054  0.00  0.00    +0.102 A 
ATOM     16  N1  UNL     1      20.040  44.607  17.141  0.00  0.00    -0.239 NA
BRANCH  15  17
ATOM     17  C19 UNL     1      21.020  46.488  18.327  0.00  0.00    +0.035 C 
ATOM     18  C20 UNL     1      21.716  47.345  17.561  0.00  0.00    +0.010 C 
BRANCH  18  19
ATOM     19  C21 UNL     1      22.458  47.064  16.323  0.00  0.00    -0.025 A 
ATOM     20  C22 UNL     1      21.829  46.550  15.182  0.00  0.00    +0.008 A 
ATOM     21  C23 UNL     1      22.569  46.261  14.033  0.00  0.00    +0.001 A 
ATOM     22  C24 UNL     1      23.947  46.461  14.020  0.00  0.00    +0.000 A 
ATOM     23  C25 UNL     1      24.586  46.953  15.158  0.00  0.00    +0.001 A 
ATOM     24  C26 UNL     1      23.846  47.249  16.305  0.00  0.00    +0.008 A 
ENDBRANCH  18  19
ENDBRANCH  15  17
ENDBRANCH   5  12
BRANCH  11  25
ATOM     25  O3  UNL     1      14.774  39.376  12.981  0.00  0.00    -0.506 OA
ATOM     26  H17 UNL     1      15.291  38.756  12.440  0.00  0.00    +0.292 HD
ENDBRANCH  11  25
BRANCH   1  27
ATOM     27  C6  UNL     1      13.949  39.372  15.713  0.00  0.00    +0.039 C 
BRANCH  27  28
ATOM     28  C5  UNL     1      14.175  38.508  16.958  0.00  0.00    +0.005 C 
BRANCH  28  29
ATOM     29  C4  UNL     1      14.588  37.084  16.577  0.00  0.00    +0.000 C 
BRANCH  29  30
ATOM     30  C3  UNL     1      15.850  36.652  17.330  0.00  0.00    -0.000 C 
BRANCH  30  32
ATOM     31  C1  UNL     1      17.186  36.593  15.149  0.00  0.00    +0.004 C 
ATOM     32  C2  UNL     1      17.147  37.024  16.607  0.00  0.00    -0.003 C 
ENDBRANCH  30  32
ENDBRANCH  29  30
ENDBRANCH  28  29
ENDBRANCH  27  28
ENDBRANCH   1  27
TORSDOF 9
ENDMDL
MODEL 5
REMARK VINA RESULT:    -3.260      5.678     10.945
REMARK INTER + INTRA:          -7.046
REMARK INTER:                  -5.043
REMARK INTRA:                  -2.003
REMARK UNBOUND:                -2.167
REMARK  Name = /home/vital/Documents/PhD_2021/Malaria_codes/data/pdb_ligands_mmv/ligand_336.pdb
REMARK  10 active torsions:
REMARK  status: ('A' for Active; 'I' for Inactive)
REMARK    1  A    between atoms: C1_1  and  C2_2
REMARK    2  A    between atoms: C2_2  and  C3_3
REMARK    3  A    between atoms: C3_3  and  C4_4
REMARK    4  A    between atoms: C4_4  and  C5_5
REMARK    5  A    between atoms: C5_5  and  C6_6
REMARK    6  A    between atoms: C6_6  and  C7_7
REMARK    7  A    between atoms: C11_11  and  C16_19
REMARK    8  A    between atoms: C15_17  and  O3_18
REMARK    9  A    between atoms: C18_22  and  C19_23
REMARK   10  A    between atoms: C20_24  and  C21_25
REMARK                            x       y       z     vdW  Elec       q    Type
REMARK                         _______ _______ _______ _____ _____    ______ ____
ROOT
ATOM      1  C7  UNL     1      21.337  46.185  18.028  0.00  0.00    -0.005 A 
ATOM      2  C8  UNL     1      20.741  45.044  17.457  0.00  0.00    +0.018 A 
ATOM      3  C9  UNL     1      20.460  43.922  18.241  0.00  0.00    +0.019 A 
ATOM      4  C10 UNL     1      19.815  42.742  17.694  0.00  0.00    +0.028 A 
ATOM      5  C11 UNL     1      19.562  41.671  18.464  0.00  0.00    +0.086 A 
ATOM      6  C12 UNL     1      19.966  41.654  19.900  0.00  0.00    +0.347 A 
ATOM      7  O1  UNL     1      19.835  40.665  20.616  0.00  0.00    -0.244 OA
ATOM      8  O2  UNL     1      20.539  42.823  20.405  0.00  0.00    -0.422 OA
ATOM      9  C13 UNL     1      20.787  43.943  19.591  0.00  0.00    +0.143 A 
ATOM     10  C14 UNL     1      21.375  45.056  20.185  0.00  0.00    +0.092 A 
ATOM     11  C15 UNL     1      21.643  46.173  19.397  0.00  0.00    +0.124 A 
ENDROOT
BRANCH   5  12
ATOM     12  C16 UNL     1      18.886  40.526  17.949  0.00  0.00    +0.086 A 
ATOM     13  C17 UNL     1      19.479  39.319  17.650  0.00  0.00    +0.075 A 
ATOM     14  S1  UNL     1      18.303  38.253  17.007  0.00  0.00    -0.076 S 
ATOM     15  C18 UNL     1      17.102  39.500  17.136  0.00  0.00    +0.102 A 
ATOM     16  N1  UNL     1      17.543  40.629  17.656  0.00  0.00    -0.239 NA
BRANCH  15  17
ATOM     17  C19 UNL     1      15.758  39.250  16.750  0.00  0.00    +0.035 C 
ATOM     18  C20 UNL     1      15.195  39.671  15.604  0.00  0.00    +0.010 C 
BRANCH  18  19
ATOM     19  C21 UNL     1      15.802  40.476  14.533  0.00  0.00    -0.025 A 
ATOM     20  C22 UNL     1      16.052  41.846  14.686  0.00  0.00    +0.008 A 
ATOM     21  C23 UNL     1      16.597  42.589  13.637  0.00  0.00    +0.001 A 
ATOM     22  C24 UNL     1      16.878  41.976  12.419  0.00  0.00    +0.000 A 
ATOM     23  C25 UNL     1      16.613  40.618  12.249  0.00  0.00    +0.001 A 
ATOM     24  C26 UNL     1      16.074  39.872  13.299  0.00  0.00    +0.008 A 
ENDBRANCH  18  19
ENDBRANCH  15  17
ENDBRANCH   5  12
BRANCH  11  25
ATOM     25  O3  UNL     1      22.212  47.285  19.951  0.00  0.00    -0.506 OA
ATOM     26  H17 UNL     1      21.532  47.970  20.062  0.00  0.00    +0.292 HD
ENDBRANCH  11  25
BRANCH   1  27
ATOM     27  C6  UNL     1      21.645  47.379  17.155  0.00  0.00    +0.039 C 
BRANCH  27  28
ATOM     28  C5  UNL     1      22.423  46.989  15.895  0.00  0.00    +0.005 C 
BRANCH  28  29
ATOM     29  C4  UNL     1      23.911  47.319  16.037  0.00  0.00    +0.000 C 
BRANCH  29  30
ATOM     30  C3  UNL     1      24.757  46.045  16.125  0.00  0.00    -0.000 C 
BRANCH  30  32
ATOM     31  C1  UNL     1      25.189  44.975  18.408  0.00  0.00    +0.004 C 
ATOM     32  C2  UNL     1      25.646  45.988  17.369  0.00  0.00    -0.003 C 
ENDBRANCH  30  32
ENDBRANCH  29  30
ENDBRANCH  28  29
ENDBRANCH  27  28
ENDBRANCH   1  27
TORSDOF 9
ENDMDL
MODEL 6
REMARK VINA RESULT:    -3.254      5.809      9.446
REMARK INTER + INTRA:          -7.038
REMARK INTER:                  -4.926
REMARK INTRA:                  -2.112
REMARK UNBOUND:                -2.167
REMARK  Name = /home/vital/Documents/PhD_2021/Malaria_codes/data/pdb_ligands_mmv/ligand_336.pdb
REMARK  10 active torsions:
REMARK  status: ('A' for Active; 'I' for Inactive)
REMARK    1  A    between atoms: C1_1  and  C2_2
REMARK    2  A    between atoms: C2_2  and  C3_3
REMARK    3  A    between atoms: C3_3  and  C4_4
REMARK    4  A    between atoms: C4_4  and  C5_5
REMARK    5  A    between atoms: C5_5  and  C6_6
REMARK    6  A    between atoms: C6_6  and  C7_7
REMARK    7  A    between atoms: C11_11  and  C16_19
REMARK    8  A    between atoms: C15_17  and  O3_18
REMARK    9  A    between atoms: C18_22  and  C19_23
REMARK   10  A    between atoms: C20_24  and  C21_25
REMARK                            x       y       z     vdW  Elec       q    Type
REMARK                         _______ _______ _______ _____ _____    ______ ____
ROOT
ATOM      1  C7  UNL     1      17.266  37.889  17.246  0.00  0.00    -0.005 A 
ATOM      2  C8  UNL     1      17.566  39.086  17.924  0.00  0.00    +0.018 A 
ATOM      3  C9  UNL     1      18.652  39.871  17.533  0.00  0.00    +0.019 A 
ATOM      4  C10 UNL     1      18.971  41.127  18.187  0.00  0.00    +0.028 A 
ATOM      5  C11 UNL     1      20.027  41.862  17.800  0.00  0.00    +0.086 A 
ATOM      6  C12 UNL     1      20.920  41.391  16.702  0.00  0.00    +0.347 A 
ATOM      7  O1  UNL     1      21.944  41.986  16.377  0.00  0.00    -0.244 OA
ATOM      8  O2  UNL     1      20.557  40.204  16.062  0.00  0.00    -0.422 OA
ATOM      9  C13 UNL     1      19.441  39.449  16.470  0.00  0.00    +0.143 A 
ATOM     10  C14 UNL     1      19.170  38.273  15.777  0.00  0.00    +0.092 A 
ATOM     11  C15 UNL     1      18.078  37.501  16.170  0.00  0.00    +0.124 A 
ENDROOT
BRANCH   5  12
ATOM     12  C16 UNL     1      20.320  43.121  18.403  0.00  0.00    +0.086 A 
ATOM     13  C17 UNL     1      21.047  43.298  19.560  0.00  0.00    +0.075 A 
ATOM     14  S1  UNL     1      21.101  44.966  19.944  0.00  0.00    -0.076 S 
ATOM     15  C18 UNL     1      20.115  45.319  18.560  0.00  0.00    +0.102 A 
ATOM     16  N1  UNL     1      19.791  44.262  17.840  0.00  0.00    -0.239 NA
BRANCH  15  17
ATOM     17  C19 UNL     1      19.761  46.658  18.248  0.00  0.00    +0.035 C 
ATOM     18  C20 UNL     1      20.396  47.434  17.352  0.00  0.00    +0.010 C 
BRANCH  18  19
ATOM     19  C21 UNL     1      21.574  47.104  16.535  0.00  0.00    -0.025 A 
ATOM     20  C22 UNL     1      22.876  47.392  16.961  0.00  0.00    +0.008 A 
ATOM     21  C23 UNL     1      23.971  47.098  16.145  0.00  0.00    +0.001 A 
ATOM     22  C24 UNL     1      23.774  46.532  14.888  0.00  0.00    +0.000 A 
ATOM     23  C25 UNL     1      22.480  46.261  14.445  0.00  0.00    +0.001 A 
ATOM     24  C26 UNL     1      21.384  46.549  15.263  0.00  0.00    +0.008 A 
ENDBRANCH  18  19
ENDBRANCH  15  17
ENDBRANCH   5  12
BRANCH  11  25
ATOM     25  O3  UNL     1      17.779  36.345  15.507  0.00  0.00    -0.506 OA
ATOM     26  H17 UNL     1      18.404  35.652  15.775  0.00  0.00    +0.292 HD
ENDBRANCH  11  25
BRANCH   1  27
ATOM     27  C6  UNL     1      16.094  37.050  17.700  0.00  0.00    +0.039 C 
BRANCH  27  28
ATOM     28  C5  UNL     1      14.838  37.307  16.861  0.00  0.00    +0.005 C 
BRANCH  28  29
ATOM     29  C4  UNL     1      14.124  38.585  17.308  0.00  0.00    +0.000 C 
BRANCH  29  30
ATOM     30  C3  UNL     1      13.690  39.428  16.106  0.00  0.00    -0.000 C 
BRANCH  30  32
ATOM     31  C1  UNL     1      15.524  41.013  15.289  0.00  0.00    +0.004 C 
ATOM     32  C2  UNL     1      14.816  39.681  15.100  0.00  0.00    -0.003 C 
ENDBRANCH  30  32
ENDBRANCH  29  30
ENDBRANCH  28  29
ENDBRANCH  27  28
ENDBRANCH   1  27
TORSDOF 9
ENDMDL
MODEL 7
REMARK VINA RESULT:    -3.055     15.616     19.586
REMARK INTER + INTRA:          -6.740
REMARK INTER:                  -4.506
REMARK INTRA:                  -2.234
REMARK UNBOUND:                -2.167
REMARK  Name = /home/vital/Documents/PhD_2021/Malaria_codes/data/pdb_ligands_mmv/ligand_336.pdb
REMARK  10 active torsions:
REMARK  status: ('A' for Active; 'I' for Inactive)
REMARK    1  A    between atoms: C1_1  and  C2_2
REMARK    2  A    between atoms: C2_2  and  C3_3
REMARK    3  A    between atoms: C3_3  and  C4_4
REMARK    4  A    between atoms: C4_4  and  C5_5
REMARK    5  A    between atoms: C5_5  and  C6_6
REMARK    6  A    between atoms: C6_6  and  C7_7
REMARK    7  A    between atoms: C11_11  and  C16_19
REMARK    8  A    between atoms: C15_17  and  O3_18
REMARK    9  A    between atoms: C18_22  and  C19_23
REMARK   10  A    between atoms: C20_24  and  C21_25
REMARK                            x       y       z     vdW  Elec       q    Type
REMARK                         _______ _______ _______ _____ _____    ______ ____
ROOT
ATOM      1  C7  UNL     1      15.927  26.844  18.764  0.00  0.00    -0.005 A 
ATOM      2  C8  UNL     1      15.595  28.052  18.121  0.00  0.00    +0.018 A 
ATOM      3  C9  UNL     1      15.966  29.278  18.678  0.00  0.00    +0.019 A 
ATOM      4  C10 UNL     1      15.671  30.541  18.026  0.00  0.00    +0.028 A 
ATOM      5  C11 UNL     1      16.029  31.710  18.584  0.00  0.00    +0.086 A 
ATOM      6  C12 UNL     1      16.717  31.741  19.907  0.00  0.00    +0.347 A 
ATOM      7  O1  UNL     1      16.982  32.788  20.493  0.00  0.00    -0.244 OA
ATOM      8  O2  UNL     1      17.029  30.508  20.483  0.00  0.00    -0.422 OA
ATOM      9  C13 UNL     1      16.659  29.291  19.882  0.00  0.00    +0.143 A 
ATOM     10  C14 UNL     1      17.004  28.115  20.541  0.00  0.00    +0.092 A 
ATOM     11  C15 UNL     1      16.637  26.896  19.973  0.00  0.00    +0.124 A 
ENDROOT
BRANCH   5  12
ATOM     12  C16 UNL     1      15.787  32.953  17.929  0.00  0.00    +0.086 A 
ATOM     13  C17 UNL     1      14.913  33.924  18.364  0.00  0.00    +0.075 A 
ATOM     14  S1  UNL     1      14.900  35.219  17.243  0.00  0.00    -0.076 S 
ATOM     15  C18 UNL     1      16.032  34.364  16.241  0.00  0.00    +0.102 A 
ATOM     16  N1  UNL     1      16.418  33.200  16.728  0.00  0.00    -0.239 NA
BRANCH  15  17
ATOM     17  C19 UNL     1      16.509  34.942  15.035  0.00  0.00    +0.035 C 
ATOM     18  C20 UNL     1      16.619  34.296  13.862  0.00  0.00    +0.010 C 
BRANCH  18  19
ATOM     19  C21 UNL     1      16.309  32.889  13.564  0.00  0.00    -0.025 A 
ATOM     20  C22 UNL     1      14.993  32.440  13.392  0.00  0.00    +0.008 A 
ATOM     21  C23 UNL     1      14.730  31.091  13.145  0.00  0.00    +0.001 A 
ATOM     22  C24 UNL     1      15.776  30.174  13.089  0.00  0.00    +0.000 A 
ATOM     23  C25 UNL     1      17.088  30.606  13.280  0.00  0.00    +0.001 A 
ATOM     24  C26 UNL     1      17.353  31.957  13.520  0.00  0.00    +0.008 A 
ENDBRANCH  18  19
ENDBRANCH  15  17
ENDBRANCH   5  12
BRANCH  11  25
ATOM     25  O3  UNL     1      16.967  25.723  20.590  0.00  0.00    -0.506 OA
ATOM     26  H17 UNL     1      16.895  25.836  21.552  0.00  0.00    +0.292 HD
ENDBRANCH  11  25
BRANCH   1  27
ATOM     27  C6  UNL     1      15.500  25.532  18.149  0.00  0.00    +0.039 C 
BRANCH  27  28
ATOM     28  C5  UNL     1      16.447  25.080  17.034  0.00  0.00    +0.005 C 
BRANCH  28  29
ATOM     29  C4  UNL     1      15.693  24.858  15.721  0.00  0.00    +0.000 C 
BRANCH  29  30
ATOM     30  C3  UNL     1      15.811  26.075  14.800  0.00  0.00    -0.000 C 
BRANCH  30  32
ATOM     31  C1  UNL     1      13.695  27.476  15.124  0.00  0.00    +0.004 C 
ATOM     32  C2  UNL     1      14.471  26.533  14.218  0.00  0.00    -0.003 C 
ENDBRANCH  30  32
ENDBRANCH  29  30
ENDBRANCH  28  29
ENDBRANCH  27  28
ENDBRANCH   1  27
TORSDOF 9
ENDMDL
MODEL 8
REMARK VINA RESULT:    -2.953      5.353      8.855
REMARK INTER + INTRA:          -6.587
REMARK INTER:                  -4.513
REMARK INTRA:                  -2.074
REMARK UNBOUND:                -2.167
REMARK  Name = /home/vital/Documents/PhD_2021/Malaria_codes/data/pdb_ligands_mmv/ligand_336.pdb
REMARK  10 active torsions:
REMARK  status: ('A' for Active; 'I' for Inactive)
REMARK    1  A    between atoms: C1_1  and  C2_2
REMARK    2  A    between atoms: C2_2  and  C3_3
REMARK    3  A    between atoms: C3_3  and  C4_4
REMARK    4  A    between atoms: C4_4  and  C5_5
REMARK    5  A    between atoms: C5_5  and  C6_6
REMARK    6  A    between atoms: C6_6  and  C7_7
REMARK    7  A    between atoms: C11_11  and  C16_19
REMARK    8  A    between atoms: C15_17  and  O3_18
REMARK    9  A    between atoms: C18_22  and  C19_23
REMARK   10  A    between atoms: C20_24  and  C21_25
REMARK                            x       y       z     vdW  Elec       q    Type
REMARK                         _______ _______ _______ _____ _____    ______ ____
ROOT
ATOM      1  C7  UNL     1      31.837  45.812  16.553  0.00  0.00    -0.005 A 
ATOM      2  C8  UNL     1      32.573  44.789  17.180  0.00  0.00    +0.018 A 
ATOM      3  C9  UNL     1      32.936  43.640  16.474  0.00  0.00    +0.019 A 
ATOM      4  C10 UNL     1      33.724  42.581  17.078  0.00  0.00    +0.028 A 
ATOM      5  C11 UNL     1      34.054  41.480  16.383  0.00  0.00    +0.086 A 
ATOM      6  C12 UNL     1      33.594  41.303  14.975  0.00  0.00    +0.347 A 
ATOM      7  O1  UNL     1      33.798  40.276  14.333  0.00  0.00    -0.244 OA
ATOM      8  O2  UNL     1      32.881  42.362  14.409  0.00  0.00    -0.422 OA
ATOM      9  C13 UNL     1      32.552  43.515  15.144  0.00  0.00    +0.143 A 
ATOM     10  C14 UNL     1      31.826  44.509  14.495  0.00  0.00    +0.092 A 
ATOM     11  C15 UNL     1      31.476  45.656  15.206  0.00  0.00    +0.124 A 
ENDROOT
BRANCH   5  12
ATOM     12  C16 UNL     1      34.868  40.456  16.951  0.00  0.00    +0.086 A 
ATOM     13  C17 UNL     1      34.446  39.526  17.876  0.00  0.00    +0.075 A 
ATOM     14  S1  UNL     1      35.766  38.530  18.321  0.00  0.00    -0.076 S 
ATOM     15  C18 UNL     1      36.809  39.444  17.277  0.00  0.00    +0.102 A 
ATOM     16  N1  UNL     1      36.204  40.412  16.615  0.00  0.00    -0.239 NA
BRANCH  15  17
ATOM     17  C19 UNL     1      38.181  39.100  17.144  0.00  0.00    +0.035 C 
ATOM     18  C20 UNL     1      38.690  38.321  16.175  0.00  0.00    +0.010 C 
BRANCH  18  19
ATOM     19  C21 UNL     1      37.975  37.647  15.079  0.00  0.00    -0.025 A 
ATOM     20  C22 UNL     1      37.739  36.267  15.086  0.00  0.00    +0.008 A 
ATOM     21  C23 UNL     1      37.089  35.652  14.014  0.00  0.00    +0.001 A 
ATOM     22  C24 UNL     1      36.687  36.407  12.915  0.00  0.00    +0.000 A 
ATOM     23  C25 UNL     1      36.936  37.779  12.888  0.00  0.00    +0.001 A 
ATOM     24  C26 UNL     1      37.581  38.396  13.963  0.00  0.00    +0.008 A 
ENDBRANCH  18  19
ENDBRANCH  15  17
ENDBRANCH   5  12
BRANCH  11  25
ATOM     25  O3  UNL     1      30.771  46.655  14.596  0.00  0.00    -0.506 OA
ATOM     26  H17 UNL     1      31.231  47.499  14.732  0.00  0.00    +0.292 HD
ENDBRANCH  11  25
BRANCH   1  27
ATOM     27  C6  UNL     1      31.443  47.038  17.344  0.00  0.00    +0.039 C 
BRANCH  27  28
ATOM     28  C5  UNL     1      31.065  46.697  18.788  0.00  0.00    +0.005 C 
BRANCH  28  29
ATOM     29  C4  UNL     1      29.658  47.196  19.126  0.00  0.00    +0.000 C 
BRANCH  29  30
ATOM     30  C3  UNL     1      28.603  46.526  18.240  0.00  0.00    -0.000 C 
BRANCH  30  32
ATOM     31  C1  UNL     1      28.446  44.175  17.245  0.00  0.00    +0.004 C 
ATOM     32  C2  UNL     1      28.448  45.026  18.505  0.00  0.00    -0.003 C 
ENDBRANCH  30  32
ENDBRANCH  29  30
ENDBRANCH  28  29
ENDBRANCH  27  28
ENDBRANCH   1  27
TORSDOF 9
ENDMDL
MODEL 9
REMARK VINA RESULT:    -2.706     16.126     20.242
REMARK INTER + INTRA:          -6.217
REMARK INTER:                  -4.110
REMARK INTRA:                  -2.108
REMARK UNBOUND:                -2.167
REMARK  Name = /home/vital/Documents/PhD_2021/Malaria_codes/data/pdb_ligands_mmv/ligand_336.pdb
REMARK  10 active torsions:
REMARK  status: ('A' for Active; 'I' for Inactive)
REMARK    1  A    between atoms: C1_1  and  C2_2
REMARK    2  A    between atoms: C2_2  and  C3_3
REMARK    3  A    between atoms: C3_3  and  C4_4
REMARK    4  A    between atoms: C4_4  and  C5_5
REMARK    5  A    between atoms: C5_5  and  C6_6
REMARK    6  A    between atoms: C6_6  and  C7_7
REMARK    7  A    between atoms: C11_11  and  C16_19
REMARK    8  A    between atoms: C15_17  and  O3_18
REMARK    9  A    between atoms: C18_22  and  C19_23
REMARK   10  A    between atoms: C20_24  and  C21_25
REMARK                            x       y       z     vdW  Elec       q    Type
REMARK                         _______ _______ _______ _____ _____    ______ ____
ROOT
ATOM      1  C7  UNL     1      15.441  33.373  19.139  0.00  0.00    -0.005 A 
ATOM      2  C8  UNL     1      16.089  32.163  18.828  0.00  0.00    +0.018 A 
ATOM      3  C9  UNL     1      15.698  30.970  19.440  0.00  0.00    +0.019 A 
ATOM      4  C10 UNL     1      16.320  29.698  19.119  0.00  0.00    +0.028 A 
ATOM      5  C11 UNL     1      15.933  28.564  19.726  0.00  0.00    +0.086 A 
ATOM      6  C12 UNL     1      14.871  28.586  20.773  0.00  0.00    +0.347 A 
ATOM      7  O1  UNL     1      14.549  27.590  21.415  0.00  0.00    -0.244 OA
ATOM      8  O2  UNL     1      14.259  29.818  21.022  0.00  0.00    -0.422 OA
ATOM      9  C13 UNL     1      14.665  30.996  20.369  0.00  0.00    +0.143 A 
ATOM     10  C14 UNL     1      14.003  32.175  20.697  0.00  0.00    +0.092 A 
ATOM     11  C15 UNL     1      14.396  33.359  20.074  0.00  0.00    +0.124 A 
ENDROOT
BRANCH   5  12
ATOM     12  C16 UNL     1      16.504  27.303  19.383  0.00  0.00    +0.086 A 
ATOM     13  C17 UNL     1      17.711  26.825  19.844  0.00  0.00    +0.075 A 
ATOM     14  S1  UNL     1      18.025  25.300  19.131  0.00  0.00    -0.076 S 
ATOM     15  C18 UNL     1      16.546  25.415  18.229  0.00  0.00    +0.102 A 
ATOM     16  N1  UNL     1      15.847  26.508  18.469  0.00  0.00    -0.239 NA
BRANCH  15  17
ATOM     17  C19 UNL     1      16.145  24.365  17.361  0.00  0.00    +0.035 C 
ATOM     18  C20 UNL     1      15.614  24.536  16.138  0.00  0.00    +0.010 C 
BRANCH  18  19
ATOM     19  C21 UNL     1      15.311  25.798  15.446  0.00  0.00    -0.025 A 
ATOM     20  C22 UNL     1      16.305  26.552  14.809  0.00  0.00    +0.008 A 
ATOM     21  C23 UNL     1      15.990  27.764  14.191  0.00  0.00    +0.001 A 
ATOM     22  C24 UNL     1      14.683  28.244  14.220  0.00  0.00    +0.000 A 
ATOM     23  C25 UNL     1      13.690  27.512  14.869  0.00  0.00    +0.001 A 
ATOM     24  C26 UNL     1      14.003  26.297  15.483  0.00  0.00    +0.008 A 
ENDBRANCH  18  19
ENDBRANCH  15  17
ENDBRANCH   5  12
BRANCH  11  25
ATOM     25  O3  UNL     1      13.761  34.533  20.367  0.00  0.00    -0.506 OA
ATOM     26  H17 UNL     1      13.162  34.393  21.118  0.00  0.00    +0.292 HD
ENDBRANCH  11  25
BRANCH   1  27
ATOM     27  C6  UNL     1      15.895  34.652  18.474  0.00  0.00    +0.039 C 
BRANCH  27  28
ATOM     28  C5  UNL     1      15.359  34.784  17.045  0.00  0.00    +0.005 C 
BRANCH  28  29
ATOM     29  C4  UNL     1      16.464  35.208  16.075  0.00  0.00    +0.000 C 
BRANCH  29  30
ATOM     30  C3  UNL     1      16.774  34.098  15.067  0.00  0.00    -0.000 C 
BRANCH  30  32
ATOM     31  C1  UNL     1      16.257  31.592  15.095  0.00  0.00    +0.004 C 
ATOM     32  C2  UNL     1      15.702  33.006  15.013  0.00  0.00    -0.003 C 
ENDBRANCH  30  32
ENDBRANCH  29  30
ENDBRANCH  28  29
ENDBRANCH  27  28
ENDBRANCH   1  27
TORSDOF 9
ENDMDL
