MODEL 1
REMARK VINA RESULT:    -3.583      0.000      0.000
REMARK INTER + INTRA:          -7.356
REMARK INTER:                  -5.363
REMARK INTRA:                  -1.993
REMARK UNBOUND:                -1.993
REMARK  Name = /home/vital/Documents/PhD_2021/Malaria_codes/data/pdb_ligands_mmv/ligand_89.pdb
REMARK  14 active torsions:
REMARK  status: ('A' for Active; 'I' for Inactive)
REMARK    1  A    between atoms: C1_1  and  C2_2
REMARK    2  A    between atoms: C2_2  and  C3_3
REMARK    3  A    between atoms: C2_2  and  C4_4
REMARK    4  A    between atoms: C2_2  and  C5_5
REMARK    5  A    between atoms: C5_5  and  C6_6
REMARK    6  A    between atoms: C6_6  and  C7_7
REMARK    7  A    between atoms: C6_6  and  C8_8
REMARK    8  A    between atoms: C6_6  and  N1_9
REMARK    9  A    between atoms: N1_9  and  C9_10
REMARK   10  A    between atoms: C9_10  and  C10_11
REMARK   11  A    between atoms: C10_11  and  O1_12
REMARK   12  A    between atoms: C10_11  and  C11_13
REMARK   13  A    between atoms: C11_13  and  O2_14
REMARK   14  A    between atoms: O2_14  and  C12_15
REMARK                            x       y       z     vdW  Elec       q    Type
REMARK                         _______ _______ _______ _____ _____    ______ ____
ROOT
ATOM      1  C10 UNL     1      14.909  24.614  16.486  0.00  0.00    +0.166 C 
ENDROOT
BRANCH   1   2
ATOM      2  O1  UNL     1      13.691  24.900  17.198  0.00  0.00    -0.387 OA
ATOM      3  H22 UNL     1      13.652  24.242  17.916  0.00  0.00    +0.210 HD
ENDBRANCH   1   2
BRANCH   1   4
ATOM      4  C9  UNL     1      16.097  25.190  17.286  0.00  0.00    +0.116 C 
BRANCH   4   5
ATOM      5  N1  UNL     1      15.626  26.058  18.381  0.00  0.00    -0.308 NA
ATOM      6  H18 UNL     1      16.083  25.731  19.237  0.00  0.00    +0.123 HD
BRANCH   5   7
ATOM      7  C6  UNL     1      15.926  27.513  18.236  0.00  0.00    +0.014 C 
ATOM      8  C7  UNL     1      16.592  27.898  19.567  0.00  0.00    +0.027 C 
ATOM      9  C8  UNL     1      14.590  28.273  18.127  0.00  0.00    +0.027 C 
BRANCH   7  10
ATOM     10  C5  UNL     1      16.854  27.742  17.001  0.00  0.00    +0.027 C 
BRANCH  10  12
ATOM     11  C1  UNL     1      16.769  30.330  16.926  0.00  0.00    +0.010 C 
ATOM     12  C2  UNL     1      17.627  29.074  16.742  0.00  0.00    -0.036 C 
ATOM     13  C3  UNL     1      18.094  29.041  15.264  0.00  0.00    +0.010 C 
ATOM     14  C4  UNL     1      18.896  29.187  17.608  0.00  0.00    +0.010 C 
ENDBRANCH  10  12
ENDBRANCH   7  10
ENDBRANCH   5   7
ENDBRANCH   4   5
ENDBRANCH   1   4
BRANCH   1  15
ATOM     15  C11 UNL     1      14.845  25.188  15.060  0.00  0.00    +0.261 C 
BRANCH  15  16
ATOM     16  O2  UNL     1      14.013  26.360  15.066  0.00  0.00    -0.489 OA
BRANCH  16  17
ATOM     17  C12 UNL     1      14.470  27.390  14.289  0.00  0.00    +0.121 A 
ATOM     18  C13 UNL     1      15.348  27.193  13.211  0.00  0.00    +0.046 A 
ATOM     19  C14 UNL     1      15.819  28.283  12.472  0.00  0.00    +0.007 A 
ATOM     20  C15 UNL     1      15.430  29.557  12.855  0.00  0.00    -0.044 A 
ATOM     21  C16 UNL     1      15.791  30.864  12.220  0.00  0.00    +0.036 C 
ATOM     22  C17 UNL     1      15.430  31.852  13.341  0.00  0.00    +0.009 C 
ATOM     23  C18 UNL     1      14.289  31.210  14.145  0.00  0.00    +0.036 C 
ATOM     24  C19 UNL     1      14.579  29.754  13.948  0.00  0.00    -0.041 A 
ATOM     25  C20 UNL     1      14.093  28.679  14.676  0.00  0.00    +0.049 A 
ENDBRANCH  16  17
ENDBRANCH  15  16
ENDBRANCH   1  15
TORSDOF 9
ENDMDL
MODEL 2
REMARK VINA RESULT:    -3.423      1.629      2.669
REMARK INTER + INTRA:          -7.117
REMARK INTER:                  -5.400
REMARK INTRA:                  -1.717
REMARK UNBOUND:                -1.993
REMARK  Name = /home/vital/Documents/PhD_2021/Malaria_codes/data/pdb_ligands_mmv/ligand_89.pdb
REMARK  14 active torsions:
REMARK  status: ('A' for Active; 'I' for Inactive)
REMARK    1  A    between atoms: C1_1  and  C2_2
REMARK    2  A    between atoms: C2_2  and  C3_3
REMARK    3  A    between atoms: C2_2  and  C4_4
REMARK    4  A    between atoms: C2_2  and  C5_5
REMARK    5  A    between atoms: C5_5  and  C6_6
REMARK    6  A    between atoms: C6_6  and  C7_7
REMARK    7  A    between atoms: C6_6  and  C8_8
REMARK    8  A    between atoms: C6_6  and  N1_9
REMARK    9  A    between atoms: N1_9  and  C9_10
REMARK   10  A    between atoms: C9_10  and  C10_11
REMARK   11  A    between atoms: C10_11  and  O1_12
REMARK   12  A    between atoms: C10_11  and  C11_13
REMARK   13  A    between atoms: C11_13  and  O2_14
REMARK   14  A    between atoms: O2_14  and  C12_15
REMARK                            x       y       z     vdW  Elec       q    Type
REMARK                         _______ _______ _______ _____ _____    ______ ____
ROOT
ATOM      1  C10 UNL     1      16.159  22.846  17.025  0.00  0.00    +0.166 C 
ENDROOT
BRANCH   1   2
ATOM      2  O1  UNL     1      15.021  22.590  17.869  0.00  0.00    -0.387 OA
ATOM      3  H22 UNL     1      14.891  23.408  18.381  0.00  0.00    +0.210 HD
ENDBRANCH   1   2
BRANCH   1   4
ATOM      4  C9  UNL     1      17.264  23.512  17.871  0.00  0.00    +0.116 C 
BRANCH   4   5
ATOM      5  N1  UNL     1      16.803  24.798  18.426  0.00  0.00    -0.308 NA
ATOM      6  H18 UNL     1      16.531  24.623  19.398  0.00  0.00    +0.123 HD
BRANCH   5   7
ATOM      7  C6  UNL     1      17.806  25.904  18.430  0.00  0.00    +0.014 C 
ATOM      8  C7  UNL     1      19.049  25.291  17.763  0.00  0.00    +0.027 C 
ATOM      9  C8  UNL     1      18.158  26.232  19.894  0.00  0.00    +0.027 C 
BRANCH   7  10
ATOM     10  C5  UNL     1      17.241  27.135  17.654  0.00  0.00    +0.027 C 
BRANCH  10  12
ATOM     11  C1  UNL     1      17.389  29.596  16.859  0.00  0.00    +0.010 C 
ATOM     12  C2  UNL     1      18.139  28.280  17.086  0.00  0.00    -0.036 C 
ATOM     13  C3  UNL     1      18.664  27.798  15.709  0.00  0.00    +0.010 C 
ATOM     14  C4  UNL     1      19.375  28.539  17.968  0.00  0.00    +0.010 C 
ENDBRANCH  10  12
ENDBRANCH   7  10
ENDBRANCH   5   7
ENDBRANCH   4   5
ENDBRANCH   1   4
BRANCH   1  15
ATOM     15  C11 UNL     1      15.751  23.718  15.824  0.00  0.00    +0.261 C 
BRANCH  15  16
ATOM     16  O2  UNL     1      14.498  24.358  16.118  0.00  0.00    -0.489 OA
BRANCH  16  17
ATOM     17  C12 UNL     1      14.463  25.698  15.844  0.00  0.00    +0.121 A 
ATOM     18  C13 UNL     1      13.736  26.611  16.624  0.00  0.00    +0.046 A 
ATOM     19  C14 UNL     1      13.698  27.966  16.280  0.00  0.00    +0.007 A 
ATOM     20  C15 UNL     1      14.361  28.373  15.133  0.00  0.00    -0.044 A 
ATOM     21  C16 UNL     1      14.471  29.757  14.571  0.00  0.00    +0.036 C 
ATOM     22  C17 UNL     1      14.919  29.462  13.131  0.00  0.00    +0.009 C 
ATOM     23  C18 UNL     1      15.707  28.143  13.175  0.00  0.00    +0.036 C 
ATOM     24  C19 UNL     1      15.060  27.458  14.340  0.00  0.00    -0.041 A 
ATOM     25  C20 UNL     1      15.118  26.117  14.682  0.00  0.00    +0.049 A 
ENDBRANCH  16  17
ENDBRANCH  15  16
ENDBRANCH   1  15
TORSDOF 9
ENDMDL
MODEL 3
REMARK VINA RESULT:    -3.418      1.322      2.361
REMARK INTER + INTRA:          -7.110
REMARK INTER:                  -5.417
REMARK INTRA:                  -1.693
REMARK UNBOUND:                -1.993
REMARK  Name = /home/vital/Documents/PhD_2021/Malaria_codes/data/pdb_ligands_mmv/ligand_89.pdb
REMARK  14 active torsions:
REMARK  status: ('A' for Active; 'I' for Inactive)
REMARK    1  A    between atoms: C1_1  and  C2_2
REMARK    2  A    between atoms: C2_2  and  C3_3
REMARK    3  A    between atoms: C2_2  and  C4_4
REMARK    4  A    between atoms: C2_2  and  C5_5
REMARK    5  A    between atoms: C5_5  and  C6_6
REMARK    6  A    between atoms: C6_6  and  C7_7
REMARK    7  A    between atoms: C6_6  and  C8_8
REMARK    8  A    between atoms: C6_6  and  N1_9
REMARK    9  A    between atoms: N1_9  and  C9_10
REMARK   10  A    between atoms: C9_10  and  C10_11
REMARK   11  A    between atoms: C10_11  and  O1_12
REMARK   12  A    between atoms: C10_11  and  C11_13
REMARK   13  A    between atoms: C11_13  and  O2_14
REMARK   14  A    between atoms: O2_14  and  C12_15
REMARK                            x       y       z     vdW  Elec       q    Type
REMARK                         _______ _______ _______ _____ _____    ______ ____
ROOT
ATOM      1  C10 UNL     1      15.571  24.602  16.790  0.00  0.00    +0.166 C 
ENDROOT
BRANCH   1   2
ATOM      2  O1  UNL     1      15.092  23.636  17.744  0.00  0.00    -0.387 OA
ATOM      3  H22 UNL     1      14.791  22.877  17.212  0.00  0.00    +0.210 HD
ENDBRANCH   1   2
BRANCH   1   4
ATOM      4  C9  UNL     1      16.430  25.647  17.533  0.00  0.00    +0.116 C 
BRANCH   4   5
ATOM      5  N1  UNL     1      17.395  26.285  16.618  0.00  0.00    -0.308 NA
ATOM      6  H18 UNL     1      16.900  26.462  15.739  0.00  0.00    +0.123 HD
BRANCH   5   7
ATOM      7  C6  UNL     1      17.972  27.582  17.079  0.00  0.00    +0.014 C 
ATOM      8  C7  UNL     1      18.898  28.016  15.931  0.00  0.00    +0.027 C 
ATOM      9  C8  UNL     1      18.841  27.309  18.322  0.00  0.00    +0.027 C 
BRANCH   7  10
ATOM     10  C5  UNL     1      16.825  28.604  17.356  0.00  0.00    +0.027 C 
BRANCH  10  12
ATOM     11  C1  UNL     1      17.694  30.552  15.887  0.00  0.00    +0.010 C 
ATOM     12  C2  UNL     1      16.988  30.148  17.185  0.00  0.00    -0.036 C 
ATOM     13  C3  UNL     1      17.866  30.639  18.365  0.00  0.00    +0.010 C 
ATOM     14  C4  UNL     1      15.642  30.890  17.292  0.00  0.00    +0.010 C 
ENDBRANCH  10  12
ENDBRANCH   7  10
ENDBRANCH   5   7
ENDBRANCH   4   5
ENDBRANCH   1   4
BRANCH   1  15
ATOM     15  C11 UNL     1      14.392  25.253  16.046  0.00  0.00    +0.261 C 
BRANCH  15  16
ATOM     16  O2  UNL     1      14.840  25.682  14.749  0.00  0.00    -0.489 OA
BRANCH  16  17
ATOM     17  C12 UNL     1      14.757  27.031  14.533  0.00  0.00    +0.121 A 
ATOM     18  C13 UNL     1      13.758  27.830  15.111  0.00  0.00    +0.046 A 
ATOM     19  C14 UNL     1      13.691  29.198  14.827  0.00  0.00    +0.007 A 
ATOM     20  C15 UNL     1      14.608  29.731  13.934  0.00  0.00    -0.044 A 
ATOM     21  C16 UNL     1      14.741  31.153  13.485  0.00  0.00    +0.036 C 
ATOM     22  C17 UNL     1      15.600  30.990  12.221  0.00  0.00    +0.009 C 
ATOM     23  C18 UNL     1      16.464  29.737  12.433  0.00  0.00    +0.036 C 
ATOM     24  C19 UNL     1      15.584  28.927  13.336  0.00  0.00    -0.041 A 
ATOM     25  C20 UNL     1      15.669  27.575  13.625  0.00  0.00    +0.049 A 
ENDBRANCH  16  17
ENDBRANCH  15  16
ENDBRANCH   1  15
TORSDOF 9
ENDMDL
MODEL 4
REMARK VINA RESULT:    -3.399      2.077      3.280
REMARK INTER + INTRA:          -7.081
REMARK INTER:                  -5.225
REMARK INTRA:                  -1.856
REMARK UNBOUND:                -1.993
REMARK  Name = /home/vital/Documents/PhD_2021/Malaria_codes/data/pdb_ligands_mmv/ligand_89.pdb
REMARK  14 active torsions:
REMARK  status: ('A' for Active; 'I' for Inactive)
REMARK    1  A    between atoms: C1_1  and  C2_2
REMARK    2  A    between atoms: C2_2  and  C3_3
REMARK    3  A    between atoms: C2_2  and  C4_4
REMARK    4  A    between atoms: C2_2  and  C5_5
REMARK    5  A    between atoms: C5_5  and  C6_6
REMARK    6  A    between atoms: C6_6  and  C7_7
REMARK    7  A    between atoms: C6_6  and  C8_8
REMARK    8  A    between atoms: C6_6  and  N1_9
REMARK    9  A    between atoms: N1_9  and  C9_10
REMARK   10  A    between atoms: C9_10  and  C10_11
REMARK   11  A    between atoms: C10_11  and  O1_12
REMARK   12  A    between atoms: C10_11  and  C11_13
REMARK   13  A    between atoms: C11_13  and  O2_14
REMARK   14  A    between atoms: O2_14  and  C12_15
REMARK                            x       y       z     vdW  Elec       q    Type
REMARK                         _______ _______ _______ _____ _____    ______ ____
ROOT
ATOM      1  C10 UNL     1      17.169  22.860  17.787  0.00  0.00    +0.166 C 
ENDROOT
BRANCH   1   2
ATOM      2  O1  UNL     1      16.648  23.329  19.044  0.00  0.00    -0.387 OA
ATOM      3  H22 UNL     1      15.687  23.181  18.995  0.00  0.00    +0.210 HD
ENDBRANCH   1   2
BRANCH   1   4
ATOM      4  C9  UNL     1      18.266  23.835  17.310  0.00  0.00    +0.116 C 
BRANCH   4   5
ATOM      5  N1  UNL     1      18.455  24.933  18.277  0.00  0.00    -0.308 NA
ATOM      6  H18 UNL     1      19.265  24.686  18.854  0.00  0.00    +0.123 HD
BRANCH   5   7
ATOM      7  C6  UNL     1      18.712  26.281  17.691  0.00  0.00    +0.014 C 
ATOM      8  C7  UNL     1      20.167  26.593  18.081  0.00  0.00    +0.027 C 
ATOM      9  C8  UNL     1      17.795  27.298  18.398  0.00  0.00    +0.027 C 
BRANCH   7  10
ATOM     10  C5  UNL     1      18.491  26.239  16.146  0.00  0.00    +0.027 C 
BRANCH  10  12
ATOM     11  C1  UNL     1      18.199  27.356  13.828  0.00  0.00    +0.010 C 
ATOM     12  C2  UNL     1      18.907  27.399  15.186  0.00  0.00    -0.036 C 
ATOM     13  C3  UNL     1      20.427  27.242  14.925  0.00  0.00    +0.010 C 
ATOM     14  C4  UNL     1      18.705  28.784  15.828  0.00  0.00    +0.010 C 
ENDBRANCH  10  12
ENDBRANCH   7  10
ENDBRANCH   5   7
ENDBRANCH   4   5
ENDBRANCH   1   4
BRANCH   1  15
ATOM     15  C11 UNL     1      16.037  22.721  16.754  0.00  0.00    +0.261 C 
BRANCH  15  16
ATOM     16  O2  UNL     1      14.973  23.622  17.105  0.00  0.00    -0.489 OA
BRANCH  16  17
ATOM     17  C12 UNL     1      14.865  24.721  16.297  0.00  0.00    +0.121 A 
ATOM     18  C13 UNL     1      14.899  24.637  14.896  0.00  0.00    +0.046 A 
ATOM     19  C14 UNL     1      14.825  25.793  14.114  0.00  0.00    +0.007 A 
ATOM     20  C15 UNL     1      14.757  27.020  14.756  0.00  0.00    -0.044 A 
ATOM     21  C16 UNL     1      14.661  28.382  14.140  0.00  0.00    +0.036 C 
ATOM     22  C17 UNL     1      15.065  29.276  15.324  0.00  0.00    +0.009 C 
ATOM     23  C18 UNL     1      14.651  28.530  16.602  0.00  0.00    +0.036 C 
ATOM     24  C19 UNL     1      14.753  27.105  16.152  0.00  0.00    -0.041 A 
ATOM     25  C20 UNL     1      14.809  25.963  16.936  0.00  0.00    +0.049 A 
ENDBRANCH  16  17
ENDBRANCH  15  16
ENDBRANCH   1  15
TORSDOF 9
ENDMDL
MODEL 5
REMARK VINA RESULT:    -3.078      1.825      4.723
REMARK INTER + INTRA:          -6.601
REMARK INTER:                  -4.669
REMARK INTRA:                  -1.932
REMARK UNBOUND:                -1.993
REMARK  Name = /home/vital/Documents/PhD_2021/Malaria_codes/data/pdb_ligands_mmv/ligand_89.pdb
REMARK  14 active torsions:
REMARK  status: ('A' for Active; 'I' for Inactive)
REMARK    1  A    between atoms: C1_1  and  C2_2
REMARK    2  A    between atoms: C2_2  and  C3_3
REMARK    3  A    between atoms: C2_2  and  C4_4
REMARK    4  A    between atoms: C2_2  and  C5_5
REMARK    5  A    between atoms: C5_5  and  C6_6
REMARK    6  A    between atoms: C6_6  and  C7_7
REMARK    7  A    between atoms: C6_6  and  C8_8
REMARK    8  A    between atoms: C6_6  and  N1_9
REMARK    9  A    between atoms: N1_9  and  C9_10
REMARK   10  A    between atoms: C9_10  and  C10_11
REMARK   11  A    between atoms: C10_11  and  O1_12
REMARK   12  A    between atoms: C10_11  and  C11_13
REMARK   13  A    between atoms: C11_13  and  O2_14
REMARK   14  A    between atoms: O2_14  and  C12_15
REMARK                            x       y       z     vdW  Elec       q    Type
REMARK                         _______ _______ _______ _____ _____    ______ ____
ROOT
ATOM      1  C10 UNL     1      14.720  24.596  15.120  0.00  0.00    +0.166 C 
ENDROOT
BRANCH   1   2
ATOM      2  O1  UNL     1      14.689  23.482  14.208  0.00  0.00    -0.387 OA
ATOM      3  H22 UNL     1      15.449  23.614  13.614  0.00  0.00    +0.210 HD
ENDBRANCH   1   2
BRANCH   1   4
ATOM      4  C9  UNL     1      14.814  25.902  14.303  0.00  0.00    +0.116 C 
BRANCH   4   5
ATOM      5  N1  UNL     1      16.013  26.675  14.678  0.00  0.00    -0.308 NA
ATOM      6  H18 UNL     1      16.669  26.607  13.894  0.00  0.00    +0.123 HD
BRANCH   5   7
ATOM      7  C6  UNL     1      15.793  28.124  14.959  0.00  0.00    +0.014 C 
ATOM      8  C7  UNL     1      14.314  28.211  15.369  0.00  0.00    +0.027 C 
ATOM      9  C8  UNL     1      15.975  28.904  13.642  0.00  0.00    +0.027 C 
BRANCH   7  10
ATOM     10  C5  UNL     1      16.767  28.600  16.083  0.00  0.00    +0.027 C 
BRANCH  10  12
ATOM     11  C1  UNL     1      17.683  30.907  15.343  0.00  0.00    +0.010 C 
ATOM     12  C2  UNL     1      16.991  30.102  16.447  0.00  0.00    -0.036 C 
ATOM     13  C3  UNL     1      17.914  30.128  17.692  0.00  0.00    +0.010 C 
ATOM     14  C4  UNL     1      15.679  30.803  16.850  0.00  0.00    +0.010 C 
ENDBRANCH  10  12
ENDBRANCH   7  10
ENDBRANCH   5   7
ENDBRANCH   4   5
ENDBRANCH   1   4
BRANCH   1  15
ATOM     15  C11 UNL     1      15.891  24.449  16.107  0.00  0.00    +0.261 C 
BRANCH  15  16
ATOM     16  O2  UNL     1      15.370  24.416  17.446  0.00  0.00    -0.489 OA
BRANCH  16  17
ATOM     17  C12 UNL     1      15.599  25.551  18.177  0.00  0.00    +0.121 A 
ATOM     18  C13 UNL     1      16.819  25.801  18.824  0.00  0.00    +0.046 A 
ATOM     19  C14 UNL     1      16.990  26.957  19.593  0.00  0.00    +0.007 A 
ATOM     20  C15 UNL     1      15.915  27.822  19.730  0.00  0.00    -0.044 A 
ATOM     21  C16 UNL     1      15.859  29.114  20.486  0.00  0.00    +0.036 C 
ATOM     22  C17 UNL     1      14.341  29.324  20.609  0.00  0.00    +0.009 C 
ATOM     23  C18 UNL     1      13.701  28.646  19.387  0.00  0.00    +0.036 C 
ATOM     24  C19 UNL     1      14.690  27.556  19.108  0.00  0.00    -0.041 A 
ATOM     25  C20 UNL     1      14.517  26.423  18.330  0.00  0.00    +0.049 A 
ENDBRANCH  16  17
ENDBRANCH  15  16
ENDBRANCH   1  15
TORSDOF 9
ENDMDL
MODEL 6
REMARK VINA RESULT:    -3.014      1.867      4.457
REMARK INTER + INTRA:          -6.504
REMARK INTER:                  -4.787
REMARK INTRA:                  -1.717
REMARK UNBOUND:                -1.993
REMARK  Name = /home/vital/Documents/PhD_2021/Malaria_codes/data/pdb_ligands_mmv/ligand_89.pdb
REMARK  14 active torsions:
REMARK  status: ('A' for Active; 'I' for Inactive)
REMARK    1  A    between atoms: C1_1  and  C2_2
REMARK    2  A    between atoms: C2_2  and  C3_3
REMARK    3  A    between atoms: C2_2  and  C4_4
REMARK    4  A    between atoms: C2_2  and  C5_5
REMARK    5  A    between atoms: C5_5  and  C6_6
REMARK    6  A    between atoms: C6_6  and  C7_7
REMARK    7  A    between atoms: C6_6  and  C8_8
REMARK    8  A    between atoms: C6_6  and  N1_9
REMARK    9  A    between atoms: N1_9  and  C9_10
REMARK   10  A    between atoms: C9_10  and  C10_11
REMARK   11  A    between atoms: C10_11  and  O1_12
REMARK   12  A    between atoms: C10_11  and  C11_13
REMARK   13  A    between atoms: C11_13  and  O2_14
REMARK   14  A    between atoms: O2_14  and  C12_15
REMARK                            x       y       z     vdW  Elec       q    Type
REMARK                         _______ _______ _______ _____ _____    ______ ____
ROOT
ATOM      1  C10 UNL     1      14.721  24.676  15.048  0.00  0.00    +0.166 C 
ENDROOT
BRANCH   1   2
ATOM      2  O1  UNL     1      14.690  23.489  14.234  0.00  0.00    -0.387 OA
ATOM      3  H22 UNL     1      15.211  23.708  13.440  0.00  0.00    +0.210 HD
ENDBRANCH   1   2
BRANCH   1   4
ATOM      4  C9  UNL     1      14.810  25.909  14.125  0.00  0.00    +0.116 C 
BRANCH   4   5
ATOM      5  N1  UNL     1      15.985  26.736  14.458  0.00  0.00    -0.308 NA
ATOM      6  H18 UNL     1      16.730  26.472  13.806  0.00  0.00    +0.123 HD
BRANCH   5   7
ATOM      7  C6  UNL     1      15.794  28.212  14.354  0.00  0.00    +0.014 C 
ATOM      8  C7  UNL     1      14.436  28.468  15.028  0.00  0.00    +0.027 C 
ATOM      9  C8  UNL     1      15.670  28.579  12.863  0.00  0.00    +0.027 C 
BRANCH   7  10
ATOM     10  C5  UNL     1      16.974  28.950  15.062  0.00  0.00    +0.027 C 
BRANCH  10  12
ATOM     11  C1  UNL     1      18.734  27.059  15.249  0.00  0.00    +0.010 C 
ATOM     12  C2  UNL     1      18.470  28.529  14.906  0.00  0.00    -0.036 C 
ATOM     13  C3  UNL     1      19.285  29.394  15.901  0.00  0.00    +0.010 C 
ATOM     14  C4  UNL     1      19.015  28.834  13.498  0.00  0.00    +0.010 C 
ENDBRANCH  10  12
ENDBRANCH   7  10
ENDBRANCH   5   7
ENDBRANCH   4   5
ENDBRANCH   1   4
BRANCH   1  15
ATOM     15  C11 UNL     1      15.894  24.615  16.041  0.00  0.00    +0.261 C 
BRANCH  15  16
ATOM     16  O2  UNL     1      15.373  24.649  17.380  0.00  0.00    -0.489 OA
BRANCH  16  17
ATOM     17  C12 UNL     1      15.153  25.905  17.877  0.00  0.00    +0.121 A 
ATOM     18  C13 UNL     1      13.865  26.409  18.117  0.00  0.00    +0.046 A 
ATOM     19  C14 UNL     1      13.690  27.714  18.587  0.00  0.00    +0.007 A 
ATOM     20  C15 UNL     1      14.815  28.505  18.770  0.00  0.00    -0.044 A 
ATOM     21  C16 UNL     1      14.882  29.915  19.269  0.00  0.00    +0.036 C 
ATOM     22  C17 UNL     1      16.294  30.326  18.820  0.00  0.00    +0.009 C 
ATOM     23  C18 UNL     1      17.140  29.044  18.799  0.00  0.00    +0.036 C 
ATOM     24  C19 UNL     1      16.096  28.011  18.502  0.00  0.00    -0.041 A 
ATOM     25  C20 UNL     1      16.280  26.713  18.053  0.00  0.00    +0.049 A 
ENDBRANCH  16  17
ENDBRANCH  15  16
ENDBRANCH   1  15
TORSDOF 9
ENDMDL
MODEL 7
REMARK VINA RESULT:    -2.994      2.718      5.323
REMARK INTER + INTRA:          -6.476
REMARK INTER:                  -4.290
REMARK INTRA:                  -2.185
REMARK UNBOUND:                -1.993
REMARK  Name = /home/vital/Documents/PhD_2021/Malaria_codes/data/pdb_ligands_mmv/ligand_89.pdb
REMARK  14 active torsions:
REMARK  status: ('A' for Active; 'I' for Inactive)
REMARK    1  A    between atoms: C1_1  and  C2_2
REMARK    2  A    between atoms: C2_2  and  C3_3
REMARK    3  A    between atoms: C2_2  and  C4_4
REMARK    4  A    between atoms: C2_2  and  C5_5
REMARK    5  A    between atoms: C5_5  and  C6_6
REMARK    6  A    between atoms: C6_6  and  C7_7
REMARK    7  A    between atoms: C6_6  and  C8_8
REMARK    8  A    between atoms: C6_6  and  N1_9
REMARK    9  A    between atoms: N1_9  and  C9_10
REMARK   10  A    between atoms: C9_10  and  C10_11
REMARK   11  A    between atoms: C10_11  and  O1_12
REMARK   12  A    between atoms: C10_11  and  C11_13
REMARK   13  A    between atoms: C11_13  and  O2_14
REMARK   14  A    between atoms: O2_14  and  C12_15
REMARK                            x       y       z     vdW  Elec       q    Type
REMARK                         _______ _______ _______ _____ _____    ______ ____
ROOT
ATOM      1  C10 UNL     1      19.745  30.137  17.915  0.00  0.00    +0.166 C 
ENDROOT
BRANCH   1   2
ATOM      2  O1  UNL     1      19.055  30.607  19.088  0.00  0.00    -0.387 OA
ATOM      3  H22 UNL     1      19.339  30.015  19.807  0.00  0.00    +0.210 HD
ENDBRANCH   1   2
BRANCH   1   4
ATOM      4  C9  UNL     1      19.279  30.967  16.700  0.00  0.00    +0.116 C 
BRANCH   4   5
ATOM      5  N1  UNL     1      17.810  31.100  16.682  0.00  0.00    -0.308 NA
ATOM      6  H18 UNL     1      17.581  31.950  17.204  0.00  0.00    +0.123 HD
BRANCH   5   7
ATOM      7  C6  UNL     1      17.182  31.214  15.333  0.00  0.00    +0.014 C 
ATOM      8  C7  UNL     1      18.253  30.677  14.369  0.00  0.00    +0.027 C 
ATOM      9  C8  UNL     1      16.964  32.709  15.027  0.00  0.00    +0.027 C 
BRANCH   7  10
ATOM     10  C5  UNL     1      15.857  30.390  15.293  0.00  0.00    +0.027 C 
BRANCH  10  12
ATOM     11  C1  UNL     1      14.611  31.517  13.321  0.00  0.00    +0.010 C 
ATOM     12  C2  UNL     1      15.000  30.200  14.001  0.00  0.00    -0.036 C 
ATOM     13  C3  UNL     1      13.690  29.492  14.431  0.00  0.00    +0.010 C 
ATOM     14  C4  UNL     1      15.690  29.278  12.977  0.00  0.00    +0.010 C 
ENDBRANCH  10  12
ENDBRANCH   7  10
ENDBRANCH   5   7
ENDBRANCH   4   5
ENDBRANCH   1   4
BRANCH   1  15
ATOM     15  C11 UNL     1      19.497  28.632  17.712  0.00  0.00    +0.261 C 
BRANCH  15  16
ATOM     16  O2  UNL     1      18.118  28.345  17.997  0.00  0.00    -0.489 OA
BRANCH  16  17
ATOM     17  C12 UNL     1      17.470  27.629  17.028  0.00  0.00    +0.121 A 
ATOM     18  C13 UNL     1      18.070  27.298  15.802  0.00  0.00    +0.046 A 
ATOM     19  C14 UNL     1      17.353  26.599  14.827  0.00  0.00    +0.007 A 
ATOM     20  C15 UNL     1      16.029  26.278  15.086  0.00  0.00    -0.044 A 
ATOM     21  C16 UNL     1      15.070  25.533  14.210  0.00  0.00    +0.036 C 
ATOM     22  C17 UNL     1      13.724  25.903  14.854  0.00  0.00    +0.009 C 
ATOM     23  C18 UNL     1      14.003  26.158  16.344  0.00  0.00    +0.036 C 
ATOM     24  C19 UNL     1      15.423  26.635  16.295  0.00  0.00    -0.041 A 
ATOM     25  C20 UNL     1      16.131  27.312  17.275  0.00  0.00    +0.049 A 
ENDBRANCH  16  17
ENDBRANCH  15  16
ENDBRANCH   1  15
TORSDOF 9
ENDMDL
MODEL 8
REMARK VINA RESULT:    -1.214      1.117      1.797
REMARK INTER + INTRA:          -3.811
REMARK INTER:                  -2.304
REMARK INTRA:                  -1.507
REMARK UNBOUND:                -1.993
REMARK  Name = /home/vital/Documents/PhD_2021/Malaria_codes/data/pdb_ligands_mmv/ligand_89.pdb
REMARK  14 active torsions:
REMARK  status: ('A' for Active; 'I' for Inactive)
REMARK    1  A    between atoms: C1_1  and  C2_2
REMARK    2  A    between atoms: C2_2  and  C3_3
REMARK    3  A    between atoms: C2_2  and  C4_4
REMARK    4  A    between atoms: C2_2  and  C5_5
REMARK    5  A    between atoms: C5_5  and  C6_6
REMARK    6  A    between atoms: C6_6  and  C7_7
REMARK    7  A    between atoms: C6_6  and  C8_8
REMARK    8  A    between atoms: C6_6  and  N1_9
REMARK    9  A    between atoms: N1_9  and  C9_10
REMARK   10  A    between atoms: C9_10  and  C10_11
REMARK   11  A    between atoms: C10_11  and  O1_12
REMARK   12  A    between atoms: C10_11  and  C11_13
REMARK   13  A    between atoms: C11_13  and  O2_14
REMARK   14  A    between atoms: O2_14  and  C12_15
REMARK                            x       y       z     vdW  Elec       q    Type
REMARK                         _______ _______ _______ _____ _____    ______ ____
ROOT
ATOM      1  C10 UNL     1      15.808  24.027  16.208  0.00  0.00    +0.166 C 
ENDROOT
BRANCH   1   2
ATOM      2  O1  UNL     1      15.742  22.590  16.258  0.00  0.00    -0.387 OA
ATOM      3  H22 UNL     1      16.578  22.280  15.866  0.00  0.00    +0.210 HD
ENDBRANCH   1   2
BRANCH   1   4
ATOM      4  C9  UNL     1      15.977  24.565  17.645  0.00  0.00    +0.116 C 
BRANCH   4   5
ATOM      5  N1  UNL     1      15.211  25.811  17.837  0.00  0.00    -0.308 NA
ATOM      6  H18 UNL     1      14.521  25.626  18.571  0.00  0.00    +0.123 HD
BRANCH   5   7
ATOM      7  C6  UNL     1      16.002  27.006  18.250  0.00  0.00    +0.014 C 
ATOM      8  C7  UNL     1      16.711  26.564  19.541  0.00  0.00    +0.027 C 
ATOM      9  C8  UNL     1      15.019  28.139  18.604  0.00  0.00    +0.027 C 
BRANCH   7  10
ATOM     10  C5  UNL     1      16.997  27.403  17.114  0.00  0.00    +0.027 C 
BRANCH  10  12
ATOM     11  C1  UNL     1      18.342  29.031  18.615  0.00  0.00    +0.010 C 
ATOM     12  C2  UNL     1      17.934  28.651  17.188  0.00  0.00    -0.036 C 
ATOM     13  C3  UNL     1      17.140  29.843  16.596  0.00  0.00    +0.010 C 
ATOM     14  C4  UNL     1      19.196  28.481  16.321  0.00  0.00    +0.010 C 
ENDBRANCH  10  12
ENDBRANCH   7  10
ENDBRANCH   5   7
ENDBRANCH   4   5
ENDBRANCH   1   4
BRANCH   1  15
ATOM     15  C11 UNL     1      14.554  24.599  15.524  0.00  0.00    +0.261 C 
BRANCH  15  16
ATOM     16  O2  UNL     1      14.945  25.251  14.305  0.00  0.00    -0.489 OA
BRANCH  16  17
ATOM     17  C12 UNL     1      14.822  26.614  14.320  0.00  0.00    +0.121 A 
ATOM     18  C13 UNL     1      13.796  27.275  15.014  0.00  0.00    +0.046 A 
ATOM     19  C14 UNL     1      13.690  28.668  14.966  0.00  0.00    +0.007 A 
ATOM     20  C15 UNL     1      14.595  29.371  14.186  0.00  0.00    -0.044 A 
ATOM     21  C16 UNL     1      14.688  30.852  13.986  0.00  0.00    +0.036 C 
ATOM     22  C17 UNL     1      15.559  30.931  12.722  0.00  0.00    +0.009 C 
ATOM     23  C18 UNL     1      16.459  29.686  12.727  0.00  0.00    +0.036 C 
ATOM     24  C19 UNL     1      15.599  28.709  13.470  0.00  0.00    -0.041 A 
ATOM     25  C20 UNL     1      15.723  27.331  13.526  0.00  0.00    +0.049 A 
ENDBRANCH  16  17
ENDBRANCH  15  16
ENDBRANCH   1  15
TORSDOF 9
ENDMDL
