MODEL 1
REMARK VINA RESULT:    -4.205      0.000      0.000
REMARK INTER + INTRA:          -7.366
REMARK INTER:                  -5.680
REMARK INTRA:                  -1.686
REMARK UNBOUND:                -1.686
REMARK  Name = /home/vital/Documents/PhD_2021/Malaria_codes/data/pdb_ligands_mmv/ligand_85.pdb
REMARK  7 active torsions:
REMARK  status: ('A' for Active; 'I' for Inactive)
REMARK    1  A    between atoms: C1_1  and  C2_2
REMARK    2  A    between atoms: C2_2  and  C3_3
REMARK    3  A    between atoms: C3_3  and  C4_4
REMARK    4  A    between atoms: C4_4  and  C5_5
REMARK    5  A    between atoms: C8_8  and  N1_9
REMARK    6  A    between atoms: N1_9  and  S1_10
REMARK    7  A    between atoms: S1_10  and  C9_13
REMARK                            x       y       z     vdW  Elec       q    Type
REMARK                         _______ _______ _______ _____ _____    ______ ____
ROOT
ATOM      1  S1  UNL     1      15.995  31.585  14.960  0.00  0.00    +0.072 S 
ATOM      2  O1  UNL     1      15.493  32.809  15.549  0.00  0.00    -0.150 OA
ATOM      3  O2  UNL     1      17.143  31.606  14.080  0.00  0.00    -0.150 OA
ENDROOT
BRANCH   1   4
ATOM      4  C9  UNL     1      16.307  30.441  16.286  0.00  0.00    +0.109 A 
ATOM      5  C10 UNL     1      17.459  29.634  16.234  0.00  0.00    +0.034 A 
ATOM      6  C11 UNL     1      17.665  28.746  17.271  0.00  0.00    -0.022 A 
ATOM      7  C12 UNL     1      18.774  27.764  17.508  0.00  0.00    +0.056 C 
ATOM      8  C13 UNL     1      18.289  27.020  18.777  0.00  0.00    +0.118 C 
ATOM      9  N2  UNL     1      17.118  27.753  19.259  0.00  0.00    -0.271 N 
ATOM     10  C14 UNL     1      16.423  27.543  20.420  0.00  0.00    +0.220 C 
ATOM     11  O3  UNL     1      16.688  26.638  21.209  0.00  0.00    -0.275 OA
ATOM     12  C15 UNL     1      15.368  28.601  20.737  0.00  0.00    +0.101 C 
ATOM     13  C16 UNL     1      14.650  29.169  19.507  0.00  0.00    +0.046 C 
ATOM     14  C17 UNL     1      15.602  29.453  18.387  0.00  0.00    -0.023 A 
ATOM     15  C18 UNL     1      15.368  30.341  17.340  0.00  0.00    +0.034 A 
ATOM     16  C19 UNL     1      16.753  28.695  18.314  0.00  0.00    +0.043 A 
ENDBRANCH   1   4
BRANCH   1  17
ATOM     17  N1  UNL     1      14.682  30.877  14.163  0.00  0.00    -0.216 N 
ATOM     18  H12 UNL     1      14.421  31.420  13.342  0.00  0.00    +0.174 HD
BRANCH  17  22
ATOM     19  C5  UNL     1      14.700  26.664  13.892  0.00  0.00    -0.047 A 
ATOM     20  C6  UNL     1      13.778  27.326  14.714  0.00  0.00    +0.005 A 
ATOM     21  C7  UNL     1      13.770  28.719  14.790  0.00  0.00    +0.025 A 
ATOM     22  C8  UNL     1      14.674  29.461  14.034  0.00  0.00    +0.048 A 
ATOM     23  C20 UNL     1      15.582  28.820  13.195  0.00  0.00    +0.025 A 
ATOM     24  C21 UNL     1      15.593  27.425  13.123  0.00  0.00    +0.005 A 
BRANCH  19  25
ATOM     25  C4  UNL     1      14.726  25.157  13.814  0.00  0.00    +0.035 C 
BRANCH  25  26
ATOM     26  C3  UNL     1      14.813  24.423  15.159  0.00  0.00    +0.004 C 
BRANCH  26  28
ATOM     27  C1  UNL     1      15.239  25.309  17.529  0.00  0.00    +0.004 C 
ATOM     28  C2  UNL     1      15.820  25.009  16.155  0.00  0.00    -0.003 C 
ENDBRANCH  26  28
ENDBRANCH  25  26
ENDBRANCH  19  25
ENDBRANCH  17  22
ENDBRANCH   1  17
TORSDOF 6
ENDMDL
MODEL 2
REMARK VINA RESULT:    -4.017      3.053      5.067
REMARK INTER + INTRA:          -7.112
REMARK INTER:                  -5.456
REMARK INTRA:                  -1.656
REMARK UNBOUND:                -1.686
REMARK  Name = /home/vital/Documents/PhD_2021/Malaria_codes/data/pdb_ligands_mmv/ligand_85.pdb
REMARK  7 active torsions:
REMARK  status: ('A' for Active; 'I' for Inactive)
REMARK    1  A    between atoms: C1_1  and  C2_2
REMARK    2  A    between atoms: C2_2  and  C3_3
REMARK    3  A    between atoms: C3_3  and  C4_4
REMARK    4  A    between atoms: C4_4  and  C5_5
REMARK    5  A    between atoms: C8_8  and  N1_9
REMARK    6  A    between atoms: N1_9  and  S1_10
REMARK    7  A    between atoms: S1_10  and  C9_13
REMARK                            x       y       z     vdW  Elec       q    Type
REMARK                         _______ _______ _______ _____ _____    ______ ____
ROOT
ATOM      1  S1  UNL     1      15.031  24.456  16.357  0.00  0.00    +0.072 S 
ATOM      2  O1  UNL     1      15.646  23.155  16.201  0.00  0.00    -0.150 OA
ATOM      3  O2  UNL     1      13.856  24.623  17.184  0.00  0.00    -0.150 OA
ENDROOT
BRANCH   1   4
ATOM      4  C9  UNL     1      16.292  25.581  16.915  0.00  0.00    +0.109 A 
ATOM      5  C10 UNL     1      15.971  26.527  17.907  0.00  0.00    +0.034 A 
ATOM      6  C11 UNL     1      16.968  27.395  18.307  0.00  0.00    -0.022 A 
ATOM      7  C12 UNL     1      16.949  28.499  19.323  0.00  0.00    +0.056 C 
ATOM      8  C13 UNL     1      18.353  29.129  19.150  0.00  0.00    +0.118 C 
ATOM      9  N2  UNL     1      19.095  28.238  18.258  0.00  0.00    -0.271 N 
ATOM     10  C14 UNL     1      20.418  28.317  17.913  0.00  0.00    +0.220 C 
ATOM     11  O3  UNL     1      21.161  29.218  18.296  0.00  0.00    -0.275 OA
ATOM     12  C15 UNL     1      20.945  27.124  17.118  0.00  0.00    +0.101 C 
ATOM     13  C16 UNL     1      19.933  26.517  16.139  0.00  0.00    +0.046 C 
ATOM     14  C17 UNL     1      18.571  26.396  16.748  0.00  0.00    -0.023 A 
ATOM     15  C18 UNL     1      17.574  25.524  16.318  0.00  0.00    +0.034 A 
ATOM     16  C19 UNL     1      18.228  27.294  17.739  0.00  0.00    +0.043 A 
ENDBRANCH   1   4
BRANCH   1  17
ATOM     17  N1  UNL     1      14.708  25.011  14.792  0.00  0.00    -0.216 N 
ATOM     18  H12 UNL     1      13.946  24.482  14.371  0.00  0.00    +0.174 HD
BRANCH  17  22
ATOM     19  C5  UNL     1      14.647  29.172  14.081  0.00  0.00    -0.047 A 
ATOM     20  C6  UNL     1      13.690  28.572  14.910  0.00  0.00    +0.005 A 
ATOM     21  C7  UNL     1      13.723  27.198  15.150  0.00  0.00    +0.025 A 
ATOM     22  C8  UNL     1      14.721  26.416  14.575  0.00  0.00    +0.048 A 
ATOM     23  C20 UNL     1      15.694  27.000  13.767  0.00  0.00    +0.025 A 
ATOM     24  C21 UNL     1      15.658  28.375  13.523  0.00  0.00    +0.005 A 
BRANCH  19  25
ATOM     25  C4  UNL     1      14.612  30.655  13.805  0.00  0.00    +0.035 C 
BRANCH  25  26
ATOM     26  C3  UNL     1      15.738  31.478  14.445  0.00  0.00    +0.004 C 
BRANCH  26  28
ATOM     27  C1  UNL     1      17.631  30.534  15.898  0.00  0.00    +0.004 C 
ATOM     28  C2  UNL     1      16.185  31.000  15.832  0.00  0.00    -0.003 C 
ENDBRANCH  26  28
ENDBRANCH  25  26
ENDBRANCH  19  25
ENDBRANCH  17  22
ENDBRANCH   1  17
TORSDOF 6
ENDMDL
MODEL 3
REMARK VINA RESULT:    -3.884      2.864      4.791
REMARK INTER + INTRA:          -6.933
REMARK INTER:                  -5.392
REMARK INTRA:                  -1.541
REMARK UNBOUND:                -1.686
REMARK  Name = /home/vital/Documents/PhD_2021/Malaria_codes/data/pdb_ligands_mmv/ligand_85.pdb
REMARK  7 active torsions:
REMARK  status: ('A' for Active; 'I' for Inactive)
REMARK    1  A    between atoms: C1_1  and  C2_2
REMARK    2  A    between atoms: C2_2  and  C3_3
REMARK    3  A    between atoms: C3_3  and  C4_4
REMARK    4  A    between atoms: C4_4  and  C5_5
REMARK    5  A    between atoms: C8_8  and  N1_9
REMARK    6  A    between atoms: N1_9  and  S1_10
REMARK    7  A    between atoms: S1_10  and  C9_13
REMARK                            x       y       z     vdW  Elec       q    Type
REMARK                         _______ _______ _______ _____ _____    ______ ____
ROOT
ATOM      1  S1  UNL     1      14.633  25.471  16.389  0.00  0.00    +0.072 S 
ATOM      2  O1  UNL     1      15.819  24.972  15.723  0.00  0.00    -0.150 OA
ATOM      3  O2  UNL     1      13.807  24.588  17.184  0.00  0.00    -0.150 OA
ENDROOT
BRANCH   1   4
ATOM      4  C9  UNL     1      15.125  26.856  17.391  0.00  0.00    +0.109 A 
ATOM      5  C10 UNL     1      14.217  27.371  18.336  0.00  0.00    +0.034 A 
ATOM      6  C11 UNL     1      14.624  28.456  19.087  0.00  0.00    -0.022 A 
ATOM      7  C12 UNL     1      13.906  29.225  20.157  0.00  0.00    +0.056 C 
ATOM      8  C13 UNL     1      14.897  30.377  20.456  0.00  0.00    +0.118 C 
ATOM      9  N2  UNL     1      16.127  30.055  19.732  0.00  0.00    -0.271 N 
ATOM     10  C14 UNL     1      17.325  30.717  19.790  0.00  0.00    +0.220 C 
ATOM     11  O3  UNL     1      17.500  31.736  20.456  0.00  0.00    -0.275 OA
ATOM     12  C15 UNL     1      18.478  30.022  19.069  0.00  0.00    +0.101 C 
ATOM     13  C16 UNL     1      18.071  29.285  17.787  0.00  0.00    +0.046 C 
ATOM     14  C17 UNL     1      16.800  28.515  17.965  0.00  0.00    -0.023 A 
ATOM     15  C18 UNL     1      16.401  27.433  17.185  0.00  0.00    +0.034 A 
ATOM     16  C19 UNL     1      15.894  28.978  18.898  0.00  0.00    +0.043 A 
ENDBRANCH   1   4
BRANCH   1  17
ATOM     17  N1  UNL     1      13.693  26.200  15.187  0.00  0.00    -0.216 N 
ATOM     18  H12 UNL     1      12.712  26.220  15.458  0.00  0.00    +0.174 HD
BRANCH  17  22
ATOM     19  C5  UNL     1      15.346  29.635  13.373  0.00  0.00    -0.047 A 
ATOM     20  C6  UNL     1      15.848  28.359  13.084  0.00  0.00    +0.005 A 
ATOM     21  C7  UNL     1      15.290  27.227  13.678  0.00  0.00    +0.025 A 
ATOM     22  C8  UNL     1      14.216  27.361  14.555  0.00  0.00    +0.048 A 
ATOM     23  C20 UNL     1      13.690  28.620  14.835  0.00  0.00    +0.025 A 
ATOM     24  C21 UNL     1      14.253  29.753  14.244  0.00  0.00    +0.005 A 
BRANCH  19  25
ATOM     25  C4  UNL     1      15.953  30.866  12.746  0.00  0.00    +0.035 C 
BRANCH  25  26
ATOM     26  C3  UNL     1      17.316  31.294  13.305  0.00  0.00    +0.004 C 
BRANCH  26  28
ATOM     27  C1  UNL     1      16.929  32.138  15.697  0.00  0.00    +0.004 C 
ATOM     28  C2  UNL     1      17.509  31.050  14.807  0.00  0.00    -0.003 C 
ENDBRANCH  26  28
ENDBRANCH  25  26
ENDBRANCH  19  25
ENDBRANCH  17  22
ENDBRANCH   1  17
TORSDOF 6
ENDMDL
MODEL 4
REMARK VINA RESULT:    -3.880      0.572      2.001
REMARK INTER + INTRA:          -6.926
REMARK INTER:                  -5.118
REMARK INTRA:                  -1.808
REMARK UNBOUND:                -1.686
REMARK  Name = /home/vital/Documents/PhD_2021/Malaria_codes/data/pdb_ligands_mmv/ligand_85.pdb
REMARK  7 active torsions:
REMARK  status: ('A' for Active; 'I' for Inactive)
REMARK    1  A    between atoms: C1_1  and  C2_2
REMARK    2  A    between atoms: C2_2  and  C3_3
REMARK    3  A    between atoms: C3_3  and  C4_4
REMARK    4  A    between atoms: C4_4  and  C5_5
REMARK    5  A    between atoms: C8_8  and  N1_9
REMARK    6  A    between atoms: N1_9  and  S1_10
REMARK    7  A    between atoms: S1_10  and  C9_13
REMARK                            x       y       z     vdW  Elec       q    Type
REMARK                         _______ _______ _______ _____ _____    ______ ____
ROOT
ATOM      1  S1  UNL     1      16.173  31.624  14.608  0.00  0.00    +0.072 S 
ATOM      2  O1  UNL     1      15.748  32.948  15.014  0.00  0.00    -0.150 OA
ATOM      3  O2  UNL     1      17.322  31.449  13.748  0.00  0.00    -0.150 OA
ENDROOT
BRANCH   1   4
ATOM      4  C9  UNL     1      16.407  30.662  16.086  0.00  0.00    +0.109 A 
ATOM      5  C10 UNL     1      15.495  30.810  17.148  0.00  0.00    +0.034 A 
ATOM      6  C11 UNL     1      15.713  30.059  18.287  0.00  0.00    -0.022 A 
ATOM      7  C12 UNL     1      14.940  29.988  19.570  0.00  0.00    +0.056 C 
ATOM      8  C13 UNL     1      15.826  29.059  20.437  0.00  0.00    +0.118 C 
ATOM      9  N2  UNL     1      16.856  28.528  19.545  0.00  0.00    -0.271 N 
ATOM     10  C14 UNL     1      17.793  27.570  19.831  0.00  0.00    +0.220 C 
ATOM     11  O3  UNL     1      17.910  27.053  20.940  0.00  0.00    -0.275 OA
ATOM     12  C15 UNL     1      18.603  27.087  18.630  0.00  0.00    +0.101 C 
ATOM     13  C16 UNL     1      18.912  28.174  17.594  0.00  0.00    +0.046 C 
ATOM     14  C17 UNL     1      17.722  29.041  17.324  0.00  0.00    -0.023 A 
ATOM     15  C18 UNL     1      17.528  29.803  16.174  0.00  0.00    +0.034 A 
ATOM     16  C19 UNL     1      16.795  29.193  18.335  0.00  0.00    +0.043 A 
ENDBRANCH   1   4
BRANCH   1  17
ATOM     17  N1  UNL     1      14.819  30.894  13.904  0.00  0.00    -0.216 N 
ATOM     18  H12 UNL     1      14.557  31.372  13.043  0.00  0.00    +0.174 HD
BRANCH  17  22
ATOM     19  C5  UNL     1      14.689  26.676  14.011  0.00  0.00    -0.047 A 
ATOM     20  C6  UNL     1      13.781  27.441  14.756  0.00  0.00    +0.005 A 
ATOM     21  C7  UNL     1      13.822  28.835  14.707  0.00  0.00    +0.025 A 
ATOM     22  C8  UNL     1      14.762  29.474  13.902  0.00  0.00    +0.048 A 
ATOM     23  C20 UNL     1      15.657  28.729  13.138  0.00  0.00    +0.025 A 
ATOM     24  C21 UNL     1      15.618  27.334  13.192  0.00  0.00    +0.005 A 
BRANCH  19  25
ATOM     25  C4  UNL     1      14.661  25.169  14.068  0.00  0.00    +0.035 C 
BRANCH  25  26
ATOM     26  C3  UNL     1      14.661  24.557  15.476  0.00  0.00    +0.004 C 
BRANCH  26  28
ATOM     27  C1  UNL     1      15.323  25.770  17.638  0.00  0.00    +0.004 C 
ATOM     28  C2  UNL     1      15.794  25.034  16.392  0.00  0.00    -0.003 C 
ENDBRANCH  26  28
ENDBRANCH  25  26
ENDBRANCH  19  25
ENDBRANCH  17  22
ENDBRANCH   1  17
TORSDOF 6
ENDMDL
MODEL 5
REMARK VINA RESULT:    -3.847      2.296      4.200
REMARK INTER + INTRA:          -6.882
REMARK INTER:                  -5.172
REMARK INTRA:                  -1.710
REMARK UNBOUND:                -1.686
REMARK  Name = /home/vital/Documents/PhD_2021/Malaria_codes/data/pdb_ligands_mmv/ligand_85.pdb
REMARK  7 active torsions:
REMARK  status: ('A' for Active; 'I' for Inactive)
REMARK    1  A    between atoms: C1_1  and  C2_2
REMARK    2  A    between atoms: C2_2  and  C3_3
REMARK    3  A    between atoms: C3_3  and  C4_4
REMARK    4  A    between atoms: C4_4  and  C5_5
REMARK    5  A    between atoms: C8_8  and  N1_9
REMARK    6  A    between atoms: N1_9  and  S1_10
REMARK    7  A    between atoms: S1_10  and  C9_13
REMARK                            x       y       z     vdW  Elec       q    Type
REMARK                         _______ _______ _______ _____ _____    ______ ____
ROOT
ATOM      1  S1  UNL     1      15.719  31.612  13.979  0.00  0.00    +0.072 S 
ATOM      2  O1  UNL     1      14.841  31.889  12.861  0.00  0.00    -0.150 OA
ATOM      3  O2  UNL     1      15.812  32.533  15.091  0.00  0.00    -0.150 OA
ENDROOT
BRANCH   1   4
ATOM      4  C9  UNL     1      15.300  29.999  14.601  0.00  0.00    +0.109 A 
ATOM      5  C10 UNL     1      15.094  28.948  13.687  0.00  0.00    +0.034 A 
ATOM      6  C11 UNL     1      14.756  27.712  14.201  0.00  0.00    -0.022 A 
ATOM      7  C12 UNL     1      14.475  26.412  13.507  0.00  0.00    +0.056 C 
ATOM      8  C13 UNL     1      14.034  25.501  14.680  0.00  0.00    +0.118 C 
ATOM      9  N2  UNL     1      14.304  26.253  15.905  0.00  0.00    -0.271 N 
ATOM     10  C14 UNL     1      14.191  25.811  17.196  0.00  0.00    +0.220 C 
ATOM     11  O3  UNL     1      13.786  24.688  17.490  0.00  0.00    -0.275 OA
ATOM     12  C15 UNL     1      14.734  26.771  18.253  0.00  0.00    +0.101 C 
ATOM     13  C16 UNL     1      14.521  28.255  17.931  0.00  0.00    +0.046 C 
ATOM     14  C17 UNL     1      14.819  28.563  16.497  0.00  0.00    -0.023 A 
ATOM     15  C18 UNL     1      15.143  29.821  15.996  0.00  0.00    +0.034 A 
ATOM     16  C19 UNL     1      14.648  27.551  15.574  0.00  0.00    +0.043 A 
ENDBRANCH   1   4
BRANCH   1  17
ATOM     17  N1  UNL     1      17.256  31.364  13.317  0.00  0.00    -0.216 N 
ATOM     18  H12 UNL     1      17.660  32.244  13.002  0.00  0.00    +0.174 HD
BRANCH  17  22
ATOM     19  C5  UNL     1      19.916  28.741  15.284  0.00  0.00    -0.047 A 
ATOM     20  C6  UNL     1      19.462  29.908  15.914  0.00  0.00    +0.005 A 
ATOM     21  C7  UNL     1      18.575  30.765  15.262  0.00  0.00    +0.025 A 
ATOM     22  C8  UNL     1      18.122  30.454  13.982  0.00  0.00    +0.048 A 
ATOM     23  C20 UNL     1      18.544  29.286  13.351  0.00  0.00    +0.025 A 
ATOM     24  C21 UNL     1      19.437  28.432  14.002  0.00  0.00    +0.005 A 
BRANCH  19  25
ATOM     25  C4  UNL     1      20.887  27.815  15.975  0.00  0.00    +0.035 C 
BRANCH  25  26
ATOM     26  C3  UNL     1      20.354  26.412  16.293  0.00  0.00    +0.004 C 
BRANCH  26  28
ATOM     27  C1  UNL     1      17.866  25.795  16.184  0.00  0.00    +0.004 C 
ATOM     28  C2  UNL     1      19.001  26.377  17.013  0.00  0.00    -0.003 C 
ENDBRANCH  26  28
ENDBRANCH  25  26
ENDBRANCH  19  25
ENDBRANCH  17  22
ENDBRANCH   1  17
TORSDOF 6
ENDMDL
MODEL 6
REMARK VINA RESULT:    -3.759      2.805      6.026
REMARK INTER + INTRA:          -6.764
REMARK INTER:                  -5.234
REMARK INTRA:                  -1.530
REMARK UNBOUND:                -1.686
REMARK  Name = /home/vital/Documents/PhD_2021/Malaria_codes/data/pdb_ligands_mmv/ligand_85.pdb
REMARK  7 active torsions:
REMARK  status: ('A' for Active; 'I' for Inactive)
REMARK    1  A    between atoms: C1_1  and  C2_2
REMARK    2  A    between atoms: C2_2  and  C3_3
REMARK    3  A    between atoms: C3_3  and  C4_4
REMARK    4  A    between atoms: C4_4  and  C5_5
REMARK    5  A    between atoms: C8_8  and  N1_9
REMARK    6  A    between atoms: N1_9  and  S1_10
REMARK    7  A    between atoms: S1_10  and  C9_13
REMARK                            x       y       z     vdW  Elec       q    Type
REMARK                         _______ _______ _______ _____ _____    ______ ____
ROOT
ATOM      1  S1  UNL     1      15.537  24.619  15.787  0.00  0.00    +0.072 S 
ATOM      2  O1  UNL     1      14.671  24.085  14.755  0.00  0.00    -0.150 OA
ATOM      3  O2  UNL     1      16.770  23.947  16.136  0.00  0.00    -0.150 OA
ENDROOT
BRANCH   1   4
ATOM      4  C9  UNL     1      15.901  26.307  15.359  0.00  0.00    +0.109 A 
ATOM      5  C10 UNL     1      17.238  26.746  15.397  0.00  0.00    +0.034 A 
ATOM      6  C11 UNL     1      17.486  28.066  15.074  0.00  0.00    -0.022 A 
ATOM      7  C12 UNL     1      18.776  28.830  15.020  0.00  0.00    +0.056 C 
ATOM      8  C13 UNL     1      18.292  30.271  14.724  0.00  0.00    +0.118 C 
ATOM      9  N2  UNL     1      16.863  30.170  14.427  0.00  0.00    -0.271 N 
ATOM     10  C14 UNL     1      16.031  31.165  13.988  0.00  0.00    +0.220 C 
ATOM     11  O3  UNL     1      16.397  32.328  13.829  0.00  0.00    -0.275 OA
ATOM     12  C15 UNL     1      14.635  30.700  13.579  0.00  0.00    +0.101 C 
ATOM     13  C16 UNL     1      14.074  29.552  14.427  0.00  0.00    +0.046 C 
ATOM     14  C17 UNL     1      15.106  28.500  14.692  0.00  0.00    -0.023 A 
ATOM     15  C18 UNL     1      14.834  27.177  15.032  0.00  0.00    +0.034 A 
ATOM     16  C19 UNL     1      16.430  28.889  14.716  0.00  0.00    +0.043 A 
ENDBRANCH   1   4
BRANCH   1  17
ATOM     17  N1  UNL     1      14.572  24.788  17.166  0.00  0.00    -0.216 N 
ATOM     18  H12 UNL     1      14.328  23.877  17.551  0.00  0.00    +0.174 HD
BRANCH  17  22
ATOM     19  C5  UNL     1      15.599  27.908  19.818  0.00  0.00    -0.047 A 
ATOM     20  C6  UNL     1      14.352  27.891  19.178  0.00  0.00    +0.005 A 
ATOM     21  C7  UNL     1      14.015  26.851  18.311  0.00  0.00    +0.025 A 
ATOM     22  C8  UNL     1      14.915  25.812  18.089  0.00  0.00    +0.048 A 
ATOM     23  C20 UNL     1      16.149  25.801  18.736  0.00  0.00    +0.025 A 
ATOM     24  C21 UNL     1      16.488  26.845  19.599  0.00  0.00    +0.005 A 
BRANCH  19  25
ATOM     25  C4  UNL     1      15.978  29.035  20.746  0.00  0.00    +0.035 C 
BRANCH  25  26
ATOM     26  C3  UNL     1      16.679  30.231  20.087  0.00  0.00    +0.004 C 
BRANCH  26  28
ATOM     27  C1  UNL     1      15.625  31.119  17.923  0.00  0.00    +0.004 C 
ATOM     28  C2  UNL     1      16.678  30.221  18.554  0.00  0.00    -0.003 C 
ENDBRANCH  26  28
ENDBRANCH  25  26
ENDBRANCH  19  25
ENDBRANCH  17  22
ENDBRANCH   1  17
TORSDOF 6
ENDMDL
MODEL 7
REMARK VINA RESULT:    -3.509      2.208      4.183
REMARK INTER + INTRA:          -6.426
REMARK INTER:                  -4.888
REMARK INTRA:                  -1.537
REMARK UNBOUND:                -1.686
REMARK  Name = /home/vital/Documents/PhD_2021/Malaria_codes/data/pdb_ligands_mmv/ligand_85.pdb
REMARK  7 active torsions:
REMARK  status: ('A' for Active; 'I' for Inactive)
REMARK    1  A    between atoms: C1_1  and  C2_2
REMARK    2  A    between atoms: C2_2  and  C3_3
REMARK    3  A    between atoms: C3_3  and  C4_4
REMARK    4  A    between atoms: C4_4  and  C5_5
REMARK    5  A    between atoms: C8_8  and  N1_9
REMARK    6  A    between atoms: N1_9  and  S1_10
REMARK    7  A    between atoms: S1_10  and  C9_13
REMARK                            x       y       z     vdW  Elec       q    Type
REMARK                         _______ _______ _______ _____ _____    ______ ____
ROOT
ATOM      1  S1  UNL     1      15.862  31.781  14.156  0.00  0.00    +0.072 S 
ATOM      2  O1  UNL     1      14.922  31.937  13.066  0.00  0.00    -0.150 OA
ATOM      3  O2  UNL     1      16.019  32.821  15.149  0.00  0.00    -0.150 OA
ENDROOT
BRANCH   1   4
ATOM      4  C9  UNL     1      15.477  30.252  14.980  0.00  0.00    +0.109 A 
ATOM      5  C10 UNL     1      15.593  30.185  16.382  0.00  0.00    +0.034 A 
ATOM      6  C11 UNL     1      15.301  28.980  16.989  0.00  0.00    -0.022 A 
ATOM      7  C12 UNL     1      15.327  28.586  18.437  0.00  0.00    +0.056 C 
ATOM      8  C13 UNL     1      15.025  27.069  18.371  0.00  0.00    +0.118 C 
ATOM      9  N2  UNL     1      14.649  26.786  16.986  0.00  0.00    -0.271 N 
ATOM     10  C14 UNL     1      14.180  25.606  16.474  0.00  0.00    +0.220 C 
ATOM     11  O3  UNL     1      14.057  24.583  17.144  0.00  0.00    -0.275 OA
ATOM     12  C15 UNL     1      13.690  25.683  15.029  0.00  0.00    +0.101 C 
ATOM     13  C16 UNL     1      14.491  26.639  14.137  0.00  0.00    +0.046 C 
ATOM     14  C17 UNL     1      14.797  27.927  14.836  0.00  0.00    -0.023 A 
ATOM     15  C18 UNL     1      15.105  29.130  14.203  0.00  0.00    +0.034 A 
ATOM     16  C19 UNL     1      14.898  27.905  16.212  0.00  0.00    +0.043 A 
ENDBRANCH   1   4
BRANCH   1  17
ATOM     17  N1  UNL     1      17.358  31.448  13.441  0.00  0.00    -0.216 N 
ATOM     18  H12 UNL     1      17.827  32.310  13.165  0.00  0.00    +0.174 HD
BRANCH  17  22
ATOM     19  C5  UNL     1      19.835  28.498  15.167  0.00  0.00    -0.047 A 
ATOM     20  C6  UNL     1      19.636  29.731  15.804  0.00  0.00    +0.005 A 
ATOM     21  C7  UNL     1      18.808  30.697  15.233  0.00  0.00    +0.025 A 
ATOM     22  C8  UNL     1      18.159  30.433  14.029  0.00  0.00    +0.048 A 
ATOM     23  C20 UNL     1      18.327  29.204  13.395  0.00  0.00    +0.025 A 
ATOM     24  C21 UNL     1      19.161  28.239  13.964  0.00  0.00    +0.005 A 
BRANCH  19  25
ATOM     25  C4  UNL     1      20.741  27.452  15.769  0.00  0.00    +0.035 C 
BRANCH  25  26
ATOM     26  C3  UNL     1      20.113  26.581  16.865  0.00  0.00    +0.004 C 
BRANCH  26  28
ATOM     27  C1  UNL     1      17.860  25.546  16.204  0.00  0.00    +0.004 C 
ATOM     28  C2  UNL     1      18.584  26.653  16.957  0.00  0.00    -0.003 C 
ENDBRANCH  26  28
ENDBRANCH  25  26
ENDBRANCH  19  25
ENDBRANCH  17  22
ENDBRANCH   1  17
TORSDOF 6
ENDMDL
MODEL 8
REMARK VINA RESULT:    -3.362      4.387      7.283
REMARK INTER + INTRA:          -6.227
REMARK INTER:                  -5.370
REMARK INTRA:                  -0.857
REMARK UNBOUND:                -1.686
REMARK  Name = /home/vital/Documents/PhD_2021/Malaria_codes/data/pdb_ligands_mmv/ligand_85.pdb
REMARK  7 active torsions:
REMARK  status: ('A' for Active; 'I' for Inactive)
REMARK    1  A    between atoms: C1_1  and  C2_2
REMARK    2  A    between atoms: C2_2  and  C3_3
REMARK    3  A    between atoms: C3_3  and  C4_4
REMARK    4  A    between atoms: C4_4  and  C5_5
REMARK    5  A    between atoms: C8_8  and  N1_9
REMARK    6  A    between atoms: N1_9  and  S1_10
REMARK    7  A    between atoms: S1_10  and  C9_13
REMARK                            x       y       z     vdW  Elec       q    Type
REMARK                         _______ _______ _______ _____ _____    ______ ____
ROOT
ATOM      1  S1  UNL     1      15.986  31.786  14.275  0.00  0.00    +0.072 S 
ATOM      2  O1  UNL     1      16.894  31.464  13.193  0.00  0.00    -0.150 OA
ATOM      3  O2  UNL     1      14.770  32.527  14.022  0.00  0.00    -0.150 OA
ENDROOT
BRANCH   1   4
ATOM      4  C9  UNL     1      15.572  30.263  15.097  0.00  0.00    +0.109 A 
ATOM      5  C10 UNL     1      15.682  30.193  16.499  0.00  0.00    +0.034 A 
ATOM      6  C11 UNL     1      15.367  28.994  17.105  0.00  0.00    -0.022 A 
ATOM      7  C12 UNL     1      15.381  28.600  18.553  0.00  0.00    +0.056 C 
ATOM      8  C13 UNL     1      15.053  27.088  18.486  0.00  0.00    +0.118 C 
ATOM      9  N2  UNL     1      14.678  26.812  17.099  0.00  0.00    -0.271 N 
ATOM     10  C14 UNL     1      14.190  25.639  16.585  0.00  0.00    +0.220 C 
ATOM     11  O3  UNL     1      14.047  24.618  17.255  0.00  0.00    -0.275 OA
ATOM     12  C15 UNL     1      13.707  25.725  15.139  0.00  0.00    +0.101 C 
ATOM     13  C16 UNL     1      14.527  26.667  14.250  0.00  0.00    +0.046 C 
ATOM     14  C17 UNL     1      14.853  27.950  14.950  0.00  0.00    -0.023 A 
ATOM     15  C18 UNL     1      15.183  29.147  14.319  0.00  0.00    +0.034 A 
ATOM     16  C19 UNL     1      14.948  27.926  16.326  0.00  0.00    +0.043 A 
ENDBRANCH   1   4
BRANCH   1  17
ATOM     17  N1  UNL     1      16.911  32.593  15.438  0.00  0.00    -0.216 N 
ATOM     18  H12 UNL     1      17.905  32.502  15.236  0.00  0.00    +0.174 HD
BRANCH  17  22
ATOM     19  C5  UNL     1      15.657  36.389  16.794  0.00  0.00    -0.047 A 
ATOM     20  C6  UNL     1      16.533  36.269  15.706  0.00  0.00    +0.005 A 
ATOM     21  C7  UNL     1      16.934  35.011  15.256  0.00  0.00    +0.025 A 
ATOM     22  C8  UNL     1      16.452  33.863  15.881  0.00  0.00    +0.048 A 
ATOM     23  C20 UNL     1      15.563  33.964  16.948  0.00  0.00    +0.025 A 
ATOM     24  C21 UNL     1      15.166  35.224  17.402  0.00  0.00    +0.005 A 
BRANCH  19  25
ATOM     25  C4  UNL     1      15.228  37.745  17.297  0.00  0.00    +0.035 C 
BRANCH  25  26
ATOM     26  C3  UNL     1      15.604  38.935  16.403  0.00  0.00    +0.004 C 
BRANCH  26  28
ATOM     27  C1  UNL     1      14.687  39.587  14.097  0.00  0.00    +0.004 C 
ATOM     28  C2  UNL     1      14.445  39.535  15.598  0.00  0.00    -0.003 C 
ENDBRANCH  26  28
ENDBRANCH  25  26
ENDBRANCH  19  25
ENDBRANCH  17  22
ENDBRANCH   1  17
TORSDOF 6
ENDMDL
