MODEL 1
REMARK VINA RESULT:    -2.873      0.000      0.000
REMARK INTER + INTRA:          -5.906
REMARK INTER:                  -3.964
REMARK INTRA:                  -1.941
REMARK UNBOUND:                -1.941
REMARK  Name = /home/vital/Documents/PhD_2021/Malaria_codes/data/pdb_ligands_mmv/ligand_263.pdb
REMARK  10 active torsions:
REMARK  status: ('A' for Active; 'I' for Inactive)
REMARK    1  A    between atoms: C1_1  and  C2_2
REMARK    2  A    between atoms: C2_2  and  O1_3
REMARK    3  A    between atoms: O1_3  and  C3_4
REMARK    4  A    between atoms: C3_4  and  C4_6
REMARK    5  A    between atoms: C5_7  and  C6_8
REMARK    6  A    between atoms: C9_13  and  C10_14
REMARK    7  A    between atoms: C15_20  and  O3_21
REMARK    8  A    between atoms: C17_25  and  C18_26
REMARK    9  A    between atoms: C21_29  and  O5_30
REMARK   10  A    between atoms: O5_30  and  C22_31
REMARK                            x       y       z     vdW  Elec       q    Type
REMARK                         _______ _______ _______ _____ _____    ______ ____
ROOT
ATOM      1  C4  UNL     1      16.047  33.115  15.980  0.00  0.00    +0.085 C 
ATOM      2  C5  UNL     1      16.948  33.494  15.050  0.00  0.00    +0.053 C 
ATOM      3  C6  UNL     1      17.179  34.921  14.622  0.00  0.00    +0.066 C 
ATOM      4  N1  UNL     1      17.728  32.579  14.372  0.00  0.00    -0.228 NA
ATOM      5  C7  UNL     1      17.483  31.329  14.562  0.00  0.00    +0.178 A 
ATOM      6  S1  UNL     1      18.299  30.069  13.688  0.00  0.00    -0.046 S 
ATOM      7  C8  UNL     1      17.307  28.838  14.396  0.00  0.00    +0.081 A 
ATOM      8  C9  UNL     1      17.432  27.542  14.079  0.00  0.00    +0.032 C 
ATOM      9  C16 UNL     1      16.341  29.461  15.354  0.00  0.00    +0.268 A 
ATOM     10  O4  UNL     1      15.469  28.860  15.966  0.00  0.00    -0.266 OA
ATOM     11  N2  UNL     1      16.565  30.816  15.422  0.00  0.00    -0.275 N 
ATOM     12  C17 UNL     1      15.863  31.670  16.361  0.00  0.00    +0.162 C 
ENDROOT
BRANCH   8  13
ATOM     13  C10 UNL     1      16.634  26.439  14.626  0.00  0.00    +0.019 A 
ATOM     14  C11 UNL     1      17.037  25.789  15.801  0.00  0.00    +0.031 A 
ATOM     15  C12 UNL     1      16.280  24.733  16.307  0.00  0.00    +0.042 A 
ATOM     16 CL1  UNL     1      16.777  23.942  17.753  0.00  0.00    -0.084 Cl
ATOM     17  C13 UNL     1      15.126  24.307  15.650  0.00  0.00    +0.023 A 
ATOM     18  C14 UNL     1      14.722  24.940  14.473  0.00  0.00    +0.047 A 
ATOM     19  C15 UNL     1      15.477  25.997  13.967  0.00  0.00    +0.124 A 
BRANCH  19  20
ATOM     20  O3  UNL     1      15.092  26.620  12.810  0.00  0.00    -0.506 OA
ATOM     21  H13 UNL     1      14.988  27.570  12.984  0.00  0.00    +0.292 HD
ENDBRANCH  19  20
ENDBRANCH   8  13
BRANCH  12  22
ATOM     22  C18 UNL     1      16.333  31.394  17.790  0.00  0.00    -0.020 A 
ATOM     23  C19 UNL     1      17.679  31.537  18.166  0.00  0.00    +0.009 A 
ATOM     24  C20 UNL     1      18.089  31.280  19.479  0.00  0.00    +0.046 A 
ATOM     25  C21 UNL     1      17.164  30.867  20.437  0.00  0.00    +0.120 A 
ATOM     26  C23 UNL     1      15.827  30.712  20.067  0.00  0.00    +0.046 A 
ATOM     27  C24 UNL     1      15.413  30.969  18.758  0.00  0.00    +0.009 A 
BRANCH  25  28
ATOM     28  O5  UNL     1      17.432  30.586  21.747  0.00  0.00    -0.495 OA
ATOM     29  C22 UNL     1      17.402  31.676  22.658  0.00  0.00    +0.277 C 
ENDBRANCH  25  28
ENDBRANCH  12  22
BRANCH   1  30
ATOM     30  C3  UNL     1      15.248  34.104  16.735  0.00  0.00    +0.339 C 
ATOM     31  O2  UNL     1      14.099  34.415  16.467  0.00  0.00    -0.245 OA
BRANCH  30  32
ATOM     32  O1  UNL     1      15.996  34.603  17.749  0.00  0.00    -0.462 OA
BRANCH  32  34
ATOM     33  C1  UNL     1      16.108  34.678  20.165  0.00  0.00    +0.048 C 
ATOM     34  C2  UNL     1      15.273  34.972  18.933  0.00  0.00    +0.229 C 
ENDBRANCH  32  34
ENDBRANCH  30  32
ENDBRANCH   1  30
TORSDOF 7
ENDMDL
MODEL 2
REMARK VINA RESULT:    -2.824      2.328      2.946
REMARK INTER + INTRA:          -5.838
REMARK INTER:                  -3.979
REMARK INTRA:                  -1.859
REMARK UNBOUND:                -1.941
REMARK  Name = /home/vital/Documents/PhD_2021/Malaria_codes/data/pdb_ligands_mmv/ligand_263.pdb
REMARK  10 active torsions:
REMARK  status: ('A' for Active; 'I' for Inactive)
REMARK    1  A    between atoms: C1_1  and  C2_2
REMARK    2  A    between atoms: C2_2  and  O1_3
REMARK    3  A    between atoms: O1_3  and  C3_4
REMARK    4  A    between atoms: C3_4  and  C4_6
REMARK    5  A    between atoms: C5_7  and  C6_8
REMARK    6  A    between atoms: C9_13  and  C10_14
REMARK    7  A    between atoms: C15_20  and  O3_21
REMARK    8  A    between atoms: C17_25  and  C18_26
REMARK    9  A    between atoms: C21_29  and  O5_30
REMARK   10  A    between atoms: O5_30  and  C22_31
REMARK                            x       y       z     vdW  Elec       q    Type
REMARK                         _______ _______ _______ _____ _____    ______ ____
ROOT
ATOM      1  C4  UNL     1      15.858  32.111  18.925  0.00  0.00    +0.085 C 
ATOM      2  C5  UNL     1      17.071  32.620  18.628  0.00  0.00    +0.053 C 
ATOM      3  C6  UNL     1      17.511  34.023  18.964  0.00  0.00    +0.066 C 
ATOM      4  N1  UNL     1      18.023  31.892  17.943  0.00  0.00    -0.228 NA
ATOM      5  C7  UNL     1      17.674  30.742  17.480  0.00  0.00    +0.178 A 
ATOM      6  S1  UNL     1      18.723  29.768  16.495  0.00  0.00    -0.046 S 
ATOM      7  C8  UNL     1      17.483  28.593  16.211  0.00  0.00    +0.081 A 
ATOM      8  C9  UNL     1      17.674  27.518  15.434  0.00  0.00    +0.032 C 
ATOM      9  C16 UNL     1      16.237  28.990  16.939  0.00  0.00    +0.268 A 
ATOM     10  O4  UNL     1      15.171  28.396  16.887  0.00  0.00    -0.266 OA
ATOM     11  N2  UNL     1      16.468  30.142  17.655  0.00  0.00    -0.275 N 
ATOM     12  C17 UNL     1      15.480  30.701  18.558  0.00  0.00    +0.162 C 
ENDROOT
BRANCH   8  13
ATOM     13  C10 UNL     1      16.682  26.479  15.138  0.00  0.00    +0.019 A 
ATOM     14  C11 UNL     1      16.594  25.334  15.941  0.00  0.00    +0.031 A 
ATOM     15  C12 UNL     1      15.657  24.345  15.645  0.00  0.00    +0.042 A 
ATOM     16 CL1  UNL     1      15.552  22.944  16.639  0.00  0.00    -0.084 Cl
ATOM     17  C13 UNL     1      14.807  24.478  14.548  0.00  0.00    +0.023 A 
ATOM     18  C14 UNL     1      14.893  25.609  13.735  0.00  0.00    +0.047 A 
ATOM     19  C15 UNL     1      15.829  26.600  14.030  0.00  0.00    +0.124 A 
BRANCH  19  20
ATOM     20  O3  UNL     1      15.924  27.709  13.235  0.00  0.00    -0.506 OA
ATOM     21  H13 UNL     1      16.827  27.767  12.879  0.00  0.00    +0.292 HD
ENDBRANCH  19  20
ENDBRANCH   8  13
BRANCH  12  22
ATOM     22  C18 UNL     1      15.323  29.814  19.794  0.00  0.00    -0.020 A 
ATOM     23  C19 UNL     1      16.376  29.621  20.704  0.00  0.00    +0.009 A 
ATOM     24  C20 UNL     1      16.212  28.806  21.830  0.00  0.00    +0.046 A 
ATOM     25  C21 UNL     1      14.997  28.162  22.061  0.00  0.00    +0.120 A 
ATOM     26  C23 UNL     1      13.951  28.339  21.155  0.00  0.00    +0.046 A 
ATOM     27  C24 UNL     1      14.109  29.154  20.032  0.00  0.00    +0.009 A 
BRANCH  25  28
ATOM     28  O5  UNL     1      14.708  27.344  23.117  0.00  0.00    -0.495 OA
ATOM     29  C22 UNL     1      13.691  27.780  24.010  0.00  0.00    +0.277 C 
ENDBRANCH  25  28
ENDBRANCH  12  22
BRANCH   1  30
ATOM     30  C3  UNL     1      14.862  32.882  19.700  0.00  0.00    +0.339 C 
ATOM     31  O2  UNL     1      13.864  33.399  19.224  0.00  0.00    -0.245 OA
BRANCH  30  32
ATOM     32  O1  UNL     1      15.241  32.924  21.001  0.00  0.00    -0.462 OA
BRANCH  32  34
ATOM     33  C1  UNL     1      13.806  31.979  22.704  0.00  0.00    +0.048 C 
ATOM     34  C2  UNL     1      14.202  33.230  21.943  0.00  0.00    +0.229 C 
ENDBRANCH  32  34
ENDBRANCH  30  32
ENDBRANCH   1  30
TORSDOF 7
ENDMDL
MODEL 3
REMARK VINA RESULT:    -2.731      3.459      5.725
REMARK INTER + INTRA:          -5.710
REMARK INTER:                  -4.048
REMARK INTRA:                  -1.662
REMARK UNBOUND:                -1.941
REMARK  Name = /home/vital/Documents/PhD_2021/Malaria_codes/data/pdb_ligands_mmv/ligand_263.pdb
REMARK  10 active torsions:
REMARK  status: ('A' for Active; 'I' for Inactive)
REMARK    1  A    between atoms: C1_1  and  C2_2
REMARK    2  A    between atoms: C2_2  and  O1_3
REMARK    3  A    between atoms: O1_3  and  C3_4
REMARK    4  A    between atoms: C3_4  and  C4_6
REMARK    5  A    between atoms: C5_7  and  C6_8
REMARK    6  A    between atoms: C9_13  and  C10_14
REMARK    7  A    between atoms: C15_20  and  O3_21
REMARK    8  A    between atoms: C17_25  and  C18_26
REMARK    9  A    between atoms: C21_29  and  O5_30
REMARK   10  A    between atoms: O5_30  and  C22_31
REMARK                            x       y       z     vdW  Elec       q    Type
REMARK                         _______ _______ _______ _____ _____    ______ ____
ROOT
ATOM      1  C4  UNL     1      16.250  29.337  21.330  0.00  0.00    +0.085 C 
ATOM      2  C5  UNL     1      15.497  28.291  21.726  0.00  0.00    +0.053 C 
ATOM      3  C6  UNL     1      15.516  27.706  23.116  0.00  0.00    +0.066 C 
ATOM      4  N1  UNL     1      14.650  27.629  20.860  0.00  0.00    -0.228 NA
ATOM      5  C7  UNL     1      14.690  27.963  19.616  0.00  0.00    +0.178 A 
ATOM      6  S1  UNL     1      13.774  27.137  18.393  0.00  0.00    -0.046 S 
ATOM      7  C8  UNL     1      14.510  28.056  17.122  0.00  0.00    +0.081 A 
ATOM      8  C9  UNL     1      14.222  27.855  15.828  0.00  0.00    +0.032 C 
ATOM      9  C16 UNL     1      15.472  29.041  17.706  0.00  0.00    +0.268 A 
ATOM     10  O4  UNL     1      16.191  29.791  17.061  0.00  0.00    -0.266 OA
ATOM     11  N2  UNL     1      15.446  28.955  19.079  0.00  0.00    -0.275 N 
ATOM     12  C17 UNL     1      16.186  29.872  19.925  0.00  0.00    +0.162 C 
ENDROOT
BRANCH   8  13
ATOM     13  C10 UNL     1      14.798  28.582  14.692  0.00  0.00    +0.019 A 
ATOM     14  C11 UNL     1      14.425  29.909  14.439  0.00  0.00    +0.031 A 
ATOM     15  C12 UNL     1      14.968  30.589  13.350  0.00  0.00    +0.042 A 
ATOM     16 CL1  UNL     1      14.510  32.220  13.046  0.00  0.00    -0.084 Cl
ATOM     17  C13 UNL     1      15.875  29.958  12.498  0.00  0.00    +0.023 A 
ATOM     18  C14 UNL     1      16.245  28.633  12.735  0.00  0.00    +0.047 A 
ATOM     19  C15 UNL     1      15.703  27.952  13.825  0.00  0.00    +0.124 A 
BRANCH  19  20
ATOM     20  O3  UNL     1      16.056  26.651  14.062  0.00  0.00    -0.506 OA
ATOM     21  H13 UNL     1      16.864  26.636  14.601  0.00  0.00    +0.292 HD
ENDBRANCH  19  20
ENDBRANCH   8  13
BRANCH  12  22
ATOM     22  C18 UNL     1      15.560  31.267  19.874  0.00  0.00    -0.020 A 
ATOM     23  C19 UNL     1      14.245  31.504  20.305  0.00  0.00    +0.009 A 
ATOM     24  C20 UNL     1      13.691  32.788  20.252  0.00  0.00    +0.046 A 
ATOM     25  C21 UNL     1      14.439  33.856  19.760  0.00  0.00    +0.120 A 
ATOM     26  C23 UNL     1      15.743  33.626  19.319  0.00  0.00    +0.046 A 
ATOM     27  C24 UNL     1      16.301  32.347  19.372  0.00  0.00    +0.009 A 
BRANCH  25  28
ATOM     28  O5  UNL     1      14.020  35.153  19.655  0.00  0.00    -0.495 OA
ATOM     29  C22 UNL     1      14.731  36.122  20.413  0.00  0.00    +0.277 C 
ENDBRANCH  25  28
ENDBRANCH  12  22
BRANCH   1  30
ATOM     30  C3  UNL     1      17.120  30.069  22.277  0.00  0.00    +0.339 C 
ATOM     31  O2  UNL     1      18.335  29.973  22.315  0.00  0.00    -0.245 OA
BRANCH  30  32
ATOM     32  O1  UNL     1      16.352  30.844  23.083  0.00  0.00    -0.462 OA
BRANCH  32  34
ATOM     33  C1  UNL     1      16.166  33.248  23.269  0.00  0.00    +0.048 C 
ATOM     34  C2  UNL     1      16.989  32.019  23.606  0.00  0.00    +0.229 C 
ENDBRANCH  32  34
ENDBRANCH  30  32
ENDBRANCH   1  30
TORSDOF 7
ENDMDL
MODEL 4
REMARK VINA RESULT:    -2.499     19.819     23.046
REMARK INTER + INTRA:          -5.389
REMARK INTER:                  -3.551
REMARK INTRA:                  -1.838
REMARK UNBOUND:                -1.941
REMARK  Name = /home/vital/Documents/PhD_2021/Malaria_codes/data/pdb_ligands_mmv/ligand_263.pdb
REMARK  10 active torsions:
REMARK  status: ('A' for Active; 'I' for Inactive)
REMARK    1  A    between atoms: C1_1  and  C2_2
REMARK    2  A    between atoms: C2_2  and  O1_3
REMARK    3  A    between atoms: O1_3  and  C3_4
REMARK    4  A    between atoms: C3_4  and  C4_6
REMARK    5  A    between atoms: C5_7  and  C6_8
REMARK    6  A    between atoms: C9_13  and  C10_14
REMARK    7  A    between atoms: C15_20  and  O3_21
REMARK    8  A    between atoms: C17_25  and  C18_26
REMARK    9  A    between atoms: C21_29  and  O5_30
REMARK   10  A    between atoms: O5_30  and  C22_31
REMARK                            x       y       z     vdW  Elec       q    Type
REMARK                         _______ _______ _______ _____ _____    ______ ____
ROOT
ATOM      1  C4  UNL     1      31.105  41.728  18.471  0.00  0.00    +0.085 C 
ATOM      2  C5  UNL     1      31.416  40.495  18.922  0.00  0.00    +0.053 C 
ATOM      3  C6  UNL     1      30.544  39.278  18.741  0.00  0.00    +0.066 C 
ATOM      4  N1  UNL     1      32.571  40.245  19.635  0.00  0.00    -0.228 NA
ATOM      5  C7  UNL     1      33.295  41.257  19.970  0.00  0.00    +0.178 A 
ATOM      6  S1  UNL     1      34.708  41.111  20.971  0.00  0.00    -0.046 S 
ATOM      7  C8  UNL     1      34.922  42.828  21.042  0.00  0.00    +0.081 A 
ATOM      8  C9  UNL     1      35.908  43.402  21.746  0.00  0.00    +0.032 C 
ATOM      9  C16 UNL     1      33.859  43.501  20.232  0.00  0.00    +0.268 A 
ATOM     10  O4  UNL     1      33.707  44.710  20.135  0.00  0.00    -0.266 OA
ATOM     11  N2  UNL     1      33.063  42.552  19.634  0.00  0.00    -0.275 N 
ATOM     12  C17 UNL     1      32.021  42.903  18.688  0.00  0.00    +0.162 C 
ENDROOT
BRANCH   8  13
ATOM     13  C10 UNL     1      36.159  44.842  21.863  0.00  0.00    +0.019 A 
ATOM     14  C11 UNL     1      37.110  45.464  21.043  0.00  0.00    +0.031 A 
ATOM     15  C12 UNL     1      37.353  46.830  21.169  0.00  0.00    +0.042 A 
ATOM     16 CL1  UNL     1      38.519  47.589  20.156  0.00  0.00    -0.084 Cl
ATOM     17  C13 UNL     1      36.663  47.590  22.114  0.00  0.00    +0.023 A 
ATOM     18  C14 UNL     1      35.721  46.979  22.944  0.00  0.00    +0.047 A 
ATOM     19  C15 UNL     1      35.477  45.612  22.817  0.00  0.00    +0.124 A 
BRANCH  19  20
ATOM     20  O3  UNL     1      34.559  45.004  23.630  0.00  0.00    -0.506 OA
ATOM     21  H13 UNL     1      34.402  45.567  24.406  0.00  0.00    +0.292 HD
ENDBRANCH  19  20
ENDBRANCH   8  13
BRANCH  12  22
ATOM     22  C18 UNL     1      32.634  43.397  17.376  0.00  0.00    -0.020 A 
ATOM     23  C19 UNL     1      32.414  44.700  16.902  0.00  0.00    +0.009 A 
ATOM     24  C20 UNL     1      32.985  45.133  15.699  0.00  0.00    +0.046 A 
ATOM     25  C21 UNL     1      33.778  44.269  14.947  0.00  0.00    +0.120 A 
ATOM     26  C23 UNL     1      33.991  42.968  15.406  0.00  0.00    +0.046 A 
ATOM     27  C24 UNL     1      33.425  42.533  16.606  0.00  0.00    +0.009 A 
BRANCH  25  28
ATOM     28  O5  UNL     1      34.391  44.565  13.762  0.00  0.00    -0.495 OA
ATOM     29  C22 UNL     1      33.901  43.906  12.601  0.00  0.00    +0.277 C 
ENDBRANCH  25  28
ENDBRANCH  12  22
BRANCH   1  30
ATOM     30  C3  UNL     1      29.889  41.976  17.668  0.00  0.00    +0.339 C 
ATOM     31  O2  UNL     1      28.868  42.486  18.100  0.00  0.00    -0.245 OA
BRANCH  30  32
ATOM     32  O1  UNL     1      30.093  41.544  16.399  0.00  0.00    -0.462 OA
BRANCH  32  34
ATOM     33  C1  UNL     1      30.292  42.521  14.196  0.00  0.00    +0.048 C 
ATOM     34  C2  UNL     1      29.379  42.255  15.377  0.00  0.00    +0.229 C 
ENDBRANCH  32  34
ENDBRANCH  30  32
ENDBRANCH   1  30
TORSDOF 7
ENDMDL
MODEL 5
REMARK VINA RESULT:    -2.456      4.446      6.543
REMARK INTER + INTRA:          -5.331
REMARK INTER:                  -3.428
REMARK INTRA:                  -1.902
REMARK UNBOUND:                -1.941
REMARK  Name = /home/vital/Documents/PhD_2021/Malaria_codes/data/pdb_ligands_mmv/ligand_263.pdb
REMARK  10 active torsions:
REMARK  status: ('A' for Active; 'I' for Inactive)
REMARK    1  A    between atoms: C1_1  and  C2_2
REMARK    2  A    between atoms: C2_2  and  O1_3
REMARK    3  A    between atoms: O1_3  and  C3_4
REMARK    4  A    between atoms: C3_4  and  C4_6
REMARK    5  A    between atoms: C5_7  and  C6_8
REMARK    6  A    between atoms: C9_13  and  C10_14
REMARK    7  A    between atoms: C15_20  and  O3_21
REMARK    8  A    between atoms: C17_25  and  C18_26
REMARK    9  A    between atoms: C21_29  and  O5_30
REMARK   10  A    between atoms: O5_30  and  C22_31
REMARK                            x       y       z     vdW  Elec       q    Type
REMARK                         _______ _______ _______ _____ _____    ______ ____
ROOT
ATOM      1  C4  UNL     1      17.711  27.635  22.421  0.00  0.00    +0.085 C 
ATOM      2  C5  UNL     1      16.632  27.999  23.145  0.00  0.00    +0.053 C 
ATOM      3  C6  UNL     1      16.630  28.164  24.643  0.00  0.00    +0.066 C 
ATOM      4  N1  UNL     1      15.400  28.221  22.562  0.00  0.00    -0.228 NA
ATOM      5  C7  UNL     1      15.276  27.948  21.309  0.00  0.00    +0.178 A 
ATOM      6  S1  UNL     1      13.759  28.061  20.470  0.00  0.00    -0.046 S 
ATOM      7  C8  UNL     1      14.434  27.403  19.016  0.00  0.00    +0.081 A 
ATOM      8  C9  UNL     1      13.701  27.192  17.914  0.00  0.00    +0.032 C 
ATOM      9  C16 UNL     1      15.889  27.123  19.219  0.00  0.00    +0.268 A 
ATOM     10  O4  UNL     1      16.628  26.601  18.397  0.00  0.00    -0.266 OA
ATOM     11  N2  UNL     1      16.264  27.519  20.482  0.00  0.00    -0.275 N 
ATOM     12  C17 UNL     1      17.645  27.485  20.925  0.00  0.00    +0.162 C 
ENDROOT
BRANCH   8  13
ATOM     13  C10 UNL     1      14.189  26.639  16.646  0.00  0.00    +0.019 A 
ATOM     14  C11 UNL     1      14.657  27.489  15.636  0.00  0.00    +0.031 A 
ATOM     15  C12 UNL     1      15.107  26.956  14.429  0.00  0.00    +0.042 A 
ATOM     16 CL1  UNL     1      15.685  28.006  13.194  0.00  0.00    -0.084 Cl
ATOM     17  C13 UNL     1      15.088  25.579  14.210  0.00  0.00    +0.023 A 
ATOM     18  C14 UNL     1      14.613  24.723  15.205  0.00  0.00    +0.047 A 
ATOM     19  C15 UNL     1      14.164  25.255  16.413  0.00  0.00    +0.124 A 
BRANCH  19  20
ATOM     20  O3  UNL     1      13.691  24.424  17.393  0.00  0.00    -0.506 OA
ATOM     21  H13 UNL     1      14.286  23.659  17.471  0.00  0.00    +0.292 HD
ENDBRANCH  19  20
ENDBRANCH   8  13
BRANCH  12  22
ATOM     22  C18 UNL     1      18.463  28.561  20.208  0.00  0.00    -0.020 A 
ATOM     23  C19 UNL     1      19.592  28.241  19.437  0.00  0.00    +0.009 A 
ATOM     24  C20 UNL     1      20.326  29.240  18.788  0.00  0.00    +0.046 A 
ATOM     25  C21 UNL     1      19.950  30.577  18.905  0.00  0.00    +0.120 A 
ATOM     26  C23 UNL     1      18.836  30.904  19.680  0.00  0.00    +0.046 A 
ATOM     27  C24 UNL     1      18.099  29.910  20.327  0.00  0.00    +0.009 A 
BRANCH  25  28
ATOM     28  O5  UNL     1      20.577  31.644  18.325  0.00  0.00    -0.495 OA
ATOM     29  C22 UNL     1      21.784  32.088  18.931  0.00  0.00    +0.277 C 
ENDBRANCH  25  28
ENDBRANCH  12  22
BRANCH   1  30
ATOM     30  C3  UNL     1      19.037  27.445  23.047  0.00  0.00    +0.339 C 
ATOM     31  O2  UNL     1      19.523  26.360  23.320  0.00  0.00    -0.245 OA
BRANCH  30  32
ATOM     32  O1  UNL     1      19.605  28.656  23.270  0.00  0.00    -0.462 OA
BRANCH  32  34
ATOM     33  C1  UNL     1      21.420  30.093  22.568  0.00  0.00    +0.048 C 
ATOM     34  C2  UNL     1      21.026  28.720  23.079  0.00  0.00    +0.229 C 
ENDBRANCH  32  34
ENDBRANCH  30  32
ENDBRANCH   1  30
TORSDOF 7
ENDMDL
MODEL 6
REMARK VINA RESULT:    -2.412      3.958      8.519
REMARK INTER + INTRA:          -5.270
REMARK INTER:                  -3.432
REMARK INTRA:                  -1.838
REMARK UNBOUND:                -1.941
REMARK  Name = /home/vital/Documents/PhD_2021/Malaria_codes/data/pdb_ligands_mmv/ligand_263.pdb
REMARK  10 active torsions:
REMARK  status: ('A' for Active; 'I' for Inactive)
REMARK    1  A    between atoms: C1_1  and  C2_2
REMARK    2  A    between atoms: C2_2  and  O1_3
REMARK    3  A    between atoms: O1_3  and  C3_4
REMARK    4  A    between atoms: C3_4  and  C4_6
REMARK    5  A    between atoms: C5_7  and  C6_8
REMARK    6  A    between atoms: C9_13  and  C10_14
REMARK    7  A    between atoms: C15_20  and  O3_21
REMARK    8  A    between atoms: C17_25  and  C18_26
REMARK    9  A    between atoms: C21_29  and  O5_30
REMARK   10  A    between atoms: O5_30  and  C22_31
REMARK                            x       y       z     vdW  Elec       q    Type
REMARK                         _______ _______ _______ _____ _____    ______ ____
ROOT
ATOM      1  C4  UNL     1      15.783  25.147  18.072  0.00  0.00    +0.085 C 
ATOM      2  C5  UNL     1      16.774  24.342  18.507  0.00  0.00    +0.053 C 
ATOM      3  C6  UNL     1      17.020  22.944  17.998  0.00  0.00    +0.066 C 
ATOM      4  N1  UNL     1      17.646  24.728  19.505  0.00  0.00    -0.228 NA
ATOM      5  C7  UNL     1      17.410  25.844  20.104  0.00  0.00    +0.178 A 
ATOM      6  S1  UNL     1      18.347  26.399  21.457  0.00  0.00    -0.046 S 
ATOM      7  C8  UNL     1      17.309  27.765  21.705  0.00  0.00    +0.081 A 
ATOM      8  C9  UNL     1      17.498  28.640  22.702  0.00  0.00    +0.032 C 
ATOM      9  C16 UNL     1      16.228  27.769  20.671  0.00  0.00    +0.268 A 
ATOM     10  O4  UNL     1      15.308  28.571  20.618  0.00  0.00    -0.266 OA
ATOM     11  N2  UNL     1      16.413  26.717  19.804  0.00  0.00    -0.275 N 
ATOM     12  C17 UNL     1      15.590  26.534  18.624  0.00  0.00    +0.162 C 
ENDROOT
BRANCH   8  13
ATOM     13  C10 UNL     1      16.670  29.817  22.986  0.00  0.00    +0.019 A 
ATOM     14  C11 UNL     1      16.976  31.055  22.406  0.00  0.00    +0.031 A 
ATOM     15  C12 UNL     1      16.192  32.171  22.690  0.00  0.00    +0.042 A 
ATOM     16 CL1  UNL     1      16.571  33.689  21.971  0.00  0.00    -0.084 Cl
ATOM     17  C13 UNL     1      15.105  32.073  23.558  0.00  0.00    +0.023 A 
ATOM     18  C14 UNL     1      14.796  30.847  24.150  0.00  0.00    +0.047 A 
ATOM     19  C15 UNL     1      15.580  29.729  23.865  0.00  0.00    +0.124 A 
BRANCH  19  20
ATOM     20  O3  UNL     1      15.289  28.524  24.446  0.00  0.00    -0.506 OA
ATOM     21  H13 UNL     1      14.903  28.682  25.324  0.00  0.00    +0.292 HD
ENDBRANCH  19  20
ENDBRANCH   8  13
BRANCH  12  22
ATOM     22  C18 UNL     1      15.903  27.610  17.583  0.00  0.00    -0.020 A 
ATOM     23  C19 UNL     1      17.202  27.799  17.082  0.00  0.00    +0.009 A 
ATOM     24  C20 UNL     1      17.468  28.789  16.129  0.00  0.00    +0.046 A 
ATOM     25  C21 UNL     1      16.444  29.613  15.667  0.00  0.00    +0.120 A 
ATOM     26  C23 UNL     1      15.153  29.439  16.169  0.00  0.00    +0.046 A 
ATOM     27  C24 UNL     1      14.882  28.451  17.118  0.00  0.00    +0.009 A 
BRANCH  25  28
ATOM     28  O5  UNL     1      16.568  30.611  14.742  0.00  0.00    -0.495 OA
ATOM     29  C22 UNL     1      15.456  31.482  14.581  0.00  0.00    +0.277 C 
ENDBRANCH  25  28
ENDBRANCH  12  22
BRANCH   1  30
ATOM     30  C3  UNL     1      14.883  24.743  16.970  0.00  0.00    +0.339 C 
ATOM     31  O2  UNL     1      13.695  24.496  17.103  0.00  0.00    -0.245 OA
BRANCH  30  32
ATOM     32  O1  UNL     1      15.587  24.688  15.813  0.00  0.00    -0.462 OA
BRANCH  32  34
ATOM     33  C1  UNL     1      15.379  26.149  13.896  0.00  0.00    +0.048 C 
ATOM     34  C2  UNL     1      14.835  24.929  14.614  0.00  0.00    +0.229 C 
ENDBRANCH  32  34
ENDBRANCH  30  32
ENDBRANCH   1  30
TORSDOF 7
ENDMDL
MODEL 7
REMARK VINA RESULT:    -2.376     10.788     13.911
REMARK INTER + INTRA:          -5.220
REMARK INTER:                  -3.274
REMARK INTRA:                  -1.945
REMARK UNBOUND:                -1.941
REMARK  Name = /home/vital/Documents/PhD_2021/Malaria_codes/data/pdb_ligands_mmv/ligand_263.pdb
REMARK  10 active torsions:
REMARK  status: ('A' for Active; 'I' for Inactive)
REMARK    1  A    between atoms: C1_1  and  C2_2
REMARK    2  A    between atoms: C2_2  and  O1_3
REMARK    3  A    between atoms: O1_3  and  C3_4
REMARK    4  A    between atoms: C3_4  and  C4_6
REMARK    5  A    between atoms: C5_7  and  C6_8
REMARK    6  A    between atoms: C9_13  and  C10_14
REMARK    7  A    between atoms: C15_20  and  O3_21
REMARK    8  A    between atoms: C17_25  and  C18_26
REMARK    9  A    between atoms: C21_29  and  O5_30
REMARK   10  A    between atoms: O5_30  and  C22_31
REMARK                            x       y       z     vdW  Elec       q    Type
REMARK                         _______ _______ _______ _____ _____    ______ ____
ROOT
ATOM      1  C4  UNL     1      21.915  45.787  17.256  0.00  0.00    +0.085 C 
ATOM      2  C5  UNL     1      22.526  45.919  16.061  0.00  0.00    +0.053 C 
ATOM      3  C6  UNL     1      23.502  47.018  15.722  0.00  0.00    +0.066 C 
ATOM      4  N1  UNL     1      22.276  45.058  15.012  0.00  0.00    -0.228 NA
ATOM      5  C7  UNL     1      21.339  44.187  15.165  0.00  0.00    +0.178 A 
ATOM      6  S1  UNL     1      20.831  43.121  13.892  0.00  0.00    -0.046 S 
ATOM      7  C8  UNL     1      19.533  42.485  14.847  0.00  0.00    +0.081 A 
ATOM      8  C9  UNL     1      18.679  41.565  14.378  0.00  0.00    +0.032 C 
ATOM      9  C16 UNL     1      19.542  43.126  16.198  0.00  0.00    +0.268 A 
ATOM     10  O4  UNL     1      18.715  42.930  17.077  0.00  0.00    -0.266 OA
ATOM     11  N2  UNL     1      20.608  43.990  16.293  0.00  0.00    -0.275 N 
ATOM     12  C17 UNL     1      20.947  44.667  17.530  0.00  0.00    +0.162 C 
ENDROOT
BRANCH   8  13
ATOM     13  C10 UNL     1      17.555  40.976  15.114  0.00  0.00    +0.019 A 
ATOM     14  C11 UNL     1      17.735  39.807  15.866  0.00  0.00    +0.031 A 
ATOM     15  C12 UNL     1      16.659  39.247  16.552  0.00  0.00    +0.042 A 
ATOM     16 CL1  UNL     1      16.888  37.814  17.478  0.00  0.00    -0.084 Cl
ATOM     17  C13 UNL     1      15.395  39.833  16.492  0.00  0.00    +0.023 A 
ATOM     18  C14 UNL     1      15.202  40.992  15.737  0.00  0.00    +0.047 A 
ATOM     19  C15 UNL     1      16.278  41.554  15.051  0.00  0.00    +0.124 A 
BRANCH  19  20
ATOM     20  O3  UNL     1      16.096  42.686  14.304  0.00  0.00    -0.506 OA
ATOM     21  H13 UNL     1      15.398  43.225  14.713  0.00  0.00    +0.292 HD
ENDBRANCH  19  20
ENDBRANCH   8  13
BRANCH  12  22
ATOM     22  C18 UNL     1      21.503  43.671  18.549  0.00  0.00    -0.020 A 
ATOM     23  C19 UNL     1      22.643  42.895  18.279  0.00  0.00    +0.009 A 
ATOM     24  C20 UNL     1      23.137  41.989  19.225  0.00  0.00    +0.046 A 
ATOM     25  C21 UNL     1      22.495  41.836  20.453  0.00  0.00    +0.120 A 
ATOM     26  C23 UNL     1      21.355  42.595  20.724  0.00  0.00    +0.046 A 
ATOM     27  C24 UNL     1      20.861  43.502  19.784  0.00  0.00    +0.009 A 
BRANCH  25  28
ATOM     28  O5  UNL     1      22.873  40.992  21.459  0.00  0.00    -0.495 OA
ATOM     29  C22 UNL     1      23.538  41.574  22.573  0.00  0.00    +0.277 C 
ENDBRANCH  25  28
ENDBRANCH  12  22
BRANCH   1  30
ATOM     30  C3  UNL     1      22.223  46.686  18.389  0.00  0.00    +0.339 C 
ATOM     31  O2  UNL     1      21.495  47.585  18.777  0.00  0.00    -0.245 OA
BRANCH  30  32
ATOM     32  O1  UNL     1      23.431  46.354  18.908  0.00  0.00    -0.462 OA
BRANCH  32  34
ATOM     33  C1  UNL     1      24.397  45.334  20.878  0.00  0.00    +0.048 C 
ATOM     34  C2  UNL     1      23.548  46.468  20.335  0.00  0.00    +0.229 C 
ENDBRANCH  32  34
ENDBRANCH  30  32
ENDBRANCH   1  30
TORSDOF 7
ENDMDL
MODEL 8
REMARK VINA RESULT:    -2.344     16.597     19.094
REMARK INTER + INTRA:          -5.176
REMARK INTER:                  -3.300
REMARK INTRA:                  -1.876
REMARK UNBOUND:                -1.941
REMARK  Name = /home/vital/Documents/PhD_2021/Malaria_codes/data/pdb_ligands_mmv/ligand_263.pdb
REMARK  10 active torsions:
REMARK  status: ('A' for Active; 'I' for Inactive)
REMARK    1  A    between atoms: C1_1  and  C2_2
REMARK    2  A    between atoms: C2_2  and  O1_3
REMARK    3  A    between atoms: O1_3  and  C3_4
REMARK    4  A    between atoms: C3_4  and  C4_6
REMARK    5  A    between atoms: C5_7  and  C6_8
REMARK    6  A    between atoms: C9_13  and  C10_14
REMARK    7  A    between atoms: C15_20  and  O3_21
REMARK    8  A    between atoms: C17_25  and  C18_26
REMARK    9  A    between atoms: C21_29  and  O5_30
REMARK   10  A    between atoms: O5_30  and  C22_31
REMARK                            x       y       z     vdW  Elec       q    Type
REMARK                         _______ _______ _______ _____ _____    ______ ____
ROOT
ATOM      1  C4  UNL     1      23.747  45.545  19.499  0.00  0.00    +0.085 C 
ATOM      2  C5  UNL     1      23.724  44.380  20.178  0.00  0.00    +0.053 C 
ATOM      3  C6  UNL     1      22.661  43.997  21.176  0.00  0.00    +0.066 C 
ATOM      4  N1  UNL     1      24.717  43.431  20.038  0.00  0.00    -0.228 NA
ATOM      5  C7  UNL     1      25.744  43.745  19.325  0.00  0.00    +0.178 A 
ATOM      6  S1  UNL     1      27.125  42.703  19.160  0.00  0.00    -0.046 S 
ATOM      7  C8  UNL     1      28.003  43.894  18.258  0.00  0.00    +0.081 A 
ATOM      8  C9  UNL     1      29.255  43.690  17.825  0.00  0.00    +0.032 C 
ATOM      9  C16 UNL     1      27.156  45.114  18.079  0.00  0.00    +0.268 A 
ATOM     10  O4  UNL     1      27.518  46.149  17.537  0.00  0.00    -0.266 OA
ATOM     11  N2  UNL     1      25.918  44.905  18.640  0.00  0.00    -0.275 N 
ATOM     12  C17 UNL     1      24.840  45.867  18.516  0.00  0.00    +0.162 C 
ENDROOT
BRANCH   8  13
ATOM     13  C10 UNL     1      30.070  44.640  17.061  0.00  0.00    +0.019 A 
ATOM     14  C11 UNL     1      30.037  44.635  15.660  0.00  0.00    +0.031 A 
ATOM     15  C12 UNL     1      30.824  45.533  14.942  0.00  0.00    +0.042 A 
ATOM     16 CL1  UNL     1      30.775  45.525  13.221  0.00  0.00    -0.084 Cl
ATOM     17  C13 UNL     1      31.656  46.436  15.603  0.00  0.00    +0.023 A 
ATOM     18  C14 UNL     1      31.705  46.443  16.998  0.00  0.00    +0.047 A 
ATOM     19  C15 UNL     1      30.917  45.545  17.719  0.00  0.00    +0.124 A 
BRANCH  19  20
ATOM     20  O3  UNL     1      30.963  45.541  19.086  0.00  0.00    -0.506 OA
ATOM     21  H13 UNL     1      31.662  44.931  19.377  0.00  0.00    +0.292 HD
ENDBRANCH  19  20
ENDBRANCH   8  13
BRANCH  12  22
ATOM     22  C18 UNL     1      24.321  45.905  17.078  0.00  0.00    -0.020 A 
ATOM     23  C19 UNL     1      23.747  44.777  16.469  0.00  0.00    +0.009 A 
ATOM     24  C20 UNL     1      23.276  44.832  15.152  0.00  0.00    +0.046 A 
ATOM     25  C21 UNL     1      23.380  46.012  14.418  0.00  0.00    +0.120 A 
ATOM     26  C23 UNL     1      23.961  47.134  15.012  0.00  0.00    +0.046 A 
ATOM     27  C24 UNL     1      24.429  47.084  16.327  0.00  0.00    +0.009 A 
BRANCH  25  28
ATOM     28  O5  UNL     1      22.962  46.198  13.130  0.00  0.00    -0.495 OA
ATOM     29  C22 UNL     1      21.579  45.997  12.867  0.00  0.00    +0.277 C 
ENDBRANCH  25  28
ENDBRANCH  12  22
BRANCH   1  30
ATOM     30  C3  UNL     1      22.654  46.535  19.620  0.00  0.00    +0.339 C 
ATOM     31  O2  UNL     1      22.741  47.590  20.226  0.00  0.00    -0.245 OA
BRANCH  30  32
ATOM     32  O1  UNL     1      21.559  46.076  18.964  0.00  0.00    -0.462 OA
BRANCH  32  34
ATOM     33  C1  UNL     1      20.600  47.109  16.998  0.00  0.00    +0.048 C 
ATOM     34  C2  UNL     1      20.638  47.081  18.514  0.00  0.00    +0.229 C 
ENDBRANCH  32  34
ENDBRANCH  30  32
ENDBRANCH   1  30
TORSDOF 7
ENDMDL
MODEL 9
REMARK VINA RESULT:    -2.228      5.641      8.238
REMARK INTER + INTRA:          -5.015
REMARK INTER:                  -3.087
REMARK INTRA:                  -1.929
REMARK UNBOUND:                -1.941
REMARK  Name = /home/vital/Documents/PhD_2021/Malaria_codes/data/pdb_ligands_mmv/ligand_263.pdb
REMARK  10 active torsions:
REMARK  status: ('A' for Active; 'I' for Inactive)
REMARK    1  A    between atoms: C1_1  and  C2_2
REMARK    2  A    between atoms: C2_2  and  O1_3
REMARK    3  A    between atoms: O1_3  and  C3_4
REMARK    4  A    between atoms: C3_4  and  C4_6
REMARK    5  A    between atoms: C5_7  and  C6_8
REMARK    6  A    between atoms: C9_13  and  C10_14
REMARK    7  A    between atoms: C15_20  and  O3_21
REMARK    8  A    between atoms: C17_25  and  C18_26
REMARK    9  A    between atoms: C21_29  and  O5_30
REMARK   10  A    between atoms: O5_30  and  C22_31
REMARK                            x       y       z     vdW  Elec       q    Type
REMARK                         _______ _______ _______ _____ _____    ______ ____
ROOT
ATOM      1  C4  UNL     1      21.779  24.370  17.958  0.00  0.00    +0.085 C 
ATOM      2  C5  UNL     1      21.587  23.953  19.226  0.00  0.00    +0.053 C 
ATOM      3  C6  UNL     1      22.634  23.260  20.061  0.00  0.00    +0.066 C 
ATOM      4  N1  UNL     1      20.375  24.099  19.869  0.00  0.00    -0.228 NA
ATOM      5  C7  UNL     1      19.381  24.537  19.176  0.00  0.00    +0.178 A 
ATOM      6  S1  UNL     1      17.770  24.657  19.816  0.00  0.00    -0.046 S 
ATOM      7  C8  UNL     1      17.120  25.129  18.281  0.00  0.00    +0.081 A 
ATOM      8  C9  UNL     1      15.813  25.361  18.094  0.00  0.00    +0.032 C 
ATOM      9  C16 UNL     1      18.221  25.210  17.272  0.00  0.00    +0.268 A 
ATOM     10  O4  UNL     1      18.072  25.459  16.085  0.00  0.00    -0.266 OA
ATOM     11  N2  UNL     1      19.425  24.934  17.878  0.00  0.00    -0.275 N 
ATOM     12  C17 UNL     1      20.689  25.055  17.177  0.00  0.00    +0.162 C 
ENDROOT
BRANCH   8  13
ATOM     13  C10 UNL     1      15.180  25.760  16.832  0.00  0.00    +0.019 A 
ATOM     14  C11 UNL     1      14.955  27.114  16.550  0.00  0.00    +0.031 A 
ATOM     15  C12 UNL     1      14.341  27.485  15.355  0.00  0.00    +0.042 A 
ATOM     16 CL1  UNL     1      14.071  29.150  15.013  0.00  0.00    -0.084 Cl
ATOM     17  C13 UNL     1      13.936  26.518  14.435  0.00  0.00    +0.023 A 
ATOM     18  C14 UNL     1      14.145  25.165  14.711  0.00  0.00    +0.047 A 
ATOM     19  C15 UNL     1      14.761  24.794  15.906  0.00  0.00    +0.124 A 
BRANCH  19  20
ATOM     20  O3  UNL     1      14.965  23.470  16.186  0.00  0.00    -0.506 OA
ATOM     21  H13 UNL     1      15.395  23.048  15.424  0.00  0.00    +0.292 HD
ENDBRANCH  19  20
ENDBRANCH   8  13
BRANCH  12  22
ATOM     22  C18 UNL     1      21.016  26.526  16.914  0.00  0.00    -0.020 A 
ATOM     23  C19 UNL     1      21.111  27.460  17.959  0.00  0.00    +0.009 A 
ATOM     24  C20 UNL     1      21.412  28.802  17.698  0.00  0.00    +0.046 A 
ATOM     25  C21 UNL     1      21.613  29.235  16.389  0.00  0.00    +0.120 A 
ATOM     26  C23 UNL     1      21.508  28.315  15.344  0.00  0.00    +0.046 A 
ATOM     27  C24 UNL     1      21.210  26.975  15.600  0.00  0.00    +0.009 A 
BRANCH  25  28
ATOM     28  O5  UNL     1      21.912  30.511  15.999  0.00  0.00    -0.495 OA
ATOM     29  C22 UNL     1      23.108  30.693  15.253  0.00  0.00    +0.277 C 
ENDBRANCH  25  28
ENDBRANCH  12  22
BRANCH   1  30
ATOM     30  C3  UNL     1      23.094  24.252  17.293  0.00  0.00    +0.339 C 
ATOM     31  O2  UNL     1      23.374  23.406  16.458  0.00  0.00    -0.245 OA
BRANCH  30  32
ATOM     32  O1  UNL     1      23.923  25.217  17.763  0.00  0.00    -0.462 OA
BRANCH  32  34
ATOM     33  C1  UNL     1      24.985  27.257  17.012  0.00  0.00    +0.048 C 
ATOM     34  C2  UNL     1      24.850  25.759  16.811  0.00  0.00    +0.229 C 
ENDBRANCH  32  34
ENDBRANCH  30  32
ENDBRANCH   1  30
TORSDOF 7
ENDMDL
