MODEL 1
REMARK VINA RESULT:    -3.099      0.000      0.000
REMARK INTER + INTRA:          -3.330
REMARK INTER:                  -3.280
REMARK INTRA:                  -0.050
REMARK UNBOUND:                -0.050
REMARK  Name = /home/vital/Documents/PhD_2021/Malaria_codes/data/pdb_ligands_mmv/ligand_383.pdb
REMARK  2 active torsions:
REMARK  status: ('A' for Active; 'I' for Inactive)
REMARK    1  A    between atoms: C1_1  and  C2_2
REMARK    2  A    between atoms: C2_2  and  N1_3
REMARK                            x       y       z     vdW  Elec       q    Type
REMARK                         _______ _______ _______ _____ _____    ______ ____
ROOT
ATOM      1  N1  UNL     1      18.193  25.672  16.539  0.00  0.00    -0.347 N 
ATOM      2  C3  UNL     1      18.199  24.741  17.576  0.00  0.00    +0.024 A 
ATOM      3  C4  UNL     1      17.199  23.898  17.853  0.00  0.00    -0.003 A 
ATOM      4  C5  UNL     1      17.461  23.026  19.024  0.00  0.00    +0.039 C 
ATOM      5  C6  UNL     1      18.958  23.228  19.242  0.00  0.00    +0.011 C 
ATOM      6  C7  UNL     1      19.317  24.551  18.560  0.00  0.00    +0.054 C 
ATOM      7  C8  UNL     1      15.987  23.909  17.020  0.00  0.00    +0.065 A 
ATOM      8  N2  UNL     1      14.973  23.133  17.239  0.00  0.00    -0.299 NA
ATOM      9  C9  UNL     1      15.979  24.892  15.885  0.00  0.00    -0.003 A 
ATOM     10  C10 UNL     1      17.039  25.723  15.711  0.00  0.00    +0.024 A 
ATOM     11  C11 UNL     1      16.985  26.762  14.597  0.00  0.00    +0.054 C 
ATOM     12  C12 UNL     1      15.614  26.954  13.947  0.00  0.00    +0.006 C 
ATOM     13  C13 UNL     1      14.942  25.618  13.691  0.00  0.00    +0.005 C 
ATOM     14  C14 UNL     1      14.758  24.862  15.003  0.00  0.00    +0.039 C 
ATOM     15  H12 UNL     1      15.140  22.534  18.051  0.00  0.00    +0.187 HD
ENDROOT
BRANCH   1  17
ATOM     16  C1  UNL     1      19.369  27.789  17.036  0.00  0.00    +0.027 C 
ATOM     17  C2  UNL     1      19.402  26.477  16.264  0.00  0.00    +0.118 C 
ENDBRANCH   1  17
TORSDOF 1
ENDMDL
MODEL 2
REMARK VINA RESULT:    -2.920      1.477      2.309
REMARK INTER + INTRA:          -3.140
REMARK INTER:                  -3.062
REMARK INTRA:                  -0.079
REMARK UNBOUND:                -0.050
REMARK  Name = /home/vital/Documents/PhD_2021/Malaria_codes/data/pdb_ligands_mmv/ligand_383.pdb
REMARK  2 active torsions:
REMARK  status: ('A' for Active; 'I' for Inactive)
REMARK    1  A    between atoms: C1_1  and  C2_2
REMARK    2  A    between atoms: C2_2  and  N1_3
REMARK                            x       y       z     vdW  Elec       q    Type
REMARK                         _______ _______ _______ _____ _____    ______ ____
ROOT
ATOM      1  N1  UNL     1      18.305  26.902  15.336  0.00  0.00    -0.347 N 
ATOM      2  C3  UNL     1      19.142  26.431  16.346  0.00  0.00    +0.024 A 
ATOM      3  C4  UNL     1      18.857  25.411  17.161  0.00  0.00    -0.003 A 
ATOM      4  C5  UNL     1      19.918  25.131  18.160  0.00  0.00    +0.039 C 
ATOM      5  C6  UNL     1      21.089  25.944  17.614  0.00  0.00    +0.011 C 
ATOM      6  C7  UNL     1      20.484  27.008  16.694  0.00  0.00    +0.054 C 
ATOM      7  C8  UNL     1      17.582  24.693  17.009  0.00  0.00    +0.065 A 
ATOM      8  N2  UNL     1      17.233  23.706  17.773  0.00  0.00    -0.299 NA
ATOM      9  C9  UNL     1      16.683  25.177  15.909  0.00  0.00    -0.003 A 
ATOM     10  C10 UNL     1      17.059  26.243  15.156  0.00  0.00    +0.024 A 
ATOM     11  C11 UNL     1      16.104  26.764  14.089  0.00  0.00    +0.054 C 
ATOM     12  C12 UNL     1      14.682  26.202  14.151  0.00  0.00    +0.006 C 
ATOM     13  C13 UNL     1      14.702  24.706  14.403  0.00  0.00    +0.005 C 
ATOM     14  C14 UNL     1      15.404  24.404  15.723  0.00  0.00    +0.039 C 
ATOM     15  H12 UNL     1      17.954  23.512  18.471  0.00  0.00    +0.187 HD
ENDROOT
BRANCH   1  17
ATOM     16  C1  UNL     1      19.692  27.403  13.351  0.00  0.00    +0.027 C 
ATOM     17  C2  UNL     1      18.775  27.970  14.427  0.00  0.00    +0.118 C 
ENDBRANCH   1  17
TORSDOF 1
ENDMDL
MODEL 3
REMARK VINA RESULT:    -2.866      2.403      4.833
REMARK INTER + INTRA:          -3.084
REMARK INTER:                  -2.978
REMARK INTRA:                  -0.106
REMARK UNBOUND:                -0.050
REMARK  Name = /home/vital/Documents/PhD_2021/Malaria_codes/data/pdb_ligands_mmv/ligand_383.pdb
REMARK  2 active torsions:
REMARK  status: ('A' for Active; 'I' for Inactive)
REMARK    1  A    between atoms: C1_1  and  C2_2
REMARK    2  A    between atoms: C2_2  and  N1_3
REMARK                            x       y       z     vdW  Elec       q    Type
REMARK                         _______ _______ _______ _____ _____    ______ ____
ROOT
ATOM      1  N1  UNL     1      16.624  27.698  13.734  0.00  0.00    -0.347 N 
ATOM      2  C3  UNL     1      15.850  26.672  14.276  0.00  0.00    +0.024 A 
ATOM      3  C4  UNL     1      16.273  25.802  15.199  0.00  0.00    -0.003 A 
ATOM      4  C5  UNL     1      15.249  24.801  15.588  0.00  0.00    +0.039 C 
ATOM      5  C6  UNL     1      13.977  25.400  14.991  0.00  0.00    +0.011 C 
ATOM      6  C7  UNL     1      14.431  26.368  13.895  0.00  0.00    +0.054 C 
ATOM      7  C8  UNL     1      17.644  25.905  15.721  0.00  0.00    +0.065 A 
ATOM      8  N2  UNL     1      18.125  25.087  16.604  0.00  0.00    -0.299 NA
ATOM      9  C9  UNL     1      18.478  27.020  15.161  0.00  0.00    -0.003 A 
ATOM     10  C10 UNL     1      17.959  27.830  14.204  0.00  0.00    +0.024 A 
ATOM     11  C11 UNL     1      18.842  28.914  13.597  0.00  0.00    +0.054 C 
ATOM     12  C12 UNL     1      20.331  28.808  13.932  0.00  0.00    +0.006 C 
ATOM     13  C13 UNL     1      20.535  28.479  15.399  0.00  0.00    +0.005 C 
ATOM     14  C14 UNL     1      19.864  27.152  15.738  0.00  0.00    +0.039 C 
ATOM     15  H12 UNL     1      17.430  24.387  16.871  0.00  0.00    +0.187 HD
ENDROOT
BRANCH   1  17
ATOM     16  C1  UNL     1      15.320  29.791  13.554  0.00  0.00    +0.027 C 
ATOM     17  C2  UNL     1      16.014  28.665  12.797  0.00  0.00    +0.118 C 
ENDBRANCH   1  17
TORSDOF 1
ENDMDL
MODEL 4
REMARK VINA RESULT:    -2.843      1.213      4.310
REMARK INTER + INTRA:          -3.059
REMARK INTER:                  -3.009
REMARK INTRA:                  -0.050
REMARK UNBOUND:                -0.050
REMARK  Name = /home/vital/Documents/PhD_2021/Malaria_codes/data/pdb_ligands_mmv/ligand_383.pdb
REMARK  2 active torsions:
REMARK  status: ('A' for Active; 'I' for Inactive)
REMARK    1  A    between atoms: C1_1  and  C2_2
REMARK    2  A    between atoms: C2_2  and  N1_3
REMARK                            x       y       z     vdW  Elec       q    Type
REMARK                         _______ _______ _______ _____ _____    ______ ____
ROOT
ATOM      1  N1  UNL     1      17.239  26.457  15.737  0.00  0.00    -0.347 N 
ATOM      2  C3  UNL     1      15.893  26.340  15.396  0.00  0.00    +0.024 A 
ATOM      3  C4  UNL     1      15.071  25.386  15.843  0.00  0.00    -0.003 A 
ATOM      4  C5  UNL     1      13.691  25.487  15.308  0.00  0.00    +0.039 C 
ATOM      5  C6  UNL     1      13.690  26.886  14.697  0.00  0.00    +0.011 C 
ATOM      6  C7  UNL     1      15.157  27.253  14.458  0.00  0.00    +0.054 C 
ATOM      7  C8  UNL     1      15.578  24.368  16.777  0.00  0.00    +0.065 A 
ATOM      8  N2  UNL     1      14.844  23.406  17.239  0.00  0.00    -0.299 NA
ATOM      9  C9  UNL     1      17.021  24.498  17.169  0.00  0.00    -0.003 A 
ATOM     10  C10 UNL     1      17.775  25.491  16.631  0.00  0.00    +0.024 A 
ATOM     11  C11 UNL     1      19.256  25.567  16.986  0.00  0.00    +0.054 C 
ATOM     12  C12 UNL     1      19.819  24.341  17.707  0.00  0.00    +0.006 C 
ATOM     13  C13 UNL     1      18.865  23.859  18.784  0.00  0.00    +0.005 C 
ATOM     14  C14 UNL     1      17.521  23.486  18.166  0.00  0.00    +0.039 C 
ATOM     15  H12 UNL     1      13.893  23.462  16.867  0.00  0.00    +0.187 HD
ENDROOT
BRANCH   1  17
ATOM     16  C1  UNL     1      18.698  27.313  13.933  0.00  0.00    +0.027 C 
ATOM     17  C2  UNL     1      18.022  27.619  15.263  0.00  0.00    +0.118 C 
ENDBRANCH   1  17
TORSDOF 1
ENDMDL
MODEL 5
REMARK VINA RESULT:    -2.817      3.275      4.693
REMARK INTER + INTRA:          -3.032
REMARK INTER:                  -3.010
REMARK INTRA:                  -0.022
REMARK UNBOUND:                -0.050
REMARK  Name = /home/vital/Documents/PhD_2021/Malaria_codes/data/pdb_ligands_mmv/ligand_383.pdb
REMARK  2 active torsions:
REMARK  status: ('A' for Active; 'I' for Inactive)
REMARK    1  A    between atoms: C1_1  and  C2_2
REMARK    2  A    between atoms: C2_2  and  N1_3
REMARK                            x       y       z     vdW  Elec       q    Type
REMARK                         _______ _______ _______ _____ _____    ______ ____
ROOT
ATOM      1  N1  UNL     1      15.573  28.502  15.743  0.00  0.00    -0.347 N 
ATOM      2  C3  UNL     1      15.536  29.193  16.953  0.00  0.00    +0.024 A 
ATOM      3  C4  UNL     1      15.287  28.638  18.144  0.00  0.00    -0.003 A 
ATOM      4  C5  UNL     1      15.291  29.607  19.266  0.00  0.00    +0.039 C 
ATOM      5  C6  UNL     1      15.927  30.837  18.622  0.00  0.00    +0.011 C 
ATOM      6  C7  UNL     1      15.749  30.671  17.110  0.00  0.00    +0.054 C 
ATOM      7  C8  UNL     1      15.040  27.190  18.233  0.00  0.00    +0.065 A 
ATOM      8  N2  UNL     1      14.776  26.588  19.350  0.00  0.00    -0.299 NA
ATOM      9  C9  UNL     1      15.099  26.432  16.939  0.00  0.00    -0.003 A 
ATOM     10  C10 UNL     1      15.332  27.101  15.781  0.00  0.00    +0.024 A 
ATOM     11  C11 UNL     1      15.321  26.327  14.468  0.00  0.00    +0.054 C 
ATOM     12  C12 UNL     1      14.771  24.902  14.553  0.00  0.00    +0.006 C 
ATOM     13  C13 UNL     1      15.303  24.188  15.783  0.00  0.00    +0.005 C 
ATOM     14  C14 UNL     1      14.898  24.943  17.045  0.00  0.00    +0.039 C 
ATOM     15  H12 UNL     1      14.767  27.250  20.129  0.00  0.00    +0.187 HD
ENDROOT
BRANCH   1  17
ATOM     16  C1  UNL     1      14.774  29.927  13.887  0.00  0.00    +0.027 C 
ATOM     17  C2  UNL     1      15.966  29.205  14.504  0.00  0.00    +0.118 C 
ENDBRANCH   1  17
TORSDOF 1
ENDMDL
MODEL 6
REMARK VINA RESULT:    -2.811      3.250      5.310
REMARK INTER + INTRA:          -3.025
REMARK INTER:                  -2.917
REMARK INTRA:                  -0.108
REMARK UNBOUND:                -0.050
REMARK  Name = /home/vital/Documents/PhD_2021/Malaria_codes/data/pdb_ligands_mmv/ligand_383.pdb
REMARK  2 active torsions:
REMARK  status: ('A' for Active; 'I' for Inactive)
REMARK    1  A    between atoms: C1_1  and  C2_2
REMARK    2  A    between atoms: C2_2  and  N1_3
REMARK                            x       y       z     vdW  Elec       q    Type
REMARK                         _______ _______ _______ _____ _____    ______ ____
ROOT
ATOM      1  N1  UNL     1      15.488  27.778  17.245  0.00  0.00    -0.347 N 
ATOM      2  C3  UNL     1      15.680  29.067  16.750  0.00  0.00    +0.024 A 
ATOM      3  C4  UNL     1      15.757  29.385  15.454  0.00  0.00    -0.003 A 
ATOM      4  C5  UNL     1      15.983  30.830  15.207  0.00  0.00    +0.039 C 
ATOM      5  C6  UNL     1      15.697  31.435  16.579  0.00  0.00    +0.011 C 
ATOM      6  C7  UNL     1      15.853  30.298  17.592  0.00  0.00    +0.054 C 
ATOM      7  C8  UNL     1      15.622  28.330  14.438  0.00  0.00    +0.065 A 
ATOM      8  N2  UNL     1      15.702  28.563  13.166  0.00  0.00    -0.299 NA
ATOM      9  C9  UNL     1      15.391  26.942  14.959  0.00  0.00    -0.003 A 
ATOM     10  C10 UNL     1      15.359  26.725  16.299  0.00  0.00    +0.024 A 
ATOM     11  C11 UNL     1      15.193  25.299  16.811  0.00  0.00    +0.054 C 
ATOM     12  C12 UNL     1      15.355  24.202  15.757  0.00  0.00    +0.006 C 
ATOM     13  C13 UNL     1      14.637  24.573  14.473  0.00  0.00    +0.005 C 
ATOM     14  C14 UNL     1      15.200  25.875  13.913  0.00  0.00    +0.039 C 
ATOM     15  H12 UNL     1      15.867  29.556  12.985  0.00  0.00    +0.187 HD
ENDROOT
BRANCH   1  17
ATOM     16  C1  UNL     1      13.848  27.705  19.094  0.00  0.00    +0.027 C 
ATOM     17  C2  UNL     1      15.312  27.564  18.698  0.00  0.00    +0.118 C 
ENDBRANCH   1  17
TORSDOF 1
ENDMDL
MODEL 7
REMARK VINA RESULT:    -2.718      3.501      5.135
REMARK INTER + INTRA:          -2.927
REMARK INTER:                  -2.824
REMARK INTRA:                  -0.103
REMARK UNBOUND:                -0.050
REMARK  Name = /home/vital/Documents/PhD_2021/Malaria_codes/data/pdb_ligands_mmv/ligand_383.pdb
REMARK  2 active torsions:
REMARK  status: ('A' for Active; 'I' for Inactive)
REMARK    1  A    between atoms: C1_1  and  C2_2
REMARK    2  A    between atoms: C2_2  and  N1_3
REMARK                            x       y       z     vdW  Elec       q    Type
REMARK                         _______ _______ _______ _____ _____    ______ ____
ROOT
ATOM      1  N1  UNL     1      16.079  27.819  14.957  0.00  0.00    -0.347 N 
ATOM      2  C3  UNL     1      16.079  27.723  16.348  0.00  0.00    +0.024 A 
ATOM      3  C4  UNL     1      15.866  28.745  17.183  0.00  0.00    -0.003 A 
ATOM      4  C5  UNL     1      15.939  28.367  18.616  0.00  0.00    +0.039 C 
ATOM      5  C6  UNL     1      15.903  26.843  18.546  0.00  0.00    +0.011 C 
ATOM      6  C7  UNL     1      16.340  26.467  17.127  0.00  0.00    +0.054 C 
ATOM      7  C8  UNL     1      15.593  30.084  16.640  0.00  0.00    +0.065 A 
ATOM      8  N2  UNL     1      15.393  31.122  17.390  0.00  0.00    -0.299 NA
ATOM      9  C9  UNL     1      15.568  30.193  15.144  0.00  0.00    -0.003 A 
ATOM     10  C10 UNL     1      15.827  29.096  14.387  0.00  0.00    +0.024 A 
ATOM     11  C11 UNL     1      15.866  29.239  12.870  0.00  0.00    +0.054 C 
ATOM     12  C12 UNL     1      15.879  30.678  12.349  0.00  0.00    +0.006 C 
ATOM     13  C13 UNL     1      14.888  31.540  13.109  0.00  0.00    +0.005 C 
ATOM     14  C14 UNL     1      15.236  31.556  14.593  0.00  0.00    +0.039 C 
ATOM     15  H12 UNL     1      15.452  30.873  18.381  0.00  0.00    +0.187 HD
ENDROOT
BRANCH   1  17
ATOM     16  C1  UNL     1      14.878  25.901  13.960  0.00  0.00    +0.027 C 
ATOM     17  C2  UNL     1      16.221  26.598  14.134  0.00  0.00    +0.118 C 
ENDBRANCH   1  17
TORSDOF 1
ENDMDL
MODEL 8
REMARK VINA RESULT:    -2.678      3.055      5.605
REMARK INTER + INTRA:          -2.885
REMARK INTER:                  -2.839
REMARK INTRA:                  -0.046
REMARK UNBOUND:                -0.050
REMARK  Name = /home/vital/Documents/PhD_2021/Malaria_codes/data/pdb_ligands_mmv/ligand_383.pdb
REMARK  2 active torsions:
REMARK  status: ('A' for Active; 'I' for Inactive)
REMARK    1  A    between atoms: C1_1  and  C2_2
REMARK    2  A    between atoms: C2_2  and  N1_3
REMARK                            x       y       z     vdW  Elec       q    Type
REMARK                         _______ _______ _______ _____ _____    ______ ____
ROOT
ATOM      1  N1  UNL     1      15.398  28.804  16.556  0.00  0.00    -0.347 N 
ATOM      2  C3  UNL     1      15.370  29.442  15.317  0.00  0.00    +0.024 A 
ATOM      3  C4  UNL     1      15.309  28.818  14.136  0.00  0.00    -0.003 A 
ATOM      4  C5  UNL     1      15.310  29.739  12.974  0.00  0.00    +0.039 C 
ATOM      5  C6  UNL     1      15.040  31.087  13.637  0.00  0.00    +0.011 C 
ATOM      6  C7  UNL     1      15.427  30.928  15.110  0.00  0.00    +0.054 C 
ATOM      7  C8  UNL     1      15.251  27.348  14.093  0.00  0.00    +0.065 A 
ATOM      8  N2  UNL     1      15.206  26.677  12.986  0.00  0.00    -0.299 NA
ATOM      9  C9  UNL     1      15.257  26.652  15.423  0.00  0.00    -0.003 A 
ATOM     10  C10 UNL     1      15.351  27.383  16.562  0.00  0.00    +0.024 A 
ATOM     11  C11 UNL     1      15.426  26.657  17.900  0.00  0.00    +0.054 C 
ATOM     12  C12 UNL     1      15.666  25.148  17.813  0.00  0.00    +0.006 C 
ATOM     13  C13 UNL     1      14.812  24.525  16.724  0.00  0.00    +0.005 C 
ATOM     14  C14 UNL     1      15.144  25.150  15.374  0.00  0.00    +0.039 C 
ATOM     15  H12 UNL     1      15.216  27.303  12.178  0.00  0.00    +0.187 HD
ENDROOT
BRANCH   1  17
ATOM     16  C1  UNL     1      16.765  29.951  18.268  0.00  0.00    +0.027 C 
ATOM     17  C2  UNL     1      15.358  29.604  17.798  0.00  0.00    +0.118 C 
ENDBRANCH   1  17
TORSDOF 1
ENDMDL
