MODEL 1
REMARK VINA RESULT:    -3.325      0.000      0.000
REMARK INTER + INTRA:          -4.062
REMARK INTER:                  -3.811
REMARK INTRA:                  -0.251
REMARK UNBOUND:                -0.251
REMARK  Name = /home/vital/Documents/PhD_2021/Malaria_codes/data/pdb_ligands_mmv/ligand_59.pdb
REMARK  5 active torsions:
REMARK  status: ('A' for Active; 'I' for Inactive)
REMARK    1  A    between atoms: C1_1  and  C2_2
REMARK    2  A    between atoms: C2_2  and  C3_3
REMARK    3  A    between atoms: C3_3  and  C4_4
REMARK    4  A    between atoms: C6_6  and  O1_7
REMARK    5  A    between atoms: N1_12  and  C11_13
REMARK                            x       y       z     vdW  Elec       q    Type
REMARK                         _______ _______ _______ _____ _____    ______ ____
ROOT
ATOM      1  C4  UNL     1      15.689  26.790  14.146  0.00  0.00    -0.040 A 
ATOM      2  C5  UNL     1      17.062  27.053  14.201  0.00  0.00    +0.050 A 
ATOM      3  C6  UNL     1      17.542  28.372  14.183  0.00  0.00    +0.128 A 
ATOM      4  C7  UNL     1      16.669  29.473  14.122  0.00  0.00    +0.062 A 
ATOM      5  C8  UNL     1      17.057  30.898  14.109  0.00  0.00    -0.021 A 
ATOM      6  C9  UNL     1      16.109  31.848  13.970  0.00  0.00    +0.055 A 
ATOM      7  C10 UNL     1      16.421  33.323  13.890  0.00  0.00    +0.126 C 
ATOM      8  N1  UNL     1      17.834  33.664  13.641  0.00  0.00    -0.301 NA
ATOM      9  C11 UNL     1      18.171  33.574  12.220  0.00  0.00    +0.105 C 
ATOM     10  C12 UNL     1      18.703  32.820  14.470  0.00  0.00    +0.089 C 
ATOM     11  C13 UNL     1      18.505  31.307  14.258  0.00  0.00    +0.052 C 
ATOM     12  C14 UNL     1      14.669  31.524  13.892  0.00  0.00    +0.342 A 
ATOM     13  O2  UNL     1      13.811  32.392  13.781  0.00  0.00    -0.245 OA
ATOM     14  O3  UNL     1      14.329  30.185  13.966  0.00  0.00    -0.422 OA
ATOM     15  C15 UNL     1      15.305  29.175  14.061  0.00  0.00    +0.143 A 
ATOM     16  C16 UNL     1      14.807  27.868  14.077  0.00  0.00    +0.051 A 
ENDROOT
BRANCH   3  17
ATOM     17  O1  UNL     1      18.899  28.557  14.213  0.00  0.00    -0.506 OA
ATOM     18  H9  UNL     1      19.342  27.693  14.230  0.00  0.00    +0.292 HD
ENDBRANCH   3  17
BRANCH   1  19
ATOM     19  C3  UNL     1      15.171  25.375  14.185  0.00  0.00    +0.035 C 
BRANCH  19  21
ATOM     20  C1  UNL     1      14.770  25.011  16.645  0.00  0.00    +0.004 C 
ATOM     21  C2  UNL     1      15.627  24.641  15.446  0.00  0.00    +0.001 C 
ENDBRANCH  19  21
ENDBRANCH   1  19
TORSDOF 3
ENDMDL
MODEL 2
REMARK VINA RESULT:    -3.237      3.751      6.804
REMARK INTER + INTRA:          -3.962
REMARK INTER:                  -3.723
REMARK INTRA:                  -0.238
REMARK UNBOUND:                -0.251
REMARK  Name = /home/vital/Documents/PhD_2021/Malaria_codes/data/pdb_ligands_mmv/ligand_59.pdb
REMARK  5 active torsions:
REMARK  status: ('A' for Active; 'I' for Inactive)
REMARK    1  A    between atoms: C1_1  and  C2_2
REMARK    2  A    between atoms: C2_2  and  C3_3
REMARK    3  A    between atoms: C3_3  and  C4_4
REMARK    4  A    between atoms: C6_6  and  O1_7
REMARK    5  A    between atoms: N1_12  and  C11_13
REMARK                            x       y       z     vdW  Elec       q    Type
REMARK                         _______ _______ _______ _____ _____    ______ ____
ROOT
ATOM      1  C4  UNL     1      16.389  28.336  13.368  0.00  0.00    -0.040 A 
ATOM      2  C5  UNL     1      17.548  28.591  14.111  0.00  0.00    +0.050 A 
ATOM      3  C6  UNL     1      17.982  27.688  15.095  0.00  0.00    +0.128 A 
ATOM      4  C7  UNL     1      17.283  26.497  15.362  0.00  0.00    +0.062 A 
ATOM      5  C8  UNL     1      17.650  25.472  16.361  0.00  0.00    -0.021 A 
ATOM      6  C9  UNL     1      16.839  24.413  16.561  0.00  0.00    +0.055 A 
ATOM      7  C10 UNL     1      17.107  23.350  17.599  0.00  0.00    +0.126 C 
ATOM      8  N1  UNL     1      18.125  23.689  18.612  0.00  0.00    -0.301 NA
ATOM      9  C11 UNL     1      17.568  24.514  19.684  0.00  0.00    +0.105 C 
ATOM     10  C12 UNL     1      19.277  24.327  17.965  0.00  0.00    +0.089 C 
ATOM     11  C13 UNL     1      18.930  25.591  17.157  0.00  0.00    +0.052 C 
ATOM     12  C14 UNL     1      15.610  24.196  15.769  0.00  0.00    +0.342 A 
ATOM     13  O2  UNL     1      14.885  23.224  15.945  0.00  0.00    -0.245 OA
ATOM     14  O3  UNL     1      15.321  25.140  14.800  0.00  0.00    -0.422 OA
ATOM     15  C15 UNL     1      16.127  26.278  14.608  0.00  0.00    +0.143 A 
ATOM     16  C16 UNL     1      15.678  27.165  13.624  0.00  0.00    +0.051 A 
ENDROOT
BRANCH   3  17
ATOM     17  O1  UNL     1      19.110  28.010  15.802  0.00  0.00    -0.506 OA
ATOM     18  H9  UNL     1      19.247  27.358  16.508  0.00  0.00    +0.292 HD
ENDBRANCH   3  17
BRANCH   1  19
ATOM     19  C3  UNL     1      15.932  29.295  12.298  0.00  0.00    +0.035 C 
BRANCH  19  21
ATOM     20  C1  UNL     1      15.001  31.488  13.117  0.00  0.00    +0.004 C 
ATOM     21  C2  UNL     1      16.248  30.745  12.667  0.00  0.00    +0.001 C 
ENDBRANCH  19  21
ENDBRANCH   1  19
TORSDOF 3
ENDMDL
MODEL 3
REMARK VINA RESULT:    -3.193      3.669      6.942
REMARK INTER + INTRA:          -3.911
REMARK INTER:                  -3.731
REMARK INTRA:                  -0.179
REMARK UNBOUND:                -0.251
REMARK  Name = /home/vital/Documents/PhD_2021/Malaria_codes/data/pdb_ligands_mmv/ligand_59.pdb
REMARK  5 active torsions:
REMARK  status: ('A' for Active; 'I' for Inactive)
REMARK    1  A    between atoms: C1_1  and  C2_2
REMARK    2  A    between atoms: C2_2  and  C3_3
REMARK    3  A    between atoms: C3_3  and  C4_4
REMARK    4  A    between atoms: C6_6  and  O1_7
REMARK    5  A    between atoms: N1_12  and  C11_13
REMARK                            x       y       z     vdW  Elec       q    Type
REMARK                         _______ _______ _______ _____ _____    ______ ____
ROOT
ATOM      1  C4  UNL     1      15.751  28.686  13.543  0.00  0.00    -0.040 A 
ATOM      2  C5  UNL     1      15.516  27.386  13.081  0.00  0.00    +0.050 A 
ATOM      3  C6  UNL     1      15.623  26.286  13.947  0.00  0.00    +0.128 A 
ATOM      4  C7  UNL     1      15.954  26.447  15.304  0.00  0.00    +0.062 A 
ATOM      5  C8  UNL     1      16.083  25.370  16.307  0.00  0.00    -0.021 A 
ATOM      6  C9  UNL     1      16.484  25.667  17.560  0.00  0.00    +0.055 A 
ATOM      7  C10 UNL     1      16.697  24.624  18.631  0.00  0.00    +0.126 C 
ATOM      8  N1  UNL     1      16.764  23.228  18.157  0.00  0.00    -0.301 NA
ATOM      9  C11 UNL     1      18.092  22.892  17.647  0.00  0.00    +0.105 C 
ATOM     10  C12 UNL     1      15.711  22.990  17.162  0.00  0.00    +0.089 C 
ATOM     11  C13 UNL     1      15.762  23.936  15.949  0.00  0.00    +0.052 C 
ATOM     12  C14 UNL     1      16.745  27.054  18.000  0.00  0.00    +0.342 A 
ATOM     13  O2  UNL     1      17.094  27.319  19.144  0.00  0.00    -0.245 OA
ATOM     14  O3  UNL     1      16.559  28.050  17.057  0.00  0.00    -0.422 OA
ATOM     15  C15 UNL     1      16.189  27.756  15.731  0.00  0.00    +0.143 A 
ATOM     16  C16 UNL     1      16.089  28.865  14.884  0.00  0.00    +0.051 A 
ENDROOT
BRANCH   3  17
ATOM     17  O1  UNL     1      15.404  25.040  13.423  0.00  0.00    -0.506 OA
ATOM     18  H9  UNL     1      14.751  24.570  13.968  0.00  0.00    +0.292 HD
ENDBRANCH   3  17
BRANCH   1  19
ATOM     19  C3  UNL     1      15.618  29.870  12.620  0.00  0.00    +0.035 C 
BRANCH  19  21
ATOM     20  C1  UNL     1      14.952  32.291  12.420  0.00  0.00    +0.004 C 
ATOM     21  C2  UNL     1      15.006  31.076  13.331  0.00  0.00    +0.001 C 
ENDBRANCH  19  21
ENDBRANCH   1  19
TORSDOF 3
ENDMDL
MODEL 4
REMARK VINA RESULT:    -3.090     17.866     18.821
REMARK INTER + INTRA:          -3.793
REMARK INTER:                  -3.540
REMARK INTRA:                  -0.253
REMARK UNBOUND:                -0.251
REMARK  Name = /home/vital/Documents/PhD_2021/Malaria_codes/data/pdb_ligands_mmv/ligand_59.pdb
REMARK  5 active torsions:
REMARK  status: ('A' for Active; 'I' for Inactive)
REMARK    1  A    between atoms: C1_1  and  C2_2
REMARK    2  A    between atoms: C2_2  and  C3_3
REMARK    3  A    between atoms: C3_3  and  C4_4
REMARK    4  A    between atoms: C6_6  and  O1_7
REMARK    5  A    between atoms: N1_12  and  C11_13
REMARK                            x       y       z     vdW  Elec       q    Type
REMARK                         _______ _______ _______ _____ _____    ______ ____
ROOT
ATOM      1  C4  UNL     1      23.896  46.932  15.658  0.00  0.00    -0.040 A 
ATOM      2  C5  UNL     1      24.631  46.556  16.788  0.00  0.00    +0.050 A 
ATOM      3  C6  UNL     1      23.990  46.329  18.017  0.00  0.00    +0.128 A 
ATOM      4  C7  UNL     1      22.597  46.459  18.156  0.00  0.00    +0.062 A 
ATOM      5  C8  UNL     1      21.817  46.236  19.391  0.00  0.00    -0.021 A 
ATOM      6  C9  UNL     1      20.489  46.473  19.395  0.00  0.00    +0.055 A 
ATOM      7  C10 UNL     1      19.625  46.327  20.625  0.00  0.00    +0.126 C 
ATOM      8  N1  UNL     1      20.351  46.228  21.906  0.00  0.00    -0.301 NA
ATOM      9  C11 UNL     1      20.743  47.544  22.409  0.00  0.00    +0.105 C 
ATOM     10  C12 UNL     1      21.500  45.326  21.759  0.00  0.00    +0.089 C 
ATOM     11  C13 UNL     1      22.487  45.735  20.651  0.00  0.00    +0.052 C 
ATOM     12  C14 UNL     1      19.757  46.894  18.182  0.00  0.00    +0.342 A 
ATOM     13  O2  UNL     1      18.547  47.094  18.188  0.00  0.00    -0.245 OA
ATOM     14  O3  UNL     1      20.502  47.038  17.025  0.00  0.00    -0.422 OA
ATOM     15  C15 UNL     1      21.896  46.844  17.011  0.00  0.00    +0.143 A 
ATOM     16  C16 UNL     1      22.515  47.074  15.778  0.00  0.00    +0.051 A 
ENDROOT
BRANCH   3  17
ATOM     17  O1  UNL     1      24.772  45.987  19.089  0.00  0.00    -0.506 OA
ATOM     18  H9  UNL     1      24.791  46.723  19.722  0.00  0.00    +0.292 HD
ENDBRANCH   3  17
BRANCH   1  19
ATOM     19  C3  UNL     1      24.580  47.157  14.333  0.00  0.00    +0.035 C 
BRANCH  19  21
ATOM     20  C1  UNL     1      24.495  45.125  12.846  0.00  0.00    +0.004 C 
ATOM     21  C2  UNL     1      23.844  46.455  13.192  0.00  0.00    +0.001 C 
ENDBRANCH  19  21
ENDBRANCH   1  19
TORSDOF 3
ENDMDL
MODEL 5
REMARK VINA RESULT:    -3.073      2.002      2.240
REMARK INTER + INTRA:          -3.774
REMARK INTER:                  -3.574
REMARK INTRA:                  -0.199
REMARK UNBOUND:                -0.251
REMARK  Name = /home/vital/Documents/PhD_2021/Malaria_codes/data/pdb_ligands_mmv/ligand_59.pdb
REMARK  5 active torsions:
REMARK  status: ('A' for Active; 'I' for Inactive)
REMARK    1  A    between atoms: C1_1  and  C2_2
REMARK    2  A    between atoms: C2_2  and  C3_3
REMARK    3  A    between atoms: C3_3  and  C4_4
REMARK    4  A    between atoms: C6_6  and  O1_7
REMARK    5  A    between atoms: N1_12  and  C11_13
REMARK                            x       y       z     vdW  Elec       q    Type
REMARK                         _______ _______ _______ _____ _____    ______ ____
ROOT
ATOM      1  C4  UNL     1      14.931  27.021  15.233  0.00  0.00    -0.040 A 
ATOM      2  C5  UNL     1      15.657  27.388  16.371  0.00  0.00    +0.050 A 
ATOM      3  C6  UNL     1      15.956  28.736  16.628  0.00  0.00    +0.128 A 
ATOM      4  C7  UNL     1      15.530  29.762  15.766  0.00  0.00    +0.062 A 
ATOM      5  C8  UNL     1      15.774  31.209  15.940  0.00  0.00    -0.021 A 
ATOM      6  C9  UNL     1      15.369  32.074  14.988  0.00  0.00    +0.055 A 
ATOM      7  C10 UNL     1      15.627  33.560  15.056  0.00  0.00    +0.126 C 
ATOM      8  N1  UNL     1      16.629  33.988  16.051  0.00  0.00    -0.301 NA
ATOM      9  C11 UNL     1      17.994  33.833  15.548  0.00  0.00    +0.105 C 
ATOM     10  C12 UNL     1      16.419  33.266  17.312  0.00  0.00    +0.089 C 
ATOM     11  C13 UNL     1      16.465  31.733  17.178  0.00  0.00    +0.052 C 
ATOM     12  C14 UNL     1      14.625  31.639  13.787  0.00  0.00    +0.342 A 
ATOM     13  O2  UNL     1      14.246  32.432  12.933  0.00  0.00    -0.245 OA
ATOM     14  O3  UNL     1      14.357  30.286  13.679  0.00  0.00    -0.422 OA
ATOM     15  C15 UNL     1      14.814  29.360  14.636  0.00  0.00    +0.143 A 
ATOM     16  C16 UNL     1      14.506  28.023  14.362  0.00  0.00    +0.051 A 
ENDROOT
BRANCH   3  17
ATOM     17  O1  UNL     1      16.692  29.022  17.747  0.00  0.00    -0.506 OA
ATOM     18  H9  UNL     1      16.380  28.477  18.488  0.00  0.00    +0.292 HD
ENDBRANCH   3  17
BRANCH   1  19
ATOM     19  C3  UNL     1      14.592  25.576  14.965  0.00  0.00    +0.035 C 
BRANCH  19  21
ATOM     20  C1  UNL     1      15.616  23.471  15.895  0.00  0.00    +0.004 C 
ATOM     21  C2  UNL     1      14.793  24.710  16.208  0.00  0.00    +0.001 C 
ENDBRANCH  19  21
ENDBRANCH   1  19
TORSDOF 3
ENDMDL
MODEL 6
REMARK VINA RESULT:    -2.859      2.070      2.446
REMARK INTER + INTRA:          -3.528
REMARK INTER:                  -3.330
REMARK INTRA:                  -0.198
REMARK UNBOUND:                -0.251
REMARK  Name = /home/vital/Documents/PhD_2021/Malaria_codes/data/pdb_ligands_mmv/ligand_59.pdb
REMARK  5 active torsions:
REMARK  status: ('A' for Active; 'I' for Inactive)
REMARK    1  A    between atoms: C1_1  and  C2_2
REMARK    2  A    between atoms: C2_2  and  C3_3
REMARK    3  A    between atoms: C3_3  and  C4_4
REMARK    4  A    between atoms: C6_6  and  O1_7
REMARK    5  A    between atoms: N1_12  and  C11_13
REMARK                            x       y       z     vdW  Elec       q    Type
REMARK                         _______ _______ _______ _____ _____    ______ ____
ROOT
ATOM      1  C4  UNL     1      15.478  27.745  14.183  0.00  0.00    -0.040 A 
ATOM      2  C5  UNL     1      15.743  28.027  15.528  0.00  0.00    +0.050 A 
ATOM      3  C6  UNL     1      15.841  29.353  15.977  0.00  0.00    +0.128 A 
ATOM      4  C7  UNL     1      15.665  30.442  15.104  0.00  0.00    +0.062 A 
ATOM      5  C8  UNL     1      15.734  31.873  15.465  0.00  0.00    -0.021 A 
ATOM      6  C9  UNL     1      15.621  32.811  14.502  0.00  0.00    +0.055 A 
ATOM      7  C10 UNL     1      15.736  34.292  14.772  0.00  0.00    +0.126 C 
ATOM      8  N1  UNL     1      16.304  34.659  16.084  0.00  0.00    -0.301 NA
ATOM      9  C11 UNL     1      17.765  34.606  16.075  0.00  0.00    +0.105 C 
ATOM     10  C12 UNL     1      15.725  33.810  17.132  0.00  0.00    +0.089 C 
ATOM     11  C13 UNL     1      15.921  32.300  16.903  0.00  0.00    +0.052 C 
ATOM     12  C14 UNL     1      15.365  32.467  13.088  0.00  0.00    +0.342 A 
ATOM     13  O2  UNL     1      15.248  33.325  12.220  0.00  0.00    -0.245 OA
ATOM     14  O3  UNL     1      15.245  31.122  12.787  0.00  0.00    -0.422 OA
ATOM     15  C15 UNL     1      15.410  30.125  13.768  0.00  0.00    +0.143 A 
ATOM     16  C16 UNL     1      15.309  28.811  13.300  0.00  0.00    +0.051 A 
ENDROOT
BRANCH   3  17
ATOM     17  O1  UNL     1      16.127  29.558  17.301  0.00  0.00    -0.506 OA
ATOM     18  H9  UNL     1      15.360  29.963  17.739  0.00  0.00    +0.292 HD
ENDBRANCH   3  17
BRANCH   1  19
ATOM     19  C3  UNL     1      15.353  26.322  13.702  0.00  0.00    +0.035 C 
BRANCH  19  21
ATOM     20  C1  UNL     1      15.042  24.177  14.986  0.00  0.00    +0.004 C 
ATOM     21  C2  UNL     1      14.416  25.505  14.593  0.00  0.00    +0.001 C 
ENDBRANCH  19  21
ENDBRANCH   1  19
TORSDOF 3
ENDMDL
MODEL 7
REMARK VINA RESULT:    -2.754     17.370     18.699
REMARK INTER + INTRA:          -3.407
REMARK INTER:                  -3.203
REMARK INTRA:                  -0.205
REMARK UNBOUND:                -0.251
REMARK  Name = /home/vital/Documents/PhD_2021/Malaria_codes/data/pdb_ligands_mmv/ligand_59.pdb
REMARK  5 active torsions:
REMARK  status: ('A' for Active; 'I' for Inactive)
REMARK    1  A    between atoms: C1_1  and  C2_2
REMARK    2  A    between atoms: C2_2  and  C3_3
REMARK    3  A    between atoms: C3_3  and  C4_4
REMARK    4  A    between atoms: C6_6  and  O1_7
REMARK    5  A    between atoms: N1_12  and  C11_13
REMARK                            x       y       z     vdW  Elec       q    Type
REMARK                         _______ _______ _______ _____ _____    ______ ____
ROOT
ATOM      1  C4  UNL     1      19.990  47.313  19.872  0.00  0.00    -0.040 A 
ATOM      2  C5  UNL     1      21.305  47.105  20.304  0.00  0.00    +0.050 A 
ATOM      3  C6  UNL     1      22.334  46.864  19.379  0.00  0.00    +0.128 A 
ATOM      4  C7  UNL     1      22.089  46.835  17.995  0.00  0.00    +0.062 A 
ATOM      5  C8  UNL     1      23.090  46.604  16.933  0.00  0.00    -0.021 A 
ATOM      6  C9  UNL     1      22.694  46.527  15.646  0.00  0.00    +0.055 A 
ATOM      7  C10 UNL     1      23.639  46.238  14.504  0.00  0.00    +0.126 C 
ATOM      8  N1  UNL     1      24.965  45.717  14.891  0.00  0.00    -0.301 NA
ATOM      9  C11 UNL     1      24.927  44.278  15.149  0.00  0.00    +0.105 C 
ATOM     10  C12 UNL     1      25.481  46.472  16.039  0.00  0.00    +0.089 C 
ATOM     11  C13 UNL     1      24.557  46.460  17.271  0.00  0.00    +0.052 C 
ATOM     12  C14 UNL     1      21.288  46.729  15.237  0.00  0.00    +0.342 A 
ATOM     13  O2  UNL     1      20.937  46.674  14.064  0.00  0.00    -0.245 OA
ATOM     14  O3  UNL     1      20.381  47.004  16.245  0.00  0.00    -0.422 OA
ATOM     15  C15 UNL     1      20.764  47.039  17.599  0.00  0.00    +0.143 A 
ATOM     16  C16 UNL     1      19.726  47.280  18.504  0.00  0.00    +0.051 A 
ENDROOT
BRANCH   3  17
ATOM     17  O1  UNL     1      23.594  46.644  19.871  0.00  0.00    -0.506 OA
ATOM     18  H9  UNL     1      24.203  47.308  19.508  0.00  0.00    +0.292 HD
ENDBRANCH   3  17
BRANCH   1  19
ATOM     19  C3  UNL     1      18.888  47.590  20.862  0.00  0.00    +0.035 C 
BRANCH  19  21
ATOM     20  C1  UNL     1      18.486  46.599  23.143  0.00  0.00    +0.004 C 
ATOM     21  C2  UNL     1      19.386  47.492  22.304  0.00  0.00    +0.001 C 
ENDBRANCH  19  21
ENDBRANCH   1  19
TORSDOF 3
ENDMDL
MODEL 8
REMARK VINA RESULT:    -2.411      4.327      7.237
REMARK INTER + INTRA:          -3.014
REMARK INTER:                  -2.753
REMARK INTRA:                  -0.262
REMARK UNBOUND:                -0.251
REMARK  Name = /home/vital/Documents/PhD_2021/Malaria_codes/data/pdb_ligands_mmv/ligand_59.pdb
REMARK  5 active torsions:
REMARK  status: ('A' for Active; 'I' for Inactive)
REMARK    1  A    between atoms: C1_1  and  C2_2
REMARK    2  A    between atoms: C2_2  and  C3_3
REMARK    3  A    between atoms: C3_3  and  C4_4
REMARK    4  A    between atoms: C6_6  and  O1_7
REMARK    5  A    between atoms: N1_12  and  C11_13
REMARK                            x       y       z     vdW  Elec       q    Type
REMARK                         _______ _______ _______ _____ _____    ______ ____
ROOT
ATOM      1  C4  UNL     1      16.457  27.266  14.206  0.00  0.00    -0.040 A 
ATOM      2  C5  UNL     1      15.925  26.233  14.987  0.00  0.00    +0.050 A 
ATOM      3  C6  UNL     1      16.726  25.554  15.920  0.00  0.00    +0.128 A 
ATOM      4  C7  UNL     1      18.078  25.891  16.113  0.00  0.00    +0.062 A 
ATOM      5  C8  UNL     1      19.009  25.257  17.069  0.00  0.00    -0.021 A 
ATOM      6  C9  UNL     1      20.304  25.634  17.091  0.00  0.00    +0.055 A 
ATOM      7  C10 UNL     1      21.336  25.001  17.994  0.00  0.00    +0.126 C 
ATOM      8  N1  UNL     1      20.938  23.726  18.621  0.00  0.00    -0.301 NA
ATOM      9  C11 UNL     1      21.123  22.594  17.712  0.00  0.00    +0.105 C 
ATOM     10  C12 UNL     1      19.558  23.822  19.112  0.00  0.00    +0.089 C 
ATOM     11  C13 UNL     1      18.526  24.195  18.031  0.00  0.00    +0.052 C 
ATOM     12  C14 UNL     1      20.828  26.715  16.230  0.00  0.00    +0.342 A 
ATOM     13  O2  UNL     1      22.003  27.063  16.265  0.00  0.00    -0.245 OA
ATOM     14  O3  UNL     1      19.922  27.332  15.387  0.00  0.00    -0.422 OA
ATOM     15  C15 UNL     1      18.578  26.921  15.312  0.00  0.00    +0.143 A 
ATOM     16  C16 UNL     1      17.797  27.609  14.378  0.00  0.00    +0.051 A 
ENDROOT
BRANCH   3  17
ATOM     17  O1  UNL     1      16.149  24.537  16.633  0.00  0.00    -0.506 OA
ATOM     18  H9  UNL     1      15.743  24.897  17.438  0.00  0.00    +0.292 HD
ENDBRANCH   3  17
BRANCH   1  19
ATOM     19  C3  UNL     1      15.594  28.009  13.218  0.00  0.00    +0.035 C 
BRANCH  19  21
ATOM     20  C1  UNL     1      14.608  30.037  14.342  0.00  0.00    +0.004 C 
ATOM     21  C2  UNL     1      15.692  29.522  13.408  0.00  0.00    +0.001 C 
ENDBRANCH  19  21
ENDBRANCH   1  19
TORSDOF 3
ENDMDL
