MODEL 1
REMARK VINA RESULT:    -4.106      0.000      0.000
REMARK INTER + INTRA:          -5.692
REMARK INTER:                  -4.826
REMARK INTRA:                  -0.866
REMARK UNBOUND:                -0.866
REMARK  Name = /home/vital/Documents/PhD_2021/Malaria_codes/data/pdb_ligands_mmv/ligand_391.pdb
REMARK  4 active torsions:
REMARK  status: ('A' for Active; 'I' for Inactive)
REMARK    1  A    between atoms: C1_2  and  C2_3
REMARK    2  A    between atoms: C22_24  and  C23_25
REMARK    3  A    between atoms: C23_25  and  O1_26
REMARK    4  A    between atoms: O1_26  and  C24_27
REMARK                            x       y       z     vdW  Elec       q    Type
REMARK                         _______ _______ _______ _____ _____    ______ ____
ROOT
ATOM      1  N1  UNL     1      15.173  25.533  16.087  0.00  0.00    -0.335 N 
ATOM      2  C1  UNL     1      15.076  26.982  15.972  0.00  0.00    +0.105 C 
ATOM      3  C12 UNL     1      15.039  27.643  17.344  0.00  0.00    +0.029 C 
ATOM      4  C13 UNL     1      13.691  27.462  18.067  0.00  0.00    +0.033 C 
ATOM      5  C14 UNL     1      14.099  27.652  19.488  0.00  0.00    -0.030 C 
ATOM      6  C15 UNL     1      15.419  27.483  19.633  0.00  0.00    -0.023 C 
ATOM      7  C16 UNL     1      16.102  27.123  18.332  0.00  0.00    +0.049 C 
ATOM      8  C17 UNL     1      16.411  25.641  18.200  0.00  0.00    -0.004 A 
ATOM      9  C18 UNL     1      15.940  24.919  17.081  0.00  0.00    +0.051 A 
ATOM     10  C19 UNL     1      16.183  23.526  17.007  0.00  0.00    +0.062 A 
ATOM     11 CL1  UNL     1      15.589  22.596  15.670  0.00  0.00    -0.082 Cl
ATOM     12  C20 UNL     1      16.931  22.859  17.976  0.00  0.00    +0.022 A 
ATOM     13  C21 UNL     1      17.452  23.579  19.044  0.00  0.00    +0.017 A 
ATOM     14  C22 UNL     1      17.201  24.957  19.155  0.00  0.00    +0.065 A 
ATOM     15  H1  UNL     1      15.178  25.037  15.197  0.00  0.00    +0.147 HD
ENDROOT
BRANCH   2  16
ATOM     16  C2  UNL     1      16.124  27.602  15.041  0.00  0.00    -0.019 A 
ATOM     17  C3  UNL     1      17.359  26.961  14.827  0.00  0.00    +0.006 A 
ATOM     18  C4  UNL     1      18.331  27.517  14.001  0.00  0.00    +0.001 A 
ATOM     19  C5  UNL     1      18.095  28.733  13.372  0.00  0.00    +0.008 A 
ATOM     20  C6  UNL     1      16.887  29.414  13.561  0.00  0.00    -0.018 A 
ATOM     21  C7  UNL     1      16.684  30.646  12.915  0.00  0.00    +0.008 A 
ATOM     22  C8  UNL     1      15.502  31.361  13.082  0.00  0.00    +0.001 A 
ATOM     23  C9  UNL     1      14.508  30.854  13.906  0.00  0.00    +0.001 A 
ATOM     24  C10 UNL     1      14.696  29.629  14.555  0.00  0.00    +0.009 A 
ATOM     25  C11 UNL     1      15.882  28.867  14.404  0.00  0.00    -0.013 A 
ENDBRANCH   2  16
BRANCH  14  26
ATOM     26  C23 UNL     1      17.851  25.668  20.279  0.00  0.00    +0.339 C 
ATOM     27  O2  UNL     1      18.806  26.415  20.160  0.00  0.00    -0.245 OA
BRANCH  26  28
ATOM     28  O1  UNL     1      17.203  25.351  21.424  0.00  0.00    -0.464 OA
ATOM     29  C24 UNL     1      17.640  26.084  22.569  0.00  0.00    +0.280 C 
ENDBRANCH  26  28
ENDBRANCH  14  26
TORSDOF 3
ENDMDL
MODEL 2
REMARK VINA RESULT:    -3.779     16.920     19.332
REMARK INTER + INTRA:          -5.308
REMARK INTER:                  -4.504
REMARK INTRA:                  -0.803
REMARK UNBOUND:                -0.866
REMARK  Name = /home/vital/Documents/PhD_2021/Malaria_codes/data/pdb_ligands_mmv/ligand_391.pdb
REMARK  4 active torsions:
REMARK  status: ('A' for Active; 'I' for Inactive)
REMARK    1  A    between atoms: C1_2  and  C2_3
REMARK    2  A    between atoms: C22_24  and  C23_25
REMARK    3  A    between atoms: C23_25  and  O1_26
REMARK    4  A    between atoms: O1_26  and  C24_27
REMARK                            x       y       z     vdW  Elec       q    Type
REMARK                         _______ _______ _______ _____ _____    ______ ____
ROOT
ATOM      1  N1  UNL     1      20.097  45.072  16.867  0.00  0.00    -0.335 N 
ATOM      2  C1  UNL     1      20.634  46.426  16.874  0.00  0.00    +0.105 C 
ATOM      3  C12 UNL     1      20.409  47.101  18.220  0.00  0.00    +0.029 C 
ATOM      4  C13 UNL     1      18.945  47.522  18.449  0.00  0.00    +0.033 C 
ATOM      5  C14 UNL     1      18.893  47.589  19.938  0.00  0.00    -0.030 C 
ATOM      6  C15 UNL     1      19.903  46.897  20.482  0.00  0.00    -0.023 C 
ATOM      7  C16 UNL     1      20.776  46.233  19.440  0.00  0.00    +0.049 C 
ATOM      8  C17 UNL     1      20.490  44.751  19.265  0.00  0.00    -0.004 A 
ATOM      9  C18 UNL     1      20.172  44.240  17.988  0.00  0.00    +0.051 A 
ATOM     10  C19 UNL     1      19.845  42.868  17.855  0.00  0.00    +0.062 A 
ATOM     11 CL1  UNL     1      19.413  42.208  16.311  0.00  0.00    -0.082 Cl
ATOM     12  C20 UNL     1      19.891  41.995  18.941  0.00  0.00    +0.022 A 
ATOM     13  C21 UNL     1      20.267  42.482  20.187  0.00  0.00    +0.017 A 
ATOM     14  C22 UNL     1      20.569  43.845  20.350  0.00  0.00    +0.065 A 
ATOM     15  H1  UNL     1      20.200  44.580  15.981  0.00  0.00    +0.147 HD
ENDROOT
BRANCH   2  16
ATOM     16  C2  UNL     1      22.088  46.520  16.397  0.00  0.00    -0.019 A 
ATOM     17  C3  UNL     1      23.126  46.772  17.315  0.00  0.00    +0.006 A 
ATOM     18  C4  UNL     1      24.449  46.881  16.899  0.00  0.00    +0.001 A 
ATOM     19  C5  UNL     1      24.768  46.746  15.553  0.00  0.00    +0.008 A 
ATOM     20  C6  UNL     1      23.771  46.505  14.602  0.00  0.00    -0.018 A 
ATOM     21  C7  UNL     1      24.128  46.380  13.248  0.00  0.00    +0.008 A 
ATOM     22  C8  UNL     1      23.167  46.149  12.268  0.00  0.00    +0.001 A 
ATOM     23  C9  UNL     1      21.833  46.045  12.631  0.00  0.00    +0.001 A 
ATOM     24  C10 UNL     1      21.463  46.167  13.975  0.00  0.00    +0.009 A 
ATOM     25  C11 UNL     1      22.412  46.394  15.004  0.00  0.00    -0.013 A 
ENDBRANCH   2  16
BRANCH  14  26
ATOM     26  C23 UNL     1      21.032  44.272  21.688  0.00  0.00    +0.339 C 
ATOM     27  O2  UNL     1      22.178  44.594  21.950  0.00  0.00    -0.245 OA
BRANCH  26  28
ATOM     28  O1  UNL     1      19.979  44.249  22.539  0.00  0.00    -0.464 OA
ATOM     29  C24 UNL     1      20.245  44.822  23.819  0.00  0.00    +0.280 C 
ENDBRANCH  26  28
ENDBRANCH  14  26
TORSDOF 3
ENDMDL
MODEL 3
REMARK VINA RESULT:    -3.685      2.423      3.453
REMARK INTER + INTRA:          -5.197
REMARK INTER:                  -4.630
REMARK INTRA:                  -0.567
REMARK UNBOUND:                -0.866
REMARK  Name = /home/vital/Documents/PhD_2021/Malaria_codes/data/pdb_ligands_mmv/ligand_391.pdb
REMARK  4 active torsions:
REMARK  status: ('A' for Active; 'I' for Inactive)
REMARK    1  A    between atoms: C1_2  and  C2_3
REMARK    2  A    between atoms: C22_24  and  C23_25
REMARK    3  A    between atoms: C23_25  and  O1_26
REMARK    4  A    between atoms: O1_26  and  C24_27
REMARK                            x       y       z     vdW  Elec       q    Type
REMARK                         _______ _______ _______ _____ _____    ______ ____
ROOT
ATOM      1  N1  UNL     1      17.884  27.285  14.841  0.00  0.00    -0.335 N 
ATOM      2  C1  UNL     1      16.485  27.681  14.759  0.00  0.00    +0.105 C 
ATOM      3  C12 UNL     1      15.570  26.592  15.302  0.00  0.00    +0.029 C 
ATOM      4  C13 UNL     1      15.437  25.385  14.355  0.00  0.00    +0.033 C 
ATOM      5  C14 UNL     1      15.026  24.314  15.308  0.00  0.00    -0.030 C 
ATOM      6  C15 UNL     1      15.327  24.655  16.567  0.00  0.00    -0.023 C 
ATOM      7  C16 UNL     1      16.015  25.999  16.654  0.00  0.00    +0.049 C 
ATOM      8  C17 UNL     1      17.521  25.899  16.830  0.00  0.00    -0.004 A 
ATOM      9  C18 UNL     1      18.383  26.552  15.922  0.00  0.00    +0.051 A 
ATOM     10  C19 UNL     1      19.783  26.394  16.063  0.00  0.00    +0.062 A 
ATOM     11 CL1  UNL     1      20.875  27.148  14.947  0.00  0.00    -0.082 Cl
ATOM     12  C20 UNL     1      20.336  25.663  17.114  0.00  0.00    +0.022 A 
ATOM     13  C21 UNL     1      19.492  25.074  18.047  0.00  0.00    +0.017 A 
ATOM     14  C22 UNL     1      18.098  25.193  17.913  0.00  0.00    +0.065 A 
ATOM     15  H1  UNL     1      18.541  27.969  14.469  0.00  0.00    +0.147 HD
ENDROOT
BRANCH   2  16
ATOM     16  C2  UNL     1      16.193  29.060  15.363  0.00  0.00    -0.019 A 
ATOM     17  C3  UNL     1      16.270  29.261  16.755  0.00  0.00    +0.006 A 
ATOM     18  C4  UNL     1      15.989  30.498  17.324  0.00  0.00    +0.001 A 
ATOM     19  C5  UNL     1      15.618  31.567  16.518  0.00  0.00    +0.008 A 
ATOM     20  C6  UNL     1      15.517  31.414  15.130  0.00  0.00    -0.018 A 
ATOM     21  C7  UNL     1      15.133  32.514  14.344  0.00  0.00    +0.008 A 
ATOM     22  C8  UNL     1      15.011  32.405  12.962  0.00  0.00    +0.001 A 
ATOM     23  C9  UNL     1      15.268  31.188  12.348  0.00  0.00    +0.001 A 
ATOM     24  C10 UNL     1      15.652  30.085  13.118  0.00  0.00    +0.009 A 
ATOM     25  C11 UNL     1      15.795  30.158  14.527  0.00  0.00    -0.013 A 
ENDBRANCH   2  16
BRANCH  14  26
ATOM     26  C23 UNL     1      17.269  24.601  18.986  0.00  0.00    +0.339 C 
ATOM     27  O2  UNL     1      16.633  25.247  19.799  0.00  0.00    -0.245 OA
BRANCH  26  28
ATOM     28  O1  UNL     1      17.338  23.252  18.892  0.00  0.00    -0.464 OA
ATOM     29  C24 UNL     1      17.614  22.591  20.127  0.00  0.00    +0.280 C 
ENDBRANCH  26  28
ENDBRANCH  14  26
TORSDOF 3
ENDMDL
MODEL 4
REMARK VINA RESULT:    -3.395     14.517     17.613
REMARK INTER + INTRA:          -4.856
REMARK INTER:                  -4.213
REMARK INTRA:                  -0.643
REMARK UNBOUND:                -0.866
REMARK  Name = /home/vital/Documents/PhD_2021/Malaria_codes/data/pdb_ligands_mmv/ligand_391.pdb
REMARK  4 active torsions:
REMARK  status: ('A' for Active; 'I' for Inactive)
REMARK    1  A    between atoms: C1_2  and  C2_3
REMARK    2  A    between atoms: C22_24  and  C23_25
REMARK    3  A    between atoms: C23_25  and  O1_26
REMARK    4  A    between atoms: O1_26  and  C24_27
REMARK                            x       y       z     vdW  Elec       q    Type
REMARK                         _______ _______ _______ _____ _____    ______ ____
ROOT
ATOM      1  N1  UNL     1      21.099  42.780  15.316  0.00  0.00    -0.335 N 
ATOM      2  C1  UNL     1      20.068  41.897  15.843  0.00  0.00    +0.105 C 
ATOM      3  C12 UNL     1      19.832  42.148  17.326  0.00  0.00    +0.029 C 
ATOM      4  C13 UNL     1      20.963  41.605  18.220  0.00  0.00    +0.033 C 
ATOM      5  C14 UNL     1      20.795  42.446  19.440  0.00  0.00    -0.030 C 
ATOM      6  C15 UNL     1      20.087  43.550  19.165  0.00  0.00    -0.023 C 
ATOM      7  C16 UNL     1      19.693  43.635  17.707  0.00  0.00    +0.049 C 
ATOM      8  C17 UNL     1      20.569  44.576  16.897  0.00  0.00    -0.004 A 
ATOM      9  C18 UNL     1      21.223  44.107  15.737  0.00  0.00    +0.051 A 
ATOM     10  C19 UNL     1      22.087  44.980  15.031  0.00  0.00    +0.062 A 
ATOM     11 CL1  UNL     1      22.938  44.433  13.623  0.00  0.00    -0.082 Cl
ATOM     12  C20 UNL     1      22.258  46.310  15.413  0.00  0.00    +0.022 A 
ATOM     13  C21 UNL     1      21.565  46.792  16.516  0.00  0.00    +0.017 A 
ATOM     14  C22 UNL     1      20.723  45.939  17.250  0.00  0.00    +0.065 A 
ATOM     15  H1  UNL     1      21.315  42.639  14.330  0.00  0.00    +0.147 HD
ENDROOT
BRANCH   2  16
ATOM     16  C2  UNL     1      18.772  41.898  15.025  0.00  0.00    -0.019 A 
ATOM     17  C3  UNL     1      18.688  42.622  13.819  0.00  0.00    +0.006 A 
ATOM     18  C4  UNL     1      17.515  42.652  13.073  0.00  0.00    +0.001 A 
ATOM     19  C5  UNL     1      16.392  41.963  13.515  0.00  0.00    +0.008 A 
ATOM     20  C6  UNL     1      16.422  41.238  14.711  0.00  0.00    -0.018 A 
ATOM     21  C7  UNL     1      15.267  40.558  15.132  0.00  0.00    +0.008 A 
ATOM     22  C8  UNL     1      15.250  39.832  16.319  0.00  0.00    +0.001 A 
ATOM     23  C9  UNL     1      16.391  39.782  17.105  0.00  0.00    +0.001 A 
ATOM     24  C10 UNL     1      17.549  40.453  16.698  0.00  0.00    +0.009 A 
ATOM     25  C11 UNL     1      17.609  41.197  15.492  0.00  0.00    -0.013 A 
ENDBRANCH   2  16
BRANCH  14  26
ATOM     26  C23 UNL     1      19.963  46.544  18.365  0.00  0.00    +0.339 C 
ATOM     27  O2  UNL     1      18.760  46.736  18.353  0.00  0.00    -0.245 OA
BRANCH  26  28
ATOM     28  O1  UNL     1      20.822  46.827  19.372  0.00  0.00    -0.464 OA
ATOM     29  C24 UNL     1      20.196  47.313  20.560  0.00  0.00    +0.280 C 
ENDBRANCH  26  28
ENDBRANCH  14  26
TORSDOF 3
ENDMDL
MODEL 5
REMARK VINA RESULT:    -3.307     21.511     23.977
REMARK INTER + INTRA:          -4.753
REMARK INTER:                  -3.925
REMARK INTRA:                  -0.828
REMARK UNBOUND:                -0.866
REMARK  Name = /home/vital/Documents/PhD_2021/Malaria_codes/data/pdb_ligands_mmv/ligand_391.pdb
REMARK  4 active torsions:
REMARK  status: ('A' for Active; 'I' for Inactive)
REMARK    1  A    between atoms: C1_2  and  C2_3
REMARK    2  A    between atoms: C22_24  and  C23_25
REMARK    3  A    between atoms: C23_25  and  O1_26
REMARK    4  A    between atoms: O1_26  and  C24_27
REMARK                            x       y       z     vdW  Elec       q    Type
REMARK                         _______ _______ _______ _____ _____    ______ ____
ROOT
ATOM      1  N1  UNL     1      20.091  43.359  31.149  0.00  0.00    -0.335 N 
ATOM      2  C1  UNL     1      20.288  44.577  31.921  0.00  0.00    +0.105 C 
ATOM      3  C12 UNL     1      20.877  45.687  31.060  0.00  0.00    +0.029 C 
ATOM      4  C13 UNL     1      22.367  45.475  30.736  0.00  0.00    +0.033 C 
ATOM      5  C14 UNL     1      22.513  46.296  29.499  0.00  0.00    -0.030 C 
ATOM      6  C15 UNL     1      21.319  46.526  28.936  0.00  0.00    -0.023 C 
ATOM      7  C16 UNL     1      20.186  45.870  29.694  0.00  0.00    +0.049 C 
ATOM      8  C17 UNL     1      19.700  44.577  29.058  0.00  0.00    -0.004 A 
ATOM      9  C18 UNL     1      19.668  43.387  29.816  0.00  0.00    +0.051 A 
ATOM     10  C19 UNL     1      19.274  42.180  29.189  0.00  0.00    +0.062 A 
ATOM     11 CL1  UNL     1      19.256  40.689  30.075  0.00  0.00    -0.082 Cl
ATOM     12  C20 UNL     1      18.855  42.146  27.860  0.00  0.00    +0.022 A 
ATOM     13  C21 UNL     1      18.823  43.328  27.130  0.00  0.00    +0.017 A 
ATOM     14  C22 UNL     1      19.236  44.534  27.721  0.00  0.00    +0.065 A 
ATOM     15  H1  UNL     1      19.719  42.574  31.682  0.00  0.00    +0.147 HD
ENDROOT
BRANCH   2  16
ATOM     16  C2  UNL     1      19.047  45.025  32.702  0.00  0.00    -0.019 A 
ATOM     17  C3  UNL     1      17.758  44.660  32.267  0.00  0.00    +0.006 A 
ATOM     18  C4  UNL     1      16.619  45.073  32.950  0.00  0.00    +0.001 A 
ATOM     19  C5  UNL     1      16.738  45.866  34.084  0.00  0.00    +0.008 A 
ATOM     20  C6  UNL     1      17.996  46.264  34.550  0.00  0.00    -0.018 A 
ATOM     21  C7  UNL     1      18.080  47.072  35.697  0.00  0.00    +0.008 A 
ATOM     22  C8  UNL     1      19.310  47.499  36.189  0.00  0.00    +0.001 A 
ATOM     23  C9  UNL     1      20.474  47.124  35.536  0.00  0.00    +0.001 A 
ATOM     24  C10 UNL     1      20.406  46.319  34.394  0.00  0.00    +0.009 A 
ATOM     25  C11 UNL     1      19.173  45.858  33.865  0.00  0.00    -0.013 A 
ENDBRANCH   2  16
BRANCH  14  26
ATOM     26  C23 UNL     1      19.103  45.761  26.904  0.00  0.00    +0.339 C 
ATOM     27  O2  UNL     1      18.290  46.643  27.114  0.00  0.00    -0.245 OA
BRANCH  26  28
ATOM     28  O1  UNL     1      20.031  45.726  25.918  0.00  0.00    -0.464 OA
ATOM     29  C24 UNL     1      19.594  46.290  24.681  0.00  0.00    +0.280 C 
ENDBRANCH  26  28
ENDBRANCH  14  26
TORSDOF 3
ENDMDL
MODEL 6
REMARK VINA RESULT:    -3.288     21.090     23.565
REMARK INTER + INTRA:          -4.730
REMARK INTER:                  -4.154
REMARK INTRA:                  -0.577
REMARK UNBOUND:                -0.866
REMARK  Name = /home/vital/Documents/PhD_2021/Malaria_codes/data/pdb_ligands_mmv/ligand_391.pdb
REMARK  4 active torsions:
REMARK  status: ('A' for Active; 'I' for Inactive)
REMARK    1  A    between atoms: C1_2  and  C2_3
REMARK    2  A    between atoms: C22_24  and  C23_25
REMARK    3  A    between atoms: C23_25  and  O1_26
REMARK    4  A    between atoms: O1_26  and  C24_27
REMARK                            x       y       z     vdW  Elec       q    Type
REMARK                         _______ _______ _______ _____ _____    ______ ____
ROOT
ATOM      1  N1  UNL     1      33.955  39.482  16.813  0.00  0.00    -0.335 N 
ATOM      2  C1  UNL     1      34.353  38.825  15.576  0.00  0.00    +0.105 C 
ATOM      3  C12 UNL     1      33.683  39.468  14.369  0.00  0.00    +0.029 C 
ATOM      4  C13 UNL     1      32.188  39.118  14.248  0.00  0.00    +0.033 C 
ATOM      5  C14 UNL     1      31.691  40.256  13.423  0.00  0.00    -0.030 C 
ATOM      6  C15 UNL     1      32.546  41.286  13.466  0.00  0.00    -0.023 C 
ATOM      7  C16 UNL     1      33.741  41.008  14.352  0.00  0.00    +0.049 C 
ATOM      8  C17 UNL     1      33.642  41.655  15.723  0.00  0.00    -0.004 A 
ATOM      9  C18 UNL     1      33.762  40.865  16.887  0.00  0.00    +0.051 A 
ATOM     10  C19 UNL     1      33.602  41.474  18.155  0.00  0.00    +0.062 A 
ATOM     11 CL1  UNL     1      33.704  40.532  19.608  0.00  0.00    -0.082 Cl
ATOM     12  C20 UNL     1      33.395  42.846  18.289  0.00  0.00    +0.022 A 
ATOM     13  C21 UNL     1      33.342  43.638  17.147  0.00  0.00    +0.017 A 
ATOM     14  C22 UNL     1      33.470  43.052  15.876  0.00  0.00    +0.065 A 
ATOM     15  H1  UNL     1      34.357  39.076  17.656  0.00  0.00    +0.147 HD
ENDROOT
BRANCH   2  16
ATOM     16  C2  UNL     1      35.870  38.681  15.408  0.00  0.00    -0.019 A 
ATOM     17  C3  UNL     1      36.738  39.685  15.879  0.00  0.00    +0.006 A 
ATOM     18  C4  UNL     1      38.117  39.583  15.719  0.00  0.00    +0.001 A 
ATOM     19  C5  UNL     1      38.662  38.478  15.079  0.00  0.00    +0.008 A 
ATOM     20  C6  UNL     1      37.840  37.459  14.585  0.00  0.00    -0.018 A 
ATOM     21  C7  UNL     1      38.425  36.357  13.937  0.00  0.00    +0.008 A 
ATOM     22  C8  UNL     1      37.645  35.327  13.421  0.00  0.00    +0.001 A 
ATOM     23  C9  UNL     1      36.265  35.388  13.545  0.00  0.00    +0.001 A 
ATOM     24  C10 UNL     1      35.669  36.478  14.188  0.00  0.00    +0.009 A 
ATOM     25  C11 UNL     1      36.430  37.544  14.733  0.00  0.00    -0.013 A 
ENDBRANCH   2  16
BRANCH  14  26
ATOM     26  C23 UNL     1      33.477  43.969  14.715  0.00  0.00    +0.339 C 
ATOM     27  O2  UNL     1      34.486  44.395  14.181  0.00  0.00    -0.245 OA
BRANCH  26  28
ATOM     28  O1  UNL     1      32.197  44.229  14.360  0.00  0.00    -0.464 OA
ATOM     29  C24 UNL     1      31.779  45.571  14.612  0.00  0.00    +0.280 C 
ENDBRANCH  26  28
ENDBRANCH  14  26
TORSDOF 3
ENDMDL
MODEL 7
REMARK VINA RESULT:    -3.150      2.577      3.952
REMARK INTER + INTRA:          -4.568
REMARK INTER:                  -3.836
REMARK INTRA:                  -0.732
REMARK UNBOUND:                -0.866
REMARK  Name = /home/vital/Documents/PhD_2021/Malaria_codes/data/pdb_ligands_mmv/ligand_391.pdb
REMARK  4 active torsions:
REMARK  status: ('A' for Active; 'I' for Inactive)
REMARK    1  A    between atoms: C1_2  and  C2_3
REMARK    2  A    between atoms: C22_24  and  C23_25
REMARK    3  A    between atoms: C23_25  and  O1_26
REMARK    4  A    between atoms: O1_26  and  C24_27
REMARK                            x       y       z     vdW  Elec       q    Type
REMARK                         _______ _______ _______ _____ _____    ______ ____
ROOT
ATOM      1  N1  UNL     1      17.188  27.712  14.367  0.00  0.00    -0.335 N 
ATOM      2  C1  UNL     1      15.951  28.185  13.762  0.00  0.00    +0.105 C 
ATOM      3  C12 UNL     1      14.733  27.617  14.480  0.00  0.00    +0.029 C 
ATOM      4  C13 UNL     1      14.489  26.128  14.172  0.00  0.00    +0.033 C 
ATOM      5  C14 UNL     1      13.690  25.715  15.362  0.00  0.00    -0.030 C 
ATOM      6  C15 UNL     1      13.846  26.586  16.367  0.00  0.00    -0.023 C 
ATOM      7  C16 UNL     1      14.799  27.708  16.017  0.00  0.00    +0.049 C 
ATOM      8  C17 UNL     1      16.191  27.524  16.598  0.00  0.00    -0.004 A 
ATOM      9  C18 UNL     1      17.318  27.543  15.749  0.00  0.00    +0.051 A 
ATOM     10  C19 UNL     1      18.602  27.305  16.299  0.00  0.00    +0.062 A 
ATOM     11 CL1  UNL     1      20.008  27.282  15.284  0.00  0.00    -0.082 Cl
ATOM     12  C20 UNL     1      18.789  27.116  17.667  0.00  0.00    +0.022 A 
ATOM     13  C21 UNL     1      17.689  27.163  18.515  0.00  0.00    +0.017 A 
ATOM     14  C22 UNL     1      16.402  27.370  17.990  0.00  0.00    +0.065 A 
ATOM     15  H1  UNL     1      18.037  28.044  13.911  0.00  0.00    +0.147 HD
ENDROOT
BRANCH   2  16
ATOM     16  C2  UNL     1      15.885  29.707  13.590  0.00  0.00    -0.019 A 
ATOM     17  C3  UNL     1      14.687  30.403  13.846  0.00  0.00    +0.006 A 
ATOM     18  C4  UNL     1      14.601  31.781  13.677  0.00  0.00    +0.001 A 
ATOM     19  C5  UNL     1      15.708  32.499  13.242  0.00  0.00    +0.008 A 
ATOM     20  C6  UNL     1      16.916  31.851  12.964  0.00  0.00    -0.018 A 
ATOM     21  C7  UNL     1      18.015  32.606  12.519  0.00  0.00    +0.008 A 
ATOM     22  C8  UNL     1      19.233  32.001  12.223  0.00  0.00    +0.001 A 
ATOM     23  C9  UNL     1      19.366  30.628  12.363  0.00  0.00    +0.001 A 
ATOM     24  C10 UNL     1      18.281  29.863  12.806  0.00  0.00    +0.009 A 
ATOM     25  C11 UNL     1      17.026  30.443  13.126  0.00  0.00    -0.013 A 
ENDBRANCH   2  16
BRANCH  14  26
ATOM     26  C23 UNL     1      15.292  27.480  18.962  0.00  0.00    +0.339 C 
ATOM     27  O2  UNL     1      14.880  26.558  19.643  0.00  0.00    -0.245 OA
BRANCH  26  28
ATOM     28  O1  UNL     1      14.841  28.756  18.961  0.00  0.00    -0.464 OA
ATOM     29  C24 UNL     1      14.593  29.293  20.261  0.00  0.00    +0.280 C 
ENDBRANCH  26  28
ENDBRANCH  14  26
TORSDOF 3
ENDMDL
MODEL 8
REMARK VINA RESULT:    -3.109      2.886      5.004
REMARK INTER + INTRA:          -4.520
REMARK INTER:                  -3.699
REMARK INTRA:                  -0.821
REMARK UNBOUND:                -0.866
REMARK  Name = /home/vital/Documents/PhD_2021/Malaria_codes/data/pdb_ligands_mmv/ligand_391.pdb
REMARK  4 active torsions:
REMARK  status: ('A' for Active; 'I' for Inactive)
REMARK    1  A    between atoms: C1_2  and  C2_3
REMARK    2  A    between atoms: C22_24  and  C23_25
REMARK    3  A    between atoms: C23_25  and  O1_26
REMARK    4  A    between atoms: O1_26  and  C24_27
REMARK                            x       y       z     vdW  Elec       q    Type
REMARK                         _______ _______ _______ _____ _____    ______ ____
ROOT
ATOM      1  N1  UNL     1      17.692  27.475  18.122  0.00  0.00    -0.335 N 
ATOM      2  C1  UNL     1      18.329  26.219  17.753  0.00  0.00    +0.105 C 
ATOM      3  C12 UNL     1      19.219  25.701  18.874  0.00  0.00    +0.029 C 
ATOM      4  C13 UNL     1      20.531  26.494  19.022  0.00  0.00    +0.033 C 
ATOM      5  C14 UNL     1      20.888  26.201  20.439  0.00  0.00    -0.030 C 
ATOM      6  C15 UNL     1      19.819  25.768  21.121  0.00  0.00    -0.023 C 
ATOM      7  C16 UNL     1      18.568  25.731  20.271  0.00  0.00    +0.049 C 
ATOM      8  C17 UNL     1      17.641  26.912  20.507  0.00  0.00    -0.004 A 
ATOM      9  C18 UNL     1      17.241  27.721  19.422  0.00  0.00    +0.051 A 
ATOM     10  C19 UNL     1      16.429  28.856  19.670  0.00  0.00    +0.062 A 
ATOM     11 CL1  UNL     1      15.946  29.897  18.370  0.00  0.00    -0.082 Cl
ATOM     12  C20 UNL     1      15.961  29.157  20.948  0.00  0.00    +0.022 A 
ATOM     13  C21 UNL     1      16.299  28.325  22.007  0.00  0.00    +0.017 A 
ATOM     14  C22 UNL     1      17.126  27.209  21.792  0.00  0.00    +0.065 A 
ATOM     15  H1  UNL     1      17.101  27.880  17.397  0.00  0.00    +0.147 HD
ENDROOT
BRANCH   2  16
ATOM     16  C2  UNL     1      17.354  25.158  17.228  0.00  0.00    -0.019 A 
ATOM     17  C3  UNL     1      17.260  23.901  17.858  0.00  0.00    +0.006 A 
ATOM     18  C4  UNL     1      16.396  22.918  17.385  0.00  0.00    +0.001 A 
ATOM     19  C5  UNL     1      15.609  23.163  16.268  0.00  0.00    +0.008 A 
ATOM     20  C6  UNL     1      15.675  24.392  15.602  0.00  0.00    -0.018 A 
ATOM     21  C7  UNL     1      14.868  24.605  14.470  0.00  0.00    +0.008 A 
ATOM     22  C8  UNL     1      14.909  25.808  13.772  0.00  0.00    +0.001 A 
ATOM     23  C9  UNL     1      15.762  26.815  14.196  0.00  0.00    +0.001 A 
ATOM     24  C10 UNL     1      16.570  26.618  15.322  0.00  0.00    +0.009 A 
ATOM     25  C11 UNL     1      16.552  25.409  16.064  0.00  0.00    -0.013 A 
ENDBRANCH   2  16
BRANCH  14  26
ATOM     26  C23 UNL     1      17.381  26.330  22.955  0.00  0.00    +0.339 C 
ATOM     27  O2  UNL     1      16.908  25.216  23.092  0.00  0.00    -0.245 OA
BRANCH  26  28
ATOM     28  O1  UNL     1      18.219  26.969  23.805  0.00  0.00    -0.464 OA
ATOM     29  C24 UNL     1      18.593  26.201  24.949  0.00  0.00    +0.280 C 
ENDBRANCH  26  28
ENDBRANCH  14  26
TORSDOF 3
ENDMDL
MODEL 9
REMARK VINA RESULT:    -2.973      3.859      5.274
REMARK INTER + INTRA:          -4.361
REMARK INTER:                  -3.617
REMARK INTRA:                  -0.744
REMARK UNBOUND:                -0.866
REMARK  Name = /home/vital/Documents/PhD_2021/Malaria_codes/data/pdb_ligands_mmv/ligand_391.pdb
REMARK  4 active torsions:
REMARK  status: ('A' for Active; 'I' for Inactive)
REMARK    1  A    between atoms: C1_2  and  C2_3
REMARK    2  A    between atoms: C22_24  and  C23_25
REMARK    3  A    between atoms: C23_25  and  O1_26
REMARK    4  A    between atoms: O1_26  and  C24_27
REMARK                            x       y       z     vdW  Elec       q    Type
REMARK                         _______ _______ _______ _____ _____    ______ ____
ROOT
ATOM      1  N1  UNL     1      16.339  31.260  18.376  0.00  0.00    -0.335 N 
ATOM      2  C1  UNL     1      16.931  30.122  17.688  0.00  0.00    +0.105 C 
ATOM      3  C12 UNL     1      17.283  29.008  18.665  0.00  0.00    +0.029 C 
ATOM      4  C13 UNL     1      18.523  29.324  19.522  0.00  0.00    +0.033 C 
ATOM      5  C14 UNL     1      18.296  28.432  20.696  0.00  0.00    -0.030 C 
ATOM      6  C15 UNL     1      17.012  28.060  20.772  0.00  0.00    -0.023 C 
ATOM      7  C16 UNL     1      16.168  28.668  19.674  0.00  0.00    +0.049 C 
ATOM      8  C17 UNL     1      15.349  29.864  20.131  0.00  0.00    -0.004 A 
ATOM      9  C18 UNL     1      15.467  31.099  19.457  0.00  0.00    +0.051 A 
ATOM     10  C19 UNL     1      14.745  32.219  19.938  0.00  0.00    +0.062 A 
ATOM     11 CL1  UNL     1      14.890  33.763  19.162  0.00  0.00    -0.082 Cl
ATOM     12  C20 UNL     1      13.872  32.120  21.020  0.00  0.00    +0.022 A 
ATOM     13  C21 UNL     1      13.704  30.890  21.644  0.00  0.00    +0.017 A 
ATOM     14  C22 UNL     1      14.430  29.770  21.203  0.00  0.00    +0.065 A 
ATOM     15  H1  UNL     1      16.104  32.046  17.772  0.00  0.00    +0.147 HD
ENDROOT
BRANCH   2  16
ATOM     16  C2  UNL     1      16.114  29.627  16.489  0.00  0.00    -0.019 A 
ATOM     17  C3  UNL     1      15.764  28.267  16.376  0.00  0.00    +0.006 A 
ATOM     18  C4  UNL     1      15.041  27.794  15.286  0.00  0.00    +0.001 A 
ATOM     19  C5  UNL     1      14.653  28.667  14.277  0.00  0.00    +0.008 A 
ATOM     20  C6  UNL     1      14.986  30.024  14.339  0.00  0.00    -0.018 A 
ATOM     21  C7  UNL     1      14.583  30.879  13.298  0.00  0.00    +0.008 A 
ATOM     22  C8  UNL     1      14.900  32.234  13.314  0.00  0.00    +0.001 A 
ATOM     23  C9  UNL     1      15.631  32.751  14.373  0.00  0.00    +0.001 A 
ATOM     24  C10 UNL     1      16.038  31.913  15.417  0.00  0.00    +0.009 A 
ATOM     25  C11 UNL     1      15.728  30.529  15.441  0.00  0.00    -0.013 A 
ENDBRANCH   2  16
BRANCH  14  26
ATOM     26  C23 UNL     1      14.142  28.481  21.871  0.00  0.00    +0.339 C 
ATOM     27  O2  UNL     1      13.712  27.493  21.302  0.00  0.00    -0.245 OA
BRANCH  26  28
ATOM     28  O1  UNL     1      14.445  28.596  23.185  0.00  0.00    -0.464 OA
ATOM     29  C24 UNL     1      14.318  27.382  23.926  0.00  0.00    +0.280 C 
ENDBRANCH  26  28
ENDBRANCH  14  26
TORSDOF 3
ENDMDL
