MODEL 1
REMARK VINA RESULT:    -3.712      0.000      0.000
REMARK INTER + INTRA:          -5.367
REMARK INTER:                  -4.581
REMARK INTRA:                  -0.786
REMARK UNBOUND:                -0.786
REMARK  Name = /home/vital/Documents/PhD_2021/Malaria_codes/data/pdb_ligands_mmv/ligand_158.pdb
REMARK  7 active torsions:
REMARK  status: ('A' for Active; 'I' for Inactive)
REMARK    1  A    between atoms: C1_1  and  O1_2
REMARK    2  A    between atoms: O1_2  and  C2_3
REMARK    3  A    between atoms: C5_6  and  C9_11
REMARK    4  A    between atoms: C7_8  and  O2_9
REMARK    5  A    between atoms: O2_9  and  C8_10
REMARK    6  A    between atoms: C11_17  and  C12_19
REMARK    7  A    between atoms: C16_23  and  C17_24
REMARK                            x       y       z     vdW  Elec       q    Type
REMARK                         _______ _______ _______ _____ _____    ______ ____
ROOT
ATOM      1  C9  UNL     1      15.407  24.790  15.590  0.00  0.00    +0.156 A 
ATOM      2  N1  UNL     1      15.282  23.614  14.954  0.00  0.00    -0.047 NA
ATOM      3  O3  UNL     1      14.989  22.686  15.937  0.00  0.00    -0.240 OA
ATOM      4  N2  UNL     1      14.925  23.281  17.185  0.00  0.00    -0.033 NA
ATOM      5  C10 UNL     1      15.125  24.584  16.972  0.00  0.00    +0.197 A 
ATOM      6  N3  UNL     1      15.061  25.430  18.065  0.00  0.00    -0.262 N 
ATOM      7  C11 UNL     1      14.844  26.786  18.023  0.00  0.00    +0.249 C 
ATOM      8  O4  UNL     1      14.572  27.440  17.025  0.00  0.00    -0.270 OA
ATOM      9  H10 UNL     1      14.934  24.938  18.939  0.00  0.00    +0.157 HD
ENDROOT
BRANCH   7  10
ATOM     10  C12 UNL     1      14.884  27.475  19.346  0.00  0.00    +0.037 A 
ATOM     11  C13 UNL     1      13.691  27.986  19.868  0.00  0.00    +0.013 A 
ATOM     12  C14 UNL     1      13.690  28.648  21.093  0.00  0.00    +0.001 A 
ATOM     13  C15 UNL     1      14.881  28.808  21.802  0.00  0.00    +0.003 A 
ATOM     14  C16 UNL     1      16.085  28.306  21.293  0.00  0.00    -0.050 A 
ATOM     15  C17 UNL     1      17.370  28.531  22.034  0.00  0.00    +0.044 C 
ATOM     16  C18 UNL     1      16.083  27.653  20.053  0.00  0.00    +0.016 A 
ENDBRANCH   7  10
BRANCH   1  20
ATOM     17  C2  UNL     1      16.698  28.228  13.392  0.00  0.00    +0.162 A 
ATOM     18  C3  UNL     1      15.463  27.635  13.120  0.00  0.00    +0.050 A 
ATOM     19  C4  UNL     1      15.041  26.513  13.846  0.00  0.00    +0.014 A 
ATOM     20  C5  UNL     1      15.850  25.964  14.852  0.00  0.00    +0.011 A 
ATOM     21  C6  UNL     1      17.100  26.536  15.107  0.00  0.00    +0.059 A 
ATOM     22  C7  UNL     1      17.498  27.675  14.404  0.00  0.00    +0.162 A 
BRANCH  17  24
ATOM     23  C1  UNL     1      16.372  30.470  12.653  0.00  0.00    +0.277 C 
ATOM     24  O1  UNL     1      17.205  29.324  12.744  0.00  0.00    -0.491 OA
ENDBRANCH  17  24
BRANCH  22  25
ATOM     25  O2  UNL     1      18.729  28.206  14.708  0.00  0.00    -0.491 OA
ATOM     26  C8  UNL     1      19.749  27.422  14.088  0.00  0.00    +0.277 C 
ENDBRANCH  22  25
ENDBRANCH   1  20
TORSDOF 4
ENDMDL
MODEL 2
REMARK VINA RESULT:    -3.671      1.853      6.208
REMARK INTER + INTRA:          -5.316
REMARK INTER:                  -4.536
REMARK INTRA:                  -0.780
REMARK UNBOUND:                -0.786
REMARK  Name = /home/vital/Documents/PhD_2021/Malaria_codes/data/pdb_ligands_mmv/ligand_158.pdb
REMARK  7 active torsions:
REMARK  status: ('A' for Active; 'I' for Inactive)
REMARK    1  A    between atoms: C1_1  and  O1_2
REMARK    2  A    between atoms: O1_2  and  C2_3
REMARK    3  A    between atoms: C5_6  and  C9_11
REMARK    4  A    between atoms: C7_8  and  O2_9
REMARK    5  A    between atoms: O2_9  and  C8_10
REMARK    6  A    between atoms: C11_17  and  C12_19
REMARK    7  A    between atoms: C16_23  and  C17_24
REMARK                            x       y       z     vdW  Elec       q    Type
REMARK                         _______ _______ _______ _____ _____    ______ ____
ROOT
ATOM      1  C9  UNL     1      15.075  25.031  16.539  0.00  0.00    +0.156 A 
ATOM      2  N1  UNL     1      14.855  23.713  16.666  0.00  0.00    -0.047 NA
ATOM      3  O3  UNL     1      14.814  23.215  15.376  0.00  0.00    -0.240 OA
ATOM      4  N2  UNL     1      15.013  24.219  14.444  0.00  0.00    -0.033 NA
ATOM      5  C10 UNL     1      15.231  25.329  15.154  0.00  0.00    +0.197 A 
ATOM      6  N3  UNL     1      15.512  26.491  14.458  0.00  0.00    -0.262 N 
ATOM      7  C11 UNL     1      16.136  27.604  14.967  0.00  0.00    +0.249 C 
ATOM      8  O4  UNL     1      16.631  27.704  16.081  0.00  0.00    -0.270 OA
ATOM      9  H10 UNL     1      15.452  26.376  13.455  0.00  0.00    +0.157 HD
ENDROOT
BRANCH   7  10
ATOM     10  C12 UNL     1      16.263  28.748  14.017  0.00  0.00    +0.037 A 
ATOM     11  C13 UNL     1      17.331  28.749  13.112  0.00  0.00    +0.013 A 
ATOM     12  C14 UNL     1      17.491  29.806  12.220  0.00  0.00    +0.001 A 
ATOM     13  C15 UNL     1      16.589  30.870  12.229  0.00  0.00    +0.003 A 
ATOM     14  C16 UNL     1      15.518  30.888  13.129  0.00  0.00    -0.050 A 
ATOM     15  C17 UNL     1      14.585  32.063  13.171  0.00  0.00    +0.044 C 
ATOM     16  C18 UNL     1      15.369  29.829  14.035  0.00  0.00    +0.016 A 
ENDBRANCH   7  10
BRANCH   1  20
ATOM     17  C2  UNL     1      14.960  27.562  19.989  0.00  0.00    +0.162 A 
ATOM     18  C3  UNL     1      13.896  27.548  19.083  0.00  0.00    +0.050 A 
ATOM     19  C4  UNL     1      13.936  26.714  17.958  0.00  0.00    +0.014 A 
ATOM     20  C5  UNL     1      15.040  25.883  17.719  0.00  0.00    +0.011 A 
ATOM     21  C6  UNL     1      16.119  25.916  18.607  0.00  0.00    +0.059 A 
ATOM     22  C7  UNL     1      16.059  26.724  19.745  0.00  0.00    +0.162 A 
BRANCH  17  24
ATOM     23  C1  UNL     1      13.822  28.521  21.850  0.00  0.00    +0.277 C 
ATOM     24  O1  UNL     1      15.024  28.337  21.117  0.00  0.00    -0.491 OA
ENDBRANCH  17  24
BRANCH  22  25
ATOM     25  O2  UNL     1      17.141  26.703  20.593  0.00  0.00    -0.491 OA
ATOM     26  C8  UNL     1      17.779  25.427  20.514  0.00  0.00    +0.277 C 
ENDBRANCH  22  25
ENDBRANCH   1  20
TORSDOF 4
ENDMDL
MODEL 3
REMARK VINA RESULT:    -3.424      0.936      1.794
REMARK INTER + INTRA:          -5.011
REMARK INTER:                  -4.271
REMARK INTRA:                  -0.741
REMARK UNBOUND:                -0.786
REMARK  Name = /home/vital/Documents/PhD_2021/Malaria_codes/data/pdb_ligands_mmv/ligand_158.pdb
REMARK  7 active torsions:
REMARK  status: ('A' for Active; 'I' for Inactive)
REMARK    1  A    between atoms: C1_1  and  O1_2
REMARK    2  A    between atoms: O1_2  and  C2_3
REMARK    3  A    between atoms: C5_6  and  C9_11
REMARK    4  A    between atoms: C7_8  and  O2_9
REMARK    5  A    between atoms: O2_9  and  C8_10
REMARK    6  A    between atoms: C11_17  and  C12_19
REMARK    7  A    between atoms: C16_23  and  C17_24
REMARK                            x       y       z     vdW  Elec       q    Type
REMARK                         _______ _______ _______ _____ _____    ______ ____
ROOT
ATOM      1  C9  UNL     1      15.734  24.755  15.867  0.00  0.00    +0.156 A 
ATOM      2  N1  UNL     1      15.574  23.600  15.202  0.00  0.00    -0.047 NA
ATOM      3  O3  UNL     1      15.053  22.708  16.121  0.00  0.00    -0.240 OA
ATOM      4  N2  UNL     1      14.883  23.304  17.358  0.00  0.00    -0.033 NA
ATOM      5  C10 UNL     1      15.246  24.579  17.195  0.00  0.00    +0.197 A 
ATOM      6  N3  UNL     1      15.124  25.425  18.282  0.00  0.00    -0.262 N 
ATOM      7  C11 UNL     1      15.059  26.797  18.232  0.00  0.00    +0.249 C 
ATOM      8  O4  UNL     1      14.997  27.477  17.217  0.00  0.00    -0.270 OA
ATOM      9  H10 UNL     1      14.827  24.949  19.123  0.00  0.00    +0.157 HD
ENDROOT
BRANCH   7  10
ATOM     10  C12 UNL     1      14.991  27.475  19.560  0.00  0.00    +0.037 A 
ATOM     11  C13 UNL     1      13.807  28.134  19.912  0.00  0.00    +0.013 A 
ATOM     12  C14 UNL     1      13.710  28.792  21.135  0.00  0.00    +0.001 A 
ATOM     13  C15 UNL     1      14.795  28.799  22.012  0.00  0.00    +0.003 A 
ATOM     14  C16 UNL     1      15.987  28.149  21.675  0.00  0.00    -0.050 A 
ATOM     15  C17 UNL     1      17.168  28.210  22.599  0.00  0.00    +0.044 C 
ATOM     16  C18 UNL     1      16.085  27.501  20.436  0.00  0.00    +0.016 A 
ENDBRANCH   7  10
BRANCH   1  20
ATOM     17  C2  UNL     1      17.693  28.059  13.979  0.00  0.00    +0.162 A 
ATOM     18  C3  UNL     1      18.389  27.235  14.867  0.00  0.00    +0.050 A 
ATOM     19  C4  UNL     1      17.745  26.151  15.478  0.00  0.00    +0.014 A 
ATOM     20  C5  UNL     1      16.395  25.876  15.215  0.00  0.00    +0.011 A 
ATOM     21  C6  UNL     1      15.688  26.716  14.349  0.00  0.00    +0.059 A 
ATOM     22  C7  UNL     1      16.344  27.774  13.717  0.00  0.00    +0.162 A 
BRANCH  17  24
ATOM     23  C1  UNL     1      18.744  30.192  14.131  0.00  0.00    +0.277 C 
ATOM     24  O1  UNL     1      18.224  29.142  13.329  0.00  0.00    -0.491 OA
ENDBRANCH  17  24
BRANCH  22  25
ATOM     25  O2  UNL     1      15.604  28.556  12.862  0.00  0.00    -0.491 OA
ATOM     26  C8  UNL     1      14.940  29.576  13.610  0.00  0.00    +0.277 C 
ENDBRANCH  22  25
ENDBRANCH   1  20
TORSDOF 4
ENDMDL
MODEL 4
REMARK VINA RESULT:    -3.391      3.815      5.198
REMARK INTER + INTRA:          -4.970
REMARK INTER:                  -4.167
REMARK INTRA:                  -0.803
REMARK UNBOUND:                -0.786
REMARK  Name = /home/vital/Documents/PhD_2021/Malaria_codes/data/pdb_ligands_mmv/ligand_158.pdb
REMARK  7 active torsions:
REMARK  status: ('A' for Active; 'I' for Inactive)
REMARK    1  A    between atoms: C1_1  and  O1_2
REMARK    2  A    between atoms: O1_2  and  C2_3
REMARK    3  A    between atoms: C5_6  and  C9_11
REMARK    4  A    between atoms: C7_8  and  O2_9
REMARK    5  A    between atoms: O2_9  and  C8_10
REMARK    6  A    between atoms: C11_17  and  C12_19
REMARK    7  A    between atoms: C16_23  and  C17_24
REMARK                            x       y       z     vdW  Elec       q    Type
REMARK                         _______ _______ _______ _____ _____    ______ ____
ROOT
ATOM      1  C9  UNL     1      15.350  30.632  13.501  0.00  0.00    +0.156 A 
ATOM      2  N1  UNL     1      15.285  31.030  12.221  0.00  0.00    -0.047 NA
ATOM      3  O3  UNL     1      15.011  32.384  12.264  0.00  0.00    -0.240 OA
ATOM      4  N2  UNL     1      14.909  32.835  13.568  0.00  0.00    -0.033 NA
ATOM      5  C10 UNL     1      15.173  31.774  14.336  0.00  0.00    +0.197 A 
ATOM      6  N3  UNL     1      15.188  31.961  15.706  0.00  0.00    -0.262 N 
ATOM      7  C11 UNL     1      15.803  31.144  16.624  0.00  0.00    +0.249 C 
ATOM      8  O4  UNL     1      16.516  30.184  16.368  0.00  0.00    -0.270 OA
ATOM      9  H10 UNL     1      14.922  32.897  15.981  0.00  0.00    +0.157 HD
ENDROOT
BRANCH   7  10
ATOM     10  C12 UNL     1      15.614  31.541  18.050  0.00  0.00    +0.037 A 
ATOM     11  C13 UNL     1      15.729  32.894  18.387  0.00  0.00    +0.013 A 
ATOM     12  C14 UNL     1      15.575  33.302  19.710  0.00  0.00    +0.001 A 
ATOM     13  C15 UNL     1      15.308  32.361  20.704  0.00  0.00    +0.003 A 
ATOM     14  C16 UNL     1      15.193  31.003  20.387  0.00  0.00    -0.050 A 
ATOM     15  C17 UNL     1      14.963  29.991  21.470  0.00  0.00    +0.044 C 
ATOM     16  C18 UNL     1      15.364  30.595  19.056  0.00  0.00    +0.016 A 
ENDBRANCH   7  10
BRANCH   1  20
ATOM     17  C2  UNL     1      15.755  26.474  14.434  0.00  0.00    +0.162 A 
ATOM     18  C3  UNL     1      14.534  27.126  14.616  0.00  0.00    +0.050 A 
ATOM     19  C4  UNL     1      14.403  28.486  14.304  0.00  0.00    +0.014 A 
ATOM     20  C5  UNL     1      15.494  29.216  13.809  0.00  0.00    +0.011 A 
ATOM     21  C6  UNL     1      16.727  28.574  13.654  0.00  0.00    +0.059 A 
ATOM     22  C7  UNL     1      16.840  27.211  13.934  0.00  0.00    +0.162 A 
BRANCH  17  24
ATOM     23  C1  UNL     1      14.862  24.326  14.949  0.00  0.00    +0.277 C 
ATOM     24  O1  UNL     1      15.991  25.152  14.707  0.00  0.00    -0.491 OA
ENDBRANCH  17  24
BRANCH  22  25
ATOM     25  O2  UNL     1      18.071  26.628  13.746  0.00  0.00    -0.491 OA
ATOM     26  C8  UNL     1      19.085  27.632  13.815  0.00  0.00    +0.277 C 
ENDBRANCH  22  25
ENDBRANCH   1  20
TORSDOF 4
ENDMDL
MODEL 5
REMARK VINA RESULT:    -3.275      3.120      6.793
REMARK INTER + INTRA:          -4.827
REMARK INTER:                  -4.010
REMARK INTRA:                  -0.818
REMARK UNBOUND:                -0.786
REMARK  Name = /home/vital/Documents/PhD_2021/Malaria_codes/data/pdb_ligands_mmv/ligand_158.pdb
REMARK  7 active torsions:
REMARK  status: ('A' for Active; 'I' for Inactive)
REMARK    1  A    between atoms: C1_1  and  O1_2
REMARK    2  A    between atoms: O1_2  and  C2_3
REMARK    3  A    between atoms: C5_6  and  C9_11
REMARK    4  A    between atoms: C7_8  and  O2_9
REMARK    5  A    between atoms: O2_9  and  C8_10
REMARK    6  A    between atoms: C11_17  and  C12_19
REMARK    7  A    between atoms: C16_23  and  C17_24
REMARK                            x       y       z     vdW  Elec       q    Type
REMARK                         _______ _______ _______ _____ _____    ______ ____
ROOT
ATOM      1  C9  UNL     1      15.480  28.489  14.534  0.00  0.00    +0.156 A 
ATOM      2  N1  UNL     1      14.438  29.294  14.274  0.00  0.00    -0.047 NA
ATOM      3  O3  UNL     1      14.982  30.453  13.750  0.00  0.00    -0.240 OA
ATOM      4  N2  UNL     1      16.362  30.371  13.677  0.00  0.00    -0.033 NA
ATOM      5  C10 UNL     1      16.671  29.143  14.104  0.00  0.00    +0.197 A 
ATOM      6  N3  UNL     1      18.004  28.774  14.085  0.00  0.00    -0.262 N 
ATOM      7  C11 UNL     1      18.484  27.487  14.097  0.00  0.00    +0.249 C 
ATOM      8  O4  UNL     1      17.811  26.468  14.023  0.00  0.00    -0.270 OA
ATOM      9  H10 UNL     1      18.619  29.526  13.804  0.00  0.00    +0.157 HD
ENDROOT
BRANCH   7  10
ATOM     10  C12 UNL     1      19.971  27.367  14.134  0.00  0.00    +0.037 A 
ATOM     11  C13 UNL     1      20.668  27.328  12.921  0.00  0.00    +0.013 A 
ATOM     12  C14 UNL     1      22.055  27.201  12.915  0.00  0.00    +0.001 A 
ATOM     13  C15 UNL     1      22.753  27.108  14.118  0.00  0.00    +0.003 A 
ATOM     14  C16 UNL     1      22.073  27.142  15.341  0.00  0.00    -0.050 A 
ATOM     15  C17 UNL     1      22.826  26.985  16.629  0.00  0.00    +0.044 C 
ATOM     16  C18 UNL     1      20.676  27.255  15.342  0.00  0.00    +0.016 A 
ENDBRANCH   7  10
BRANCH   1  20
ATOM     17  C2  UNL     1      14.803  24.773  16.548  0.00  0.00    +0.162 A 
ATOM     18  C3  UNL     1      14.562  24.891  15.177  0.00  0.00    +0.050 A 
ATOM     19  C4  UNL     1      14.791  26.108  14.520  0.00  0.00    +0.014 A 
ATOM     20  C5  UNL     1      15.259  27.227  15.225  0.00  0.00    +0.011 A 
ATOM     21  C6  UNL     1      15.473  27.121  16.602  0.00  0.00    +0.059 A 
ATOM     22  C7  UNL     1      15.277  25.896  17.244  0.00  0.00    +0.162 A 
BRANCH  17  24
ATOM     23  C1  UNL     1      15.569  22.595  17.136  0.00  0.00    +0.277 C 
ATOM     24  O1  UNL     1      14.613  23.634  17.285  0.00  0.00    -0.491 OA
ENDBRANCH  17  24
BRANCH  22  25
ATOM     25  O2  UNL     1      15.519  25.845  18.596  0.00  0.00    -0.491 OA
ATOM     26  C8  UNL     1      16.918  26.014  18.832  0.00  0.00    +0.277 C 
ENDBRANCH  22  25
ENDBRANCH   1  20
TORSDOF 4
ENDMDL
MODEL 6
REMARK VINA RESULT:    -3.069     20.700     23.106
REMARK INTER + INTRA:          -4.573
REMARK INTER:                  -3.783
REMARK INTRA:                  -0.790
REMARK UNBOUND:                -0.786
REMARK  Name = /home/vital/Documents/PhD_2021/Malaria_codes/data/pdb_ligands_mmv/ligand_158.pdb
REMARK  7 active torsions:
REMARK  status: ('A' for Active; 'I' for Inactive)
REMARK    1  A    between atoms: C1_1  and  O1_2
REMARK    2  A    between atoms: O1_2  and  C2_3
REMARK    3  A    between atoms: C5_6  and  C9_11
REMARK    4  A    between atoms: C7_8  and  O2_9
REMARK    5  A    between atoms: O2_9  and  C8_10
REMARK    6  A    between atoms: C11_17  and  C12_19
REMARK    7  A    between atoms: C16_23  and  C17_24
REMARK                            x       y       z     vdW  Elec       q    Type
REMARK                         _______ _______ _______ _____ _____    ______ ____
ROOT
ATOM      1  C9  UNL     1      19.318  42.632  29.901  0.00  0.00    +0.156 A 
ATOM      2  N1  UNL     1      19.459  41.526  29.154  0.00  0.00    -0.047 NA
ATOM      3  O3  UNL     1      19.013  40.482  29.943  0.00  0.00    -0.240 OA
ATOM      4  N2  UNL     1      18.589  40.934  31.180  0.00  0.00    -0.033 NA
ATOM      5  C10 UNL     1      18.720  42.263  31.141  0.00  0.00    +0.197 A 
ATOM      6  N3  UNL     1      18.312  42.981  32.250  0.00  0.00    -0.262 N 
ATOM      7  C11 UNL     1      17.994  44.318  32.273  0.00  0.00    +0.249 C 
ATOM      8  O4  UNL     1      17.924  45.056  31.300  0.00  0.00    -0.270 OA
ATOM      9  H10 UNL     1      18.014  42.392  33.016  0.00  0.00    +0.157 HD
ENDROOT
BRANCH   7  10
ATOM     10  C12 UNL     1      17.643  44.862  33.618  0.00  0.00    +0.037 A 
ATOM     11  C13 UNL     1      16.512  44.355  34.267  0.00  0.00    +0.013 A 
ATOM     12  C14 UNL     1      16.143  44.848  35.516  0.00  0.00    +0.001 A 
ATOM     13  C15 UNL     1      16.897  45.852  36.122  0.00  0.00    +0.003 A 
ATOM     14  C16 UNL     1      18.029  46.374  35.485  0.00  0.00    -0.050 A 
ATOM     15  C17 UNL     1      18.803  47.493  36.117  0.00  0.00    +0.044 C 
ATOM     16  C18 UNL     1      18.389  45.885  34.221  0.00  0.00    +0.016 A 
ENDBRANCH   7  10
BRANCH   1  20
ATOM     17  C2  UNL     1      20.822  46.380  28.482  0.00  0.00    +0.162 A 
ATOM     18  C3  UNL     1      21.537  45.641  29.428  0.00  0.00    +0.050 A 
ATOM     19  C4  UNL     1      21.043  44.411  29.885  0.00  0.00    +0.014 A 
ATOM     20  C5  UNL     1      19.826  43.904  29.407  0.00  0.00    +0.011 A 
ATOM     21  C6  UNL     1      19.094  44.655  28.483  0.00  0.00    +0.059 A 
ATOM     22  C7  UNL     1      19.607  45.862  28.005  0.00  0.00    +0.162 A 
BRANCH  17  24
ATOM     23  C1  UNL     1      22.278  47.587  27.032  0.00  0.00    +0.277 C 
ATOM     24  O1  UNL     1      21.211  47.589  27.969  0.00  0.00    -0.491 OA
ENDBRANCH  17  24
BRANCH  22  25
ATOM     25  O2  UNL     1      18.853  46.549  27.084  0.00  0.00    -0.491 OA
ATOM     26  C8  UNL     1      17.508  46.068  27.121  0.00  0.00    +0.277 C 
ENDBRANCH  22  25
ENDBRANCH   1  20
TORSDOF 4
ENDMDL
MODEL 7
REMARK VINA RESULT:    -3.005      4.183      6.598
REMARK INTER + INTRA:          -4.494
REMARK INTER:                  -3.611
REMARK INTRA:                  -0.883
REMARK UNBOUND:                -0.786
REMARK  Name = /home/vital/Documents/PhD_2021/Malaria_codes/data/pdb_ligands_mmv/ligand_158.pdb
REMARK  7 active torsions:
REMARK  status: ('A' for Active; 'I' for Inactive)
REMARK    1  A    between atoms: C1_1  and  O1_2
REMARK    2  A    between atoms: O1_2  and  C2_3
REMARK    3  A    between atoms: C5_6  and  C9_11
REMARK    4  A    between atoms: C7_8  and  O2_9
REMARK    5  A    between atoms: O2_9  and  C8_10
REMARK    6  A    between atoms: C11_17  and  C12_19
REMARK    7  A    between atoms: C16_23  and  C17_24
REMARK                            x       y       z     vdW  Elec       q    Type
REMARK                         _______ _______ _______ _____ _____    ______ ____
ROOT
ATOM      1  C9  UNL     1      15.498  31.907  14.988  0.00  0.00    +0.156 A 
ATOM      2  N1  UNL     1      15.233  33.072  14.378  0.00  0.00    -0.047 NA
ATOM      3  O3  UNL     1      14.647  32.737  13.170  0.00  0.00    -0.240 OA
ATOM      4  N2  UNL     1      14.542  31.365  13.028  0.00  0.00    -0.033 NA
ATOM      5  C10 UNL     1      15.011  30.849  14.167  0.00  0.00    +0.197 A 
ATOM      6  N3  UNL     1      14.973  29.474  14.312  0.00  0.00    -0.262 N 
ATOM      7  C11 UNL     1      15.026  28.787  15.501  0.00  0.00    +0.249 C 
ATOM      8  O4  UNL     1      15.011  29.284  16.619  0.00  0.00    -0.270 OA
ATOM      9  H10 UNL     1      14.646  28.997  13.482  0.00  0.00    +0.157 HD
ENDROOT
BRANCH   7  10
ATOM     10  C12 UNL     1      15.031  27.300  15.373  0.00  0.00    +0.037 A 
ATOM     11  C13 UNL     1      14.881  26.740  14.099  0.00  0.00    +0.013 A 
ATOM     12  C14 UNL     1      14.864  25.357  13.941  0.00  0.00    +0.001 A 
ATOM     13  C15 UNL     1      14.993  24.525  15.053  0.00  0.00    +0.003 A 
ATOM     14  C16 UNL     1      15.140  25.067  16.335  0.00  0.00    -0.050 A 
ATOM     15  C17 UNL     1      15.221  24.166  17.531  0.00  0.00    +0.044 C 
ATOM     16  C18 UNL     1      15.141  26.460  16.491  0.00  0.00    +0.016 A 
ENDBRANCH   7  10
BRANCH   1  20
ATOM     17  C2  UNL     1      17.685  31.926  18.668  0.00  0.00    +0.162 A 
ATOM     18  C3  UNL     1      16.389  32.443  18.610  0.00  0.00    +0.050 A 
ATOM     19  C4  UNL     1      15.674  32.429  17.405  0.00  0.00    +0.014 A 
ATOM     20  C5  UNL     1      16.246  31.903  16.237  0.00  0.00    +0.011 A 
ATOM     21  C6  UNL     1      17.555  31.413  16.284  0.00  0.00    +0.059 A 
ATOM     22  C7  UNL     1      18.248  31.397  17.496  0.00  0.00    +0.162 A 
BRANCH  17  24
ATOM     23  C1  UNL     1      19.026  33.119  20.235  0.00  0.00    +0.277 C 
ATOM     24  O1  UNL     1      18.470  31.891  19.790  0.00  0.00    -0.491 OA
ENDBRANCH  17  24
BRANCH  22  25
ATOM     25  O2  UNL     1      19.525  30.887  17.486  0.00  0.00    -0.491 OA
ATOM     26  C8  UNL     1      19.482  29.513  17.098  0.00  0.00    +0.277 C 
ENDBRANCH  22  25
ENDBRANCH   1  20
TORSDOF 4
ENDMDL
MODEL 8
REMARK VINA RESULT:    -2.931     16.894     19.351
REMARK INTER + INTRA:          -4.402
REMARK INTER:                  -3.696
REMARK INTRA:                  -0.706
REMARK UNBOUND:                -0.786
REMARK  Name = /home/vital/Documents/PhD_2021/Malaria_codes/data/pdb_ligands_mmv/ligand_158.pdb
REMARK  7 active torsions:
REMARK  status: ('A' for Active; 'I' for Inactive)
REMARK    1  A    between atoms: C1_1  and  O1_2
REMARK    2  A    between atoms: O1_2  and  C2_3
REMARK    3  A    between atoms: C5_6  and  C9_11
REMARK    4  A    between atoms: C7_8  and  O2_9
REMARK    5  A    between atoms: O2_9  and  C8_10
REMARK    6  A    between atoms: C11_17  and  C12_19
REMARK    7  A    between atoms: C16_23  and  C17_24
REMARK                            x       y       z     vdW  Elec       q    Type
REMARK                         _______ _______ _______ _____ _____    ______ ____
ROOT
ATOM      1  C9  UNL     1      21.494  46.573  18.407  0.00  0.00    +0.156 A 
ATOM      2  N1  UNL     1      21.681  47.588  19.264  0.00  0.00    -0.047 NA
ATOM      3  O3  UNL     1      20.667  47.481  20.198  0.00  0.00    -0.240 OA
ATOM      4  N2  UNL     1      19.849  46.398  19.929  0.00  0.00    -0.033 NA
ATOM      5  C10 UNL     1      20.385  45.800  18.861  0.00  0.00    +0.197 A 
ATOM      6  N3  UNL     1      19.783  44.642  18.404  0.00  0.00    -0.262 N 
ATOM      7  C11 UNL     1      20.372  43.688  17.610  0.00  0.00    +0.249 C 
ATOM      8  O4  UNL     1      21.546  43.661  17.268  0.00  0.00    -0.270 OA
ATOM      9  H10 UNL     1      18.937  44.410  18.907  0.00  0.00    +0.157 HD
ENDROOT
BRANCH   7  10
ATOM     10  C12 UNL     1      19.478  42.562  17.207  0.00  0.00    +0.037 A 
ATOM     11  C13 UNL     1      19.688  41.305  17.785  0.00  0.00    +0.013 A 
ATOM     12  C14 UNL     1      18.885  40.226  17.423  0.00  0.00    +0.001 A 
ATOM     13  C15 UNL     1      17.872  40.395  16.480  0.00  0.00    +0.003 A 
ATOM     14  C16 UNL     1      17.650  41.644  15.889  0.00  0.00    -0.050 A 
ATOM     15  C17 UNL     1      16.595  41.804  14.834  0.00  0.00    +0.044 C 
ATOM     16  C18 UNL     1      18.471  42.723  16.245  0.00  0.00    +0.016 A 
ENDBRANCH   7  10
BRANCH   1  20
ATOM     17  C2  UNL     1      23.906  46.268  14.885  0.00  0.00    +0.162 A 
ATOM     18  C3  UNL     1      22.522  46.429  14.785  0.00  0.00    +0.050 A 
ATOM     19  C4  UNL     1      21.737  46.534  15.941  0.00  0.00    +0.014 A 
ATOM     20  C5  UNL     1      22.322  46.476  17.214  0.00  0.00    +0.011 A 
ATOM     21  C6  UNL     1      23.703  46.286  17.318  0.00  0.00    +0.059 A 
ATOM     22  C7  UNL     1      24.485  46.216  16.163  0.00  0.00    +0.162 A 
BRANCH  17  24
ATOM     23  C1  UNL     1      24.845  47.256  12.930  0.00  0.00    +0.277 C 
ATOM     24  O1  UNL     1      24.765  46.155  13.823  0.00  0.00    -0.491 OA
ENDBRANCH  17  24
BRANCH  22  25
ATOM     25  O2  UNL     1      25.839  46.046  16.325  0.00  0.00    -0.491 OA
ATOM     26  C8  UNL     1      26.079  45.219  17.464  0.00  0.00    +0.277 C 
ENDBRANCH  22  25
ENDBRANCH   1  20
TORSDOF 4
ENDMDL
MODEL 9
REMARK VINA RESULT:    -2.672      2.638      6.109
REMARK INTER + INTRA:          -4.083
REMARK INTER:                  -3.234
REMARK INTRA:                  -0.849
REMARK UNBOUND:                -0.786
REMARK  Name = /home/vital/Documents/PhD_2021/Malaria_codes/data/pdb_ligands_mmv/ligand_158.pdb
REMARK  7 active torsions:
REMARK  status: ('A' for Active; 'I' for Inactive)
REMARK    1  A    between atoms: C1_1  and  O1_2
REMARK    2  A    between atoms: O1_2  and  C2_3
REMARK    3  A    between atoms: C5_6  and  C9_11
REMARK    4  A    between atoms: C7_8  and  O2_9
REMARK    5  A    between atoms: O2_9  and  C8_10
REMARK    6  A    between atoms: C11_17  and  C12_19
REMARK    7  A    between atoms: C16_23  and  C17_24
REMARK                            x       y       z     vdW  Elec       q    Type
REMARK                         _______ _______ _______ _____ _____    ______ ____
ROOT
ATOM      1  C9  UNL     1      16.573  24.576  16.441  0.00  0.00    +0.156 A 
ATOM      2  N1  UNL     1      16.118  23.330  16.640  0.00  0.00    -0.047 NA
ATOM      3  O3  UNL     1      15.083  23.160  15.739  0.00  0.00    -0.240 OA
ATOM      4  N2  UNL     1      14.894  24.297  14.973  0.00  0.00    -0.033 NA
ATOM      5  C10 UNL     1      15.844  25.153  15.360  0.00  0.00    +0.197 A 
ATOM      6  N3  UNL     1      15.915  26.370  14.708  0.00  0.00    -0.262 N 
ATOM      7  C11 UNL     1      17.009  27.200  14.667  0.00  0.00    +0.249 C 
ATOM      8  O4  UNL     1      18.120  26.946  15.112  0.00  0.00    -0.270 OA
ATOM      9  H10 UNL     1      15.170  26.504  14.037  0.00  0.00    +0.157 HD
ENDROOT
BRANCH   7  10
ATOM     10  C12 UNL     1      16.799  28.489  13.945  0.00  0.00    +0.037 A 
ATOM     11  C13 UNL     1      17.680  28.824  12.910  0.00  0.00    +0.013 A 
ATOM     12  C14 UNL     1      17.526  30.025  12.222  0.00  0.00    +0.001 A 
ATOM     13  C15 UNL     1      16.496  30.900  12.566  0.00  0.00    +0.003 A 
ATOM     14  C16 UNL     1      15.608  30.583  13.601  0.00  0.00    -0.050 A 
ATOM     15  C17 UNL     1      14.537  31.555  14.002  0.00  0.00    +0.044 C 
ATOM     16  C18 UNL     1      15.776  29.380  14.300  0.00  0.00    +0.016 A 
ENDBRANCH   7  10
BRANCH   1  20
ATOM     17  C2  UNL     1      19.567  26.154  19.061  0.00  0.00    +0.162 A 
ATOM     18  C3  UNL     1      19.893  25.175  18.120  0.00  0.00    +0.050 A 
ATOM     19  C4  UNL     1      18.910  24.666  17.260  0.00  0.00    +0.014 A 
ATOM     20  C5  UNL     1      17.587  25.124  17.331  0.00  0.00    +0.011 A 
ATOM     21  C6  UNL     1      17.250  26.081  18.292  0.00  0.00    +0.059 A 
ATOM     22  C7  UNL     1      18.241  26.610  19.123  0.00  0.00    +0.162 A 
BRANCH  17  24
ATOM     23  C1  UNL     1      21.375  27.661  19.433  0.00  0.00    +0.277 C 
ATOM     24  O1  UNL     1      20.446  26.718  19.948  0.00  0.00    -0.491 OA
ENDBRANCH  17  24
BRANCH  22  25
ATOM     25  O2  UNL     1      17.857  27.562  20.037  0.00  0.00    -0.491 OA
ATOM     26  C8  UNL     1      17.041  26.953  21.039  0.00  0.00    +0.277 C 
ENDBRANCH  22  25
ENDBRANCH   1  20
TORSDOF 4
ENDMDL
