MODEL 1
REMARK VINA RESULT:    -3.938      0.000      0.000
REMARK INTER + INTRA:          -8.024
REMARK INTER:                  -6.126
REMARK INTRA:                  -1.898
REMARK UNBOUND:                -1.898
REMARK  Name = /home/vital/Documents/PhD_2021/Malaria_codes/data/pdb_ligands_mmv/ligand_39.pdb
REMARK  13 active torsions:
REMARK  status: ('A' for Active; 'I' for Inactive)
REMARK    1  A    between atoms: C1_1  and  C2_2
REMARK    2  A    between atoms: C2_2  and  O1_3
REMARK    3  A    between atoms: O1_3  and  C3_4
REMARK    4  A    between atoms: C3_4  and  C4_6
REMARK    5  A    between atoms: C5_7  and  N1_8
REMARK    6  A    between atoms: C6_9  and  C7_11
REMARK    7  A    between atoms: C14_19  and  O4_20
REMARK    8  A    between atoms: C15_21  and  C16_22
REMARK    9  A    between atoms: C16_22  and  N2_23
REMARK   10  A    between atoms: N2_23  and  C17_24
REMARK   11  A    between atoms: N2_23  and  C19_26
REMARK   12  A    between atoms: C17_24  and  C18_25
REMARK   13  A    between atoms: C19_26  and  C20_27
REMARK                            x       y       z     vdW  Elec       q    Type
REMARK                         _______ _______ _______ _____ _____    ______ ____
ROOT
ATOM      1  C4  UNL     1      15.326  31.708  14.893  0.00  0.00    +0.095 A 
ATOM      2  C5  UNL     1      15.753  32.281  16.085  0.00  0.00    +0.087 A 
ATOM      3  S1  UNL     1      15.761  31.178  17.367  0.00  0.00    -0.069 S 
ATOM      4  C13 UNL     1      15.174  29.892  16.402  0.00  0.00    +0.064 A 
ATOM      5  C14 UNL     1      14.900  28.570  16.823  0.00  0.00    +0.136 A 
ATOM      6  C15 UNL     1      14.427  27.621  15.908  0.00  0.00    +0.009 A 
ATOM      7  C21 UNL     1      14.219  28.017  14.587  0.00  0.00    +0.009 A 
ATOM      8  C22 UNL     1      14.487  29.328  14.173  0.00  0.00    +0.010 A 
ATOM      9  C23 UNL     1      14.978  30.302  15.082  0.00  0.00    +0.009 A 
ENDROOT
BRANCH   2  10
ATOM     10  N1  UNL     1      16.165  33.593  16.281  0.00  0.00    -0.275 N 
ATOM     11  C6  UNL     1      15.385  34.681  16.629  0.00  0.00    +0.249 C 
ATOM     12  O3  UNL     1      14.170  34.721  16.770  0.00  0.00    -0.270 OA
ATOM     13  H6  UNL     1      17.141  33.768  16.062  0.00  0.00    +0.156 HD
BRANCH  11  14
ATOM     14  C7  UNL     1      16.149  35.950  16.799  0.00  0.00    +0.037 A 
ATOM     15  C8  UNL     1      15.502  37.163  16.527  0.00  0.00    +0.013 A 
ATOM     16  C9  UNL     1      16.189  38.368  16.672  0.00  0.00    +0.001 A 
ATOM     17  C10 UNL     1      17.517  38.369  17.097  0.00  0.00    +0.000 A 
ATOM     18  C11 UNL     1      18.160  37.165  17.390  0.00  0.00    +0.001 A 
ATOM     19  C12 UNL     1      17.477  35.955  17.247  0.00  0.00    +0.013 A 
ENDBRANCH  11  14
ENDBRANCH   2  10
BRANCH   1  20
ATOM     20  C3  UNL     1      15.229  32.414  13.610  0.00  0.00    +0.342 C 
ATOM     21  O2  UNL     1      14.209  32.458  12.931  0.00  0.00    -0.245 OA
BRANCH  20  22
ATOM     22  O1  UNL     1      16.399  33.027  13.236  0.00  0.00    -0.461 OA
BRANCH  22  24
ATOM     23  C1  UNL     1      16.667  35.399  13.144  0.00  0.00    +0.048 C 
ATOM     24  C2  UNL     1      16.218  34.167  12.383  0.00  0.00    +0.229 C 
ENDBRANCH  22  24
ENDBRANCH  20  22
ENDBRANCH   1  20
BRANCH   5  25
ATOM     25  O4  UNL     1      15.075  28.197  18.137  0.00  0.00    -0.505 OA
ATOM     26  H12 UNL     1      16.023  28.293  18.337  0.00  0.00    +0.292 HD
ENDBRANCH   5  25
BRANCH   6  27
ATOM     27  C16 UNL     1      14.141  26.191  16.324  0.00  0.00    +0.123 C 
BRANCH  27  28
ATOM     28  N2  UNL     1      15.351  25.370  16.523  0.00  0.00    -0.299 NA
BRANCH  28  29
ATOM     29  C17 UNL     1      15.570  24.362  15.476  0.00  0.00    +0.081 C 
ATOM     30  C18 UNL     1      14.572  24.356  14.319  0.00  0.00    +0.020 C 
ENDBRANCH  28  29
BRANCH  28  31
ATOM     31  C19 UNL     1      15.398  24.782  17.869  0.00  0.00    +0.081 C 
ATOM     32  C20 UNL     1      16.259  23.524  17.923  0.00  0.00    +0.020 C 
ENDBRANCH  28  31
ENDBRANCH  27  28
ENDBRANCH   6  27
TORSDOF 10
ENDMDL
MODEL 2
REMARK VINA RESULT:    -3.416      2.349      4.289
REMARK INTER + INTRA:          -7.211
REMARK INTER:                  -5.270
REMARK INTRA:                  -1.941
REMARK UNBOUND:                -1.898
REMARK  Name = /home/vital/Documents/PhD_2021/Malaria_codes/data/pdb_ligands_mmv/ligand_39.pdb
REMARK  13 active torsions:
REMARK  status: ('A' for Active; 'I' for Inactive)
REMARK    1  A    between atoms: C1_1  and  C2_2
REMARK    2  A    between atoms: C2_2  and  O1_3
REMARK    3  A    between atoms: O1_3  and  C3_4
REMARK    4  A    between atoms: C3_4  and  C4_6
REMARK    5  A    between atoms: C5_7  and  N1_8
REMARK    6  A    between atoms: C6_9  and  C7_11
REMARK    7  A    between atoms: C14_19  and  O4_20
REMARK    8  A    between atoms: C15_21  and  C16_22
REMARK    9  A    between atoms: C16_22  and  N2_23
REMARK   10  A    between atoms: N2_23  and  C17_24
REMARK   11  A    between atoms: N2_23  and  C19_26
REMARK   12  A    between atoms: C17_24  and  C18_25
REMARK   13  A    between atoms: C19_26  and  C20_27
REMARK                            x       y       z     vdW  Elec       q    Type
REMARK                         _______ _______ _______ _____ _____    ______ ____
ROOT
ATOM      1  C4  UNL     1      15.339  33.916  17.651  0.00  0.00    +0.095 A 
ATOM      2  C5  UNL     1      15.425  34.571  16.428  0.00  0.00    +0.087 A 
ATOM      3  S1  UNL     1      15.640  33.504  15.135  0.00  0.00    -0.069 S 
ATOM      4  C13 UNL     1      15.654  32.120  16.144  0.00  0.00    +0.064 A 
ATOM      5  C14 UNL     1      15.816  30.775  15.738  0.00  0.00    +0.136 A 
ATOM      6  C15 UNL     1      15.798  29.745  16.687  0.00  0.00    +0.009 A 
ATOM      7  C21 UNL     1      15.634  30.081  18.031  0.00  0.00    +0.009 A 
ATOM      8  C22 UNL     1      15.477  31.415  18.430  0.00  0.00    +0.010 A 
ATOM      9  C23 UNL     1      15.482  32.473  17.483  0.00  0.00    +0.009 A 
ENDROOT
BRANCH   2  10
ATOM     10  N1  UNL     1      15.331  35.939  16.205  0.00  0.00    -0.275 N 
ATOM     11  C6  UNL     1      16.308  36.898  16.404  0.00  0.00    +0.249 C 
ATOM     12  O3  UNL     1      17.427  36.744  16.877  0.00  0.00    -0.270 OA
ATOM     13  H6  UNL     1      14.406  36.263  15.940  0.00  0.00    +0.156 HD
BRANCH  11  14
ATOM     14  C7  UNL     1      15.894  38.280  16.027  0.00  0.00    +0.037 A 
ATOM     15  C8  UNL     1      16.582  39.362  16.591  0.00  0.00    +0.013 A 
ATOM     16  C9  UNL     1      16.217  40.668  16.263  0.00  0.00    +0.001 A 
ATOM     17  C10 UNL     1      15.174  40.898  15.366  0.00  0.00    +0.000 A 
ATOM     18  C11 UNL     1      14.500  39.823  14.785  0.00  0.00    +0.001 A 
ATOM     19  C12 UNL     1      14.860  38.514  15.110  0.00  0.00    +0.013 A 
ENDBRANCH  11  14
ENDBRANCH   2  10
BRANCH   1  20
ATOM     20  C3  UNL     1      15.137  34.578  18.945  0.00  0.00    +0.342 C 
ATOM     21  O2  UNL     1      15.852  34.395  19.924  0.00  0.00    -0.245 OA
BRANCH  20  22
ATOM     22  O1  UNL     1      14.061  35.430  18.960  0.00  0.00    -0.461 OA
BRANCH  22  24
ATOM     23  C1  UNL     1      13.690  37.789  18.902  0.00  0.00    +0.048 C 
ATOM     24  C2  UNL     1      14.281  36.641  19.697  0.00  0.00    +0.229 C 
ENDBRANCH  22  24
ENDBRANCH  20  22
ENDBRANCH   1  20
BRANCH   5  25
ATOM     25  O4  UNL     1      16.013  30.455  14.414  0.00  0.00    -0.505 OA
ATOM     26  H12 UNL     1      16.306  31.268  13.965  0.00  0.00    +0.292 HD
ENDBRANCH   5  25
BRANCH   6  27
ATOM     27  C16 UNL     1      15.951  28.291  16.284  0.00  0.00    +0.123 C 
BRANCH  27  28
ATOM     28  N2  UNL     1      15.049  27.871  15.194  0.00  0.00    -0.299 NA
BRANCH  28  29
ATOM     29  C17 UNL     1      13.787  27.275  15.657  0.00  0.00    +0.081 C 
ATOM     30  C18 UNL     1      13.701  26.937  17.144  0.00  0.00    +0.020 C 
ENDBRANCH  28  29
BRANCH  28  31
ATOM     31  C19 UNL     1      15.733  27.015  14.216  0.00  0.00    +0.081 C 
ATOM     32  C20 UNL     1      14.948  25.744  13.907  0.00  0.00    +0.020 C 
ENDBRANCH  28  31
ENDBRANCH  27  28
ENDBRANCH   6  27
TORSDOF 10
ENDMDL
MODEL 3
REMARK VINA RESULT:    -3.271      2.241      9.440
REMARK INTER + INTRA:          -6.986
REMARK INTER:                  -4.949
REMARK INTRA:                  -2.037
REMARK UNBOUND:                -1.898
REMARK  Name = /home/vital/Documents/PhD_2021/Malaria_codes/data/pdb_ligands_mmv/ligand_39.pdb
REMARK  13 active torsions:
REMARK  status: ('A' for Active; 'I' for Inactive)
REMARK    1  A    between atoms: C1_1  and  C2_2
REMARK    2  A    between atoms: C2_2  and  O1_3
REMARK    3  A    between atoms: O1_3  and  C3_4
REMARK    4  A    between atoms: C3_4  and  C4_6
REMARK    5  A    between atoms: C5_7  and  N1_8
REMARK    6  A    between atoms: C6_9  and  C7_11
REMARK    7  A    between atoms: C14_19  and  O4_20
REMARK    8  A    between atoms: C15_21  and  C16_22
REMARK    9  A    between atoms: C16_22  and  N2_23
REMARK   10  A    between atoms: N2_23  and  C17_24
REMARK   11  A    between atoms: N2_23  and  C19_26
REMARK   12  A    between atoms: C17_24  and  C18_25
REMARK   13  A    between atoms: C19_26  and  C20_27
REMARK                            x       y       z     vdW  Elec       q    Type
REMARK                         _______ _______ _______ _____ _____    ______ ____
ROOT
ATOM      1  C4  UNL     1      15.835  31.138  17.737  0.00  0.00    +0.095 A 
ATOM      2  C5  UNL     1      15.570  30.672  16.455  0.00  0.00    +0.087 A 
ATOM      3  S1  UNL     1      15.542  31.914  15.308  0.00  0.00    -0.069 S 
ATOM      4  C13 UNL     1      15.857  33.134  16.467  0.00  0.00    +0.064 A 
ATOM      5  C14 UNL     1      15.971  34.523  16.229  0.00  0.00    +0.136 A 
ATOM      6  C15 UNL     1      16.239  35.401  17.287  0.00  0.00    +0.009 A 
ATOM      7  C21 UNL     1      16.375  34.872  18.571  0.00  0.00    +0.009 A 
ATOM      8  C22 UNL     1      16.259  33.496  18.805  0.00  0.00    +0.010 A 
ATOM      9  C23 UNL     1      15.997  32.588  17.745  0.00  0.00    +0.009 A 
ENDROOT
BRANCH   2  10
ATOM     10  N1  UNL     1      15.364  29.352  16.071  0.00  0.00    -0.275 N 
ATOM     11  C6  UNL     1      16.312  28.355  15.930  0.00  0.00    +0.249 C 
ATOM     12  O3  UNL     1      17.527  28.449  16.052  0.00  0.00    -0.270 OA
ATOM     13  H6  UNL     1      14.413  29.136  15.789  0.00  0.00    +0.156 HD
BRANCH  11  14
ATOM     14  C7  UNL     1      15.751  27.030  15.538  0.00  0.00    +0.037 A 
ATOM     15  C8  UNL     1      14.584  27.000  14.764  0.00  0.00    +0.013 A 
ATOM     16  C9  UNL     1      14.029  25.778  14.384  0.00  0.00    +0.001 A 
ATOM     17  C10 UNL     1      14.641  24.584  14.766  0.00  0.00    +0.000 A 
ATOM     18  C11 UNL     1      15.816  24.609  15.519  0.00  0.00    +0.001 A 
ATOM     19  C12 UNL     1      16.375  25.830  15.903  0.00  0.00    +0.013 A 
ENDBRANCH  11  14
ENDBRANCH   2  10
BRANCH   1  20
ATOM     20  C3  UNL     1      15.936  30.292  18.933  0.00  0.00    +0.342 C 
ATOM     21  O2  UNL     1      16.964  30.152  19.585  0.00  0.00    -0.245 OA
BRANCH  20  22
ATOM     22  O1  UNL     1      14.758  29.664  19.257  0.00  0.00    -0.461 OA
BRANCH  22  24
ATOM     23  C1  UNL     1      13.873  27.490  18.815  0.00  0.00    +0.048 C 
ATOM     24  C2  UNL     1      14.906  28.279  19.596  0.00  0.00    +0.229 C 
ENDBRANCH  22  24
ENDBRANCH  20  22
ENDBRANCH   1  20
BRANCH   5  25
ATOM     25  O4  UNL     1      15.801  35.039  14.964  0.00  0.00    -0.505 OA
ATOM     26  H12 UNL     1      16.024  34.330  14.335  0.00  0.00    +0.292 HD
ENDBRANCH   5  25
BRANCH   6  27
ATOM     27  C16 UNL     1      16.385  36.893  17.063  0.00  0.00    +0.123 C 
BRANCH  27  28
ATOM     28  N2  UNL     1      15.167  37.544  16.541  0.00  0.00    -0.299 NA
BRANCH  28  29
ATOM     29  C17 UNL     1      15.422  38.794  15.811  0.00  0.00    +0.081 C 
ATOM     30  C18 UNL     1      14.689  38.966  14.482  0.00  0.00    +0.020 C 
ENDBRANCH  28  29
BRANCH  28  31
ATOM     31  C19 UNL     1      14.149  37.717  17.586  0.00  0.00    +0.081 C 
ATOM     32  C20 UNL     1      14.668  38.517  18.776  0.00  0.00    +0.020 C 
ENDBRANCH  28  31
ENDBRANCH  27  28
ENDBRANCH   6  27
TORSDOF 10
ENDMDL
MODEL 4
REMARK VINA RESULT:    -3.261     14.967     18.284
REMARK INTER + INTRA:          -6.970
REMARK INTER:                  -5.179
REMARK INTRA:                  -1.790
REMARK UNBOUND:                -1.898
REMARK  Name = /home/vital/Documents/PhD_2021/Malaria_codes/data/pdb_ligands_mmv/ligand_39.pdb
REMARK  13 active torsions:
REMARK  status: ('A' for Active; 'I' for Inactive)
REMARK    1  A    between atoms: C1_1  and  C2_2
REMARK    2  A    between atoms: C2_2  and  O1_3
REMARK    3  A    between atoms: O1_3  and  C3_4
REMARK    4  A    between atoms: C3_4  and  C4_6
REMARK    5  A    between atoms: C5_7  and  N1_8
REMARK    6  A    between atoms: C6_9  and  C7_11
REMARK    7  A    between atoms: C14_19  and  O4_20
REMARK    8  A    between atoms: C15_21  and  C16_22
REMARK    9  A    between atoms: C16_22  and  N2_23
REMARK   10  A    between atoms: N2_23  and  C17_24
REMARK   11  A    between atoms: N2_23  and  C19_26
REMARK   12  A    between atoms: C17_24  and  C18_25
REMARK   13  A    between atoms: C19_26  and  C20_27
REMARK                            x       y       z     vdW  Elec       q    Type
REMARK                         _______ _______ _______ _____ _____    ______ ____
ROOT
ATOM      1  C4  UNL     1      19.564  46.140  23.840  0.00  0.00    +0.095 A 
ATOM      2  C5  UNL     1      18.248  46.561  23.695  0.00  0.00    +0.087 A 
ATOM      3  S1  UNL     1      17.908  47.093  22.126  0.00  0.00    -0.069 S 
ATOM      4  C13 UNL     1      19.503  46.810  21.573  0.00  0.00    +0.064 A 
ATOM      5  C14 UNL     1      20.006  47.048  20.272  0.00  0.00    +0.136 A 
ATOM      6  C15 UNL     1      21.342  46.758  19.968  0.00  0.00    +0.009 A 
ATOM      7  C21 UNL     1      22.158  46.247  20.978  0.00  0.00    +0.009 A 
ATOM      8  C22 UNL     1      21.658  46.015  22.266  0.00  0.00    +0.010 A 
ATOM      9  C23 UNL     1      20.305  46.293  22.592  0.00  0.00    +0.009 A 
ENDROOT
BRANCH   2  10
ATOM     10  N1  UNL     1      17.256  46.557  24.668  0.00  0.00    -0.275 N 
ATOM     11  C6  UNL     1      16.471  45.491  25.069  0.00  0.00    +0.249 C 
ATOM     12  O3  UNL     1      16.446  44.358  24.606  0.00  0.00    -0.270 OA
ATOM     13  H6  UNL     1      17.044  47.468  25.062  0.00  0.00    +0.156 HD
BRANCH  11  14
ATOM     14  C7  UNL     1      15.521  45.814  26.173  0.00  0.00    +0.037 A 
ATOM     15  C8  UNL     1      14.591  46.843  25.976  0.00  0.00    +0.013 A 
ATOM     16  C9  UNL     1      13.692  47.175  26.989  0.00  0.00    +0.001 A 
ATOM     17  C10 UNL     1      13.710  46.476  28.196  0.00  0.00    +0.000 A 
ATOM     18  C11 UNL     1      14.620  45.435  28.389  0.00  0.00    +0.001 A 
ATOM     19  C12 UNL     1      15.523  45.099  27.378  0.00  0.00    +0.013 A 
ENDBRANCH  11  14
ENDBRANCH   2  10
BRANCH   1  20
ATOM     20  C3  UNL     1      20.144  45.612  25.082  0.00  0.00    +0.342 C 
ATOM     21  O2  UNL     1      20.348  44.421  25.287  0.00  0.00    -0.245 OA
BRANCH  20  22
ATOM     22  O1  UNL     1      20.439  46.587  26.002  0.00  0.00    -0.461 OA
BRANCH  22  24
ATOM     23  C1  UNL     1      22.727  47.165  25.636  0.00  0.00    +0.048 C 
ATOM     24  C2  UNL     1      21.751  46.480  26.571  0.00  0.00    +0.229 C 
ENDBRANCH  22  24
ENDBRANCH  20  22
ENDBRANCH   1  20
BRANCH   5  25
ATOM     25  O4  UNL     1      19.203  47.586  19.292  0.00  0.00    -0.505 OA
ATOM     26  H12 UNL     1      19.317  48.552  19.328  0.00  0.00    +0.292 HD
ENDBRANCH   5  25
BRANCH   6  27
ATOM     27  C16 UNL     1      21.907  46.985  18.580  0.00  0.00    +0.123 C 
BRANCH  27  28
ATOM     28  N2  UNL     1      21.282  46.154  17.533  0.00  0.00    -0.299 NA
BRANCH  28  29
ATOM     29  C17 UNL     1      21.512  44.711  17.695  0.00  0.00    +0.081 C 
ATOM     30  C18 UNL     1      20.269  43.840  17.864  0.00  0.00    +0.020 C 
ENDBRANCH  28  29
BRANCH  28  31
ATOM     31  C19 UNL     1      21.634  46.617  16.183  0.00  0.00    +0.081 C 
ATOM     32  C20 UNL     1      22.942  47.401  16.162  0.00  0.00    +0.020 C 
ENDBRANCH  28  31
ENDBRANCH  27  28
ENDBRANCH   6  27
TORSDOF 10
ENDMDL
MODEL 5
REMARK VINA RESULT:    -3.261      4.568      7.819
REMARK INTER + INTRA:          -6.970
REMARK INTER:                  -4.969
REMARK INTRA:                  -2.000
REMARK UNBOUND:                -1.898
REMARK  Name = /home/vital/Documents/PhD_2021/Malaria_codes/data/pdb_ligands_mmv/ligand_39.pdb
REMARK  13 active torsions:
REMARK  status: ('A' for Active; 'I' for Inactive)
REMARK    1  A    between atoms: C1_1  and  C2_2
REMARK    2  A    between atoms: C2_2  and  O1_3
REMARK    3  A    between atoms: O1_3  and  C3_4
REMARK    4  A    between atoms: C3_4  and  C4_6
REMARK    5  A    between atoms: C5_7  and  N1_8
REMARK    6  A    between atoms: C6_9  and  C7_11
REMARK    7  A    between atoms: C14_19  and  O4_20
REMARK    8  A    between atoms: C15_21  and  C16_22
REMARK    9  A    between atoms: C16_22  and  N2_23
REMARK   10  A    between atoms: N2_23  and  C17_24
REMARK   11  A    between atoms: N2_23  and  C19_26
REMARK   12  A    between atoms: C17_24  and  C18_25
REMARK   13  A    between atoms: C19_26  and  C20_27
REMARK                            x       y       z     vdW  Elec       q    Type
REMARK                         _______ _______ _______ _____ _____    ______ ____
ROOT
ATOM      1  C4  UNL     1      17.460  25.755  16.647  0.00  0.00    +0.095 A 
ATOM      2  C5  UNL     1      17.995  26.978  16.263  0.00  0.00    +0.087 A 
ATOM      3  S1  UNL     1      19.678  27.027  16.421  0.00  0.00    -0.069 S 
ATOM      4  C13 UNL     1      19.771  25.430  17.032  0.00  0.00    +0.064 A 
ATOM      5  C14 UNL     1      20.940  24.738  17.427  0.00  0.00    +0.136 A 
ATOM      6  C15 UNL     1      20.855  23.424  17.903  0.00  0.00    +0.009 A 
ATOM      7  C21 UNL     1      19.597  22.829  17.991  0.00  0.00    +0.009 A 
ATOM      8  C22 UNL     1      18.440  23.517  17.602  0.00  0.00    +0.010 A 
ATOM      9  C23 UNL     1      18.505  24.846  17.107  0.00  0.00    +0.009 A 
ENDROOT
BRANCH   2  10
ATOM     10  N1  UNL     1      17.301  28.078  15.772  0.00  0.00    -0.275 N 
ATOM     11  C6  UNL     1      17.077  28.414  14.449  0.00  0.00    +0.249 C 
ATOM     12  O3  UNL     1      17.497  27.849  13.447  0.00  0.00    -0.270 OA
ATOM     13  H6  UNL     1      16.999  28.740  16.480  0.00  0.00    +0.156 HD
BRANCH  11  14
ATOM     14  C7  UNL     1      16.256  29.644  14.263  0.00  0.00    +0.037 A 
ATOM     15  C8  UNL     1      16.211  30.582  15.302  0.00  0.00    +0.013 A 
ATOM     16  C9  UNL     1      15.449  31.743  15.164  0.00  0.00    +0.001 A 
ATOM     17  C10 UNL     1      14.738  31.975  13.986  0.00  0.00    +0.000 A 
ATOM     18  C11 UNL     1      14.797  31.054  12.939  0.00  0.00    +0.001 A 
ATOM     19  C12 UNL     1      15.558  29.891  13.073  0.00  0.00    +0.013 A 
ENDBRANCH  11  14
ENDBRANCH   2  10
BRANCH   1  20
ATOM     20  C3  UNL     1      16.033  25.413  16.605  0.00  0.00    +0.342 C 
ATOM     21  O2  UNL     1      15.363  25.157  17.599  0.00  0.00    -0.245 OA
BRANCH  20  22
ATOM     22  O1  UNL     1      15.511  25.405  15.335  0.00  0.00    -0.461 OA
BRANCH  22  24
ATOM     23  C1  UNL     1      13.695  26.846  14.759  0.00  0.00    +0.048 C 
ATOM     24  C2  UNL     1      14.079  25.478  15.288  0.00  0.00    +0.229 C 
ENDBRANCH  22  24
ENDBRANCH  20  22
ENDBRANCH   1  20
BRANCH   5  25
ATOM     25  O4  UNL     1      22.174  25.347  17.370  0.00  0.00    -0.505 OA
ATOM     26  H12 UNL     1      22.246  25.763  16.492  0.00  0.00    +0.292 HD
ENDBRANCH   5  25
BRANCH   6  27
ATOM     27  C16 UNL     1      22.091  22.649  18.318  0.00  0.00    +0.123 C 
BRANCH  27  28
ATOM     28  N2  UNL     1      22.787  23.211  19.491  0.00  0.00    -0.299 NA
BRANCH  28  29
ATOM     29  C17 UNL     1      24.252  23.210  19.376  0.00  0.00    +0.081 C 
ATOM     30  C18 UNL     1      25.033  23.596  20.631  0.00  0.00    +0.020 C 
ENDBRANCH  28  29
BRANCH  28  31
ATOM     31  C19 UNL     1      22.335  22.591  20.745  0.00  0.00    +0.081 C 
ATOM     32  C20 UNL     1      21.462  23.527  21.574  0.00  0.00    +0.020 C 
ENDBRANCH  28  31
ENDBRANCH  27  28
ENDBRANCH   6  27
TORSDOF 10
ENDMDL
MODEL 6
REMARK VINA RESULT:    -3.241     15.705     19.355
REMARK INTER + INTRA:          -6.939
REMARK INTER:                  -4.932
REMARK INTRA:                  -2.007
REMARK UNBOUND:                -1.898
REMARK  Name = /home/vital/Documents/PhD_2021/Malaria_codes/data/pdb_ligands_mmv/ligand_39.pdb
REMARK  13 active torsions:
REMARK  status: ('A' for Active; 'I' for Inactive)
REMARK    1  A    between atoms: C1_1  and  C2_2
REMARK    2  A    between atoms: C2_2  and  O1_3
REMARK    3  A    between atoms: O1_3  and  C3_4
REMARK    4  A    between atoms: C3_4  and  C4_6
REMARK    5  A    between atoms: C5_7  and  N1_8
REMARK    6  A    between atoms: C6_9  and  C7_11
REMARK    7  A    between atoms: C14_19  and  O4_20
REMARK    8  A    between atoms: C15_21  and  C16_22
REMARK    9  A    between atoms: C16_22  and  N2_23
REMARK   10  A    between atoms: N2_23  and  C17_24
REMARK   11  A    between atoms: N2_23  and  C19_26
REMARK   12  A    between atoms: C17_24  and  C18_25
REMARK   13  A    between atoms: C19_26  and  C20_27
REMARK                            x       y       z     vdW  Elec       q    Type
REMARK                         _______ _______ _______ _____ _____    ______ ____
ROOT
ATOM      1  C4  UNL     1      15.464  45.526  27.626  0.00  0.00    +0.095 A 
ATOM      2  C5  UNL     1      16.684  44.914  27.363  0.00  0.00    +0.087 A 
ATOM      3  S1  UNL     1      17.410  44.291  28.757  0.00  0.00    -0.069 S 
ATOM      4  C13 UNL     1      16.147  44.829  29.781  0.00  0.00    +0.064 A 
ATOM      5  C14 UNL     1      16.063  44.667  31.183  0.00  0.00    +0.136 A 
ATOM      6  C15 UNL     1      14.956  45.160  31.886  0.00  0.00    +0.009 A 
ATOM      7  C21 UNL     1      13.957  45.822  31.172  0.00  0.00    +0.009 A 
ATOM      8  C22 UNL     1      14.044  45.983  29.783  0.00  0.00    +0.010 A 
ATOM      9  C23 UNL     1      15.152  45.483  29.051  0.00  0.00    +0.009 A 
ENDROOT
BRANCH   2  10
ATOM     10  N1  UNL     1      17.295  44.766  26.124  0.00  0.00    -0.275 N 
ATOM     11  C6  UNL     1      18.414  45.427  25.649  0.00  0.00    +0.249 C 
ATOM     12  O3  UNL     1      19.050  46.318  26.196  0.00  0.00    -0.270 OA
ATOM     13  H6  UNL     1      16.803  44.156  25.478  0.00  0.00    +0.156 HD
BRANCH  11  14
ATOM     14  C7  UNL     1      18.838  45.005  24.283  0.00  0.00    +0.037 A 
ATOM     15  C8  UNL     1      19.410  45.962  23.435  0.00  0.00    +0.013 A 
ATOM     16  C9  UNL     1      19.813  45.603  22.148  0.00  0.00    +0.001 A 
ATOM     17  C10 UNL     1      19.656  44.289  21.709  0.00  0.00    +0.000 A 
ATOM     18  C11 UNL     1      19.106  43.327  22.557  0.00  0.00    +0.001 A 
ATOM     19  C12 UNL     1      18.700  43.681  23.845  0.00  0.00    +0.013 A 
ENDBRANCH  11  14
ENDBRANCH   2  10
BRANCH   1  20
ATOM     20  C3  UNL     1      14.599  46.143  26.613  0.00  0.00    +0.342 C 
ATOM     21  O2  UNL     1      14.207  47.304  26.665  0.00  0.00    -0.245 OA
BRANCH  20  22
ATOM     22  O1  UNL     1      14.265  45.291  25.590  0.00  0.00    -0.461 OA
BRANCH  22  24
ATOM     23  C1  UNL     1      15.219  45.835  23.468  0.00  0.00    +0.048 C 
ATOM     24  C2  UNL     1      13.987  45.948  24.345  0.00  0.00    +0.229 C 
ENDBRANCH  22  24
ENDBRANCH  20  22
ENDBRANCH   1  20
BRANCH   5  25
ATOM     25  O4  UNL     1      17.071  44.044  31.884  0.00  0.00    -0.505 OA
ATOM     26  H12 UNL     1      16.808  44.043  32.822  0.00  0.00    +0.292 HD
ENDBRANCH   5  25
BRANCH   6  27
ATOM     27  C16 UNL     1      14.828  44.987  33.386  0.00  0.00    +0.123 C 
BRANCH  27  28
ATOM     28  N2  UNL     1      14.910  43.585  33.840  0.00  0.00    -0.299 NA
BRANCH  28  29
ATOM     29  C17 UNL     1      13.691  42.802  33.592  0.00  0.00    +0.081 C 
ATOM     30  C18 UNL     1      13.794  41.698  32.542  0.00  0.00    +0.020 C 
ENDBRANCH  28  29
BRANCH  28  31
ATOM     31  C19 UNL     1      15.350  43.487  35.238  0.00  0.00    +0.081 C 
ATOM     32  C20 UNL     1      15.658  44.851  35.847  0.00  0.00    +0.020 C 
ENDBRANCH  28  31
ENDBRANCH  27  28
ENDBRANCH   6  27
TORSDOF 10
ENDMDL
MODEL 7
REMARK VINA RESULT:    -3.070     14.114     16.795
REMARK INTER + INTRA:          -6.673
REMARK INTER:                  -4.700
REMARK INTRA:                  -1.973
REMARK UNBOUND:                -1.898
REMARK  Name = /home/vital/Documents/PhD_2021/Malaria_codes/data/pdb_ligands_mmv/ligand_39.pdb
REMARK  13 active torsions:
REMARK  status: ('A' for Active; 'I' for Inactive)
REMARK    1  A    between atoms: C1_1  and  C2_2
REMARK    2  A    between atoms: C2_2  and  O1_3
REMARK    3  A    between atoms: O1_3  and  C3_4
REMARK    4  A    between atoms: C3_4  and  C4_6
REMARK    5  A    between atoms: C5_7  and  N1_8
REMARK    6  A    between atoms: C6_9  and  C7_11
REMARK    7  A    between atoms: C14_19  and  O4_20
REMARK    8  A    between atoms: C15_21  and  C16_22
REMARK    9  A    between atoms: C16_22  and  N2_23
REMARK   10  A    between atoms: N2_23  and  C17_24
REMARK   11  A    between atoms: N2_23  and  C19_26
REMARK   12  A    between atoms: C17_24  and  C18_25
REMARK   13  A    between atoms: C19_26  and  C20_27
REMARK                            x       y       z     vdW  Elec       q    Type
REMARK                         _______ _______ _______ _____ _____    ______ ____
ROOT
ATOM      1  C4  UNL     1      20.583  44.428  20.582  0.00  0.00    +0.095 A 
ATOM      2  C5  UNL     1      20.527  45.607  19.850  0.00  0.00    +0.087 A 
ATOM      3  S1  UNL     1      19.643  46.816  20.635  0.00  0.00    -0.069 S 
ATOM      4  C13 UNL     1      19.273  45.818  21.977  0.00  0.00    +0.064 A 
ATOM      5  C14 UNL     1      18.502  46.169  23.109  0.00  0.00    +0.136 A 
ATOM      6  C15 UNL     1      18.291  45.238  24.135  0.00  0.00    +0.009 A 
ATOM      7  C21 UNL     1      18.843  43.965  24.001  0.00  0.00    +0.009 A 
ATOM      8  C22 UNL     1      19.604  43.618  22.877  0.00  0.00    +0.010 A 
ATOM      9  C23 UNL     1      19.838  44.550  21.831  0.00  0.00    +0.009 A 
ENDROOT
BRANCH   2  10
ATOM     10  N1  UNL     1      21.121  45.856  18.618  0.00  0.00    -0.275 N 
ATOM     11  C6  UNL     1      22.414  46.283  18.375  0.00  0.00    +0.249 C 
ATOM     12  O3  UNL     1      23.273  46.588  19.192  0.00  0.00    -0.270 OA
ATOM     13  H6  UNL     1      20.494  45.787  17.823  0.00  0.00    +0.156 HD
BRANCH  11  14
ATOM     14  C7  UNL     1      22.750  46.416  16.928  0.00  0.00    +0.037 A 
ATOM     15  C8  UNL     1      24.100  46.476  16.557  0.00  0.00    +0.013 A 
ATOM     16  C9  UNL     1      24.450  46.606  15.213  0.00  0.00    +0.001 A 
ATOM     17  C10 UNL     1      23.456  46.667  14.235  0.00  0.00    +0.000 A 
ATOM     18  C11 UNL     1      22.111  46.587  14.598  0.00  0.00    +0.001 A 
ATOM     19  C12 UNL     1      21.755  46.457  15.942  0.00  0.00    +0.013 A 
ENDBRANCH  11  14
ENDBRANCH   2  10
BRANCH   1  20
ATOM     20  C3  UNL     1      21.291  43.212  20.162  0.00  0.00    +0.342 C 
ATOM     21  O2  UNL     1      22.184  42.683  20.813  0.00  0.00    -0.245 OA
BRANCH  20  22
ATOM     22  O1  UNL     1      20.855  42.717  18.958  0.00  0.00    -0.461 OA
BRANCH  22  24
ATOM     23  C1  UNL     1      21.541  42.841  16.673  0.00  0.00    +0.048 C 
ATOM     24  C2  UNL     1      21.910  42.348  18.058  0.00  0.00    +0.229 C 
ENDBRANCH  22  24
ENDBRANCH  20  22
ENDBRANCH   1  20
BRANCH   5  25
ATOM     25  O4  UNL     1      17.931  47.417  23.216  0.00  0.00    -0.505 OA
ATOM     26  H12 UNL     1      17.173  47.333  23.822  0.00  0.00    +0.292 HD
ENDBRANCH   5  25
BRANCH   6  27
ATOM     27  C16 UNL     1      17.484  45.589  25.370  0.00  0.00    +0.123 C 
BRANCH  27  28
ATOM     28  N2  UNL     1      16.040  45.760  25.117  0.00  0.00    -0.299 NA
BRANCH  28  29
ATOM     29  C17 UNL     1      15.284  46.261  26.274  0.00  0.00    +0.081 C 
ATOM     30  C18 UNL     1      14.545  47.584  26.081  0.00  0.00    +0.020 C 
ENDBRANCH  28  29
BRANCH  28  31
ATOM     31  C19 UNL     1      15.436  44.546  24.551  0.00  0.00    +0.081 C 
ATOM     32  C20 UNL     1      14.743  44.810  23.218  0.00  0.00    +0.020 C 
ENDBRANCH  28  31
ENDBRANCH  27  28
ENDBRANCH   6  27
TORSDOF 10
ENDMDL
MODEL 8
REMARK VINA RESULT:    -3.042      2.394      9.094
REMARK INTER + INTRA:          -6.629
REMARK INTER:                  -4.599
REMARK INTRA:                  -2.030
REMARK UNBOUND:                -1.898
REMARK  Name = /home/vital/Documents/PhD_2021/Malaria_codes/data/pdb_ligands_mmv/ligand_39.pdb
REMARK  13 active torsions:
REMARK  status: ('A' for Active; 'I' for Inactive)
REMARK    1  A    between atoms: C1_1  and  C2_2
REMARK    2  A    between atoms: C2_2  and  O1_3
REMARK    3  A    between atoms: O1_3  and  C3_4
REMARK    4  A    between atoms: C3_4  and  C4_6
REMARK    5  A    between atoms: C5_7  and  N1_8
REMARK    6  A    between atoms: C6_9  and  C7_11
REMARK    7  A    between atoms: C14_19  and  O4_20
REMARK    8  A    between atoms: C15_21  and  C16_22
REMARK    9  A    between atoms: C16_22  and  N2_23
REMARK   10  A    between atoms: N2_23  and  C17_24
REMARK   11  A    between atoms: N2_23  and  C19_26
REMARK   12  A    between atoms: C17_24  and  C18_25
REMARK   13  A    between atoms: C19_26  and  C20_27
REMARK                            x       y       z     vdW  Elec       q    Type
REMARK                         _______ _______ _______ _____ _____    ______ ____
ROOT
ATOM      1  C4  UNL     1      16.977  31.875  14.442  0.00  0.00    +0.095 A 
ATOM      2  C5  UNL     1      16.133  31.484  15.474  0.00  0.00    +0.087 A 
ATOM      3  S1  UNL     1      15.662  32.780  16.451  0.00  0.00    -0.069 S 
ATOM      4  C13 UNL     1      16.580  33.920  15.562  0.00  0.00    +0.064 A 
ATOM      5  C14 UNL     1      16.692  35.307  15.819  0.00  0.00    +0.136 A 
ATOM      6  C15 UNL     1      17.481  36.116  14.992  0.00  0.00    +0.009 A 
ATOM      7  C21 UNL     1      18.159  35.519  13.929  0.00  0.00    +0.009 A 
ATOM      8  C22 UNL     1      18.049  34.145  13.679  0.00  0.00    +0.010 A 
ATOM      9  C23 UNL     1      17.246  33.309  14.499  0.00  0.00    +0.009 A 
ENDROOT
BRANCH   2  10
ATOM     10  N1  UNL     1      15.662  30.202  15.728  0.00  0.00    -0.275 N 
ATOM     11  C6  UNL     1      14.669  29.516  15.052  0.00  0.00    +0.249 C 
ATOM     12  O3  UNL     1      13.963  29.921  14.138  0.00  0.00    -0.270 OA
ATOM     13  H6  UNL     1      16.050  29.765  16.559  0.00  0.00    +0.156 HD
BRANCH  11  14
ATOM     14  C7  UNL     1      14.431  28.133  15.557  0.00  0.00    +0.037 A 
ATOM     15  C8  UNL     1      14.728  27.849  16.896  0.00  0.00    +0.013 A 
ATOM     16  C9  UNL     1      14.522  26.564  17.400  0.00  0.00    +0.001 A 
ATOM     17  C10 UNL     1      14.010  25.564  16.573  0.00  0.00    +0.000 A 
ATOM     18  C11 UNL     1      13.692  25.847  15.244  0.00  0.00    +0.001 A 
ATOM     19  C12 UNL     1      13.897  27.131  14.735  0.00  0.00    +0.013 A 
ENDBRANCH  11  14
ENDBRANCH   2  10
BRANCH   1  20
ATOM     20  C3  UNL     1      17.535  30.974  13.426  0.00  0.00    +0.342 C 
ATOM     21  O2  UNL     1      17.325  31.086  12.224  0.00  0.00    -0.245 OA
BRANCH  20  22
ATOM     22  O1  UNL     1      18.323  29.980  13.954  0.00  0.00    -0.461 OA
BRANCH  22  24
ATOM     23  C1  UNL     1      17.831  27.654  14.178  0.00  0.00    +0.048 C 
ATOM     24  C2  UNL     1      18.277  28.745  13.225  0.00  0.00    +0.229 C 
ENDBRANCH  22  24
ENDBRANCH  20  22
ENDBRANCH   1  20
BRANCH   5  25
ATOM     25  O4  UNL     1      16.047  35.881  16.892  0.00  0.00    -0.505 OA
ATOM     26  H12 UNL     1      16.032  35.217  17.604  0.00  0.00    +0.292 HD
ENDBRANCH   5  25
BRANCH   6  27
ATOM     27  C16 UNL     1      17.608  37.608  15.229  0.00  0.00    +0.123 C 
BRANCH  27  28
ATOM     28  N2  UNL     1      16.404  38.379  14.866  0.00  0.00    -0.299 NA
BRANCH  28  29
ATOM     29  C17 UNL     1      16.533  39.137  13.613  0.00  0.00    +0.081 C 
ATOM     30  C18 UNL     1      15.740  38.614  12.417  0.00  0.00    +0.020 C 
ENDBRANCH  28  29
BRANCH  28  31
ATOM     31  C19 UNL     1      15.941  39.226  15.974  0.00  0.00    +0.081 C 
ATOM     32  C20 UNL     1      14.420  39.259  16.083  0.00  0.00    +0.020 C 
ENDBRANCH  28  31
ENDBRANCH  27  28
ENDBRANCH   6  27
TORSDOF 10
ENDMDL
