MODEL 1
REMARK VINA RESULT:    -3.830      0.000      0.000
REMARK INTER + INTRA:          -4.398
REMARK INTER:                  -4.166
REMARK INTRA:                  -0.231
REMARK UNBOUND:                -0.231
REMARK  Name = /home/vital/Documents/PhD_2021/Malaria_codes/data/pdb_ligands_mmv/ligand_56.pdb
REMARK  3 active torsions:
REMARK  status: ('A' for Active; 'I' for Inactive)
REMARK    1  A    between atoms: C1_1  and  C2_2
REMARK    2  A    between atoms: C5_5  and  C8_8
REMARK    3  A    between atoms: C17_18  and  O1_19
REMARK                            x       y       z     vdW  Elec       q    Type
REMARK                         _______ _______ _______ _____ _____    ______ ____
ROOT
ATOM      1  C8  UNL     1      21.382  46.723  17.641  0.00  0.00    +0.095 A 
ATOM      2  C9  UNL     1      20.293  47.589  17.929  0.00  0.00    +0.078 A 
ATOM      3  C10 UNL     1      19.756  47.150  19.114  0.00  0.00    +0.160 A 
ATOM      4  N1  UNL     1      18.699  47.584  19.860  0.00  0.00    -0.232 NA
ATOM      5  C11 UNL     1      18.454  46.936  20.967  0.00  0.00    +0.052 A 
ATOM      6  C12 UNL     1      17.230  47.381  21.752  0.00  0.00    +0.056 C 
ATOM      7  C13 UNL     1      17.200  46.893  23.190  0.00  0.00    +0.006 C 
ATOM      8  C14 UNL     1      17.490  45.401  23.258  0.00  0.00    +0.005 C 
ATOM      9  C15 UNL     1      18.910  45.115  22.785  0.00  0.00    +0.042 C 
ATOM     10  C16 UNL     1      19.249  45.759  21.477  0.00  0.00    +0.035 A 
ATOM     11  C17 UNL     1      20.260  45.370  20.680  0.00  0.00    +0.220 A 
ATOM     12  N2  UNL     1      20.523  46.063  19.492  0.00  0.00    -0.181 N 
ATOM     13  N3  UNL     1      21.515  45.795  18.605  0.00  0.00    -0.162 NA
ENDROOT
BRANCH   1  18
ATOM     14  C1  UNL     1      24.926  46.878  13.053  0.00  0.00    +0.044 C 
ATOM     15  C2  UNL     1      24.020  46.813  14.245  0.00  0.00    -0.050 A 
ATOM     16  C3  UNL     1      22.693  46.393  14.107  0.00  0.00    +0.004 A 
ATOM     17  C4  UNL     1      21.840  46.364  15.215  0.00  0.00    +0.010 A 
ATOM     18  C5  UNL     1      22.288  46.761  16.484  0.00  0.00    +0.002 A 
ATOM     19  C6  UNL     1      23.615  47.196  16.611  0.00  0.00    +0.010 A 
ATOM     20  C7  UNL     1      24.469  47.227  15.503  0.00  0.00    +0.004 A 
ENDBRANCH   1  18
BRANCH  11  21
ATOM     21  O1  UNL     1      21.080  44.301  21.015  0.00  0.00    -0.492 OA
ATOM     22  H17 UNL     1      21.672  44.642  21.721  0.00  0.00    +0.294 HD
ENDBRANCH  11  21
TORSDOF 2
ENDMDL
MODEL 2
REMARK VINA RESULT:    -3.763     13.406     17.246
REMARK INTER + INTRA:          -4.324
REMARK INTER:                  -4.087
REMARK INTRA:                  -0.237
REMARK UNBOUND:                -0.231
REMARK  Name = /home/vital/Documents/PhD_2021/Malaria_codes/data/pdb_ligands_mmv/ligand_56.pdb
REMARK  3 active torsions:
REMARK  status: ('A' for Active; 'I' for Inactive)
REMARK    1  A    between atoms: C1_1  and  C2_2
REMARK    2  A    between atoms: C5_5  and  C8_8
REMARK    3  A    between atoms: C17_18  and  O1_19
REMARK                            x       y       z     vdW  Elec       q    Type
REMARK                         _______ _______ _______ _____ _____    ______ ____
ROOT
ATOM      1  C8  UNL     1      34.591  41.428  15.513  0.00  0.00    +0.095 A 
ATOM      2  C9  UNL     1      35.536  40.688  16.275  0.00  0.00    +0.078 A 
ATOM      3  C10 UNL     1      35.842  39.575  15.531  0.00  0.00    +0.160 A 
ATOM      4  N1  UNL     1      36.672  38.517  15.761  0.00  0.00    -0.232 NA
ATOM      5  C11 UNL     1      36.744  37.611  14.823  0.00  0.00    +0.052 A 
ATOM      6  C12 UNL     1      37.613  36.399  15.122  0.00  0.00    +0.056 C 
ATOM      7  C13 UNL     1      37.987  35.583  13.897  0.00  0.00    +0.006 C 
ATOM      8  C14 UNL     1      36.757  35.288  13.051  0.00  0.00    +0.005 C 
ATOM      9  C15 UNL     1      36.179  36.582  12.489  0.00  0.00    +0.042 C 
ATOM     10  C16 UNL     1      35.989  37.652  13.518  0.00  0.00    +0.035 A 
ATOM     11  C17 UNL     1      35.172  38.710  13.368  0.00  0.00    +0.220 A 
ATOM     12  N2  UNL     1      35.093  39.682  14.373  0.00  0.00    -0.181 N 
ATOM     13  N3  UNL     1      34.329  40.804  14.350  0.00  0.00    -0.162 NA
ENDROOT
BRANCH   1  18
ATOM     14  C1  UNL     1      32.024  46.452  16.857  0.00  0.00    +0.044 C 
ATOM     15  C2  UNL     1      32.711  45.162  16.522  0.00  0.00    -0.050 A 
ATOM     16  C3  UNL     1      33.286  44.971  15.261  0.00  0.00    +0.004 A 
ATOM     17  C4  UNL     1      33.898  43.755  14.939  0.00  0.00    +0.010 A 
ATOM     18  C5  UNL     1      33.943  42.700  15.862  0.00  0.00    +0.002 A 
ATOM     19  C6  UNL     1      33.350  42.894  17.118  0.00  0.00    +0.010 A 
ATOM     20  C7  UNL     1      32.737  44.110  17.442  0.00  0.00    +0.004 A 
ENDBRANCH   1  18
BRANCH  11  21
ATOM     21  O1  UNL     1      34.411  38.885  12.220  0.00  0.00    -0.492 OA
ATOM     22  H17 UNL     1      34.312  37.985  11.838  0.00  0.00    +0.294 HD
ENDBRANCH  11  21
TORSDOF 2
ENDMDL
MODEL 3
REMARK VINA RESULT:    -3.566     13.449     17.247
REMARK INTER + INTRA:          -4.110
REMARK INTER:                  -3.879
REMARK INTRA:                  -0.232
REMARK UNBOUND:                -0.231
REMARK  Name = /home/vital/Documents/PhD_2021/Malaria_codes/data/pdb_ligands_mmv/ligand_56.pdb
REMARK  3 active torsions:
REMARK  status: ('A' for Active; 'I' for Inactive)
REMARK    1  A    between atoms: C1_1  and  C2_2
REMARK    2  A    between atoms: C5_5  and  C8_8
REMARK    3  A    between atoms: C17_18  and  O1_19
REMARK                            x       y       z     vdW  Elec       q    Type
REMARK                         _______ _______ _______ _____ _____    ______ ____
ROOT
ATOM      1  C8  UNL     1      34.382  41.304  15.209  0.00  0.00    +0.095 A 
ATOM      2  C9  UNL     1      33.853  40.423  14.227  0.00  0.00    +0.078 A 
ATOM      3  C10 UNL     1      34.710  39.351  14.172  0.00  0.00    +0.160 A 
ATOM      4  N1  UNL     1      34.714  38.217  13.413  0.00  0.00    -0.232 NA
ATOM      5  C11 UNL     1      35.691  37.375  13.618  0.00  0.00    +0.052 A 
ATOM      6  C12 UNL     1      35.727  36.151  12.717  0.00  0.00    +0.056 C 
ATOM      7  C13 UNL     1      36.611  35.027  13.226  0.00  0.00    +0.006 C 
ATOM      8  C14 UNL     1      37.978  35.558  13.630  0.00  0.00    +0.005 C 
ATOM      9  C15 UNL     1      37.848  36.510  14.813  0.00  0.00    +0.042 C 
ATOM     10  C16 UNL     1      36.799  37.561  14.625  0.00  0.00    +0.035 A 
ATOM     11  C17 UNL     1      36.746  38.712  15.321  0.00  0.00    +0.220 A 
ATOM     12  N2  UNL     1      35.700  39.616  15.101  0.00  0.00    -0.181 N 
ATOM     13  N3  UNL     1      35.511  40.800  15.738  0.00  0.00    -0.162 NA
ENDROOT
BRANCH   1  18
ATOM     14  C1  UNL     1      32.244  46.421  16.906  0.00  0.00    +0.044 C 
ATOM     15  C2  UNL     1      32.821  45.105  16.480  0.00  0.00    -0.050 A 
ATOM     16  C3  UNL     1      33.348  44.944  15.194  0.00  0.00    +0.004 A 
ATOM     17  C4  UNL     1      33.856  43.706  14.786  0.00  0.00    +0.010 A 
ATOM     18  C5  UNL     1      33.842  42.599  15.648  0.00  0.00    +0.002 A 
ATOM     19  C6  UNL     1      33.297  42.764  16.929  0.00  0.00    +0.010 A 
ATOM     20  C7  UNL     1      32.787  44.002  17.338  0.00  0.00    +0.004 A 
ENDBRANCH   1  18
BRANCH  11  21
ATOM     21  O1  UNL     1      37.697  39.024  16.282  0.00  0.00    -0.492 OA
ATOM     22  H17 UNL     1      38.563  38.935  15.827  0.00  0.00    +0.294 HD
ENDBRANCH  11  21
TORSDOF 2
ENDMDL
MODEL 4
REMARK VINA RESULT:    -3.497      5.244      8.108
REMARK INTER + INTRA:          -4.035
REMARK INTER:                  -3.800
REMARK INTRA:                  -0.235
REMARK UNBOUND:                -0.231
REMARK  Name = /home/vital/Documents/PhD_2021/Malaria_codes/data/pdb_ligands_mmv/ligand_56.pdb
REMARK  3 active torsions:
REMARK  status: ('A' for Active; 'I' for Inactive)
REMARK    1  A    between atoms: C1_1  and  C2_2
REMARK    2  A    between atoms: C5_5  and  C8_8
REMARK    3  A    between atoms: C17_18  and  O1_19
REMARK                            x       y       z     vdW  Elec       q    Type
REMARK                         _______ _______ _______ _____ _____    ______ ____
ROOT
ATOM      1  C8  UNL     1      19.087  42.612  16.109  0.00  0.00    +0.095 A 
ATOM      2  C9  UNL     1      19.783  43.195  17.202  0.00  0.00    +0.078 A 
ATOM      3  C10 UNL     1      20.763  43.988  16.656  0.00  0.00    +0.160 A 
ATOM      4  N1  UNL     1      21.729  44.770  17.216  0.00  0.00    -0.232 NA
ATOM      5  C11 UNL     1      22.513  45.416  16.395  0.00  0.00    +0.052 A 
ATOM      6  C12 UNL     1      23.633  46.226  17.029  0.00  0.00    +0.056 C 
ATOM      7  C13 UNL     1      24.260  47.254  16.104  0.00  0.00    +0.006 C 
ATOM      8  C14 UNL     1      24.611  46.627  14.762  0.00  0.00    +0.005 C 
ATOM      9  C15 UNL     1      23.345  46.181  14.040  0.00  0.00    +0.042 C 
ATOM     10  C16 UNL     1      22.424  45.364  14.890  0.00  0.00    +0.035 A 
ATOM     11  C17 UNL     1      21.465  44.554  14.406  0.00  0.00    +0.220 A 
ATOM     12  N2  UNL     1      20.624  43.860  15.285  0.00  0.00    -0.181 N 
ATOM     13  N3  UNL     1      19.609  43.028  14.941  0.00  0.00    -0.162 NA
ENDROOT
BRANCH   1  18
ATOM     14  C1  UNL     1      14.590  38.953  16.245  0.00  0.00    +0.044 C 
ATOM     15  C2  UNL     1      15.743  39.910  16.234  0.00  0.00    -0.050 A 
ATOM     16  C3  UNL     1      15.668  41.105  15.512  0.00  0.00    +0.004 A 
ATOM     17  C4  UNL     1      16.758  41.982  15.476  0.00  0.00    +0.010 A 
ATOM     18  C5  UNL     1      17.950  41.682  16.152  0.00  0.00    +0.002 A 
ATOM     19  C6  UNL     1      18.023  40.474  16.860  0.00  0.00    +0.010 A 
ATOM     20  C7  UNL     1      16.934  39.595  16.896  0.00  0.00    +0.004 A 
ENDBRANCH   1  18
BRANCH  11  21
ATOM     21  O1  UNL     1      21.262  44.402  13.042  0.00  0.00    -0.492 OA
ATOM     22  H17 UNL     1      20.288  44.443  12.920  0.00  0.00    +0.294 HD
ENDBRANCH  11  21
TORSDOF 2
ENDMDL
MODEL 5
REMARK VINA RESULT:    -3.346      5.013      7.980
REMARK INTER + INTRA:          -3.870
REMARK INTER:                  -3.640
REMARK INTRA:                  -0.230
REMARK UNBOUND:                -0.231
REMARK  Name = /home/vital/Documents/PhD_2021/Malaria_codes/data/pdb_ligands_mmv/ligand_56.pdb
REMARK  3 active torsions:
REMARK  status: ('A' for Active; 'I' for Inactive)
REMARK    1  A    between atoms: C1_1  and  C2_2
REMARK    2  A    between atoms: C5_5  and  C8_8
REMARK    3  A    between atoms: C17_18  and  O1_19
REMARK                            x       y       z     vdW  Elec       q    Type
REMARK                         _______ _______ _______ _____ _____    ______ ____
ROOT
ATOM      1  C8  UNL     1      19.066  42.506  15.901  0.00  0.00    +0.095 A 
ATOM      2  C9  UNL     1      19.973  42.569  14.809  0.00  0.00    +0.078 A 
ATOM      3  C10 UNL     1      20.901  43.527  15.136  0.00  0.00    +0.160 A 
ATOM      4  N1  UNL     1      21.988  44.017  14.472  0.00  0.00    -0.232 NA
ATOM      5  C11 UNL     1      22.682  44.940  15.080  0.00  0.00    +0.052 A 
ATOM      6  C12 UNL     1      23.846  45.532  14.302  0.00  0.00    +0.056 C 
ATOM      7  C13 UNL     1      24.848  46.290  15.156  0.00  0.00    +0.006 C 
ATOM      8  C14 UNL     1      24.136  47.271  16.075  0.00  0.00    +0.005 C 
ATOM      9  C15 UNL     1      23.266  46.522  17.077  0.00  0.00    +0.042 C 
ATOM     10  C16 UNL     1      22.376  45.494  16.450  0.00  0.00    +0.035 A 
ATOM     11  C17 UNL     1      21.278  44.984  17.036  0.00  0.00    +0.220 A 
ATOM     12  N2  UNL     1      20.531  43.995  16.384  0.00  0.00    -0.181 N 
ATOM     13  N3  UNL     1      19.418  43.381  16.859  0.00  0.00    -0.162 NA
ENDROOT
BRANCH   1  18
ATOM     14  C1  UNL     1      14.401  39.104  16.453  0.00  0.00    +0.044 C 
ATOM     15  C2  UNL     1      15.599  39.997  16.334  0.00  0.00    -0.050 A 
ATOM     16  C3  UNL     1      15.559  41.136  15.523  0.00  0.00    +0.004 A 
ATOM     17  C4  UNL     1      16.688  41.950  15.388  0.00  0.00    +0.010 A 
ATOM     18  C5  UNL     1      17.886  41.641  16.049  0.00  0.00    +0.002 A 
ATOM     19  C6  UNL     1      17.923  40.489  16.847  0.00  0.00    +0.010 A 
ATOM     20  C7  UNL     1      16.794  39.673  16.983  0.00  0.00    +0.004 A 
ENDBRANCH   1  18
BRANCH  11  21
ATOM     21  O1  UNL     1      20.868  45.396  18.297  0.00  0.00    -0.492 OA
ATOM     22  H17 UNL     1      20.298  44.670  18.632  0.00  0.00    +0.294 HD
ENDBRANCH  11  21
TORSDOF 2
ENDMDL
MODEL 6
REMARK VINA RESULT:    -3.127     16.220     17.386
REMARK INTER + INTRA:          -3.633
REMARK INTER:                  -3.397
REMARK INTRA:                  -0.236
REMARK UNBOUND:                -0.231
REMARK  Name = /home/vital/Documents/PhD_2021/Malaria_codes/data/pdb_ligands_mmv/ligand_56.pdb
REMARK  3 active torsions:
REMARK  status: ('A' for Active; 'I' for Inactive)
REMARK    1  A    between atoms: C1_1  and  C2_2
REMARK    2  A    between atoms: C5_5  and  C8_8
REMARK    3  A    between atoms: C17_18  and  O1_19
REMARK                            x       y       z     vdW  Elec       q    Type
REMARK                         _______ _______ _______ _____ _____    ______ ____
ROOT
ATOM      1  C8  UNL     1      15.539  30.303  14.203  0.00  0.00    +0.095 A 
ATOM      2  C9  UNL     1      15.971  31.044  13.070  0.00  0.00    +0.078 A 
ATOM      3  C10 UNL     1      16.093  32.347  13.487  0.00  0.00    +0.160 A 
ATOM      4  N1  UNL     1      16.457  33.489  12.836  0.00  0.00    -0.232 NA
ATOM      5  C11 UNL     1      16.480  34.587  13.542  0.00  0.00    +0.052 A 
ATOM      6  C12 UNL     1      16.814  35.866  12.790  0.00  0.00    +0.056 C 
ATOM      7  C13 UNL     1      17.215  37.028  13.683  0.00  0.00    +0.006 C 
ATOM      8  C14 UNL     1      16.218  37.202  14.819  0.00  0.00    +0.005 C 
ATOM      9  C15 UNL     1      16.244  35.986  15.737  0.00  0.00    +0.042 C 
ATOM     10  C16 UNL     1      16.141  34.682  15.010  0.00  0.00    +0.035 A 
ATOM     11  C17 UNL     1      15.768  33.523  15.582  0.00  0.00    +0.220 A 
ATOM     12  N2  UNL     1      15.742  32.345  14.825  0.00  0.00    -0.181 N 
ATOM     13  N3  UNL     1      15.405  31.108  15.271  0.00  0.00    -0.162 NA
ENDROOT
BRANCH   1  18
ATOM     14  C1  UNL     1      14.465  24.613  14.543  0.00  0.00    +0.044 C 
ATOM     15  C2  UNL     1      14.728  26.085  14.431  0.00  0.00    -0.050 A 
ATOM     16  C3  UNL     1      15.935  26.552  13.900  0.00  0.00    +0.004 A 
ATOM     17  C4  UNL     1      16.193  27.924  13.826  0.00  0.00    +0.010 A 
ATOM     18  C5  UNL     1      15.258  28.863  14.289  0.00  0.00    +0.002 A 
ATOM     19  C6  UNL     1      14.057  28.386  14.835  0.00  0.00    +0.010 A 
ATOM     20  C7  UNL     1      13.798  27.012  14.910  0.00  0.00    +0.004 A 
ENDBRANCH   1  18
BRANCH  11  21
ATOM     21  O1  UNL     1      15.426  33.452  16.925  0.00  0.00    -0.492 OA
ATOM     22  H17 UNL     1      15.729  32.565  17.221  0.00  0.00    +0.294 HD
ENDBRANCH  11  21
TORSDOF 2
ENDMDL
MODEL 7
REMARK VINA RESULT:    -3.006      6.194     10.599
REMARK INTER + INTRA:          -3.501
REMARK INTER:                  -3.270
REMARK INTRA:                  -0.231
REMARK UNBOUND:                -0.231
REMARK  Name = /home/vital/Documents/PhD_2021/Malaria_codes/data/pdb_ligands_mmv/ligand_56.pdb
REMARK  3 active torsions:
REMARK  status: ('A' for Active; 'I' for Inactive)
REMARK    1  A    between atoms: C1_1  and  C2_2
REMARK    2  A    between atoms: C5_5  and  C8_8
REMARK    3  A    between atoms: C17_18  and  O1_19
REMARK                            x       y       z     vdW  Elec       q    Type
REMARK                         _______ _______ _______ _____ _____    ______ ____
ROOT
ATOM      1  C8  UNL     1      26.861  45.484  16.475  0.00  0.00    +0.095 A 
ATOM      2  C9  UNL     1      27.215  44.546  15.467  0.00  0.00    +0.078 A 
ATOM      3  C10 UNL     1      28.588  44.492  15.458  0.00  0.00    +0.160 A 
ATOM      4  N1  UNL     1      29.473  43.782  14.702  0.00  0.00    -0.232 NA
ATOM      5  C11 UNL     1      30.741  43.958  14.960  0.00  0.00    +0.052 A 
ATOM      6  C12 UNL     1      31.721  43.219  14.062  0.00  0.00    +0.056 C 
ATOM      7  C13 UNL     1      33.131  43.127  14.619  0.00  0.00    +0.006 C 
ATOM      8  C14 UNL     1      33.611  44.490  15.096  0.00  0.00    +0.005 C 
ATOM      9  C15 UNL     1      32.764  44.968  16.270  0.00  0.00    +0.042 C 
ATOM     10  C16 UNL     1      31.290  44.875  16.025  0.00  0.00    +0.035 A 
ATOM     11  C17 UNL     1      30.362  45.561  16.716  0.00  0.00    +0.220 A 
ATOM     12  N2  UNL     1      29.002  45.374  16.439  0.00  0.00    -0.181 N 
ATOM     13  N3  UNL     1      27.962  45.982  17.064  0.00  0.00    -0.162 NA
ENDROOT
BRANCH   1  18
ATOM     14  C1  UNL     1      21.538  47.160  18.052  0.00  0.00    +0.044 C 
ATOM     15  C2  UNL     1      22.924  46.749  17.659  0.00  0.00    -0.050 A 
ATOM     16  C3  UNL     1      23.455  47.131  16.423  0.00  0.00    +0.004 A 
ATOM     17  C4  UNL     1      24.737  46.719  16.043  0.00  0.00    +0.010 A 
ATOM     18  C5  UNL     1      25.515  45.908  16.884  0.00  0.00    +0.002 A 
ATOM     19  C6  UNL     1      24.968  45.515  18.114  0.00  0.00    +0.010 A 
ATOM     20  C7  UNL     1      23.686  45.926  18.495  0.00  0.00    +0.004 A 
ENDBRANCH   1  18
BRANCH  11  21
ATOM     21  O1  UNL     1      30.715  46.444  17.727  0.00  0.00    -0.492 OA
ATOM     22  H17 UNL     1      29.866  46.708  18.146  0.00  0.00    +0.294 HD
ENDBRANCH  11  21
TORSDOF 2
ENDMDL
MODEL 8
REMARK VINA RESULT:    -2.919     16.348     18.724
REMARK INTER + INTRA:          -3.406
REMARK INTER:                  -3.164
REMARK INTRA:                  -0.242
REMARK UNBOUND:                -0.231
REMARK  Name = /home/vital/Documents/PhD_2021/Malaria_codes/data/pdb_ligands_mmv/ligand_56.pdb
REMARK  3 active torsions:
REMARK  status: ('A' for Active; 'I' for Inactive)
REMARK    1  A    between atoms: C1_1  and  C2_2
REMARK    2  A    between atoms: C5_5  and  C8_8
REMARK    3  A    between atoms: C17_18  and  O1_19
REMARK                            x       y       z     vdW  Elec       q    Type
REMARK                         _______ _______ _______ _____ _____    ______ ____
ROOT
ATOM      1  C8  UNL     1      35.176  46.608  28.272  0.00  0.00    +0.095 A 
ATOM      2  C9  UNL     1      34.328  46.297  27.175  0.00  0.00    +0.078 A 
ATOM      3  C10 UNL     1      35.076  46.501  26.042  0.00  0.00    +0.160 A 
ATOM      4  N1  UNL     1      34.786  46.374  24.715  0.00  0.00    -0.232 NA
ATOM      5  C11 UNL     1      35.747  46.643  23.873  0.00  0.00    +0.052 A 
ATOM      6  C12 UNL     1      35.392  46.570  22.397  0.00  0.00    +0.056 C 
ATOM      7  C13 UNL     1      36.592  46.496  21.469  0.00  0.00    +0.006 C 
ATOM      8  C14 UNL     1      37.613  47.567  21.823  0.00  0.00    +0.005 C 
ATOM      9  C15 UNL     1      38.185  47.312  23.213  0.00  0.00    +0.042 C 
ATOM     10  C16 UNL     1      37.142  47.073  24.258  0.00  0.00    +0.035 A 
ATOM     11  C17 UNL     1      37.350  47.201  25.581  0.00  0.00    +0.220 A 
ATOM     12  N2  UNL     1      36.320  46.914  26.485  0.00  0.00    -0.181 N 
ATOM     13  N3  UNL     1      36.393  46.982  27.838  0.00  0.00    -0.162 NA
ENDROOT
BRANCH   1  18
ATOM     14  C1  UNL     1      33.884  46.386  33.922  0.00  0.00    +0.044 C 
ATOM     15  C2  UNL     1      34.222  46.471  32.464  0.00  0.00    -0.050 A 
ATOM     16  C3  UNL     1      33.210  46.577  31.505  0.00  0.00    +0.004 A 
ATOM     17  C4  UNL     1      33.525  46.623  30.143  0.00  0.00    +0.010 A 
ATOM     18  C5  UNL     1      34.857  46.556  29.706  0.00  0.00    +0.002 A 
ATOM     19  C6  UNL     1      35.865  46.433  30.673  0.00  0.00    +0.010 A 
ATOM     20  C7  UNL     1      35.551  46.386  32.036  0.00  0.00    +0.004 A 
ENDBRANCH   1  18
BRANCH  11  21
ATOM     21  O1  UNL     1      38.583  47.590  26.088  0.00  0.00    -0.492 OA
ATOM     22  H17 UNL     1      38.505  48.557  26.241  0.00  0.00    +0.294 HD
ENDBRANCH  11  21
TORSDOF 2
ENDMDL
MODEL 9
REMARK VINA RESULT:    -2.801     16.699     17.553
REMARK INTER + INTRA:          -3.278
REMARK INTER:                  -3.041
REMARK INTRA:                  -0.237
REMARK UNBOUND:                -0.231
REMARK  Name = /home/vital/Documents/PhD_2021/Malaria_codes/data/pdb_ligands_mmv/ligand_56.pdb
REMARK  3 active torsions:
REMARK  status: ('A' for Active; 'I' for Inactive)
REMARK    1  A    between atoms: C1_1  and  C2_2
REMARK    2  A    between atoms: C5_5  and  C8_8
REMARK    3  A    between atoms: C17_18  and  O1_19
REMARK                            x       y       z     vdW  Elec       q    Type
REMARK                         _______ _______ _______ _____ _____    ______ ____
ROOT
ATOM      1  C8  UNL     1      35.429  46.748  27.442  0.00  0.00    +0.095 A 
ATOM      2  C9  UNL     1      34.045  46.825  27.754  0.00  0.00    +0.078 A 
ATOM      3  C10 UNL     1      33.954  46.741  29.122  0.00  0.00    +0.160 A 
ATOM      4  N1  UNL     1      32.889  46.748  29.974  0.00  0.00    -0.232 NA
ATOM      5  C11 UNL     1      33.154  46.659  31.249  0.00  0.00    +0.052 A 
ATOM      6  C12 UNL     1      31.957  46.593  32.184  0.00  0.00    +0.056 C 
ATOM      7  C13 UNL     1      32.284  46.885  33.638  0.00  0.00    +0.006 C 
ATOM      8  C14 UNL     1      33.489  46.074  34.092  0.00  0.00    +0.005 C 
ATOM      9  C15 UNL     1      34.734  46.502  33.325  0.00  0.00    +0.042 C 
ATOM     10  C16 UNL     1      34.538  46.553  31.842  0.00  0.00    +0.035 A 
ATOM     11  C17 UNL     1      35.539  46.527  30.944  0.00  0.00    +0.220 A 
ATOM     12  N2  UNL     1      35.256  46.622  29.576  0.00  0.00    -0.181 N 
ATOM     13  N3  UNL     1      36.161  46.626  28.564  0.00  0.00    -0.162 NA
ENDROOT
BRANCH   1  18
ATOM     14  C1  UNL     1      37.892  46.902  22.193  0.00  0.00    +0.044 C 
ATOM     15  C2  UNL     1      37.273  46.842  23.557  0.00  0.00    -0.050 A 
ATOM     16  C3  UNL     1      36.117  46.087  23.780  0.00  0.00    +0.004 A 
ATOM     17  C4  UNL     1      35.522  46.058  25.046  0.00  0.00    +0.010 A 
ATOM     18  C5  UNL     1      36.062  46.789  26.116  0.00  0.00    +0.002 A 
ATOM     19  C6  UNL     1      37.212  47.555  25.880  0.00  0.00    +0.010 A 
ATOM     20  C7  UNL     1      37.807  47.586  24.613  0.00  0.00    +0.004 A 
ENDBRANCH   1  18
BRANCH  11  21
ATOM     21  O1  UNL     1      36.867  46.432  31.337  0.00  0.00    -0.492 OA
ATOM     22  H17 UNL     1      37.265  47.302  31.113  0.00  0.00    +0.294 HD
ENDBRANCH  11  21
TORSDOF 2
ENDMDL
