MODEL 1
REMARK VINA RESULT:    -2.790      0.000      0.000
REMARK INTER + INTRA:          -5.561
REMARK INTER:                  -4.013
REMARK INTRA:                  -1.547
REMARK UNBOUND:                -1.547
REMARK  Name = /home/vital/Documents/PhD_2021/Malaria_codes/data/pdb_ligands_mmv/ligand_171.pdb
REMARK  9 active torsions:
REMARK  status: ('A' for Active; 'I' for Inactive)
REMARK    1  A    between atoms: N1_1  and  C1_2
REMARK    2  A    between atoms: C1_2  and  C2_3
REMARK    3  A    between atoms: C2_3  and  C3_4
REMARK    4  A    between atoms: C2_3  and  O2_10
REMARK    5  A    between atoms: C3_4  and  N2_5
REMARK    6  A    between atoms: N2_5  and  C4_6
REMARK    7  A    between atoms: C4_6  and  C5_7
REMARK    8  A    between atoms: C5_7  and  O1_8
REMARK    9  A    between atoms: O1_8  and  C6_9
REMARK                            x       y       z     vdW  Elec       q    Type
REMARK                         _______ _______ _______ _____ _____    ______ ____
ROOT
ATOM      1  N1  UNL     1      16.708  25.322  15.740  0.00  0.00    -0.337 N 
ATOM      2  C7  UNL     1      17.939  25.429  16.364  0.00  0.00    +0.050 A 
ATOM      3  C8  UNL     1      18.570  26.557  15.837  0.00  0.00    +0.009 A 
ATOM      4  C9  UNL     1      19.860  26.899  16.294  0.00  0.00    +0.030 A 
ATOM      5  C10 UNL     1      20.476  26.105  17.263  0.00  0.00    +0.042 A 
ATOM      6 CL1  UNL     1      22.050  26.520  17.825  0.00  0.00    -0.084 Cl
ATOM      7  C11 UNL     1      19.835  24.985  17.781  0.00  0.00    +0.022 A 
ATOM      8  C12 UNL     1      18.556  24.629  17.342  0.00  0.00    +0.028 A 
ATOM      9  C13 UNL     1      16.520  26.371  14.854  0.00  0.00    +0.050 A 
ATOM     10  C14 UNL     1      17.680  27.147  14.888  0.00  0.00    +0.009 A 
ATOM     11  C15 UNL     1      17.767  28.287  14.061  0.00  0.00    +0.030 A 
ATOM     12  C16 UNL     1      16.693  28.613  13.230  0.00  0.00    +0.042 A 
ATOM     13 CL2  UNL     1      16.797  30.005  12.220  0.00  0.00    -0.084 Cl
ATOM     14  C17 UNL     1      15.544  27.833  13.208  0.00  0.00    +0.022 A 
ATOM     15  C18 UNL     1      15.437  26.699  14.019  0.00  0.00    +0.028 A 
ENDROOT
BRANCH   1  16
ATOM     16  C1  UNL     1      15.715  24.298  16.030  0.00  0.00    +0.155 C 
BRANCH  16  17
ATOM     17  C2  UNL     1      14.951  24.455  17.358  0.00  0.00    +0.148 C 
BRANCH  17  18
ATOM     18  O2  UNL     1      14.587  23.182  17.912  0.00  0.00    -0.389 OA
ATOM     19  H14 UNL     1      14.296  22.611  17.182  0.00  0.00    +0.210 HD
ENDBRANCH  17  18
BRANCH  17  20
ATOM     20  C3  UNL     1      13.691  25.341  17.258  0.00  0.00    +0.114 C 
BRANCH  20  21
ATOM     21  N2  UNL     1      13.690  26.477  18.197  0.00  0.00    -0.311 NA
ATOM     22  H6  UNL     1      14.123  26.148  19.065  0.00  0.00    +0.122 HD
BRANCH  21  23
ATOM     23  C4  UNL     1      14.420  27.641  17.694  0.00  0.00    +0.109 C 
BRANCH  23  24
ATOM     24  C5  UNL     1      15.386  28.191  18.755  0.00  0.00    +0.174 C 
BRANCH  24  25
ATOM     25  O1  UNL     1      16.653  27.529  18.691  0.00  0.00    -0.382 OA
ATOM     26  C6  UNL     1      17.076  27.020  19.947  0.00  0.00    +0.194 C 
ENDBRANCH  24  25
ENDBRANCH  23  24
ENDBRANCH  21  23
ENDBRANCH  20  21
ENDBRANCH  17  20
ENDBRANCH  16  17
ENDBRANCH   1  16
TORSDOF 8
ENDMDL
MODEL 2
REMARK VINA RESULT:    -2.696      2.380      4.935
REMARK INTER + INTRA:          -5.425
REMARK INTER:                  -3.463
REMARK INTRA:                  -1.962
REMARK UNBOUND:                -1.547
REMARK  Name = /home/vital/Documents/PhD_2021/Malaria_codes/data/pdb_ligands_mmv/ligand_171.pdb
REMARK  9 active torsions:
REMARK  status: ('A' for Active; 'I' for Inactive)
REMARK    1  A    between atoms: N1_1  and  C1_2
REMARK    2  A    between atoms: C1_2  and  C2_3
REMARK    3  A    between atoms: C2_3  and  C3_4
REMARK    4  A    between atoms: C2_3  and  O2_10
REMARK    5  A    between atoms: C3_4  and  N2_5
REMARK    6  A    between atoms: N2_5  and  C4_6
REMARK    7  A    between atoms: C4_6  and  C5_7
REMARK    8  A    between atoms: C5_7  and  O1_8
REMARK    9  A    between atoms: O1_8  and  C6_9
REMARK                            x       y       z     vdW  Elec       q    Type
REMARK                         _______ _______ _______ _____ _____    ______ ____
ROOT
ATOM      1  N1  UNL     1      16.269  27.671  14.531  0.00  0.00    -0.337 N 
ATOM      2  C7  UNL     1      15.873  28.996  14.555  0.00  0.00    +0.050 A 
ATOM      3  C8  UNL     1      16.693  29.653  15.474  0.00  0.00    +0.009 A 
ATOM      4  C9  UNL     1      16.499  31.031  15.707  0.00  0.00    +0.030 A 
ATOM      5  C10 UNL     1      15.494  31.707  15.013  0.00  0.00    +0.042 A 
ATOM      6 CL1  UNL     1      15.255  33.389  15.292  0.00  0.00    -0.084 Cl
ATOM      7  C11 UNL     1      14.687  31.041  14.098  0.00  0.00    +0.022 A 
ATOM      8  C12 UNL     1      14.863  29.676  13.852  0.00  0.00    +0.028 A 
ATOM      9  C13 UNL     1      17.342  27.468  15.385  0.00  0.00    +0.050 A 
ATOM     10  C14 UNL     1      17.614  28.692  15.997  0.00  0.00    +0.009 A 
ATOM     11  C15 UNL     1      18.663  28.772  16.937  0.00  0.00    +0.030 A 
ATOM     12  C16 UNL     1      19.405  27.627  17.232  0.00  0.00    +0.042 A 
ATOM     13 CL2  UNL     1      20.687  27.722  18.378  0.00  0.00    -0.084 Cl
ATOM     14  C17 UNL     1      19.125  26.415  16.614  0.00  0.00    +0.022 A 
ATOM     15  C18 UNL     1      18.089  26.313  15.680  0.00  0.00    +0.028 A 
ENDROOT
BRANCH   1  16
ATOM     16  C1  UNL     1      15.693  26.646  13.671  0.00  0.00    +0.155 C 
BRANCH  16  17
ATOM     17  C2  UNL     1      14.479  25.891  14.242  0.00  0.00    +0.148 C 
BRANCH  17  18
ATOM     18  O2  UNL     1      13.694  26.727  15.106  0.00  0.00    -0.389 OA
ATOM     19  H14 UNL     1      14.224  26.919  15.898  0.00  0.00    +0.210 HD
ENDBRANCH  17  18
BRANCH  17  20
ATOM     20  C3  UNL     1      14.842  24.591  14.992  0.00  0.00    +0.114 C 
BRANCH  20  21
ATOM     21  N2  UNL     1      14.284  24.517  16.353  0.00  0.00    -0.311 NA
ATOM     22  H6  UNL     1      13.719  23.664  16.400  0.00  0.00    +0.122 HD
BRANCH  21  23
ATOM     23  C4  UNL     1      15.310  24.485  17.396  0.00  0.00    +0.109 C 
BRANCH  23  24
ATOM     24  C5  UNL     1      15.274  25.762  18.249  0.00  0.00    +0.174 C 
BRANCH  24  25
ATOM     25  O1  UNL     1      14.626  26.830  17.550  0.00  0.00    -0.382 OA
ATOM     26  C6  UNL     1      14.536  28.020  18.321  0.00  0.00    +0.194 C 
ENDBRANCH  24  25
ENDBRANCH  23  24
ENDBRANCH  21  23
ENDBRANCH  20  21
ENDBRANCH  17  20
ENDBRANCH  16  17
ENDBRANCH   1  16
TORSDOF 8
ENDMDL
MODEL 3
REMARK VINA RESULT:    -2.688      2.725      5.677
REMARK INTER + INTRA:          -5.414
REMARK INTER:                  -3.735
REMARK INTRA:                  -1.679
REMARK UNBOUND:                -1.547
REMARK  Name = /home/vital/Documents/PhD_2021/Malaria_codes/data/pdb_ligands_mmv/ligand_171.pdb
REMARK  9 active torsions:
REMARK  status: ('A' for Active; 'I' for Inactive)
REMARK    1  A    between atoms: N1_1  and  C1_2
REMARK    2  A    between atoms: C1_2  and  C2_3
REMARK    3  A    between atoms: C2_3  and  C3_4
REMARK    4  A    between atoms: C2_3  and  O2_10
REMARK    5  A    between atoms: C3_4  and  N2_5
REMARK    6  A    between atoms: N2_5  and  C4_6
REMARK    7  A    between atoms: C4_6  and  C5_7
REMARK    8  A    between atoms: C5_7  and  O1_8
REMARK    9  A    between atoms: O1_8  and  C6_9
REMARK                            x       y       z     vdW  Elec       q    Type
REMARK                         _______ _______ _______ _____ _____    ______ ____
ROOT
ATOM      1  N1  UNL     1      14.378  28.177  15.849  0.00  0.00    -0.337 N 
ATOM      2  C7  UNL     1      14.732  29.427  15.371  0.00  0.00    +0.050 A 
ATOM      3  C8  UNL     1      15.399  30.088  16.404  0.00  0.00    +0.009 A 
ATOM      4  C9  UNL     1      15.867  31.402  16.189  0.00  0.00    +0.030 A 
ATOM      5  C10 UNL     1      15.654  32.010  14.951  0.00  0.00    +0.042 A 
ATOM      6 CL1  UNL     1      16.226  33.613  14.684  0.00  0.00    -0.084 Cl
ATOM      7  C11 UNL     1      14.991  31.339  13.930  0.00  0.00    +0.022 A 
ATOM      8  C12 UNL     1      14.520  30.036  14.122  0.00  0.00    +0.028 A 
ATOM      9  C13 UNL     1      14.830  28.008  17.149  0.00  0.00    +0.050 A 
ATOM     10  C14 UNL     1      15.458  29.198  17.520  0.00  0.00    +0.009 A 
ATOM     11  C15 UNL     1      16.006  29.309  18.816  0.00  0.00    +0.030 A 
ATOM     12  C16 UNL     1      15.909  28.229  19.695  0.00  0.00    +0.042 A 
ATOM     13 CL2  UNL     1      16.578  28.361  21.277  0.00  0.00    -0.084 Cl
ATOM     14  C17 UNL     1      15.283  27.050  19.311  0.00  0.00    +0.022 A 
ATOM     15  C18 UNL     1      14.733  26.918  18.032  0.00  0.00    +0.028 A 
ENDROOT
BRANCH   1  16
ATOM     16  C1  UNL     1      13.696  27.152  15.072  0.00  0.00    +0.155 C 
BRANCH  16  17
ATOM     17  C2  UNL     1      14.599  26.097  14.407  0.00  0.00    +0.148 C 
BRANCH  17  18
ATOM     18  O2  UNL     1      15.157  25.194  15.374  0.00  0.00    -0.389 OA
ATOM     19  H14 UNL     1      14.522  25.107  16.103  0.00  0.00    +0.210 HD
ENDBRANCH  17  18
BRANCH  17  20
ATOM     20  C3  UNL     1      15.739  26.692  13.554  0.00  0.00    +0.114 C 
BRANCH  20  21
ATOM     21  N2  UNL     1      17.081  26.242  13.962  0.00  0.00    -0.311 NA
ATOM     22  H6  UNL     1      17.559  25.916  13.116  0.00  0.00    +0.122 HD
BRANCH  21  23
ATOM     23  C4  UNL     1      17.874  27.294  14.600  0.00  0.00    +0.109 C 
BRANCH  23  24
ATOM     24  C5  UNL     1      18.361  26.856  15.989  0.00  0.00    +0.174 C 
BRANCH  24  25
ATOM     25  O1  UNL     1      17.529  25.822  16.525  0.00  0.00    -0.382 OA
ATOM     26  C6  UNL     1      18.250  24.885  17.313  0.00  0.00    +0.194 C 
ENDBRANCH  24  25
ENDBRANCH  23  24
ENDBRANCH  21  23
ENDBRANCH  20  21
ENDBRANCH  17  20
ENDBRANCH  16  17
ENDBRANCH   1  16
TORSDOF 8
ENDMDL
MODEL 4
REMARK VINA RESULT:    -2.688      3.283      4.960
REMARK INTER + INTRA:          -5.414
REMARK INTER:                  -3.765
REMARK INTRA:                  -1.649
REMARK UNBOUND:                -1.547
REMARK  Name = /home/vital/Documents/PhD_2021/Malaria_codes/data/pdb_ligands_mmv/ligand_171.pdb
REMARK  9 active torsions:
REMARK  status: ('A' for Active; 'I' for Inactive)
REMARK    1  A    between atoms: N1_1  and  C1_2
REMARK    2  A    between atoms: C1_2  and  C2_3
REMARK    3  A    between atoms: C2_3  and  C3_4
REMARK    4  A    between atoms: C2_3  and  O2_10
REMARK    5  A    between atoms: C3_4  and  N2_5
REMARK    6  A    between atoms: N2_5  and  C4_6
REMARK    7  A    between atoms: C4_6  and  C5_7
REMARK    8  A    between atoms: C5_7  and  O1_8
REMARK    9  A    between atoms: O1_8  and  C6_9
REMARK                            x       y       z     vdW  Elec       q    Type
REMARK                         _______ _______ _______ _____ _____    ______ ____
ROOT
ATOM      1  N1  UNL     1      16.180  29.108  13.413  0.00  0.00    -0.337 N 
ATOM      2  C7  UNL     1      17.559  29.069  13.300  0.00  0.00    +0.050 A 
ATOM      3  C8  UNL     1      17.980  27.852  13.837  0.00  0.00    +0.009 A 
ATOM      4  C9  UNL     1      19.359  27.551  13.860  0.00  0.00    +0.030 A 
ATOM      5  C10 UNL     1      20.269  28.476  13.345  0.00  0.00    +0.042 A 
ATOM      6 CL1  UNL     1      21.952  28.112  13.369  0.00  0.00    -0.084 Cl
ATOM      7  C11 UNL     1      19.836  29.683  12.811  0.00  0.00    +0.022 A 
ATOM      8  C12 UNL     1      18.474  30.000  12.778  0.00  0.00    +0.028 A 
ATOM      9  C13 UNL     1      15.705  27.934  13.976  0.00  0.00    +0.050 A 
ATOM     10  C14 UNL     1      16.816  27.140  14.263  0.00  0.00    +0.009 A 
ATOM     11  C15 UNL     1      16.622  25.878  14.863  0.00  0.00    +0.030 A 
ATOM     12  C16 UNL     1      15.325  25.451  15.154  0.00  0.00    +0.042 A 
ATOM     13 CL2  UNL     1      15.084  23.910  15.884  0.00  0.00    -0.084 Cl
ATOM     14  C17 UNL     1      14.227  26.251  14.860  0.00  0.00    +0.022 A 
ATOM     15  C18 UNL     1      14.397  27.505  14.267  0.00  0.00    +0.028 A 
ENDROOT
BRANCH   1  16
ATOM     16  C1  UNL     1      15.337  30.195  12.935  0.00  0.00    +0.155 C 
BRANCH  16  17
ATOM     17  C2  UNL     1      14.696  31.079  14.021  0.00  0.00    +0.148 C 
BRANCH  17  18
ATOM     18  O2  UNL     1      13.996  32.194  13.449  0.00  0.00    -0.389 OA
ATOM     19  H14 UNL     1      14.374  32.365  12.570  0.00  0.00    +0.210 HD
ENDBRANCH  17  18
BRANCH  17  20
ATOM     20  C3  UNL     1      15.693  31.597  15.080  0.00  0.00    +0.114 C 
BRANCH  20  21
ATOM     21  N2  UNL     1      15.586  30.910  16.379  0.00  0.00    -0.311 NA
ATOM     22  H6  UNL     1      14.921  30.140  16.257  0.00  0.00    +0.122 HD
BRANCH  21  23
ATOM     23  C4  UNL     1      16.864  30.384  16.860  0.00  0.00    +0.109 C 
BRANCH  23  24
ATOM     24  C5  UNL     1      16.665  29.077  17.643  0.00  0.00    +0.174 C 
BRANCH  24  25
ATOM     25  O1  UNL     1      15.334  28.576  17.482  0.00  0.00    -0.382 OA
ATOM     26  C6  UNL     1      14.992  27.594  18.449  0.00  0.00    +0.194 C 
ENDBRANCH  24  25
ENDBRANCH  23  24
ENDBRANCH  21  23
ENDBRANCH  20  21
ENDBRANCH  17  20
ENDBRANCH  16  17
ENDBRANCH   1  16
TORSDOF 8
ENDMDL
MODEL 5
REMARK VINA RESULT:    -2.404      3.472      5.552
REMARK INTER + INTRA:          -5.005
REMARK INTER:                  -3.188
REMARK INTRA:                  -1.817
REMARK UNBOUND:                -1.547
REMARK  Name = /home/vital/Documents/PhD_2021/Malaria_codes/data/pdb_ligands_mmv/ligand_171.pdb
REMARK  9 active torsions:
REMARK  status: ('A' for Active; 'I' for Inactive)
REMARK    1  A    between atoms: N1_1  and  C1_2
REMARK    2  A    between atoms: C1_2  and  C2_3
REMARK    3  A    between atoms: C2_3  and  C3_4
REMARK    4  A    between atoms: C2_3  and  O2_10
REMARK    5  A    between atoms: C3_4  and  N2_5
REMARK    6  A    between atoms: N2_5  and  C4_6
REMARK    7  A    between atoms: C4_6  and  C5_7
REMARK    8  A    between atoms: C5_7  and  O1_8
REMARK    9  A    between atoms: O1_8  and  C6_9
REMARK                            x       y       z     vdW  Elec       q    Type
REMARK                         _______ _______ _______ _____ _____    ______ ____
ROOT
ATOM      1  N1  UNL     1      14.870  28.802  15.336  0.00  0.00    -0.337 N 
ATOM      2  C7  UNL     1      15.442  29.203  16.530  0.00  0.00    +0.050 A 
ATOM      3  C8  UNL     1      15.871  28.049  17.188  0.00  0.00    +0.009 A 
ATOM      4  C9  UNL     1      16.490  28.167  18.450  0.00  0.00    +0.030 A 
ATOM      5  C10 UNL     1      16.661  29.433  19.012  0.00  0.00    +0.042 A 
ATOM      6 CL1  UNL     1      17.419  29.582  20.552  0.00  0.00    -0.084 Cl
ATOM      7  C11 UNL     1      16.232  30.575  18.345  0.00  0.00    +0.022 A 
ATOM      8  C12 UNL     1      15.616  30.480  17.094  0.00  0.00    +0.028 A 
ATOM      9  C13 UNL     1      14.951  27.426  15.196  0.00  0.00    +0.050 A 
ATOM     10  C14 UNL     1      15.561  26.933  16.351  0.00  0.00    +0.009 A 
ATOM     11  C15 UNL     1      15.759  25.542  16.482  0.00  0.00    +0.030 A 
ATOM     12  C16 UNL     1      15.344  24.692  15.456  0.00  0.00    +0.042 A 
ATOM     13 CL2  UNL     1      15.586  22.994  15.613  0.00  0.00    -0.084 Cl
ATOM     14  C17 UNL     1      14.740  25.196  14.311  0.00  0.00    +0.022 A 
ATOM     15  C18 UNL     1      14.533  26.571  14.160  0.00  0.00    +0.028 A 
ENDROOT
BRANCH   1  16
ATOM     16  C1  UNL     1      14.328  29.704  14.329  0.00  0.00    +0.155 C 
BRANCH  16  17
ATOM     17  C2  UNL     1      15.354  30.565  13.572  0.00  0.00    +0.148 C 
BRANCH  17  18
ATOM     18  O2  UNL     1      14.861  31.893  13.339  0.00  0.00    -0.389 OA
ATOM     19  H14 UNL     1      15.083  32.138  12.426  0.00  0.00    +0.210 HD
ENDBRANCH  17  18
BRANCH  17  20
ATOM     20  C3  UNL     1      15.820  29.957  12.231  0.00  0.00    +0.114 C 
BRANCH  20  21
ATOM     21  N2  UNL     1      16.738  28.816  12.386  0.00  0.00    -0.311 NA
ATOM     22  H6  UNL     1      17.000  28.511  11.443  0.00  0.00    +0.122 HD
BRANCH  21  23
ATOM     23  C4  UNL     1      17.943  29.144  13.148  0.00  0.00    +0.109 C 
BRANCH  23  24
ATOM     24  C5  UNL     1      18.489  27.909  13.881  0.00  0.00    +0.174 C 
BRANCH  24  25
ATOM     25  O1  UNL     1      18.751  28.201  15.258  0.00  0.00    -0.382 OA
ATOM     26  C6  UNL     1      19.124  29.554  15.476  0.00  0.00    +0.194 C 
ENDBRANCH  24  25
ENDBRANCH  23  24
ENDBRANCH  21  23
ENDBRANCH  20  21
ENDBRANCH  17  20
ENDBRANCH  16  17
ENDBRANCH   1  16
TORSDOF 8
ENDMDL
MODEL 6
REMARK VINA RESULT:    -2.384      2.310      3.120
REMARK INTER + INTRA:          -4.976
REMARK INTER:                  -3.239
REMARK INTRA:                  -1.737
REMARK UNBOUND:                -1.547
REMARK  Name = /home/vital/Documents/PhD_2021/Malaria_codes/data/pdb_ligands_mmv/ligand_171.pdb
REMARK  9 active torsions:
REMARK  status: ('A' for Active; 'I' for Inactive)
REMARK    1  A    between atoms: N1_1  and  C1_2
REMARK    2  A    between atoms: C1_2  and  C2_3
REMARK    3  A    between atoms: C2_3  and  C3_4
REMARK    4  A    between atoms: C2_3  and  O2_10
REMARK    5  A    between atoms: C3_4  and  N2_5
REMARK    6  A    between atoms: N2_5  and  C4_6
REMARK    7  A    between atoms: C4_6  and  C5_7
REMARK    8  A    between atoms: C5_7  and  O1_8
REMARK    9  A    between atoms: O1_8  and  C6_9
REMARK                            x       y       z     vdW  Elec       q    Type
REMARK                         _______ _______ _______ _____ _____    ______ ____
ROOT
ATOM      1  N1  UNL     1      16.398  27.764  14.517  0.00  0.00    -0.337 N 
ATOM      2  C7  UNL     1      17.484  27.604  15.359  0.00  0.00    +0.050 A 
ATOM      3  C8  UNL     1      17.754  28.853  15.922  0.00  0.00    +0.009 A 
ATOM      4  C9  UNL     1      18.832  28.982  16.824  0.00  0.00    +0.030 A 
ATOM      5  C10 UNL     1      19.602  27.859  17.133  0.00  0.00    +0.042 A 
ATOM      6 CL1  UNL     1      20.918  28.012  18.235  0.00  0.00    -0.084 Cl
ATOM      7  C11 UNL     1      19.321  26.621  16.567  0.00  0.00    +0.022 A 
ATOM      8  C12 UNL     1      18.257  26.472  15.672  0.00  0.00    +0.028 A 
ATOM      9  C13 UNL     1      15.944  29.073  14.552  0.00  0.00    +0.050 A 
ATOM     10  C14 UNL     1      16.788  29.775  15.414  0.00  0.00    +0.009 A 
ATOM     11  C15 UNL     1      16.561  31.151  15.627  0.00  0.00    +0.030 A 
ATOM     12  C16 UNL     1      15.499  31.778  14.973  0.00  0.00    +0.042 A 
ATOM     13 CL2  UNL     1      15.218  33.458  15.232  0.00  0.00    -0.084 Cl
ATOM     14  C17 UNL     1      14.665  31.067  14.119  0.00  0.00    +0.022 A 
ATOM     15  C18 UNL     1      14.872  29.703  13.894  0.00  0.00    +0.028 A 
ENDROOT
BRANCH   1  16
ATOM     16  C1  UNL     1      15.768  26.691  13.759  0.00  0.00    +0.155 C 
BRANCH  16  17
ATOM     17  C2  UNL     1      14.554  26.019  14.424  0.00  0.00    +0.148 C 
BRANCH  17  18
ATOM     18  O2  UNL     1      14.191  26.673  15.650  0.00  0.00    -0.389 OA
ATOM     19  H14 UNL     1      13.596  27.409  15.430  0.00  0.00    +0.210 HD
ENDBRANCH  17  18
BRANCH  17  20
ATOM     20  C3  UNL     1      14.739  24.509  14.693  0.00  0.00    +0.114 C 
BRANCH  20  21
ATOM     21  N2  UNL     1      15.884  24.200  15.567  0.00  0.00    -0.311 NA
ATOM     22  H6  UNL     1      16.420  25.067  15.677  0.00  0.00    +0.122 HD
BRANCH  21  23
ATOM     23  C4  UNL     1      15.487  23.698  16.883  0.00  0.00    +0.109 C 
BRANCH  23  24
ATOM     24  C5  UNL     1      15.977  24.629  18.002  0.00  0.00    +0.174 C 
BRANCH  24  25
ATOM     25  O1  UNL     1      15.460  25.953  17.835  0.00  0.00    -0.382 OA
ATOM     26  C6  UNL     1      15.873  26.842  18.863  0.00  0.00    +0.194 C 
ENDBRANCH  24  25
ENDBRANCH  23  24
ENDBRANCH  21  23
ENDBRANCH  20  21
ENDBRANCH  17  20
ENDBRANCH  16  17
ENDBRANCH   1  16
TORSDOF 8
ENDMDL
MODEL 7
REMARK VINA RESULT:    -2.326      3.556      5.843
REMARK INTER + INTRA:          -4.893
REMARK INTER:                  -2.904
REMARK INTRA:                  -1.989
REMARK UNBOUND:                -1.547
REMARK  Name = /home/vital/Documents/PhD_2021/Malaria_codes/data/pdb_ligands_mmv/ligand_171.pdb
REMARK  9 active torsions:
REMARK  status: ('A' for Active; 'I' for Inactive)
REMARK    1  A    between atoms: N1_1  and  C1_2
REMARK    2  A    between atoms: C1_2  and  C2_3
REMARK    3  A    between atoms: C2_3  and  C3_4
REMARK    4  A    between atoms: C2_3  and  O2_10
REMARK    5  A    between atoms: C3_4  and  N2_5
REMARK    6  A    between atoms: N2_5  and  C4_6
REMARK    7  A    between atoms: C4_6  and  C5_7
REMARK    8  A    between atoms: C5_7  and  O1_8
REMARK    9  A    between atoms: O1_8  and  C6_9
REMARK                            x       y       z     vdW  Elec       q    Type
REMARK                         _______ _______ _______ _____ _____    ______ ____
ROOT
ATOM      1  N1  UNL     1      15.034  28.859  15.190  0.00  0.00    -0.337 N 
ATOM      2  C7  UNL     1      15.052  27.479  15.092  0.00  0.00    +0.050 A 
ATOM      3  C8  UNL     1      15.663  26.993  16.249  0.00  0.00    +0.009 A 
ATOM      4  C9  UNL     1      15.824  25.600  16.408  0.00  0.00    +0.030 A 
ATOM      5  C10 UNL     1      15.368  24.740  15.407  0.00  0.00    +0.042 A 
ATOM      6 CL1  UNL     1      15.560  23.039  15.599  0.00  0.00    -0.084 Cl
ATOM      7  C11 UNL     1      14.759  25.237  14.261  0.00  0.00    +0.022 A 
ATOM      8  C12 UNL     1      14.590  26.614  14.084  0.00  0.00    +0.028 A 
ATOM      9  C13 UNL     1      15.586  29.268  16.394  0.00  0.00    +0.050 A 
ATOM     10  C14 UNL     1      16.000  28.116  17.065  0.00  0.00    +0.009 A 
ATOM     11  C15 UNL     1      16.617  28.242  18.328  0.00  0.00    +0.030 A 
ATOM     12  C16 UNL     1      16.798  29.513  18.877  0.00  0.00    +0.042 A 
ATOM     13 CL2  UNL     1      17.550  29.670  20.419  0.00  0.00    -0.084 Cl
ATOM     14  C17 UNL     1      16.380  30.651  18.199  0.00  0.00    +0.022 A 
ATOM     15  C18 UNL     1      15.766  30.549  16.946  0.00  0.00    +0.028 A 
ENDROOT
BRANCH   1  16
ATOM     16  C1  UNL     1      14.447  29.755  14.204  0.00  0.00    +0.155 C 
BRANCH  16  17
ATOM     17  C2  UNL     1      15.369  30.185  13.049  0.00  0.00    +0.148 C 
BRANCH  17  18
ATOM     18  O2  UNL     1      16.146  29.083  12.554  0.00  0.00    -0.389 OA
ATOM     19  H14 UNL     1      15.560  28.521  12.020  0.00  0.00    +0.210 HD
ENDBRANCH  17  18
BRANCH  17  20
ATOM     20  C3  UNL     1      16.316  31.353  13.400  0.00  0.00    +0.114 C 
BRANCH  20  21
ATOM     21  N2  UNL     1      17.740  31.047  13.178  0.00  0.00    -0.311 NA
ATOM     22  H6  UNL     1      18.108  31.771  12.552  0.00  0.00    +0.122 HD
BRANCH  21  23
ATOM     23  C4  UNL     1      18.524  31.021  14.412  0.00  0.00    +0.109 C 
BRANCH  23  24
ATOM     24  C5  UNL     1      19.051  29.608  14.705  0.00  0.00    +0.174 C 
BRANCH  24  25
ATOM     25  O1  UNL     1      18.249  28.614  14.058  0.00  0.00    -0.382 OA
ATOM     26  C6  UNL     1      18.847  27.326  14.070  0.00  0.00    +0.194 C 
ENDBRANCH  24  25
ENDBRANCH  23  24
ENDBRANCH  21  23
ENDBRANCH  20  21
ENDBRANCH  17  20
ENDBRANCH  16  17
ENDBRANCH   1  16
TORSDOF 8
ENDMDL
MODEL 8
REMARK VINA RESULT:    -2.288     18.462     19.871
REMARK INTER + INTRA:          -4.839
REMARK INTER:                  -2.859
REMARK INTRA:                  -1.980
REMARK UNBOUND:                -1.547
REMARK  Name = /home/vital/Documents/PhD_2021/Malaria_codes/data/pdb_ligands_mmv/ligand_171.pdb
REMARK  9 active torsions:
REMARK  status: ('A' for Active; 'I' for Inactive)
REMARK    1  A    between atoms: N1_1  and  C1_2
REMARK    2  A    between atoms: C1_2  and  C2_3
REMARK    3  A    between atoms: C2_3  and  C3_4
REMARK    4  A    between atoms: C2_3  and  O2_10
REMARK    5  A    between atoms: C3_4  and  N2_5
REMARK    6  A    between atoms: N2_5  and  C4_6
REMARK    7  A    between atoms: C4_6  and  C5_7
REMARK    8  A    between atoms: C5_7  and  O1_8
REMARK    9  A    between atoms: O1_8  and  C6_9
REMARK                            x       y       z     vdW  Elec       q    Type
REMARK                         _______ _______ _______ _____ _____    ______ ____
ROOT
ATOM      1  N1  UNL     1      22.407  45.759  18.790  0.00  0.00    -0.337 N 
ATOM      2  C7  UNL     1      23.542  45.555  19.556  0.00  0.00    +0.050 A 
ATOM      3  C8  UNL     1      24.640  45.859  18.750  0.00  0.00    +0.009 A 
ATOM      4  C9  UNL     1      25.940  45.727  19.282  0.00  0.00    +0.030 A 
ATOM      5  C10 UNL     1      26.100  45.296  20.600  0.00  0.00    +0.042 A 
ATOM      6 CL1  UNL     1      27.685  45.135  21.254  0.00  0.00    -0.084 Cl
ATOM      7  C11 UNL     1      24.997  44.998  21.392  0.00  0.00    +0.022 A 
ATOM      8  C12 UNL     1      23.700  45.123  20.884  0.00  0.00    +0.028 A 
ATOM      9  C13 UNL     1      22.748  46.218  17.528  0.00  0.00    +0.050 A 
ATOM     10  C14 UNL     1      24.142  46.275  17.477  0.00  0.00    +0.009 A 
ATOM     11  C15 UNL     1      24.768  46.702  16.287  0.00  0.00    +0.030 A 
ATOM     12  C16 UNL     1      23.981  47.060  15.190  0.00  0.00    +0.042 A 
ATOM     13 CL2  UNL     1      24.743  47.583  13.736  0.00  0.00    -0.084 Cl
ATOM     14  C17 UNL     1      22.595  47.001  15.256  0.00  0.00    +0.022 A 
ATOM     15  C18 UNL     1      21.954  46.580  16.425  0.00  0.00    +0.028 A 
ENDROOT
BRANCH   1  16
ATOM     16  C1  UNL     1      21.042  45.590  19.267  0.00  0.00    +0.155 C 
BRANCH  16  17
ATOM     17  C2  UNL     1      20.463  44.167  19.169  0.00  0.00    +0.148 C 
BRANCH  17  18
ATOM     18  O2  UNL     1      21.449  43.173  19.487  0.00  0.00    -0.389 OA
ATOM     19  H14 UNL     1      21.176  42.736  20.311  0.00  0.00    +0.210 HD
ENDBRANCH  17  18
BRANCH  17  20
ATOM     20  C3  UNL     1      19.836  43.836  17.797  0.00  0.00    +0.114 C 
BRANCH  20  21
ATOM     21  N2  UNL     1      20.434  42.660  17.142  0.00  0.00    -0.311 NA
ATOM     22  H6  UNL     1      19.663  42.036  16.884  0.00  0.00    +0.122 HD
BRANCH  21  23
ATOM     23  C4  UNL     1      21.213  42.997  15.950  0.00  0.00    +0.109 C 
BRANCH  23  24
ATOM     24  C5  UNL     1      22.671  42.535  16.092  0.00  0.00    +0.174 C 
BRANCH  24  25
ATOM     25  O1  UNL     1      23.150  42.741  17.424  0.00  0.00    -0.382 OA
ATOM     26  C6  UNL     1      24.438  42.182  17.642  0.00  0.00    +0.194 C 
ENDBRANCH  24  25
ENDBRANCH  23  24
ENDBRANCH  21  23
ENDBRANCH  20  21
ENDBRANCH  17  20
ENDBRANCH  16  17
ENDBRANCH   1  16
TORSDOF 8
ENDMDL
MODEL 9
REMARK VINA RESULT:    -2.244      3.364      6.229
REMARK INTER + INTRA:          -4.776
REMARK INTER:                  -3.309
REMARK INTRA:                  -1.467
REMARK UNBOUND:                -1.547
REMARK  Name = /home/vital/Documents/PhD_2021/Malaria_codes/data/pdb_ligands_mmv/ligand_171.pdb
REMARK  9 active torsions:
REMARK  status: ('A' for Active; 'I' for Inactive)
REMARK    1  A    between atoms: N1_1  and  C1_2
REMARK    2  A    between atoms: C1_2  and  C2_3
REMARK    3  A    between atoms: C2_3  and  C3_4
REMARK    4  A    between atoms: C2_3  and  O2_10
REMARK    5  A    between atoms: C3_4  and  N2_5
REMARK    6  A    between atoms: N2_5  and  C4_6
REMARK    7  A    between atoms: C4_6  and  C5_7
REMARK    8  A    between atoms: C5_7  and  O1_8
REMARK    9  A    between atoms: O1_8  and  C6_9
REMARK                            x       y       z     vdW  Elec       q    Type
REMARK                         _______ _______ _______ _____ _____    ______ ____
ROOT
ATOM      1  N1  UNL     1      15.945  29.447  16.992  0.00  0.00    -0.337 N 
ATOM      2  C7  UNL     1      15.662  30.358  15.989  0.00  0.00    +0.050 A 
ATOM      3  C8  UNL     1      15.240  29.626  14.878  0.00  0.00    +0.009 A 
ATOM      4  C9  UNL     1      14.892  30.313  13.695  0.00  0.00    +0.030 A 
ATOM      5  C10 UNL     1      14.976  31.706  13.663  0.00  0.00    +0.042 A 
ATOM      6 CL1  UNL     1      14.551  32.548  12.222  0.00  0.00    -0.084 Cl
ATOM      7  C11 UNL     1      15.396  32.422  14.778  0.00  0.00    +0.022 A 
ATOM      8  C12 UNL     1      15.745  31.761  15.960  0.00  0.00    +0.028 A 
ATOM      9  C13 UNL     1      15.683  28.155  16.564  0.00  0.00    +0.050 A 
ATOM     10  C14 UNL     1      15.255  28.243  15.238  0.00  0.00    +0.009 A 
ATOM     11  C15 UNL     1      14.929  27.060  14.542  0.00  0.00    +0.030 A 
ATOM     12  C16 UNL     1      15.041  25.830  15.193  0.00  0.00    +0.042 A 
ATOM     13 CL2  UNL     1      14.642  24.384  14.346  0.00  0.00    -0.084 Cl
ATOM     14  C17 UNL     1      15.466  25.757  16.514  0.00  0.00    +0.022 A 
ATOM     15  C18 UNL     1      15.795  26.917  17.222  0.00  0.00    +0.028 A 
ENDROOT
BRANCH   1  16
ATOM     16  C1  UNL     1      16.382  29.799  18.336  0.00  0.00    +0.155 C 
BRANCH  16  17
ATOM     17  C2  UNL     1      17.885  29.632  18.622  0.00  0.00    +0.148 C 
BRANCH  17  18
ATOM     18  O2  UNL     1      18.224  30.073  19.945  0.00  0.00    -0.389 OA
ATOM     19  H14 UNL     1      18.978  30.682  19.873  0.00  0.00    +0.210 HD
ENDBRANCH  17  18
BRANCH  17  20
ATOM     20  C3  UNL     1      18.803  30.341  17.602  0.00  0.00    +0.114 C 
BRANCH  20  21
ATOM     21  N2  UNL     1      19.898  29.493  17.102  0.00  0.00    -0.311 NA
ATOM     22  H6  UNL     1      20.567  29.383  17.870  0.00  0.00    +0.122 HD
BRANCH  21  23
ATOM     23  C4  UNL     1      19.448  28.177  16.649  0.00  0.00    +0.109 C 
BRANCH  23  24
ATOM     24  C5  UNL     1      19.565  28.046  15.123  0.00  0.00    +0.174 C 
BRANCH  24  25
ATOM     25  O1  UNL     1      18.505  28.745  14.462  0.00  0.00    -0.382 OA
ATOM     26  C6  UNL     1      18.975  29.718  13.541  0.00  0.00    +0.194 C 
ENDBRANCH  24  25
ENDBRANCH  23  24
ENDBRANCH  21  23
ENDBRANCH  20  21
ENDBRANCH  17  20
ENDBRANCH  16  17
ENDBRANCH   1  16
TORSDOF 8
ENDMDL
