MODEL 1
REMARK VINA RESULT:    -3.316      0.000      0.000
REMARK INTER + INTRA:          -5.619
REMARK INTER:                  -4.479
REMARK INTRA:                  -1.139
REMARK UNBOUND:                -1.139
REMARK  Name = /home/vital/Documents/PhD_2021/Malaria_codes/data/pdb_ligands_mmv/ligand_125.pdb
REMARK  10 active torsions:
REMARK  status: ('A' for Active; 'I' for Inactive)
REMARK    1  A    between atoms: C1_1  and  C2_2
REMARK    2  A    between atoms: C2_2  and  N1_3
REMARK    3  A    between atoms: N1_3  and  C3_4
REMARK    4  A    between atoms: N1_3  and  C5_6
REMARK    5  A    between atoms: C3_4  and  C4_5
REMARK    6  A    between atoms: C7_8  and  C8_9
REMARK    7  A    between atoms: C11_12  and  N2_13
REMARK    8  A    between atoms: C12_14  and  C13_16
REMARK    9  A    between atoms: C17_20  and  O2_21
REMARK   10  A    between atoms: O2_21  and  C18_22
REMARK                            x       y       z     vdW  Elec       q    Type
REMARK                         _______ _______ _______ _____ _____    ______ ____
ROOT
ATOM      1  C5  UNL     1      32.567  45.020  17.238  0.00  0.00    +0.122 A 
ATOM      2  C6  UNL     1      32.809  45.153  15.877  0.00  0.00    +0.047 A 
ATOM      3  C7  UNL     1      33.459  44.127  15.183  0.00  0.00    -0.038 A 
ATOM      4  C8  UNL     1      33.707  44.289  13.708  0.00  0.00    +0.044 C 
ATOM      5  C9  UNL     1      33.860  42.974  15.895  0.00  0.00    +0.005 A 
ATOM      6  C10 UNL     1      34.524  41.873  15.298  0.00  0.00    +0.033 A 
ATOM      7  C11 UNL     1      34.899  40.753  16.043  0.00  0.00    +0.034 A 
ATOM      8  C20 UNL     1      34.611  40.738  17.406  0.00  0.00    +0.025 A 
ATOM      9  C21 UNL     1      33.956  41.819  18.002  0.00  0.00    +0.030 A 
ATOM     10  C22 UNL     1      33.573  42.936  17.276  0.00  0.00    +0.073 A 
ATOM     11  N3  UNL     1      32.948  43.928  17.929  0.00  0.00    -0.232 NA
ENDROOT
BRANCH   7  12
ATOM     12  N2  UNL     1      35.564  39.630  15.509  0.00  0.00    -0.281 N 
ATOM     13  C12 UNL     1      35.000  38.553  14.849  0.00  0.00    +0.248 C 
ATOM     14  O1  UNL     1      33.806  38.347  14.667  0.00  0.00    -0.270 OA
ATOM     15  H16 UNL     1      36.559  39.587  15.689  0.00  0.00    +0.155 HD
BRANCH  13  16
ATOM     16  C13 UNL     1      35.972  37.536  14.361  0.00  0.00    +0.040 A 
ATOM     17  C14 UNL     1      37.310  37.645  14.756  0.00  0.00    +0.013 A 
ATOM     18  C15 UNL     1      38.246  36.711  14.314  0.00  0.00    +0.004 A 
ATOM     19  C16 UNL     1      37.851  35.659  13.482  0.00  0.00    +0.045 A 
ATOM     20  C17 UNL     1      36.515  35.533  13.098  0.00  0.00    +0.121 A 
ATOM     21  C19 UNL     1      35.577  36.469  13.544  0.00  0.00    +0.058 A 
BRANCH  20  22
ATOM     22  O2  UNL     1      35.998  34.548  12.301  0.00  0.00    -0.495 OA
ATOM     23  C18 UNL     1      34.579  34.453  12.234  0.00  0.00    +0.277 C 
ENDBRANCH  20  22
ENDBRANCH  13  16
ENDBRANCH   7  12
BRANCH   1  24
ATOM     24  N1  UNL     1      31.902  46.093  17.897  0.00  0.00    -0.316 N 
BRANCH  24  26
ATOM     25  C1  UNL     1      29.603  46.956  18.046  0.00  0.00    +0.024 C 
ATOM     26  C2  UNL     1      30.689  46.420  17.120  0.00  0.00    +0.103 C 
ENDBRANCH  24  26
BRANCH  24  27
ATOM     27  C3  UNL     1      32.836  47.230  18.032  0.00  0.00    +0.103 C 
ATOM     28  C4  UNL     1      33.644  47.137  19.322  0.00  0.00    +0.024 C 
ENDBRANCH  24  27
ENDBRANCH   1  24
TORSDOF 6
ENDMDL
MODEL 2
REMARK VINA RESULT:    -3.246     18.897     22.297
REMARK INTER + INTRA:          -5.524
REMARK INTER:                  -4.414
REMARK INTRA:                  -1.110
REMARK UNBOUND:                -1.139
REMARK  Name = /home/vital/Documents/PhD_2021/Malaria_codes/data/pdb_ligands_mmv/ligand_125.pdb
REMARK  10 active torsions:
REMARK  status: ('A' for Active; 'I' for Inactive)
REMARK    1  A    between atoms: C1_1  and  C2_2
REMARK    2  A    between atoms: C2_2  and  N1_3
REMARK    3  A    between atoms: N1_3  and  C3_4
REMARK    4  A    between atoms: N1_3  and  C5_6
REMARK    5  A    between atoms: C3_4  and  C4_5
REMARK    6  A    between atoms: C7_8  and  C8_9
REMARK    7  A    between atoms: C11_12  and  N2_13
REMARK    8  A    between atoms: C12_14  and  C13_16
REMARK    9  A    between atoms: C17_20  and  O2_21
REMARK   10  A    between atoms: O2_21  and  C18_22
REMARK                            x       y       z     vdW  Elec       q    Type
REMARK                         _______ _______ _______ _____ _____    ______ ____
ROOT
ATOM      1  C5  UNL     1      15.906  28.805  15.170  0.00  0.00    +0.122 A 
ATOM      2  C6  UNL     1      15.660  29.335  13.910  0.00  0.00    +0.047 A 
ATOM      3  C7  UNL     1      15.453  30.710  13.762  0.00  0.00    -0.038 A 
ATOM      4  C8  UNL     1      15.192  31.263  12.388  0.00  0.00    +0.044 C 
ATOM      5  C9  UNL     1      15.499  31.531  14.911  0.00  0.00    +0.005 A 
ATOM      6  C10 UNL     1      15.306  32.936  14.883  0.00  0.00    +0.033 A 
ATOM      7  C11 UNL     1      15.363  33.706  16.045  0.00  0.00    +0.034 A 
ATOM      8  C20 UNL     1      15.608  33.061  17.256  0.00  0.00    +0.025 A 
ATOM      9  C21 UNL     1      15.799  31.676  17.293  0.00  0.00    +0.030 A 
ATOM     10  C22 UNL     1      15.751  30.899  16.147  0.00  0.00    +0.073 A 
ATOM     11  N3  UNL     1      15.948  29.577  16.275  0.00  0.00    -0.232 NA
ENDROOT
BRANCH   7  12
ATOM     12  N2  UNL     1      15.175  35.103  16.083  0.00  0.00    -0.281 N 
ATOM     13  C12 UNL     1      16.145  36.084  15.976  0.00  0.00    +0.248 C 
ATOM     14  O1  UNL     1      17.356  35.915  15.896  0.00  0.00    -0.270 OA
ATOM     15  H16 UNL     1      14.230  35.412  16.271  0.00  0.00    +0.155 HD
BRANCH  13  16
ATOM     16  C13 UNL     1      15.631  37.482  16.009  0.00  0.00    +0.040 A 
ATOM     17  C14 UNL     1      14.291  37.694  16.356  0.00  0.00    +0.013 A 
ATOM     18  C15 UNL     1      13.778  38.990  16.392  0.00  0.00    +0.004 A 
ATOM     19  C16 UNL     1      14.599  40.080  16.091  0.00  0.00    +0.045 A 
ATOM     20  C17 UNL     1      15.941  39.879  15.763  0.00  0.00    +0.121 A 
ATOM     21  C19 UNL     1      16.455  38.579  15.728  0.00  0.00    +0.058 A 
BRANCH  20  22
ATOM     22  O2  UNL     1      16.850  40.856  15.461  0.00  0.00    -0.495 OA
ATOM     23  C18 UNL     1      16.341  42.171  15.269  0.00  0.00    +0.277 C 
ENDBRANCH  20  22
ENDBRANCH  13  16
ENDBRANCH   7  12
BRANCH   1  24
ATOM     24  N1  UNL     1      16.109  27.399  15.267  0.00  0.00    -0.316 N 
BRANCH  24  26
ATOM     25  C1  UNL     1      18.522  26.989  15.029  0.00  0.00    +0.024 C 
ATOM     26  C2  UNL     1      17.176  27.029  14.316  0.00  0.00    +0.103 C 
ENDBRANCH  24  26
BRANCH  24  27
ATOM     27  C3  UNL     1      14.828  26.708  15.009  0.00  0.00    +0.103 C 
ATOM     28  C4  UNL     1      15.042  25.408  14.242  0.00  0.00    +0.024 C 
ENDBRANCH  24  27
ENDBRANCH   1  24
TORSDOF 6
ENDMDL
MODEL 3
REMARK VINA RESULT:    -3.221      0.654      1.270
REMARK INTER + INTRA:          -5.490
REMARK INTER:                  -4.384
REMARK INTRA:                  -1.106
REMARK UNBOUND:                -1.139
REMARK  Name = /home/vital/Documents/PhD_2021/Malaria_codes/data/pdb_ligands_mmv/ligand_125.pdb
REMARK  10 active torsions:
REMARK  status: ('A' for Active; 'I' for Inactive)
REMARK    1  A    between atoms: C1_1  and  C2_2
REMARK    2  A    between atoms: C2_2  and  N1_3
REMARK    3  A    between atoms: N1_3  and  C3_4
REMARK    4  A    between atoms: N1_3  and  C5_6
REMARK    5  A    between atoms: C3_4  and  C4_5
REMARK    6  A    between atoms: C7_8  and  C8_9
REMARK    7  A    between atoms: C11_12  and  N2_13
REMARK    8  A    between atoms: C12_14  and  C13_16
REMARK    9  A    between atoms: C17_20  and  O2_21
REMARK   10  A    between atoms: O2_21  and  C18_22
REMARK                            x       y       z     vdW  Elec       q    Type
REMARK                         _______ _______ _______ _____ _____    ______ ____
ROOT
ATOM      1  C5  UNL     1      32.593  45.098  17.123  0.00  0.00    +0.122 A 
ATOM      2  C6  UNL     1      32.838  45.187  15.758  0.00  0.00    +0.047 A 
ATOM      3  C7  UNL     1      33.481  44.136  15.097  0.00  0.00    -0.038 A 
ATOM      4  C8  UNL     1      33.732  44.252  13.618  0.00  0.00    +0.044 C 
ATOM      5  C9  UNL     1      33.870  43.002  15.843  0.00  0.00    +0.005 A 
ATOM      6  C10 UNL     1      34.526  41.877  15.280  0.00  0.00    +0.033 A 
ATOM      7  C11 UNL     1      34.890  40.777  16.059  0.00  0.00    +0.034 A 
ATOM      8  C20 UNL     1      34.601  40.805  17.421  0.00  0.00    +0.025 A 
ATOM      9  C21 UNL     1      33.954  41.909  17.984  0.00  0.00    +0.030 A 
ATOM     10  C22 UNL     1      33.582  43.007  17.225  0.00  0.00    +0.073 A 
ATOM     11  N3  UNL     1      32.964  44.023  17.847  0.00  0.00    -0.232 NA
ENDROOT
BRANCH   7  12
ATOM     12  N2  UNL     1      35.547  39.633  15.560  0.00  0.00    -0.281 N 
ATOM     13  C12 UNL     1      35.132  38.807  14.531  0.00  0.00    +0.248 C 
ATOM     14  O1  UNL     1      34.079  38.881  13.908  0.00  0.00    -0.270 OA
ATOM     15  H16 UNL     1      36.384  39.359  16.058  0.00  0.00    +0.155 HD
BRANCH  13  16
ATOM     16  C13 UNL     1      36.067  37.695  14.202  0.00  0.00    +0.040 A 
ATOM     17  C14 UNL     1      37.344  37.702  14.776  0.00  0.00    +0.013 A 
ATOM     18  C15 UNL     1      38.244  36.678  14.485  0.00  0.00    +0.004 A 
ATOM     19  C16 UNL     1      37.873  35.638  13.628  0.00  0.00    +0.045 A 
ATOM     20  C17 UNL     1      36.595  35.613  13.067  0.00  0.00    +0.121 A 
ATOM     21  C19 UNL     1      35.693  36.640  13.360  0.00  0.00    +0.058 A 
BRANCH  20  22
ATOM     22  O2  UNL     1      36.105  34.651  12.226  0.00  0.00    -0.495 OA
ATOM     23  C18 UNL     1      34.811  34.137  12.521  0.00  0.00    +0.277 C 
ENDBRANCH  20  22
ENDBRANCH  13  16
ENDBRANCH   7  12
BRANCH   1  24
ATOM     24  N1  UNL     1      31.936  46.195  17.749  0.00  0.00    -0.316 N 
BRANCH  24  26
ATOM     25  C1  UNL     1      33.677  47.566  18.816  0.00  0.00    +0.024 C 
ATOM     26  C2  UNL     1      32.793  47.388  17.588  0.00  0.00    +0.103 C 
ENDBRANCH  24  26
BRANCH  24  27
ATOM     27  C3  UNL     1      31.667  45.854  19.162  0.00  0.00    +0.103 C 
ATOM     28  C4  UNL     1      30.173  45.695  19.421  0.00  0.00    +0.024 C 
ENDBRANCH  24  27
ENDBRANCH   1  24
TORSDOF 6
ENDMDL
MODEL 4
REMARK VINA RESULT:    -2.927     19.047     22.408
REMARK INTER + INTRA:          -5.093
REMARK INTER:                  -4.007
REMARK INTRA:                  -1.085
REMARK UNBOUND:                -1.139
REMARK  Name = /home/vital/Documents/PhD_2021/Malaria_codes/data/pdb_ligands_mmv/ligand_125.pdb
REMARK  10 active torsions:
REMARK  status: ('A' for Active; 'I' for Inactive)
REMARK    1  A    between atoms: C1_1  and  C2_2
REMARK    2  A    between atoms: C2_2  and  N1_3
REMARK    3  A    between atoms: N1_3  and  C3_4
REMARK    4  A    between atoms: N1_3  and  C5_6
REMARK    5  A    between atoms: C3_4  and  C4_5
REMARK    6  A    between atoms: C7_8  and  C8_9
REMARK    7  A    between atoms: C11_12  and  N2_13
REMARK    8  A    between atoms: C12_14  and  C13_16
REMARK    9  A    between atoms: C17_20  and  O2_21
REMARK   10  A    between atoms: O2_21  and  C18_22
REMARK                            x       y       z     vdW  Elec       q    Type
REMARK                         _______ _______ _______ _____ _____    ______ ____
ROOT
ATOM      1  C5  UNL     1      16.105  28.564  14.753  0.00  0.00    +0.122 A 
ATOM      2  C6  UNL     1      15.833  29.203  13.550  0.00  0.00    +0.047 A 
ATOM      3  C7  UNL     1      15.583  30.579  13.535  0.00  0.00    -0.038 A 
ATOM      4  C8  UNL     1      15.295  31.252  12.221  0.00  0.00    +0.044 C 
ATOM      5  C9  UNL     1      15.612  31.288  14.756  0.00  0.00    +0.005 A 
ATOM      6  C10 UNL     1      15.377  32.682  14.863  0.00  0.00    +0.033 A 
ATOM      7  C11 UNL     1      15.418  33.340  16.093  0.00  0.00    +0.034 A 
ATOM      8  C20 UNL     1      15.693  32.591  17.236  0.00  0.00    +0.025 A 
ATOM      9  C21 UNL     1      15.926  31.215  17.140  0.00  0.00    +0.030 A 
ATOM     10  C22 UNL     1      15.894  30.549  15.926  0.00  0.00    +0.073 A 
ATOM     11  N3  UNL     1      16.131  29.228  15.926  0.00  0.00    -0.232 NA
ENDROOT
BRANCH   7  12
ATOM     12  N2  UNL     1      15.189  34.721  16.265  0.00  0.00    -0.281 N 
ATOM     13  C12 UNL     1      16.100  35.750  16.110  0.00  0.00    +0.248 C 
ATOM     14  O1  UNL     1      17.295  35.642  15.859  0.00  0.00    -0.270 OA
ATOM     15  H16 UNL     1      14.268  34.972  16.599  0.00  0.00    +0.155 HD
BRANCH  13  16
ATOM     16  C13 UNL     1      15.546  37.117  16.319  0.00  0.00    +0.040 A 
ATOM     17  C14 UNL     1      14.251  37.242  16.834  0.00  0.00    +0.013 A 
ATOM     18  C15 UNL     1      13.702  38.506  17.039  0.00  0.00    +0.004 A 
ATOM     19  C16 UNL     1      14.444  39.653  16.739  0.00  0.00    +0.045 A 
ATOM     20  C17 UNL     1      15.744  39.537  16.243  0.00  0.00    +0.121 A 
ATOM     21  C19 UNL     1      16.294  38.268  16.039  0.00  0.00    +0.058 A 
BRANCH  20  22
ATOM     22  O2  UNL     1      16.577  40.573  15.921  0.00  0.00    -0.495 OA
ATOM     23  C18 UNL     1      15.969  41.750  15.400  0.00  0.00    +0.277 C 
ENDBRANCH  20  22
ENDBRANCH  13  16
ENDBRANCH   7  12
BRANCH   1  24
ATOM     24  N1  UNL     1      16.351  27.162  14.714  0.00  0.00    -0.316 N 
BRANCH  24  26
ATOM     25  C1  UNL     1      14.100  26.181  14.842  0.00  0.00    +0.024 C 
ATOM     26  C2  UNL     1      15.269  26.533  13.930  0.00  0.00    +0.103 C 
ENDBRANCH  24  26
BRANCH  24  27
ATOM     27  C3  UNL     1      16.445  26.651  16.099  0.00  0.00    +0.103 C 
ATOM     28  C4  UNL     1      17.729  25.857  16.313  0.00  0.00    +0.024 C 
ENDBRANCH  24  27
ENDBRANCH   1  24
TORSDOF 6
ENDMDL
MODEL 5
REMARK VINA RESULT:    -2.922      5.819      9.625
REMARK INTER + INTRA:          -5.087
REMARK INTER:                  -4.070
REMARK INTRA:                  -1.017
REMARK UNBOUND:                -1.139
REMARK  Name = /home/vital/Documents/PhD_2021/Malaria_codes/data/pdb_ligands_mmv/ligand_125.pdb
REMARK  10 active torsions:
REMARK  status: ('A' for Active; 'I' for Inactive)
REMARK    1  A    between atoms: C1_1  and  C2_2
REMARK    2  A    between atoms: C2_2  and  N1_3
REMARK    3  A    between atoms: N1_3  and  C3_4
REMARK    4  A    between atoms: N1_3  and  C5_6
REMARK    5  A    between atoms: C3_4  and  C4_5
REMARK    6  A    between atoms: C7_8  and  C8_9
REMARK    7  A    between atoms: C11_12  and  N2_13
REMARK    8  A    between atoms: C12_14  and  C13_16
REMARK    9  A    between atoms: C17_20  and  O2_21
REMARK   10  A    between atoms: O2_21  and  C18_22
REMARK                            x       y       z     vdW  Elec       q    Type
REMARK                         _______ _______ _______ _____ _____    ______ ____
ROOT
ATOM      1  C5  UNL     1      22.837  46.079  18.348  0.00  0.00    +0.122 A 
ATOM      2  C6  UNL     1      23.089  46.681  17.122  0.00  0.00    +0.047 A 
ATOM      3  C7  UNL     1      24.342  46.533  16.519  0.00  0.00    -0.038 A 
ATOM      4  C8  UNL     1      24.592  47.190  15.189  0.00  0.00    +0.044 C 
ATOM      5  C9  UNL     1      25.328  45.769  17.182  0.00  0.00    +0.005 A 
ATOM      6  C10 UNL     1      26.632  45.549  16.667  0.00  0.00    +0.033 A 
ATOM      7  C11 UNL     1      27.572  44.785  17.358  0.00  0.00    +0.034 A 
ATOM      8  C20 UNL     1      27.207  44.237  18.586  0.00  0.00    +0.025 A 
ATOM      9  C21 UNL     1      25.925  44.449  19.102  0.00  0.00    +0.030 A 
ATOM     10  C22 UNL     1      24.978  45.201  18.425  0.00  0.00    +0.073 A 
ATOM     11  N3  UNL     1      23.771  45.352  18.993  0.00  0.00    -0.232 NA
ENDROOT
BRANCH   7  12
ATOM     12  N2  UNL     1      28.883  44.534  16.902  0.00  0.00    -0.281 N 
ATOM     13  C12 UNL     1      29.960  45.402  16.919  0.00  0.00    +0.248 C 
ATOM     14  O1  UNL     1      29.952  46.576  17.273  0.00  0.00    -0.270 OA
ATOM     15  H16 UNL     1      29.026  43.636  16.459  0.00  0.00    +0.155 HD
BRANCH  13  16
ATOM     16  C13 UNL     1      31.236  44.831  16.405  0.00  0.00    +0.040 A 
ATOM     17  C14 UNL     1      31.866  45.465  15.327  0.00  0.00    +0.013 A 
ATOM     18  C15 UNL     1      33.059  44.954  14.820  0.00  0.00    +0.004 A 
ATOM     19  C16 UNL     1      33.635  43.814  15.390  0.00  0.00    +0.045 A 
ATOM     20  C17 UNL     1      33.023  43.188  16.477  0.00  0.00    +0.121 A 
ATOM     21  C19 UNL     1      31.827  43.702  16.986  0.00  0.00    +0.058 A 
BRANCH  20  22
ATOM     22  O2  UNL     1      33.487  42.079  17.131  0.00  0.00    -0.495 OA
ATOM     23  C18 UNL     1      34.070  42.285  18.412  0.00  0.00    +0.277 C 
ENDBRANCH  20  22
ENDBRANCH  13  16
ENDBRANCH   7  12
BRANCH   1  24
ATOM     24  N1  UNL     1      21.546  46.261  18.919  0.00  0.00    -0.316 N 
BRANCH  24  26
ATOM     25  C1  UNL     1      20.586  44.092  19.567  0.00  0.00    +0.024 C 
ATOM     26  C2  UNL     1      20.690  45.145  18.470  0.00  0.00    +0.103 C 
ENDBRANCH  24  26
BRANCH  24  27
ATOM     27  C3  UNL     1      21.028  47.590  18.528  0.00  0.00    +0.103 C 
ATOM     28  C4  UNL     1      19.536  47.537  18.220  0.00  0.00    +0.024 C 
ENDBRANCH  24  27
ENDBRANCH   1  24
TORSDOF 6
ENDMDL
MODEL 6
REMARK VINA RESULT:    -2.915     13.222     17.204
REMARK INTER + INTRA:          -5.077
REMARK INTER:                  -3.996
REMARK INTRA:                  -1.082
REMARK UNBOUND:                -1.139
REMARK  Name = /home/vital/Documents/PhD_2021/Malaria_codes/data/pdb_ligands_mmv/ligand_125.pdb
REMARK  10 active torsions:
REMARK  status: ('A' for Active; 'I' for Inactive)
REMARK    1  A    between atoms: C1_1  and  C2_2
REMARK    2  A    between atoms: C2_2  and  N1_3
REMARK    3  A    between atoms: N1_3  and  C3_4
REMARK    4  A    between atoms: N1_3  and  C5_6
REMARK    5  A    between atoms: C3_4  and  C4_5
REMARK    6  A    between atoms: C7_8  and  C8_9
REMARK    7  A    between atoms: C11_12  and  N2_13
REMARK    8  A    between atoms: C12_14  and  C13_16
REMARK    9  A    between atoms: C17_20  and  O2_21
REMARK   10  A    between atoms: O2_21  and  C18_22
REMARK                            x       y       z     vdW  Elec       q    Type
REMARK                         _______ _______ _______ _____ _____    ______ ____
ROOT
ATOM      1  C5  UNL     1      16.022  38.801  17.174  0.00  0.00    +0.122 A 
ATOM      2  C6  UNL     1      15.649  39.630  16.124  0.00  0.00    +0.047 A 
ATOM      3  C7  UNL     1      16.452  40.722  15.780  0.00  0.00    -0.038 A 
ATOM      4  C8  UNL     1      16.031  41.604  14.637  0.00  0.00    +0.044 C 
ATOM      5  C9  UNL     1      17.632  40.957  16.521  0.00  0.00    +0.005 A 
ATOM      6  C10 UNL     1      18.523  42.030  16.263  0.00  0.00    +0.033 A 
ATOM      7  C11 UNL     1      19.679  42.220  17.022  0.00  0.00    +0.034 A 
ATOM      8  C20 UNL     1      19.945  41.328  18.058  0.00  0.00    +0.025 A 
ATOM      9  C21 UNL     1      19.072  40.266  18.320  0.00  0.00    +0.030 A 
ATOM     10  C22 UNL     1      17.924  40.061  17.573  0.00  0.00    +0.073 A 
ATOM     11  N3  UNL     1      17.143  39.017  17.891  0.00  0.00    -0.232 NA
ENDROOT
BRANCH   7  12
ATOM     12  N2  UNL     1      20.600  43.268  16.818  0.00  0.00    -0.281 N 
ATOM     13  C12 UNL     1      20.570  44.534  17.377  0.00  0.00    +0.248 C 
ATOM     14  O1  UNL     1      19.696  44.997  18.101  0.00  0.00    -0.270 OA
ATOM     15  H16 UNL     1      21.326  43.085  16.139  0.00  0.00    +0.155 HD
BRANCH  13  16
ATOM     16  C13 UNL     1      21.713  45.413  17.003  0.00  0.00    +0.040 A 
ATOM     17  C14 UNL     1      21.598  46.209  15.858  0.00  0.00    +0.013 A 
ATOM     18  C15 UNL     1      22.651  47.040  15.478  0.00  0.00    +0.004 A 
ATOM     19  C16 UNL     1      23.820  47.088  16.243  0.00  0.00    +0.045 A 
ATOM     20  C17 UNL     1      23.935  46.311  17.397  0.00  0.00    +0.121 A 
ATOM     21  C19 UNL     1      22.879  45.479  17.777  0.00  0.00    +0.058 A 
BRANCH  20  22
ATOM     22  O2  UNL     1      25.016  46.274  18.236  0.00  0.00    -0.495 OA
ATOM     23  C18 UNL     1      25.778  45.073  18.251  0.00  0.00    +0.277 C 
ENDBRANCH  20  22
ENDBRANCH  13  16
ENDBRANCH   7  12
BRANCH   1  24
ATOM     24  N1  UNL     1      15.170  37.704  17.484  0.00  0.00    -0.316 N 
BRANCH  24  26
ATOM     25  C1  UNL     1      14.100  38.387  19.590  0.00  0.00    +0.024 C 
ATOM     26  C2  UNL     1      15.180  37.522  18.949  0.00  0.00    +0.103 C 
ENDBRANCH  24  26
BRANCH  24  27
ATOM     27  C3  UNL     1      15.632  36.510  16.743  0.00  0.00    +0.103 C 
ATOM     28  C4  UNL     1      14.648  35.354  16.883  0.00  0.00    +0.024 C 
ENDBRANCH  24  27
ENDBRANCH   1  24
TORSDOF 6
ENDMDL
MODEL 7
REMARK VINA RESULT:    -2.552     19.437     21.045
REMARK INTER + INTRA:          -4.586
REMARK INTER:                  -3.451
REMARK INTRA:                  -1.135
REMARK UNBOUND:                -1.139
REMARK  Name = /home/vital/Documents/PhD_2021/Malaria_codes/data/pdb_ligands_mmv/ligand_125.pdb
REMARK  10 active torsions:
REMARK  status: ('A' for Active; 'I' for Inactive)
REMARK    1  A    between atoms: C1_1  and  C2_2
REMARK    2  A    between atoms: C2_2  and  N1_3
REMARK    3  A    between atoms: N1_3  and  C3_4
REMARK    4  A    between atoms: N1_3  and  C5_6
REMARK    5  A    between atoms: C3_4  and  C4_5
REMARK    6  A    between atoms: C7_8  and  C8_9
REMARK    7  A    between atoms: C11_12  and  N2_13
REMARK    8  A    between atoms: C12_14  and  C13_16
REMARK    9  A    between atoms: C17_20  and  O2_21
REMARK   10  A    between atoms: O2_21  and  C18_22
REMARK                            x       y       z     vdW  Elec       q    Type
REMARK                         _______ _______ _______ _____ _____    ______ ____
ROOT
ATOM      1  C5  UNL     1      16.456  36.352  15.220  0.00  0.00    +0.122 A 
ATOM      2  C6  UNL     1      15.649  36.081  16.318  0.00  0.00    +0.047 A 
ATOM      3  C7  UNL     1      15.316  34.758  16.626  0.00  0.00    -0.038 A 
ATOM      4  C8  UNL     1      14.444  34.487  17.822  0.00  0.00    +0.044 C 
ATOM      5  C9  UNL     1      15.811  33.724  15.802  0.00  0.00    +0.005 A 
ATOM      6  C10 UNL     1      15.540  32.348  16.016  0.00  0.00    +0.033 A 
ATOM      7  C11 UNL     1      16.054  31.361  15.175  0.00  0.00    +0.034 A 
ATOM      8  C20 UNL     1      16.845  31.755  14.097  0.00  0.00    +0.025 A 
ATOM      9  C21 UNL     1      17.117  33.109  13.878  0.00  0.00    +0.030 A 
ATOM     10  C22 UNL     1      16.619  34.100  14.707  0.00  0.00    +0.073 A 
ATOM     11  N3  UNL     1      16.931  35.375  14.423  0.00  0.00    -0.232 NA
ENDROOT
BRANCH   7  12
ATOM     12  N2  UNL     1      15.818  29.979  15.333  0.00  0.00    -0.281 N 
ATOM     13  C12 UNL     1      14.802  29.230  14.767  0.00  0.00    +0.248 C 
ATOM     14  O1  UNL     1      13.878  29.647  14.077  0.00  0.00    -0.270 OA
ATOM     15  H16 UNL     1      16.430  29.504  15.983  0.00  0.00    +0.155 HD
BRANCH  13  16
ATOM     16  C13 UNL     1      14.840  27.776  15.087  0.00  0.00    +0.040 A 
ATOM     17  C14 UNL     1      14.880  26.859  14.030  0.00  0.00    +0.013 A 
ATOM     18  C15 UNL     1      14.912  25.491  14.296  0.00  0.00    +0.004 A 
ATOM     19  C16 UNL     1      14.914  25.030  15.616  0.00  0.00    +0.045 A 
ATOM     20  C17 UNL     1      14.894  25.939  16.676  0.00  0.00    +0.121 A 
ATOM     21  C19 UNL     1      14.862  27.311  16.408  0.00  0.00    +0.058 A 
BRANCH  20  22
ATOM     22  O2  UNL     1      14.904  25.621  18.007  0.00  0.00    -0.495 OA
ATOM     23  C18 UNL     1      16.002  26.102  18.774  0.00  0.00    +0.277 C 
ENDBRANCH  20  22
ENDBRANCH  13  16
ENDBRANCH   7  12
BRANCH   1  24
ATOM     24  N1  UNL     1      16.766  37.715  14.950  0.00  0.00    -0.316 N 
BRANCH  24  26
ATOM     25  C1  UNL     1      15.562  38.634  13.012  0.00  0.00    +0.024 C 
ATOM     26  C2  UNL     1      16.805  37.888  13.484  0.00  0.00    +0.103 C 
ENDBRANCH  24  26
BRANCH  24  27
ATOM     27  C3  UNL     1      18.040  38.061  15.615  0.00  0.00    +0.103 C 
ATOM     28  C4  UNL     1      19.164  38.249  14.601  0.00  0.00    +0.024 C 
ENDBRANCH  24  27
ENDBRANCH   1  24
TORSDOF 6
ENDMDL
