MODEL 1
REMARK VINA RESULT:    -4.220      0.000      0.000
REMARK INTER + INTRA:          -5.808
REMARK INTER:                  -4.960
REMARK INTRA:                  -0.848
REMARK UNBOUND:                -0.848
REMARK  Name = /home/vital/Documents/PhD_2021/Malaria_codes/data/pdb_ligands_mmv/ligand_162.pdb
REMARK  5 active torsions:
REMARK  status: ('A' for Active; 'I' for Inactive)
REMARK    1  A    between atoms: N2_5  and  C4_6
REMARK    2  A    between atoms: C8_10  and  C9_11
REMARK    3  A    between atoms: C13_20  and  C14_21
REMARK    4  A    between atoms: C16_23  and  N7_24
REMARK    5  A    between atoms: C17_25  and  C18_27
REMARK                            x       y       z     vdW  Elec       q    Type
REMARK                         _______ _______ _______ _____ _____    ______ ____
ROOT
ATOM      1  C1  UNL     1      17.842  26.027  18.588  0.00  0.00    +0.172 A 
ATOM      2  C2  UNL     1      19.077  25.816  19.157  0.00  0.00    +0.103 A 
ATOM      3  C3  UNL     1      19.807  25.077  18.234  0.00  0.00    +0.150 A 
ATOM      4  N1  UNL     1      19.105  24.821  17.128  0.00  0.00    -0.172 NA
ATOM      5  N2  UNL     1      17.878  25.408  17.337  0.00  0.00    -0.214 N 
ATOM      6  C11 UNL     1      19.355  26.342  20.460  0.00  0.00    +0.264 A 
ATOM      7  O1  UNL     1      20.423  26.210  21.048  0.00  0.00    -0.267 OA
ATOM      8  N3  UNL     1      18.295  27.033  20.998  0.00  0.00    -0.291 N 
ATOM      9  N4  UNL     1      16.808  26.702  19.161  0.00  0.00    -0.192 NA
ATOM     10  C12 UNL     1      17.067  27.152  20.358  0.00  0.00    +0.235 A 
ATOM     11  N5  UNL     1      16.128  27.900  21.113  0.00  0.00    -0.185 N 
ATOM     12  N6  UNL     1      15.154  28.570  20.422  0.00  0.00    -0.167 NA
ATOM     13  C13 UNL     1      14.708  29.503  21.264  0.00  0.00    +0.062 A 
ATOM     14  C14 UNL     1      13.695  30.489  20.815  0.00  0.00    +0.067 C 
ATOM     15  C15 UNL     1      15.294  29.380  22.537  0.00  0.00    +0.068 A 
ATOM     16  C16 UNL     1      16.090  28.257  22.470  0.00  0.00    +0.132 A 
ATOM     17  H9  UNL     1      18.452  27.420  21.915  0.00  0.00    +0.172 HD
ENDROOT
BRANCH   5  18
ATOM     18  C4  UNL     1      16.872  25.325  16.326  0.00  0.00    +0.068 A 
ATOM     19  C5  UNL     1      16.023  24.219  16.213  0.00  0.00    +0.028 A 
ATOM     20  C6  UNL     1      15.056  24.174  15.204  0.00  0.00    +0.002 A 
ATOM     21  C7  UNL     1      14.924  25.231  14.304  0.00  0.00    +0.003 A 
ATOM     22  C8  UNL     1      15.750  26.352  14.409  0.00  0.00    -0.048 A 
ATOM     23  C9  UNL     1      15.636  27.478  13.424  0.00  0.00    +0.044 C 
ATOM     24  C10 UNL     1      16.729  26.387  15.414  0.00  0.00    +0.031 A 
ENDBRANCH   5  18
BRANCH  16  25
ATOM     25  N7  UNL     1      16.701  27.637  23.555  0.00  0.00    -0.264 N 
ATOM     26  C17 UNL     1      16.027  26.758  24.396  0.00  0.00    +0.285 C 
ATOM     27  O2  UNL     1      14.920  26.292  24.151  0.00  0.00    -0.266 OA
ATOM     28  H14 UNL     1      17.482  28.121  23.995  0.00  0.00    +0.157 HD
BRANCH  26  29
ATOM     29  C18 UNL     1      16.764  26.450  25.604  0.00  0.00    +0.191 A 
ATOM     30  C19 UNL     1      18.041  25.955  25.787  0.00  0.00    +0.063 A 
ATOM     31  C20 UNL     1      18.244  25.846  27.186  0.00  0.00    +0.021 A 
ATOM     32  C21 UNL     1      19.295  25.424  28.018  0.00  0.00    +0.011 A 
ATOM     33  C22 UNL     1      19.112  25.466  29.408  0.00  0.00    +0.001 A 
ATOM     34  C23 UNL     1      17.910  25.918  29.962  0.00  0.00    +0.004 A 
ATOM     35  C24 UNL     1      16.853  26.341  29.151  0.00  0.00    +0.047 A 
ATOM     36  C25 UNL     1      17.066  26.287  27.775  0.00  0.00    +0.136 A 
ATOM     37  O3  UNL     1      16.166  26.654  26.822  0.00  0.00    -0.450 OA
ENDBRANCH  26  29
ENDBRANCH  16  25
TORSDOF 3
ENDMDL
MODEL 2
REMARK VINA RESULT:    -4.164      7.466     11.413
REMARK INTER + INTRA:          -5.742
REMARK INTER:                  -4.860
REMARK INTRA:                  -0.883
REMARK UNBOUND:                -0.848
REMARK  Name = /home/vital/Documents/PhD_2021/Malaria_codes/data/pdb_ligands_mmv/ligand_162.pdb
REMARK  5 active torsions:
REMARK  status: ('A' for Active; 'I' for Inactive)
REMARK    1  A    between atoms: N2_5  and  C4_6
REMARK    2  A    between atoms: C8_10  and  C9_11
REMARK    3  A    between atoms: C13_20  and  C14_21
REMARK    4  A    between atoms: C16_23  and  N7_24
REMARK    5  A    between atoms: C17_25  and  C18_27
REMARK                            x       y       z     vdW  Elec       q    Type
REMARK                         _______ _______ _______ _____ _____    ______ ____
ROOT
ATOM      1  C1  UNL     1      15.918  30.262  14.392  0.00  0.00    +0.172 A 
ATOM      2  C2  UNL     1      15.413  30.875  13.268  0.00  0.00    +0.103 A 
ATOM      3  C3  UNL     1      15.594  29.975  12.224  0.00  0.00    +0.150 A 
ATOM      4  N1  UNL     1      16.173  28.844  12.630  0.00  0.00    -0.172 NA
ATOM      5  N2  UNL     1      16.379  29.011  13.980  0.00  0.00    -0.214 N 
ATOM      6  C11 UNL     1      14.854  32.189  13.369  0.00  0.00    +0.264 A 
ATOM      7  O1  UNL     1      14.378  32.815  12.429  0.00  0.00    -0.267 OA
ATOM      8  N3  UNL     1      14.888  32.691  14.649  0.00  0.00    -0.291 N 
ATOM      9  N4  UNL     1      15.952  30.800  15.643  0.00  0.00    -0.192 NA
ATOM     10  C12 UNL     1      15.463  32.007  15.714  0.00  0.00    +0.235 A 
ATOM     11  N5  UNL     1      15.389  32.730  16.932  0.00  0.00    -0.185 N 
ATOM     12  N6  UNL     1      15.363  32.008  18.094  0.00  0.00    -0.167 NA
ATOM     13  C13 UNL     1      14.861  32.836  19.010  0.00  0.00    +0.062 A 
ATOM     14  C14 UNL     1      14.602  32.355  20.389  0.00  0.00    +0.067 C 
ATOM     15  C15 UNL     1      14.665  34.130  18.491  0.00  0.00    +0.068 A 
ATOM     16  C16 UNL     1      15.146  34.086  17.201  0.00  0.00    +0.132 A 
ATOM     17  H9  UNL     1      14.502  33.614  14.761  0.00  0.00    +0.172 HD
ENDROOT
BRANCH   5  18
ATOM     18  C4  UNL     1      16.988  27.963  14.738  0.00  0.00    +0.068 A 
ATOM     19  C5  UNL     1      18.302  28.055  15.209  0.00  0.00    +0.028 A 
ATOM     20  C6  UNL     1      18.863  27.003  15.941  0.00  0.00    +0.002 A 
ATOM     21  C7  UNL     1      18.119  25.857  16.213  0.00  0.00    +0.003 A 
ATOM     22  C8  UNL     1      16.799  25.750  15.766  0.00  0.00    -0.048 A 
ATOM     23  C9  UNL     1      16.004  24.506  16.025  0.00  0.00    +0.044 C 
ATOM     24  C10 UNL     1      16.245  26.801  15.019  0.00  0.00    +0.031 A 
ENDBRANCH   5  18
BRANCH  16  25
ATOM     25  N7  UNL     1      15.343  35.191  16.378  0.00  0.00    -0.264 N 
ATOM     26  C17 UNL     1      16.563  35.853  16.286  0.00  0.00    +0.285 C 
ATOM     27  O2  UNL     1      17.613  35.416  16.745  0.00  0.00    -0.266 OA
ATOM     28  H14 UNL     1      14.535  35.775  16.173  0.00  0.00    +0.157 HD
BRANCH  26  29
ATOM     29  C18 UNL     1      16.471  37.121  15.595  0.00  0.00    +0.191 A 
ATOM     30  C19 UNL     1      16.484  37.424  14.247  0.00  0.00    +0.063 A 
ATOM     31  C20 UNL     1      16.364  38.832  14.139  0.00  0.00    +0.021 A 
ATOM     32  C21 UNL     1      16.312  39.759  13.083  0.00  0.00    +0.011 A 
ATOM     33  C22 UNL     1      16.182  41.121  13.388  0.00  0.00    +0.001 A 
ATOM     34  C23 UNL     1      16.103  41.557  14.714  0.00  0.00    +0.004 A 
ATOM     35  C24 UNL     1      16.152  40.652  15.779  0.00  0.00    +0.047 A 
ATOM     36  C25 UNL     1      16.282  39.306  15.443  0.00  0.00    +0.136 A 
ATOM     37  O3  UNL     1      16.347  38.274  16.328  0.00  0.00    -0.450 OA
ENDBRANCH  26  29
ENDBRANCH  16  25
TORSDOF 3
ENDMDL
MODEL 3
REMARK VINA RESULT:    -3.750     22.400     24.271
REMARK INTER + INTRA:          -5.256
REMARK INTER:                  -4.342
REMARK INTRA:                  -0.914
REMARK UNBOUND:                -0.848
REMARK  Name = /home/vital/Documents/PhD_2021/Malaria_codes/data/pdb_ligands_mmv/ligand_162.pdb
REMARK  5 active torsions:
REMARK  status: ('A' for Active; 'I' for Inactive)
REMARK    1  A    between atoms: N2_5  and  C4_6
REMARK    2  A    between atoms: C8_10  and  C9_11
REMARK    3  A    between atoms: C13_20  and  C14_21
REMARK    4  A    between atoms: C16_23  and  N7_24
REMARK    5  A    between atoms: C17_25  and  C18_27
REMARK                            x       y       z     vdW  Elec       q    Type
REMARK                         _______ _______ _______ _____ _____    ______ ____
ROOT
ATOM      1  C1  UNL     1      31.881  44.438  16.178  0.00  0.00    +0.172 A 
ATOM      2  C2  UNL     1      32.601  44.484  15.006  0.00  0.00    +0.103 A 
ATOM      3  C3  UNL     1      31.864  45.274  14.131  0.00  0.00    +0.150 A 
ATOM      4  N1  UNL     1      30.738  45.724  14.688  0.00  0.00    -0.172 NA
ATOM      5  N2  UNL     1      30.738  45.210  15.964  0.00  0.00    -0.214 N 
ATOM      6  C11 UNL     1      33.846  43.782  14.912  0.00  0.00    +0.264 A 
ATOM      7  O1  UNL     1      34.560  43.765  13.915  0.00  0.00    -0.267 OA
ATOM      8  N3  UNL     1      34.182  43.125  16.073  0.00  0.00    -0.291 N 
ATOM      9  N4  UNL     1      32.237  43.759  17.303  0.00  0.00    -0.192 NA
ATOM     10  C12 UNL     1      33.360  43.103  17.194  0.00  0.00    +0.235 A 
ATOM     11  N5  UNL     1      33.913  42.352  18.262  0.00  0.00    -0.185 N 
ATOM     12  N6  UNL     1      33.550  42.703  19.534  0.00  0.00    -0.167 NA
ATOM     13  C13 UNL     1      34.493  42.186  20.322  0.00  0.00    +0.062 A 
ATOM     14  C14 UNL     1      34.471  42.448  21.782  0.00  0.00    +0.067 C 
ATOM     15  C15 UNL     1      35.408  41.402  19.595  0.00  0.00    +0.068 A 
ATOM     16  C16 UNL     1      34.939  41.395  18.299  0.00  0.00    +0.132 A 
ATOM     17  H9  UNL     1      35.053  42.620  16.047  0.00  0.00    +0.172 HD
ENDROOT
BRANCH   5  18
ATOM     18  C4  UNL     1      29.655  45.509  16.847  0.00  0.00    +0.068 A 
ATOM     19  C5  UNL     1      28.370  44.993  16.647  0.00  0.00    +0.028 A 
ATOM     20  C6  UNL     1      27.336  45.317  17.532  0.00  0.00    +0.002 A 
ATOM     21  C7  UNL     1      27.575  46.151  18.623  0.00  0.00    +0.003 A 
ATOM     22  C8  UNL     1      28.854  46.664  18.851  0.00  0.00    -0.048 A 
ATOM     23  C9  UNL     1      29.111  47.589  20.002  0.00  0.00    +0.044 C 
ATOM     24  C10 UNL     1      29.886  46.349  17.953  0.00  0.00    +0.031 A 
ENDBRANCH   5  18
BRANCH  16  25
ATOM     25  N7  UNL     1      35.413  40.580  17.276  0.00  0.00    -0.264 N 
ATOM     26  C17 UNL     1      34.629  39.606  16.667  0.00  0.00    +0.285 C 
ATOM     27  O2  UNL     1      33.416  39.512  16.818  0.00  0.00    -0.266 OA
ATOM     28  H14 UNL     1      36.413  40.386  17.254  0.00  0.00    +0.157 HD
BRANCH  26  29
ATOM     29  C18 UNL     1      35.394  38.702  15.833  0.00  0.00    +0.191 A 
ATOM     30  C19 UNL     1      36.745  38.414  15.806  0.00  0.00    +0.063 A 
ATOM     31  C20 UNL     1      36.942  37.452  14.784  0.00  0.00    +0.021 A 
ATOM     32  C21 UNL     1      38.044  36.759  14.255  0.00  0.00    +0.011 A 
ATOM     33  C22 UNL     1      37.830  35.852  13.208  0.00  0.00    +0.001 A 
ATOM     34  C23 UNL     1      36.548  35.635  12.694  0.00  0.00    +0.004 A 
ATOM     35  C24 UNL     1      35.438  36.315  13.206  0.00  0.00    +0.047 A 
ATOM     36  C25 UNL     1      35.684  37.209  14.246  0.00  0.00    +0.136 A 
ATOM     37  O3  UNL     1      34.743  37.964  14.877  0.00  0.00    -0.450 OA
ENDBRANCH  26  29
ENDBRANCH  16  25
TORSDOF 3
ENDMDL
MODEL 4
REMARK VINA RESULT:    -3.602      4.032      9.973
REMARK INTER + INTRA:          -5.082
REMARK INTER:                  -4.084
REMARK INTRA:                  -0.998
REMARK UNBOUND:                -0.848
REMARK  Name = /home/vital/Documents/PhD_2021/Malaria_codes/data/pdb_ligands_mmv/ligand_162.pdb
REMARK  5 active torsions:
REMARK  status: ('A' for Active; 'I' for Inactive)
REMARK    1  A    between atoms: N2_5  and  C4_6
REMARK    2  A    between atoms: C8_10  and  C9_11
REMARK    3  A    between atoms: C13_20  and  C14_21
REMARK    4  A    between atoms: C16_23  and  N7_24
REMARK    5  A    between atoms: C17_25  and  C18_27
REMARK                            x       y       z     vdW  Elec       q    Type
REMARK                         _______ _______ _______ _____ _____    ______ ____
ROOT
ATOM      1  C1  UNL     1      16.022  28.437  23.188  0.00  0.00    +0.172 A 
ATOM      2  C2  UNL     1      14.857  28.703  22.504  0.00  0.00    +0.103 A 
ATOM      3  C3  UNL     1      13.901  27.835  23.019  0.00  0.00    +0.150 A 
ATOM      4  N1  UNL     1      14.397  27.054  23.980  0.00  0.00    -0.172 NA
ATOM      5  N2  UNL     1      15.719  27.420  24.094  0.00  0.00    -0.214 N 
ATOM      6  C11 UNL     1      14.845  29.718  21.494  0.00  0.00    +0.264 A 
ATOM      7  O1  UNL     1      13.860  30.029  20.835  0.00  0.00    -0.267 OA
ATOM      8  N3  UNL     1      16.065  30.333  21.336  0.00  0.00    -0.291 N 
ATOM      9  N4  UNL     1      17.218  29.056  22.990  0.00  0.00    -0.192 NA
ATOM     10  C12 UNL     1      17.198  29.959  22.048  0.00  0.00    +0.235 A 
ATOM     11  N5  UNL     1      18.338  30.730  21.705  0.00  0.00    -0.185 N 
ATOM     12  N6  UNL     1      19.304  30.889  22.662  0.00  0.00    -0.167 NA
ATOM     13  C13 UNL     1      20.003  31.957  22.281  0.00  0.00    +0.062 A 
ATOM     14  C14 UNL     1      21.090  32.484  23.141  0.00  0.00    +0.067 C 
ATOM     15  C15 UNL     1      19.582  32.435  21.025  0.00  0.00    +0.068 A 
ATOM     16  C16 UNL     1      18.615  31.549  20.600  0.00  0.00    +0.132 A 
ATOM     17  H9  UNL     1      16.097  31.055  20.634  0.00  0.00    +0.172 HD
ENDROOT
BRANCH   5  18
ATOM     18  C4  UNL     1      16.553  26.769  25.055  0.00  0.00    +0.068 A 
ATOM     19  C5  UNL     1      17.650  25.987  24.677  0.00  0.00    +0.028 A 
ATOM     20  C6  UNL     1      18.436  25.361  25.650  0.00  0.00    +0.002 A 
ATOM     21  C7  UNL     1      18.140  25.514  27.003  0.00  0.00    +0.003 A 
ATOM     22  C8  UNL     1      17.059  26.303  27.404  0.00  0.00    -0.048 A 
ATOM     23  C9  UNL     1      16.715  26.444  28.856  0.00  0.00    +0.044 C 
ATOM     24  C10 UNL     1      16.264  26.918  26.425  0.00  0.00    +0.031 A 
ENDBRANCH   5  18
BRANCH  16  25
ATOM     25  N7  UNL     1      18.066  31.510  19.322  0.00  0.00    -0.264 N 
ATOM     26  C17 UNL     1      16.866  32.137  19.000  0.00  0.00    +0.285 C 
ATOM     27  O2  UNL     1      16.297  32.939  19.732  0.00  0.00    -0.266 OA
ATOM     28  H14 UNL     1      18.286  30.705  18.740  0.00  0.00    +0.157 HD
BRANCH  26  29
ATOM     29  C18 UNL     1      16.349  31.742  17.707  0.00  0.00    +0.191 A 
ATOM     30  C19 UNL     1      15.971  30.505  17.219  0.00  0.00    +0.063 A 
ATOM     31  C20 UNL     1      15.540  30.703  15.883  0.00  0.00    +0.021 A 
ATOM     32  C21 UNL     1      15.044  29.882  14.855  0.00  0.00    +0.011 A 
ATOM     33  C22 UNL     1      14.714  30.469  13.626  0.00  0.00    +0.001 A 
ATOM     34  C23 UNL     1      14.872  31.842  13.417  0.00  0.00    +0.004 A 
ATOM     35  C24 UNL     1      15.364  32.676  14.427  0.00  0.00    +0.047 A 
ATOM     36  C25 UNL     1      15.683  32.063  15.637  0.00  0.00    +0.136 A 
ATOM     37  O3  UNL     1      16.173  32.696  16.738  0.00  0.00    -0.450 OA
ENDBRANCH  26  29
ENDBRANCH  16  25
TORSDOF 3
ENDMDL
MODEL 5
REMARK VINA RESULT:    -3.572     24.064     26.872
REMARK INTER + INTRA:          -5.047
REMARK INTER:                  -4.166
REMARK INTRA:                  -0.881
REMARK UNBOUND:                -0.848
REMARK  Name = /home/vital/Documents/PhD_2021/Malaria_codes/data/pdb_ligands_mmv/ligand_162.pdb
REMARK  5 active torsions:
REMARK  status: ('A' for Active; 'I' for Inactive)
REMARK    1  A    between atoms: N2_5  and  C4_6
REMARK    2  A    between atoms: C8_10  and  C9_11
REMARK    3  A    between atoms: C13_20  and  C14_21
REMARK    4  A    between atoms: C16_23  and  N7_24
REMARK    5  A    between atoms: C17_25  and  C18_27
REMARK                            x       y       z     vdW  Elec       q    Type
REMARK                         _______ _______ _______ _____ _____    ______ ____
ROOT
ATOM      1  C1  UNL     1      35.617  45.733  24.635  0.00  0.00    +0.172 A 
ATOM      2  C2  UNL     1      36.463  46.234  23.672  0.00  0.00    +0.103 A 
ATOM      3  C3  UNL     1      37.054  47.363  24.227  0.00  0.00    +0.150 A 
ATOM      4  N1  UNL     1      36.633  47.590  25.472  0.00  0.00    -0.172 NA
ATOM      5  N2  UNL     1      35.737  46.580  25.738  0.00  0.00    -0.214 N 
ATOM      6  C11 UNL     1      36.568  45.570  22.407  0.00  0.00    +0.264 A 
ATOM      7  O1  UNL     1      37.293  45.936  21.489  0.00  0.00    -0.267 OA
ATOM      8  N3  UNL     1      35.771  44.452  22.319  0.00  0.00    -0.291 N 
ATOM      9  N4  UNL     1      34.828  44.631  24.504  0.00  0.00    -0.192 NA
ATOM     10  C12 UNL     1      34.914  44.053  23.338  0.00  0.00    +0.235 A 
ATOM     11  N5  UNL     1      34.187  42.879  23.012  0.00  0.00    -0.185 N 
ATOM     12  N6  UNL     1      33.788  42.077  24.047  0.00  0.00    -0.167 NA
ATOM     13  C13 UNL     1      33.544  40.889  23.494  0.00  0.00    +0.062 A 
ATOM     14  C14 UNL     1      33.171  39.732  24.345  0.00  0.00    +0.067 C 
ATOM     15  C15 UNL     1      33.668  40.930  22.092  0.00  0.00    +0.068 A 
ATOM     16  C16 UNL     1      33.934  42.247  21.785  0.00  0.00    +0.132 A 
ATOM     17  H9  UNL     1      35.818  43.957  21.444  0.00  0.00    +0.172 HD
ENDROOT
BRANCH   5  18
ATOM     18  C4  UNL     1      35.093  46.523  27.012  0.00  0.00    +0.068 A 
ATOM     19  C5  UNL     1      33.703  46.610  27.146  0.00  0.00    +0.028 A 
ATOM     20  C6  UNL     1      33.113  46.557  28.413  0.00  0.00    +0.002 A 
ATOM     21  C7  UNL     1      33.901  46.411  29.554  0.00  0.00    +0.003 A 
ATOM     22  C8  UNL     1      35.290  46.306  29.442  0.00  0.00    -0.048 A 
ATOM     23  C9  UNL     1      36.146  46.184  30.667  0.00  0.00    +0.044 C 
ATOM     24  C10 UNL     1      35.879  46.374  28.171  0.00  0.00    +0.031 A 
ENDBRANCH   5  18
BRANCH  16  25
ATOM     25  N7  UNL     1      33.930  42.791  20.504  0.00  0.00    -0.264 N 
ATOM     26  C17 UNL     1      32.867  43.537  20.008  0.00  0.00    +0.285 C 
ATOM     27  O2  UNL     1      31.946  43.958  20.699  0.00  0.00    -0.266 OA
ATOM     28  H14 UNL     1      34.476  42.314  19.789  0.00  0.00    +0.157 HD
BRANCH  26  29
ATOM     29  C18 UNL     1      32.952  43.767  18.581  0.00  0.00    +0.191 A 
ATOM     30  C19 UNL     1      32.522  44.825  17.804  0.00  0.00    +0.063 A 
ATOM     31  C20 UNL     1      32.866  44.520  16.463  0.00  0.00    +0.021 A 
ATOM     32  C21 UNL     1      32.718  45.155  15.218  0.00  0.00    +0.011 A 
ATOM     33  C22 UNL     1      33.208  44.512  14.072  0.00  0.00    +0.001 A 
ATOM     34  C23 UNL     1      33.833  43.265  14.158  0.00  0.00    +0.004 A 
ATOM     35  C24 UNL     1      33.990  42.616  15.387  0.00  0.00    +0.047 A 
ATOM     36  C25 UNL     1      33.493  43.280  16.507  0.00  0.00    +0.136 A 
ATOM     37  O3  UNL     1      33.547  42.820  17.786  0.00  0.00    -0.450 OA
ENDBRANCH  26  29
ENDBRANCH  16  25
TORSDOF 3
ENDMDL
MODEL 6
REMARK VINA RESULT:    -3.546     20.048     22.617
REMARK INTER + INTRA:          -5.017
REMARK INTER:                  -4.108
REMARK INTRA:                  -0.909
REMARK UNBOUND:                -0.848
REMARK  Name = /home/vital/Documents/PhD_2021/Malaria_codes/data/pdb_ligands_mmv/ligand_162.pdb
REMARK  5 active torsions:
REMARK  status: ('A' for Active; 'I' for Inactive)
REMARK    1  A    between atoms: N2_5  and  C4_6
REMARK    2  A    between atoms: C8_10  and  C9_11
REMARK    3  A    between atoms: C13_20  and  C14_21
REMARK    4  A    between atoms: C16_23  and  N7_24
REMARK    5  A    between atoms: C17_25  and  C18_27
REMARK                            x       y       z     vdW  Elec       q    Type
REMARK                         _______ _______ _______ _____ _____    ______ ____
ROOT
ATOM      1  C1  UNL     1      23.390  45.729  17.679  0.00  0.00    +0.172 A 
ATOM      2  C2  UNL     1      23.565  46.165  16.385  0.00  0.00    +0.103 A 
ATOM      3  C3  UNL     1      22.325  46.048  15.768  0.00  0.00    +0.150 A 
ATOM      4  N1  UNL     1      21.394  45.572  16.597  0.00  0.00    -0.172 NA
ATOM      5  N2  UNL     1      22.046  45.370  17.792  0.00  0.00    -0.214 N 
ATOM      6  C11 UNL     1      24.856  46.613  15.957  0.00  0.00    +0.264 A 
ATOM      7  O1  UNL     1      25.110  47.022  14.830  0.00  0.00    -0.267 OA
ATOM      8  N3  UNL     1      25.803  46.553  16.953  0.00  0.00    -0.291 N 
ATOM      9  N4  UNL     1      24.359  45.666  18.634  0.00  0.00    -0.192 NA
ATOM     10  C12 UNL     1      25.535  46.052  18.221  0.00  0.00    +0.235 A 
ATOM     11  N5  UNL     1      26.670  46.080  19.071  0.00  0.00    -0.185 N 
ATOM     12  N6  UNL     1      26.448  46.182  20.418  0.00  0.00    -0.167 NA
ATOM     13  C13 UNL     1      27.597  46.624  20.929  0.00  0.00    +0.062 A 
ATOM     14  C14 UNL     1      27.697  46.941  22.375  0.00  0.00    +0.067 C 
ATOM     15  C15 UNL     1      28.607  46.704  19.952  0.00  0.00    +0.068 A 
ATOM     16  C16 UNL     1      28.041  46.211  18.797  0.00  0.00    +0.132 A 
ATOM     17  H9  UNL     1      26.725  46.861  16.691  0.00  0.00    +0.172 HD
ENDROOT
BRANCH   5  18
ATOM     18  C4  UNL     1      21.324  44.862  18.915  0.00  0.00    +0.068 A 
ATOM     19  C5  UNL     1      21.078  45.639  20.053  0.00  0.00    +0.028 A 
ATOM     20  C6  UNL     1      20.374  45.100  21.134  0.00  0.00    +0.002 A 
ATOM     21  C7  UNL     1      19.903  43.789  21.088  0.00  0.00    +0.003 A 
ATOM     22  C8  UNL     1      20.123  43.001  19.956  0.00  0.00    -0.048 A 
ATOM     23  C9  UNL     1      19.651  41.578  19.914  0.00  0.00    +0.044 C 
ATOM     24  C10 UNL     1      20.844  43.539  18.879  0.00  0.00    +0.031 A 
ENDBRANCH   5  18
BRANCH  16  25
ATOM     25  N7  UNL     1      28.731  45.911  17.627  0.00  0.00    -0.264 N 
ATOM     26  C17 UNL     1      28.881  44.611  17.154  0.00  0.00    +0.285 C 
ATOM     27  O2  UNL     1      28.259  43.650  17.592  0.00  0.00    -0.266 OA
ATOM     28  H14 UNL     1      29.474  46.547  17.342  0.00  0.00    +0.157 HD
BRANCH  26  29
ATOM     29  C18 UNL     1      29.855  44.503  16.088  0.00  0.00    +0.191 A 
ATOM     30  C19 UNL     1      29.699  44.453  14.716  0.00  0.00    +0.063 A 
ATOM     31  C20 UNL     1      30.997  44.344  14.157  0.00  0.00    +0.021 A 
ATOM     32  C21 UNL     1      31.527  44.254  12.858  0.00  0.00    +0.011 A 
ATOM     33  C22 UNL     1      32.917  44.159  12.704  0.00  0.00    +0.001 A 
ATOM     34  C23 UNL     1      33.766  44.155  13.814  0.00  0.00    +0.004 A 
ATOM     35  C24 UNL     1      33.259  44.244  15.114  0.00  0.00    +0.047 A 
ATOM     36  C25 UNL     1      31.874  44.336  15.235  0.00  0.00    +0.136 A 
ATOM     37  O3  UNL     1      31.188  44.431  16.406  0.00  0.00    -0.450 OA
ENDBRANCH  26  29
ENDBRANCH  16  25
TORSDOF 3
ENDMDL
MODEL 7
REMARK VINA RESULT:    -3.330     22.548     25.126
REMARK INTER + INTRA:          -4.762
REMARK INTER:                  -3.737
REMARK INTRA:                  -1.025
REMARK UNBOUND:                -0.848
REMARK  Name = /home/vital/Documents/PhD_2021/Malaria_codes/data/pdb_ligands_mmv/ligand_162.pdb
REMARK  5 active torsions:
REMARK  status: ('A' for Active; 'I' for Inactive)
REMARK    1  A    between atoms: N2_5  and  C4_6
REMARK    2  A    between atoms: C8_10  and  C9_11
REMARK    3  A    between atoms: C13_20  and  C14_21
REMARK    4  A    between atoms: C16_23  and  N7_24
REMARK    5  A    between atoms: C17_25  and  C18_27
REMARK                            x       y       z     vdW  Elec       q    Type
REMARK                         _______ _______ _______ _____ _____    ______ ____
ROOT
ATOM      1  C1  UNL     1      34.117  42.816  19.609  0.00  0.00    +0.172 A 
ATOM      2  C2  UNL     1      34.177  41.452  19.781  0.00  0.00    +0.103 A 
ATOM      3  C3  UNL     1      34.447  41.245  21.129  0.00  0.00    +0.150 A 
ATOM      4  N1  UNL     1      34.552  42.392  21.802  0.00  0.00    -0.172 NA
ATOM      5  N2  UNL     1      34.348  43.379  20.865  0.00  0.00    -0.214 N 
ATOM      6  C11 UNL     1      33.972  40.587  18.659  0.00  0.00    +0.264 A 
ATOM      7  O1  UNL     1      34.003  39.362  18.711  0.00  0.00    -0.267 OA
ATOM      8  N3  UNL     1      33.721  41.271  17.492  0.00  0.00    -0.291 N 
ATOM      9  N4  UNL     1      33.883  43.459  18.431  0.00  0.00    -0.192 NA
ATOM     10  C12 UNL     1      33.726  42.658  17.413  0.00  0.00    +0.235 A 
ATOM     11  N5  UNL     1      33.452  43.132  16.105  0.00  0.00    -0.185 N 
ATOM     12  N6  UNL     1      32.868  44.364  15.989  0.00  0.00    -0.167 NA
ATOM     13  C13 UNL     1      32.329  44.384  14.770  0.00  0.00    +0.062 A 
ATOM     14  C14 UNL     1      31.525  45.549  14.328  0.00  0.00    +0.067 C 
ATOM     15  C15 UNL     1      32.649  43.224  14.040  0.00  0.00    +0.068 A 
ATOM     16  C16 UNL     1      33.493  42.498  14.853  0.00  0.00    +0.132 A 
ATOM     17  H9  UNL     1      33.570  40.696  16.679  0.00  0.00    +0.172 HD
ENDROOT
BRANCH   5  18
ATOM     18  C4  UNL     1      34.389  44.751  21.262  0.00  0.00    +0.068 A 
ATOM     19  C5  UNL     1      33.275  45.400  21.806  0.00  0.00    +0.028 A 
ATOM     20  C6  UNL     1      33.355  46.746  22.175  0.00  0.00    +0.002 A 
ATOM     21  C7  UNL     1      34.544  47.454  22.010  0.00  0.00    +0.003 A 
ATOM     22  C8  UNL     1      35.673  46.822  21.483  0.00  0.00    -0.048 A 
ATOM     23  C9  UNL     1      36.946  47.586  21.270  0.00  0.00    +0.044 C 
ATOM     24  C10 UNL     1      35.585  45.475  21.101  0.00  0.00    +0.031 A 
ENDBRANCH   5  18
BRANCH  16  25
ATOM     25  N7  UNL     1      34.222  41.379  14.462  0.00  0.00    -0.264 N 
ATOM     26  C17 UNL     1      33.780  40.079  14.684  0.00  0.00    +0.285 C 
ATOM     27  O2  UNL     1      32.643  39.796  15.044  0.00  0.00    -0.266 OA
ATOM     28  H14 UNL     1      35.234  41.473  14.407  0.00  0.00    +0.157 HD
BRANCH  26  29
ATOM     29  C18 UNL     1      34.805  39.084  14.451  0.00  0.00    +0.191 A 
ATOM     30  C19 UNL     1      36.028  38.879  15.062  0.00  0.00    +0.063 A 
ATOM     31  C20 UNL     1      36.622  37.757  14.430  0.00  0.00    +0.021 A 
ATOM     32  C21 UNL     1      37.826  37.046  14.571  0.00  0.00    +0.011 A 
ATOM     33  C22 UNL     1      38.061  35.948  13.731  0.00  0.00    +0.001 A 
ATOM     34  C23 UNL     1      37.122  35.563  12.770  0.00  0.00    +0.004 A 
ATOM     35  C24 UNL     1      35.918  36.257  12.614  0.00  0.00    +0.047 A 
ATOM     36  C25 UNL     1      35.714  37.343  13.464  0.00  0.00    +0.136 A 
ATOM     37  O3  UNL     1      34.613  38.143  13.471  0.00  0.00    -0.450 OA
ENDBRANCH  26  29
ENDBRANCH  16  25
TORSDOF 3
ENDMDL
MODEL 8
REMARK VINA RESULT:    -3.045      6.087     10.116
REMARK INTER + INTRA:          -4.427
REMARK INTER:                  -3.505
REMARK INTRA:                  -0.922
REMARK UNBOUND:                -0.848
REMARK  Name = /home/vital/Documents/PhD_2021/Malaria_codes/data/pdb_ligands_mmv/ligand_162.pdb
REMARK  5 active torsions:
REMARK  status: ('A' for Active; 'I' for Inactive)
REMARK    1  A    between atoms: N2_5  and  C4_6
REMARK    2  A    between atoms: C8_10  and  C9_11
REMARK    3  A    between atoms: C13_20  and  C14_21
REMARK    4  A    between atoms: C16_23  and  N7_24
REMARK    5  A    between atoms: C17_25  and  C18_27
REMARK                            x       y       z     vdW  Elec       q    Type
REMARK                         _______ _______ _______ _____ _____    ______ ____
ROOT
ATOM      1  C1  UNL     1      15.530  28.907  18.483  0.00  0.00    +0.172 A 
ATOM      2  C2  UNL     1      15.022  29.658  19.519  0.00  0.00    +0.103 A 
ATOM      3  C3  UNL     1      14.196  28.807  20.243  0.00  0.00    +0.150 A 
ATOM      4  N1  UNL     1      14.164  27.578  19.726  0.00  0.00    -0.172 NA
ATOM      5  N2  UNL     1      14.992  27.628  18.629  0.00  0.00    -0.214 N 
ATOM      6  C11 UNL     1      15.398  31.034  19.647  0.00  0.00    +0.264 A 
ATOM      7  O1  UNL     1      15.003  31.782  20.534  0.00  0.00    -0.267 OA
ATOM      8  N3  UNL     1      16.273  31.445  18.668  0.00  0.00    -0.291 N 
ATOM      9  N4  UNL     1      16.381  29.356  17.519  0.00  0.00    -0.192 NA
ATOM     10  C12 UNL     1      16.694  30.618  17.634  0.00  0.00    +0.235 A 
ATOM     11  N5  UNL     1      17.584  31.267  16.741  0.00  0.00    -0.185 N 
ATOM     12  N6  UNL     1      18.489  30.488  16.074  0.00  0.00    -0.167 NA
ATOM     13  C13 UNL     1      19.447  31.326  15.676  0.00  0.00    +0.062 A 
ATOM     14  C14 UNL     1      20.655  30.806  14.990  0.00  0.00    +0.067 C 
ATOM     15  C15 UNL     1      19.126  32.663  15.974  0.00  0.00    +0.068 A 
ATOM     16  C16 UNL     1      17.862  32.626  16.521  0.00  0.00    +0.132 A 
ATOM     17  H9  UNL     1      16.562  32.408  18.724  0.00  0.00    +0.172 HD
ENDROOT
BRANCH   5  18
ATOM     18  C4  UNL     1      15.189  26.455  17.837  0.00  0.00    +0.068 A 
ATOM     19  C5  UNL     1      14.462  26.220  16.664  0.00  0.00    +0.028 A 
ATOM     20  C6  UNL     1      14.681  25.055  15.922  0.00  0.00    +0.002 A 
ATOM     21  C7  UNL     1      15.627  24.119  16.338  0.00  0.00    +0.003 A 
ATOM     22  C8  UNL     1      16.376  24.341  17.497  0.00  0.00    -0.048 A 
ATOM     23  C9  UNL     1      17.370  23.324  17.968  0.00  0.00    +0.044 C 
ATOM     24  C10 UNL     1      16.143  25.504  18.246  0.00  0.00    +0.031 A 
ENDBRANCH   5  18
BRANCH  16  25
ATOM     25  N7  UNL     1      17.062  33.735  16.776  0.00  0.00    -0.264 N 
ATOM     26  C17 UNL     1      15.954  34.057  16.000  0.00  0.00    +0.285 C 
ATOM     27  O2  UNL     1      15.461  33.304  15.167  0.00  0.00    -0.266 OA
ATOM     28  H14 UNL     1      17.496  34.533  17.235  0.00  0.00    +0.157 HD
BRANCH  26  29
ATOM     29  C18 UNL     1      15.438  35.383  16.268  0.00  0.00    +0.191 A 
ATOM     30  C19 UNL     1      14.584  35.844  17.252  0.00  0.00    +0.063 A 
ATOM     31  C20 UNL     1      14.418  37.235  17.036  0.00  0.00    +0.021 A 
ATOM     32  C21 UNL     1      13.701  38.270  17.661  0.00  0.00    +0.011 A 
ATOM     33  C22 UNL     1      13.794  39.566  17.134  0.00  0.00    +0.001 A 
ATOM     34  C23 UNL     1      14.582  39.832  16.011  0.00  0.00    +0.004 A 
ATOM     35  C24 UNL     1      15.303  38.816  15.375  0.00  0.00    +0.047 A 
ATOM     36  C25 UNL     1      15.190  37.539  15.922  0.00  0.00    +0.136 A 
ATOM     37  O3  UNL     1      15.809  36.422  15.452  0.00  0.00    -0.450 OA
ENDBRANCH  26  29
ENDBRANCH  16  25
TORSDOF 3
ENDMDL
MODEL 9
REMARK VINA RESULT:    -2.912     19.786     21.807
REMARK INTER + INTRA:          -4.271
REMARK INTER:                  -3.395
REMARK INTRA:                  -0.876
REMARK UNBOUND:                -0.848
REMARK  Name = /home/vital/Documents/PhD_2021/Malaria_codes/data/pdb_ligands_mmv/ligand_162.pdb
REMARK  5 active torsions:
REMARK  status: ('A' for Active; 'I' for Inactive)
REMARK    1  A    between atoms: N2_5  and  C4_6
REMARK    2  A    between atoms: C8_10  and  C9_11
REMARK    3  A    between atoms: C13_20  and  C14_21
REMARK    4  A    between atoms: C16_23  and  N7_24
REMARK    5  A    between atoms: C17_25  and  C18_27
REMARK                            x       y       z     vdW  Elec       q    Type
REMARK                         _______ _______ _______ _____ _____    ______ ____
ROOT
ATOM      1  C1  UNL     1      28.219  44.191  15.275  0.00  0.00    +0.172 A 
ATOM      2  C2  UNL     1      27.129  44.265  14.438  0.00  0.00    +0.103 A 
ATOM      3  C3  UNL     1      27.633  44.530  13.170  0.00  0.00    +0.150 A 
ATOM      4  N1  UNL     1      28.964  44.618  13.167  0.00  0.00    -0.172 NA
ATOM      5  N2  UNL     1      29.341  44.408  14.473  0.00  0.00    -0.214 N 
ATOM      6  C11 UNL     1      25.813  44.077  14.971  0.00  0.00    +0.264 A 
ATOM      7  O1  UNL     1      24.783  44.122  14.308  0.00  0.00    -0.267 OA
ATOM      8  N3  UNL     1      25.812  43.825  16.323  0.00  0.00    -0.291 N 
ATOM      9  N4  UNL     1      28.177  43.957  16.615  0.00  0.00    -0.192 NA
ATOM     10  C12 UNL     1      26.970  43.814  17.091  0.00  0.00    +0.235 A 
ATOM     11  N5  UNL     1      26.716  43.542  18.459  0.00  0.00    -0.185 N 
ATOM     12  N6  UNL     1      27.715  42.945  19.180  0.00  0.00    -0.167 NA
ATOM     13  C13 UNL     1      27.110  42.413  20.242  0.00  0.00    +0.062 A 
ATOM     14  C14 UNL     1      27.883  41.598  21.211  0.00  0.00    +0.067 C 
ATOM     15  C15 UNL     1      25.744  42.751  20.288  0.00  0.00    +0.068 A 
ATOM     16  C16 UNL     1      25.539  43.598  19.221  0.00  0.00    +0.132 A 
ATOM     17  H9  UNL     1      24.904  43.686  16.735  0.00  0.00    +0.172 HD
ENDROOT
BRANCH   5  18
ATOM     18  C4  UNL     1      30.727  44.431  14.823  0.00  0.00    +0.068 A 
ATOM     19  C5  UNL     1      31.344  45.577  15.336  0.00  0.00    +0.028 A 
ATOM     20  C6  UNL     1      32.704  45.559  15.658  0.00  0.00    +0.002 A 
ATOM     21  C7  UNL     1      33.458  44.400  15.478  0.00  0.00    +0.003 A 
ATOM     22  C8  UNL     1      32.859  43.240  14.982  0.00  0.00    -0.048 A 
ATOM     23  C9  UNL     1      33.671  42.001  14.753  0.00  0.00    +0.044 C 
ATOM     24  C10 UNL     1      31.497  43.266  14.646  0.00  0.00    +0.031 A 
ENDBRANCH   5  18
BRANCH  16  25
ATOM     25  N7  UNL     1      24.385  44.342  18.995  0.00  0.00    -0.264 N 
ATOM     26  C17 UNL     1      24.201  45.621  19.510  0.00  0.00    +0.285 C 
ATOM     27  O2  UNL     1      25.095  46.285  20.022  0.00  0.00    -0.266 OA
ATOM     28  H14 UNL     1      23.520  43.830  18.829  0.00  0.00    +0.157 HD
BRANCH  26  29
ATOM     29  C18 UNL     1      22.838  46.093  19.386  0.00  0.00    +0.191 A 
ATOM     30  C19 UNL     1      22.067  46.358  18.271  0.00  0.00    +0.063 A 
ATOM     31  C20 UNL     1      20.803  46.799  18.739  0.00  0.00    +0.021 A 
ATOM     32  C21 UNL     1      19.600  47.214  18.142  0.00  0.00    +0.011 A 
ATOM     33  C22 UNL     1      18.532  47.586  18.971  0.00  0.00    +0.001 A 
ATOM     34  C23 UNL     1      18.652  47.547  20.363  0.00  0.00    +0.004 A 
ATOM     35  C24 UNL     1      19.841  47.137  20.975  0.00  0.00    +0.047 A 
ATOM     36  C25 UNL     1      20.883  46.773  20.126  0.00  0.00    +0.136 A 
ATOM     37  O3  UNL     1      22.114  46.348  20.523  0.00  0.00    -0.450 OA
ENDBRANCH  26  29
ENDBRANCH  16  25
TORSDOF 3
ENDMDL
