MODEL 1
REMARK VINA RESULT:    -3.523      0.000      0.000
REMARK INTER + INTRA:          -5.803
REMARK INTER:                  -4.449
REMARK INTRA:                  -1.354
REMARK UNBOUND:                -1.354
REMARK  Name = /home/vital/Documents/PhD_2021/Malaria_codes/data/pdb_ligands_mmv/ligand_38.pdb
REMARK  8 active torsions:
REMARK  status: ('A' for Active; 'I' for Inactive)
REMARK    1  A    between atoms: C1_1  and  C2_2
REMARK    2  A    between atoms: C2_2  and  C3_3
REMARK    3  A    between atoms: C2_2  and  C4_4
REMARK    4  A    between atoms: C2_2  and  C5_5
REMARK    5  A    between atoms: C8_8  and  O1_9
REMARK    6  A    between atoms: C9_10  and  C10_11
REMARK    7  A    between atoms: C10_11  and  N1_12
REMARK    8  A    between atoms: N1_12  and  C11_13
REMARK                            x       y       z     vdW  Elec       q    Type
REMARK                         _______ _______ _______ _____ _____    ______ ____
ROOT
ATOM      1  C5  UNL     1      18.359  24.948  17.542  0.00  0.00    -0.041 A 
ATOM      2  C6  UNL     1      18.437  23.551  17.638  0.00  0.00    +0.008 A 
ATOM      3  C7  UNL     1      17.286  22.765  17.760  0.00  0.00    +0.046 A 
ATOM      4  C8  UNL     1      16.029  23.365  17.785  0.00  0.00    +0.121 A 
ATOM      5  C9  UNL     1      15.898  24.749  17.683  0.00  0.00    +0.008 A 
ATOM      6  C17 UNL     1      17.071  25.523  17.572  0.00  0.00    +0.012 A 
ENDROOT
BRANCH   1   8
ATOM      7  C1  UNL     1      19.470  26.730  16.149  0.00  0.00    +0.015 C 
ATOM      8  C2  UNL     1      19.600  25.847  17.410  0.00  0.00    -0.013 C 
ATOM      9  C3  UNL     1      19.722  26.753  18.653  0.00  0.00    +0.015 C 
ATOM     10  C4  UNL     1      20.926  25.064  17.283  0.00  0.00    +0.015 C 
ENDBRANCH   1   8
BRANCH   4  11
ATOM     11  O1  UNL     1      14.910  22.591  17.914  0.00  0.00    -0.506 OA
ATOM     12  H12 UNL     1      15.158  21.756  18.344  0.00  0.00    +0.292 HD
ENDBRANCH   4  11
BRANCH   5  13
ATOM     13  C10 UNL     1      14.549  25.437  17.730  0.00  0.00    +0.120 C 
BRANCH  13  14
ATOM     14  N1  UNL     1      13.691  25.004  16.618  0.00  0.00    -0.309 NA
ATOM     15  H15 UNL     1      12.736  24.969  16.976  0.00  0.00    +0.123 HD
BRANCH  14  16
ATOM     16  C11 UNL     1      13.742  25.917  15.469  0.00  0.00    +0.054 C 
ATOM     17  C12 UNL     1      14.855  25.436  14.521  0.00  0.00    +0.019 C 
ATOM     18  C13 UNL     1      15.015  26.362  13.317  0.00  0.00    +0.002 C 
ATOM     19  C14 UNL     1      15.261  27.803  13.748  0.00  0.00    +0.000 C 
ATOM     20  C15 UNL     1      14.172  28.296  14.694  0.00  0.00    +0.002 C 
ATOM     21  C16 UNL     1      14.004  27.371  15.898  0.00  0.00    +0.019 C 
ENDBRANCH  14  16
ENDBRANCH  13  14
ENDBRANCH   5  13
TORSDOF 5
ENDMDL
MODEL 2
REMARK VINA RESULT:    -3.153      2.033      5.292
REMARK INTER + INTRA:          -5.336
REMARK INTER:                  -4.302
REMARK INTRA:                  -1.034
REMARK UNBOUND:                -1.354
REMARK  Name = /home/vital/Documents/PhD_2021/Malaria_codes/data/pdb_ligands_mmv/ligand_38.pdb
REMARK  8 active torsions:
REMARK  status: ('A' for Active; 'I' for Inactive)
REMARK    1  A    between atoms: C1_1  and  C2_2
REMARK    2  A    between atoms: C2_2  and  C3_3
REMARK    3  A    between atoms: C2_2  and  C4_4
REMARK    4  A    between atoms: C2_2  and  C5_5
REMARK    5  A    between atoms: C8_8  and  O1_9
REMARK    6  A    between atoms: C9_10  and  C10_11
REMARK    7  A    between atoms: C10_11  and  N1_12
REMARK    8  A    between atoms: N1_12  and  C11_13
REMARK                            x       y       z     vdW  Elec       q    Type
REMARK                         _______ _______ _______ _____ _____    ______ ____
ROOT
ATOM      1  C5  UNL     1      15.283  28.394  14.647  0.00  0.00    -0.041 A 
ATOM      2  C6  UNL     1      15.548  27.674  13.472  0.00  0.00    +0.008 A 
ATOM      3  C7  UNL     1      15.228  26.316  13.365  0.00  0.00    +0.046 A 
ATOM      4  C8  UNL     1      14.632  25.651  14.434  0.00  0.00    +0.121 A 
ATOM      5  C9  UNL     1      14.339  26.326  15.619  0.00  0.00    +0.008 A 
ATOM      6  C17 UNL     1      14.679  27.690  15.710  0.00  0.00    +0.012 A 
ENDROOT
BRANCH   1   8
ATOM      7  C1  UNL     1      17.028  30.164  14.231  0.00  0.00    +0.015 C 
ATOM      8  C2  UNL     1      15.621  29.887  14.805  0.00  0.00    -0.013 C 
ATOM      9  C3  UNL     1      14.584  30.739  14.041  0.00  0.00    +0.015 C 
ATOM     10  C4  UNL     1      15.622  30.374  16.271  0.00  0.00    +0.015 C 
ENDBRANCH   1   8
BRANCH   4  11
ATOM     11  O1  UNL     1      14.332  24.322  14.325  0.00  0.00    -0.506 OA
ATOM     12  H12 UNL     1      14.550  23.885  15.165  0.00  0.00    +0.292 HD
ENDBRANCH   4  11
BRANCH   5  13
ATOM     13  C10 UNL     1      13.713  25.629  16.809  0.00  0.00    +0.120 C 
BRANCH  13  14
ATOM     14  N1  UNL     1      14.319  24.308  17.033  0.00  0.00    -0.309 NA
ATOM     15  H15 UNL     1      14.269  23.805  16.146  0.00  0.00    +0.123 HD
BRANCH  14  16
ATOM     16  C11 UNL     1      15.719  24.389  17.465  0.00  0.00    +0.054 C 
ATOM     17  C12 UNL     1      16.187  22.973  17.849  0.00  0.00    +0.019 C 
ATOM     18  C13 UNL     1      17.625  22.971  18.363  0.00  0.00    +0.002 C 
ATOM     19  C14 UNL     1      17.804  23.932  19.532  0.00  0.00    +0.000 C 
ATOM     20  C15 UNL     1      17.340  25.339  19.173  0.00  0.00    +0.002 C 
ATOM     21  C16 UNL     1      15.903  25.348  18.654  0.00  0.00    +0.019 C 
ENDBRANCH  14  16
ENDBRANCH  13  14
ENDBRANCH   5  13
TORSDOF 5
ENDMDL
MODEL 3
REMARK VINA RESULT:    -3.024      4.000      5.956
REMARK INTER + INTRA:          -5.173
REMARK INTER:                  -4.137
REMARK INTRA:                  -1.036
REMARK UNBOUND:                -1.354
REMARK  Name = /home/vital/Documents/PhD_2021/Malaria_codes/data/pdb_ligands_mmv/ligand_38.pdb
REMARK  8 active torsions:
REMARK  status: ('A' for Active; 'I' for Inactive)
REMARK    1  A    between atoms: C1_1  and  C2_2
REMARK    2  A    between atoms: C2_2  and  C3_3
REMARK    3  A    between atoms: C2_2  and  C4_4
REMARK    4  A    between atoms: C2_2  and  C5_5
REMARK    5  A    between atoms: C8_8  and  O1_9
REMARK    6  A    between atoms: C9_10  and  C10_11
REMARK    7  A    between atoms: C10_11  and  N1_12
REMARK    8  A    between atoms: N1_12  and  C11_13
REMARK                            x       y       z     vdW  Elec       q    Type
REMARK                         _______ _______ _______ _____ _____    ______ ____
ROOT
ATOM      1  C5  UNL     1      16.269  26.383  14.896  0.00  0.00    -0.041 A 
ATOM      2  C6  UNL     1      17.666  26.418  15.018  0.00  0.00    +0.008 A 
ATOM      3  C7  UNL     1      18.424  27.420  14.404  0.00  0.00    +0.046 A 
ATOM      4  C8  UNL     1      17.796  28.413  13.655  0.00  0.00    +0.121 A 
ATOM      5  C9  UNL     1      16.409  28.429  13.513  0.00  0.00    +0.008 A 
ATOM      6  C17 UNL     1      15.665  27.403  14.130  0.00  0.00    +0.012 A 
ENDROOT
BRANCH   1   8
ATOM      7  C1  UNL     1      16.281  24.398  16.447  0.00  0.00    +0.015 C 
ATOM      8  C2  UNL     1      15.400  25.297  15.553  0.00  0.00    -0.013 C 
ATOM      9  C3  UNL     1      14.307  25.959  16.420  0.00  0.00    +0.015 C 
ATOM     10  C4  UNL     1      14.684  24.374  14.541  0.00  0.00    +0.015 C 
ENDBRANCH   1   8
BRANCH   4  11
ATOM     11  O1  UNL     1      18.545  29.384  13.051  0.00  0.00    -0.506 OA
ATOM     12  H12 UNL     1      18.341  30.238  13.467  0.00  0.00    +0.292 HD
ENDBRANCH   4  11
BRANCH   5  13
ATOM     13  C10 UNL     1      15.696  29.478  12.687  0.00  0.00    +0.120 C 
BRANCH  13  14
ATOM     14  N1  UNL     1      14.627  30.129  13.460  0.00  0.00    -0.309 NA
ATOM     15  H15 UNL     1      14.654  29.729  14.399  0.00  0.00    +0.123 HD
BRANCH  14  16
ATOM     16  C11 UNL     1      14.793  31.585  13.550  0.00  0.00    +0.054 C 
ATOM     17  C12 UNL     1      15.564  32.060  12.305  0.00  0.00    +0.019 C 
ATOM     18  C13 UNL     1      15.829  33.563  12.341  0.00  0.00    +0.002 C 
ATOM     19  C14 UNL     1      16.559  33.973  13.615  0.00  0.00    +0.000 C 
ATOM     20  C15 UNL     1      15.813  33.506  14.860  0.00  0.00    +0.002 C 
ATOM     21  C16 UNL     1      15.542  32.002  14.828  0.00  0.00    +0.019 C 
ENDBRANCH  14  16
ENDBRANCH  13  14
ENDBRANCH   5  13
TORSDOF 5
ENDMDL
MODEL 4
REMARK VINA RESULT:    -2.947     17.474     19.548
REMARK INTER + INTRA:          -5.076
REMARK INTER:                  -4.049
REMARK INTRA:                  -1.027
REMARK UNBOUND:                -1.354
REMARK  Name = /home/vital/Documents/PhD_2021/Malaria_codes/data/pdb_ligands_mmv/ligand_38.pdb
REMARK  8 active torsions:
REMARK  status: ('A' for Active; 'I' for Inactive)
REMARK    1  A    between atoms: C1_1  and  C2_2
REMARK    2  A    between atoms: C2_2  and  C3_3
REMARK    3  A    between atoms: C2_2  and  C4_4
REMARK    4  A    between atoms: C2_2  and  C5_5
REMARK    5  A    between atoms: C8_8  and  O1_9
REMARK    6  A    between atoms: C9_10  and  C10_11
REMARK    7  A    between atoms: C10_11  and  N1_12
REMARK    8  A    between atoms: N1_12  and  C11_13
REMARK                            x       y       z     vdW  Elec       q    Type
REMARK                         _______ _______ _______ _____ _____    ______ ____
ROOT
ATOM      1  C5  UNL     1      18.344  41.919  15.007  0.00  0.00    -0.041 A 
ATOM      2  C6  UNL     1      18.750  41.439  16.261  0.00  0.00    +0.008 A 
ATOM      3  C7  UNL     1      20.003  41.764  16.793  0.00  0.00    +0.046 A 
ATOM      4  C8  UNL     1      20.875  42.581  16.078  0.00  0.00    +0.121 A 
ATOM      5  C9  UNL     1      20.514  43.091  14.831  0.00  0.00    +0.008 A 
ATOM      6  C17 UNL     1      19.253  42.743  14.309  0.00  0.00    +0.012 A 
ENDROOT
BRANCH   1   8
ATOM      7  C1  UNL     1      16.689  42.544  13.212  0.00  0.00    +0.015 C 
ATOM      8  C2  UNL     1      16.977  41.583  14.387  0.00  0.00    -0.013 C 
ATOM      9  C3  UNL     1      16.986  40.130  13.864  0.00  0.00    +0.015 C 
ATOM     10  C4  UNL     1      15.797  41.705  15.376  0.00  0.00    +0.015 C 
ENDBRANCH   1   8
BRANCH   4  11
ATOM     11  O1  UNL     1      22.101  42.886  16.600  0.00  0.00    -0.506 OA
ATOM     12  H12 UNL     1      22.253  42.329  17.381  0.00  0.00    +0.292 HD
ENDBRANCH   4  11
BRANCH   5  13
ATOM     13  C10 UNL     1      21.447  43.963  14.016  0.00  0.00    +0.120 C 
BRANCH  13  14
ATOM     14  N1  UNL     1      20.914  45.326  13.873  0.00  0.00    -0.309 NA
ATOM     15  H15 UNL     1      20.022  45.349  14.368  0.00  0.00    +0.123 HD
BRANCH  14  16
ATOM     16  C11 UNL     1      21.806  46.348  14.435  0.00  0.00    +0.054 C 
ATOM     17  C12 UNL     1      23.242  46.044  13.971  0.00  0.00    +0.019 C 
ATOM     18  C13 UNL     1      24.248  47.033  14.554  0.00  0.00    +0.002 C 
ATOM     19  C14 UNL     1      24.173  47.078  16.075  0.00  0.00    +0.000 C 
ATOM     20  C15 UNL     1      22.756  47.373  16.555  0.00  0.00    +0.002 C 
ATOM     21  C16 UNL     1      21.743  46.388  15.971  0.00  0.00    +0.019 C 
ENDBRANCH  14  16
ENDBRANCH  13  14
ENDBRANCH   5  13
TORSDOF 5
ENDMDL
MODEL 5
REMARK VINA RESULT:    -2.894      4.245      6.560
REMARK INTER + INTRA:          -5.009
REMARK INTER:                  -3.825
REMARK INTRA:                  -1.183
REMARK UNBOUND:                -1.354
REMARK  Name = /home/vital/Documents/PhD_2021/Malaria_codes/data/pdb_ligands_mmv/ligand_38.pdb
REMARK  8 active torsions:
REMARK  status: ('A' for Active; 'I' for Inactive)
REMARK    1  A    between atoms: C1_1  and  C2_2
REMARK    2  A    between atoms: C2_2  and  C3_3
REMARK    3  A    between atoms: C2_2  and  C4_4
REMARK    4  A    between atoms: C2_2  and  C5_5
REMARK    5  A    between atoms: C8_8  and  O1_9
REMARK    6  A    between atoms: C9_10  and  C10_11
REMARK    7  A    between atoms: C10_11  and  N1_12
REMARK    8  A    between atoms: N1_12  and  C11_13
REMARK                            x       y       z     vdW  Elec       q    Type
REMARK                         _______ _______ _______ _____ _____    ______ ____
ROOT
ATOM      1  C5  UNL     1      15.797  31.754  16.337  0.00  0.00    -0.041 A 
ATOM      2  C6  UNL     1      15.947  32.696  15.309  0.00  0.00    +0.008 A 
ATOM      3  C7  UNL     1      15.677  32.366  13.976  0.00  0.00    +0.046 A 
ATOM      4  C8  UNL     1      15.247  31.083  13.647  0.00  0.00    +0.121 A 
ATOM      5  C9  UNL     1      15.072  30.114  14.634  0.00  0.00    +0.008 A 
ATOM      6  C17 UNL     1      15.360  30.464  15.968  0.00  0.00    +0.012 A 
ENDROOT
BRANCH   1   8
ATOM      7  C1  UNL     1      15.363  33.382  18.211  0.00  0.00    +0.015 C 
ATOM      8  C2  UNL     1      16.086  32.076  17.814  0.00  0.00    -0.013 C 
ATOM      9  C3  UNL     1      15.578  30.924  18.707  0.00  0.00    +0.015 C 
ATOM     10  C4  UNL     1      17.586  32.271  18.127  0.00  0.00    +0.015 C 
ENDBRANCH   1   8
BRANCH   4  11
ATOM     11  O1  UNL     1      14.994  30.766  12.341  0.00  0.00    -0.506 OA
ATOM     12  H12 UNL     1      14.096  31.063  12.118  0.00  0.00    +0.292 HD
ENDBRANCH   4  11
BRANCH   5  13
ATOM     13  C10 UNL     1      14.628  28.703  14.309  0.00  0.00    +0.120 C 
BRANCH  13  14
ATOM     14  N1  UNL     1      15.623  28.010  13.477  0.00  0.00    -0.309 NA
ATOM     15  H15 UNL     1      16.469  28.580  13.489  0.00  0.00    +0.123 HD
BRANCH  14  16
ATOM     16  C11 UNL     1      15.940  26.664  13.971  0.00  0.00    +0.054 C 
ATOM     17  C12 UNL     1      14.625  25.876  14.101  0.00  0.00    +0.019 C 
ATOM     18  C13 UNL     1      14.856  24.474  14.661  0.00  0.00    +0.002 C 
ATOM     19  C14 UNL     1      15.592  24.517  15.995  0.00  0.00    +0.000 C 
ATOM     20  C15 UNL     1      16.895  25.300  15.887  0.00  0.00    +0.002 C 
ATOM     21  C16 UNL     1      16.671  26.703  15.324  0.00  0.00    +0.019 C 
ENDBRANCH  14  16
ENDBRANCH  13  14
ENDBRANCH   5  13
TORSDOF 5
ENDMDL
MODEL 6
REMARK VINA RESULT:    -2.842      1.657      2.690
REMARK INTER + INTRA:          -4.944
REMARK INTER:                  -3.510
REMARK INTRA:                  -1.434
REMARK UNBOUND:                -1.354
REMARK  Name = /home/vital/Documents/PhD_2021/Malaria_codes/data/pdb_ligands_mmv/ligand_38.pdb
REMARK  8 active torsions:
REMARK  status: ('A' for Active; 'I' for Inactive)
REMARK    1  A    between atoms: C1_1  and  C2_2
REMARK    2  A    between atoms: C2_2  and  C3_3
REMARK    3  A    between atoms: C2_2  and  C4_4
REMARK    4  A    between atoms: C2_2  and  C5_5
REMARK    5  A    between atoms: C8_8  and  O1_9
REMARK    6  A    between atoms: C9_10  and  C10_11
REMARK    7  A    between atoms: C10_11  and  N1_12
REMARK    8  A    between atoms: N1_12  and  C11_13
REMARK                            x       y       z     vdW  Elec       q    Type
REMARK                         _______ _______ _______ _____ _____    ______ ____
ROOT
ATOM      1  C5  UNL     1      19.770  25.856  18.041  0.00  0.00    -0.041 A 
ATOM      2  C6  UNL     1      19.691  26.176  19.405  0.00  0.00    +0.008 A 
ATOM      3  C7  UNL     1      18.750  25.564  20.241  0.00  0.00    +0.046 A 
ATOM      4  C8  UNL     1      17.871  24.614  19.727  0.00  0.00    +0.121 A 
ATOM      5  C9  UNL     1      17.917  24.255  18.381  0.00  0.00    +0.008 A 
ATOM      6  C17 UNL     1      18.864  24.891  17.554  0.00  0.00    +0.012 A 
ENDROOT
BRANCH   1   8
ATOM      7  C1  UNL     1      21.829  25.457  16.644  0.00  0.00    +0.015 C 
ATOM      8  C2  UNL     1      20.788  26.508  17.089  0.00  0.00    -0.013 C 
ATOM      9  C3  UNL     1      20.058  27.058  15.845  0.00  0.00    +0.015 C 
ATOM     10  C4  UNL     1      21.567  27.683  17.719  0.00  0.00    +0.015 C 
ENDBRANCH   1   8
BRANCH   4  11
ATOM     11  O1  UNL     1      16.949  24.028  20.548  0.00  0.00    -0.506 OA
ATOM     12  H12 UNL     1      17.411  23.654  21.317  0.00  0.00    +0.292 HD
ENDBRANCH   4  11
BRANCH   5  13
ATOM     13  C10 UNL     1      16.961  23.244  17.783  0.00  0.00    +0.120 C 
BRANCH  13  14
ATOM     14  N1  UNL     1      15.574  23.517  18.189  0.00  0.00    -0.309 NA
ATOM     15  H15 UNL     1      15.618  24.140  18.996  0.00  0.00    +0.123 HD
BRANCH  14  16
ATOM     16  C11 UNL     1      14.784  24.154  17.129  0.00  0.00    +0.054 C 
ATOM     17  C12 UNL     1      15.490  23.903  15.784  0.00  0.00    +0.019 C 
ATOM     18  C13 UNL     1      14.760  24.578  14.625  0.00  0.00    +0.002 C 
ATOM     19  C14 UNL     1      14.584  26.072  14.869  0.00  0.00    +0.000 C 
ATOM     20  C15 UNL     1      13.891  26.341  16.200  0.00  0.00    +0.002 C 
ATOM     21  C16 UNL     1      14.615  25.665  17.364  0.00  0.00    +0.019 C 
ENDBRANCH  14  16
ENDBRANCH  13  14
ENDBRANCH   5  13
TORSDOF 5
ENDMDL
MODEL 7
REMARK VINA RESULT:    -2.765      2.990      4.147
REMARK INTER + INTRA:          -4.847
REMARK INTER:                  -3.468
REMARK INTRA:                  -1.379
REMARK UNBOUND:                -1.354
REMARK  Name = /home/vital/Documents/PhD_2021/Malaria_codes/data/pdb_ligands_mmv/ligand_38.pdb
REMARK  8 active torsions:
REMARK  status: ('A' for Active; 'I' for Inactive)
REMARK    1  A    between atoms: C1_1  and  C2_2
REMARK    2  A    between atoms: C2_2  and  C3_3
REMARK    3  A    between atoms: C2_2  and  C4_4
REMARK    4  A    between atoms: C2_2  and  C5_5
REMARK    5  A    between atoms: C8_8  and  O1_9
REMARK    6  A    between atoms: C9_10  and  C10_11
REMARK    7  A    between atoms: C10_11  and  N1_12
REMARK    8  A    between atoms: N1_12  and  C11_13
REMARK                            x       y       z     vdW  Elec       q    Type
REMARK                         _______ _______ _______ _____ _____    ______ ____
ROOT
ATOM      1  C5  UNL     1      15.605  26.624  17.778  0.00  0.00    -0.041 A 
ATOM      2  C6  UNL     1      14.759  25.507  17.703  0.00  0.00    +0.008 A 
ATOM      3  C7  UNL     1      14.531  24.848  16.490  0.00  0.00    +0.046 A 
ATOM      4  C8  UNL     1      15.150  25.294  15.325  0.00  0.00    +0.121 A 
ATOM      5  C9  UNL     1      16.007  26.393  15.349  0.00  0.00    +0.008 A 
ATOM      6  C17 UNL     1      16.215  27.049  16.578  0.00  0.00    +0.012 A 
ENDROOT
BRANCH   1   8
ATOM      7  C1  UNL     1      14.549  27.624  19.835  0.00  0.00    +0.015 C 
ATOM      8  C2  UNL     1      15.880  27.377  19.091  0.00  0.00    -0.013 C 
ATOM      9  C3  UNL     1      16.814  26.537  19.987  0.00  0.00    +0.015 C 
ATOM     10  C4  UNL     1      16.553  28.753  18.891  0.00  0.00    +0.015 C 
ENDBRANCH   1   8
BRANCH   4  11
ATOM     11  O1  UNL     1      14.914  24.651  14.142  0.00  0.00    -0.506 OA
ATOM     12  H12 UNL     1      14.626  25.305  13.484  0.00  0.00    +0.292 HD
ENDBRANCH   4  11
BRANCH   5  13
ATOM     13  C10 UNL     1      16.678  26.919  14.097  0.00  0.00    +0.120 C 
BRANCH  13  14
ATOM     14  N1  UNL     1      15.689  27.425  13.134  0.00  0.00    -0.309 NA
ATOM     15  H15 UNL     1      14.772  27.117  13.461  0.00  0.00    +0.123 HD
BRANCH  14  16
ATOM     16  C11 UNL     1      15.695  28.889  13.025  0.00  0.00    +0.054 C 
ATOM     17  C12 UNL     1      17.127  29.386  13.294  0.00  0.00    +0.019 C 
ATOM     18  C13 UNL     1      17.216  30.910  13.252  0.00  0.00    +0.002 C 
ATOM     19  C14 UNL     1      16.232  31.556  14.221  0.00  0.00    +0.000 C 
ATOM     20  C15 UNL     1      14.808  31.070  13.974  0.00  0.00    +0.002 C 
ATOM     21  C16 UNL     1      14.713  29.546  14.010  0.00  0.00    +0.019 C 
ENDBRANCH  14  16
ENDBRANCH  13  14
ENDBRANCH   5  13
TORSDOF 5
ENDMDL
MODEL 8
REMARK VINA RESULT:    -2.721      2.317      5.562
REMARK INTER + INTRA:          -4.791
REMARK INTER:                  -3.363
REMARK INTRA:                  -1.427
REMARK UNBOUND:                -1.354
REMARK  Name = /home/vital/Documents/PhD_2021/Malaria_codes/data/pdb_ligands_mmv/ligand_38.pdb
REMARK  8 active torsions:
REMARK  status: ('A' for Active; 'I' for Inactive)
REMARK    1  A    between atoms: C1_1  and  C2_2
REMARK    2  A    between atoms: C2_2  and  C3_3
REMARK    3  A    between atoms: C2_2  and  C4_4
REMARK    4  A    between atoms: C2_2  and  C5_5
REMARK    5  A    between atoms: C8_8  and  O1_9
REMARK    6  A    between atoms: C9_10  and  C10_11
REMARK    7  A    between atoms: C10_11  and  N1_12
REMARK    8  A    between atoms: N1_12  and  C11_13
REMARK                            x       y       z     vdW  Elec       q    Type
REMARK                         _______ _______ _______ _____ _____    ______ ____
ROOT
ATOM      1  C5  UNL     1      15.469  29.203  14.279  0.00  0.00    -0.041 A 
ATOM      2  C6  UNL     1      15.883  28.398  13.206  0.00  0.00    +0.008 A 
ATOM      3  C7  UNL     1      15.597  27.029  13.173  0.00  0.00    +0.046 A 
ATOM      4  C8  UNL     1      14.886  26.437  14.215  0.00  0.00    +0.121 A 
ATOM      5  C9  UNL     1      14.444  27.196  15.298  0.00  0.00    +0.008 A 
ATOM      6  C17 UNL     1      14.752  28.571  15.317  0.00  0.00    +0.012 A 
ENDROOT
BRANCH   1   8
ATOM      7  C1  UNL     1      17.154  30.998  13.743  0.00  0.00    +0.015 C 
ATOM      8  C2  UNL     1      15.765  30.711  14.354  0.00  0.00    -0.013 C 
ATOM      9  C3  UNL     1      14.692  31.491  13.566  0.00  0.00    +0.015 C 
ATOM     10  C4  UNL     1      15.774  31.273  15.793  0.00  0.00    +0.015 C 
ENDBRANCH   1   8
BRANCH   4  11
ATOM     11  O1  UNL     1      14.620  25.097  14.179  0.00  0.00    -0.506 OA
ATOM     12  H12 UNL     1      14.630  24.803  13.253  0.00  0.00    +0.292 HD
ENDBRANCH   4  11
BRANCH   5  13
ATOM     13  C10 UNL     1      13.690  26.581  16.458  0.00  0.00    +0.120 C 
BRANCH  13  14
ATOM     14  N1  UNL     1      14.405  25.417  17.001  0.00  0.00    -0.309 NA
ATOM     15  H15 UNL     1      14.985  25.046  16.248  0.00  0.00    +0.123 HD
BRANCH  14  16
ATOM     16  C11 UNL     1      15.258  25.754  18.147  0.00  0.00    +0.054 C 
ATOM     17  C12 UNL     1      14.676  27.005  18.829  0.00  0.00    +0.019 C 
ATOM     18  C13 UNL     1      15.535  27.460  20.007  0.00  0.00    +0.002 C 
ATOM     19  C14 UNL     1      16.980  27.700  19.587  0.00  0.00    +0.000 C 
ATOM     20  C15 UNL     1      17.572  26.473  18.903  0.00  0.00    +0.002 C 
ATOM     21  C16 UNL     1      16.715  26.010  17.726  0.00  0.00    +0.019 C 
ENDBRANCH  14  16
ENDBRANCH  13  14
ENDBRANCH   5  13
TORSDOF 5
ENDMDL
MODEL 9
REMARK VINA RESULT:    -2.387      4.148      6.702
REMARK INTER + INTRA:          -4.369
REMARK INTER:                  -3.261
REMARK INTRA:                  -1.108
REMARK UNBOUND:                -1.354
REMARK  Name = /home/vital/Documents/PhD_2021/Malaria_codes/data/pdb_ligands_mmv/ligand_38.pdb
REMARK  8 active torsions:
REMARK  status: ('A' for Active; 'I' for Inactive)
REMARK    1  A    between atoms: C1_1  and  C2_2
REMARK    2  A    between atoms: C2_2  and  C3_3
REMARK    3  A    between atoms: C2_2  and  C4_4
REMARK    4  A    between atoms: C2_2  and  C5_5
REMARK    5  A    between atoms: C8_8  and  O1_9
REMARK    6  A    between atoms: C9_10  and  C10_11
REMARK    7  A    between atoms: C10_11  and  N1_12
REMARK    8  A    between atoms: N1_12  and  C11_13
REMARK                            x       y       z     vdW  Elec       q    Type
REMARK                         _______ _______ _______ _____ _____    ______ ____
ROOT
ATOM      1  C5  UNL     1      15.747  31.249  15.666  0.00  0.00    -0.041 A 
ATOM      2  C6  UNL     1      15.918  32.595  16.021  0.00  0.00    +0.008 A 
ATOM      3  C7  UNL     1      16.123  32.974  17.353  0.00  0.00    +0.046 A 
ATOM      4  C8  UNL     1      16.164  32.009  18.356  0.00  0.00    +0.121 A 
ATOM      5  C9  UNL     1      16.010  30.657  18.052  0.00  0.00    +0.008 A 
ATOM      6  C17 UNL     1      15.793  30.298  16.707  0.00  0.00    +0.012 A 
ENDROOT
BRANCH   1   8
ATOM      7  C1  UNL     1      16.878  30.536  13.529  0.00  0.00    +0.015 C 
ATOM      8  C2  UNL     1      15.517  30.792  14.215  0.00  0.00    -0.013 C 
ATOM      9  C3  UNL     1      14.691  29.488  14.205  0.00  0.00    +0.015 C 
ATOM     10  C4  UNL     1      14.757  31.822  13.349  0.00  0.00    +0.015 C 
ENDBRANCH   1   8
BRANCH   4  11
ATOM     11  O1  UNL     1      16.355  32.389  19.655  0.00  0.00    -0.506 OA
ATOM     12  H12 UNL     1      17.297  32.288  19.873  0.00  0.00    +0.292 HD
ENDBRANCH   4  11
BRANCH   5  13
ATOM     13  C10 UNL     1      16.025  29.584  19.120  0.00  0.00    +0.120 C 
BRANCH  13  14
ATOM     14  N1  UNL     1      14.683  29.024  19.332  0.00  0.00    -0.309 NA
ATOM     15  H15 UNL     1      14.037  29.576  18.766  0.00  0.00    +0.123 HD
BRANCH  14  16
ATOM     16  C11 UNL     1      14.585  27.613  18.939  0.00  0.00    +0.054 C 
ATOM     17  C12 UNL     1      16.006  27.090  18.660  0.00  0.00    +0.019 C 
ATOM     18  C13 UNL     1      15.994  25.637  18.192  0.00  0.00    +0.002 C 
ATOM     19  C14 UNL     1      15.103  25.449  16.970  0.00  0.00    +0.000 C 
ATOM     20  C15 UNL     1      13.692  25.967  17.224  0.00  0.00    +0.002 C 
ATOM     21  C16 UNL     1      13.697  27.420  17.698  0.00  0.00    +0.019 C 
ENDBRANCH  14  16
ENDBRANCH  13  14
ENDBRANCH   5  13
TORSDOF 5
ENDMDL
