MODEL 1
REMARK VINA RESULT:    -4.940      0.000      0.000
REMARK INTER + INTRA:          -4.829
REMARK INTER:                  -5.229
REMARK INTRA:                   0.400
REMARK UNBOUND:                 0.400
REMARK  Name = /home/vital/Documents/PhD_2021/Malaria_codes/data/pdb_ligands_mmv/ligand_132.pdb
REMARK  3 active torsions:
REMARK  status: ('A' for Active; 'I' for Inactive)
REMARK    1  A    between atoms: C1_1  and  N1_2
REMARK    2  A    between atoms: C2_3  and  C10_12
REMARK    3  A    between atoms: N2_4  and  C3_5
REMARK                            x       y       z     vdW  Elec       q    Type
REMARK                         _______ _______ _______ _____ _____    ______ ____
ROOT
ATOM      1  C1  UNL     1      15.688  28.496  13.107  0.00  0.00    +0.131 C 
ATOM      2  N1  UNL     1      14.653  28.846  14.079  0.00  0.00    -0.309 N 
ATOM      3  C2  UNL     1      14.701  28.253  15.447  0.00  0.00    +0.192 C 
ATOM      4  N2  UNL     1      15.558  29.076  16.352  0.00  0.00    -0.309 N 
ATOM      5  C3  UNL     1      16.999  28.828  16.395  0.00  0.00    +0.131 C 
ATOM      6  C4  UNL     1      15.343  30.356  15.737  0.00  0.00    +0.052 A 
ATOM      7  C5  UNL     1      15.653  31.599  16.262  0.00  0.00    +0.025 A 
ATOM      8  C6  UNL     1      15.422  32.725  15.468  0.00  0.00    +0.002 A 
ATOM      9  C7  UNL     1      14.903  32.593  14.167  0.00  0.00    +0.002 A 
ATOM     10  C8  UNL     1      14.608  31.332  13.640  0.00  0.00    +0.025 A 
ATOM     11  C9  UNL     1      14.826  30.225  14.441  0.00  0.00    +0.052 A 
ENDROOT
BRANCH   3  12
ATOM     12  C10 UNL     1      14.818  26.731  15.558  0.00  0.00    -0.006 A 
ATOM     13  C11 UNL     1      14.440  25.890  14.477  0.00  0.00    +0.011 A 
ATOM     14  C12 UNL     1      14.607  24.500  14.522  0.00  0.00    +0.050 A 
ATOM     15  C13 UNL     1      15.199  23.965  15.641  0.00  0.00    +0.166 A 
ATOM     16  O1  UNL     1      15.456  22.647  15.855  0.00  0.00    -0.453 OA
ATOM     17  C14 UNL     1      16.110  22.706  17.140  0.00  0.00    +0.466 C 
ATOM     18  O2  UNL     1      16.228  24.045  17.663  0.00  0.00    -0.453 OA
ATOM     19  C15 UNL     1      15.634  24.760  16.671  0.00  0.00    +0.167 A 
ATOM     20  C16 UNL     1      15.482  26.131  16.648  0.00  0.00    +0.056 A 
ENDBRANCH   3  12
TORSDOF 1
ENDMDL
MODEL 2
REMARK VINA RESULT:    -4.688      1.297      2.053
REMARK INTER + INTRA:          -4.561
REMARK INTER:                  -4.770
REMARK INTRA:                   0.209
REMARK UNBOUND:                 0.400
REMARK  Name = /home/vital/Documents/PhD_2021/Malaria_codes/data/pdb_ligands_mmv/ligand_132.pdb
REMARK  3 active torsions:
REMARK  status: ('A' for Active; 'I' for Inactive)
REMARK    1  A    between atoms: C1_1  and  N1_2
REMARK    2  A    between atoms: C2_3  and  C10_12
REMARK    3  A    between atoms: N2_4  and  C3_5
REMARK                            x       y       z     vdW  Elec       q    Type
REMARK                         _______ _______ _______ _____ _____    ______ ____
ROOT
ATOM      1  C1  UNL     1      17.013  28.994  16.442  0.00  0.00    +0.131 C 
ATOM      2  N1  UNL     1      17.039  28.839  14.987  0.00  0.00    -0.309 N 
ATOM      3  C2  UNL     1      16.028  27.963  14.326  0.00  0.00    +0.192 C 
ATOM      4  N2  UNL     1      14.778  28.726  14.029  0.00  0.00    -0.309 N 
ATOM      5  C3  UNL     1      13.743  28.831  15.057  0.00  0.00    +0.131 C 
ATOM      6  C4  UNL     1      15.364  30.026  13.851  0.00  0.00    +0.052 A 
ATOM      7  C5  UNL     1      14.766  31.142  13.291  0.00  0.00    +0.025 A 
ATOM      8  C6  UNL     1      15.492  32.336  13.271  0.00  0.00    +0.002 A 
ATOM      9  C7  UNL     1      16.787  32.399  13.819  0.00  0.00    +0.002 A 
ATOM     10  C8  UNL     1      17.375  31.271  14.396  0.00  0.00    +0.025 A 
ATOM     11  C9  UNL     1      16.653  30.089  14.397  0.00  0.00    +0.052 A 
ENDROOT
BRANCH   3  12
ATOM     12  C10 UNL     1      15.872  26.534  14.852  0.00  0.00    -0.006 A 
ATOM     13  C11 UNL     1      14.880  25.666  14.321  0.00  0.00    +0.011 A 
ATOM     14  C12 UNL     1      14.763  24.332  14.729  0.00  0.00    +0.050 A 
ATOM     15  C13 UNL     1      15.680  23.861  15.639  0.00  0.00    +0.166 A 
ATOM     16  O1  UNL     1      15.734  22.597  16.136  0.00  0.00    -0.453 OA
ATOM     17  C14 UNL     1      16.900  22.690  16.982  0.00  0.00    +0.466 C 
ATOM     18  O2  UNL     1      17.513  23.996  16.973  0.00  0.00    -0.453 OA
ATOM     19  C15 UNL     1      16.689  24.658  16.117  0.00  0.00    +0.167 A 
ATOM     20  C16 UNL     1      16.824  25.976  15.729  0.00  0.00    +0.056 A 
ENDBRANCH   3  12
TORSDOF 1
ENDMDL
MODEL 3
REMARK VINA RESULT:    -4.519      3.119      6.705
REMARK INTER + INTRA:          -4.383
REMARK INTER:                  -4.587
REMARK INTRA:                   0.204
REMARK UNBOUND:                 0.400
REMARK  Name = /home/vital/Documents/PhD_2021/Malaria_codes/data/pdb_ligands_mmv/ligand_132.pdb
REMARK  3 active torsions:
REMARK  status: ('A' for Active; 'I' for Inactive)
REMARK    1  A    between atoms: C1_1  and  N1_2
REMARK    2  A    between atoms: C2_3  and  C10_12
REMARK    3  A    between atoms: N2_4  and  C3_5
REMARK                            x       y       z     vdW  Elec       q    Type
REMARK                         _______ _______ _______ _____ _____    ______ ____
ROOT
ATOM      1  C1  UNL     1      17.702  27.476  15.811  0.00  0.00    +0.131 C 
ATOM      2  N1  UNL     1      16.338  27.237  16.283  0.00  0.00    -0.309 N 
ATOM      3  C2  UNL     1      15.191  27.836  15.540  0.00  0.00    +0.192 C 
ATOM      4  N2  UNL     1      14.756  26.940  14.426  0.00  0.00    -0.309 N 
ATOM      5  C3  UNL     1      15.414  27.047  13.124  0.00  0.00    +0.131 C 
ATOM      6  C4  UNL     1      15.125  25.682  15.012  0.00  0.00    +0.052 A 
ATOM      7  C5  UNL     1      14.742  24.420  14.592  0.00  0.00    +0.025 A 
ATOM      8  C6  UNL     1      15.269  23.315  15.265  0.00  0.00    +0.002 A 
ATOM      9  C7  UNL     1      16.174  23.485  16.329  0.00  0.00    +0.002 A 
ATOM     10  C8  UNL     1      16.567  24.764  16.735  0.00  0.00    +0.025 A 
ATOM     11  C9  UNL     1      16.027  25.852  16.072  0.00  0.00    +0.052 A 
ENDROOT
BRANCH   3  12
ATOM     12  C10 UNL     1      15.232  29.340  15.260  0.00  0.00    -0.006 A 
ATOM     13  C11 UNL     1      14.538  29.894  14.150  0.00  0.00    +0.011 A 
ATOM     14  C12 UNL     1      14.495  31.273  13.913  0.00  0.00    +0.050 A 
ATOM     15  C13 UNL     1      15.115  32.096  14.823  0.00  0.00    +0.166 A 
ATOM     16  O1  UNL     1      15.165  33.454  14.767  0.00  0.00    -0.453 OA
ATOM     17  C14 UNL     1      15.886  33.747  15.982  0.00  0.00    +0.466 C 
ATOM     18  O2  UNL     1      16.249  32.569  16.732  0.00  0.00    -0.453 OA
ATOM     19  C15 UNL     1      15.735  31.593  15.938  0.00  0.00    +0.167 A 
ATOM     20  C16 UNL     1      15.789  30.237  16.194  0.00  0.00    +0.056 A 
ENDBRANCH   3  12
TORSDOF 1
ENDMDL
MODEL 4
REMARK VINA RESULT:    -4.431      3.237      6.815
REMARK INTER + INTRA:          -4.289
REMARK INTER:                  -4.509
REMARK INTRA:                   0.220
REMARK UNBOUND:                 0.400
REMARK  Name = /home/vital/Documents/PhD_2021/Malaria_codes/data/pdb_ligands_mmv/ligand_132.pdb
REMARK  3 active torsions:
REMARK  status: ('A' for Active; 'I' for Inactive)
REMARK    1  A    between atoms: C1_1  and  N1_2
REMARK    2  A    between atoms: C2_3  and  C10_12
REMARK    3  A    between atoms: N2_4  and  C3_5
REMARK                            x       y       z     vdW  Elec       q    Type
REMARK                         _______ _______ _______ _____ _____    ______ ____
ROOT
ATOM      1  C1  UNL     1      16.765  28.170  16.705  0.00  0.00    +0.131 C 
ATOM      2  N1  UNL     1      15.345  28.055  16.372  0.00  0.00    -0.309 N 
ATOM      3  C2  UNL     1      14.802  28.813  15.208  0.00  0.00    +0.192 C 
ATOM      4  N2  UNL     1      14.963  28.032  13.945  0.00  0.00    -0.309 N 
ATOM      5  C3  UNL     1      16.213  28.137  13.193  0.00  0.00    +0.131 C 
ATOM      6  C4  UNL     1      14.887  26.711  14.504  0.00  0.00    +0.052 A 
ATOM      7  C5  UNL     1      14.703  25.523  13.819  0.00  0.00    +0.025 A 
ATOM      8  C6  UNL     1      14.725  24.332  14.551  0.00  0.00    +0.002 A 
ATOM      9  C7  UNL     1      14.943  24.346  15.940  0.00  0.00    +0.002 A 
ATOM     10  C8  UNL     1      15.144  25.550  16.620  0.00  0.00    +0.025 A 
ATOM     11  C9  UNL     1      15.105  26.725  15.889  0.00  0.00    +0.052 A 
ENDROOT
BRANCH   3  12
ATOM     12  C10 UNL     1      15.080  30.317  15.146  0.00  0.00    -0.006 A 
ATOM     13  C11 UNL     1      14.591  31.105  14.069  0.00  0.00    +0.011 A 
ATOM     14  C12 UNL     1      14.765  32.494  14.024  0.00  0.00    +0.050 A 
ATOM     15  C13 UNL     1      15.392  33.092  15.091  0.00  0.00    +0.166 A 
ATOM     16  O1  UNL     1      15.635  34.423  15.231  0.00  0.00    -0.453 OA
ATOM     17  C14 UNL     1      16.256  34.448  16.533  0.00  0.00    +0.466 C 
ATOM     18  O2  UNL     1      16.372  33.144  17.139  0.00  0.00    -0.453 OA
ATOM     19  C15 UNL     1      15.815  32.364  16.174  0.00  0.00    +0.167 A 
ATOM     20  C16 UNL     1      15.653  30.995  16.241  0.00  0.00    +0.056 A 
ENDBRANCH   3  12
TORSDOF 1
ENDMDL
MODEL 5
REMARK VINA RESULT:    -4.337      3.995      6.181
REMARK INTER + INTRA:          -4.190
REMARK INTER:                  -4.419
REMARK INTRA:                   0.229
REMARK UNBOUND:                 0.400
REMARK  Name = /home/vital/Documents/PhD_2021/Malaria_codes/data/pdb_ligands_mmv/ligand_132.pdb
REMARK  3 active torsions:
REMARK  status: ('A' for Active; 'I' for Inactive)
REMARK    1  A    between atoms: C1_1  and  N1_2
REMARK    2  A    between atoms: C2_3  and  C10_12
REMARK    3  A    between atoms: N2_4  and  C3_5
REMARK                            x       y       z     vdW  Elec       q    Type
REMARK                         _______ _______ _______ _____ _____    ______ ____
ROOT
ATOM      1  C1  UNL     1      16.012  25.654  18.188  0.00  0.00    +0.131 C 
ATOM      2  N1  UNL     1      14.675  26.006  17.711  0.00  0.00    -0.309 N 
ATOM      3  C2  UNL     1      14.237  27.432  17.745  0.00  0.00    +0.192 C 
ATOM      4  N2  UNL     1      14.658  28.146  16.502  0.00  0.00    -0.309 N 
ATOM      5  C3  UNL     1      15.990  28.750  16.440  0.00  0.00    +0.131 C 
ATOM      6  C4  UNL     1      14.632  27.029  15.599  0.00  0.00    +0.052 A 
ATOM      7  C5  UNL     1      14.669  27.071  14.217  0.00  0.00    +0.025 A 
ATOM      8  C6  UNL     1      14.700  25.859  13.523  0.00  0.00    +0.002 A 
ATOM      9  C7  UNL     1      14.708  24.634  14.215  0.00  0.00    +0.002 A 
ATOM     10  C8  UNL     1      14.687  24.603  15.612  0.00  0.00    +0.025 A 
ATOM     11  C9  UNL     1      14.641  25.809  16.289  0.00  0.00    +0.052 A 
ENDROOT
BRANCH   3  12
ATOM     12  C10 UNL     1      14.372  28.186  19.070  0.00  0.00    -0.006 A 
ATOM     13  C11 UNL     1      14.725  29.563  19.093  0.00  0.00    +0.011 A 
ATOM     14  C12 UNL     1      14.782  30.296  20.284  0.00  0.00    +0.050 A 
ATOM     15  C13 UNL     1      14.435  29.651  21.447  0.00  0.00    +0.166 A 
ATOM     16  O1  UNL     1      14.416  30.201  22.690  0.00  0.00    -0.453 OA
ATOM     17  C14 UNL     1      13.941  29.085  23.472  0.00  0.00    +0.466 C 
ATOM     18  O2  UNL     1      13.690  27.900  22.688  0.00  0.00    -0.453 OA
ATOM     19  C15 UNL     1      14.027  28.341  21.446  0.00  0.00    +0.167 A 
ATOM     20  C16 UNL     1      13.962  27.599  20.284  0.00  0.00    +0.056 A 
ENDBRANCH   3  12
TORSDOF 1
ENDMDL
MODEL 6
REMARK VINA RESULT:    -4.246      3.762      6.994
REMARK INTER + INTRA:          -4.094
REMARK INTER:                  -4.316
REMARK INTRA:                   0.222
REMARK UNBOUND:                 0.400
REMARK  Name = /home/vital/Documents/PhD_2021/Malaria_codes/data/pdb_ligands_mmv/ligand_132.pdb
REMARK  3 active torsions:
REMARK  status: ('A' for Active; 'I' for Inactive)
REMARK    1  A    between atoms: C1_1  and  N1_2
REMARK    2  A    between atoms: C2_3  and  C10_12
REMARK    3  A    between atoms: N2_4  and  C3_5
REMARK                            x       y       z     vdW  Elec       q    Type
REMARK                         _______ _______ _______ _____ _____    ______ ____
ROOT
ATOM      1  C1  UNL     1      16.615  29.362  16.591  0.00  0.00    +0.131 C 
ATOM      2  N1  UNL     1      15.159  29.414  16.463  0.00  0.00    -0.309 N 
ATOM      3  C2  UNL     1      14.550  29.689  15.128  0.00  0.00    +0.192 C 
ATOM      4  N2  UNL     1      14.379  28.424  14.353  0.00  0.00    -0.309 N 
ATOM      5  C3  UNL     1      15.489  27.929  13.538  0.00  0.00    +0.131 C 
ATOM      6  C4  UNL     1      14.200  27.523  15.457  0.00  0.00    +0.052 A 
ATOM      7  C5  UNL     1      13.728  26.223  15.407  0.00  0.00    +0.025 A 
ATOM      8  C6  UNL     1      13.692  25.491  16.597  0.00  0.00    +0.002 A 
ATOM      9  C7  UNL     1      14.138  26.058  17.805  0.00  0.00    +0.002 A 
ATOM     10  C8  UNL     1      14.627  27.367  17.841  0.00  0.00    +0.025 A 
ATOM     11  C9  UNL     1      14.644  28.089  16.661  0.00  0.00    +0.052 A 
ENDROOT
BRANCH   3  12
ATOM     12  C10 UNL     1      15.037  30.923  14.365  0.00  0.00    -0.006 A 
ATOM     13  C11 UNL     1      14.461  31.281  13.116  0.00  0.00    +0.011 A 
ATOM     14  C12 UNL     1      14.833  32.445  12.432  0.00  0.00    +0.050 A 
ATOM     15  C13 UNL     1      15.753  33.271  13.033  0.00  0.00    +0.166 A 
ATOM     16  O1  UNL     1      16.221  34.445  12.530  0.00  0.00    -0.453 OA
ATOM     17  C14 UNL     1      17.096  34.865  13.598  0.00  0.00    +0.466 C 
ATOM     18  O2  UNL     1      17.134  33.943  14.706  0.00  0.00    -0.453 OA
ATOM     19  C15 UNL     1      16.275  32.983  14.269  0.00  0.00    +0.167 A 
ATOM     20  C16 UNL     1      15.922  31.843  14.962  0.00  0.00    +0.056 A 
ENDBRANCH   3  12
TORSDOF 1
ENDMDL
MODEL 7
REMARK VINA RESULT:    -4.187      1.888      2.844
REMARK INTER + INTRA:          -4.032
REMARK INTER:                  -4.228
REMARK INTRA:                   0.196
REMARK UNBOUND:                 0.400
REMARK  Name = /home/vital/Documents/PhD_2021/Malaria_codes/data/pdb_ligands_mmv/ligand_132.pdb
REMARK  3 active torsions:
REMARK  status: ('A' for Active; 'I' for Inactive)
REMARK    1  A    between atoms: C1_1  and  N1_2
REMARK    2  A    between atoms: C2_3  and  C10_12
REMARK    3  A    between atoms: N2_4  and  C3_5
REMARK                            x       y       z     vdW  Elec       q    Type
REMARK                         _______ _______ _______ _____ _____    ______ ____
ROOT
ATOM      1  C1  UNL     1      17.500  29.969  13.443  0.00  0.00    +0.131 C 
ATOM      2  N1  UNL     1      16.171  30.565  13.309  0.00  0.00    -0.309 N 
ATOM      3  C2  UNL     1      15.149  30.325  14.370  0.00  0.00    +0.192 C 
ATOM      4  N2  UNL     1      15.278  31.332  15.467  0.00  0.00    -0.309 N 
ATOM      5  C3  UNL     1      16.210  31.077  16.566  0.00  0.00    +0.131 C 
ATOM      6  C4  UNL     1      15.792  32.425  14.690  0.00  0.00    +0.052 A 
ATOM      7  C5  UNL     1      15.878  33.752  15.070  0.00  0.00    +0.025 A 
ATOM      8  C6  UNL     1      16.475  34.653  14.183  0.00  0.00    +0.002 A 
ATOM      9  C7  UNL     1      16.985  34.214  12.947  0.00  0.00    +0.002 A 
ATOM     10  C8  UNL     1      16.907  32.868  12.580  0.00  0.00    +0.025 A 
ATOM     11  C9  UNL     1      16.300  31.987  13.459  0.00  0.00    +0.052 A 
ENDROOT
BRANCH   3  12
ATOM     12  C10 UNL     1      14.870  28.876  14.774  0.00  0.00    -0.006 A 
ATOM     13  C11 UNL     1      14.067  28.576  15.907  0.00  0.00    +0.011 A 
ATOM     14  C12 UNL     1      13.732  27.262  16.256  0.00  0.00    +0.050 A 
ATOM     15  C13 UNL     1      14.171  26.253  15.432  0.00  0.00    +0.166 A 
ATOM     16  O1  UNL     1      13.932  24.925  15.600  0.00  0.00    -0.453 OA
ATOM     17  C14 UNL     1      14.584  24.384  14.431  0.00  0.00    +0.466 C 
ATOM     18  O2  UNL     1      15.194  25.391  13.597  0.00  0.00    -0.453 OA
ATOM     19  C15 UNL     1      14.892  26.518  14.295  0.00  0.00    +0.167 A 
ATOM     20  C16 UNL     1      15.232  27.805  13.931  0.00  0.00    +0.056 A 
ENDBRANCH   3  12
TORSDOF 1
ENDMDL
MODEL 8
REMARK VINA RESULT:    -3.797      3.542      6.713
REMARK INTER + INTRA:          -3.619
REMARK INTER:                  -3.946
REMARK INTRA:                   0.328
REMARK UNBOUND:                 0.400
REMARK  Name = /home/vital/Documents/PhD_2021/Malaria_codes/data/pdb_ligands_mmv/ligand_132.pdb
REMARK  3 active torsions:
REMARK  status: ('A' for Active; 'I' for Inactive)
REMARK    1  A    between atoms: C1_1  and  N1_2
REMARK    2  A    between atoms: C2_3  and  C10_12
REMARK    3  A    between atoms: N2_4  and  C3_5
REMARK                            x       y       z     vdW  Elec       q    Type
REMARK                         _______ _______ _______ _____ _____    ______ ____
ROOT
ATOM      1  C1  UNL     1      13.833  27.428  15.167  0.00  0.00    +0.131 C 
ATOM      2  N1  UNL     1      14.997  26.937  14.429  0.00  0.00    -0.309 N 
ATOM      3  C2  UNL     1      16.217  27.791  14.331  0.00  0.00    +0.192 C 
ATOM      4  N2  UNL     1      17.112  27.573  15.507  0.00  0.00    -0.309 N 
ATOM      5  C3  UNL     1      16.892  28.350  16.727  0.00  0.00    +0.131 C 
ATOM      6  C4  UNL     1      16.771  26.205  15.781  0.00  0.00    +0.052 A 
ATOM      7  C5  UNL     1      17.453  25.321  16.598  0.00  0.00    +0.025 A 
ATOM      8  C6  UNL     1      16.913  24.046  16.782  0.00  0.00    +0.002 A 
ATOM      9  C7  UNL     1      15.703  23.681  16.164  0.00  0.00    +0.002 A 
ATOM     10  C8  UNL     1      15.014  24.587  15.353  0.00  0.00    +0.025 A 
ATOM     11  C9  UNL     1      15.565  25.843  15.165  0.00  0.00    +0.052 A 
ENDROOT
BRANCH   3  12
ATOM     12  C10 UNL     1      16.040  29.228  13.837  0.00  0.00    -0.006 A 
ATOM     13  C11 UNL     1      14.845  29.949  14.104  0.00  0.00    +0.011 A 
ATOM     14  C12 UNL     1      14.685  31.289  13.730  0.00  0.00    +0.050 A 
ATOM     15  C13 UNL     1      15.751  31.915  13.128  0.00  0.00    +0.166 A 
ATOM     16  O1  UNL     1      15.786  33.209  12.713  0.00  0.00    -0.453 OA
ATOM     17  C14 UNL     1      17.140  33.297  12.220  0.00  0.00    +0.466 C 
ATOM     18  O2  UNL     1      17.878  32.064  12.349  0.00  0.00    -0.453 OA
ATOM     19  C15 UNL     1      16.939  31.262  12.918  0.00  0.00    +0.167 A 
ATOM     20  C16 UNL     1      17.120  29.943  13.279  0.00  0.00    +0.056 A 
ENDBRANCH   3  12
TORSDOF 1
ENDMDL
