MODEL 1
REMARK VINA RESULT:    -3.404      0.000      0.000
REMARK INTER + INTRA:          -6.371
REMARK INTER:                  -4.499
REMARK INTRA:                  -1.873
REMARK UNBOUND:                -1.873
REMARK  Name = /home/vital/Documents/PhD_2021/Malaria_codes/data/pdb_ligands_mmv/ligand_243.pdb
REMARK  7 active torsions:
REMARK  status: ('A' for Active; 'I' for Inactive)
REMARK    1  A    between atoms: C1_1  and  O1_2
REMARK    2  A    between atoms: O1_2  and  C2_3
REMARK    3  A    between atoms: C5_6  and  C8_9
REMARK    4  A    between atoms: N1_11  and  C9_12
REMARK    5  A    between atoms: C9_12  and  C10_13
REMARK    6  A    between atoms: C9_12  and  C16_21
REMARK    7  A    between atoms: C24_31  and  O3_32
REMARK                            x       y       z     vdW  Elec       q    Type
REMARK                         _______ _______ _______ _____ _____    ______ ____
ROOT
ATOM      1  C9  UNL     1      15.385  33.457  15.881  0.00  0.00    +0.139 C 
ENDROOT
BRANCH   1   2
ATOM      2  C16 UNL     1      16.673  34.038  15.309  0.00  0.00    +0.022 A 
ATOM      3  C17 UNL     1      16.644  35.280  14.661  0.00  0.00    +0.030 A 
ATOM      4  C18 UNL     1      17.811  35.841  14.133  0.00  0.00    +0.051 A 
ATOM      5 CL3  UNL     1      17.667  37.386  13.364  0.00  0.00    -0.083 Cl
ATOM      6  C19 UNL     1      19.054  35.169  14.229  0.00  0.00    +0.022 A 
ATOM      7  C20 UNL     1      20.282  35.657  13.727  0.00  0.00    +0.013 A 
ATOM      8  C21 UNL     1      21.449  34.915  13.869  0.00  0.00    +0.020 A 
ATOM      9  C22 UNL     1      21.367  33.696  14.511  0.00  0.00    +0.111 A 
ATOM     10  N2  UNL     1      20.220  33.188  15.008  0.00  0.00    -0.251 NA
ATOM     11  C23 UNL     1      19.090  33.914  14.867  0.00  0.00    +0.114 A 
ATOM     12  C24 UNL     1      17.907  33.383  15.383  0.00  0.00    +0.148 A 
BRANCH  12  13
ATOM     13  O3  UNL     1      17.983  32.143  15.979  0.00  0.00    -0.504 OA
ATOM     14  H17 UNL     1      18.934  31.904  15.910  0.00  0.00    +0.292 HD
ENDBRANCH  12  13
ENDBRANCH   1   2
BRANCH   1  15
ATOM     15  C10 UNL     1      15.149  33.847  17.344  0.00  0.00    -0.004 A 
ATOM     16  C11 UNL     1      15.581  32.907  18.313  0.00  0.00    +0.008 A 
ATOM     17  C12 UNL     1      15.412  33.128  19.682  0.00  0.00    +0.020 A 
ATOM     18  C13 UNL     1      14.806  34.299  20.115  0.00  0.00    +0.042 A 
ATOM     19 CL1  UNL     1      14.594  34.579  21.799  0.00  0.00    -0.083 Cl
ATOM     20  C14 UNL     1      14.372  35.244  19.194  0.00  0.00    +0.040 A 
ATOM     21  C15 UNL     1      14.539  35.026  17.817  0.00  0.00    +0.048 A 
ATOM     22 CL2  UNL     1      13.956  36.297  16.797  0.00  0.00    -0.083 Cl
ENDBRANCH   1  15
BRANCH   1  25
ATOM     23  C8  UNL     1      14.622  31.555  14.502  0.00  0.00    +0.245 C 
ATOM     24  O2  UNL     1      13.872  32.239  13.814  0.00  0.00    -0.270 OA
ATOM     25  N1  UNL     1      15.308  32.045  15.587  0.00  0.00    -0.300 N 
ATOM     26  H8  UNL     1      15.971  31.465  16.084  0.00  0.00    +0.150 HD
BRANCH  23  30
ATOM     27  C2  UNL     1      15.261  27.413  13.537  0.00  0.00    +0.120 A 
ATOM     28  C3  UNL     1      15.997  28.418  12.910  0.00  0.00    +0.046 A 
ATOM     29  C4  UNL     1      15.776  29.759  13.239  0.00  0.00    +0.016 A 
ATOM     30  C5  UNL     1      14.810  30.111  14.191  0.00  0.00    +0.037 A 
ATOM     31  C6  UNL     1      14.083  29.103  14.831  0.00  0.00    +0.016 A 
ATOM     32  C7  UNL     1      14.308  27.764  14.499  0.00  0.00    +0.046 A 
BRANCH  27  34
ATOM     33  C1  UNL     1      14.954  25.205  14.360  0.00  0.00    +0.277 C 
ATOM     34  O1  UNL     1      15.375  26.069  13.312  0.00  0.00    -0.495 OA
ENDBRANCH  27  34
ENDBRANCH  23  30
ENDBRANCH   1  25
TORSDOF 6
ENDMDL
MODEL 2
REMARK VINA RESULT:    -3.259     13.709     16.518
REMARK INTER + INTRA:          -6.180
REMARK INTER:                  -4.666
REMARK INTRA:                  -1.514
REMARK UNBOUND:                -1.873
REMARK  Name = /home/vital/Documents/PhD_2021/Malaria_codes/data/pdb_ligands_mmv/ligand_243.pdb
REMARK  7 active torsions:
REMARK  status: ('A' for Active; 'I' for Inactive)
REMARK    1  A    between atoms: C1_1  and  O1_2
REMARK    2  A    between atoms: O1_2  and  C2_3
REMARK    3  A    between atoms: C5_6  and  C8_9
REMARK    4  A    between atoms: N1_11  and  C9_12
REMARK    5  A    between atoms: C9_12  and  C10_13
REMARK    6  A    between atoms: C9_12  and  C16_21
REMARK    7  A    between atoms: C24_31  and  O3_32
REMARK                            x       y       z     vdW  Elec       q    Type
REMARK                         _______ _______ _______ _____ _____    ______ ____
ROOT
ATOM      1  C9  UNL     1      18.549  46.014  23.068  0.00  0.00    +0.139 C 
ENDROOT
BRANCH   1   2
ATOM      2  C16 UNL     1      19.571  45.854  24.188  0.00  0.00    +0.022 A 
ATOM      3  C17 UNL     1      20.827  45.303  23.904  0.00  0.00    +0.030 A 
ATOM      4  C18 UNL     1      21.786  45.149  24.910  0.00  0.00    +0.051 A 
ATOM      5 CL3  UNL     1      23.311  44.469  24.450  0.00  0.00    -0.083 Cl
ATOM      6  C19 UNL     1      21.516  45.538  26.244  0.00  0.00    +0.022 A 
ATOM      7  C20 UNL     1      22.422  45.423  27.323  0.00  0.00    +0.013 A 
ATOM      8  C21 UNL     1      22.056  45.832  28.601  0.00  0.00    +0.020 A 
ATOM      9  C22 UNL     1      20.789  46.349  28.777  0.00  0.00    +0.111 A 
ATOM     10  N2  UNL     1      19.889  46.481  27.779  0.00  0.00    -0.251 NA
ATOM     11  C23 UNL     1      20.251  46.082  26.541  0.00  0.00    +0.114 A 
ATOM     12  C24 UNL     1      19.317  46.221  25.514  0.00  0.00    +0.148 A 
BRANCH  12  13
ATOM     13  O3  UNL     1      18.084  46.735  25.852  0.00  0.00    -0.504 OA
ATOM     14  H17 UNL     1      17.447  46.064  25.518  0.00  0.00    +0.292 HD
ENDBRANCH  12  13
ENDBRANCH   1   2
BRANCH   1  15
ATOM     15  C10 UNL     1      17.415  44.986  23.140  0.00  0.00    -0.004 A 
ATOM     16  C11 UNL     1      17.801  43.628  23.011  0.00  0.00    +0.008 A 
ATOM     17  C12 UNL     1      16.867  42.589  23.043  0.00  0.00    +0.020 A 
ATOM     18  C13 UNL     1      15.521  42.885  23.204  0.00  0.00    +0.042 A 
ATOM     19 CL1  UNL     1      14.365  41.613  23.243  0.00  0.00    -0.083 Cl
ATOM     20  C14 UNL     1      15.106  44.205  23.336  0.00  0.00    +0.040 A 
ATOM     21  C15 UNL     1      16.041  45.252  23.305  0.00  0.00    +0.048 A 
ATOM     22 CL2  UNL     1      15.372  46.837  23.490  0.00  0.00    -0.083 Cl
ENDBRANCH   1  15
BRANCH   1  25
ATOM     23  C8  UNL     1      18.804  46.973  20.807  0.00  0.00    +0.245 C 
ATOM     24  O2  UNL     1      17.734  47.571  20.841  0.00  0.00    -0.270 OA
ATOM     25  N1  UNL     1      19.224  46.117  21.795  0.00  0.00    -0.300 N 
ATOM     26  H8  UNL     1      20.144  45.700  21.761  0.00  0.00    +0.150 HD
BRANCH  23  30
ATOM     27  C2  UNL     1      21.526  47.421  17.506  0.00  0.00    +0.120 A 
ATOM     28  C3  UNL     1      21.991  47.103  18.782  0.00  0.00    +0.046 A 
ATOM     29  C4  UNL     1      21.090  46.960  19.842  0.00  0.00    +0.016 A 
ATOM     30  C5  UNL     1      19.715  47.143  19.641  0.00  0.00    +0.037 A 
ATOM     31  C6  UNL     1      19.247  47.446  18.358  0.00  0.00    +0.016 A 
ATOM     32  C7  UNL     1      20.152  47.588  17.302  0.00  0.00    +0.046 A 
BRANCH  27  34
ATOM     33  C1  UNL     1      22.259  46.544  15.423  0.00  0.00    +0.277 C 
ATOM     34  O1  UNL     1      22.293  47.589  16.387  0.00  0.00    -0.495 OA
ENDBRANCH  27  34
ENDBRANCH  23  30
ENDBRANCH   1  25
TORSDOF 6
ENDMDL
MODEL 3
REMARK VINA RESULT:    -3.213      7.319     10.370
REMARK INTER + INTRA:          -6.119
REMARK INTER:                  -4.222
REMARK INTRA:                  -1.897
REMARK UNBOUND:                -1.873
REMARK  Name = /home/vital/Documents/PhD_2021/Malaria_codes/data/pdb_ligands_mmv/ligand_243.pdb
REMARK  7 active torsions:
REMARK  status: ('A' for Active; 'I' for Inactive)
REMARK    1  A    between atoms: C1_1  and  O1_2
REMARK    2  A    between atoms: O1_2  and  C2_3
REMARK    3  A    between atoms: C5_6  and  C8_9
REMARK    4  A    between atoms: N1_11  and  C9_12
REMARK    5  A    between atoms: C9_12  and  C10_13
REMARK    6  A    between atoms: C9_12  and  C16_21
REMARK    7  A    between atoms: C24_31  and  O3_32
REMARK                            x       y       z     vdW  Elec       q    Type
REMARK                         _______ _______ _______ _____ _____    ______ ____
ROOT
ATOM      1  C9  UNL     1      20.131  26.391  17.433  0.00  0.00    +0.139 C 
ENDROOT
BRANCH   1   2
ATOM      2  C16 UNL     1      18.940  26.397  16.481  0.00  0.00    +0.022 A 
ATOM      3  C17 UNL     1      18.868  27.363  15.469  0.00  0.00    +0.030 A 
ATOM      4  C18 UNL     1      17.790  27.388  14.578  0.00  0.00    +0.051 A 
ATOM      5 CL3  UNL     1      17.804  28.615  13.356  0.00  0.00    -0.083 Cl
ATOM      6  C19 UNL     1      16.737  26.446  14.676  0.00  0.00    +0.022 A 
ATOM      7  C20 UNL     1      15.613  26.393  13.822  0.00  0.00    +0.013 A 
ATOM      8  C21 UNL     1      14.629  25.428  14.006  0.00  0.00    +0.020 A 
ATOM      9  C22 UNL     1      14.789  24.531  15.042  0.00  0.00    +0.111 A 
ATOM     10  N2  UNL     1      15.844  24.539  15.883  0.00  0.00    -0.251 NA
ATOM     11  C23 UNL     1      16.796  25.479  15.698  0.00  0.00    +0.114 A 
ATOM     12  C24 UNL     1      17.885  25.482  16.571  0.00  0.00    +0.148 A 
BRANCH  12  13
ATOM     13  O3  UNL     1      17.891  24.534  17.571  0.00  0.00    -0.504 OA
ATOM     14  H17 UNL     1      17.899  25.063  18.400  0.00  0.00    +0.292 HD
ENDBRANCH  12  13
ENDBRANCH   1   2
BRANCH   1  15
ATOM     15  C10 UNL     1      21.288  25.516  16.940  0.00  0.00    -0.004 A 
ATOM     16  C11 UNL     1      21.302  24.181  17.416  0.00  0.00    +0.008 A 
ATOM     17  C12 UNL     1      22.307  23.280  17.059  0.00  0.00    +0.020 A 
ATOM     18  C13 UNL     1      23.327  23.694  16.214  0.00  0.00    +0.042 A 
ATOM     19 CL1  UNL     1      24.570  22.592  15.769  0.00  0.00    -0.083 Cl
ATOM     20  C14 UNL     1      23.345  24.994  15.725  0.00  0.00    +0.040 A 
ATOM     21  C15 UNL     1      22.336  25.903  16.082  0.00  0.00    +0.048 A 
ATOM     22 CL2  UNL     1      22.492  27.481  15.387  0.00  0.00    -0.083 Cl
ENDBRANCH   1  15
BRANCH   1  25
ATOM     23  C8  UNL     1      19.368  27.152  19.655  0.00  0.00    +0.245 C 
ATOM     24  O2  UNL     1      19.617  28.332  19.436  0.00  0.00    -0.270 OA
ATOM     25  N1  UNL     1      19.683  26.139  18.782  0.00  0.00    -0.300 N 
ATOM     26  H8  UNL     1      19.396  25.187  18.970  0.00  0.00    +0.150 HD
BRANCH  23  30
ATOM     27  C2  UNL     1      17.432  26.114  23.353  0.00  0.00    +0.120 A 
ATOM     28  C3  UNL     1      17.587  27.447  22.974  0.00  0.00    +0.046 A 
ATOM     29  C4  UNL     1      18.219  27.764  21.766  0.00  0.00    +0.016 A 
ATOM     30  C5  UNL     1      18.709  26.753  20.929  0.00  0.00    +0.037 A 
ATOM     31  C6  UNL     1      18.540  25.416  21.302  0.00  0.00    +0.016 A 
ATOM     32  C7  UNL     1      17.908  25.105  22.510  0.00  0.00    +0.046 A 
BRANCH  27  34
ATOM     33  C1  UNL     1      16.532  26.643  25.487  0.00  0.00    +0.277 C 
ATOM     34  O1  UNL     1      16.838  25.666  24.500  0.00  0.00    -0.495 OA
ENDBRANCH  27  34
ENDBRANCH  23  30
ENDBRANCH   1  25
TORSDOF 6
ENDMDL
MODEL 4
REMARK VINA RESULT:    -3.076     11.533     15.513
REMARK INTER + INTRA:          -5.938
REMARK INTER:                  -4.273
REMARK INTRA:                  -1.665
REMARK UNBOUND:                -1.873
REMARK  Name = /home/vital/Documents/PhD_2021/Malaria_codes/data/pdb_ligands_mmv/ligand_243.pdb
REMARK  7 active torsions:
REMARK  status: ('A' for Active; 'I' for Inactive)
REMARK    1  A    between atoms: C1_1  and  O1_2
REMARK    2  A    between atoms: O1_2  and  C2_3
REMARK    3  A    between atoms: C5_6  and  C8_9
REMARK    4  A    between atoms: N1_11  and  C9_12
REMARK    5  A    between atoms: C9_12  and  C10_13
REMARK    6  A    between atoms: C9_12  and  C16_21
REMARK    7  A    between atoms: C24_31  and  O3_32
REMARK                            x       y       z     vdW  Elec       q    Type
REMARK                         _______ _______ _______ _____ _____    ______ ____
ROOT
ATOM      1  C9  UNL     1      20.591  45.530  18.352  0.00  0.00    +0.139 C 
ENDROOT
BRANCH   1   2
ATOM      2  C16 UNL     1      20.341  44.031  18.235  0.00  0.00    +0.022 A 
ATOM      3  C17 UNL     1      19.365  43.560  17.346  0.00  0.00    +0.030 A 
ATOM      4  C18 UNL     1      19.118  42.190  17.214  0.00  0.00    +0.051 A 
ATOM      5 CL3  UNL     1      17.900  41.713  16.078  0.00  0.00    -0.083 Cl
ATOM      6  C19 UNL     1      19.839  41.239  17.976  0.00  0.00    +0.022 A 
ATOM      7  C20 UNL     1      19.660  39.839  17.908  0.00  0.00    +0.013 A 
ATOM      8  C21 UNL     1      20.417  38.989  18.705  0.00  0.00    +0.020 A 
ATOM      9  C22 UNL     1      21.343  39.555  19.558  0.00  0.00    +0.111 A 
ATOM     10  N2  UNL     1      21.552  40.885  19.659  0.00  0.00    -0.251 NA
ATOM     11  C23 UNL     1      20.813  41.705  18.881  0.00  0.00    +0.114 A 
ATOM     12  C24 UNL     1      21.033  43.078  18.990  0.00  0.00    +0.148 A 
BRANCH  12  13
ATOM     13  O3  UNL     1      21.978  43.492  19.903  0.00  0.00    -0.504 OA
ATOM     14  H17 UNL     1      21.937  44.474  19.860  0.00  0.00    +0.292 HD
ENDBRANCH  12  13
ENDBRANCH   1   2
BRANCH   1  15
ATOM     15  C10 UNL     1      21.682  46.032  17.401  0.00  0.00    -0.004 A 
ATOM     16  C11 UNL     1      21.303  46.173  16.043  0.00  0.00    +0.008 A 
ATOM     17  C12 UNL     1      22.204  46.606  15.066  0.00  0.00    +0.020 A 
ATOM     18  C13 UNL     1      23.509  46.908  15.427  0.00  0.00    +0.042 A 
ATOM     19 CL1  UNL     1      24.625  47.441  14.231  0.00  0.00    -0.083 Cl
ATOM     20  C14 UNL     1      23.915  46.784  16.749  0.00  0.00    +0.040 A 
ATOM     21  C15 UNL     1      23.014  46.350  17.734  0.00  0.00    +0.048 A 
ATOM     22 CL2  UNL     1      23.666  46.253  19.334  0.00  0.00    -0.083 Cl
ENDBRANCH   1  15
BRANCH   1  25
ATOM     23  C8  UNL     1      19.757  46.519  20.456  0.00  0.00    +0.245 C 
ATOM     24  O2  UNL     1      18.745  46.983  19.942  0.00  0.00    -0.270 OA
ATOM     25  N1  UNL     1      20.750  45.896  19.740  0.00  0.00    -0.300 N 
ATOM     26  H8  UNL     1      21.534  45.466  20.212  0.00  0.00    +0.150 HD
BRANCH  23  30
ATOM     27  C2  UNL     1      20.296  46.760  24.716  0.00  0.00    +0.120 A 
ATOM     28  C3  UNL     1      19.389  45.859  24.157  0.00  0.00    +0.046 A 
ATOM     29  C4  UNL     1      19.229  45.795  22.769  0.00  0.00    +0.016 A 
ATOM     30  C5  UNL     1      19.967  46.636  21.926  0.00  0.00    +0.037 A 
ATOM     31  C6  UNL     1      20.888  47.528  22.485  0.00  0.00    +0.016 A 
ATOM     32  C7  UNL     1      21.043  47.588  23.873  0.00  0.00    +0.046 A 
BRANCH  27  34
ATOM     33  C1  UNL     1      21.912  46.870  26.455  0.00  0.00    +0.277 C 
ATOM     34  O1  UNL     1      20.550  46.925  26.050  0.00  0.00    -0.495 OA
ENDBRANCH  27  34
ENDBRANCH  23  30
ENDBRANCH   1  25
TORSDOF 6
ENDMDL
MODEL 5
REMARK VINA RESULT:    -2.998      4.981      7.812
REMARK INTER + INTRA:          -5.835
REMARK INTER:                  -4.119
REMARK INTRA:                  -1.716
REMARK UNBOUND:                -1.873
REMARK  Name = /home/vital/Documents/PhD_2021/Malaria_codes/data/pdb_ligands_mmv/ligand_243.pdb
REMARK  7 active torsions:
REMARK  status: ('A' for Active; 'I' for Inactive)
REMARK    1  A    between atoms: C1_1  and  O1_2
REMARK    2  A    between atoms: O1_2  and  C2_3
REMARK    3  A    between atoms: C5_6  and  C8_9
REMARK    4  A    between atoms: N1_11  and  C9_12
REMARK    5  A    between atoms: C9_12  and  C10_13
REMARK    6  A    between atoms: C9_12  and  C16_21
REMARK    7  A    between atoms: C24_31  and  O3_32
REMARK                            x       y       z     vdW  Elec       q    Type
REMARK                         _______ _______ _______ _____ _____    ______ ____
ROOT
ATOM      1  C9  UNL     1      17.874  27.818  14.173  0.00  0.00    +0.139 C 
ENDROOT
BRANCH   1   2
ATOM      2  C16 UNL     1      17.226  29.166  14.467  0.00  0.00    +0.022 A 
ATOM      3  C17 UNL     1      16.401  29.762  13.503  0.00  0.00    +0.030 A 
ATOM      4  C18 UNL     1      15.788  30.995  13.748  0.00  0.00    +0.051 A 
ATOM      5 CL3  UNL     1      14.778  31.637  12.495  0.00  0.00    -0.083 Cl
ATOM      6  C19 UNL     1      15.987  31.682  14.970  0.00  0.00    +0.022 A 
ATOM      7  C20 UNL     1      15.410  32.927  15.306  0.00  0.00    +0.013 A 
ATOM      8  C21 UNL     1      15.673  33.521  16.534  0.00  0.00    +0.020 A 
ATOM      9  C22 UNL     1      16.510  32.858  17.408  0.00  0.00    +0.111 A 
ATOM     10  N2  UNL     1      17.085  31.667  17.135  0.00  0.00    -0.251 NA
ATOM     11  C23 UNL     1      16.824  31.096  15.939  0.00  0.00    +0.114 A 
ATOM     12  C24 UNL     1      17.421  29.865  15.663  0.00  0.00    +0.148 A 
BRANCH  12  13
ATOM     13  O3  UNL     1      18.251  29.339  16.628  0.00  0.00    -0.504 OA
ATOM     14  H17 UNL     1      18.071  28.373  16.597  0.00  0.00    +0.292 HD
ENDBRANCH  12  13
ENDBRANCH   1   2
BRANCH   1  15
ATOM     15  C10 UNL     1      17.165  26.648  14.863  0.00  0.00    -0.004 A 
ATOM     16  C11 UNL     1      17.801  26.133  16.019  0.00  0.00    +0.008 A 
ATOM     17  C12 UNL     1      17.272  25.057  16.735  0.00  0.00    +0.020 A 
ATOM     18  C13 UNL     1      16.089  24.470  16.310  0.00  0.00    +0.042 A 
ATOM     19 CL1  UNL     1      15.430  23.144  17.186  0.00  0.00    -0.083 Cl
ATOM     20  C14 UNL     1      15.435  24.950  15.182  0.00  0.00    +0.040 A 
ATOM     21  C15 UNL     1      15.964  26.031  14.460  0.00  0.00    +0.048 A 
ATOM     22 CL2  UNL     1      15.032  26.520  13.085  0.00  0.00    -0.083 Cl
ENDBRANCH   1  15
BRANCH   1  25
ATOM     23  C8  UNL     1      20.209  27.428  13.469  0.00  0.00    +0.245 C 
ATOM     24  O2  UNL     1      19.898  26.737  12.505  0.00  0.00    -0.270 OA
ATOM     25  N1  UNL     1      19.300  27.901  14.385  0.00  0.00    -0.300 N 
ATOM     26  H8  UNL     1      19.591  28.526  15.125  0.00  0.00    +0.150 HD
BRANCH  23  30
ATOM     27  C2  UNL     1      24.300  28.510  14.241  0.00  0.00    +0.120 A 
ATOM     28  C3  UNL     1      23.249  29.196  14.850  0.00  0.00    +0.046 A 
ATOM     29  C4  UNL     1      21.925  28.828  14.587  0.00  0.00    +0.016 A 
ATOM     30  C5  UNL     1      21.638  27.776  13.706  0.00  0.00    +0.037 A 
ATOM     31  C6  UNL     1      22.691  27.078  13.108  0.00  0.00    +0.016 A 
ATOM     32  C7  UNL     1      24.012  27.451  13.374  0.00  0.00    +0.046 A 
BRANCH  27  34
ATOM     33  C1  UNL     1      26.233  28.279  15.603  0.00  0.00    +0.277 C 
ATOM     34  O1  UNL     1      25.633  28.764  14.409  0.00  0.00    -0.495 OA
ENDBRANCH  27  34
ENDBRANCH  23  30
ENDBRANCH   1  25
TORSDOF 6
ENDMDL
MODEL 6
REMARK VINA RESULT:    -2.917     17.612     20.436
REMARK INTER + INTRA:          -5.728
REMARK INTER:                  -3.965
REMARK INTRA:                  -1.762
REMARK UNBOUND:                -1.873
REMARK  Name = /home/vital/Documents/PhD_2021/Malaria_codes/data/pdb_ligands_mmv/ligand_243.pdb
REMARK  7 active torsions:
REMARK  status: ('A' for Active; 'I' for Inactive)
REMARK    1  A    between atoms: C1_1  and  O1_2
REMARK    2  A    between atoms: O1_2  and  C2_3
REMARK    3  A    between atoms: C5_6  and  C8_9
REMARK    4  A    between atoms: N1_11  and  C9_12
REMARK    5  A    between atoms: C9_12  and  C10_13
REMARK    6  A    between atoms: C9_12  and  C16_21
REMARK    7  A    between atoms: C24_31  and  O3_32
REMARK                            x       y       z     vdW  Elec       q    Type
REMARK                         _______ _______ _______ _____ _____    ______ ____
ROOT
ATOM      1  C9  UNL     1      34.645  41.774  16.059  0.00  0.00    +0.139 C 
ENDROOT
BRANCH   1   2
ATOM      2  C16 UNL     1      34.022  41.406  17.402  0.00  0.00    +0.022 A 
ATOM      3  C17 UNL     1      34.208  42.250  18.505  0.00  0.00    +0.030 A 
ATOM      4  C18 UNL     1      33.644  41.941  19.747  0.00  0.00    +0.051 A 
ATOM      5 CL3  UNL     1      33.924  43.057  21.041  0.00  0.00    -0.083 Cl
ATOM      6  C19 UNL     1      32.875  40.766  19.929  0.00  0.00    +0.022 A 
ATOM      7  C20 UNL     1      32.267  40.374  21.143  0.00  0.00    +0.013 A 
ATOM      8  C21 UNL     1      31.534  39.195  21.219  0.00  0.00    +0.020 A 
ATOM      9  C22 UNL     1      31.423  38.428  20.077  0.00  0.00    +0.111 A 
ATOM     10  N2  UNL     1      31.984  38.759  18.895  0.00  0.00    -0.251 NA
ATOM     11  C23 UNL     1      32.694  39.906  18.829  0.00  0.00    +0.114 A 
ATOM     12  C24 UNL     1      33.271  40.244  17.604  0.00  0.00    +0.148 A 
BRANCH  12  13
ATOM     13  O3  UNL     1      33.089  39.363  16.560  0.00  0.00    -0.504 OA
ATOM     14  H17 UNL     1      32.851  38.517  17.001  0.00  0.00    +0.292 HD
ENDBRANCH  12  13
ENDBRANCH   1   2
BRANCH   1  15
ATOM     15  C10 UNL     1      33.711  42.606  15.173  0.00  0.00    -0.004 A 
ATOM     16  C11 UNL     1      33.734  44.006  15.393  0.00  0.00    +0.008 A 
ATOM     17  C12 UNL     1      32.922  44.881  14.666  0.00  0.00    +0.020 A 
ATOM     18  C13 UNL     1      32.065  44.373  13.701  0.00  0.00    +0.042 A 
ATOM     19 CL1  UNL     1      31.061  45.442  12.802  0.00  0.00    -0.083 Cl
ATOM     20  C14 UNL     1      32.017  43.006  13.457  0.00  0.00    +0.040 A 
ATOM     21  C15 UNL     1      32.832  42.124  14.184  0.00  0.00    +0.048 A 
ATOM     22 CL2  UNL     1      32.665  40.454  13.761  0.00  0.00    -0.083 Cl
ENDBRANCH   1  15
BRANCH   1  25
ATOM     23  C8  UNL     1      36.514  40.210  15.660  0.00  0.00    +0.245 C 
ATOM     24  O2  UNL     1      37.342  40.913  16.230  0.00  0.00    -0.270 OA
ATOM     25  N1  UNL     1      35.215  40.600  15.442  0.00  0.00    -0.300 N 
ATOM     26  H8  UNL     1      34.546  39.961  15.031  0.00  0.00    +0.150 HD
BRANCH  23  30
ATOM     27  C2  UNL     1      37.752  36.360  14.197  0.00  0.00    +0.120 A 
ATOM     28  C3  UNL     1      38.690  37.347  14.503  0.00  0.00    +0.046 A 
ATOM     29  C4  UNL     1      38.267  38.593  14.979  0.00  0.00    +0.016 A 
ATOM     30  C5  UNL     1      36.903  38.868  15.146  0.00  0.00    +0.037 A 
ATOM     31  C6  UNL     1      35.964  37.873  14.854  0.00  0.00    +0.016 A 
ATOM     32  C7  UNL     1      36.393  36.630  14.378  0.00  0.00    +0.046 A 
BRANCH  27  34
ATOM     33  C1  UNL     1      37.017  34.120  13.901  0.00  0.00    +0.277 C 
ATOM     34  O1  UNL     1      38.027  35.106  13.726  0.00  0.00    -0.495 OA
ENDBRANCH  27  34
ENDBRANCH  23  30
ENDBRANCH   1  25
TORSDOF 6
ENDMDL
MODEL 7
REMARK VINA RESULT:    -2.632     18.040     21.409
REMARK INTER + INTRA:          -5.351
REMARK INTER:                  -3.404
REMARK INTRA:                  -1.947
REMARK UNBOUND:                -1.873
REMARK  Name = /home/vital/Documents/PhD_2021/Malaria_codes/data/pdb_ligands_mmv/ligand_243.pdb
REMARK  7 active torsions:
REMARK  status: ('A' for Active; 'I' for Inactive)
REMARK    1  A    between atoms: C1_1  and  O1_2
REMARK    2  A    between atoms: O1_2  and  C2_3
REMARK    3  A    between atoms: C5_6  and  C8_9
REMARK    4  A    between atoms: N1_11  and  C9_12
REMARK    5  A    between atoms: C9_12  and  C10_13
REMARK    6  A    between atoms: C9_12  and  C16_21
REMARK    7  A    between atoms: C24_31  and  O3_32
REMARK                            x       y       z     vdW  Elec       q    Type
REMARK                         _______ _______ _______ _____ _____    ______ ____
ROOT
ATOM      1  C9  UNL     1      32.482  43.533  19.004  0.00  0.00    +0.139 C 
ENDROOT
BRANCH   1   2
ATOM      2  C16 UNL     1      33.551  44.027  19.972  0.00  0.00    +0.022 A 
ATOM      3  C17 UNL     1      34.459  43.113  20.524  0.00  0.00    +0.030 A 
ATOM      4  C18 UNL     1      35.453  43.539  21.411  0.00  0.00    +0.051 A 
ATOM      5 CL3  UNL     1      36.532  42.331  22.026  0.00  0.00    -0.083 Cl
ATOM      6  C19 UNL     1      35.568  44.900  21.784  0.00  0.00    +0.022 A 
ATOM      7  C20 UNL     1      36.539  45.421  22.669  0.00  0.00    +0.013 A 
ATOM      8  C21 UNL     1      36.563  46.777  22.974  0.00  0.00    +0.020 A 
ATOM      9  C22 UNL     1      35.615  47.590  22.387  0.00  0.00    +0.111 A 
ATOM     10  N2  UNL     1      34.669  47.141  21.536  0.00  0.00    -0.251 NA
ATOM     11  C23 UNL     1      34.651  45.823  21.243  0.00  0.00    +0.114 A 
ATOM     12  C24 UNL     1      33.671  45.365  20.362  0.00  0.00    +0.148 A 
BRANCH  12  13
ATOM     13  O3  UNL     1      32.780  46.296  19.875  0.00  0.00    -0.504 OA
ATOM     14  H17 UNL     1      32.841  47.041  20.514  0.00  0.00    +0.292 HD
ENDBRANCH  12  13
ENDBRANCH   1   2
BRANCH   1  15
ATOM     15  C10 UNL     1      32.934  43.578  17.540  0.00  0.00    -0.004 A 
ATOM     16  C11 UNL     1      32.631  44.769  16.834  0.00  0.00    +0.008 A 
ATOM     17  C12 UNL     1      32.971  44.937  15.490  0.00  0.00    +0.020 A 
ATOM     18  C13 UNL     1      33.623  43.914  14.817  0.00  0.00    +0.042 A 
ATOM     19 CL1  UNL     1      34.045  44.112  13.162  0.00  0.00    -0.083 Cl
ATOM     20  C14 UNL     1      33.939  42.733  15.477  0.00  0.00    +0.040 A 
ATOM     21  C15 UNL     1      33.599  42.560  16.828  0.00  0.00    +0.048 A 
ATOM     22 CL2  UNL     1      34.066  41.039  17.512  0.00  0.00    -0.083 Cl
ENDBRANCH   1  15
BRANCH   1  25
ATOM     23  C8  UNL     1      30.279  43.609  20.116  0.00  0.00    +0.245 C 
ATOM     24  O2  UNL     1      30.341  42.452  20.517  0.00  0.00    -0.270 OA
ATOM     25  N1  UNL     1      31.221  44.174  19.292  0.00  0.00    -0.300 N 
ATOM     26  H8  UNL     1      31.168  45.153  19.043  0.00  0.00    +0.150 HD
BRANCH  23  30
ATOM     27  C2  UNL     1      27.013  46.194  21.188  0.00  0.00    +0.120 A 
ATOM     28  C3  UNL     1      28.192  46.713  20.651  0.00  0.00    +0.046 A 
ATOM     29  C4  UNL     1      29.242  45.854  20.308  0.00  0.00    +0.016 A 
ATOM     30  C5  UNL     1      29.129  44.472  20.505  0.00  0.00    +0.037 A 
ATOM     31  C6  UNL     1      27.941  43.951  21.028  0.00  0.00    +0.016 A 
ATOM     32  C7  UNL     1      26.895  44.813  21.370  0.00  0.00    +0.046 A 
BRANCH  27  34
ATOM     33  C1  UNL     1      24.669  46.228  21.580  0.00  0.00    +0.277 C 
ATOM     34  O1  UNL     1      25.914  46.916  21.565  0.00  0.00    -0.495 OA
ENDBRANCH  27  34
ENDBRANCH  23  30
ENDBRANCH   1  25
TORSDOF 6
ENDMDL
MODEL 8
REMARK VINA RESULT:    -2.594      2.391      3.169
REMARK INTER + INTRA:          -5.301
REMARK INTER:                  -3.623
REMARK INTRA:                  -1.678
REMARK UNBOUND:                -1.873
REMARK  Name = /home/vital/Documents/PhD_2021/Malaria_codes/data/pdb_ligands_mmv/ligand_243.pdb
REMARK  7 active torsions:
REMARK  status: ('A' for Active; 'I' for Inactive)
REMARK    1  A    between atoms: C1_1  and  O1_2
REMARK    2  A    between atoms: O1_2  and  C2_3
REMARK    3  A    between atoms: C5_6  and  C8_9
REMARK    4  A    between atoms: N1_11  and  C9_12
REMARK    5  A    between atoms: C9_12  and  C10_13
REMARK    6  A    between atoms: C9_12  and  C16_21
REMARK    7  A    between atoms: C24_31  and  O3_32
REMARK                            x       y       z     vdW  Elec       q    Type
REMARK                         _______ _______ _______ _____ _____    ______ ____
ROOT
ATOM      1  C9  UNL     1      16.295  31.438  15.702  0.00  0.00    +0.139 C 
ENDROOT
BRANCH   1   2
ATOM      2  C16 UNL     1      17.804  31.592  15.544  0.00  0.00    +0.022 A 
ATOM      3  C17 UNL     1      18.311  32.496  14.602  0.00  0.00    +0.030 A 
ATOM      4  C18 UNL     1      19.691  32.663  14.439  0.00  0.00    +0.051 A 
ATOM      5 CL3  UNL     1      20.212  33.816  13.256  0.00  0.00    -0.083 Cl
ATOM      6  C19 UNL     1      20.614  31.921  15.214  0.00  0.00    +0.022 A 
ATOM      7  C20 UNL     1      22.020  32.024  15.121  0.00  0.00    +0.013 A 
ATOM      8  C21 UNL     1      22.842  31.244  15.927  0.00  0.00    +0.020 A 
ATOM      9  C22 UNL     1      22.241  30.374  16.814  0.00  0.00    +0.111 A 
ATOM     10  N2  UNL     1      20.904  30.240  16.941  0.00  0.00    -0.251 NA
ATOM     11  C23 UNL     1      20.112  31.001  16.155  0.00  0.00    +0.114 A 
ATOM     12  C24 UNL     1      18.731  30.858  16.292  0.00  0.00    +0.148 A 
BRANCH  12  13
ATOM     13  O3  UNL     1      18.283  29.930  17.207  0.00  0.00    -0.504 OA
ATOM     14  H17 UNL     1      17.376  29.710  16.897  0.00  0.00    +0.292 HD
ENDBRANCH  12  13
ENDBRANCH   1   2
BRANCH   1  15
ATOM     15  C10 UNL     1      15.701  32.390  16.746  0.00  0.00    -0.004 A 
ATOM     16  C11 UNL     1      15.414  33.703  16.294  0.00  0.00    +0.008 A 
ATOM     17  C12 UNL     1      14.885  34.677  17.144  0.00  0.00    +0.020 A 
ATOM     18  C13 UNL     1      14.630  34.360  18.470  0.00  0.00    +0.042 A 
ATOM     19 CL1  UNL     1      13.979  35.553  19.524  0.00  0.00    -0.083 Cl
ATOM     20  C14 UNL     1      14.896  33.082  18.948  0.00  0.00    +0.040 A 
ATOM     21  C15 UNL     1      15.428  32.101  18.097  0.00  0.00    +0.048 A 
ATOM     22 CL2  UNL     1      15.697  30.558  18.835  0.00  0.00    -0.083 Cl
ENDBRANCH   1  15
BRANCH   1  25
ATOM     23  C8  UNL     1      15.008  29.423  15.084  0.00  0.00    +0.245 C 
ATOM     24  O2  UNL     1      14.246  30.029  14.338  0.00  0.00    -0.270 OA
ATOM     25  N1  UNL     1      15.957  30.043  15.860  0.00  0.00    -0.300 N 
ATOM     26  H8  UNL     1      16.611  29.499  16.407  0.00  0.00    +0.150 HD
BRANCH  23  30
ATOM     27  C2  UNL     1      14.798  25.133  15.302  0.00  0.00    +0.120 A 
ATOM     28  C3  UNL     1      15.171  25.774  14.121  0.00  0.00    +0.046 A 
ATOM     29  C4  UNL     1      15.235  27.171  14.071  0.00  0.00    +0.016 A 
ATOM     30  C5  UNL     1      14.918  27.941  15.197  0.00  0.00    +0.037 A 
ATOM     31  C6  UNL     1      14.559  27.298  16.386  0.00  0.00    +0.016 A 
ATOM     32  C7  UNL     1      14.496  25.902  16.430  0.00  0.00    +0.046 A 
BRANCH  27  34
ATOM     33  C1  UNL     1      15.718  23.162  16.258  0.00  0.00    +0.277 C 
ATOM     34  O1  UNL     1      14.695  23.782  15.489  0.00  0.00    -0.495 OA
ENDBRANCH  27  34
ENDBRANCH  23  30
ENDBRANCH   1  25
TORSDOF 6
ENDMDL
MODEL 9
REMARK VINA RESULT:    -2.484      5.635      9.037
REMARK INTER + INTRA:          -5.156
REMARK INTER:                  -3.290
REMARK INTRA:                  -1.866
REMARK UNBOUND:                -1.873
REMARK  Name = /home/vital/Documents/PhD_2021/Malaria_codes/data/pdb_ligands_mmv/ligand_243.pdb
REMARK  7 active torsions:
REMARK  status: ('A' for Active; 'I' for Inactive)
REMARK    1  A    between atoms: C1_1  and  O1_2
REMARK    2  A    between atoms: O1_2  and  C2_3
REMARK    3  A    between atoms: C5_6  and  C8_9
REMARK    4  A    between atoms: N1_11  and  C9_12
REMARK    5  A    between atoms: C9_12  and  C10_13
REMARK    6  A    between atoms: C9_12  and  C16_21
REMARK    7  A    between atoms: C24_31  and  O3_32
REMARK                            x       y       z     vdW  Elec       q    Type
REMARK                         _______ _______ _______ _____ _____    ______ ____
ROOT
ATOM      1  C9  UNL     1      15.191  27.886  17.922  0.00  0.00    +0.139 C 
ENDROOT
BRANCH   1   2
ATOM      2  C16 UNL     1      16.191  26.745  17.771  0.00  0.00    +0.022 A 
ATOM      3  C17 UNL     1      15.753  25.501  17.298  0.00  0.00    +0.030 A 
ATOM      4  C18 UNL     1      16.650  24.438  17.143  0.00  0.00    +0.051 A 
ATOM      5 CL3  UNL     1      16.009  22.946  16.539  0.00  0.00    -0.083 Cl
ATOM      6  C19 UNL     1      18.021  24.584  17.465  0.00  0.00    +0.022 A 
ATOM      7  C20 UNL     1      18.997  23.570  17.340  0.00  0.00    +0.013 A 
ATOM      8  C21 UNL     1      20.320  23.814  17.689  0.00  0.00    +0.020 A 
ATOM      9  C22 UNL     1      20.644  25.071  18.158  0.00  0.00    +0.111 A 
ATOM     10  N2  UNL     1      19.749  26.072  18.295  0.00  0.00    -0.251 NA
ATOM     11  C23 UNL     1      18.466  25.828  17.953  0.00  0.00    +0.114 A 
ATOM     12  C24 UNL     1      17.545  26.867  18.097  0.00  0.00    +0.148 A 
BRANCH  12  13
ATOM     13  O3  UNL     1      18.018  28.060  18.599  0.00  0.00    -0.504 OA
ATOM     14  H17 UNL     1      17.329  28.336  19.244  0.00  0.00    +0.292 HD
ENDBRANCH  12  13
ENDBRANCH   1   2
BRANCH   1  15
ATOM     15  C10 UNL     1      15.140  28.806  16.698  0.00  0.00    -0.004 A 
ATOM     16  C11 UNL     1      15.782  30.061  16.840  0.00  0.00    +0.008 A 
ATOM     17  C12 UNL     1      15.799  31.003  15.808  0.00  0.00    +0.020 A 
ATOM     18  C13 UNL     1      15.171  30.709  14.606  0.00  0.00    +0.042 A 
ATOM     19 CL1  UNL     1      15.186  31.862  13.330  0.00  0.00    -0.083 Cl
ATOM     20  C14 UNL     1      14.534  29.487  14.430  0.00  0.00    +0.040 A 
ATOM     21  C15 UNL     1      14.515  28.538  15.464  0.00  0.00    +0.048 A 
ATOM     22 CL2  UNL     1      13.690  27.063  15.091  0.00  0.00    -0.083 Cl
ENDBRANCH   1  15
BRANCH   1  25
ATOM     23  C8  UNL     1      14.730  28.141  20.335  0.00  0.00    +0.245 C 
ATOM     24  O2  UNL     1      13.806  27.335  20.336  0.00  0.00    -0.270 OA
ATOM     25  N1  UNL     1      15.381  28.543  19.194  0.00  0.00    -0.300 N 
ATOM     26  H8  UNL     1      16.184  29.156  19.247  0.00  0.00    +0.150 HD
BRANCH  23  30
ATOM     27  C2  UNL     1      16.101  29.997  23.964  0.00  0.00    +0.120 A 
ATOM     28  C3  UNL     1      16.596  30.397  22.723  0.00  0.00    +0.046 A 
ATOM     29  C4  UNL     1      16.135  29.782  21.553  0.00  0.00    +0.016 A 
ATOM     30  C5  UNL     1      15.184  28.755  21.614  0.00  0.00    +0.037 A 
ATOM     31  C6  UNL     1      14.677  28.365  22.857  0.00  0.00    +0.016 A 
ATOM     32  C7  UNL     1      15.140  28.983  24.022  0.00  0.00    +0.046 A 
BRANCH  27  34
ATOM     33  C1  UNL     1      17.856  30.649  25.429  0.00  0.00    +0.277 C 
ATOM     34  O1  UNL     1      16.462  30.511  25.179  0.00  0.00    -0.495 OA
ENDBRANCH  27  34
ENDBRANCH  23  30
ENDBRANCH   1  25
TORSDOF 6
ENDMDL
