MODEL 1
REMARK VINA RESULT:    -2.814      0.000      0.000
REMARK INTER + INTRA:          -6.775
REMARK INTER:                  -4.459
REMARK INTRA:                  -2.316
REMARK UNBOUND:                -2.316
REMARK  Name = /home/vital/Documents/PhD_2021/Malaria_codes/data/pdb_ligands_mmv/ligand_330.pdb
REMARK  15 active torsions:
REMARK  status: ('A' for Active; 'I' for Inactive)
REMARK    1  A    between atoms: C1_1  and  C2_2
REMARK    2  A    between atoms: C2_2  and  O1_3
REMARK    3  A    between atoms: O1_3  and  C3_4
REMARK    4  A    between atoms: C3_4  and  C4_5
REMARK    5  A    between atoms: C7_9  and  O3_12
REMARK    6  A    between atoms: O3_12  and  C10_13
REMARK    7  A    between atoms: C10_13  and  C11_15
REMARK    8  A    between atoms: C13_17  and  O5_18
REMARK    9  A    between atoms: O5_18  and  C14_19
REMARK   10  A    between atoms: C16_21  and  O6_22
REMARK   11  A    between atoms: O6_22  and  C17_23
REMARK   12  A    between atoms: C18_24  and  O7_25
REMARK   13  A    between atoms: O7_25  and  C19_26
REMARK   14  A    between atoms: N1_28  and  C21_29
REMARK   15  A    between atoms: C27_35  and  C28_36
REMARK                            x       y       z     vdW  Elec       q    Type
REMARK                         _______ _______ _______ _____ _____    ______ ____
ROOT
ATOM      1  C1  UNL     1      16.210  35.342  17.266  0.00  0.00    +0.088 A 
ATOM      2  C5  UNL     1      16.362  35.099  15.861  0.00  0.00    +0.018 A 
ATOM      3  C6  UNL     1      16.454  33.925  15.074  0.00  0.00    +0.057 A 
ATOM      4  C7  UNL     1      16.568  34.032  13.687  0.00  0.00    +0.133 A 
ATOM      5  C8  UNL     1      16.535  35.259  13.047  0.00  0.00    +0.048 A 
ATOM      6  C9  UNL     1      16.436  36.429  13.801  0.00  0.00    +0.030 A 
ATOM      7  C20 UNL     1      16.384  36.340  15.211  0.00  0.00    +0.055 A 
ATOM      8  N1  UNL     1      16.271  37.332  16.188  0.00  0.00    -0.312 N 
ATOM      9  C27 UNL     1      16.191  36.727  17.439  0.00  0.00    +0.036 A 
ATOM     10  C28 UNL     1      16.193  37.492  18.726  0.00  0.00    +0.065 C 
ENDROOT
BRANCH   8  11
ATOM     11  C21 UNL     1      16.246  38.736  15.932  0.00  0.00    +0.047 A 
ATOM     12  C22 UNL     1      15.029  39.388  15.698  0.00  0.00    +0.026 A 
ATOM     13  C23 UNL     1      15.010  40.762  15.451  0.00  0.00    +0.002 A 
ATOM     14  C24 UNL     1      16.201  41.487  15.438  0.00  0.00    +0.000 A 
ATOM     15  C25 UNL     1      17.414  40.841  15.671  0.00  0.00    +0.002 A 
ATOM     16  C26 UNL     1      17.441  39.467  15.917  0.00  0.00    +0.026 A 
ENDBRANCH   8  11
BRANCH   1  17
ATOM     17  C2  UNL     1      16.105  34.362  18.353  0.00  0.00    +0.342 C 
ATOM     18  O2  UNL     1      16.884  34.308  19.296  0.00  0.00    -0.245 OA
BRANCH  17  19
ATOM     19  O1  UNL     1      15.048  33.514  18.204  0.00  0.00    -0.461 OA
BRANCH  19  20
ATOM     20  C3  UNL     1      15.227  32.223  18.798  0.00  0.00    +0.229 C 
ATOM     21  C4  UNL     1      15.759  31.286  17.733  0.00  0.00    +0.048 C 
ENDBRANCH  19  20
ENDBRANCH  17  19
ENDBRANCH   1  17
BRANCH   4  22
ATOM     22  O3  UNL     1      16.619  32.862  12.928  0.00  0.00    -0.422 OA
BRANCH  22  23
ATOM     23  C10 UNL     1      15.467  32.106  13.029  0.00  0.00    +0.345 C 
ATOM     24  O4  UNL     1      14.312  32.500  12.954  0.00  0.00    -0.245 OA
BRANCH  23  25
ATOM     25  C11 UNL     1      15.817  30.675  13.256  0.00  0.00    +0.067 A 
ATOM     26  C12 UNL     1      14.907  29.753  13.797  0.00  0.00    +0.064 A 
ATOM     27  C13 UNL     1      15.286  28.422  13.986  0.00  0.00    +0.166 A 
ATOM     28  C15 UNL     1      17.113  30.263  12.908  0.00  0.00    +0.064 A 
ATOM     29  C16 UNL     1      17.510  28.939  13.093  0.00  0.00    +0.166 A 
ATOM     30  C18 UNL     1      16.595  28.031  13.650  0.00  0.00    +0.204 A 
BRANCH  27  31
ATOM     31  O5  UNL     1      14.477  27.445  14.506  0.00  0.00    -0.491 OA
ATOM     32  C14 UNL     1      13.690  27.777  15.642  0.00  0.00    +0.277 C 
ENDBRANCH  27  31
BRANCH  29  33
ATOM     33  O6  UNL     1      18.748  28.442  12.783  0.00  0.00    -0.491 OA
ATOM     34  C17 UNL     1      19.881  29.190  13.205  0.00  0.00    +0.277 C 
ENDBRANCH  29  33
BRANCH  30  35
ATOM     35  O7  UNL     1      16.957  26.709  13.792  0.00  0.00    -0.488 OA
ATOM     36  C19 UNL     1      17.520  26.497  15.086  0.00  0.00    +0.277 C 
ENDBRANCH  30  35
ENDBRANCH  23  25
ENDBRANCH  22  23
ENDBRANCH   4  22
TORSDOF 10
ENDMDL
MODEL 2
REMARK VINA RESULT:    -2.568      2.633      9.582
REMARK INTER + INTRA:          -6.385
REMARK INTER:                  -3.989
REMARK INTRA:                  -2.395
REMARK UNBOUND:                -2.316
REMARK  Name = /home/vital/Documents/PhD_2021/Malaria_codes/data/pdb_ligands_mmv/ligand_330.pdb
REMARK  15 active torsions:
REMARK  status: ('A' for Active; 'I' for Inactive)
REMARK    1  A    between atoms: C1_1  and  C2_2
REMARK    2  A    between atoms: C2_2  and  O1_3
REMARK    3  A    between atoms: O1_3  and  C3_4
REMARK    4  A    between atoms: C3_4  and  C4_5
REMARK    5  A    between atoms: C7_9  and  O3_12
REMARK    6  A    between atoms: O3_12  and  C10_13
REMARK    7  A    between atoms: C10_13  and  C11_15
REMARK    8  A    between atoms: C13_17  and  O5_18
REMARK    9  A    between atoms: O5_18  and  C14_19
REMARK   10  A    between atoms: C16_21  and  O6_22
REMARK   11  A    between atoms: O6_22  and  C17_23
REMARK   12  A    between atoms: C18_24  and  O7_25
REMARK   13  A    between atoms: O7_25  and  C19_26
REMARK   14  A    between atoms: N1_28  and  C21_29
REMARK   15  A    between atoms: C27_35  and  C28_36
REMARK                            x       y       z     vdW  Elec       q    Type
REMARK                         _______ _______ _______ _____ _____    ______ ____
ROOT
ATOM      1  C1  UNL     1      15.569  31.636  13.818  0.00  0.00    +0.088 A 
ATOM      2  C5  UNL     1      15.702  31.780  15.239  0.00  0.00    +0.018 A 
ATOM      3  C6  UNL     1      15.840  32.894  16.102  0.00  0.00    +0.057 A 
ATOM      4  C7  UNL     1      15.916  32.694  17.481  0.00  0.00    +0.133 A 
ATOM      5  C8  UNL     1      15.802  31.432  18.040  0.00  0.00    +0.048 A 
ATOM      6  C9  UNL     1      15.657  30.320  17.209  0.00  0.00    +0.030 A 
ATOM      7  C20 UNL     1      15.642  30.500  15.807  0.00  0.00    +0.055 A 
ATOM      8  N1  UNL     1      15.498  29.581  14.766  0.00  0.00    -0.312 N 
ATOM      9  C27 UNL     1      15.480  30.268  13.556  0.00  0.00    +0.036 A 
ATOM     10  C28 UNL     1      15.470  29.587  12.222  0.00  0.00    +0.065 C 
ENDROOT
BRANCH   8  11
ATOM     11  C21 UNL     1      15.391  28.167  14.931  0.00  0.00    +0.047 A 
ATOM     12  C22 UNL     1      14.132  27.564  15.047  0.00  0.00    +0.026 A 
ATOM     13  C23 UNL     1      14.033  26.180  15.203  0.00  0.00    +0.002 A 
ATOM     14  C24 UNL     1      15.186  25.396  15.244  0.00  0.00    +0.000 A 
ATOM     15  C25 UNL     1      16.440  25.993  15.128  0.00  0.00    +0.002 A 
ATOM     16  C26 UNL     1      16.547  27.377  14.972  0.00  0.00    +0.026 A 
ENDBRANCH   8  11
BRANCH   1  17
ATOM     17  C2  UNL     1      15.543  32.687  12.796  0.00  0.00    +0.342 C 
ATOM     18  O2  UNL     1      14.524  33.049  12.220  0.00  0.00    -0.245 OA
BRANCH  17  19
ATOM     19  O1  UNL     1      16.772  33.221  12.549  0.00  0.00    -0.461 OA
BRANCH  19  20
ATOM     20  C3  UNL     1      16.766  34.615  12.223  0.00  0.00    +0.229 C 
ATOM     21  C4  UNL     1      17.099  35.392  13.480  0.00  0.00    +0.048 C 
ENDBRANCH  19  20
ENDBRANCH  17  19
ENDBRANCH   1  17
BRANCH   4  22
ATOM     22  O3  UNL     1      16.013  33.808  18.316  0.00  0.00    -0.422 OA
BRANCH  22  23
ATOM     23  C10 UNL     1      14.928  34.656  18.206  0.00  0.00    +0.345 C 
ATOM     24  O4  UNL     1      13.743  34.351  18.220  0.00  0.00    -0.245 OA
BRANCH  23  25
ATOM     25  C11 UNL     1      15.395  36.064  18.060  0.00  0.00    +0.067 A 
ATOM     26  C12 UNL     1      15.976  36.780  19.119  0.00  0.00    +0.064 A 
ATOM     27  C13 UNL     1      16.399  38.097  18.926  0.00  0.00    +0.166 A 
ATOM     28  C15 UNL     1      15.234  36.671  16.805  0.00  0.00    +0.064 A 
ATOM     29  C16 UNL     1      15.648  37.986  16.595  0.00  0.00    +0.166 A 
ATOM     30  C18 UNL     1      16.213  38.696  17.667  0.00  0.00    +0.204 A 
BRANCH  27  31
ATOM     31  O5  UNL     1      16.975  38.882  19.891  0.00  0.00    -0.491 OA
ATOM     32  C14 UNL     1      16.279  39.032  21.121  0.00  0.00    +0.277 C 
ENDBRANCH  27  31
BRANCH  29  33
ATOM     33  O6  UNL     1      15.537  38.662  15.409  0.00  0.00    -0.491 OA
ATOM     34  C17 UNL     1      14.231  38.852  14.880  0.00  0.00    +0.277 C 
ENDBRANCH  29  33
BRANCH  30  35
ATOM     35  O7  UNL     1      16.672  39.978  17.460  0.00  0.00    -0.488 OA
ATOM     36  C19 UNL     1      18.032  39.943  17.028  0.00  0.00    +0.277 C 
ENDBRANCH  30  35
ENDBRANCH  23  25
ENDBRANCH  22  23
ENDBRANCH   4  22
TORSDOF 10
ENDMDL
MODEL 3
REMARK VINA RESULT:    -2.516      5.839      9.288
REMARK INTER + INTRA:          -6.303
REMARK INTER:                  -4.019
REMARK INTRA:                  -2.284
REMARK UNBOUND:                -2.316
REMARK  Name = /home/vital/Documents/PhD_2021/Malaria_codes/data/pdb_ligands_mmv/ligand_330.pdb
REMARK  15 active torsions:
REMARK  status: ('A' for Active; 'I' for Inactive)
REMARK    1  A    between atoms: C1_1  and  C2_2
REMARK    2  A    between atoms: C2_2  and  O1_3
REMARK    3  A    between atoms: O1_3  and  C3_4
REMARK    4  A    between atoms: C3_4  and  C4_5
REMARK    5  A    between atoms: C7_9  and  O3_12
REMARK    6  A    between atoms: O3_12  and  C10_13
REMARK    7  A    between atoms: C10_13  and  C11_15
REMARK    8  A    between atoms: C13_17  and  O5_18
REMARK    9  A    between atoms: O5_18  and  C14_19
REMARK   10  A    between atoms: C16_21  and  O6_22
REMARK   11  A    between atoms: O6_22  and  C17_23
REMARK   12  A    between atoms: C18_24  and  O7_25
REMARK   13  A    between atoms: O7_25  and  C19_26
REMARK   14  A    between atoms: N1_28  and  C21_29
REMARK   15  A    between atoms: C27_35  and  C28_36
REMARK                            x       y       z     vdW  Elec       q    Type
REMARK                         _______ _______ _______ _____ _____    ______ ____
ROOT
ATOM      1  C1  UNL     1      15.029  26.382  16.604  0.00  0.00    +0.088 A 
ATOM      2  C5  UNL     1      15.287  27.379  17.601  0.00  0.00    +0.018 A 
ATOM      3  C6  UNL     1      15.386  27.351  19.013  0.00  0.00    +0.057 A 
ATOM      4  C7  UNL     1      15.690  28.522  19.708  0.00  0.00    +0.133 A 
ATOM      5  C8  UNL     1      15.956  29.710  19.049  0.00  0.00    +0.048 A 
ATOM      6  C9  UNL     1      15.873  29.761  17.656  0.00  0.00    +0.030 A 
ATOM      7  C20 UNL     1      15.505  28.597  16.943  0.00  0.00    +0.055 A 
ATOM      8  N1  UNL     1      15.362  28.370  15.572  0.00  0.00    -0.312 N 
ATOM      9  C27 UNL     1      15.048  27.029  15.368  0.00  0.00    +0.036 A 
ATOM     10  C28 UNL     1      14.696  26.461  14.027  0.00  0.00    +0.065 C 
ENDROOT
BRANCH   8  11
ATOM     11  C21 UNL     1      15.516  29.361  14.556  0.00  0.00    +0.047 A 
ATOM     12  C22 UNL     1      14.500  30.297  14.326  0.00  0.00    +0.026 A 
ATOM     13  C23 UNL     1      14.658  31.267  13.334  0.00  0.00    +0.002 A 
ATOM     14  C24 UNL     1      15.825  31.305  12.571  0.00  0.00    +0.000 A 
ATOM     15  C25 UNL     1      16.837  30.374  12.798  0.00  0.00    +0.002 A 
ATOM     16  C26 UNL     1      16.687  29.401  13.788  0.00  0.00    +0.026 A 
ENDBRANCH   8  11
BRANCH   1  17
ATOM     17  C2  UNL     1      14.772  24.950  16.794  0.00  0.00    +0.342 C 
ATOM     18  O2  UNL     1      13.693  24.496  17.154  0.00  0.00    -0.245 OA
BRANCH  17  19
ATOM     19  O1  UNL     1      15.861  24.175  16.531  0.00  0.00    -0.461 OA
BRANCH  19  20
ATOM     20  C3  UNL     1      16.457  23.566  17.683  0.00  0.00    +0.229 C 
ATOM     21  C4  UNL     1      17.799  24.228  17.922  0.00  0.00    +0.048 C 
ENDBRANCH  19  20
ENDBRANCH  17  19
ENDBRANCH   1  17
BRANCH   4  22
ATOM     22  O3  UNL     1      15.820  28.463  21.096  0.00  0.00    -0.422 OA
BRANCH  22  23
ATOM     23  C10 UNL     1      16.788  27.568  21.506  0.00  0.00    +0.345 C 
ATOM     24  O4  UNL     1      16.628  26.401  21.835  0.00  0.00    -0.245 OA
BRANCH  23  25
ATOM     25  C11 UNL     1      18.125  28.227  21.503  0.00  0.00    +0.067 A 
ATOM     26  C12 UNL     1      18.388  29.403  22.224  0.00  0.00    +0.064 A 
ATOM     27  C13 UNL     1      19.660  29.978  22.187  0.00  0.00    +0.166 A 
ATOM     28  C15 UNL     1      19.139  27.628  20.740  0.00  0.00    +0.064 A 
ATOM     29  C16 UNL     1      20.415  28.190  20.689  0.00  0.00    +0.166 A 
ATOM     30  C18 UNL     1      20.659  29.376  21.402  0.00  0.00    +0.204 A 
BRANCH  27  31
ATOM     31  O5  UNL     1      20.020  31.123  22.851  0.00  0.00    -0.491 OA
ATOM     32  C14 UNL     1      19.497  32.355  22.372  0.00  0.00    +0.277 C 
ENDBRANCH  27  31
BRANCH  29  33
ATOM     33  O6  UNL     1      21.468  27.680  19.978  0.00  0.00    -0.491 OA
ATOM     34  C17 UNL     1      21.524  26.270  19.807  0.00  0.00    +0.277 C 
ENDBRANCH  29  33
BRANCH  30  35
ATOM     35  O7  UNL     1      21.928  29.914  21.401  0.00  0.00    -0.488 OA
ATOM     36  C19 UNL     1      22.695  29.350  22.465  0.00  0.00    +0.277 C 
ENDBRANCH  30  35
ENDBRANCH  23  25
ENDBRANCH  22  23
ENDBRANCH   4  22
TORSDOF 10
ENDMDL
MODEL 4
REMARK VINA RESULT:    -2.454     14.235     18.263
REMARK INTER + INTRA:          -6.205
REMARK INTER:                  -4.026
REMARK INTRA:                  -2.179
REMARK UNBOUND:                -2.316
REMARK  Name = /home/vital/Documents/PhD_2021/Malaria_codes/data/pdb_ligands_mmv/ligand_330.pdb
REMARK  15 active torsions:
REMARK  status: ('A' for Active; 'I' for Inactive)
REMARK    1  A    between atoms: C1_1  and  C2_2
REMARK    2  A    between atoms: C2_2  and  O1_3
REMARK    3  A    between atoms: O1_3  and  C3_4
REMARK    4  A    between atoms: C3_4  and  C4_5
REMARK    5  A    between atoms: C7_9  and  O3_12
REMARK    6  A    between atoms: O3_12  and  C10_13
REMARK    7  A    between atoms: C10_13  and  C11_15
REMARK    8  A    between atoms: C13_17  and  O5_18
REMARK    9  A    between atoms: O5_18  and  C14_19
REMARK   10  A    between atoms: C16_21  and  O6_22
REMARK   11  A    between atoms: O6_22  and  C17_23
REMARK   12  A    between atoms: C18_24  and  O7_25
REMARK   13  A    between atoms: O7_25  and  C19_26
REMARK   14  A    between atoms: N1_28  and  C21_29
REMARK   15  A    between atoms: C27_35  and  C28_36
REMARK                            x       y       z     vdW  Elec       q    Type
REMARK                         _______ _______ _______ _____ _____    ______ ____
ROOT
ATOM      1  C1  UNL     1      24.332  46.327  15.502  0.00  0.00    +0.088 A 
ATOM      2  C5  UNL     1      25.120  46.005  16.656  0.00  0.00    +0.018 A 
ATOM      3  C6  UNL     1      26.500  45.767  16.865  0.00  0.00    +0.057 A 
ATOM      4  C7  UNL     1      26.968  45.503  18.153  0.00  0.00    +0.133 A 
ATOM      5  C8  UNL     1      26.125  45.523  19.251  0.00  0.00    +0.048 A 
ATOM      6  C9  UNL     1      24.762  45.764  19.070  0.00  0.00    +0.030 A 
ATOM      7  C20 UNL     1      24.263  45.971  17.764  0.00  0.00    +0.055 A 
ATOM      8  N1  UNL     1      22.971  46.241  17.309  0.00  0.00    -0.312 N 
ATOM      9  C27 UNL     1      23.009  46.432  15.931  0.00  0.00    +0.036 A 
ATOM     10  C28 UNL     1      21.782  46.613  15.090  0.00  0.00    +0.065 C 
ENDROOT
BRANCH   8  11
ATOM     11  C21 UNL     1      21.808  46.306  18.134  0.00  0.00    +0.047 A 
ATOM     12  C22 UNL     1      21.397  47.530  18.678  0.00  0.00    +0.026 A 
ATOM     13  C23 UNL     1      20.256  47.587  19.481  0.00  0.00    +0.002 A 
ATOM     14  C24 UNL     1      19.525  46.430  19.743  0.00  0.00    +0.000 A 
ATOM     15  C25 UNL     1      19.931  45.210  19.202  0.00  0.00    +0.002 A 
ATOM     16  C26 UNL     1      21.071  45.144  18.399  0.00  0.00    +0.026 A 
ENDBRANCH   8  11
BRANCH   1  17
ATOM     17  C2  UNL     1      24.780  46.506  14.116  0.00  0.00    +0.342 C 
ATOM     18  O2  UNL     1      24.811  47.590  13.547  0.00  0.00    -0.245 OA
BRANCH  17  19
ATOM     19  O1  UNL     1      25.156  45.338  13.524  0.00  0.00    -0.461 OA
BRANCH  19  20
ATOM     20  C3  UNL     1      26.272  45.449  12.633  0.00  0.00    +0.229 C 
ATOM     21  C4  UNL     1      27.436  44.696  13.244  0.00  0.00    +0.048 C 
ENDBRANCH  19  20
ENDBRANCH  17  19
ENDBRANCH   1  17
BRANCH   4  22
ATOM     22  O3  UNL     1      28.337  45.309  18.342  0.00  0.00    -0.422 OA
BRANCH  22  23
ATOM     23  C10 UNL     1      28.998  46.467  18.702  0.00  0.00    +0.345 C 
ATOM     24  O4  UNL     1      28.842  47.587  18.234  0.00  0.00    -0.245 OA
BRANCH  23  25
ATOM     25  C11 UNL     1      29.979  46.177  19.786  0.00  0.00    +0.067 A 
ATOM     26  C12 UNL     1      31.273  45.698  19.524  0.00  0.00    +0.064 A 
ATOM     27  C13 UNL     1      32.153  45.445  20.579  0.00  0.00    +0.166 A 
ATOM     28  C15 UNL     1      29.565  46.397  21.109  0.00  0.00    +0.064 A 
ATOM     29  C16 UNL     1      30.430  46.147  22.174  0.00  0.00    +0.166 A 
ATOM     30  C18 UNL     1      31.715  45.653  21.898  0.00  0.00    +0.204 A 
BRANCH  27  31
ATOM     31  O5  UNL     1      33.434  44.976  20.432  0.00  0.00    -0.491 OA
ATOM     32  C14 UNL     1      33.618  43.788  19.674  0.00  0.00    +0.277 C 
ENDBRANCH  27  31
BRANCH  29  33
ATOM     33  O6  UNL     1      30.120  46.333  23.495  0.00  0.00    -0.491 OA
ATOM     34  C17 UNL     1      29.194  47.364  23.814  0.00  0.00    +0.277 C 
ENDBRANCH  29  33
BRANCH  30  35
ATOM     35  O7  UNL     1      32.597  45.449  22.938  0.00  0.00    -0.488 OA
ATOM     36  C19 UNL     1      32.445  44.124  23.448  0.00  0.00    +0.277 C 
ENDBRANCH  30  35
ENDBRANCH  23  25
ENDBRANCH  22  23
ENDBRANCH   4  22
TORSDOF 10
ENDMDL
MODEL 5
REMARK VINA RESULT:    -2.451      2.822      9.326
REMARK INTER + INTRA:          -6.200
REMARK INTER:                  -3.608
REMARK INTRA:                  -2.592
REMARK UNBOUND:                -2.316
REMARK  Name = /home/vital/Documents/PhD_2021/Malaria_codes/data/pdb_ligands_mmv/ligand_330.pdb
REMARK  15 active torsions:
REMARK  status: ('A' for Active; 'I' for Inactive)
REMARK    1  A    between atoms: C1_1  and  C2_2
REMARK    2  A    between atoms: C2_2  and  O1_3
REMARK    3  A    between atoms: O1_3  and  C3_4
REMARK    4  A    between atoms: C3_4  and  C4_5
REMARK    5  A    between atoms: C7_9  and  O3_12
REMARK    6  A    between atoms: O3_12  and  C10_13
REMARK    7  A    between atoms: C10_13  and  C11_15
REMARK    8  A    between atoms: C13_17  and  O5_18
REMARK    9  A    between atoms: O5_18  and  C14_19
REMARK   10  A    between atoms: C16_21  and  O6_22
REMARK   11  A    between atoms: O6_22  and  C17_23
REMARK   12  A    between atoms: C18_24  and  O7_25
REMARK   13  A    between atoms: O7_25  and  C19_26
REMARK   14  A    between atoms: N1_28  and  C21_29
REMARK   15  A    between atoms: C27_35  and  C28_36
REMARK                            x       y       z     vdW  Elec       q    Type
REMARK                         _______ _______ _______ _____ _____    ______ ____
ROOT
ATOM      1  C1  UNL     1      15.637  31.464  13.956  0.00  0.00    +0.088 A 
ATOM      2  C5  UNL     1      15.678  31.511  15.388  0.00  0.00    +0.018 A 
ATOM      3  C6  UNL     1      15.766  32.563  16.332  0.00  0.00    +0.057 A 
ATOM      4  C7  UNL     1      15.750  32.268  17.696  0.00  0.00    +0.133 A 
ATOM      5  C8  UNL     1      15.591  30.974  18.159  0.00  0.00    +0.048 A 
ATOM      6  C9  UNL     1      15.493  29.921  17.247  0.00  0.00    +0.030 A 
ATOM      7  C20 UNL     1      15.572  30.197  15.863  0.00  0.00    +0.055 A 
ATOM      8  N1  UNL     1      15.491  29.351  14.754  0.00  0.00    -0.312 N 
ATOM      9  C27 UNL     1      15.556  30.119  13.595  0.00  0.00    +0.036 A 
ATOM     10  C28 UNL     1      15.629  29.529  12.220  0.00  0.00    +0.065 C 
ENDROOT
BRANCH   8  11
ATOM     11  C21 UNL     1      15.363  27.930  14.815  0.00  0.00    +0.047 A 
ATOM     12  C22 UNL     1      16.502  27.125  14.939  0.00  0.00    +0.026 A 
ATOM     13  C23 UNL     1      16.370  25.736  15.001  0.00  0.00    +0.002 A 
ATOM     14  C24 UNL     1      15.107  25.149  14.941  0.00  0.00    +0.000 A 
ATOM     15  C25 UNL     1      13.972  25.949  14.819  0.00  0.00    +0.002 A 
ATOM     16  C26 UNL     1      14.095  27.338  14.755  0.00  0.00    +0.026 A 
ENDBRANCH   8  11
BRANCH   1  17
ATOM     17  C2  UNL     1      15.685  32.582  13.007  0.00  0.00    +0.342 C 
ATOM     18  O2  UNL     1      14.771  32.863  12.242  0.00  0.00    -0.245 OA
BRANCH  17  19
ATOM     19  O1  UNL     1      16.854  33.279  13.064  0.00  0.00    -0.461 OA
BRANCH  19  20
ATOM     20  C3  UNL     1      16.730  34.683  12.810  0.00  0.00    +0.229 C 
ATOM     21  C4  UNL     1      17.065  35.422  14.090  0.00  0.00    +0.048 C 
ENDBRANCH  19  20
ENDBRANCH  17  19
ENDBRANCH   1  17
BRANCH   4  22
ATOM     22  O3  UNL     1      15.799  33.323  18.609  0.00  0.00    -0.422 OA
BRANCH  22  23
ATOM     23  C10 UNL     1      17.084  33.775  18.838  0.00  0.00    +0.345 C 
ATOM     24  O4  UNL     1      18.001  33.166  19.373  0.00  0.00    -0.245 OA
BRANCH  23  25
ATOM     25  C11 UNL     1      17.231  35.169  18.331  0.00  0.00    +0.067 A 
ATOM     26  C12 UNL     1      16.159  36.074  18.293  0.00  0.00    +0.064 A 
ATOM     27  C13 UNL     1      16.353  37.370  17.809  0.00  0.00    +0.166 A 
ATOM     28  C15 UNL     1      18.500  35.562  17.878  0.00  0.00    +0.064 A 
ATOM     29  C16 UNL     1      18.712  36.850  17.389  0.00  0.00    +0.166 A 
ATOM     30  C18 UNL     1      17.627  37.741  17.342  0.00  0.00    +0.204 A 
BRANCH  27  31
ATOM     31  O5  UNL     1      15.376  38.329  17.728  0.00  0.00    -0.491 OA
ATOM     32  C14 UNL     1      14.298  38.250  18.651  0.00  0.00    +0.277 C 
ENDBRANCH  27  31
BRANCH  29  33
ATOM     33  O6  UNL     1      19.910  37.328  16.930  0.00  0.00    -0.491 OA
ATOM     34  C17 UNL     1      20.383  36.829  15.685  0.00  0.00    +0.277 C 
ENDBRANCH  29  33
BRANCH  30  35
ATOM     35  O7  UNL     1      17.832  39.033  16.908  0.00  0.00    -0.488 OA
ATOM     36  C19 UNL     1      18.186  39.865  18.013  0.00  0.00    +0.277 C 
ENDBRANCH  30  35
ENDBRANCH  23  25
ENDBRANCH  22  23
ENDBRANCH   4  22
TORSDOF 10
ENDMDL
MODEL 6
REMARK VINA RESULT:    -2.431      5.585     10.271
REMARK INTER + INTRA:          -6.167
REMARK INTER:                  -4.062
REMARK INTRA:                  -2.106
REMARK UNBOUND:                -2.316
REMARK  Name = /home/vital/Documents/PhD_2021/Malaria_codes/data/pdb_ligands_mmv/ligand_330.pdb
REMARK  15 active torsions:
REMARK  status: ('A' for Active; 'I' for Inactive)
REMARK    1  A    between atoms: C1_1  and  C2_2
REMARK    2  A    between atoms: C2_2  and  O1_3
REMARK    3  A    between atoms: O1_3  and  C3_4
REMARK    4  A    between atoms: C3_4  and  C4_5
REMARK    5  A    between atoms: C7_9  and  O3_12
REMARK    6  A    between atoms: O3_12  and  C10_13
REMARK    7  A    between atoms: C10_13  and  C11_15
REMARK    8  A    between atoms: C13_17  and  O5_18
REMARK    9  A    between atoms: O5_18  and  C14_19
REMARK   10  A    between atoms: C16_21  and  O6_22
REMARK   11  A    between atoms: O6_22  and  C17_23
REMARK   12  A    between atoms: C18_24  and  O7_25
REMARK   13  A    between atoms: O7_25  and  C19_26
REMARK   14  A    between atoms: N1_28  and  C21_29
REMARK   15  A    between atoms: C27_35  and  C28_36
REMARK                            x       y       z     vdW  Elec       q    Type
REMARK                         _______ _______ _______ _____ _____    ______ ____
ROOT
ATOM      1  C1  UNL     1      14.927  26.477  16.523  0.00  0.00    +0.088 A 
ATOM      2  C5  UNL     1      14.992  27.416  17.604  0.00  0.00    +0.018 A 
ATOM      3  C6  UNL     1      14.888  27.298  19.012  0.00  0.00    +0.057 A 
ATOM      4  C7  UNL     1      15.034  28.432  19.812  0.00  0.00    +0.133 A 
ATOM      5  C8  UNL     1      15.337  29.670  19.271  0.00  0.00    +0.048 A 
ATOM      6  C9  UNL     1      15.453  29.809  17.887  0.00  0.00    +0.030 A 
ATOM      7  C20 UNL     1      15.246  28.682  17.059  0.00  0.00    +0.055 A 
ATOM      8  N1  UNL     1      15.313  28.539  15.671  0.00  0.00    -0.312 N 
ATOM      9  C27 UNL     1      15.094  27.204  15.344  0.00  0.00    +0.036 A 
ATOM     10  C28 UNL     1      14.965  26.712  13.934  0.00  0.00    +0.065 C 
ENDROOT
BRANCH   8  11
ATOM     11  C21 UNL     1      15.564  29.600  14.750  0.00  0.00    +0.047 A 
ATOM     12  C22 UNL     1      16.864  29.838  14.286  0.00  0.00    +0.026 A 
ATOM     13  C23 UNL     1      17.102  30.875  13.381  0.00  0.00    +0.002 A 
ATOM     14  C24 UNL     1      16.049  31.673  12.938  0.00  0.00    +0.000 A 
ATOM     15  C25 UNL     1      14.754  31.438  13.397  0.00  0.00    +0.002 A 
ATOM     16  C26 UNL     1      14.508  30.405  14.303  0.00  0.00    +0.026 A 
ENDBRANCH   8  11
BRANCH   1  17
ATOM     17  C2  UNL     1      14.713  25.027  16.588  0.00  0.00    +0.342 C 
ATOM     18  O2  UNL     1      13.698  24.510  17.039  0.00  0.00    -0.245 OA
BRANCH  17  19
ATOM     19  O1  UNL     1      15.762  24.312  16.095  0.00  0.00    -0.461 OA
BRANCH  19  20
ATOM     20  C3  UNL     1      16.361  23.404  17.027  0.00  0.00    +0.229 C 
ATOM     21  C4  UNL     1      17.722  23.951  17.405  0.00  0.00    +0.048 C 
ENDBRANCH  19  20
ENDBRANCH  17  19
ENDBRANCH   1  17
BRANCH   4  22
ATOM     22  O3  UNL     1      14.966  28.287  21.198  0.00  0.00    -0.422 OA
BRANCH  22  23
ATOM     23  C10 UNL     1      16.211  28.214  21.792  0.00  0.00    +0.345 C 
ATOM     24  O4  UNL     1      17.166  27.540  21.432  0.00  0.00    -0.245 OA
BRANCH  23  25
ATOM     25  C11 UNL     1      16.256  29.100  22.990  0.00  0.00    +0.067 A 
ATOM     26  C12 UNL     1      16.576  30.464  22.907  0.00  0.00    +0.064 A 
ATOM     27  C13 UNL     1      16.601  31.250  24.062  0.00  0.00    +0.166 A 
ATOM     28  C15 UNL     1      15.963  28.520  24.234  0.00  0.00    +0.064 A 
ATOM     29  C16 UNL     1      15.986  29.288  25.398  0.00  0.00    +0.166 A 
ATOM     30  C18 UNL     1      16.324  30.648  25.303  0.00  0.00    +0.204 A 
BRANCH  27  31
ATOM     31  O5  UNL     1      16.902  32.587  24.091  0.00  0.00    -0.491 OA
ATOM     32  C14 UNL     1      16.383  33.402  23.049  0.00  0.00    +0.277 C 
ENDBRANCH  27  31
BRANCH  29  33
ATOM     33  O6  UNL     1      15.714  28.816  26.654  0.00  0.00    -0.491 OA
ATOM     34  C17 UNL     1      15.628  27.407  26.822  0.00  0.00    +0.277 C 
ENDBRANCH  29  33
BRANCH  30  35
ATOM     35  O7  UNL     1      16.302  31.430  26.437  0.00  0.00    -0.488 OA
ATOM     36  C19 UNL     1      17.586  31.414  27.062  0.00  0.00    +0.277 C 
ENDBRANCH  30  35
ENDBRANCH  23  25
ENDBRANCH  22  23
ENDBRANCH   4  22
TORSDOF 10
ENDMDL
MODEL 7
REMARK VINA RESULT:    -2.332     11.052     14.725
REMARK INTER + INTRA:          -6.012
REMARK INTER:                  -3.506
REMARK INTRA:                  -2.506
REMARK UNBOUND:                -2.316
REMARK  Name = /home/vital/Documents/PhD_2021/Malaria_codes/data/pdb_ligands_mmv/ligand_330.pdb
REMARK  15 active torsions:
REMARK  status: ('A' for Active; 'I' for Inactive)
REMARK    1  A    between atoms: C1_1  and  C2_2
REMARK    2  A    between atoms: C2_2  and  O1_3
REMARK    3  A    between atoms: O1_3  and  C3_4
REMARK    4  A    between atoms: C3_4  and  C4_5
REMARK    5  A    between atoms: C7_9  and  O3_12
REMARK    6  A    between atoms: O3_12  and  C10_13
REMARK    7  A    between atoms: C10_13  and  C11_15
REMARK    8  A    between atoms: C13_17  and  O5_18
REMARK    9  A    between atoms: O5_18  and  C14_19
REMARK   10  A    between atoms: C16_21  and  O6_22
REMARK   11  A    between atoms: O6_22  and  C17_23
REMARK   12  A    between atoms: C18_24  and  O7_25
REMARK   13  A    between atoms: O7_25  and  C19_26
REMARK   14  A    between atoms: N1_28  and  C21_29
REMARK   15  A    between atoms: C27_35  and  C28_36
REMARK                            x       y       z     vdW  Elec       q    Type
REMARK                         _______ _______ _______ _____ _____    ______ ____
ROOT
ATOM      1  C1  UNL     1      21.137  43.339  19.779  0.00  0.00    +0.088 A 
ATOM      2  C5  UNL     1      20.768  44.600  20.353  0.00  0.00    +0.018 A 
ATOM      3  C6  UNL     1      20.024  44.976  21.498  0.00  0.00    +0.057 A 
ATOM      4  C7  UNL     1      19.868  46.328  21.806  0.00  0.00    +0.133 A 
ATOM      5  C8  UNL     1      20.472  47.320  21.053  0.00  0.00    +0.048 A 
ATOM      6  C9  UNL     1      21.216  46.973  19.924  0.00  0.00    +0.030 A 
ATOM      7  C20 UNL     1      21.331  45.611  19.563  0.00  0.00    +0.055 A 
ATOM      8  N1  UNL     1      22.014  44.997  18.511  0.00  0.00    -0.312 N 
ATOM      9  C27 UNL     1      21.875  43.617  18.628  0.00  0.00    +0.036 A 
ATOM     10  C28 UNL     1      22.370  42.649  17.598  0.00  0.00    +0.065 C 
ENDROOT
BRANCH   8  11
ATOM     11  C21 UNL     1      22.733  45.685  17.488  0.00  0.00    +0.047 A 
ATOM     12  C22 UNL     1      22.080  46.086  16.315  0.00  0.00    +0.026 A 
ATOM     13  C23 UNL     1      22.788  46.762  15.320  0.00  0.00    +0.002 A 
ATOM     14  C24 UNL     1      24.144  47.039  15.490  0.00  0.00    +0.000 A 
ATOM     15  C25 UNL     1      24.796  46.642  16.656  0.00  0.00    +0.002 A 
ATOM     16  C26 UNL     1      24.096  45.964  17.656  0.00  0.00    +0.026 A 
ENDBRANCH   8  11
BRANCH   1  17
ATOM     17  C2  UNL     1      20.815  41.991  20.261  0.00  0.00    +0.342 C 
ATOM     18  O2  UNL     1      21.635  41.238  20.770  0.00  0.00    -0.245 OA
BRANCH  17  19
ATOM     19  O1  UNL     1      19.505  41.662  20.082  0.00  0.00    -0.461 OA
BRANCH  19  20
ATOM     20  C3  UNL     1      18.981  40.738  21.043  0.00  0.00    +0.229 C 
ATOM     21  C4  UNL     1      18.393  41.536  22.188  0.00  0.00    +0.048 C 
ENDBRANCH  19  20
ENDBRANCH  17  19
ENDBRANCH   1  17
BRANCH   4  22
ATOM     22  O3  UNL     1      19.164  46.675  22.961  0.00  0.00    -0.422 OA
BRANCH  22  23
ATOM     23  C10 UNL     1      17.798  46.718  22.763  0.00  0.00    +0.345 C 
ATOM     24  O4  UNL     1      17.174  47.497  22.056  0.00  0.00    -0.245 OA
BRANCH  23  25
ATOM     25  C11 UNL     1      17.135  45.645  23.559  0.00  0.00    +0.067 A 
ATOM     26  C12 UNL     1      16.339  44.651  22.969  0.00  0.00    +0.064 A 
ATOM     27  C13 UNL     1      15.743  43.668  23.762  0.00  0.00    +0.166 A 
ATOM     28  C15 UNL     1      17.332  45.657  24.949  0.00  0.00    +0.064 A 
ATOM     29  C16 UNL     1      16.742  44.685  25.756  0.00  0.00    +0.166 A 
ATOM     30  C18 UNL     1      15.935  43.705  25.155  0.00  0.00    +0.204 A 
BRANCH  27  31
ATOM     31  O5  UNL     1      14.949  42.656  23.288  0.00  0.00    -0.491 OA
ATOM     32  C14 UNL     1      13.706  43.015  22.700  0.00  0.00    +0.277 C 
ENDBRANCH  27  31
BRANCH  29  33
ATOM     33  O6  UNL     1      16.877  44.611  27.117  0.00  0.00    -0.491 OA
ATOM     34  C17 UNL     1      16.154  45.551  27.902  0.00  0.00    +0.277 C 
ENDBRANCH  29  33
BRANCH  30  35
ATOM     35  O7  UNL     1      15.388  42.710  25.935  0.00  0.00    -0.488 OA
ATOM     36  C19 UNL     1      16.296  41.613  26.029  0.00  0.00    +0.277 C 
ENDBRANCH  30  35
ENDBRANCH  23  25
ENDBRANCH  22  23
ENDBRANCH   4  22
TORSDOF 10
ENDMDL
MODEL 8
REMARK VINA RESULT:    -2.260      2.948      8.532
REMARK INTER + INTRA:          -5.896
REMARK INTER:                  -3.346
REMARK INTRA:                  -2.550
REMARK UNBOUND:                -2.316
REMARK  Name = /home/vital/Documents/PhD_2021/Malaria_codes/data/pdb_ligands_mmv/ligand_330.pdb
REMARK  15 active torsions:
REMARK  status: ('A' for Active; 'I' for Inactive)
REMARK    1  A    between atoms: C1_1  and  C2_2
REMARK    2  A    between atoms: C2_2  and  O1_3
REMARK    3  A    between atoms: O1_3  and  C3_4
REMARK    4  A    between atoms: C3_4  and  C4_5
REMARK    5  A    between atoms: C7_9  and  O3_12
REMARK    6  A    between atoms: O3_12  and  C10_13
REMARK    7  A    between atoms: C10_13  and  C11_15
REMARK    8  A    between atoms: C13_17  and  O5_18
REMARK    9  A    between atoms: O5_18  and  C14_19
REMARK   10  A    between atoms: C16_21  and  O6_22
REMARK   11  A    between atoms: O6_22  and  C17_23
REMARK   12  A    between atoms: C18_24  and  O7_25
REMARK   13  A    between atoms: O7_25  and  C19_26
REMARK   14  A    between atoms: N1_28  and  C21_29
REMARK   15  A    between atoms: C27_35  and  C28_36
REMARK                            x       y       z     vdW  Elec       q    Type
REMARK                         _______ _______ _______ _____ _____    ______ ____
ROOT
ATOM      1  C1  UNL     1      15.891  30.966  17.383  0.00  0.00    +0.088 A 
ATOM      2  C5  UNL     1      15.750  31.336  16.005  0.00  0.00    +0.018 A 
ATOM      3  C6  UNL     1      15.846  32.563  15.305  0.00  0.00    +0.057 A 
ATOM      4  C7  UNL     1      15.682  32.582  13.919  0.00  0.00    +0.133 A 
ATOM      5  C8  UNL     1      15.483  31.419  13.194  0.00  0.00    +0.048 A 
ATOM      6  C9  UNL     1      15.394  30.196  13.862  0.00  0.00    +0.030 A 
ATOM      7  C20 UNL     1      15.494  30.169  15.271  0.00  0.00    +0.055 A 
ATOM      8  N1  UNL     1      15.454  29.103  16.173  0.00  0.00    -0.312 N 
ATOM      9  C27 UNL     1      15.670  29.590  17.458  0.00  0.00    +0.036 A 
ATOM     10  C28 UNL     1      15.564  28.743  18.689  0.00  0.00    +0.065 C 
ENDROOT
BRANCH   8  11
ATOM     11  C21 UNL     1      15.227  27.739  15.819  0.00  0.00    +0.047 A 
ATOM     12  C22 UNL     1      16.309  26.883  15.576  0.00  0.00    +0.026 A 
ATOM     13  C23 UNL     1      16.079  25.549  15.234  0.00  0.00    +0.002 A 
ATOM     14  C24 UNL     1      14.775  25.066  15.134  0.00  0.00    +0.000 A 
ATOM     15  C25 UNL     1      13.696  25.915  15.376  0.00  0.00    +0.002 A 
ATOM     16  C26 UNL     1      13.917  27.250  15.718  0.00  0.00    +0.026 A 
ENDBRANCH   8  11
BRANCH   1  17
ATOM     17  C2  UNL     1      16.192  31.829  18.530  0.00  0.00    +0.342 C 
ATOM     18  O2  UNL     1      15.388  32.086  19.417  0.00  0.00    -0.245 OA
BRANCH  17  19
ATOM     19  O1  UNL     1      17.464  32.319  18.507  0.00  0.00    -0.461 OA
BRANCH  19  20
ATOM     20  C3  UNL     1      17.632  33.582  19.161  0.00  0.00    +0.229 C 
ATOM     21  C4  UNL     1      17.774  34.648  18.094  0.00  0.00    +0.048 C 
ENDBRANCH  19  20
ENDBRANCH  17  19
ENDBRANCH   1  17
BRANCH   4  22
ATOM     22  O3  UNL     1      15.819  33.796  13.244  0.00  0.00    -0.422 OA
BRANCH  22  23
ATOM     23  C10 UNL     1      17.134  34.106  12.960  0.00  0.00    +0.345 C 
ATOM     24  O4  UNL     1      17.898  33.496  12.224  0.00  0.00    -0.245 OA
BRANCH  23  25
ATOM     25  C11 UNL     1      17.537  35.337  13.698  0.00  0.00    +0.067 A 
ATOM     26  C12 UNL     1      16.698  36.457  13.811  0.00  0.00    +0.064 A 
ATOM     27  C13 UNL     1      17.125  37.585  14.516  0.00  0.00    +0.166 A 
ATOM     28  C15 UNL     1      18.810  35.349  14.290  0.00  0.00    +0.064 A 
ATOM     29  C16 UNL     1      19.254  36.467  14.995  0.00  0.00    +0.166 A 
ATOM     30  C18 UNL     1      18.410  37.586  15.087  0.00  0.00    +0.204 A 
BRANCH  27  31
ATOM     31  O5  UNL     1      16.387  38.728  14.684  0.00  0.00    -0.491 OA
ATOM     32  C14 UNL     1      15.071  38.591  15.204  0.00  0.00    +0.277 C 
ENDBRANCH  27  31
BRANCH  29  33
ATOM     33  O6  UNL     1      20.474  36.572  15.609  0.00  0.00    -0.491 OA
ATOM     34  C17 UNL     1      21.619  36.700  14.777  0.00  0.00    +0.277 C 
ENDBRANCH  29  33
BRANCH  30  35
ATOM     35  O7  UNL     1      18.816  38.678  15.823  0.00  0.00    -0.488 OA
ATOM     36  C19 UNL     1      18.454  38.502  17.192  0.00  0.00    +0.277 C 
ENDBRANCH  30  35
ENDBRANCH  23  25
ENDBRANCH  22  23
ENDBRANCH   4  22
TORSDOF 10
ENDMDL
