MODEL 1
REMARK VINA RESULT:    -3.459      0.000      0.000
REMARK INTER + INTRA:          -7.493
REMARK INTER:                  -5.077
REMARK INTRA:                  -2.416
REMARK UNBOUND:                -2.416
REMARK  Name = /home/vital/Documents/PhD_2021/Malaria_codes/data/pdb_ligands_mmv/ligand_64.pdb
REMARK  10 active torsions:
REMARK  status: ('A' for Active; 'I' for Inactive)
REMARK    1  A    between atoms: C1_1  and  C2_2
REMARK    2  A    between atoms: C2_2  and  C3_3
REMARK    3  A    between atoms: C3_3  and  C4_4
REMARK    4  A    between atoms: C4_4  and  C5_5
REMARK    5  A    between atoms: C5_5  and  C6_6
REMARK    6  A    between atoms: C6_6  and  O1_7
REMARK    7  A    between atoms: O1_7  and  C7_8
REMARK    8  A    between atoms: C7_8  and  C8_10
REMARK    9  A    between atoms: C9_11  and  C10_12
REMARK   10  A    between atoms: C12_17  and  C13_18
REMARK                            x       y       z     vdW  Elec       q    Type
REMARK                         _______ _______ _______ _____ _____    ______ ____
ROOT
ATOM      1  C8  UNL     1      16.602  28.793  15.156  0.00  0.00    +0.078 C 
ATOM      2  C9  UNL     1      17.531  29.444  15.880  0.00  0.00    +0.021 C 
ATOM      3  C10 UNL     1      17.282  30.564  16.852  0.00  0.00    +0.061 C 
ATOM      4  N1  UNL     1      18.851  29.089  15.719  0.00  0.00    -0.273 N 
ATOM      5  C11 UNL     1      19.319  28.169  14.830  0.00  0.00    +0.304 C 
ATOM      6  O3  UNL     1      20.514  27.919  14.726  0.00  0.00    -0.252 OA
ATOM      7  N2  UNL     1      18.394  27.554  14.055  0.00  0.00    -0.288 N 
ATOM      8  C12 UNL     1      16.954  27.681  14.206  0.00  0.00    +0.146 C 
ATOM      9  H17 UNL     1      19.572  29.554  16.258  0.00  0.00    +0.156 HD
ATOM     10  H18 UNL     1      18.761  26.861  13.419  0.00  0.00    +0.151 HD
ENDROOT
BRANCH   8  11
ATOM     11  C13 UNL     1      16.363  26.344  14.611  0.00  0.00    +0.013 A 
ATOM     12  C14 UNL     1      16.859  25.618  15.709  0.00  0.00    +0.008 A 
ATOM     13  C15 UNL     1      16.286  24.397  16.072  0.00  0.00    +0.001 A 
ATOM     14  C16 UNL     1      15.211  23.884  15.348  0.00  0.00    +0.003 A 
ATOM     15  C17 UNL     1      14.706  24.594  14.260  0.00  0.00    +0.039 A 
ATOM     16  C18 UNL     1      15.282  25.810  13.903  0.00  0.00    +0.129 A 
ATOM     17  F1  UNL     1      14.775  26.474  12.855  0.00  0.00    -0.205 F 
ENDBRANCH   8  11
BRANCH   1  18
ATOM     18  C7  UNL     1      15.166  29.108  15.302  0.00  0.00    +0.339 C 
ATOM     19  O2  UNL     1      14.486  29.642  14.441  0.00  0.00    -0.245 OA
BRANCH  18  20
ATOM     20  O1  UNL     1      14.742  28.702  16.523  0.00  0.00    -0.461 OA
BRANCH  20  21
ATOM     21  C6  UNL     1      13.700  27.713  16.527  0.00  0.00    +0.232 C 
BRANCH  21  22
ATOM     22  C5  UNL     1      13.865  26.795  17.736  0.00  0.00    +0.041 C 
BRANCH  22  23
ATOM     23  C4  UNL     1      14.752  27.382  18.835  0.00  0.00    +0.003 C 
BRANCH  23  24
ATOM     24  C3  UNL     1      16.077  26.655  19.080  0.00  0.00    -0.000 C 
BRANCH  24  26
ATOM     25  C1  UNL     1      18.557  26.883  18.702  0.00  0.00    +0.004 C 
ATOM     26  C2  UNL     1      17.283  27.592  19.136  0.00  0.00    -0.003 C 
ENDBRANCH  24  26
ENDBRANCH  23  24
ENDBRANCH  22  23
ENDBRANCH  21  22
ENDBRANCH  20  21
ENDBRANCH  18  20
ENDBRANCH   1  18
TORSDOF 8
ENDMDL
MODEL 2
REMARK VINA RESULT:    -3.259      3.094      5.557
REMARK INTER + INTRA:          -7.199
REMARK INTER:                  -5.116
REMARK INTRA:                  -2.083
REMARK UNBOUND:                -2.416
REMARK  Name = /home/vital/Documents/PhD_2021/Malaria_codes/data/pdb_ligands_mmv/ligand_64.pdb
REMARK  10 active torsions:
REMARK  status: ('A' for Active; 'I' for Inactive)
REMARK    1  A    between atoms: C1_1  and  C2_2
REMARK    2  A    between atoms: C2_2  and  C3_3
REMARK    3  A    between atoms: C3_3  and  C4_4
REMARK    4  A    between atoms: C4_4  and  C5_5
REMARK    5  A    between atoms: C5_5  and  C6_6
REMARK    6  A    between atoms: C6_6  and  O1_7
REMARK    7  A    between atoms: O1_7  and  C7_8
REMARK    8  A    between atoms: C7_8  and  C8_10
REMARK    9  A    between atoms: C9_11  and  C10_12
REMARK   10  A    between atoms: C12_17  and  C13_18
REMARK                            x       y       z     vdW  Elec       q    Type
REMARK                         _______ _______ _______ _____ _____    ______ ____
ROOT
ATOM      1  C8  UNL     1      15.844  25.022  17.678  0.00  0.00    +0.078 C 
ATOM      2  C9  UNL     1      16.709  24.016  17.901  0.00  0.00    +0.021 C 
ATOM      3  C10 UNL     1      16.837  22.753  17.096  0.00  0.00    +0.061 C 
ATOM      4  N1  UNL     1      17.559  24.114  18.980  0.00  0.00    -0.273 N 
ATOM      5  C11 UNL     1      17.559  25.120  19.897  0.00  0.00    +0.304 C 
ATOM      6  O3  UNL     1      18.332  25.130  20.848  0.00  0.00    -0.252 OA
ATOM      7  N2  UNL     1      16.647  26.105  19.713  0.00  0.00    -0.288 N 
ATOM      8  C12 UNL     1      15.792  26.250  18.545  0.00  0.00    +0.146 C 
ATOM      9  H17 UNL     1      18.230  23.377  19.167  0.00  0.00    +0.156 HD
ATOM     10  H18 UNL     1      16.679  26.852  20.392  0.00  0.00    +0.151 HD
ENDROOT
BRANCH   8  11
ATOM     11  C13 UNL     1      16.158  27.519  17.800  0.00  0.00    +0.013 A 
ATOM     12  C14 UNL     1      17.455  27.737  17.302  0.00  0.00    +0.008 A 
ATOM     13  C15 UNL     1      17.761  28.908  16.603  0.00  0.00    +0.001 A 
ATOM     14  C16 UNL     1      16.780  29.874  16.389  0.00  0.00    +0.003 A 
ATOM     15  C17 UNL     1      15.489  29.670  16.874  0.00  0.00    +0.039 A 
ATOM     16  C18 UNL     1      15.191  28.502  17.569  0.00  0.00    +0.129 A 
ATOM     17  F1  UNL     1      13.940  28.329  18.020  0.00  0.00    -0.205 F 
ENDBRANCH   8  11
BRANCH   1  18
ATOM     18  C7  UNL     1      14.922  24.990  16.522  0.00  0.00    +0.339 C 
ATOM     19  O2  UNL     1      13.741  24.695  16.590  0.00  0.00    -0.245 OA
BRANCH  18  20
ATOM     20  O1  UNL     1      15.599  25.349  15.404  0.00  0.00    -0.461 OA
BRANCH  20  21
ATOM     21  C6  UNL     1      14.793  25.640  14.251  0.00  0.00    +0.232 C 
BRANCH  21  22
ATOM     22  C5  UNL     1      14.689  27.151  14.063  0.00  0.00    +0.041 C 
BRANCH  22  23
ATOM     23  C4  UNL     1      15.956  27.786  13.487  0.00  0.00    +0.003 C 
BRANCH  23  24
ATOM     24  C3  UNL     1      15.740  28.797  12.357  0.00  0.00    -0.000 C 
BRANCH  24  26
ATOM     25  C1  UNL     1      14.755  30.863  13.409  0.00  0.00    +0.004 C 
ATOM     26  C2  UNL     1      15.993  30.244  12.779  0.00  0.00    -0.003 C 
ENDBRANCH  24  26
ENDBRANCH  23  24
ENDBRANCH  22  23
ENDBRANCH  21  22
ENDBRANCH  20  21
ENDBRANCH  18  20
ENDBRANCH   1  18
TORSDOF 8
ENDMDL
MODEL 3
REMARK VINA RESULT:    -3.145      2.969      5.338
REMARK INTER + INTRA:          -7.032
REMARK INTER:                  -4.796
REMARK INTRA:                  -2.236
REMARK UNBOUND:                -2.416
REMARK  Name = /home/vital/Documents/PhD_2021/Malaria_codes/data/pdb_ligands_mmv/ligand_64.pdb
REMARK  10 active torsions:
REMARK  status: ('A' for Active; 'I' for Inactive)
REMARK    1  A    between atoms: C1_1  and  C2_2
REMARK    2  A    between atoms: C2_2  and  C3_3
REMARK    3  A    between atoms: C3_3  and  C4_4
REMARK    4  A    between atoms: C4_4  and  C5_5
REMARK    5  A    between atoms: C5_5  and  C6_6
REMARK    6  A    between atoms: C6_6  and  O1_7
REMARK    7  A    between atoms: O1_7  and  C7_8
REMARK    8  A    between atoms: C7_8  and  C8_10
REMARK    9  A    between atoms: C9_11  and  C10_12
REMARK   10  A    between atoms: C12_17  and  C13_18
REMARK                            x       y       z     vdW  Elec       q    Type
REMARK                         _______ _______ _______ _____ _____    ______ ____
ROOT
ATOM      1  C8  UNL     1      15.857  26.553  18.975  0.00  0.00    +0.078 C 
ATOM      2  C9  UNL     1      16.425  27.314  19.927  0.00  0.00    +0.021 C 
ATOM      3  C10 UNL     1      17.839  27.213  20.427  0.00  0.00    +0.061 C 
ATOM      4  N1  UNL     1      15.653  28.275  20.540  0.00  0.00    -0.273 N 
ATOM      5  C11 UNL     1      14.326  28.485  20.315  0.00  0.00    +0.304 C 
ATOM      6  O3  UNL     1      13.696  29.347  20.917  0.00  0.00    -0.252 OA
ATOM      7  N2  UNL     1      13.734  27.679  19.402  0.00  0.00    -0.288 N 
ATOM      8  C12 UNL     1      14.427  26.732  18.543  0.00  0.00    +0.146 C 
ATOM      9  H17 UNL     1      16.056  28.872  21.254  0.00  0.00    +0.156 HD
ATOM     10  H18 UNL     1      12.755  27.867  19.235  0.00  0.00    +0.151 HD
ENDROOT
BRANCH   8  11
ATOM     11  C13 UNL     1      14.294  27.164  17.095  0.00  0.00    +0.013 A 
ATOM     12  C14 UNL     1      14.515  28.495  16.696  0.00  0.00    +0.008 A 
ATOM     13  C15 UNL     1      14.402  28.863  15.354  0.00  0.00    +0.001 A 
ATOM     14  C16 UNL     1      14.071  27.911  14.390  0.00  0.00    +0.003 A 
ATOM     15  C17 UNL     1      13.852  26.588  14.770  0.00  0.00    +0.039 A 
ATOM     16  C18 UNL     1      13.966  26.228  16.110  0.00  0.00    +0.129 A 
ATOM     17  F1  UNL     1      13.756  24.948  16.447  0.00  0.00    -0.205 F 
ENDBRANCH   8  11
BRANCH   1  18
ATOM     18  C7  UNL     1      16.638  25.521  18.260  0.00  0.00    +0.339 C 
ATOM     19  O2  UNL     1      16.549  24.322  18.466  0.00  0.00    -0.245 OA
BRANCH  18  20
ATOM     20  O1  UNL     1      17.442  26.123  17.350  0.00  0.00    -0.461 OA
BRANCH  20  21
ATOM     21  C6  UNL     1      17.511  25.492  16.061  0.00  0.00    +0.232 C 
BRANCH  21  22
ATOM     22  C5  UNL     1      17.637  26.555  14.973  0.00  0.00    +0.041 C 
BRANCH  22  23
ATOM     23  C4  UNL     1      17.934  27.954  15.515  0.00  0.00    +0.003 C 
BRANCH  23  24
ATOM     24  C3  UNL     1      18.398  28.985  14.481  0.00  0.00    -0.000 C 
BRANCH  24  26
ATOM     25  C1  UNL     1      16.848  29.533  12.572  0.00  0.00    +0.004 C 
ATOM     26  C2  UNL     1      17.983  28.640  13.051  0.00  0.00    -0.003 C 
ENDBRANCH  24  26
ENDBRANCH  23  24
ENDBRANCH  22  23
ENDBRANCH  21  22
ENDBRANCH  20  21
ENDBRANCH  18  20
ENDBRANCH   1  18
TORSDOF 8
ENDMDL
MODEL 4
REMARK VINA RESULT:    -3.003      2.313      3.973
REMARK INTER + INTRA:          -6.823
REMARK INTER:                  -4.572
REMARK INTRA:                  -2.251
REMARK UNBOUND:                -2.416
REMARK  Name = /home/vital/Documents/PhD_2021/Malaria_codes/data/pdb_ligands_mmv/ligand_64.pdb
REMARK  10 active torsions:
REMARK  status: ('A' for Active; 'I' for Inactive)
REMARK    1  A    between atoms: C1_1  and  C2_2
REMARK    2  A    between atoms: C2_2  and  C3_3
REMARK    3  A    between atoms: C3_3  and  C4_4
REMARK    4  A    between atoms: C4_4  and  C5_5
REMARK    5  A    between atoms: C5_5  and  C6_6
REMARK    6  A    between atoms: C6_6  and  O1_7
REMARK    7  A    between atoms: O1_7  and  C7_8
REMARK    8  A    between atoms: C7_8  and  C8_10
REMARK    9  A    between atoms: C9_11  and  C10_12
REMARK   10  A    between atoms: C12_17  and  C13_18
REMARK                            x       y       z     vdW  Elec       q    Type
REMARK                         _______ _______ _______ _____ _____    ______ ____
ROOT
ATOM      1  C8  UNL     1      16.675  28.713  14.666  0.00  0.00    +0.078 C 
ATOM      2  C9  UNL     1      16.312  29.775  13.922  0.00  0.00    +0.021 C 
ATOM      3  C10 UNL     1      15.709  29.736  12.545  0.00  0.00    +0.061 C 
ATOM      4  N1  UNL     1      16.523  31.034  14.436  0.00  0.00    -0.273 N 
ATOM      5  C11 UNL     1      17.137  31.312  15.619  0.00  0.00    +0.304 C 
ATOM      6  O3  UNL     1      17.312  32.463  16.004  0.00  0.00    -0.252 OA
ATOM      7  N2  UNL     1      17.561  30.249  16.343  0.00  0.00    -0.288 N 
ATOM      8  C12 UNL     1      17.274  28.857  16.038  0.00  0.00    +0.146 C 
ATOM      9  H17 UNL     1      16.250  31.852  13.904  0.00  0.00    +0.156 HD
ATOM     10  H18 UNL     1      17.994  30.478  17.227  0.00  0.00    +0.151 HD
ENDROOT
BRANCH   8  11
ATOM     11  C13 UNL     1      16.404  28.263  17.130  0.00  0.00    +0.013 A 
ATOM     12  C14 UNL     1      15.076  28.681  17.328  0.00  0.00    +0.008 A 
ATOM     13  C15 UNL     1      14.291  28.106  18.330  0.00  0.00    +0.001 A 
ATOM     14  C16 UNL     1      14.818  27.107  19.147  0.00  0.00    +0.003 A 
ATOM     15  C17 UNL     1      16.131  26.680  18.961  0.00  0.00    +0.039 A 
ATOM     16  C18 UNL     1      16.908  27.257  17.961  0.00  0.00    +0.129 A 
ATOM     17  F1  UNL     1      18.167  26.825  17.800  0.00  0.00    -0.205 F 
ENDBRANCH   8  11
BRANCH   1  18
ATOM     18  C7  UNL     1      16.452  27.334  14.183  0.00  0.00    +0.339 C 
ATOM     19  O2  UNL     1      17.341  26.535  13.942  0.00  0.00    -0.245 OA
BRANCH  18  20
ATOM     20  O1  UNL     1      15.120  27.113  14.067  0.00  0.00    -0.461 OA
BRANCH  20  21
ATOM     21  C6  UNL     1      14.691  25.754  14.252  0.00  0.00    +0.232 C 
BRANCH  21  22
ATOM     22  C5  UNL     1      13.983  25.615  15.597  0.00  0.00    +0.041 C 
BRANCH  22  23
ATOM     23  C4  UNL     1      14.553  24.502  16.477  0.00  0.00    +0.003 C 
BRANCH  23  24
ATOM     24  C3  UNL     1      16.015  24.128  16.216  0.00  0.00    -0.000 C 
BRANCH  24  26
ATOM     25  C1  UNL     1      17.650  23.468  18.014  0.00  0.00    +0.004 C 
ATOM     26  C2  UNL     1      16.522  22.997  17.110  0.00  0.00    -0.003 C 
ENDBRANCH  24  26
ENDBRANCH  23  24
ENDBRANCH  22  23
ENDBRANCH  21  22
ENDBRANCH  20  21
ENDBRANCH  18  20
ENDBRANCH   1  18
TORSDOF 8
ENDMDL
MODEL 5
REMARK VINA RESULT:    -2.998      2.800      5.463
REMARK INTER + INTRA:          -6.816
REMARK INTER:                  -4.507
REMARK INTRA:                  -2.309
REMARK UNBOUND:                -2.416
REMARK  Name = /home/vital/Documents/PhD_2021/Malaria_codes/data/pdb_ligands_mmv/ligand_64.pdb
REMARK  10 active torsions:
REMARK  status: ('A' for Active; 'I' for Inactive)
REMARK    1  A    between atoms: C1_1  and  C2_2
REMARK    2  A    between atoms: C2_2  and  C3_3
REMARK    3  A    between atoms: C3_3  and  C4_4
REMARK    4  A    between atoms: C4_4  and  C5_5
REMARK    5  A    between atoms: C5_5  and  C6_6
REMARK    6  A    between atoms: C6_6  and  O1_7
REMARK    7  A    between atoms: O1_7  and  C7_8
REMARK    8  A    between atoms: C7_8  and  C8_10
REMARK    9  A    between atoms: C9_11  and  C10_12
REMARK   10  A    between atoms: C12_17  and  C13_18
REMARK                            x       y       z     vdW  Elec       q    Type
REMARK                         _______ _______ _______ _____ _____    ______ ____
ROOT
ATOM      1  C8  UNL     1      15.207  26.800  15.652  0.00  0.00    +0.078 C 
ATOM      2  C9  UNL     1      15.210  25.455  15.701  0.00  0.00    +0.021 C 
ATOM      3  C10 UNL     1      14.739  24.521  14.620  0.00  0.00    +0.061 C 
ATOM      4  N1  UNL     1      15.661  24.845  16.849  0.00  0.00    -0.273 N 
ATOM      5  C11 UNL     1      16.048  25.488  17.985  0.00  0.00    +0.304 C 
ATOM      6  O3  UNL     1      16.418  24.876  18.981  0.00  0.00    -0.252 OA
ATOM      7  N2  UNL     1      15.989  26.840  17.964  0.00  0.00    -0.288 N 
ATOM      8  C12 UNL     1      15.701  27.650  16.791  0.00  0.00    +0.146 C 
ATOM      9  H17 UNL     1      15.685  23.833  16.911  0.00  0.00    +0.156 HD
ATOM     10  H18 UNL     1      16.301  27.297  18.809  0.00  0.00    +0.151 HD
ENDROOT
BRANCH   8  11
ATOM     11  C13 UNL     1      16.920  28.476  16.429  0.00  0.00    +0.013 A 
ATOM     12  C14 UNL     1      18.130  27.878  16.033  0.00  0.00    +0.008 A 
ATOM     13  C15 UNL     1      19.233  28.663  15.690  0.00  0.00    +0.001 A 
ATOM     14  C16 UNL     1      19.145  30.054  15.733  0.00  0.00    +0.003 A 
ATOM     15  C17 UNL     1      17.952  30.661  16.120  0.00  0.00    +0.039 A 
ATOM     16  C18 UNL     1      16.856  29.873  16.462  0.00  0.00    +0.129 A 
ATOM     17  F1  UNL     1      15.719  30.483  16.825  0.00  0.00    -0.205 F 
ENDBRANCH   8  11
BRANCH   1  18
ATOM     18  C7  UNL     1      14.760  27.516  14.438  0.00  0.00    +0.339 C 
ATOM     19  O2  UNL     1      13.693  28.098  14.334  0.00  0.00    -0.245 OA
BRANCH  18  20
ATOM     20  O1  UNL     1      15.722  27.427  13.489  0.00  0.00    -0.461 OA
BRANCH  20  21
ATOM     21  C6  UNL     1      15.694  28.440  12.470  0.00  0.00    +0.232 C 
BRANCH  21  22
ATOM     22  C5  UNL     1      16.835  29.428  12.693  0.00  0.00    +0.041 C 
BRANCH  22  23
ATOM     23  C4  UNL     1      16.369  30.875  12.863  0.00  0.00    +0.003 C 
BRANCH  23  24
ATOM     24  C3  UNL     1      14.928  31.058  13.349  0.00  0.00    -0.000 C 
BRANCH  24  26
ATOM     25  C1  UNL     1      15.998  33.155  14.246  0.00  0.00    +0.004 C 
ATOM     26  C2  UNL     1      14.707  32.361  14.118  0.00  0.00    -0.003 C 
ENDBRANCH  24  26
ENDBRANCH  23  24
ENDBRANCH  22  23
ENDBRANCH  21  22
ENDBRANCH  20  21
ENDBRANCH  18  20
ENDBRANCH   1  18
TORSDOF 8
ENDMDL
MODEL 6
REMARK VINA RESULT:    -2.994      2.514      4.915
REMARK INTER + INTRA:          -6.810
REMARK INTER:                  -4.825
REMARK INTRA:                  -1.984
REMARK UNBOUND:                -2.416
REMARK  Name = /home/vital/Documents/PhD_2021/Malaria_codes/data/pdb_ligands_mmv/ligand_64.pdb
REMARK  10 active torsions:
REMARK  status: ('A' for Active; 'I' for Inactive)
REMARK    1  A    between atoms: C1_1  and  C2_2
REMARK    2  A    between atoms: C2_2  and  C3_3
REMARK    3  A    between atoms: C3_3  and  C4_4
REMARK    4  A    between atoms: C4_4  and  C5_5
REMARK    5  A    between atoms: C5_5  and  C6_6
REMARK    6  A    between atoms: C6_6  and  O1_7
REMARK    7  A    between atoms: O1_7  and  C7_8
REMARK    8  A    between atoms: C7_8  and  C8_10
REMARK    9  A    between atoms: C9_11  and  C10_12
REMARK   10  A    between atoms: C12_17  and  C13_18
REMARK                            x       y       z     vdW  Elec       q    Type
REMARK                         _______ _______ _______ _____ _____    ______ ____
ROOT
ATOM      1  C8  UNL     1      17.356  27.747  17.726  0.00  0.00    +0.078 C 
ATOM      2  C9  UNL     1      17.339  28.720  18.655  0.00  0.00    +0.021 C 
ATOM      3  C10 UNL     1      18.254  29.911  18.718  0.00  0.00    +0.061 C 
ATOM      4  N1  UNL     1      16.418  28.631  19.675  0.00  0.00    -0.273 N 
ATOM      5  C11 UNL     1      15.554  27.597  19.872  0.00  0.00    +0.304 C 
ATOM      6  O3  UNL     1      14.775  27.575  20.818  0.00  0.00    -0.252 OA
ATOM      7  N2  UNL     1      15.610  26.585  18.975  0.00  0.00    -0.288 N 
ATOM      8  C12 UNL     1      16.395  26.590  17.751  0.00  0.00    +0.146 C 
ATOM      9  H17 UNL     1      16.374  29.355  20.384  0.00  0.00    +0.156 HD
ATOM     10  H18 UNL     1      14.945  25.839  19.127  0.00  0.00    +0.151 HD
ENDROOT
BRANCH   8  11
ATOM     11  C13 UNL     1      15.469  26.563  16.550  0.00  0.00    +0.013 A 
ATOM     12  C14 UNL     1      14.519  27.575  16.323  0.00  0.00    +0.008 A 
ATOM     13  C15 UNL     1      13.690  27.535  15.201  0.00  0.00    +0.001 A 
ATOM     14  C16 UNL     1      13.796  26.487  14.287  0.00  0.00    +0.003 A 
ATOM     15  C17 UNL     1      14.734  25.478  14.496  0.00  0.00    +0.039 A 
ATOM     16  C18 UNL     1      15.558  25.524  15.617  0.00  0.00    +0.129 A 
ATOM     17  F1  UNL     1      16.455  24.544  15.791  0.00  0.00    -0.205 F 
ENDBRANCH   8  11
BRANCH   1  18
ATOM     18  C7  UNL     1      18.302  27.796  16.591  0.00  0.00    +0.339 C 
ATOM     19  O2  UNL     1      19.319  27.127  16.511  0.00  0.00    -0.245 OA
BRANCH  18  20
ATOM     20  O1  UNL     1      17.849  28.683  15.673  0.00  0.00    -0.461 OA
BRANCH  20  21
ATOM     21  C6  UNL     1      18.770  29.025  14.624  0.00  0.00    +0.232 C 
BRANCH  21  22
ATOM     22  C5  UNL     1      18.153  28.696  13.268  0.00  0.00    +0.041 C 
BRANCH  22  23
ATOM     23  C4  UNL     1      16.636  28.506  13.315  0.00  0.00    +0.003 C 
BRANCH  23  24
ATOM     24  C3  UNL     1      15.813  29.509  12.501  0.00  0.00    -0.000 C 
BRANCH  24  26
ATOM     25  C1  UNL     1      14.644  30.958  14.197  0.00  0.00    +0.004 C 
ATOM     26  C2  UNL     1      15.737  30.895  13.141  0.00  0.00    -0.003 C 
ENDBRANCH  24  26
ENDBRANCH  23  24
ENDBRANCH  22  23
ENDBRANCH  21  22
ENDBRANCH  20  21
ENDBRANCH  18  20
ENDBRANCH   1  18
TORSDOF 8
ENDMDL
MODEL 7
REMARK VINA RESULT:    -2.881      2.874      5.330
REMARK INTER + INTRA:          -6.645
REMARK INTER:                  -4.668
REMARK INTRA:                  -1.977
REMARK UNBOUND:                -2.416
REMARK  Name = /home/vital/Documents/PhD_2021/Malaria_codes/data/pdb_ligands_mmv/ligand_64.pdb
REMARK  10 active torsions:
REMARK  status: ('A' for Active; 'I' for Inactive)
REMARK    1  A    between atoms: C1_1  and  C2_2
REMARK    2  A    between atoms: C2_2  and  C3_3
REMARK    3  A    between atoms: C3_3  and  C4_4
REMARK    4  A    between atoms: C4_4  and  C5_5
REMARK    5  A    between atoms: C5_5  and  C6_6
REMARK    6  A    between atoms: C6_6  and  O1_7
REMARK    7  A    between atoms: O1_7  and  C7_8
REMARK    8  A    between atoms: C7_8  and  C8_10
REMARK    9  A    between atoms: C9_11  and  C10_12
REMARK   10  A    between atoms: C12_17  and  C13_18
REMARK                            x       y       z     vdW  Elec       q    Type
REMARK                         _______ _______ _______ _____ _____    ______ ____
ROOT
ATOM      1  C8  UNL     1      15.786  25.853  16.648  0.00  0.00    +0.078 C 
ATOM      2  C9  UNL     1      16.027  24.631  17.159  0.00  0.00    +0.021 C 
ATOM      3  C10 UNL     1      15.737  23.313  16.496  0.00  0.00    +0.061 C 
ATOM      4  N1  UNL     1      16.572  24.547  18.420  0.00  0.00    -0.273 N 
ATOM      5  C11 UNL     1      16.832  25.602  19.240  0.00  0.00    +0.304 C 
ATOM      6  O3  UNL     1      17.298  25.450  20.364  0.00  0.00    -0.252 OA
ATOM      7  N2  UNL     1      16.533  26.831  18.756  0.00  0.00    -0.288 N 
ATOM      8  C12 UNL     1      16.114  27.118  17.393  0.00  0.00    +0.146 C 
ATOM      9  H17 UNL     1      16.775  23.641  18.826  0.00  0.00    +0.156 HD
ATOM     10  H18 UNL     1      16.754  27.600  19.373  0.00  0.00    +0.151 HD
ENDROOT
BRANCH   8  11
ATOM     11  C13 UNL     1      17.169  27.958  16.701  0.00  0.00    +0.013 A 
ATOM     12  C14 UNL     1      18.305  27.379  16.107  0.00  0.00    +0.008 A 
ATOM     13  C15 UNL     1      19.254  28.175  15.460  0.00  0.00    +0.001 A 
ATOM     14  C16 UNL     1      19.083  29.557  15.395  0.00  0.00    +0.003 A 
ATOM     15  C17 UNL     1      17.962  30.145  15.976  0.00  0.00    +0.039 A 
ATOM     16  C18 UNL     1      17.020  29.347  16.619  0.00  0.00    +0.129 A 
ATOM     17  F1  UNL     1      15.947  29.937  17.165  0.00  0.00    -0.205 F 
ENDBRANCH   8  11
BRANCH   1  18
ATOM     18  C7  UNL     1      15.227  26.013  15.289  0.00  0.00    +0.339 C 
ATOM     19  O2  UNL     1      15.766  25.615  14.270  0.00  0.00    -0.245 OA
BRANCH  18  20
ATOM     20  O1  UNL     1      14.035  26.653  15.371  0.00  0.00    -0.461 OA
BRANCH  20  21
ATOM     21  C6  UNL     1      13.691  27.482  14.250  0.00  0.00    +0.232 C 
BRANCH  21  22
ATOM     22  C5  UNL     1      14.347  28.852  14.401  0.00  0.00    +0.041 C 
BRANCH  22  23
ATOM     23  C4  UNL     1      15.464  29.111  13.389  0.00  0.00    +0.003 C 
BRANCH  23  24
ATOM     24  C3  UNL     1      15.671  30.574  12.985  0.00  0.00    -0.000 C 
BRANCH  24  26
ATOM     25  C1  UNL     1      15.157  32.483  14.546  0.00  0.00    +0.004 C 
ATOM     26  C2  UNL     1      14.590  31.511  13.522  0.00  0.00    -0.003 C 
ENDBRANCH  24  26
ENDBRANCH  23  24
ENDBRANCH  22  23
ENDBRANCH  21  22
ENDBRANCH  20  21
ENDBRANCH  18  20
ENDBRANCH   1  18
TORSDOF 8
ENDMDL
MODEL 8
REMARK VINA RESULT:    -2.847      1.572      2.288
REMARK INTER + INTRA:          -6.595
REMARK INTER:                  -4.135
REMARK INTRA:                  -2.459
REMARK UNBOUND:                -2.416
REMARK  Name = /home/vital/Documents/PhD_2021/Malaria_codes/data/pdb_ligands_mmv/ligand_64.pdb
REMARK  10 active torsions:
REMARK  status: ('A' for Active; 'I' for Inactive)
REMARK    1  A    between atoms: C1_1  and  C2_2
REMARK    2  A    between atoms: C2_2  and  C3_3
REMARK    3  A    between atoms: C3_3  and  C4_4
REMARK    4  A    between atoms: C4_4  and  C5_5
REMARK    5  A    between atoms: C5_5  and  C6_6
REMARK    6  A    between atoms: C6_6  and  O1_7
REMARK    7  A    between atoms: O1_7  and  C7_8
REMARK    8  A    between atoms: C7_8  and  C8_10
REMARK    9  A    between atoms: C9_11  and  C10_12
REMARK   10  A    between atoms: C12_17  and  C13_18
REMARK                            x       y       z     vdW  Elec       q    Type
REMARK                         _______ _______ _______ _____ _____    ______ ____
ROOT
ATOM      1  C8  UNL     1      16.001  27.774  14.676  0.00  0.00    +0.078 C 
ATOM      2  C9  UNL     1      16.389  29.045  14.469  0.00  0.00    +0.021 C 
ATOM      3  C10 UNL     1      15.501  30.260  14.466  0.00  0.00    +0.061 C 
ATOM      4  N1  UNL     1      17.718  29.289  14.210  0.00  0.00    -0.273 N 
ATOM      5  C11 UNL     1      18.683  28.337  14.074  0.00  0.00    +0.304 C 
ATOM      6  O3  UNL     1      19.847  28.627  13.819  0.00  0.00    -0.252 OA
ATOM      7  N2  UNL     1      18.287  27.051  14.219  0.00  0.00    -0.288 N 
ATOM      8  C12 UNL     1      16.969  26.622  14.659  0.00  0.00    +0.146 C 
ATOM      9  H17 UNL     1      18.042  30.238  14.061  0.00  0.00    +0.156 HD
ATOM     10  H18 UNL     1      19.023  26.364  14.136  0.00  0.00    +0.151 HD
ENDROOT
BRANCH   8  11
ATOM     11  C13 UNL     1      17.081  25.921  15.999  0.00  0.00    +0.013 A 
ATOM     12  C14 UNL     1      17.824  26.467  17.061  0.00  0.00    +0.008 A 
ATOM     13  C15 UNL     1      17.897  25.809  18.291  0.00  0.00    +0.001 A 
ATOM     14  C16 UNL     1      17.229  24.600  18.480  0.00  0.00    +0.003 A 
ATOM     15  C17 UNL     1      16.486  24.048  17.439  0.00  0.00    +0.039 A 
ATOM     16  C18 UNL     1      16.418  24.709  16.215  0.00  0.00    +0.129 A 
ATOM     17  F1  UNL     1      15.692  24.159  15.232  0.00  0.00    -0.205 F 
ENDBRANCH   8  11
BRANCH   1  18
ATOM     18  C7  UNL     1      14.593  27.448  14.985  0.00  0.00    +0.339 C 
ATOM     19  O2  UNL     1      13.841  26.851  14.233  0.00  0.00    -0.245 OA
BRANCH  18  20
ATOM     20  O1  UNL     1      14.292  27.907  16.224  0.00  0.00    -0.461 OA
BRANCH  20  21
ATOM     21  C6  UNL     1      13.690  26.955  17.116  0.00  0.00    +0.232 C 
BRANCH  21  22
ATOM     22  C5  UNL     1      14.411  26.980  18.461  0.00  0.00    +0.041 C 
BRANCH  22  23
ATOM     23  C4  UNL     1      14.509  28.376  19.078  0.00  0.00    +0.003 C 
BRANCH  23  24
ATOM     24  C3  UNL     1      15.922  28.951  19.205  0.00  0.00    -0.000 C 
BRANCH  24  26
ATOM     25  C1  UNL     1      17.690  30.057  17.792  0.00  0.00    +0.004 C 
ATOM     26  C2  UNL     1      16.223  30.056  18.192  0.00  0.00    -0.003 C 
ENDBRANCH  24  26
ENDBRANCH  23  24
ENDBRANCH  22  23
ENDBRANCH  21  22
ENDBRANCH  20  21
ENDBRANCH  18  20
ENDBRANCH   1  18
TORSDOF 8
ENDMDL
MODEL 9
REMARK VINA RESULT:    -2.820      3.003      5.291
REMARK INTER + INTRA:          -6.554
REMARK INTER:                  -4.621
REMARK INTRA:                  -1.933
REMARK UNBOUND:                -2.416
REMARK  Name = /home/vital/Documents/PhD_2021/Malaria_codes/data/pdb_ligands_mmv/ligand_64.pdb
REMARK  10 active torsions:
REMARK  status: ('A' for Active; 'I' for Inactive)
REMARK    1  A    between atoms: C1_1  and  C2_2
REMARK    2  A    between atoms: C2_2  and  C3_3
REMARK    3  A    between atoms: C3_3  and  C4_4
REMARK    4  A    between atoms: C4_4  and  C5_5
REMARK    5  A    between atoms: C5_5  and  C6_6
REMARK    6  A    between atoms: C6_6  and  O1_7
REMARK    7  A    between atoms: O1_7  and  C7_8
REMARK    8  A    between atoms: C7_8  and  C8_10
REMARK    9  A    between atoms: C9_11  and  C10_12
REMARK   10  A    between atoms: C12_17  and  C13_18
REMARK                            x       y       z     vdW  Elec       q    Type
REMARK                         _______ _______ _______ _____ _____    ______ ____
ROOT
ATOM      1  C8  UNL     1      16.154  25.053  17.702  0.00  0.00    +0.078 C 
ATOM      2  C9  UNL     1      16.530  23.761  17.694  0.00  0.00    +0.021 C 
ATOM      3  C10 UNL     1      15.690  22.590  17.263  0.00  0.00    +0.061 C 
ATOM      4  N1  UNL     1      17.793  23.445  18.139  0.00  0.00    -0.273 N 
ATOM      5  C11 UNL     1      18.690  24.327  18.660  0.00  0.00    +0.304 C 
ATOM      6  O3  UNL     1      19.792  23.970  19.060  0.00  0.00    -0.252 OA
ATOM      7  N2  UNL     1      18.295  25.620  18.729  0.00  0.00    -0.288 N 
ATOM      8  C12 UNL     1      17.071  26.156  18.154  0.00  0.00    +0.146 C 
ATOM      9  H17 UNL     1      18.108  22.482  18.134  0.00  0.00    +0.156 HD
ATOM     10  H18 UNL     1      18.984  26.260  19.099  0.00  0.00    +0.151 HD
ENDROOT
BRANCH   8  11
ATOM     11  C13 UNL     1      17.414  27.134  17.047  0.00  0.00    +0.013 A 
ATOM     12  C14 UNL     1      17.942  26.705  15.816  0.00  0.00    +0.008 A 
ATOM     13  C15 UNL     1      18.233  27.625  14.807  0.00  0.00    +0.001 A 
ATOM     14  C16 UNL     1      18.000  28.985  15.008  0.00  0.00    +0.003 A 
ATOM     15  C17 UNL     1      17.474  29.425  16.221  0.00  0.00    +0.039 A 
ATOM     16  C18 UNL     1      17.187  28.503  17.223  0.00  0.00    +0.129 A 
ATOM     17  F1  UNL     1      16.677  28.953  18.378  0.00  0.00    -0.205 F 
ENDBRANCH   8  11
BRANCH   1  18
ATOM     18  C7  UNL     1      14.821  25.462  17.212  0.00  0.00    +0.339 C 
ATOM     19  O2  UNL     1      13.952  25.960  17.909  0.00  0.00    -0.245 OA
BRANCH  18  20
ATOM     20  O1  UNL     1      14.736  25.203  15.885  0.00  0.00    -0.461 OA
BRANCH  20  21
ATOM     21  C6  UNL     1      13.777  25.985  15.154  0.00  0.00    +0.232 C 
BRANCH  21  22
ATOM     22  C5  UNL     1      14.501  27.002  14.276  0.00  0.00    +0.041 C 
BRANCH  22  23
ATOM     23  C4  UNL     1      14.243  28.454  14.680  0.00  0.00    +0.003 C 
BRANCH  23  24
ATOM     24  C3  UNL     1      14.695  29.516  13.673  0.00  0.00    -0.000 C 
BRANCH  24  26
ATOM     25  C1  UNL     1      14.693  31.978  13.144  0.00  0.00    +0.004 C 
ATOM     26  C2  UNL     1      14.709  30.932  14.248  0.00  0.00    -0.003 C 
ENDBRANCH  24  26
ENDBRANCH  23  24
ENDBRANCH  22  23
ENDBRANCH  21  22
ENDBRANCH  20  21
ENDBRANCH  18  20
ENDBRANCH   1  18
TORSDOF 8
ENDMDL
