MODEL 1
REMARK VINA RESULT:    -3.234      0.000      0.000
REMARK INTER + INTRA:          -5.239
REMARK INTER:                  -4.085
REMARK INTRA:                  -1.154
REMARK UNBOUND:                -1.154
REMARK  Name = /home/vital/Documents/PhD_2021/Malaria_codes/data/pdb_ligands_mmv/ligand_198.pdb
REMARK  6 active torsions:
REMARK  status: ('A' for Active; 'I' for Inactive)
REMARK    1  A    between atoms: C1_1  and  C2_2
REMARK    2  A    between atoms: C2_2  and  C3_3
REMARK    3  A    between atoms: C3_3  and  O1_4
REMARK    4  A    between atoms: C3_3  and  C4_5
REMARK    5  A    between atoms: C9_11  and  N1_12
REMARK    6  A    between atoms: C10_13  and  C11_15
REMARK                            x       y       z     vdW  Elec       q    Type
REMARK                         _______ _______ _______ _____ _____    ______ ____
ROOT
ATOM      1  C4  UNL     1      15.893  25.521  17.258  0.00  0.00    +0.002 A 
ATOM      2  C5  UNL     1      16.305  24.390  17.992  0.00  0.00    +0.009 A 
ATOM      3  C6  UNL     1      17.381  24.459  18.875  0.00  0.00    +0.016 A 
ATOM      4  C7  UNL     1      18.055  25.662  19.038  0.00  0.00    +0.020 A 
ATOM      5 BR1  UNL     1      19.508  25.759  20.245  0.00  0.00    -0.050 Br
ATOM      6  C8  UNL     1      17.676  26.794  18.316  0.00  0.00    +0.039 A 
ATOM      7  C9  UNL     1      16.608  26.733  17.412  0.00  0.00    +0.040 A 
ENDROOT
BRANCH   7   8
ATOM      8  N1  UNL     1      16.223  27.838  16.621  0.00  0.00    -0.281 N 
ATOM      9  C10 UNL     1      15.725  29.058  17.026  0.00  0.00    +0.248 C 
ATOM     10  O2  UNL     1      15.500  29.418  18.174  0.00  0.00    -0.270 OA
ATOM     11  H11 UNL     1      16.478  27.734  15.639  0.00  0.00    +0.155 HD
BRANCH   9  12
ATOM     12  C11 UNL     1      15.458  30.028  15.924  0.00  0.00    +0.038 A 
ATOM     13  C12 UNL     1      14.949  29.618  14.682  0.00  0.00    +0.013 A 
ATOM     14  C13 UNL     1      14.706  30.562  13.680  0.00  0.00    +0.002 A 
ATOM     15  C14 UNL     1      14.962  31.912  13.917  0.00  0.00    +0.020 A 
ATOM     16  C15 UNL     1      15.453  32.318  15.158  0.00  0.00    +0.042 A 
ATOM     17 CL1  UNL     1      15.758  33.988  15.446  0.00  0.00    -0.084 Cl
ATOM     18  C16 UNL     1      15.697  31.386  16.163  0.00  0.00    +0.033 A 
ENDBRANCH   9  12
ENDBRANCH   7   8
BRANCH   1  19
ATOM     19  C3  UNL     1      14.652  25.376  16.387  0.00  0.00    +0.146 C 
BRANCH  19  21
ATOM     20  C1  UNL     1      15.109  25.802  13.899  0.00  0.00    +0.007 C 
ATOM     21  C2  UNL     1      14.945  24.772  15.005  0.00  0.00    +0.033 C 
ENDBRANCH  19  21
BRANCH  19  22
ATOM     22  O1  UNL     1      13.690  24.526  17.030  0.00  0.00    -0.387 OA
ATOM     23  H7  UNL     1      12.814  24.898  16.825  0.00  0.00    +0.210 HD
ENDBRANCH  19  22
ENDBRANCH   1  19
TORSDOF 5
ENDMDL
MODEL 2
REMARK VINA RESULT:    -3.196      2.084      2.213
REMARK INTER + INTRA:          -5.191
REMARK INTER:                  -3.970
REMARK INTRA:                  -1.221
REMARK UNBOUND:                -1.154
REMARK  Name = /home/vital/Documents/PhD_2021/Malaria_codes/data/pdb_ligands_mmv/ligand_198.pdb
REMARK  6 active torsions:
REMARK  status: ('A' for Active; 'I' for Inactive)
REMARK    1  A    between atoms: C1_1  and  C2_2
REMARK    2  A    between atoms: C2_2  and  C3_3
REMARK    3  A    between atoms: C3_3  and  O1_4
REMARK    4  A    between atoms: C3_3  and  C4_5
REMARK    5  A    between atoms: C9_11  and  N1_12
REMARK    6  A    between atoms: C10_13  and  C11_15
REMARK                            x       y       z     vdW  Elec       q    Type
REMARK                         _______ _______ _______ _____ _____    ______ ____
ROOT
ATOM      1  C4  UNL     1      16.741  24.398  16.990  0.00  0.00    +0.002 A 
ATOM      2  C5  UNL     1      17.281  23.170  17.423  0.00  0.00    +0.009 A 
ATOM      3  C6  UNL     1      18.639  23.043  17.713  0.00  0.00    +0.016 A 
ATOM      4  C7  UNL     1      19.472  24.146  17.576  0.00  0.00    +0.020 A 
ATOM      5 BR1  UNL     1      21.313  23.977  17.981  0.00  0.00    -0.050 Br
ATOM      6  C8  UNL     1      18.967  25.370  17.139  0.00  0.00    +0.039 A 
ATOM      7  C9  UNL     1      17.609  25.506  16.828  0.00  0.00    +0.040 A 
ENDROOT
BRANCH   7   8
ATOM      8  N1  UNL     1      17.063  26.710  16.331  0.00  0.00    -0.281 N 
ATOM      9  C10 UNL     1      17.235  27.290  15.091  0.00  0.00    +0.248 C 
ATOM     10  O2  UNL     1      17.925  26.870  14.171  0.00  0.00    -0.270 OA
ATOM     11  H11 UNL     1      16.354  27.111  16.945  0.00  0.00    +0.155 HD
BRANCH   9  12
ATOM     12  C11 UNL     1      16.473  28.554  14.874  0.00  0.00    +0.038 A 
ATOM     13  C12 UNL     1      15.699  28.765  13.722  0.00  0.00    +0.013 A 
ATOM     14  C13 UNL     1      14.994  29.961  13.564  0.00  0.00    +0.002 A 
ATOM     15  C14 UNL     1      15.053  30.942  14.553  0.00  0.00    +0.020 A 
ATOM     16  C15 UNL     1      15.809  30.722  15.704  0.00  0.00    +0.042 A 
ATOM     17 CL1  UNL     1      15.869  31.934  16.926  0.00  0.00    -0.084 Cl
ATOM     18  C16 UNL     1      16.514  29.533  15.873  0.00  0.00    +0.033 A 
ENDBRANCH   9  12
ENDBRANCH   7   8
BRANCH   1  19
ATOM     19  C3  UNL     1      15.234  24.468  16.785  0.00  0.00    +0.146 C 
BRANCH  19  21
ATOM     20  C1  UNL     1      14.168  25.306  14.609  0.00  0.00    +0.007 C 
ATOM     21  C2  UNL     1      14.799  24.139  15.349  0.00  0.00    +0.033 C 
ENDBRANCH  19  21
BRANCH  19  22
ATOM     22  O1  UNL     1      14.572  23.537  17.656  0.00  0.00    -0.387 OA
ATOM     23  H7  UNL     1      15.218  22.835  17.850  0.00  0.00    +0.210 HD
ENDBRANCH  19  22
ENDBRANCH   1  19
TORSDOF 5
ENDMDL
MODEL 3
REMARK VINA RESULT:    -3.182      3.543      6.331
REMARK INTER + INTRA:          -5.173
REMARK INTER:                  -3.648
REMARK INTRA:                  -1.526
REMARK UNBOUND:                -1.154
REMARK  Name = /home/vital/Documents/PhD_2021/Malaria_codes/data/pdb_ligands_mmv/ligand_198.pdb
REMARK  6 active torsions:
REMARK  status: ('A' for Active; 'I' for Inactive)
REMARK    1  A    between atoms: C1_1  and  C2_2
REMARK    2  A    between atoms: C2_2  and  C3_3
REMARK    3  A    between atoms: C3_3  and  O1_4
REMARK    4  A    between atoms: C3_3  and  C4_5
REMARK    5  A    between atoms: C9_11  and  N1_12
REMARK    6  A    between atoms: C10_13  and  C11_15
REMARK                            x       y       z     vdW  Elec       q    Type
REMARK                         _______ _______ _______ _____ _____    ______ ____
ROOT
ATOM      1  C4  UNL     1      15.366  31.638  15.089  0.00  0.00    +0.002 A 
ATOM      2  C5  UNL     1      15.453  33.020  15.357  0.00  0.00    +0.009 A 
ATOM      3  C6  UNL     1      15.817  33.487  16.619  0.00  0.00    +0.016 A 
ATOM      4  C7  UNL     1      16.104  32.576  17.627  0.00  0.00    +0.020 A 
ATOM      5 BR1  UNL     1      16.610  33.209  19.337  0.00  0.00    -0.050 Br
ATOM      6  C8  UNL     1      16.014  31.204  17.394  0.00  0.00    +0.039 A 
ATOM      7  C9  UNL     1      15.632  30.722  16.136  0.00  0.00    +0.040 A 
ENDROOT
BRANCH   7   8
ATOM      8  N1  UNL     1      15.477  29.344  15.869  0.00  0.00    -0.281 N 
ATOM      9  C10 UNL     1      16.406  28.331  15.987  0.00  0.00    +0.248 C 
ATOM     10  O2  UNL     1      17.574  28.440  16.338  0.00  0.00    -0.270 OA
ATOM     11  H11 UNL     1      14.509  29.078  15.691  0.00  0.00    +0.155 HD
BRANCH   9  12
ATOM     12  C11 UNL     1      15.897  26.967  15.663  0.00  0.00    +0.038 A 
ATOM     13  C12 UNL     1      15.422  26.637  14.384  0.00  0.00    +0.013 A 
ATOM     14  C13 UNL     1      14.962  25.344  14.122  0.00  0.00    +0.002 A 
ATOM     15  C14 UNL     1      14.980  24.379  15.128  0.00  0.00    +0.020 A 
ATOM     16  C15 UNL     1      15.468  24.705  16.394  0.00  0.00    +0.042 A 
ATOM     17 CL1  UNL     1      15.497  23.506  17.628  0.00  0.00    -0.084 Cl
ATOM     18  C16 UNL     1      15.931  25.990  16.665  0.00  0.00    +0.033 A 
ENDBRANCH   9  12
ENDBRANCH   7   8
BRANCH   1  19
ATOM     19  C3  UNL     1      15.050  31.220  13.660  0.00  0.00    +0.146 C 
BRANCH  19  21
ATOM     20  C1  UNL     1      16.315  29.504  12.233  0.00  0.00    +0.007 C 
ATOM     21  C2  UNL     1      16.303  30.903  12.828  0.00  0.00    +0.033 C 
ENDBRANCH  19  21
BRANCH  19  22
ATOM     22  O1  UNL     1      14.226  30.044  13.657  0.00  0.00    -0.387 OA
ATOM     23  H7  UNL     1      14.323  29.639  14.537  0.00  0.00    +0.210 HD
ENDBRANCH  19  22
ENDBRANCH   1  19
TORSDOF 5
ENDMDL
MODEL 4
REMARK VINA RESULT:    -3.163     22.154     24.167
REMARK INTER + INTRA:          -5.149
REMARK INTER:                  -3.562
REMARK INTRA:                  -1.587
REMARK UNBOUND:                -1.154
REMARK  Name = /home/vital/Documents/PhD_2021/Malaria_codes/data/pdb_ligands_mmv/ligand_198.pdb
REMARK  6 active torsions:
REMARK  status: ('A' for Active; 'I' for Inactive)
REMARK    1  A    between atoms: C1_1  and  C2_2
REMARK    2  A    between atoms: C2_2  and  C3_3
REMARK    3  A    between atoms: C3_3  and  O1_4
REMARK    4  A    between atoms: C3_3  and  C4_5
REMARK    5  A    between atoms: C9_11  and  N1_12
REMARK    6  A    between atoms: C10_13  and  C11_15
REMARK                            x       y       z     vdW  Elec       q    Type
REMARK                         _______ _______ _______ _____ _____    ______ ____
ROOT
ATOM      1  C4  UNL     1      16.132  44.975  33.762  0.00  0.00    +0.002 A 
ATOM      2  C5  UNL     1      14.861  44.437  34.050  0.00  0.00    +0.009 A 
ATOM      3  C6  UNL     1      14.252  43.528  33.187  0.00  0.00    +0.016 A 
ATOM      4  C7  UNL     1      14.912  43.140  32.027  0.00  0.00    +0.020 A 
ATOM      5 BR1  UNL     1      14.092  41.896  30.862  0.00  0.00    -0.050 Br
ATOM      6  C8  UNL     1      16.165  43.664  31.712  0.00  0.00    +0.039 A 
ATOM      7  C9  UNL     1      16.779  44.592  32.562  0.00  0.00    +0.040 A 
ENDROOT
BRANCH   7   8
ATOM      8  N1  UNL     1      18.023  45.189  32.258  0.00  0.00    -0.281 N 
ATOM      9  C10 UNL     1      19.272  44.607  32.213  0.00  0.00    +0.248 C 
ATOM     10  O2  UNL     1      19.550  43.438  32.450  0.00  0.00    -0.270 OA
ATOM     11  H11 UNL     1      17.933  46.143  31.907  0.00  0.00    +0.155 HD
BRANCH   9  12
ATOM     12  C11 UNL     1      20.380  45.522  31.811  0.00  0.00    +0.038 A 
ATOM     13  C12 UNL     1      21.223  46.126  32.757  0.00  0.00    +0.013 A 
ATOM     14  C13 UNL     1      22.254  46.970  32.336  0.00  0.00    +0.002 A 
ATOM     15  C14 UNL     1      22.451  47.206  30.975  0.00  0.00    +0.020 A 
ATOM     16  C15 UNL     1      21.622  46.591  30.037  0.00  0.00    +0.042 A 
ATOM     17 CL1  UNL     1      21.877  46.879  28.359  0.00  0.00    -0.084 Cl
ATOM     18  C16 UNL     1      20.593  45.747  30.446  0.00  0.00    +0.033 A 
ENDBRANCH   9  12
ENDBRANCH   7   8
BRANCH   1  19
ATOM     19  C3  UNL     1      16.758  45.890  34.806  0.00  0.00    +0.146 C 
BRANCH  19  21
ATOM     20  C1  UNL     1      19.002  46.034  36.041  0.00  0.00    +0.007 C 
ATOM     21  C2  UNL     1      17.792  45.181  35.695  0.00  0.00    +0.033 C 
ENDBRANCH  19  21
BRANCH  19  22
ATOM     22  O1  UNL     1      17.426  46.988  34.167  0.00  0.00    -0.387 OA
ATOM     23  H7  UNL     1      17.659  47.617  34.874  0.00  0.00    +0.210 HD
ENDBRANCH  19  22
ENDBRANCH   1  19
TORSDOF 5
ENDMDL
MODEL 5
REMARK VINA RESULT:    -3.136     16.340     18.532
REMARK INTER + INTRA:          -5.115
REMARK INTER:                  -3.522
REMARK INTRA:                  -1.592
REMARK UNBOUND:                -1.154
REMARK  Name = /home/vital/Documents/PhD_2021/Malaria_codes/data/pdb_ligands_mmv/ligand_198.pdb
REMARK  6 active torsions:
REMARK  status: ('A' for Active; 'I' for Inactive)
REMARK    1  A    between atoms: C1_1  and  C2_2
REMARK    2  A    between atoms: C2_2  and  C3_3
REMARK    3  A    between atoms: C3_3  and  O1_4
REMARK    4  A    between atoms: C3_3  and  C4_5
REMARK    5  A    between atoms: C9_11  and  N1_12
REMARK    6  A    between atoms: C10_13  and  C11_15
REMARK                            x       y       z     vdW  Elec       q    Type
REMARK                         _______ _______ _______ _____ _____    ______ ____
ROOT
ATOM      1  C4  UNL     1      20.313  43.688  20.000  0.00  0.00    +0.002 A 
ATOM      2  C5  UNL     1      19.648  43.269  21.171  0.00  0.00    +0.009 A 
ATOM      3  C6  UNL     1      19.297  44.181  22.165  0.00  0.00    +0.016 A 
ATOM      4  C7  UNL     1      19.604  45.525  21.997  0.00  0.00    +0.020 A 
ATOM      5 BR1  UNL     1      19.118  46.766  23.340  0.00  0.00    -0.050 Br
ATOM      6  C8  UNL     1      20.272  45.966  20.855  0.00  0.00    +0.039 A 
ATOM      7  C9  UNL     1      20.645  45.057  19.857  0.00  0.00    +0.040 A 
ENDROOT
BRANCH   7   8
ATOM      8  N1  UNL     1      21.369  45.448  18.709  0.00  0.00    -0.281 N 
ATOM      9  C10 UNL     1      20.982  46.295  17.691  0.00  0.00    +0.248 C 
ATOM     10  O2  UNL     1      19.905  46.867  17.578  0.00  0.00    -0.270 OA
ATOM     11  H11 UNL     1      22.344  45.152  18.731  0.00  0.00    +0.155 HD
BRANCH   9  12
ATOM     12  C11 UNL     1      22.014  46.531  16.640  0.00  0.00    +0.038 A 
ATOM     13  C12 UNL     1      23.295  47.011  16.953  0.00  0.00    +0.013 A 
ATOM     14  C13 UNL     1      24.234  47.210  15.938  0.00  0.00    +0.002 A 
ATOM     15  C14 UNL     1      23.901  46.926  14.614  0.00  0.00    +0.020 A 
ATOM     16  C15 UNL     1      22.632  46.434  14.308  0.00  0.00    +0.042 A 
ATOM     17 CL1  UNL     1      22.231  46.077  12.672  0.00  0.00    -0.084 Cl
ATOM     18  C16 UNL     1      21.689  46.230  15.312  0.00  0.00    +0.033 A 
ENDBRANCH   9  12
ENDBRANCH   7   8
BRANCH   1  19
ATOM     19  C3  UNL     1      20.575  42.637  18.929  0.00  0.00    +0.146 C 
BRANCH  19  21
ATOM     20  C1  UNL     1      20.197  42.746  16.395  0.00  0.00    +0.007 C 
ATOM     21  C2  UNL     1      19.562  42.681  17.775  0.00  0.00    +0.033 C 
ENDBRANCH  19  21
BRANCH  19  22
ATOM     22  O1  UNL     1      21.880  42.822  18.361  0.00  0.00    -0.387 OA
ATOM     23  H7  UNL     1      21.923  43.751  18.069  0.00  0.00    +0.210 HD
ENDBRANCH  19  22
ENDBRANCH   1  19
TORSDOF 5
ENDMDL
MODEL 6
REMARK VINA RESULT:    -2.992      3.581      6.505
REMARK INTER + INTRA:          -4.932
REMARK INTER:                  -3.394
REMARK INTRA:                  -1.538
REMARK UNBOUND:                -1.154
REMARK  Name = /home/vital/Documents/PhD_2021/Malaria_codes/data/pdb_ligands_mmv/ligand_198.pdb
REMARK  6 active torsions:
REMARK  status: ('A' for Active; 'I' for Inactive)
REMARK    1  A    between atoms: C1_1  and  C2_2
REMARK    2  A    between atoms: C2_2  and  C3_3
REMARK    3  A    between atoms: C3_3  and  O1_4
REMARK    4  A    between atoms: C3_3  and  C4_5
REMARK    5  A    between atoms: C9_11  and  N1_12
REMARK    6  A    between atoms: C10_13  and  C11_15
REMARK                            x       y       z     vdW  Elec       q    Type
REMARK                         _______ _______ _______ _____ _____    ______ ____
ROOT
ATOM      1  C4  UNL     1      14.416  26.780  16.054  0.00  0.00    +0.002 A 
ATOM      2  C5  UNL     1      13.844  27.713  15.165  0.00  0.00    +0.009 A 
ATOM      3  C6  UNL     1      14.235  29.051  15.175  0.00  0.00    +0.016 A 
ATOM      4  C7  UNL     1      15.208  29.471  16.073  0.00  0.00    +0.020 A 
ATOM      5 BR1  UNL     1      15.747  31.284  16.080  0.00  0.00    -0.050 Br
ATOM      6  C8  UNL     1      15.782  28.573  16.972  0.00  0.00    +0.039 A 
ATOM      7  C9  UNL     1      15.386  27.230  16.983  0.00  0.00    +0.040 A 
ENDROOT
BRANCH   7   8
ATOM      8  N1  UNL     1      15.901  26.296  17.910  0.00  0.00    -0.281 N 
ATOM      9  C10 UNL     1      17.172  25.766  17.986  0.00  0.00    +0.248 C 
ATOM     10  O2  UNL     1      18.112  25.996  17.236  0.00  0.00    -0.270 OA
ATOM     11  H11 UNL     1      15.264  26.109  18.684  0.00  0.00    +0.155 HD
BRANCH   9  12
ATOM     12  C11 UNL     1      17.398  24.829  19.124  0.00  0.00    +0.038 A 
ATOM     13  C12 UNL     1      17.367  23.436  18.957  0.00  0.00    +0.013 A 
ATOM     14  C13 UNL     1      17.593  22.596  20.049  0.00  0.00    +0.002 A 
ATOM     15  C14 UNL     1      17.856  23.141  21.306  0.00  0.00    +0.020 A 
ATOM     16  C15 UNL     1      17.902  24.525  21.467  0.00  0.00    +0.042 A 
ATOM     17 CL1  UNL     1      18.236  25.190  23.019  0.00  0.00    -0.084 Cl
ATOM     18  C16 UNL     1      17.680  25.372  20.384  0.00  0.00    +0.033 A 
ENDBRANCH   9  12
ENDBRANCH   7   8
BRANCH   1  19
ATOM     19  C3  UNL     1      13.995  25.324  15.909  0.00  0.00    +0.146 C 
BRANCH  19  21
ATOM     20  C1  UNL     1      15.450  23.216  15.784  0.00  0.00    +0.007 C 
ATOM     21  C2  UNL     1      14.984  24.484  15.087  0.00  0.00    +0.033 C 
ENDBRANCH  19  21
BRANCH  19  22
ATOM     22  O1  UNL     1      13.882  24.709  17.201  0.00  0.00    -0.387 OA
ATOM     23  H7  UNL     1      14.725  24.878  17.660  0.00  0.00    +0.210 HD
ENDBRANCH  19  22
ENDBRANCH   1  19
TORSDOF 5
ENDMDL
MODEL 7
REMARK VINA RESULT:    -2.855      3.812      6.175
REMARK INTER + INTRA:          -4.760
REMARK INTER:                  -3.179
REMARK INTRA:                  -1.581
REMARK UNBOUND:                -1.154
REMARK  Name = /home/vital/Documents/PhD_2021/Malaria_codes/data/pdb_ligands_mmv/ligand_198.pdb
REMARK  6 active torsions:
REMARK  status: ('A' for Active; 'I' for Inactive)
REMARK    1  A    between atoms: C1_1  and  C2_2
REMARK    2  A    between atoms: C2_2  and  C3_3
REMARK    3  A    between atoms: C3_3  and  O1_4
REMARK    4  A    between atoms: C3_3  and  C4_5
REMARK    5  A    between atoms: C9_11  and  N1_12
REMARK    6  A    between atoms: C10_13  and  C11_15
REMARK                            x       y       z     vdW  Elec       q    Type
REMARK                         _______ _______ _______ _____ _____    ______ ____
ROOT
ATOM      1  C4  UNL     1      17.614  30.693  16.101  0.00  0.00    +0.002 A 
ATOM      2  C5  UNL     1      18.346  31.887  16.265  0.00  0.00    +0.009 A 
ATOM      3  C6  UNL     1      19.740  31.888  16.234  0.00  0.00    +0.016 A 
ATOM      4  C7  UNL     1      20.418  30.692  16.034  0.00  0.00    +0.020 A 
ATOM      5 BR1  UNL     1      22.309  30.694  15.979  0.00  0.00    -0.050 Br
ATOM      6  C8  UNL     1      19.721  29.495  15.880  0.00  0.00    +0.039 A 
ATOM      7  C9  UNL     1      18.321  29.478  15.927  0.00  0.00    +0.040 A 
ENDROOT
BRANCH   7   8
ATOM      8  N1  UNL     1      17.575  28.283  15.830  0.00  0.00    -0.281 N 
ATOM      9  C10 UNL     1      17.507  27.390  14.781  0.00  0.00    +0.248 C 
ATOM     10  O2  UNL     1      18.082  27.474  13.703  0.00  0.00    -0.270 OA
ATOM     11  H11 UNL     1      17.142  28.009  16.711  0.00  0.00    +0.155 HD
BRANCH   9  12
ATOM     12  C11 UNL     1      16.648  26.195  15.024  0.00  0.00    +0.038 A 
ATOM     13  C12 UNL     1      15.558  25.884  14.197  0.00  0.00    +0.013 A 
ATOM     14  C13 UNL     1      14.785  24.750  14.457  0.00  0.00    +0.002 A 
ATOM     15  C14 UNL     1      15.100  23.922  15.534  0.00  0.00    +0.020 A 
ATOM     16  C15 UNL     1      16.194  24.224  16.344  0.00  0.00    +0.042 A 
ATOM     17 CL1  UNL     1      16.583  23.192  17.666  0.00  0.00    -0.084 Cl
ATOM     18  C16 UNL     1      16.973  25.351  16.094  0.00  0.00    +0.033 A 
ENDBRANCH   9  12
ENDBRANCH   7   8
BRANCH   1  19
ATOM     19  C3  UNL     1      16.096  30.802  16.057  0.00  0.00    +0.146 C 
BRANCH  19  21
ATOM     20  C1  UNL     1      14.488  29.693  14.396  0.00  0.00    +0.007 C 
ATOM     21  C2  UNL     1      15.526  30.778  14.631  0.00  0.00    +0.033 C 
ENDBRANCH  19  21
BRANCH  19  22
ATOM     22  O1  UNL     1      15.499  29.710  16.774  0.00  0.00    -0.387 OA
ATOM     23  H7  UNL     1      14.921  30.109  17.449  0.00  0.00    +0.210 HD
ENDBRANCH  19  22
ENDBRANCH   1  19
TORSDOF 5
ENDMDL
MODEL 8
REMARK VINA RESULT:    -2.806      3.550      4.589
REMARK INTER + INTRA:          -4.697
REMARK INTER:                  -3.047
REMARK INTRA:                  -1.651
REMARK UNBOUND:                -1.154
REMARK  Name = /home/vital/Documents/PhD_2021/Malaria_codes/data/pdb_ligands_mmv/ligand_198.pdb
REMARK  6 active torsions:
REMARK  status: ('A' for Active; 'I' for Inactive)
REMARK    1  A    between atoms: C1_1  and  C2_2
REMARK    2  A    between atoms: C2_2  and  C3_3
REMARK    3  A    between atoms: C3_3  and  O1_4
REMARK    4  A    between atoms: C3_3  and  C4_5
REMARK    5  A    between atoms: C9_11  and  N1_12
REMARK    6  A    between atoms: C10_13  and  C11_15
REMARK                            x       y       z     vdW  Elec       q    Type
REMARK                         _______ _______ _______ _____ _____    ______ ____
ROOT
ATOM      1  C4  UNL     1      15.765  26.683  14.261  0.00  0.00    +0.002 A 
ATOM      2  C5  UNL     1      14.855  25.624  14.066  0.00  0.00    +0.009 A 
ATOM      3  C6  UNL     1      14.909  24.475  14.853  0.00  0.00    +0.016 A 
ATOM      4  C7  UNL     1      15.871  24.375  15.850  0.00  0.00    +0.020 A 
ATOM      5 BR1  UNL     1      15.937  22.821  16.927  0.00  0.00    -0.050 Br
ATOM      6  C8  UNL     1      16.791  25.403  16.058  0.00  0.00    +0.039 A 
ATOM      7  C9  UNL     1      16.758  26.554  15.262  0.00  0.00    +0.040 A 
ENDROOT
BRANCH   7   8
ATOM      8  N1  UNL     1      17.701  27.597  15.400  0.00  0.00    -0.281 N 
ATOM      9  C10 UNL     1      17.858  28.486  16.442  0.00  0.00    +0.248 C 
ATOM     10  O2  UNL     1      17.183  28.554  17.461  0.00  0.00    -0.270 OA
ATOM     11  H11 UNL     1      18.424  27.580  14.681  0.00  0.00    +0.155 HD
BRANCH   9  12
ATOM     12  C11 UNL     1      18.992  29.444  16.289  0.00  0.00    +0.038 A 
ATOM     13  C12 UNL     1      19.361  29.963  15.039  0.00  0.00    +0.013 A 
ATOM     14  C13 UNL     1      20.425  30.864  14.943  0.00  0.00    +0.002 A 
ATOM     15  C14 UNL     1      21.115  31.253  16.090  0.00  0.00    +0.020 A 
ATOM     16  C15 UNL     1      20.735  30.749  17.334  0.00  0.00    +0.042 A 
ATOM     17 CL1  UNL     1      21.586  31.242  18.747  0.00  0.00    -0.084 Cl
ATOM     18  C16 UNL     1      19.676  29.851  17.441  0.00  0.00    +0.033 A 
ENDBRANCH   9  12
ENDBRANCH   7   8
BRANCH   1  19
ATOM     19  C3  UNL     1      15.573  27.936  13.416  0.00  0.00    +0.146 C 
BRANCH  19  21
ATOM     20  C1  UNL     1      15.442  30.445  13.928  0.00  0.00    +0.007 C 
ATOM     21  C2  UNL     1      14.847  29.066  14.160  0.00  0.00    +0.033 C 
ENDBRANCH  19  21
BRANCH  19  22
ATOM     22  O1  UNL     1      16.846  28.450  12.995  0.00  0.00    -0.387 OA
ATOM     23  H7  UNL     1      16.775  29.421  13.032  0.00  0.00    +0.210 HD
ENDBRANCH  19  22
ENDBRANCH   1  19
TORSDOF 5
ENDMDL
MODEL 9
REMARK VINA RESULT:    -2.787     18.864     20.887
REMARK INTER + INTRA:          -4.673
REMARK INTER:                  -3.012
REMARK INTRA:                  -1.661
REMARK UNBOUND:                -1.154
REMARK  Name = /home/vital/Documents/PhD_2021/Malaria_codes/data/pdb_ligands_mmv/ligand_198.pdb
REMARK  6 active torsions:
REMARK  status: ('A' for Active; 'I' for Inactive)
REMARK    1  A    between atoms: C1_1  and  C2_2
REMARK    2  A    between atoms: C2_2  and  C3_3
REMARK    3  A    between atoms: C3_3  and  O1_4
REMARK    4  A    between atoms: C3_3  and  C4_5
REMARK    5  A    between atoms: C9_11  and  N1_12
REMARK    6  A    between atoms: C10_13  and  C11_15
REMARK                            x       y       z     vdW  Elec       q    Type
REMARK                         _______ _______ _______ _____ _____    ______ ____
ROOT
ATOM      1  C4  UNL     1      21.740  46.586  16.523  0.00  0.00    +0.002 A 
ATOM      2  C5  UNL     1      21.431  46.509  15.149  0.00  0.00    +0.009 A 
ATOM      3  C6  UNL     1      22.434  46.564  14.183  0.00  0.00    +0.016 A 
ATOM      4  C7  UNL     1      23.759  46.691  14.580  0.00  0.00    +0.020 A 
ATOM      5 BR1  UNL     1      25.121  46.753  13.269  0.00  0.00    -0.050 Br
ATOM      6  C8  UNL     1      24.092  46.781  15.931  0.00  0.00    +0.039 A 
ATOM      7  C9  UNL     1      23.092  46.745  16.911  0.00  0.00    +0.040 A 
ENDROOT
BRANCH   7   8
ATOM      8  N1  UNL     1      23.376  46.886  18.287  0.00  0.00    -0.281 N 
ATOM      9  C10 UNL     1      24.016  46.003  19.132  0.00  0.00    +0.248 C 
ATOM     10  O2  UNL     1      24.453  44.895  18.846  0.00  0.00    -0.270 OA
ATOM     11  H11 UNL     1      23.187  47.823  18.641  0.00  0.00    +0.155 HD
BRANCH   9  12
ATOM     12  C11 UNL     1      24.194  46.485  20.532  0.00  0.00    +0.038 A 
ATOM     13  C12 UNL     1      23.174  47.163  21.219  0.00  0.00    +0.013 A 
ATOM     14  C13 UNL     1      23.381  47.590  22.533  0.00  0.00    +0.002 A 
ATOM     15  C14 UNL     1      24.598  47.337  23.166  0.00  0.00    +0.020 A 
ATOM     16  C15 UNL     1      25.604  46.649  22.486  0.00  0.00    +0.042 A 
ATOM     17 CL1  UNL     1      27.099  46.332  23.277  0.00  0.00    -0.084 Cl
ATOM     18  C16 UNL     1      25.407  46.217  21.177  0.00  0.00    +0.033 A 
ENDBRANCH   9  12
ENDBRANCH   7   8
BRANCH   1  19
ATOM     19  C3  UNL     1      20.590  46.426  17.509  0.00  0.00    +0.146 C 
BRANCH  19  21
ATOM     20  C1  UNL     1      20.282  45.002  19.619  0.00  0.00    +0.007 C 
ATOM     21  C2  UNL     1      20.500  45.018  18.115  0.00  0.00    +0.033 C 
ENDBRANCH  19  21
BRANCH  19  22
ATOM     22  O1  UNL     1      20.737  47.351  18.597  0.00  0.00    -0.387 OA
ATOM     23  H7  UNL     1      20.558  48.236  18.232  0.00  0.00    +0.210 HD
ENDBRANCH  19  22
ENDBRANCH   1  19
TORSDOF 5
ENDMDL
