ROOT
ATOM      1  C1  LIG A   1       4.730  -0.109   0.645  1.00  0.00     0.078 C 
ATOM      2  O2  LIG A   1       3.635   0.774   0.442  1.00  0.00    -0.493 OA
ATOM      3  C3  LIG A   1       2.378   0.226   0.427  1.00  0.00     0.163 C 
ATOM      4  C4  LIG A   1       2.108  -1.136   0.395  1.00  0.00    -0.015 C 
ATOM      5  C5  LIG A   1       0.785  -1.577   0.374  1.00  0.00    -0.045 C 
ATOM      6  C6  LIG A   1      -0.295  -0.669   0.386  1.00  0.00     0.047 C 
ATOM      7  C7  LIG A   1      -1.636  -1.110   0.362  1.00  0.00     0.141 C 
ATOM      8  O8  LIG A   1      -1.917  -2.462   0.347  1.00  0.00    -0.495 OA
ATOM      9  C9  LIG A   1      -2.314  -2.867  -0.964  1.00  0.00     0.078 C 
ATOM     10 C10  LIG A   1      -2.662  -0.160   0.440  1.00  0.00     0.083 C 
ATOM     11 C11  LIG A   1      -4.081  -0.161   0.506  1.00  0.00    -0.010 C 
ATOM     12 C12  LIG A   1      -4.462   1.160   0.558  1.00  0.00     0.094 C 
ATOM     13 O13  LIG A   1      -3.374   1.972   0.532  1.00  0.00    -0.446 OA
ATOM     14 C14  LIG A   1      -2.273   1.171   0.472  1.00  0.00     0.230 C 
ATOM     15 N15  LIG A   1      -1.023   1.649   0.447  1.00  0.00    -0.208 NA
ATOM     16 C16  LIG A   1      -0.044   0.723   0.421  1.00  0.00     0.124 C 
ATOM     17 C17  LIG A   1       1.300   1.132   0.423  1.00  0.00     0.187 C 
ATOM     18 O18  LIG A   1       1.598   2.483   0.507  1.00  0.00    -0.491 OA
ATOM     19 C19  LIG A   1       1.584   3.067  -0.795  1.00  0.00     0.078 C 
ATOM     20 H20  LIG A   1       4.856  -0.780  -0.210  1.00  0.00     0.067 HD
ATOM     21 H21  LIG A   1       5.637   0.498   0.727  1.00  0.00     0.067 HD
ATOM     22 H22  LIG A   1       4.621  -0.672   1.578  1.00  0.00     0.067 HD
ATOM     23 H23  LIG A   1       2.896  -1.881   0.384  1.00  0.00     0.066 HD
ATOM     24 H24  LIG A   1       0.596  -2.650   0.357  1.00  0.00     0.063 HD
ATOM     25 H25  LIG A   1      -2.383  -3.959  -0.969  1.00  0.00     0.067 HD
ATOM     26 H26  LIG A   1      -1.574  -2.571  -1.717  1.00  0.00     0.067 HD
ATOM     27 H27  LIG A   1      -3.299  -2.465  -1.220  1.00  0.00     0.067 HD
ATOM     28 H28  LIG A   1      -4.738  -1.018   0.518  1.00  0.00     0.067 HD
ATOM     29 H29  LIG A   1      -5.417   1.664   0.616  1.00  0.00     0.104 HD
ATOM     30 H30  LIG A   1       1.896   4.111  -0.695  1.00  0.00     0.067 HD
ATOM     31 H31  LIG A   1       2.292   2.566  -1.465  1.00  0.00     0.067 HD
ATOM     32 H32  LIG A   1       0.580   3.056  -1.230  1.00  0.00     0.067 HD
ENDROOT
TORSDOF 0
