ROOT
ATOM      1  O1  LIG A   1       4.196  -0.362  -0.473  1.00  0.00    -0.247 OA
ATOM      2  C2  LIG A   1       3.616   0.442   0.230  1.00  0.00     0.328 C 
ATOM      3  O3  LIG A   1       4.269   1.373   0.944  1.00  0.00    -0.478 OA
ATOM      4  C4  LIG A   1       2.169   0.566   0.444  1.00  0.00     0.024 C 
ATOM      5  C5  LIG A   1       1.333  -0.284  -0.170  1.00  0.00    -0.048 C 
ATOM      6  C6  LIG A   1      -0.130  -0.240  -0.037  1.00  0.00    -0.025 C 
ATOM      7  C7  LIG A   1      -0.766   0.107   1.162  1.00  0.00    -0.051 C 
ATOM      8  C8  LIG A   1      -2.161   0.110   1.251  1.00  0.00    -0.020 C 
ATOM      9  C9  LIG A   1      -2.923  -0.245   0.145  1.00  0.00     0.115 C 
ATOM     10 O10  LIG A   1      -4.279  -0.229   0.276  1.00  0.00    -0.508 OA
ATOM     11 C11  LIG A   1      -2.314  -0.608  -1.051  1.00  0.00    -0.020 C 
ATOM     12 C12  LIG A   1      -0.918  -0.610  -1.137  1.00  0.00    -0.051 C 
ATOM     13 H13  LIG A   1       5.212   1.208   0.736  1.00  0.00     0.297 HD
ATOM     14 H14  LIG A   1       1.834   1.365   1.093  1.00  0.00     0.070 HD
ATOM     15 H15  LIG A   1       1.727  -1.054  -0.832  1.00  0.00     0.063 HD
ATOM     16 H16  LIG A   1      -0.190   0.368   2.047  1.00  0.00     0.063 HD
ATOM     17 H17  LIG A   1      -2.649   0.381   2.182  1.00  0.00     0.066 HD
ATOM     18 H18  LIG A   1      -4.676  -0.499  -0.568  1.00  0.00     0.293 HD
ATOM     19 H19  LIG A   1      -2.899  -0.891  -1.919  1.00  0.00     0.066 HD
ATOM     20 H20  LIG A   1      -0.450  -0.897  -2.077  1.00  0.00     0.063 HD
ENDROOT
TORSDOF 0
