ROOT
ATOM      1  C1  LIG A   1      -4.357  -1.024  -0.499  1.00  0.00    -0.044 C 
ATOM      2  C2  LIG A   1      -4.066   0.196   0.330  1.00  0.00    -0.077 C 
ATOM      3  C3  LIG A   1      -5.240   0.683   1.141  1.00  0.00    -0.044 C 
ATOM      4  C4  LIG A   1      -2.883   0.840   0.386  1.00  0.00    -0.049 C 
ATOM      5  C5  LIG A   1      -1.601   0.508  -0.319  1.00  0.00     0.107 C 
ATOM      6  O6  LIG A   1      -0.567   0.498   0.666  1.00  0.00    -0.489 OA
ATOM      7  C7  LIG A   1       0.708   0.251   0.238  1.00  0.00     0.123 C 
ATOM      8  C8  LIG A   1       1.101   0.020  -1.084  1.00  0.00    -0.019 C 
ATOM      9  C9  LIG A   1       2.448  -0.221  -1.392  1.00  0.00    -0.048 C 
ATOM     10 C10  LIG A   1       3.409  -0.232  -0.381  1.00  0.00     0.018 C 
ATOM     11 C11  LIG A   1       4.815  -0.477  -0.652  1.00  0.00    -0.044 C 
ATOM     12 C12  LIG A   1       5.688  -0.475   0.360  1.00  0.00     0.024 C 
ATOM     13 C13  LIG A   1       5.282  -0.231   1.756  1.00  0.00     0.336 C 
ATOM     14 O14  LIG A   1       6.113  -0.236   2.657  1.00  0.00    -0.246 OA
ATOM     15 O15  LIG A   1       3.934   0.000   1.988  1.00  0.00    -0.423 OA
ATOM     16 C16  LIG A   1       3.003   0.000   0.930  1.00  0.00     0.142 C 
ATOM     17 C17  LIG A   1       1.669   0.241   1.249  1.00  0.00     0.024 C 
ATOM     18 H18  LIG A   1      -3.528  -1.320  -1.145  1.00  0.00     0.028 HD
ATOM     19 H19  LIG A   1      -5.218  -0.838  -1.150  1.00  0.00     0.028 HD
ATOM     20 H20  LIG A   1      -4.593  -1.873   0.151  1.00  0.00     0.028 HD
ATOM     21 H21  LIG A   1      -4.995   1.567   1.740  1.00  0.00     0.028 HD
ATOM     22 H22  LIG A   1      -5.576  -0.100   1.829  1.00  0.00     0.028 HD
ATOM     23 H23  LIG A   1      -6.072   0.949   0.482  1.00  0.00     0.028 HD
ATOM     24 H24  LIG A   1      -2.805   1.721   1.024  1.00  0.00     0.061 HD
ATOM     25 H25  LIG A   1      -1.404   1.293  -1.059  1.00  0.00     0.075 HD
ATOM     26 H26  LIG A   1      -1.644  -0.467  -0.812  1.00  0.00     0.075 HD
ATOM     27 H27  LIG A   1       0.387   0.019  -1.901  1.00  0.00     0.066 HD
ATOM     28 H28  LIG A   1       2.730  -0.399  -2.428  1.00  0.00     0.063 HD
ATOM     29 H29  LIG A   1       5.137  -0.659  -1.671  1.00  0.00     0.063 HD
ATOM     30 H30  LIG A   1       6.745  -0.653   0.203  1.00  0.00     0.070 HD
ATOM     31 H31  LIG A   1       1.378   0.419   2.281  1.00  0.00     0.070 HD
ENDROOT
TORSDOF 0
