REMARK  Name = /home/vital/Documents/PhD_2021/Malaria_codes/data/pdb_ligands/ligand_303.pdb
REMARK  8 active torsions:
REMARK  status: ('A' for Active; 'I' for Inactive)
REMARK    1  A    between atoms: C2_2  and  C3_4
REMARK    2  A    between atoms: C3_4  and  N1_5
REMARK    3  A    between atoms: C4_6  and  C5_7
REMARK    4  A    between atoms: C6_8  and  N2_9
REMARK    5  A    between atoms: N2_9  and  C7_10
REMARK    6  A    between atoms: N3_17  and  C14_18
REMARK    7  A    between atoms: C14_18  and  C15_19
REMARK    8  A    between atoms: C15_19  and  O1_20
REMARK                            x       y       z     vdW  Elec       q    Type
REMARK                         _______ _______ _______ _____ _____    ______ ____
ROOT
ATOM      1  C7  UNL     1      -0.293   0.501   0.666  0.00  0.00    +0.213 C 
ATOM      2  C8  UNL     1      -0.517   1.205   1.980  0.00  0.00    +0.019 C 
ATOM      3  C9  UNL     1      -1.554   1.995   2.316  0.00  0.00    -0.001 C 
ATOM      4  C10 UNL     1      -2.736   2.271   1.532  0.00  0.00    -0.000 C 
ATOM      5  C11 UNL     1      -2.936   3.144   0.531  0.00  0.00    +0.001 C 
ATOM      6  C12 UNL     1      -2.043   4.102  -0.096  0.00  0.00    +0.015 C 
ATOM      7  C13 UNL     1      -1.379   3.909  -1.253  0.00  0.00    +0.076 C 
ATOM      8  N3  UNL     1      -1.204   2.725  -1.970  0.00  0.00    -0.296 N 
ATOM      9  C16 UNL     1      -0.900   1.572  -1.274  0.00  0.00    +0.185 C 
ATOM     10  N4  UNL     1      -0.091   1.572  -0.276  0.00  0.00    -0.250 NA
ENDROOT
BRANCH   1  11
ATOM     11  N2  UNL     1       0.889  -0.310   0.786  0.00  0.00    -0.325 N 
ATOM     12  H8  UNL     1       1.701   0.123   0.362  0.00  0.00    +0.148 HD
BRANCH  11  14
ATOM     13  C5  UNL     1       2.056  -2.404   1.060  0.00  0.00    +0.017 C 
ATOM     14  C6  UNL     1       0.963  -1.633   1.125  0.00  0.00    +0.069 C 
BRANCH  13  16
ATOM     15  C3  UNL     1       3.112  -4.650   1.434  0.00  0.00    +0.043 C 
ATOM     16  C4  UNL     1       2.059  -3.805   1.432  0.00  0.00    +0.025 C 
BRANCH  15  18
ATOM     17  C1  UNL     1       5.207  -3.404   1.836  0.00  0.00    +0.031 C 
ATOM     18  C2  UNL     1       4.469  -4.232   1.087  0.00  0.00    +0.054 C 
ATOM     19 CL1  UNL     1       5.151  -4.920  -0.352  0.00  0.00    -0.082 Cl
ENDBRANCH  15  18
BRANCH  15  20
ATOM     20  N1  UNL     1       2.953  -5.989   1.769  0.00  0.00    -0.357 N 
ATOM     21  H3  UNL     1       3.647  -6.579   1.312  0.00  0.00    +0.142 HD
ATOM     22  H4  UNL     1       2.008  -6.329   1.610  0.00  0.00    +0.142 HD
ENDBRANCH  15  20
ENDBRANCH  13  16
ENDBRANCH  11  14
ENDBRANCH   1  11
BRANCH   8  23
ATOM     23  C14 UNL     1      -1.523   2.651  -3.399  0.00  0.00    +0.139 C 
BRANCH  23  24
ATOM     24  C15 UNL     1      -3.016   2.392  -3.632  0.00  0.00    +0.175 C 
BRANCH  24  25
ATOM     25  O1  UNL     1      -3.346   1.030  -3.361  0.00  0.00    -0.393 OA
ATOM     26  H20 UNL     1      -4.308   0.942  -3.479  0.00  0.00    +0.209 HD
ENDBRANCH  24  25
ENDBRANCH  23  24
ENDBRANCH   8  23
TORSDOF 8
