REMARK  Name = /home/vital/Documents/PhD_2021/Malaria_codes/data/pdb_ligands/ligand_230.pdb
REMARK  7 active torsions:
REMARK  status: ('A' for Active; 'I' for Inactive)
REMARK    1  A    between atoms: C1_1  and  O1_2
REMARK    2  A    between atoms: O1_2  and  C2_3
REMARK    3  A    between atoms: C2_3  and  C3_4
REMARK    4  A    between atoms: C2_3  and  C4_5
REMARK    5  A    between atoms: C4_5  and  N1_6
REMARK    6  A    between atoms: N3_9  and  C6_10
REMARK    7  A    between atoms: C10_14  and  C11_15
REMARK                            x       y       z     vdW  Elec       q    Type
REMARK                         _______ _______ _______ _____ _____    ______ ____
ROOT
ATOM      1  N1  UNL     1       0.898  -0.297  -1.006  0.00  0.00    -0.250 NA
ATOM      2  C5  UNL     1       0.198  -1.349  -0.818  0.00  0.00    +0.195 C 
ATOM      3  N2  UNL     1       0.520  -2.621  -1.199  0.00  0.00    -0.370 N 
ATOM      4  N3  UNL     1      -1.023  -1.387  -0.199  0.00  0.00    -0.326 N 
ATOM      5  H10 UNL     1       1.492  -2.740  -1.448  0.00  0.00    +0.159 HD
ATOM      6  H11 UNL     1       0.266  -3.301  -0.491  0.00  0.00    +0.159 HD
ATOM      7  H12 UNL     1      -1.655  -2.060  -0.609  0.00  0.00    +0.169 HD
ENDROOT
BRANCH   4   8
ATOM      8  C6  UNL     1      -1.685  -0.345   0.484  0.00  0.00    +0.042 A 
ATOM      9  C7  UNL     1      -1.020   0.751   1.046  0.00  0.00    +0.026 A 
ATOM     10  C8  UNL     1      -1.717   1.729   1.760  0.00  0.00    +0.002 A 
ATOM     11  C9  UNL     1      -3.094   1.623   1.936  0.00  0.00    +0.003 A 
ATOM     12  C10 UNL     1      -3.787   0.537   1.397  0.00  0.00    -0.049 A 
ATOM     13  C11 UNL     1      -5.263   0.389   1.620  0.00  0.00    +0.044 C 
ATOM     14  C12 UNL     1      -3.072  -0.447   0.694  0.00  0.00    +0.029 A 
ENDBRANCH   4   8
BRANCH   1  15
ATOM     15  C4  UNL     1       2.179  -0.285  -1.700  0.00  0.00    +0.176 C 
BRANCH  15  16
ATOM     16  C2  UNL     1       3.358  -0.093  -0.720  0.00  0.00    +0.136 C 
ATOM     17  C3  UNL     1       3.573  -1.331   0.146  0.00  0.00    +0.040 C 
BRANCH  16  19
ATOM     18  C1  UNL     1       3.080   2.271  -0.476  0.00  0.00    +0.194 C 
ATOM     19  O1  UNL     1       3.219   1.018   0.175  0.00  0.00    -0.378 OA
ENDBRANCH  16  19
ENDBRANCH  15  16
ENDBRANCH   1  15
TORSDOF 4
