REMARK  Name = /home/vital/Documents/PhD_2021/Malaria_codes/data/pdb_ligands/ligand_8.pdb
REMARK  6 active torsions:
REMARK  status: ('A' for Active; 'I' for Inactive)
REMARK    1  A    between atoms: N1_1  and  C1_2
REMARK    2  A    between atoms: C1_2  and  C2_3
REMARK    3  A    between atoms: C1_2  and  N2_6
REMARK    4  A    between atoms: C2_3  and  C3_4
REMARK    5  A    between atoms: N3_8  and  C5_9
REMARK    6  A    between atoms: C5_9  and  P1_10
REMARK                            x       y       z     vdW  Elec       q    Type
REMARK                         _______ _______ _______ _____ _____    ______ ____
ROOT
ATOM      1  C1  UNL     1      -1.367   1.214  -0.263  0.00  0.00    +0.179 C 
ENDROOT
BRANCH   1   2
ATOM      2  N2  UNL     1      -0.072   0.769  -0.748  0.00  0.00    -0.258 NA
ATOM      3  C4  UNL     1       0.727   0.190   0.069  0.00  0.00    +0.177 C 
ATOM      4  N3  UNL     1       1.969  -0.271  -0.253  0.00  0.00    -0.328 N 
ATOM      5  H7  UNL     1       2.360  -1.002   0.348  0.00  0.00    +0.147 HD
BRANCH   4   6
ATOM      6  C5  UNL     1       2.340  -0.492  -1.631  0.00  0.00    +0.186 C 
BRANCH   6   7
ATOM      7  P1  UNL     1       4.057  -1.208  -1.410  0.00  0.00    +0.231 P 
ATOM      8  O1  UNL     1       3.675  -2.302  -0.198  0.00  0.00    -0.303 OA
ENDBRANCH   6   7
ENDBRANCH   4   6
ENDBRANCH   1   2
BRANCH   1   9
ATOM      9  N1  UNL     1      -1.251   2.309   0.664  0.00  0.00    -0.309 NA
ATOM     10  H1  UNL     1      -0.749   1.988   1.486  0.00  0.00    +0.120 HD
ATOM     11  H2  UNL     1      -0.647   2.997   0.223  0.00  0.00    +0.120 HD
ENDBRANCH   1   9
BRANCH   1  12
ATOM     12  C2  UNL     1      -2.083   0.104   0.340  0.00  0.00    +0.036 C 
BRANCH  12  13
ATOM     13  C3  UNL     1      -2.829  -0.998   0.922  0.00  0.00    +0.091 C 
ATOM     14 BR1  UNL     1      -2.071  -1.489   2.645  0.00  0.00    -0.091 Br
ENDBRANCH  12  13
ENDBRANCH   1  12
TORSDOF 6
