REMARK  Name = /home/vital/Documents/PhD_2021/Malaria_codes/data/pdb_ligands/ligand_300.pdb
REMARK  8 active torsions:
REMARK  status: ('A' for Active; 'I' for Inactive)
REMARK    1  A    between atoms: C3_3  and  N1_4
REMARK    2  A    between atoms: C3_3  and  C4_5
REMARK    3  A    between atoms: C5_7  and  C6_8
REMARK    4  A    between atoms: C6_8  and  N2_9
REMARK    5  A    between atoms: N2_9  and  C7_10
REMARK    6  A    between atoms: N3_17  and  C14_18
REMARK    7  A    between atoms: C14_18  and  C15_19
REMARK    8  A    between atoms: C15_19  and  O1_20
REMARK                            x       y       z     vdW  Elec       q    Type
REMARK                         _______ _______ _______ _____ _____    ______ ____
ROOT
ATOM      1  C7  UNL     1      -0.779  -0.089  -0.685  0.00  0.00    +0.197 C 
ATOM      2  C8  UNL     1      -2.034  -0.690  -0.098  0.00  0.00    +0.015 C 
ATOM      3  C9  UNL     1      -2.354  -1.010   1.170  0.00  0.00    -0.000 C 
ATOM      4  C10 UNL     1      -1.582  -0.892   2.394  0.00  0.00    +0.009 C 
ATOM      5  C11 UNL     1      -0.980   0.204   2.885  0.00  0.00    +0.061 C 
ATOM      6  C12 UNL     1      -0.939   1.417   2.155  0.00  0.00    -0.053 C 
ATOM      7  C13 UNL     1      -0.903   2.225   1.271  0.00  0.00    +0.008 C 
ATOM      8  N3  UNL     1      -0.870   2.954   0.011  0.00  0.00    -0.248 N 
ATOM      9  C16 UNL     1      -1.167   2.250  -1.146  0.00  0.00    +0.192 C 
ATOM     10  N4  UNL     1      -1.181   1.026  -1.524  0.00  0.00    -0.253 NA
ENDROOT
BRANCH   1  11
ATOM     11  N2  UNL     1      -0.110  -1.038  -1.573  0.00  0.00    -0.289 NA
ATOM     12  H8  UNL     1      -0.756  -1.247  -2.326  0.00  0.00    +0.124 HD
BRANCH  11  13
ATOM     13  C6  UNL     1       0.335  -2.248  -0.896  0.00  0.00    +0.112 C 
BRANCH  13  16
ATOM     14  C4  UNL     1       2.477  -3.467  -1.489  0.00  0.00    +0.067 C 
ATOM     15 CL1  UNL     1       3.372  -4.371  -2.674  0.00  0.00    -0.081 Cl
ATOM     16  C5  UNL     1       1.252  -3.013  -1.802  0.00  0.00    +0.011 C 
BRANCH  14  19
ATOM     17  C1  UNL     1       4.645  -1.272   0.306  0.00  0.00    +0.070 C 
ATOM     18  C2  UNL     1       3.887  -2.296   0.054  0.00  0.00    -0.104 C 
ATOM     19  C3  UNL     1       3.118  -3.315  -0.199  0.00  0.00    +0.086 C 
BRANCH  19  20
ATOM     20  N1  UNL     1       2.888  -4.227   0.807  0.00  0.00    -0.351 N 
ATOM     21  H3  UNL     1       3.646  -4.250   1.484  0.00  0.00    +0.143 HD
ATOM     22  H4  UNL     1       2.675  -5.151   0.440  0.00  0.00    +0.143 HD
ENDBRANCH  19  20
ENDBRANCH  14  19
ENDBRANCH  13  16
ENDBRANCH  11  13
ENDBRANCH   1  11
BRANCH   8  23
ATOM     23  C14 UNL     1      -1.017   4.405   0.100  0.00  0.00    +0.149 C 
BRANCH  23  24
ATOM     24  C15 UNL     1      -2.484   4.834   0.230  0.00  0.00    +0.176 C 
BRANCH  24  25
ATOM     25  O1  UNL     1      -3.184   4.729  -1.008  0.00  0.00    -0.393 OA
ATOM     26  H18 UNL     1      -2.802   5.371  -1.630  0.00  0.00    +0.209 HD
ENDBRANCH  24  25
ENDBRANCH  23  24
ENDBRANCH   8  23
TORSDOF 8
