REMARK  Name = /home/vital/Documents/PhD_2021/Malaria_codes/data/pdb_ligands/ligand_66.pdb
REMARK  3 active torsions:
REMARK  status: ('A' for Active; 'I' for Inactive)
REMARK    1  A    between atoms: C1_1  and  O1_2
REMARK    2  A    between atoms: O1_2  and  C2_3
REMARK    3  A    between atoms: C2_3  and  N1_4
REMARK                            x       y       z     vdW  Elec       q    Type
REMARK                         _______ _______ _______ _____ _____    ______ ____
ROOT
ATOM      1  N1  UNL     1      -2.290   0.435  -1.413  0.00  0.00    -0.307 N 
ATOM      2  C3  UNL     1      -1.019   0.096  -1.009  0.00  0.00    +0.123 C 
ATOM      3  N2  UNL     1      -0.567   0.694   0.064  0.00  0.00    -0.213 NA
ATOM      4  C4  UNL     1       0.664   0.308   0.474  0.00  0.00    +0.156 C 
ATOM      5  N3  UNL     1       0.769  -0.908   0.890  0.00  0.00    -0.232 NA
ATOM      6  C5  UNL     1       1.901  -1.500   0.403  0.00  0.00    +0.047 C 
ATOM      7  C6  UNL     1       1.935  -1.820  -0.906  0.00  0.00    +0.024 C 
ATOM      8  C7  UNL     1       0.851  -1.646  -1.871  0.00  0.00    +0.005 C 
ATOM      9  C8  UNL     1      -0.281  -0.909  -1.910  0.00  0.00    +0.043 C 
ATOM     10  C9  UNL     1       3.038  -1.729   1.359  0.00  0.00    +0.084 C 
ATOM     11  C10 UNL     1       3.366  -0.559   2.249  0.00  0.00    +0.001 C 
ATOM     12  C11 UNL     1       3.263   0.764   2.020  0.00  0.00    +0.056 C 
ATOM     13 CL1  UNL     1       3.679   1.826   3.350  0.00  0.00    -0.082 Cl
ATOM     14  C12 UNL     1       2.859   1.437   0.793  0.00  0.00    +0.062 C 
ATOM     15 CL2  UNL     1       4.010   2.590   0.149  0.00  0.00    -0.082 Cl
ATOM     16  C13 UNL     1       1.712   1.293   0.114  0.00  0.00    +0.069 C 
ATOM     17  H6  UNL     1      -2.712   0.033  -2.238  0.00  0.00    +0.150 HD
ENDROOT
BRANCH   1  18
ATOM     18  C2  UNL     1      -3.147   1.341  -0.715  0.00  0.00    +0.266 C 
BRANCH  18  20
ATOM     19  C1  UNL     1      -5.425   0.774  -0.510  0.00  0.00    +0.196 C 
ATOM     20  O1  UNL     1      -4.412   1.293  -1.363  0.00  0.00    -0.365 OA
ENDBRANCH  18  20
ENDBRANCH   1  18
TORSDOF 2
