REMARK  Name = /home/vital/Documents/PhD_2021/Malaria_codes/data/pdb_ligands/ligand_125.pdb
REMARK  9 active torsions:
REMARK  status: ('A' for Active; 'I' for Inactive)
REMARK    1  A    between atoms: C1_1  and  O1_2
REMARK    2  A    between atoms: O1_2  and  C2_3
REMARK    3  A    between atoms: C5_6  and  C6_7
REMARK    4  A    between atoms: C6_7  and  N1_8
REMARK    5  A    between atoms: N2_11  and  C9_12
REMARK    6  A    between atoms: C9_12  and  C10_13
REMARK    7  A    between atoms: C14_17  and  O2_18
REMARK    8  A    between atoms: C19_24  and  O3_25
REMARK    9  A    between atoms: O3_25  and  C20_26
REMARK                            x       y       z     vdW  Elec       q    Type
REMARK                         _______ _______ _______ _____ _____    ______ ____
ROOT
ATOM      1  N1  UNL     1       0.172  -0.590  -2.000  0.00  0.00    -0.296 NA
ATOM      2  C7  UNL     1      -0.367  -1.293  -0.826  0.00  0.00    +0.100 C 
ATOM      3  C8  UNL     1      -1.823  -0.867  -0.533  0.00  0.00    +0.100 C 
ATOM      4  N2  UNL     1      -1.951   0.566  -0.177  0.00  0.00    -0.296 NA
ATOM      5  C16 UNL     1      -0.871   1.369  -0.786  0.00  0.00    +0.100 C 
ATOM      6  C17 UNL     1      -0.301   0.794  -2.102  0.00  0.00    +0.100 C 
ENDROOT
BRANCH   1   7
ATOM      7  C6  UNL     1       1.598  -0.815  -2.252  0.00  0.00    +0.121 C 
BRANCH   7  11
ATOM      8  C2  UNL     1       4.358   0.597   0.814  0.00  0.00    +0.163 A 
ATOM      9  C3  UNL     1       3.846   1.458  -0.155  0.00  0.00    +0.050 A 
ATOM     10  C4  UNL     1       2.972   0.980  -1.137  0.00  0.00    +0.010 A 
ATOM     11  C5  UNL     1       2.571  -0.368  -1.175  0.00  0.00    -0.011 A 
ATOM     12  C18 UNL     1       3.110  -1.243  -0.212  0.00  0.00    +0.091 A 
ATOM     13 CL1  UNL     1       2.706  -2.933  -0.212  0.00  0.00    -0.079 Cl
ATOM     14  C19 UNL     1       4.009  -0.763   0.761  0.00  0.00    +0.180 A 
BRANCH   8  16
ATOM     15  C1  UNL     1       5.382   2.369   2.039  0.00  0.00    +0.277 C 
ATOM     16  O1  UNL     1       5.204   0.975   1.823  0.00  0.00    -0.491 OA
ENDBRANCH   8  16
BRANCH  14  17
ATOM     17  O3  UNL     1       4.490  -1.628   1.720  0.00  0.00    -0.490 OA
ATOM     18  C20 UNL     1       5.812  -2.052   1.389  0.00  0.00    +0.277 C 
ENDBRANCH  14  17
ENDBRANCH   7  11
ENDBRANCH   1   7
BRANCH   4  19
ATOM     19  C9  UNL     1      -3.280   1.089  -0.526  0.00  0.00    +0.119 C 
BRANCH  19  20
ATOM     20  C10 UNL     1      -4.407   0.434   0.248  0.00  0.00    -0.030 A 
ATOM     21  C11 UNL     1      -4.446   0.516   1.649  0.00  0.00    +0.005 A 
ATOM     22  C12 UNL     1      -5.486  -0.076   2.367  0.00  0.00    +0.004 A 
ATOM     23  C13 UNL     1      -6.498  -0.755   1.693  0.00  0.00    +0.045 A 
ATOM     24  C14 UNL     1      -6.463  -0.839   0.306  0.00  0.00    +0.117 A 
ATOM     25  C15 UNL     1      -5.431  -0.252  -0.422  0.00  0.00    +0.050 A 
BRANCH  24  26
ATOM     26  O2  UNL     1      -7.473  -1.516  -0.313  0.00  0.00    -0.507 OA
ATOM     27  H17 UNL     1      -7.307  -1.511  -1.270  0.00  0.00    +0.292 HD
ENDBRANCH  24  26
ENDBRANCH  19  20
ENDBRANCH   4  19
TORSDOF 7
