REMARK  Name = /home/vital/Documents/PhD_2021/Malaria_codes/data/pdb_ligands/ligand_12.pdb
REMARK  14 active torsions:
REMARK  status: ('A' for Active; 'I' for Inactive)
REMARK    1  A    between atoms: N1_1  and  C1_2
REMARK    2  A    between atoms: C1_2  and  C2_3
REMARK    3  A    between atoms: C3_4  and  C4_5
REMARK    4  A    between atoms: C4_5  and  C5_6
REMARK    5  A    between atoms: N2_7  and  C6_8
REMARK    6  A    between atoms: C6_8  and  C7_9
REMARK    7  A    between atoms: C8_10  and  N3_11
REMARK    8  A    between atoms: C9_12  and  C10_13
REMARK    9  A    between atoms: C11_14  and  C12_15
REMARK   10  A    between atoms: C12_15  and  C13_16
REMARK   11  A    between atoms: C14_17  and  C15_18
REMARK   12  A    between atoms: C16_19  and  C17_20
REMARK   13  A    between atoms: C16_19  and  C18_22
REMARK   14  A    between atoms: C18_22  and  O1_23
REMARK                            x       y       z     vdW  Elec       q    Type
REMARK                         _______ _______ _______ _____ _____    ______ ____
ROOT
ATOM      1  N3  UNL     1       0.233  -1.193  -0.143  0.00  0.00    -0.205 NA
ATOM      2  C9  UNL     1      -0.358  -0.635   0.859  0.00  0.00    +0.122 C 
ENDROOT
BRANCH   1   4
ATOM      3  C7  UNL     1       1.934   0.231  -1.378  0.00  0.00    -0.054 C 
ATOM      4  C8  UNL     1       1.126  -0.437  -0.794  0.00  0.00    +0.036 C 
BRANCH   3   5
ATOM      5  C6  UNL     1       2.928   1.034  -2.090  0.00  0.00    +0.231 C 
BRANCH   5   7
ATOM      6  C5  UNL     1       4.186   2.072  -0.351  0.00  0.00    +0.083 C 
ATOM      7  N2  UNL     1       3.264   2.172  -1.246  0.00  0.00    -0.283 NA
BRANCH   6   8
ATOM      8  C4  UNL     1       5.031   0.868  -0.008  0.00  0.00    +0.073 C 
BRANCH   8  10
ATOM      9  C2  UNL     1       7.519   1.199  -0.002  0.00  0.00    -0.016 C 
ATOM     10  C3  UNL     1       6.367   1.032  -0.671  0.00  0.00    -0.024 C 
BRANCH   9  11
ATOM     11  C1  UNL     1       8.903   1.364  -0.559  0.00  0.00    +0.105 C 
BRANCH  11  12
ATOM     12  N1  UNL     1       8.990   1.274  -2.004  0.00  0.00    -0.327 NA
ATOM     13  H1  UNL     1       8.608   0.382  -2.309  0.00  0.00    +0.119 HD
ATOM     14  H2  UNL     1       8.424   2.006  -2.426  0.00  0.00    +0.119 HD
ENDBRANCH  11  12
ENDBRANCH   9  11
ENDBRANCH   8  10
ENDBRANCH   6   8
ENDBRANCH   5   7
ENDBRANCH   3   5
ENDBRANCH   1   4
BRANCH   2  15
ATOM     15  C10 UNL     1      -1.347  -1.332   1.711  0.00  0.00    +0.017 C 
ATOM     16  C11 UNL     1      -2.356  -2.079   1.239  0.00  0.00    -0.013 C 
BRANCH  16  17
ATOM     17  C12 UNL     1      -2.722  -2.328  -0.198  0.00  0.00    +0.116 C 
BRANCH  17  18
ATOM     18  C13 UNL     1      -4.143  -2.000  -0.394  0.00  0.00    -0.093 C 
ATOM     19  C14 UNL     1      -5.301  -1.720  -0.543  0.00  0.00    -0.074 C 
BRANCH  19  20
ATOM     20  C15 UNL     1      -6.670  -1.376  -0.710  0.00  0.00    +0.062 C 
ATOM     21  C16 UNL     1      -7.354  -0.602   0.156  0.00  0.00    -0.020 C 
BRANCH  21  22
ATOM     22  C17 UNL     1      -6.767  -0.018   1.413  0.00  0.00    +0.142 C 
ATOM     23 CL1  UNL     1      -6.428   1.715   1.185  0.00  0.00    -0.121 Cl
ENDBRANCH  21  22
BRANCH  21  24
ATOM     24  C18 UNL     1      -8.807  -0.279  -0.091  0.00  0.00    +0.217 C 
BRANCH  24  25
ATOM     25  O1  UNL     1      -9.584  -0.844   0.962  0.00  0.00    -0.274 OA
ATOM     26 CL2  UNL     1     -11.227  -0.502   0.812  0.00  0.00    +0.062 Cl
ENDBRANCH  24  25
ENDBRANCH  21  24
ENDBRANCH  19  20
ENDBRANCH  17  18
ENDBRANCH  16  17
ENDBRANCH   2  15
TORSDOF 14
