REMARK  Name = /home/vital/Documents/PhD_2021/Malaria_codes/data/pdb_ligands/ligand_45.pdb
REMARK  4 active torsions:
REMARK  status: ('A' for Active; 'I' for Inactive)
REMARK    1  A    between atoms: C1_1  and  O1_2
REMARK    2  A    between atoms: O1_2  and  C2_3
REMARK    3  A    between atoms: C2_3  and  C3_5
REMARK    4  A    between atoms: C8_10  and  O3_11
REMARK                            x       y       z     vdW  Elec       q    Type
REMARK                         _______ _______ _______ _____ _____    ______ ____
ROOT
ATOM      1  C3  UNL     1       0.456  -0.007  -0.005  0.00  0.00    +0.104 A 
ATOM      2  C4  UNL     1      -0.464   0.546  -0.915  0.00  0.00    +0.068 A 
ATOM      3  C5  UNL     1      -1.790   0.618  -0.542  0.00  0.00    +0.167 A 
ATOM      4  C6  UNL     1      -2.225   0.168   0.681  0.00  0.00    +0.170 A 
ATOM      5  C7  UNL     1      -1.359  -0.379   1.600  0.00  0.00    +0.095 A 
ATOM      6  C8  UNL     1      -0.007  -0.466   1.252  0.00  0.00    +0.135 A 
ATOM      7  O4  UNL     1      -3.564   0.332   0.846  0.00  0.00    -0.452 OA
ATOM      8  C9  UNL     1      -3.924   0.936  -0.413  0.00  0.00    +0.466 C 
ATOM      9  O5  UNL     1      -2.800   1.120  -1.300  0.00  0.00    -0.453 OA
ENDROOT
BRANCH   1  10
ATOM     10  C2  UNL     1       1.875  -0.063  -0.453  0.00  0.00    +0.343 C 
ATOM     11  O2  UNL     1       2.257   0.338  -1.541  0.00  0.00    -0.245 OA
BRANCH  10  13
ATOM     12  C1  UNL     1       4.048  -0.694   0.131  0.00  0.00    +0.280 C 
ATOM     13  O1  UNL     1       2.669  -0.613   0.504  0.00  0.00    -0.464 OA
ENDBRANCH  10  13
ENDBRANCH   1  10
BRANCH   6  14
ATOM     14  O3  UNL     1       0.800  -1.019   2.211  0.00  0.00    -0.506 OA
ATOM     15  H6  UNL     1       1.717  -1.035   1.874  0.00  0.00    +0.292 HD
ENDBRANCH   6  14
TORSDOF 3
