REMARK  Name = /home/vital/Documents/PhD_2021/Malaria_codes/data/pdb_ligands/ligand_178.pdb
REMARK  7 active torsions:
REMARK  status: ('A' for Active; 'I' for Inactive)
REMARK    1  A    between atoms: C2_2  and  C3_3
REMARK    2  A    between atoms: C6_6  and  C7_7
REMARK    3  A    between atoms: C7_7  and  N1_8
REMARK    4  A    between atoms: N1_8  and  C8_9
REMARK    5  A    between atoms: C8_9  and  C9_10
REMARK    6  A    between atoms: C9_10  and  O1_11
REMARK    7  A    between atoms: C9_10  and  C10_12
REMARK                            x       y       z     vdW  Elec       q    Type
REMARK                         _______ _______ _______ _____ _____    ______ ____
ROOT
ATOM      1  N1  UNL     1      -0.264   0.435   0.415  0.00  0.00    -0.309 NA
ATOM      2  H6  UNL     1      -0.027   1.351   0.039  0.00  0.00    +0.122 HD
ENDROOT
BRANCH   1   3
ATOM      3  C7  UNL     1       0.808  -0.011   1.306  0.00  0.00    +0.116 C 
BRANCH   3   7
ATOM      4  C3  UNL     1       4.749   0.565  -0.369  0.00  0.00    +0.025 A 
ATOM      5  C4  UNL     1       4.165  -0.703  -0.375  0.00  0.00    +0.017 A 
ATOM      6  C5  UNL     1       2.892  -0.892   0.171  0.00  0.00    +0.006 A 
ATOM      7  C6  UNL     1       2.190   0.186   0.728  0.00  0.00    -0.034 A 
ATOM      8  C16 UNL     1       2.784   1.458   0.725  0.00  0.00    +0.006 A 
ATOM      9  C17 UNL     1       4.057   1.645   0.181  0.00  0.00    +0.017 A 
BRANCH   4  11
ATOM     10  C1  UNL     1       7.146   0.917  -1.395  0.00  0.00    +0.009 C 
ATOM     11  C2  UNL     1       6.052   0.757  -0.927  0.00  0.00    -0.070 C 
ENDBRANCH   4  11
ENDBRANCH   3   7
ENDBRANCH   1   3
BRANCH   1  12
ATOM     12  C8  UNL     1      -0.502  -0.502  -0.694  0.00  0.00    +0.117 C 
BRANCH  12  13
ATOM     13  C9  UNL     1      -1.718  -0.113  -1.571  0.00  0.00    +0.158 C 
BRANCH  13  14
ATOM     14  C10 UNL     1      -3.055  -0.244  -0.868  0.00  0.00    -0.018 A 
ATOM     15  C11 UNL     1      -3.794   0.899  -0.532  0.00  0.00    +0.006 A 
ATOM     16  C12 UNL     1      -5.029   0.784   0.109  0.00  0.00    +0.000 A 
ATOM     17  C13 UNL     1      -5.539  -0.475   0.423  0.00  0.00    +0.000 A 
ATOM     18  C14 UNL     1      -4.814  -1.619   0.098  0.00  0.00    +0.000 A 
ATOM     19  C15 UNL     1      -3.579  -1.506  -0.542  0.00  0.00    +0.006 A 
ENDBRANCH  13  14
BRANCH  13  20
ATOM     20  O1  UNL     1      -1.722  -0.928  -2.750  0.00  0.00    -0.386 OA
ATOM     21  H10 UNL     1      -2.637  -0.937  -3.082  0.00  0.00    +0.210 HD
ENDBRANCH  13  20
ENDBRANCH  12  13
ENDBRANCH   1  12
TORSDOF 7
