REMARK  Name = /home/vital/Documents/PhD_2021/Malaria_codes/data/pdb_ligands/ligand_370.pdb
REMARK  3 active torsions:
REMARK  status: ('A' for Active; 'I' for Inactive)
REMARK    1  A    between atoms: C1_1  and  C2_2
REMARK    2  A    between atoms: C3_3  and  N1_4
REMARK    3  A    between atoms: C10_14  and  C11_15
REMARK                            x       y       z     vdW  Elec       q    Type
REMARK                         _______ _______ _______ _____ _____    ______ ____
ROOT
ATOM      1  N1  UNL     1       2.058   0.775   0.296  0.00  0.00    -0.245 NA
ATOM      2  C4  UNL     1       1.110   0.548  -0.562  0.00  0.00    +0.097 C 
ATOM      3  C5  UNL     1       0.071   1.656  -0.685  0.00  0.00    +0.091 C 
ATOM      4  C6  UNL     1      -0.967   1.615   0.444  0.00  0.00    +0.104 C 
ATOM      5 CL1  UNL     1      -1.512   3.322   0.680  0.00  0.00    -0.120 Cl
ATOM      6  C7  UNL     1      -2.152   0.639   0.174  0.00  0.00    +0.071 C 
ATOM      7  C8  UNL     1      -2.976   0.834  -1.155  0.00  0.00    +0.178 C 
ATOM      8  O1  UNL     1      -4.230   0.642  -0.447  0.00  0.00    -0.359 OA
ATOM      9  C9  UNL     1      -3.578   1.094   0.773  0.00  0.00    +0.222 C 
ATOM     10 CL2  UNL     1      -4.401   0.476   2.248  0.00  0.00    -0.090 Cl
ATOM     11  C10 UNL     1      -1.742  -0.835   0.408  0.00  0.00    -0.062 C 
ATOM     12  C11 UNL     1      -2.072  -1.493   1.723  0.00  0.00    +0.039 C 
ATOM     13  C12 UNL     1      -0.976  -1.535  -0.459  0.00  0.00    -0.009 C 
ATOM     14  C13 UNL     1      -0.313  -1.114  -1.731  0.00  0.00    +0.130 C 
ATOM     15  N2  UNL     1       0.972  -0.567  -1.364  0.00  0.00    -0.329 N 
ATOM     16  H18 UNL     1       1.683  -1.275  -1.222  0.00  0.00    +0.147 HD
ENDROOT
BRANCH   1  19
ATOM     17  C1  UNL     1       5.396  -0.893   0.728  0.00  0.00    +0.037 C 
ATOM     18  C2  UNL     1       4.314   0.098   0.460  0.00  0.00    -0.011 C 
ATOM     19  C3  UNL     1       3.006  -0.181   0.511  0.00  0.00    +0.108 C 
ENDBRANCH   1  19
TORSDOF 1
