REMARK  Name = /home/vital/Documents/PhD_2021/Malaria_codes/data/pdb_ligands/ligand_410.pdb
REMARK  6 active torsions:
REMARK  status: ('A' for Active; 'I' for Inactive)
REMARK    1  A    between atoms: N1_1  and  O1_2
REMARK    2  A    between atoms: O1_2  and  C1_3
REMARK    3  A    between atoms: C1_3  and  C2_4
REMARK    4  A    between atoms: C2_4  and  N2_5
REMARK    5  A    between atoms: N2_5  and  N3_6
REMARK    6  A    between atoms: C3_7  and  C4_8
REMARK                            x       y       z     vdW  Elec       q    Type
REMARK                         _______ _______ _______ _____ _____    ______ ____
ROOT
ATOM      1  N3  UNL     1       0.006   0.572   1.148  0.00  0.00    -0.237 N 
ATOM      2  C3  UNL     1      -1.301   0.661   0.632  0.00  0.00    +0.143 C 
ATOM      3  N4  UNL     1      -1.779   1.894   0.549  0.00  0.00    -0.233 NA
ATOM      4  C10 UNL     1      -0.718   2.664   0.961  0.00  0.00    +0.069 C 
ATOM      5  C11 UNL     1      -0.203   3.733   0.337  0.00  0.00    +0.025 C 
ATOM      6  C12 UNL     1       1.236   3.698   0.516  0.00  0.00    -0.000 C 
ATOM      7  C13 UNL     1       1.590   2.588   1.191  0.00  0.00    +0.003 C 
ATOM      8  C14 UNL     1       0.362   1.887   1.673  0.00  0.00    +0.164 C 
ENDROOT
BRANCH   2   9
ATOM      9  C4  UNL     1      -2.140  -0.496   0.219  0.00  0.00    +0.018 A 
ATOM     10  C5  UNL     1      -1.906  -1.777   0.727  0.00  0.00    +0.013 A 
ATOM     11  C6  UNL     1      -2.714  -2.846   0.331  0.00  0.00    +0.022 A 
ATOM     12  C7  UNL     1      -3.765  -2.638  -0.567  0.00  0.00    +0.059 A 
ATOM     13 CL1  UNL     1      -4.721  -4.006  -1.015  0.00  0.00    -0.082 Cl
ATOM     14  C8  UNL     1      -4.009  -1.353  -1.067  0.00  0.00    +0.060 A 
ATOM     15 CL2  UNL     1      -5.292  -1.023  -2.177  0.00  0.00    -0.082 Cl
ATOM     16  C9  UNL     1      -3.201  -0.284  -0.670  0.00  0.00    +0.032 A 
ENDBRANCH   2   9
BRANCH   1  17
ATOM     17  N2  UNL     1       0.920  -0.419   0.704  0.00  0.00    -0.236 NA
ATOM     18  H7  UNL     1       1.778  -0.388   1.262  0.00  0.00    +0.145 HD
BRANCH  17  19
ATOM     19  C2  UNL     1       1.273  -0.221  -0.715  0.00  0.00    +0.132 C 
BRANCH  19  20
ATOM     20  C1  UNL     1       2.373  -1.201  -1.137  0.00  0.00    +0.201 C 
BRANCH  20  21
ATOM     21  O1  UNL     1       3.582  -0.873  -0.435  0.00  0.00    -0.301 OA
BRANCH  21  22
ATOM     22  N1  UNL     1       4.628  -1.785  -0.878  0.00  0.00    -0.215 NA
ATOM     23  H1  UNL     1       5.357  -1.132  -1.172  0.00  0.00    +0.150 HD
ATOM     24  H2  UNL     1       4.946  -2.178   0.010  0.00  0.00    +0.150 HD
ENDBRANCH  21  22
ENDBRANCH  20  21
ENDBRANCH  19  20
ENDBRANCH  17  19
ENDBRANCH   1  17
TORSDOF 6
