REMARK  Name = /home/vital/Documents/PhD_2021/Malaria_codes/data/pdb_ligands/ligand_465.pdb
REMARK  7 active torsions:
REMARK  status: ('A' for Active; 'I' for Inactive)
REMARK    1  A    between atoms: N1_1  and  C1_2
REMARK    2  A    between atoms: C1_2  and  C2_3
REMARK    3  A    between atoms: C4_5  and  C5_6
REMARK    4  A    between atoms: C5_6  and  O1_7
REMARK    5  A    between atoms: O1_7  and  C6_8
REMARK    6  A    between atoms: C6_8  and  C7_9
REMARK    7  A    between atoms: C6_8  and  C9_12
REMARK                            x       y       z     vdW  Elec       q    Type
REMARK                         _______ _______ _______ _____ _____    ______ ____
ROOT
ATOM      1  C5  UNL     1      -0.525   0.578   1.564  0.00  0.00    +0.196 C 
ENDROOT
BRANCH   1   4
ATOM      2  C2  UNL     1       2.733   0.764  -0.128  0.00  0.00    +0.039 C 
ATOM      3  C3  UNL     1       1.743   0.310   0.584  0.00  0.00    -0.125 C 
ATOM      4  C4  UNL     1       0.753  -0.149   1.293  0.00  0.00    +0.052 C 
BRANCH   2   5
ATOM      5  C1  UNL     1       3.624  -0.068  -0.992  0.00  0.00    +0.113 C 
BRANCH   5   6
ATOM      6  N1  UNL     1       4.913  -0.288  -0.353  0.00  0.00    -0.326 NA
ATOM      7  H1  UNL     1       5.337   0.606  -0.115  0.00  0.00    +0.119 HD
ATOM      8  H2  UNL     1       4.763  -0.778   0.528  0.00  0.00    +0.119 HD
ENDBRANCH   5   6
ENDBRANCH   2   5
ENDBRANCH   1   4
BRANCH   1   9
ATOM      9  O1  UNL     1      -1.629  -0.213   1.138  0.00  0.00    -0.364 OA
BRANCH   9  10
ATOM     10  C6  UNL     1      -1.914  -0.108  -0.250  0.00  0.00    +0.166 C 
BRANCH  10  11
ATOM     11  C7  UNL     1      -3.041   0.874  -0.391  0.00  0.00    +0.020 C 
ATOM     12  C8  UNL     1      -2.981   1.979  -1.140  0.00  0.00    +0.078 C 
ATOM     13 CL1  UNL     1      -4.287   3.079  -1.269  0.00  0.00    -0.092 Cl
ENDBRANCH  10  11
BRANCH  10  14
ATOM     14  C9  UNL     1      -2.307  -1.437  -0.846  0.00  0.00    +0.020 C 
ATOM     15  C10 UNL     1      -2.374  -2.666  -0.321  0.00  0.00    +0.078 C 
ATOM     16 CL2  UNL     1      -2.011  -3.135   1.281  0.00  0.00    -0.092 Cl
ENDBRANCH  10  14
ENDBRANCH   9  10
ENDBRANCH   1   9
TORSDOF 7
