REMARK  Name = /home/vital/Documents/PhD_2021/Malaria_codes/data/pdb_ligands/ligand_85.pdb
REMARK  15 active torsions:
REMARK  status: ('A' for Active; 'I' for Inactive)
REMARK    1  A    between atoms: C2_2  and  N1_3
REMARK    2  A    between atoms: N1_3  and  C3_4
REMARK    3  A    between atoms: C3_4  and  C4_5
REMARK    4  A    between atoms: C3_4  and  C11_15
REMARK    5  A    between atoms: C4_5  and  N2_6
REMARK    6  A    between atoms: N3_8  and  C6_9
REMARK    7  A    between atoms: C6_9  and  C7_10
REMARK    8  A    between atoms: C8_11  and  C9_12
REMARK    9  A    between atoms: C11_15  and  O1_16
REMARK   10  A    between atoms: O1_16  and  C12_17
REMARK   11  A    between atoms: C12_17  and  C13_18
REMARK   12  A    between atoms: C13_18  and  C14_19
REMARK   13  A    between atoms: C14_19  and  C15_20
REMARK   14  A    between atoms: C15_20  and  C16_21
REMARK   15  A    between atoms: C16_21  and  N4_22
REMARK                            x       y       z     vdW  Elec       q    Type
REMARK                         _______ _______ _______ _____ _____    ______ ____
ROOT
ATOM      1  C3  UNL     1       0.852   0.883   1.227  0.00  0.00    +0.117 C 
ENDROOT
BRANCH   1   2
ATOM      2  N1  UNL     1       1.032  -0.572   1.046  0.00  0.00    -0.343 N 
ATOM      3  H4  UNL     1       1.298  -0.767   0.075  0.00  0.00    +0.146 HD
BRANCH   2   5
ATOM      4  C1  UNL     1       1.922  -1.255   3.222  0.00  0.00    +0.024 C 
ATOM      5  C2  UNL     1       1.620  -1.437   1.935  0.00  0.00    +0.060 C 
ENDBRANCH   2   5
ENDBRANCH   1   2
BRANCH   1   6
ATOM      6  C4  UNL     1       0.739   1.557  -0.162  0.00  0.00    +0.167 C 
BRANCH   6   7
ATOM      7  N2  UNL     1       1.879   1.150  -1.013  0.00  0.00    -0.275 NA
ATOM      8  C5  UNL     1       2.857   1.982  -1.017  0.00  0.00    +0.175 C 
ATOM      9  N3  UNL     1       4.028   1.832  -1.701  0.00  0.00    -0.332 N 
ATOM     10  H9  UNL     1       4.802   2.426  -1.425  0.00  0.00    +0.147 HD
BRANCH   9  11
ATOM     11  C6  UNL     1       4.424   0.584  -2.312  0.00  0.00    +0.130 C 
BRANCH  11  12
ATOM     12  C7  UNL     1       5.040  -0.279  -1.252  0.00  0.00    +0.001 C 
ATOM     13  C8  UNL     1       6.334  -0.595  -1.099  0.00  0.00    +0.059 C 
BRANCH  13  14
ATOM     14  C9  UNL     1       7.370  -0.114  -1.944  0.00  0.00    -0.039 C 
ATOM     15  C10 UNL     1       8.255   0.289  -2.649  0.00  0.00    +0.110 C 
ATOM     16  F1  UNL     1       9.243   0.740  -3.439  0.00  0.00    -0.143 F 
ENDBRANCH  13  14
ENDBRANCH  11  12
ENDBRANCH   9  11
ENDBRANCH   6   7
ENDBRANCH   1   6
BRANCH   1  17
ATOM     17  C11 UNL     1      -0.368   1.219   2.112  0.00  0.00    +0.183 C 
BRANCH  17  18
ATOM     18  O1  UNL     1      -1.639   1.140   1.459  0.00  0.00    -0.378 OA
BRANCH  18  19
ATOM     19  C12 UNL     1      -2.082  -0.203   1.254  0.00  0.00    +0.160 C 
BRANCH  19  20
ATOM     20  C13 UNL     1      -3.549  -0.167   0.832  0.00  0.00    +0.028 C 
BRANCH  20  21
ATOM     21  C14 UNL     1      -4.088  -1.573   0.576  0.00  0.00    +0.004 C 
BRANCH  21  22
ATOM     22  C15 UNL     1      -5.598  -1.635   0.320  0.00  0.00    +0.023 C 
BRANCH  22  23
ATOM     23  C16 UNL     1      -6.052  -0.952  -0.970  0.00  0.00    +0.141 C 
BRANCH  23  24
ATOM     24  N4  UNL     1      -6.204   0.486  -0.735  0.00  0.00    -0.299 NA
ATOM     25  C17 UNL     1      -6.328   1.173  -1.813  0.00  0.00    +0.134 C 
ENDBRANCH  23  24
ENDBRANCH  22  23
ENDBRANCH  21  22
ENDBRANCH  20  21
ENDBRANCH  19  20
ENDBRANCH  18  19
ENDBRANCH  17  18
ENDBRANCH   1  17
TORSDOF 15
