REMARK  Name = /home/vital/Documents/PhD_2021/Malaria_codes/data/pdb_ligands/ligand_321.pdb
REMARK  7 active torsions:
REMARK  status: ('A' for Active; 'I' for Inactive)
REMARK    1  A    between atoms: C1_1  and  C2_2
REMARK    2  A    between atoms: C3_3  and  C4_5
REMARK    3  A    between atoms: C5_7  and  C6_8
REMARK    4  A    between atoms: N1_9  and  C7_10
REMARK    5  A    between atoms: N3_13  and  C9_14
REMARK    6  A    between atoms: C9_14  and  C10_15
REMARK    7  A    between atoms: C10_15  and  O1_16
REMARK                            x       y       z     vdW  Elec       q    Type
REMARK                         _______ _______ _______ _____ _____    ______ ____
ROOT
ATOM      1  C7  UNL     1      -0.567  -0.676  -0.565  0.00  0.00    +0.252 A 
ATOM      2  N2  UNL     1      -1.815  -0.087  -0.394  0.00  0.00    -0.195 NA
ATOM      3  C8  UNL     1      -2.853  -0.842  -0.223  0.00  0.00    +0.132 A 
ATOM      4  N3  UNL     1      -4.139  -0.408  -0.041  0.00  0.00    -0.326 N 
ATOM      5  C11 UNL     1      -2.705  -2.272  -0.200  0.00  0.00    +0.040 A 
ATOM      6  C12 UNL     1      -1.437  -2.810  -0.373  0.00  0.00    +0.078 A 
ATOM      7  N4  UNL     1      -0.301  -1.954  -0.570  0.00  0.00    -0.211 NA
ATOM      8  C13 UNL     1      -1.930  -4.049  -0.259  0.00  0.00    +0.029 C 
ATOM      9  C14 UNL     1      -3.257  -3.478  -0.074  0.00  0.00    +0.015 C 
ATOM     10  H7  UNL     1      -4.863  -1.110  -0.158  0.00  0.00    +0.148 HD
ENDROOT
BRANCH   1  12
ATOM     11  C6  UNL     1       1.421   0.090   0.139  0.00  0.00    +0.116 C 
ATOM     12  N1  UNL     1       0.495   0.169  -0.759  0.00  0.00    -0.219 NA
BRANCH  11  15
ATOM     13  C4  UNL     1       3.643   0.912   0.922  0.00  0.00    +0.060 C 
ATOM     14 CL2  UNL     1       3.688  -0.149   2.292  0.00  0.00    -0.082 Cl
ATOM     15  C5  UNL     1       2.624   0.940   0.050  0.00  0.00    +0.041 C 
BRANCH  13  18
ATOM     16  C1  UNL     1       5.909   0.503  -1.141  0.00  0.00    +0.037 C 
ATOM     17  C2  UNL     1       5.779   1.610  -0.143  0.00  0.00    -0.009 C 
ATOM     18  C3  UNL     1       4.800   1.774   0.763  0.00  0.00    +0.055 C 
ATOM     19 CL1  UNL     1       4.877   3.141   1.836  0.00  0.00    -0.082 Cl
ENDBRANCH  13  18
ENDBRANCH  11  15
ENDBRANCH   1  12
BRANCH   4  20
ATOM     20  C9  UNL     1      -4.580   0.949  -0.345  0.00  0.00    +0.130 C 
BRANCH  20  21
ATOM     21  C10 UNL     1      -3.998   1.985   0.625  0.00  0.00    +0.174 C 
BRANCH  21  22
ATOM     22  O1  UNL     1      -2.715   2.443   0.208  0.00  0.00    -0.393 OA
ATOM     23  H12 UNL     1      -2.185   1.641  -0.001  0.00  0.00    +0.209 HD
ENDBRANCH  21  22
ENDBRANCH  20  21
ENDBRANCH   4  20
TORSDOF 6
