REMARK  Name = /home/vital/Documents/PhD_2021/Malaria_codes/data/pdb_ligands/ligand_161.pdb
REMARK  8 active torsions:
REMARK  status: ('A' for Active; 'I' for Inactive)
REMARK    1  A    between atoms: C1_1  and  C2_2
REMARK    2  A    between atoms: C10_12  and  C11_13
REMARK    3  A    between atoms: C11_13  and  N2_15
REMARK    4  A    between atoms: N2_15  and  O3_16
REMARK    5  A    between atoms: O3_16  and  C12_17
REMARK    6  A    between atoms: C12_17  and  C13_18
REMARK    7  A    between atoms: C13_18  and  C14_19
REMARK    8  A    between atoms: C13_18  and  C15_20
REMARK                            x       y       z     vdW  Elec       q    Type
REMARK                         _______ _______ _______ _____ _____    ______ ____
ROOT
ATOM      1  C1  UNL     1       1.512  -2.112   0.210  0.00  0.00    +0.045 C 
ATOM      2  C2  UNL     1       1.891  -0.660   0.056  0.00  0.00    -0.024 A 
ATOM      3  C3  UNL     1       3.336  -0.314   0.108  0.00  0.00    +0.002 A 
ATOM      4  C4  UNL     1       4.351  -1.270   0.281  0.00  0.00    +0.010 A 
ATOM      5  C5  UNL     1       5.698  -0.893   0.328  0.00  0.00    +0.001 A 
ATOM      6  C6  UNL     1       6.055   0.446   0.204  0.00  0.00    +0.002 A 
ATOM      7  C7  UNL     1       5.066   1.411   0.031  0.00  0.00    +0.026 A 
ATOM      8  C8  UNL     1       3.721   1.028  -0.016  0.00  0.00    +0.049 A 
ATOM      9  N1  UNL     1       2.751   2.012  -0.196  0.00  0.00    -0.321 N 
ATOM     10  C9  UNL     1       1.405   1.757  -0.270  0.00  0.00    +0.262 A 
ATOM     11  O1  UNL     1       0.640   2.698  -0.474  0.00  0.00    -0.267 OA
ATOM     12  C10 UNL     1       0.982   0.332  -0.111  0.00  0.00    +0.108 A 
ATOM     13  H8  UNL     1       3.001   2.982  -0.302  0.00  0.00    +0.169 HD
ENDROOT
BRANCH  12  14
ATOM     14  C11 UNL     1      -0.464  -0.024  -0.168  0.00  0.00    +0.294 C 
ATOM     15  O2  UNL     1      -0.935  -0.486  -1.207  0.00  0.00    -0.266 OA
BRANCH  14  16
ATOM     16  N2  UNL     1      -1.045   0.195   1.021  0.00  0.00    -0.058 NA
BRANCH  16  17
ATOM     17  O3  UNL     1      -2.357  -0.399   1.127  0.00  0.00    -0.257 OA
BRANCH  17  18
ATOM     18  C12 UNL     1      -3.326   0.582   0.750  0.00  0.00    +0.195 C 
BRANCH  18  19
ATOM     19  C13 UNL     1      -4.724  -0.048   0.812  0.00  0.00    +0.011 C 
ATOM     20  C14 UNL     1      -5.797   1.007   0.551  0.00  0.00    +0.009 C 
ATOM     21  C15 UNL     1      -4.858  -1.201  -0.184  0.00  0.00    +0.009 C 
ENDBRANCH  18  19
ENDBRANCH  17  18
ENDBRANCH  16  17
ENDBRANCH  14  16
ENDBRANCH  12  14
TORSDOF 5
