REMARK  Name = /home/vital/Documents/PhD_2021/Malaria_codes/data/pdb_ligands/ligand_194.pdb
REMARK  7 active torsions:
REMARK  status: ('A' for Active; 'I' for Inactive)
REMARK    1  A    between atoms: C1_1  and  O1_2
REMARK    2  A    between atoms: O1_2  and  C2_3
REMARK    3  A    between atoms: C7_8  and  C8_9
REMARK    4  A    between atoms: N1_11  and  C9_12
REMARK    5  A    between atoms: C9_12  and  C10_13
REMARK    6  A    between atoms: C18_23  and  C19_24
REMARK    7  A    between atoms: C20_25  and  C21_26
REMARK                            x       y       z     vdW  Elec       q    Type
REMARK                         _______ _______ _______ _____ _____    ______ ____
ROOT
ATOM      1  C8  UNL     1      -1.097  -1.473   1.584  0.00  0.00    +0.256 C 
ATOM      2  O2  UNL     1      -0.588  -2.554   1.875  0.00  0.00    -0.269 OA
ATOM      3  N1  UNL     1      -0.436  -0.305   1.166  0.00  0.00    -0.242 N 
ATOM      4  C15 UNL     1       0.902  -0.352   0.746  0.00  0.00    +0.169 A 
ATOM      5  N3  UNL     1       1.621   0.734   0.548  0.00  0.00    -0.224 NA
ATOM      6  C16 UNL     1       2.880   0.406   0.078  0.00  0.00    +0.081 A 
ATOM      7  C17 UNL     1       3.912   1.314  -0.230  0.00  0.00    +0.032 A 
ATOM      8  C18 UNL     1       5.153   0.854  -0.707  0.00  0.00    -0.045 A 
ATOM      9  C19 UNL     1       6.230   1.859  -1.013  0.00  0.00    +0.044 C 
ATOM     10  C20 UNL     1       5.369  -0.527  -0.869  0.00  0.00    -0.046 A 
ATOM     11  C21 UNL     1       6.685  -1.058  -1.375  0.00  0.00    +0.044 C 
ATOM     12  C22 UNL     1       4.340  -1.441  -0.573  0.00  0.00    +0.021 A 
ATOM     13  C23 UNL     1       3.111  -0.952  -0.102  0.00  0.00    +0.041 A 
ATOM     14  S1  UNL     1       1.689  -1.813   0.326  0.00  0.00    -0.052 S 
ENDROOT
BRANCH   1  20
ATOM     15  C2  UNL     1      -3.431  -1.454   0.675  0.00  0.00    +0.132 A 
ATOM     16  C3  UNL     1      -4.807  -1.394   0.916  0.00  0.00    +0.046 A 
ATOM     17  C4  UNL     1      -5.297  -1.316   2.225  0.00  0.00    +0.004 A 
ATOM     18  C5  UNL     1      -4.422  -1.310   3.310  0.00  0.00    +0.001 A 
ATOM     19  C6  UNL     1      -3.050  -1.367   3.090  0.00  0.00    +0.017 A 
ATOM     20  C7  UNL     1      -2.561  -1.413   1.776  0.00  0.00    +0.079 A 
BRANCH  15  22
ATOM     21  C1  UNL     1      -3.716  -1.547  -1.690  0.00  0.00    +0.277 C 
ATOM     22  O1  UNL     1      -2.854  -1.553  -0.561  0.00  0.00    -0.494 OA
ENDBRANCH  15  22
ENDBRANCH   1  20
BRANCH   3  23
ATOM     23  C9  UNL     1      -1.068   1.023   1.299  0.00  0.00    +0.152 C 
BRANCH  23  24
ATOM     24  C10 UNL     1      -1.815   1.504   0.080  0.00  0.00    -0.012 A 
ATOM     25  C11 UNL     1      -1.230   1.567  -1.188  0.00  0.00    +0.008 A 
ATOM     26  C12 UNL     1      -1.960   2.056  -2.269  0.00  0.00    +0.020 A 
ATOM     27  C13 UNL     1      -3.258   2.479  -2.047  0.00  0.00    +0.111 A 
ATOM     28  N2  UNL     1      -3.860   2.444  -0.840  0.00  0.00    -0.263 NA
ATOM     29  C14 UNL     1      -3.124   1.969   0.191  0.00  0.00    +0.116 A 
ENDBRANCH  23  24
ENDBRANCH   3  23
TORSDOF 4
