REMARK  Name = /home/vital/Documents/PhD_2021/Malaria_codes/data/pdb_ligands/ligand_113.pdb
REMARK  2 active torsions:
REMARK  status: ('A' for Active; 'I' for Inactive)
REMARK    1  A    between atoms: C1_2  and  C2_3
REMARK    2  A    between atoms: C2_3  and  C3_4
REMARK                            x       y       z     vdW  Elec       q    Type
REMARK                         _______ _______ _______ _____ _____    ______ ____
ROOT
ATOM      1  C3  UNL     1       1.435  -0.500  -0.256  0.00  0.00    +0.090 C 
ATOM      2 CL2  UNL     1       2.061  -1.441  -1.678  0.00  0.00    -0.111 Cl
ATOM      3  C4  UNL     1       0.452   0.524  -0.778  0.00  0.00    -0.002 C 
ATOM      4  C5  UNL     1      -0.061   1.528  -0.046  0.00  0.00    -0.002 C 
ATOM      5  C6  UNL     1      -1.337   2.122  -0.365  0.00  0.00    +0.008 C 
ATOM      6  C7  UNL     1      -2.403   1.355  -0.469  0.00  0.00    -0.020 C 
ATOM      7  C8  UNL     1      -3.752   1.115  -0.636  0.00  0.00    +0.013 C 
ATOM      8  C9  UNL     1      -2.945   0.082  -0.459  0.00  0.00    -0.024 C 
ATOM      9  C10 UNL     1      -2.750  -1.350  -0.323  0.00  0.00    +0.146 C 
ATOM     10  N1  UNL     1      -1.752  -1.741   0.689  0.00  0.00    -0.197 NA
ATOM     11  O1  UNL     1      -0.519  -2.029  -0.054  0.00  0.00    -0.297 OA
ATOM     12  C11 UNL     1       0.619  -1.483   0.644  0.00  0.00    +0.212 C 
ATOM     13  H11 UNL     1      -1.992  -2.682   1.007  0.00  0.00    +0.154 HD
ENDROOT
BRANCH   1  14
ATOM     14  C2  UNL     1       2.645   0.034   0.552  0.00  0.00    +0.045 C 
BRANCH  14  16
ATOM     15 CL1  UNL     1       3.137   2.584  -0.404  0.00  0.00    -0.125 Cl
ATOM     16  C1  UNL     1       3.665   0.902  -0.189  0.00  0.00    +0.111 C 
ENDBRANCH  14  16
ENDBRANCH   1  14
TORSDOF 2
