REMARK  Name = /home/vital/Documents/PhD_2021/Malaria_codes/data/pdb_ligands/ligand_301.pdb
REMARK  7 active torsions:
REMARK  status: ('A' for Active; 'I' for Inactive)
REMARK    1  A    between atoms: C1_1  and  C2_2
REMARK    2  A    between atoms: C4_4  and  N1_5
REMARK    3  A    between atoms: N1_5  and  C5_6
REMARK    4  A    between atoms: C5_6  and  C6_7
REMARK    5  A    between atoms: C5_6  and  C7_8
REMARK    6  A    between atoms: C7_8  and  C8_9
REMARK    7  A    between atoms: C8_9  and  O1_10
REMARK                            x       y       z     vdW  Elec       q    Type
REMARK                         _______ _______ _______ _____ _____    ______ ____
ROOT
ATOM      1  C1  UNL     1      -2.623  -0.275  -3.038  0.00  0.00    +0.065 C 
ATOM      2  C2  UNL     1      -2.243  -0.112  -1.596  0.00  0.00    +0.041 A 
ATOM      3  C3  UNL     1      -0.908   0.040  -1.243  0.00  0.00    +0.046 A 
ATOM      4  C4  UNL     1      -0.552   0.170   0.102  0.00  0.00    +0.038 A 
ATOM      5  C9  UNL     1      -1.606   0.227   1.060  0.00  0.00    +0.024 A 
ATOM      6  C10 UNL     1      -1.403   0.452   2.443  0.00  0.00    +0.050 A 
ATOM      7  C11 UNL     1      -2.475   0.478   3.327  0.00  0.00    +0.124 A 
ATOM      8  F1  UNL     1      -2.253   0.688   4.630  0.00  0.00    -0.205 F 
ATOM      9  C12 UNL     1      -3.767   0.291   2.874  0.00  0.00    +0.040 A 
ATOM     10  C13 UNL     1      -3.982   0.086   1.511  0.00  0.00    +0.031 A 
ATOM     11  C14 UNL     1      -2.934   0.058   0.598  0.00  0.00    +0.073 A 
ATOM     12  N2  UNL     1      -3.242  -0.121  -0.691  0.00  0.00    -0.252 NA
ENDROOT
BRANCH   4  13
ATOM     13  N1  UNL     1       0.781   0.348   0.517  0.00  0.00    -0.341 N 
ATOM     14  H5  UNL     1       0.937  -0.103   1.415  0.00  0.00    +0.146 HD
BRANCH  13  15
ATOM     15  C5  UNL     1       1.927   0.207  -0.398  0.00  0.00    +0.069 C 
ATOM     16  C6  UNL     1       2.179   1.549  -1.090  0.00  0.00    +0.028 C 
BRANCH  15  17
ATOM     17  C7  UNL     1       3.152  -0.238   0.431  0.00  0.00    +0.049 C 
BRANCH  17  18
ATOM     18  C8  UNL     1       4.412  -0.475  -0.393  0.00  0.00    +0.157 C 
BRANCH  18  19
ATOM     19  O1  UNL     1       4.178  -1.449  -1.400  0.00  0.00    -0.395 OA
ATOM     20  H14 UNL     1       4.063  -2.308  -0.958  0.00  0.00    +0.209 HD
ENDBRANCH  18  19
ENDBRANCH  17  18
ENDBRANCH  15  17
ENDBRANCH  13  15
ENDBRANCH   4  13
TORSDOF 5
