REMARK  Name = /home/vital/Documents/PhD_2021/Malaria_codes/data/pdb_ligands/ligand_469.pdb
REMARK  5 active torsions:
REMARK  status: ('A' for Active; 'I' for Inactive)
REMARK    1  A    between atoms: N1_1  and  C1_2
REMARK    2  A    between atoms: C4_5  and  N2_6
REMARK    3  A    between atoms: C6_9  and  C7_10
REMARK    4  A    between atoms: C7_10  and  C8_11
REMARK    5  A    between atoms: C8_11  and  O1_12
REMARK                            x       y       z     vdW  Elec       q    Type
REMARK                         _______ _______ _______ _____ _____    ______ ____
ROOT
ATOM      1  N2  UNL     1       1.383  -1.179   0.827  0.00  0.00    -0.284 N 
ATOM      2  C5  UNL     1       0.042  -0.809   0.788  0.00  0.00    +0.220 A 
ATOM      3  N3  UNL     1      -0.378   0.251   0.090  0.00  0.00    -0.219 NA
ATOM      4  C6  UNL     1      -1.697   0.546   0.102  0.00  0.00    +0.056 A 
ATOM      5  C9  UNL     1      -2.633  -0.225   0.802  0.00  0.00    +0.022 A 
ATOM      6  C10 UNL     1      -4.032   0.007   0.850  0.00  0.00    +0.012 A 
ATOM      7  C11 UNL     1      -4.868  -0.831   1.584  0.00  0.00    +0.001 A 
ATOM      8  C12 UNL     1      -4.321  -1.903   2.274  0.00  0.00    +0.002 A 
ATOM      9  C13 UNL     1      -2.944  -2.130   2.224  0.00  0.00    +0.028 A 
ATOM     10  C14 UNL     1      -2.088  -1.310   1.498  0.00  0.00    +0.076 A 
ATOM     11  N4  UNL     1      -0.780  -1.596   1.494  0.00  0.00    -0.214 NA
ATOM     12  H5  UNL     1       1.475  -1.994   1.415  0.00  0.00    +0.155 HD
ENDROOT
BRANCH   1  16
ATOM     13  C1  UNL     1       5.023   0.328  -0.757  0.00  0.00    +0.043 A 
ATOM     14  C2  UNL     1       4.979  -0.847  -0.008  0.00  0.00    +0.026 A 
ATOM     15  C3  UNL     1       3.767  -1.317   0.514  0.00  0.00    +0.025 A 
ATOM     16  C4  UNL     1       2.555  -0.649   0.278  0.00  0.00    +0.035 A 
ATOM     17  C15 UNL     1       2.596   0.497  -0.520  0.00  0.00    +0.045 A 
ATOM     18  C16 UNL     1       3.807   0.968  -1.044  0.00  0.00    +0.063 A 
ATOM     19 CL1  UNL     1       3.776   2.390  -2.034  0.00  0.00    -0.082 Cl
BRANCH  13  20
ATOM     20  N1  UNL     1       6.231   0.707  -1.369  0.00  0.00    -0.357 N 
ATOM     21  H1  UNL     1       7.062   0.468  -0.837  0.00  0.00    +0.142 HD
ATOM     22  H2  UNL     1       6.223   1.678  -1.677  0.00  0.00    +0.142 HD
ENDBRANCH  13  20
ENDBRANCH   1  16
BRANCH   4  23
ATOM     23  C7  UNL     1      -2.079   1.746  -0.722  0.00  0.00    +0.084 C 
BRANCH  23  24
ATOM     24  C8  UNL     1      -2.493   1.349  -2.134  0.00  0.00    +0.162 C 
BRANCH  24  25
ATOM     25  O1  UNL     1      -2.874   2.506  -2.873  0.00  0.00    -0.395 OA
ATOM     26  H10 UNL     1      -2.065   3.022  -3.037  0.00  0.00    +0.209 HD
ENDBRANCH  24  25
ENDBRANCH  23  24
ENDBRANCH   4  23
TORSDOF 5
