REMARK  Name = /home/vital/Documents/PhD_2021/Malaria_codes/data/pdb_ligands/ligand_459.pdb
REMARK  2 active torsions:
REMARK  status: ('A' for Active; 'I' for Inactive)
REMARK    1  A    between atoms: C1_1  and  C2_2
REMARK    2  A    between atoms: C5_8  and  C6_9
REMARK                            x       y       z     vdW  Elec       q    Type
REMARK                         _______ _______ _______ _____ _____    ______ ____
ROOT
ATOM      1  C1  UNL     1      -0.705  -2.200  -0.079  0.00  0.00    +0.066 C 
ATOM      2  C2  UNL     1      -1.300  -0.825   0.033  0.00  0.00    +0.051 A 
ATOM      3  N1  UNL     1      -2.653  -0.780   0.093  0.00  0.00    -0.219 NA
ATOM      4  C3  UNL     1      -3.229   0.421   0.188  0.00  0.00    +0.213 A 
ATOM      5  N2  UNL     1      -4.606   0.467   0.232  0.00  0.00    -0.327 N 
ATOM      6  N3  UNL     1      -2.572   1.580   0.195  0.00  0.00    -0.222 NA
ATOM      7  C4  UNL     1      -1.226   1.500   0.137  0.00  0.00    +0.124 A 
ATOM      8  C5  UNL     1      -0.508   0.318   0.067  0.00  0.00    +0.024 A 
ATOM      9  H4  UNL     1      -4.923   1.358  -0.122  0.00  0.00    +0.145 HD
ATOM     10  H5  UNL     1      -4.984  -0.365  -0.199  0.00  0.00    +0.145 HD
ENDROOT
BRANCH   8  11
ATOM     11  C6  UNL     1       0.955   0.319   0.030  0.00  0.00    +0.021 A 
ATOM     12  C7  UNL     1       1.707  -0.108   1.137  0.00  0.00    +0.013 A 
ATOM     13  C8  UNL     1       3.105  -0.101   1.097  0.00  0.00    +0.021 A 
ATOM     14  C9  UNL     1       3.765   0.336  -0.051  0.00  0.00    +0.044 A 
ATOM     15 CL1  UNL     1       5.484   0.342  -0.096  0.00  0.00    -0.083 Cl
ATOM     16  C10 UNL     1       3.043   0.769  -1.157  0.00  0.00    +0.059 A 
ATOM     17  C11 UNL     1       1.652   0.758  -1.106  0.00  0.00    +0.133 A 
ATOM     18  F1  UNL     1       0.973   1.181  -2.183  0.00  0.00    -0.205 F 
ENDBRANCH   8  11
TORSDOF 1
