REMARK  Name = /home/vital/Documents/PhD_2021/Malaria_codes/data/pdb_ligands/ligand_251.pdb
REMARK  12 active torsions:
REMARK  status: ('A' for Active; 'I' for Inactive)
REMARK    1  A    between atoms: C1_1  and  C2_2
REMARK    2  A    between atoms: C2_2  and  O1_3
REMARK    3  A    between atoms: O1_3  and  C3_4
REMARK    4  A    between atoms: C3_4  and  C4_6
REMARK    5  A    between atoms: C9_12  and  O3_13
REMARK    6  A    between atoms: O3_13  and  C10_14
REMARK    7  A    between atoms: C13_17  and  N2_18
REMARK    8  A    between atoms: N2_18  and  C14_19
REMARK    9  A    between atoms: C14_19  and  C15_20
REMARK   10  A    between atoms: C15_20  and  C16_21
REMARK   11  A    between atoms: C16_21  and  C17_22
REMARK   12  A    between atoms: C16_21  and  O4_23
REMARK                            x       y       z     vdW  Elec       q    Type
REMARK                         _______ _______ _______ _____ _____    ______ ____
ROOT
ATOM      1  C4  UNL     1       1.900   0.134  -0.415  0.00  0.00    +0.098 A 
ATOM      2  C5  UNL     1       2.548   1.188  -1.044  0.00  0.00    +0.128 A 
ATOM      3  N1  UNL     1       1.982   2.388  -1.313  0.00  0.00    -0.254 NA
ATOM      4  C6  UNL     1       0.713   2.584  -0.932  0.00  0.00    +0.073 A 
ATOM      5  C7  UNL     1       0.132   3.816  -1.198  0.00  0.00    +0.032 A 
ATOM      6  C8  UNL     1      -1.183   4.115  -0.825  0.00  0.00    +0.048 A 
ATOM      7  C9  UNL     1      -1.943   3.164  -0.160  0.00  0.00    +0.121 A 
ATOM      8  C11 UNL     1      -1.373   1.919   0.113  0.00  0.00    +0.057 A 
ATOM      9  C12 UNL     1      -0.050   1.596  -0.275  0.00  0.00    +0.025 A 
ATOM     10  C13 UNL     1       0.563   0.334  -0.016  0.00  0.00    +0.052 A 
ENDROOT
BRANCH   1  11
ATOM     11  C3  UNL     1       2.612  -1.147  -0.174  0.00  0.00    +0.342 C 
ATOM     12  O2  UNL     1       2.173  -2.051   0.519  0.00  0.00    -0.245 OA
BRANCH  11  13
ATOM     13  O1  UNL     1       3.798  -1.170  -0.835  0.00  0.00    -0.461 OA
BRANCH  13  15
ATOM     14  C1  UNL     1       5.442  -2.273   0.560  0.00  0.00    +0.048 C 
ATOM     15  C2  UNL     1       4.578  -2.367  -0.683  0.00  0.00    +0.229 C 
ENDBRANCH  13  15
ENDBRANCH  11  13
ENDBRANCH   1  11
BRANCH   7  16
ATOM     16  O3  UNL     1      -3.231   3.316   0.271  0.00  0.00    -0.495 OA
ATOM     17  C10 UNL     1      -3.837   4.584   0.053  0.00  0.00    +0.277 C 
ENDBRANCH   7  16
BRANCH  10  18
ATOM     18  N2  UNL     1      -0.213  -0.722   0.551  0.00  0.00    -0.343 N 
ATOM     19  H13 UNL     1       0.409  -1.406   1.010  0.00  0.00    +0.146 HD
BRANCH  18  20
ATOM     20  C14 UNL     1      -1.029  -1.423  -0.449  0.00  0.00    +0.104 C 
BRANCH  20  21
ATOM     21  C15 UNL     1      -1.444  -2.819   0.030  0.00  0.00    +0.049 C 
BRANCH  21  22
ATOM     22  C16 UNL     1      -2.229  -2.895   1.344  0.00  0.00    +0.113 C 
ATOM     23  C17 UNL     1      -3.365  -1.887   1.456  0.00  0.00    +0.037 C 
BRANCH  22  24
ATOM     24  O4  UNL     1      -1.331  -2.751   2.442  0.00  0.00    -0.392 OA
ATOM     25  H22 UNL     1      -1.857  -2.620   3.249  0.00  0.00    +0.210 HD
ENDBRANCH  22  24
ENDBRANCH  21  22
ENDBRANCH  20  21
ENDBRANCH  18  20
ENDBRANCH  10  18
TORSDOF 9
