REMARK  Name = /home/vital/Documents/PhD_2021/Malaria_codes/data/pdb_ligands/ligand_220.pdb
REMARK  4 active torsions:
REMARK  status: ('A' for Active; 'I' for Inactive)
REMARK    1  A    between atoms: C1_1  and  C2_2
REMARK    2  A    between atoms: N2_16  and  C13_17
REMARK    3  A    between atoms: C13_17  and  O1_18
REMARK    4  A    between atoms: O1_18  and  N3_19
REMARK                            x       y       z     vdW  Elec       q    Type
REMARK                         _______ _______ _______ _____ _____    ______ ____
ROOT
ATOM      1  C1  UNL     1       2.304   1.252   2.070  0.00  0.00    +0.047 C 
ATOM      2  C2  UNL     1       1.126   1.073   1.169  0.00  0.00    -0.015 C 
ATOM      3  C3  UNL     1      -0.096   1.551   1.447  0.00  0.00    -0.018 C 
ATOM      4  C4  UNL     1      -1.238   1.357   0.502  0.00  0.00    +0.058 C 
ATOM      5  C5  UNL     1      -1.083   0.068  -0.340  0.00  0.00    +0.074 C 
ATOM      6  C6  UNL     1      -1.997   0.108  -1.584  0.00  0.00    +0.059 C 
ATOM      7  C7  UNL     1      -3.454   0.374  -1.363  0.00  0.00    -0.003 C 
ATOM      8  C8  UNL     1      -4.266  -0.078  -0.391  0.00  0.00    +0.055 C 
ATOM      9 CL1  UNL     1      -5.907   0.548  -0.465  0.00  0.00    -0.082 Cl
ATOM     10  C9  UNL     1      -3.935  -1.025   0.671  0.00  0.00    +0.055 C 
ATOM     11 CL2  UNL     1      -5.262  -1.686   1.621  0.00  0.00    -0.082 Cl
ATOM     12  C10 UNL     1      -2.723  -1.500   1.012  0.00  0.00    -0.003 C 
ATOM     13  C11 UNL     1      -1.352  -1.221   0.471  0.00  0.00    +0.059 C 
ATOM     14  N1  UNL     1       0.300  -0.043  -0.868  0.00  0.00    -0.262 NA
ATOM     15  C12 UNL     1       1.299   0.387  -0.161  0.00  0.00    +0.119 C 
ATOM     16  N2  UNL     1       2.562   0.210  -0.666  0.00  0.00    -0.305 N 
ATOM     17  H13 UNL     1       3.345   0.203  -0.020  0.00  0.00    +0.150 HD
ENDROOT
BRANCH  16  18
ATOM     18  C13 UNL     1       2.840  -0.754  -1.701  0.00  0.00    +0.291 C 
BRANCH  18  19
ATOM     19  O1  UNL     1       4.267  -0.848  -1.913  0.00  0.00    -0.284 OA
BRANCH  19  20
ATOM     20  N3  UNL     1       4.976  -0.908  -0.622  0.00  0.00    -0.213 NA
ATOM     21  H16 UNL     1       5.697  -0.199  -0.781  0.00  0.00    +0.150 HD
ATOM     22  H17 UNL     1       5.458  -1.805  -0.716  0.00  0.00    +0.150 HD
ENDBRANCH  19  20
ENDBRANCH  18  19
ENDBRANCH  16  18
TORSDOF 3
