REMARK  Name = /home/vital/Documents/PhD_2021/Malaria_codes/data/pdb_ligands/ligand_103.pdb
REMARK  4 active torsions:
REMARK  status: ('A' for Active; 'I' for Inactive)
REMARK    1  A    between atoms: O1_1  and  C1_2
REMARK    2  A    between atoms: C1_2  and  C2_3
REMARK    3  A    between atoms: C2_3  and  N1_4
REMARK    4  A    between atoms: C4_7  and  C5_8
REMARK                            x       y       z     vdW  Elec       q    Type
REMARK                         _______ _______ _______ _____ _____    ______ ____
ROOT
ATOM      1  N1  UNL     1      -1.187  -2.004   0.762  0.00  0.00    -0.326 N 
ATOM      2  C3  UNL     1      -0.213  -1.348   0.040  0.00  0.00    +0.138 A 
ATOM      3  N2  UNL     1      -0.176  -0.043  -0.006  0.00  0.00    -0.212 NA
ATOM      4  C4  UNL     1       0.813   0.595  -0.740  0.00  0.00    +0.162 A 
ATOM      5  N3  UNL     1       1.779   0.017  -1.399  0.00  0.00    -0.227 NA
ATOM      6  C11 UNL     1       1.820  -1.335  -1.376  0.00  0.00    +0.085 A 
ATOM      7  C12 UNL     1       0.806  -2.083  -0.700  0.00  0.00    +0.082 A 
ATOM      8  C13 UNL     1       1.108  -3.335  -0.821  0.00  0.00    -0.106 C 
ATOM      9  C14 UNL     1       2.194  -3.541  -1.509  0.00  0.00    +0.054 C 
ATOM     10  C15 UNL     1       2.688  -2.221  -1.890  0.00  0.00    +0.037 C 
ATOM     11  H6  UNL     1      -0.990  -2.978   0.988  0.00  0.00    +0.148 HD
ENDROOT
BRANCH   4  12
ATOM     12  C5  UNL     1       0.728   2.093  -0.743  0.00  0.00    +0.021 A 
ATOM     13  C6  UNL     1       1.678   2.846  -1.448  0.00  0.00    +0.013 A 
ATOM     14  C7  UNL     1       1.610   4.242  -1.455  0.00  0.00    +0.022 A 
ATOM     15  C8  UNL     1       0.593   4.899  -0.758  0.00  0.00    +0.059 A 
ATOM     16 CL1  UNL     1       0.571   6.626  -0.805  0.00  0.00    -0.082 Cl
ATOM     17  C9  UNL     1      -0.360   4.153  -0.053  0.00  0.00    +0.060 A 
ATOM     18 CL2  UNL     1      -1.645   4.897   0.832  0.00  0.00    -0.082 Cl
ATOM     19  C10 UNL     1      -0.292   2.756  -0.047  0.00  0.00    +0.033 A 
ENDBRANCH   4  12
BRANCH   1  20
ATOM     20  C2  UNL     1      -1.944  -1.344   1.815  0.00  0.00    +0.130 C 
BRANCH  20  21
ATOM     21  C1  UNL     1      -3.028  -2.292   2.332  0.00  0.00    +0.174 C 
BRANCH  21  22
ATOM     22  O1  UNL     1      -2.426  -3.487   2.837  0.00  0.00    -0.393 OA
ATOM     23  H1  UNL     1      -3.153  -4.059   3.141  0.00  0.00    +0.209 HD
ENDBRANCH  21  22
ENDBRANCH  20  21
ENDBRANCH   1  20
TORSDOF 4
