REMARK  Name = /home/vital/Documents/PhD_2021/Malaria_codes/data/pdb_ligands/ligand_32.pdb
REMARK  5 active torsions:
REMARK  status: ('A' for Active; 'I' for Inactive)
REMARK    1  A    between atoms: C1_2  and  C2_3
REMARK    2  A    between atoms: C2_3  and  S1_4
REMARK    3  A    between atoms: S1_4  and  C3_5
REMARK    4  A    between atoms: C6_11  and  C7_12
REMARK    5  A    between atoms: N4_20  and  C15_21
REMARK                            x       y       z     vdW  Elec       q    Type
REMARK                         _______ _______ _______ _____ _____    ______ ____
ROOT
ATOM      1  C3  UNL     1       0.038   1.641  -0.111  0.00  0.00    +0.123 A 
ATOM      2  N1  UNL     1      -0.959   1.702  -0.953  0.00  0.00    -0.245 NA
ATOM      3  C4  UNL     1      -0.832   1.000  -2.138  0.00  0.00    +0.132 A 
ATOM      4  C5  UNL     1       0.239   0.255  -2.449  0.00  0.00    +0.132 A 
ATOM      5  N2  UNL     1       1.289   0.175  -1.550  0.00  0.00    -0.235 N 
ATOM      6  N3  UNL     1       2.443  -0.511  -1.670  0.00  0.00    -0.166 NA
ATOM      7  C6  UNL     1       3.129  -0.270  -0.540  0.00  0.00    +0.094 A 
ATOM      8  C13 UNL     1       2.389   0.596   0.311  0.00  0.00    +0.060 A 
ATOM      9  C14 UNL     1       1.220   0.864  -0.363  0.00  0.00    +0.099 A 
ENDROOT
BRANCH   7  10
ATOM     10  C7  UNL     1       4.454  -0.862  -0.306  0.00  0.00    +0.002 A 
ATOM     11  C8  UNL     1       5.054  -1.671  -1.284  0.00  0.00    +0.010 A 
ATOM     12  C9  UNL     1       6.314  -2.240  -1.075  0.00  0.00    +0.001 A 
ATOM     13  C10 UNL     1       6.993  -2.007   0.118  0.00  0.00    +0.000 A 
ATOM     14  C11 UNL     1       6.413  -1.207   1.100  0.00  0.00    +0.001 A 
ATOM     15  C12 UNL     1       5.153  -0.638   0.891  0.00  0.00    +0.010 A 
ENDBRANCH   7  10
BRANCH   1  16
ATOM     16  S1  UNL     1       0.016   2.526   1.392  0.00  0.00    -0.094 S 
BRANCH  16  17
ATOM     17  C2  UNL     1      -1.711   3.061   1.483  0.00  0.00    +0.172 C 
BRANCH  17  19
ATOM     18  O1  UNL     1      -2.742   1.497   2.981  0.00  0.00    -0.275 OA
ATOM     19  C1  UNL     1      -2.624   1.894   1.826  0.00  0.00    +0.228 C 
ATOM     20  N4  UNL     1      -3.226   1.335   0.711  0.00  0.00    -0.282 N 
ATOM     21  H11 UNL     1      -2.723   1.487  -0.164  0.00  0.00    +0.155 HD
BRANCH  20  22
ATOM     22  C15 UNL     1      -4.210   0.323   0.716  0.00  0.00    +0.072 A 
ATOM     23  C16 UNL     1      -4.305  -0.477  -0.428  0.00  0.00    +0.064 A 
ATOM     24  C17 UNL     1      -5.249  -1.500  -0.488  0.00  0.00    +0.125 A 
ATOM     25  F1  UNL     1      -5.315  -2.267  -1.584  0.00  0.00    -0.205 F 
ATOM     26  C18 UNL     1      -6.123  -1.739   0.566  0.00  0.00    +0.041 A 
ATOM     27  C19 UNL     1      -6.060  -0.926   1.695  0.00  0.00    +0.043 A 
ATOM     28  C20 UNL     1      -5.116   0.101   1.764  0.00  0.00    +0.145 A 
ATOM     29  F2  UNL     1      -5.175   0.918   2.824  0.00  0.00    -0.204 F 
ENDBRANCH  20  22
ENDBRANCH  17  19
ENDBRANCH  16  17
ENDBRANCH   1  16
TORSDOF 5
