REMARK  Name = /home/vital/Documents/PhD_2021/Malaria_codes/data/pdb_ligands/ligand_110.pdb
REMARK  5 active torsions:
REMARK  status: ('A' for Active; 'I' for Inactive)
REMARK    1  A    between atoms: C1_1  and  N1_2
REMARK    2  A    between atoms: N1_2  and  C2_3
REMARK    3  A    between atoms: C2_3  and  C3_4
REMARK    4  A    between atoms: C7_8  and  N2_9
REMARK    5  A    between atoms: N2_9  and  C8_10
REMARK                            x       y       z     vdW  Elec       q    Type
REMARK                         _______ _______ _______ _____ _____    ______ ____
ROOT
ATOM      1  N2  UNL     1      -0.648  -0.286   1.626  0.00  0.00    -0.314 N 
ATOM      2  H11 UNL     1      -0.402  -0.501   2.590  0.00  0.00    +0.152 HD
ENDROOT
BRANCH   1   3
ATOM      3  C8  UNL     1      -2.060  -0.272   1.446  0.00  0.00    +0.042 A 
ATOM      4  C9  UNL     1      -2.846  -1.083   2.266  0.00  0.00    +0.043 A 
ATOM      5  C10 UNL     1      -4.206  -1.128   2.035  0.00  0.00    +0.113 A 
ATOM      6  N3  UNL     1      -4.822  -0.438   1.055  0.00  0.00    -0.255 NA
ATOM      7  C11 UNL     1      -4.079   0.346   0.262  0.00  0.00    +0.073 A 
ATOM      8  C12 UNL     1      -4.717   1.061  -0.745  0.00  0.00    +0.030 A 
ATOM      9  C13 UNL     1      -4.016   1.907  -1.609  0.00  0.00    +0.022 A 
ATOM     10  C14 UNL     1      -2.645   2.048  -1.458  0.00  0.00    +0.042 A 
ATOM     11 CL1  UNL     1      -1.759   3.086  -2.504  0.00  0.00    -0.084 Cl
ATOM     12  C15 UNL     1      -1.980   1.346  -0.457  0.00  0.00    +0.031 A 
ATOM     13  C16 UNL     1      -2.680   0.474   0.410  0.00  0.00    +0.023 A 
ENDBRANCH   1   3
BRANCH   1  18
ATOM     14  C3  UNL     1       2.656  -1.037   0.081  0.00  0.00    -0.063 A 
ATOM     15  C4  UNL     1       2.273  -1.793  -1.035  0.00  0.00    +0.002 A 
ATOM     16  C5  UNL     1       0.927  -2.063  -1.270  0.00  0.00    +0.002 A 
ATOM     17  C6  UNL     1      -0.049  -1.579  -0.397  0.00  0.00    +0.023 A 
ATOM     18  C7  UNL     1       0.304  -0.841   0.737  0.00  0.00    +0.032 A 
ATOM     19  C17 UNL     1       1.663  -0.577   0.964  0.00  0.00    +0.025 A 
BRANCH  14  20
ATOM     20  C2  UNL     1       4.096  -0.672   0.296  0.00  0.00    -0.047 C 
BRANCH  20  22
ATOM     21  C1  UNL     1       3.977   1.764  -0.349  0.00  0.00    -0.100 C 
ATOM     22  N1  UNL     1       4.558   0.420  -0.614  0.00  0.00    +0.380 N 
ATOM     23  H4  UNL     1       5.581   0.483  -0.558  0.00  0.00    -0.086 HD
ATOM     24  H5  UNL     1       4.339   0.153  -1.583  0.00  0.00    -0.086 HD
ENDBRANCH  20  22
ENDBRANCH  14  20
ENDBRANCH   1  18
TORSDOF 4
