REMARK  Name = /home/vital/Documents/PhD_2021/Malaria_codes/data/pdb_ligands/ligand_342.pdb
REMARK  8 active torsions:
REMARK  status: ('A' for Active; 'I' for Inactive)
REMARK    1  A    between atoms: C1_1  and  C2_2
REMARK    2  A    between atoms: C2_2  and  C3_3
REMARK    3  A    between atoms: C3_3  and  C4_4
REMARK    4  A    between atoms: C3_3  and  S1_5
REMARK    5  A    between atoms: S1_5  and  O2_7
REMARK    6  A    between atoms: O2_7  and  C5_8
REMARK    7  A    between atoms: C8_11  and  N1_12
REMARK    8  A    between atoms: C9_13  and  C10_15
REMARK                            x       y       z     vdW  Elec       q    Type
REMARK                         _______ _______ _______ _____ _____    ______ ____
ROOT
ATOM      1  C5  UNL     1      -0.786   0.018  -0.211  0.00  0.00    +0.141 A 
ATOM      2  C6  UNL     1       0.013   1.147  -0.044  0.00  0.00    +0.049 A 
ATOM      3  C7  UNL     1       1.405   1.019  -0.041  0.00  0.00    +0.027 A 
ATOM      4  C8  UNL     1       2.012  -0.232  -0.223  0.00  0.00    +0.034 A 
ATOM      5  C14 UNL     1       1.200  -1.353  -0.411  0.00  0.00    +0.027 A 
ATOM      6  C15 UNL     1      -0.195  -1.228  -0.416  0.00  0.00    +0.049 A 
ENDROOT
BRANCH   4   7
ATOM      7  N1  UNL     1       3.423  -0.266  -0.199  0.00  0.00    -0.281 N 
ATOM      8  C9  UNL     1       4.256  -1.357  -0.413  0.00  0.00    +0.255 C 
ATOM      9  O3  UNL     1       3.855  -2.477  -0.715  0.00  0.00    -0.269 OA
ATOM     10  H12 UNL     1       3.876   0.625  -0.062  0.00  0.00    +0.155 HD
BRANCH   8  11
ATOM     11  C10 UNL     1       5.680  -1.046  -0.262  0.00  0.00    +0.074 A 
ATOM     12  C11 UNL     1       6.308  -0.006   0.405  0.00  0.00    +0.021 A 
ATOM     13  C12 UNL     1       7.731  -0.066   0.304  0.00  0.00    +0.008 A 
ATOM     14  C13 UNL     1       8.150  -1.152  -0.427  0.00  0.00    +0.046 A 
ATOM     15  S2  UNL     1       6.838  -2.096  -0.980  0.00  0.00    -0.092 S 
ENDBRANCH   8  11
ENDBRANCH   4   7
BRANCH   1  16
ATOM     16  O2  UNL     1      -2.144   0.200  -0.247  0.00  0.00    -0.399 OA
BRANCH  16  17
ATOM     17  S1  UNL     1      -2.975  -0.602   0.880  0.00  0.00    +0.210 S 
ATOM     18  O1  UNL     1      -3.465  -1.883   0.270  0.00  0.00    -0.215 OA
BRANCH  17  19
ATOM     19  C3  UNL     1      -4.381   0.598   0.862  0.00  0.00    +0.115 C 
ATOM     20  C4  UNL     1      -5.294   0.275   2.043  0.00  0.00    +0.025 C 
BRANCH  19  22
ATOM     21  C1  UNL     1      -6.195   1.629  -0.611  0.00  0.00    +0.005 C 
ATOM     22  C2  UNL     1      -5.120   0.558  -0.485  0.00  0.00    +0.016 C 
ENDBRANCH  19  22
ENDBRANCH  17  19
ENDBRANCH  16  17
ENDBRANCH   1  16
TORSDOF 6
