REMARK  Name = /home/vital/Documents/PhD_2021/Malaria_codes/data/pdb_ligands/ligand_23.pdb
REMARK  10 active torsions:
REMARK  status: ('A' for Active; 'I' for Inactive)
REMARK    1  A    between atoms: C1_1  and  C2_2
REMARK    2  A    between atoms: C2_2  and  C3_3
REMARK    3  A    between atoms: C3_3  and  C4_4
REMARK    4  A    between atoms: C3_3  and  O1_5
REMARK    5  A    between atoms: O1_5  and  C5_6
REMARK    6  A    between atoms: C5_6  and  C6_8
REMARK    7  A    between atoms: C7_9  and  N1_10
REMARK    8  A    between atoms: N2_11  and  C8_12
REMARK    9  A    between atoms: C8_12  and  C9_13
REMARK   10  A    between atoms: C9_13  and  C10_14
REMARK                            x       y       z     vdW  Elec       q    Type
REMARK                         _______ _______ _______ _____ _____    ______ ____
ROOT
ATOM      1  C6  UNL     1      -1.406   0.178  -0.518  0.00  0.00    +0.126 A 
ATOM      2  C7  UNL     1      -0.365  -0.726  -0.305  0.00  0.00    +0.114 A 
ATOM      3  N2  UNL     1       0.827  -0.082  -0.559  0.00  0.00    -0.312 N 
ATOM      4  C16 UNL     1       0.578   1.215  -0.925  0.00  0.00    +0.162 A 
ATOM      5  N3  UNL     1       1.501   2.150  -1.235  0.00  0.00    -0.226 NA
ATOM      6  C17 UNL     1       0.952   3.335  -1.552  0.00  0.00    +0.092 A 
ATOM      7  C18 UNL     1       1.798   4.384  -1.891  0.00  0.00    +0.030 A 
ATOM      8  C19 UNL     1       1.302   5.643  -2.232  0.00  0.00    +0.002 A 
ATOM      9  C20 UNL     1      -0.069   5.860  -2.234  0.00  0.00    +0.002 A 
ATOM     10  C21 UNL     1      -0.930   4.816  -1.895  0.00  0.00    +0.030 A 
ATOM     11  C22 UNL     1      -0.450   3.558  -1.553  0.00  0.00    +0.090 A 
ATOM     12  N4  UNL     1      -1.339   2.604  -1.238  0.00  0.00    -0.241 NA
ATOM     13  C23 UNL     1      -0.797   1.403  -0.912  0.00  0.00    +0.124 A 
ENDROOT
BRANCH   2  14
ATOM     14  N1  UNL     1      -0.399  -2.016   0.105  0.00  0.00    -0.344 N 
ATOM     15  H10 UNL     1       0.358  -2.669  -0.078  0.00  0.00    +0.144 HD
ATOM     16  H11 UNL     1      -1.307  -2.486   0.138  0.00  0.00    +0.144 HD
ENDBRANCH   2  14
BRANCH   1  17
ATOM     17  C5  UNL     1      -2.834  -0.060  -0.369  0.00  0.00    +0.345 C 
ATOM     18  O2  UNL     1      -3.693   0.804  -0.497  0.00  0.00    -0.245 OA
BRANCH  17  19
ATOM     19  O1  UNL     1      -3.127  -1.367  -0.072  0.00  0.00    -0.458 OA
BRANCH  19  20
ATOM     20  C3  UNL     1      -4.523  -1.687   0.101  0.00  0.00    +0.173 C 
ATOM     21  C4  UNL     1      -4.668  -3.167  -0.242  0.00  0.00    +0.052 C 
BRANCH  20  23
ATOM     22  C1  UNL     1      -6.398  -1.622   1.838  0.00  0.00    +0.007 C 
ATOM     23  C2  UNL     1      -4.925  -1.379   1.550  0.00  0.00    +0.041 C 
ENDBRANCH  20  23
ENDBRANCH  19  20
ENDBRANCH  17  19
ENDBRANCH   1  17
BRANCH   3  24
ATOM     24  C8  UNL     1       2.167  -0.631  -0.431  0.00  0.00    +0.130 C 
BRANCH  24  25
ATOM     25  C9  UNL     1       2.718  -0.454   0.981  0.00  0.00    +0.057 C 
BRANCH  25  26
ATOM     26  C10 UNL     1       4.094  -1.056   1.115  0.00  0.00    -0.046 A 
ATOM     27  C11 UNL     1       5.223  -0.341   0.692  0.00  0.00    +0.004 A 
ATOM     28  C12 UNL     1       6.495  -0.904   0.794  0.00  0.00    +0.000 A 
ATOM     29  C13 UNL     1       6.651  -2.186   1.318  0.00  0.00    +0.000 A 
ATOM     30  C14 UNL     1       5.534  -2.906   1.740  0.00  0.00    +0.000 A 
ATOM     31  C15 UNL     1       4.261  -2.345   1.638  0.00  0.00    +0.004 A 
ENDBRANCH  25  26
ENDBRANCH  24  25
ENDBRANCH   3  24
TORSDOF 8
