REMARK  Name = /home/vital/Documents/PhD_2021/Malaria_codes/data/pdb_ligands/ligand_68.pdb
REMARK  3 active torsions:
REMARK  status: ('A' for Active; 'I' for Inactive)
REMARK    1  A    between atoms: O1_1  and  C1_2
REMARK    2  A    between atoms: C1_2  and  C2_3
REMARK    3  A    between atoms: C3_5  and  C4_6
REMARK                            x       y       z     vdW  Elec       q    Type
REMARK                         _______ _______ _______ _____ _____    ______ ____
ROOT
ATOM      1  C2  UNL     1      -1.959   1.016   0.461  0.00  0.00    +0.062 C 
ATOM      2  N1  UNL     1      -0.820   0.417   0.539  0.00  0.00    -0.273 NA
ATOM      3  C3  UNL     1      -0.024   0.173  -0.678  0.00  0.00    +0.174 C 
ATOM      4  C10 UNL     1      -0.696  -0.756  -1.653  0.00  0.00    +0.039 C 
ATOM      5  C11 UNL     1      -1.847  -1.337  -1.600  0.00  0.00    -0.104 C 
ATOM      6  C12 UNL     1      -1.948  -0.266  -2.306  0.00  0.00    +0.031 C 
ATOM      7  C13 UNL     1      -2.640   0.946  -1.953  0.00  0.00    +0.019 C 
ATOM      8  C14 UNL     1      -2.653   1.548  -0.754  0.00  0.00    +0.026 C 
ENDROOT
BRANCH   3   9
ATOM      9  C4  UNL     1       1.343  -0.388  -0.295  0.00  0.00    -0.017 A 
ATOM     10  C5  UNL     1       2.512   0.119  -0.882  0.00  0.00    +0.007 A 
ATOM     11  C6  UNL     1       3.762  -0.406  -0.543  0.00  0.00    +0.022 A 
ATOM     12  C7  UNL     1       3.862  -1.447   0.384  0.00  0.00    +0.059 A 
ATOM     13 CL1  UNL     1       5.441  -2.043   0.754  0.00  0.00    -0.082 Cl
ATOM     14  C8  UNL     1       2.706  -1.967   0.973  0.00  0.00    +0.060 A 
ATOM     15 CL2  UNL     1       2.751  -3.256   2.122  0.00  0.00    -0.082 Cl
ATOM     16  C9  UNL     1       1.455  -1.441   0.631  0.00  0.00    +0.027 A 
ENDBRANCH   3   9
BRANCH   1  17
ATOM     17  C1  UNL     1      -2.684   1.265   1.788  0.00  0.00    +0.210 C 
BRANCH  17  18
ATOM     18  O1  UNL     1      -2.406   0.233   2.720  0.00  0.00    -0.389 OA
ATOM     19  H1  UNL     1      -1.483  -0.034   2.534  0.00  0.00    +0.210 HD
ENDBRANCH  17  18
ENDBRANCH   1  17
TORSDOF 3
