REMARK  Name = /home/vital/Documents/PhD_2021/Malaria_codes/data/pdb_ligands/ligand_191.pdb
REMARK  3 active torsions:
REMARK  status: ('A' for Active; 'I' for Inactive)
REMARK    1  A    between atoms: C1_1  and  C2_2
REMARK    2  A    between atoms: C6_8  and  C7_9
REMARK    3  A    between atoms: C7_9  and  O1_10
REMARK                            x       y       z     vdW  Elec       q    Type
REMARK                         _______ _______ _______ _____ _____    ______ ____
ROOT
ATOM      1  C1  UNL     1      -3.897  -0.233   1.069  0.00  0.00    +0.040 C 
ATOM      2  C2  UNL     1      -2.649  -0.281   0.235  0.00  0.00    -0.055 C 
ATOM      3  C3  UNL     1      -1.799  -1.330   0.273  0.00  0.00    -0.008 C 
ATOM      4  C4  UNL     1      -0.527  -1.460  -0.538  0.00  0.00    +0.136 C 
ATOM      5  N1  UNL     1      -0.158  -0.168  -1.124  0.00  0.00    -0.278 N 
ATOM      6  C5  UNL     1       0.945   0.512  -0.634  0.00  0.00    +0.221 A 
ATOM      7  N2  UNL     1       1.935  -0.252  -0.053  0.00  0.00    -0.216 NA
ATOM      8  C6  UNL     1       3.026   0.327   0.340  0.00  0.00    +0.088 A 
ATOM      9  C8  UNL     1       3.302   1.764   0.220  0.00  0.00    +0.076 A 
ATOM     10  C9  UNL     1       2.112   2.500  -0.267  0.00  0.00    +0.127 A 
ATOM     11  N3  UNL     1       1.034   1.807  -0.723  0.00  0.00    -0.205 NA
ATOM     12  C10 UNL     1       3.238   2.423  -0.886  0.00  0.00    -0.079 C 
ATOM     13  C11 UNL     1      -1.316   0.489  -1.751  0.00  0.00    +0.190 C 
ATOM     14 CL1  UNL     1      -0.913   1.740  -2.943  0.00  0.00    -0.099 Cl
ATOM     15  C12 UNL     1      -2.395   0.889  -0.711  0.00  0.00    +0.141 C 
ATOM     16 CL2  UNL     1      -1.990   2.335   0.262  0.00  0.00    -0.114 Cl
ENDROOT
BRANCH   8  17
ATOM     17  C7  UNL     1       4.077  -0.513   1.044  0.00  0.00    +0.212 C 
BRANCH  17  18
ATOM     18  O1  UNL     1       4.115  -1.827   0.509  0.00  0.00    -0.389 OA
ATOM     19  H9  UNL     1       3.188  -2.042   0.284  0.00  0.00    +0.210 HD
ENDBRANCH  17  18
ENDBRANCH   8  17
TORSDOF 2
