REMARK  Name = /home/vital/Documents/PhD_2021/Malaria_codes/data/pdb_ligands/ligand_26.pdb
REMARK  3 active torsions:
REMARK  status: ('A' for Active; 'I' for Inactive)
REMARK    1  A    between atoms: N1_1  and  N2_2
REMARK    2  A    between atoms: C7_11  and  C8_12
REMARK    3  A    between atoms: C11_16  and  C12_17
REMARK                            x       y       z     vdW  Elec       q    Type
REMARK                         _______ _______ _______ _____ _____    ______ ____
ROOT
ATOM      1  N2  UNL     1      -1.168  -0.074   1.593  0.00  0.00    -0.267 N 
ATOM      2  C1  UNL     1      -1.552   0.090   0.260  0.00  0.00    +0.136 C 
ATOM      3  N3  UNL     1      -2.089  -0.798  -0.521  0.00  0.00    -0.264 NA
ATOM      4  C2  UNL     1      -1.891  -2.213  -0.204  0.00  0.00    +0.170 C 
ATOM      5  C3  UNL     1      -0.672  -2.552  -1.023  0.00  0.00    -0.007 C 
ATOM      6  C4  UNL     1       0.543  -2.180  -0.576  0.00  0.00    -0.011 C 
ATOM      7  C5  UNL     1       1.608  -1.659  -1.487  0.00  0.00    +0.128 C 
ATOM      8  N4  UNL     1       1.261  -0.256  -1.792  0.00  0.00    -0.340 N 
ATOM      9  C6  UNL     1       1.157   0.771  -0.853  0.00  0.00    +0.028 C 
ATOM     10  C7  UNL     1       2.051   1.110   0.099  0.00  0.00    +0.024 C 
ATOM     11  C10 UNL     1      -0.036   1.624  -0.946  0.00  0.00    +0.035 C 
ATOM     12  C11 UNL     1      -1.256   1.390  -0.419  0.00  0.00    +0.036 C 
ATOM     13  H3  UNL     1      -0.563   0.680   1.925  0.00  0.00    +0.167 HD
ATOM     14  H10 UNL     1       0.426  -0.269  -2.380  0.00  0.00    +0.146 HD
ENDROOT
BRANCH   1  15
ATOM     15  N1  UNL     1      -2.270  -0.294   2.483  0.00  0.00    -0.255 NA
ATOM     16  H1  UNL     1      -2.973   0.444   2.351  0.00  0.00    +0.140 HD
ATOM     17  H2  UNL     1      -2.762  -1.149   2.208  0.00  0.00    +0.140 HD
ENDBRANCH   1  15
BRANCH  10  18
ATOM     18  C8  UNL     1       3.371   0.550   0.289  0.00  0.00    +0.014 C 
ATOM     19  C9  UNL     1       4.135   0.824   1.350  0.00  0.00    +0.079 C 
ATOM     20 CL1  UNL     1       5.712   0.180   1.543  0.00  0.00    -0.092 Cl
ENDBRANCH  10  18
BRANCH  12  21
ATOM     21  C12 UNL     1      -2.314   2.415  -0.576  0.00  0.00    +0.137 C 
ATOM     22  N5  UNL     1      -3.413   2.377   0.104  0.00  0.00    -0.184 NA
ATOM     23 CL2  UNL     1      -4.364   3.760  -0.354  0.00  0.00    +0.037 Cl
ENDBRANCH  12  21
TORSDOF 3
