REMARK  Name = /home/vital/Documents/PhD_2021/Malaria_codes/data/pdb_ligands/ligand_386.pdb
REMARK  12 active torsions:
REMARK  status: ('A' for Active; 'I' for Inactive)
REMARK    1  A    between atoms: C3_3  and  N1_4
REMARK    2  A    between atoms: C3_3  and  C4_5
REMARK    3  A    between atoms: C5_7  and  C6_8
REMARK    4  A    between atoms: C6_8  and  N2_9
REMARK    5  A    between atoms: N2_9  and  C7_10
REMARK    6  A    between atoms: C7_10  and  C8_11
REMARK    7  A    between atoms: C7_10  and  N5_17
REMARK    8  A    between atoms: C9_12  and  N3_13
REMARK    9  A    between atoms: C11_18  and  C12_19
REMARK   10  A    between atoms: N6_20  and  C13_21
REMARK   11  A    between atoms: C13_21  and  C14_22
REMARK   12  A    between atoms: C14_22  and  O1_23
REMARK                            x       y       z     vdW  Elec       q    Type
REMARK                         _______ _______ _______ _____ _____    ______ ____
ROOT
ATOM      1  C7  UNL     1      -0.581   0.375   0.043  0.00  0.00    +0.199 C 
ENDROOT
BRANCH   1   2
ATOM      2  N5  UNL     1      -1.502  -0.752   0.094  0.00  0.00    -0.251 NA
ATOM      3  C11 UNL     1      -2.380  -0.862   1.033  0.00  0.00    +0.089 C 
ATOM      4  C12 UNL     1      -2.550   0.151   2.150  0.00  0.00    +0.082 C 
ATOM      5  N6  UNL     1      -3.234  -1.946   1.071  0.00  0.00    -0.331 N 
ATOM      6  H17 UNL     1      -3.683  -2.124   1.963  0.00  0.00    +0.147 HD
BRANCH   5   7
ATOM      7  C13 UNL     1      -3.020  -3.139   0.266  0.00  0.00    +0.130 C 
BRANCH   7   8
ATOM      8  C14 UNL     1      -3.272  -2.893  -1.226  0.00  0.00    +0.174 C 
BRANCH   8   9
ATOM      9  O1  UNL     1      -3.607  -4.114  -1.890  0.00  0.00    -0.393 OA
ATOM     10  H22 UNL     1      -4.514  -4.342  -1.625  0.00  0.00    +0.209 HD
ENDBRANCH   8   9
ENDBRANCH   7   8
ENDBRANCH   5   7
ENDBRANCH   1   2
BRANCH   1  11
ATOM     11  N2  UNL     1       0.700  -0.163  -0.398  0.00  0.00    -0.288 NA
ATOM     12  H8  UNL     1       0.541  -0.616  -1.291  0.00  0.00    +0.124 HD
BRANCH  11  13
ATOM     13  C6  UNL     1       1.739   0.855  -0.495  0.00  0.00    +0.112 C 
BRANCH  13  16
ATOM     14  C4  UNL     1       4.215   0.350  -0.068  0.00  0.00    +0.067 C 
ATOM     15 CL1  UNL     1       4.298   1.461   1.278  0.00  0.00    -0.081 Cl
ATOM     16  C5  UNL     1       3.059   0.187  -0.743  0.00  0.00    +0.011 C 
BRANCH  14  19
ATOM     17  C1  UNL     1       5.533  -2.477  -1.902  0.00  0.00    +0.070 C 
ATOM     18  C2  UNL     1       5.488  -1.419  -1.150  0.00  0.00    -0.104 C 
ATOM     19  C3  UNL     1       5.459  -0.358  -0.391  0.00  0.00    +0.086 C 
BRANCH  19  20
ATOM     20  N1  UNL     1       6.674   0.068   0.105  0.00  0.00    -0.351 N 
ATOM     21  H3  UNL     1       6.560   0.618   0.955  0.00  0.00    +0.143 HD
ATOM     22  H4  UNL     1       7.337  -0.694   0.222  0.00  0.00    +0.143 HD
ENDBRANCH  19  20
ENDBRANCH  14  19
ENDBRANCH  13  16
ENDBRANCH  11  13
ENDBRANCH   1  11
BRANCH   1  23
ATOM     23  C8  UNL     1      -1.155   1.351  -0.945  0.00  0.00    +0.035 C 
ATOM     24  C9  UNL     1      -1.389   2.652  -0.726  0.00  0.00    +0.111 C 
BRANCH  24  25
ATOM     25  N3  UNL     1      -1.066   3.288   0.438  0.00  0.00    -0.247 NA
ATOM     26  C10 UNL     1      -1.766   4.314   0.797  0.00  0.00    +0.196 C 
ATOM     27  N4  UNL     1      -2.893   4.946   0.314  0.00  0.00    -0.248 N 
ATOM     28 CL2  UNL     1      -4.257   3.924  -0.018  0.00  0.00    -0.001 Cl
ATOM     29  H13 UNL     1      -3.137   5.781   0.839  0.00  0.00    +0.167 HD
ENDBRANCH  24  25
ENDBRANCH   1  23
TORSDOF 11
