REMARK  Name = /home/vital/Documents/PhD_2021/Malaria_codes/data/pdb_ligands/ligand_291.pdb
REMARK  11 active torsions:
REMARK  status: ('A' for Active; 'I' for Inactive)
REMARK    1  A    between atoms: C1_1  and  C2_2
REMARK    2  A    between atoms: C5_5  and  C6_6
REMARK    3  A    between atoms: C9_9  and  C10_10
REMARK    4  A    between atoms: C10_10  and  N1_11
REMARK    5  A    between atoms: N1_11  and  C11_12
REMARK    6  A    between atoms: C11_12  and  C12_13
REMARK    7  A    between atoms: C12_13  and  N2_14
REMARK    8  A    between atoms: N2_14  and  C13_15
REMARK    9  A    between atoms: C13_15  and  C14_16
REMARK   10  A    between atoms: C14_16  and  C15_17
REMARK   11  A    between atoms: C14_16  and  O1_18
REMARK                            x       y       z     vdW  Elec       q    Type
REMARK                         _______ _______ _______ _____ _____    ______ ____
ROOT
ATOM      1  C6  UNL     1       2.351  -1.180  -1.650  0.00  0.00    +0.135 A 
ATOM      2  C7  UNL     1       2.248  -1.721  -2.917  0.00  0.00    +0.050 A 
ATOM      3  C8  UNL     1       1.084  -2.530  -2.928  0.00  0.00    +0.046 A 
ATOM      4  C9  UNL     1       0.538  -2.442  -1.666  0.00  0.00    +0.119 A 
ATOM      5  O2  UNL     1       1.310  -1.628  -0.885  0.00  0.00    -0.458 OA
ENDROOT
BRANCH   1  10
ATOM      6  C1  UNL     1       6.031   2.508   0.903  0.00  0.00    +0.045 C 
ATOM      7  C2  UNL     1       5.070   1.546   0.265  0.00  0.00    -0.032 A 
ATOM      8  C3  UNL     1       5.209   1.225  -1.092  0.00  0.00    +0.005 A 
ATOM      9  C4  UNL     1       4.326   0.333  -1.713  0.00  0.00    +0.012 A 
ATOM     10  C5  UNL     1       3.283  -0.265  -0.995  0.00  0.00    +0.019 A 
ATOM     11  C16 UNL     1       3.153   0.049   0.364  0.00  0.00    +0.031 A 
ATOM     12  C17 UNL     1       4.029   0.947   0.985  0.00  0.00    +0.045 A 
ATOM     13 CL1  UNL     1       3.764   1.295   2.657  0.00  0.00    -0.083 Cl
ENDBRANCH   1  10
BRANCH   4  14
ATOM     14  C10 UNL     1      -0.673  -3.048  -1.036  0.00  0.00    +0.155 C 
BRANCH  14  15
ATOM     15  N1  UNL     1      -1.081  -2.367   0.209  0.00  0.00    -0.311 NA
ATOM     16  H10 UNL     1      -0.222  -2.272   0.759  0.00  0.00    +0.122 HD
BRANCH  15  17
ATOM     17  C11 UNL     1      -1.675  -1.055  -0.051  0.00  0.00    +0.062 C 
BRANCH  17  18
ATOM     18  C12 UNL     1      -2.045  -0.358   1.271  0.00  0.00    -0.067 C 
BRANCH  18  19
ATOM     19  N2  UNL     1      -2.495   1.056   1.055  0.00  0.00    +0.382 N 
ATOM     20  H15 UNL     1      -2.579   1.517   1.971  0.00  0.00    -0.086 HD
ATOM     21  H16 UNL     1      -1.736   1.564   0.579  0.00  0.00    -0.086 HD
BRANCH  19  22
ATOM     22  C13 UNL     1      -3.754   1.276   0.276  0.00  0.00    -0.051 C 
BRANCH  22  23
ATOM     23  C14 UNL     1      -5.017   0.678   0.922  0.00  0.00    +0.095 C 
ATOM     24  C15 UNL     1      -5.305   1.243   2.306  0.00  0.00    +0.035 C 
BRANCH  23  25
ATOM     25  O1  UNL     1      -6.114   0.979   0.064  0.00  0.00    -0.394 OA
ATOM     26  H23 UNL     1      -6.930   0.607   0.450  0.00  0.00    +0.210 HD
ENDBRANCH  23  25
ENDBRANCH  22  23
ENDBRANCH  19  22
ENDBRANCH  18  19
ENDBRANCH  17  18
ENDBRANCH  15  17
ENDBRANCH  14  15
ENDBRANCH   4  14
TORSDOF 9
