REMARK  Name = /home/vital/Documents/PhD_2021/Malaria_codes/data/pdb_ligands/ligand_22.pdb
REMARK  5 active torsions:
REMARK  status: ('A' for Active; 'I' for Inactive)
REMARK    1  A    between atoms: C2_2  and  C3_4
REMARK    2  A    between atoms: C3_4  and  O1_5
REMARK    3  A    between atoms: O1_5  and  C4_6
REMARK    4  A    between atoms: C8_10  and  C9_11
REMARK    5  A    between atoms: C9_11  and  C10_12
REMARK                            x       y       z     vdW  Elec       q    Type
REMARK                         _______ _______ _______ _____ _____    ______ ____
ROOT
ATOM      1  C4  UNL     1       1.701  -0.821   0.620  0.00  0.00    +0.125 A 
ATOM      2  C5  UNL     1       0.672  -1.749   0.795  0.00  0.00    +0.046 A 
ATOM      3  C6  UNL     1      -0.665  -1.406   0.551  0.00  0.00    +0.015 A 
ATOM      4  C7  UNL     1      -1.005  -0.117   0.126  0.00  0.00    +0.021 A 
ATOM      5  C8  UNL     1      -2.389   0.316  -0.152  0.00  0.00    -0.030 A 
ATOM      6  C11 UNL     1      -2.569   1.585  -0.552  0.00  0.00    +0.096 A 
ATOM      7  C12 UNL     1      -1.479   2.558  -0.727  0.00  0.00    +0.337 A 
ATOM      8  O2  UNL     1      -1.715   3.703  -1.095  0.00  0.00    -0.245 OA
ATOM      9  O3  UNL     1      -0.197   2.117  -0.459  0.00  0.00    -0.422 OA
ATOM     10  C13 UNL     1       0.040   0.794  -0.038  0.00  0.00    +0.143 A 
ATOM     11  C14 UNL     1       1.379   0.464   0.202  0.00  0.00    +0.092 A 
ENDROOT
BRANCH   5  12
ATOM     12  C9  UNL     1      -3.515  -0.683   0.027  0.00  0.00    +0.033 C 
ATOM     13  C10 UNL     1      -4.930  -0.196  -0.271  0.00  0.00    +0.009 C 
ENDBRANCH   5  12
BRANCH   1  14
ATOM     14  O1  UNL     1       2.948  -1.302   0.895  0.00  0.00    -0.486 OA
BRANCH  14  15
ATOM     15  C3  UNL     1       4.089  -0.473   0.655  0.00  0.00    +0.276 C 
BRANCH  15  17
ATOM     16  C1  UNL     1       4.637   0.581  -1.572  0.00  0.00    +0.028 C 
ATOM     17  C2  UNL     1       4.514  -0.499  -0.789  0.00  0.00    +0.049 C 
ATOM     18 CL1  UNL     1       4.911  -2.059  -1.432  0.00  0.00    -0.085 Cl
ENDBRANCH  15  17
ENDBRANCH  14  15
ENDBRANCH   1  14
TORSDOF 4
