REMARK  Name = /home/vital/Documents/PhD_2021/Malaria_codes/data/pdb_ligands/ligand_144.pdb
REMARK  1 active torsions:
REMARK  status: ('A' for Active; 'I' for Inactive)
REMARK    1  A    between atoms: C1_1  and  C2_2
REMARK                            x       y       z     vdW  Elec       q    Type
REMARK                         _______ _______ _______ _____ _____    ______ ____
ROOT
ATOM      1  C1  UNL     1      -3.294  -1.502   1.143  0.00  0.00    +0.045 C 
ATOM      2  C2  UNL     1      -2.774  -0.685  -0.006  0.00  0.00    -0.027 C 
ATOM      3  C3  UNL     1      -1.912  -1.123  -0.950  0.00  0.00    +0.003 C 
ATOM      4  C4  UNL     1      -0.993  -2.307  -0.840  0.00  0.00    +0.194 C 
ATOM      5  N1  UNL     1       0.387  -1.768  -0.712  0.00  0.00    -0.183 NA
ATOM      6  N2  UNL     1       0.532  -1.067   0.321  0.00  0.00    -0.154 NA
ATOM      7  C5  UNL     1       1.678  -0.257   0.214  0.00  0.00    +0.095 A 
ATOM      8  C6  UNL     1       2.931  -0.790   0.553  0.00  0.00    +0.030 A 
ATOM      9  C7  UNL     1       4.091  -0.017   0.449  0.00  0.00    +0.002 A 
ATOM     10  C8  UNL     1       4.016   1.301   0.002  0.00  0.00    +0.001 A 
ATOM     11  C9  UNL     1       2.779   1.855  -0.328  0.00  0.00    +0.012 A 
ATOM     12  C10 UNL     1       1.612   1.089  -0.200  0.00  0.00    +0.027 A 
ATOM     13  C11 UNL     1       0.333   1.742  -0.573  0.00  0.00    +0.072 C 
ATOM     14  N3  UNL     1       0.162   2.180  -1.779  0.00  0.00    -0.298 NA
ATOM     15  C12 UNL     1      -0.677   1.912   0.507  0.00  0.00    +0.080 C 
ATOM     16  C13 UNL     1      -1.890   1.478   0.309  0.00  0.00    -0.098 C 
ATOM     17  C14 UNL     1      -2.958   0.759   0.093  0.00  0.00    +0.086 C 
ATOM     18 CL1  UNL     1      -4.462   1.459   0.506  0.00  0.00    -0.074 Cl
ATOM     19  H11 UNL     1      -0.761   2.619  -1.870  0.00  0.00    +0.187 HD
ENDROOT
TORSDOF 0
