REMARK  Name = /home/vital/Documents/PhD_2021/Malaria_codes/data/pdb_ligands/ligand_468.pdb
REMARK  9 active torsions:
REMARK  status: ('A' for Active; 'I' for Inactive)
REMARK    1  A    between atoms: C1_1  and  O1_2
REMARK    2  A    between atoms: O1_2  and  C2_3
REMARK    3  A    between atoms: C4_5  and  O2_6
REMARK    4  A    between atoms: O2_6  and  C5_7
REMARK    5  A    between atoms: C7_9  and  N1_10
REMARK    6  A    between atoms: N2_13  and  C9_14
REMARK    7  A    between atoms: C9_14  and  C10_15
REMARK    8  A    between atoms: C12_17  and  C13_18
REMARK    9  A    between atoms: C16_21  and  C17_22
REMARK                            x       y       z     vdW  Elec       q    Type
REMARK                         _______ _______ _______ _____ _____    ______ ____
ROOT
ATOM      1  N1  UNL     1       1.487   0.461  -0.317  0.00  0.00    -0.123 N 
ATOM      2  C8  UNL     1       0.355  -0.267  -0.737  0.00  0.00    +0.333 C 
ATOM      3  O3  UNL     1       0.380  -1.497  -0.772  0.00  0.00    -0.250 OA
ATOM      4  N2  UNL     1      -0.821   0.432  -1.043  0.00  0.00    -0.248 N 
ATOM      5  C18 UNL     1      -0.960   1.855  -0.947  0.00  0.00    +0.065 A 
ATOM      6  C19 UNL     1      -2.220   2.479  -1.004  0.00  0.00    +0.025 A 
ATOM      7  C20 UNL     1      -2.364   3.869  -0.886  0.00  0.00    +0.002 A 
ATOM      8  C21 UNL     1      -1.249   4.677  -0.714  0.00  0.00    +0.002 A 
ATOM      9  C22 UNL     1       0.010   4.093  -0.670  0.00  0.00    +0.031 A 
ATOM     10  C23 UNL     1       0.137   2.699  -0.797  0.00  0.00    +0.131 A 
ATOM     11  S1  UNL     1       1.749   2.029  -0.801  0.00  0.00    +0.084 S 
ATOM     12  O4  UNL     1       2.201   2.035  -2.177  0.00  0.00    -0.149 OA
ATOM     13  O5  UNL     1       2.493   2.713   0.239  0.00  0.00    -0.149 OA
ENDROOT
BRANCH   1  18
ATOM     14  C2  UNL     1       4.226  -1.246   1.526  0.00  0.00    +0.125 A 
ATOM     15  C3  UNL     1       4.975  -1.762   0.464  0.00  0.00    +0.091 A 
ATOM     16  C4  UNL     1       4.591  -1.553  -0.864  0.00  0.00    +0.125 A 
ATOM     17  C6  UNL     1       3.435  -0.823  -1.132  0.00  0.00    +0.071 A 
ATOM     18  C7  UNL     1       2.676  -0.309  -0.072  0.00  0.00    +0.068 A 
ATOM     19  C24 UNL     1       3.072  -0.516   1.254  0.00  0.00    +0.071 A 
BRANCH  14  21
ATOM     20  C1  UNL     1       4.039  -0.968   3.881  0.00  0.00    +0.277 C 
ATOM     21  O1  UNL     1       4.728  -1.524   2.768  0.00  0.00    -0.495 OA
ENDBRANCH  14  21
BRANCH  16  22
ATOM     22  O2  UNL     1       5.424  -2.109  -1.796  0.00  0.00    -0.495 OA
ATOM     23  C5  UNL     1       5.111  -1.871  -3.163  0.00  0.00    +0.277 C 
ENDBRANCH  16  22
ENDBRANCH   1  18
BRANCH   4  24
ATOM     24  C9  UNL     1      -1.980  -0.391  -1.429  0.00  0.00    +0.150 C 
BRANCH  24  25
ATOM     25  C10 UNL     1      -2.996  -0.658  -0.325  0.00  0.00    -0.026 A 
ATOM     26  C11 UNL     1      -2.584  -0.772   1.017  0.00  0.00    +0.008 A 
ATOM     27  C12 UNL     1      -3.499  -1.018   2.049  0.00  0.00    -0.050 A 
ATOM     28  C13 UNL     1      -3.027  -1.158   3.467  0.00  0.00    +0.044 C 
ATOM     29  C14 UNL     1      -4.845  -1.194   1.733  0.00  0.00    +0.003 A 
ATOM     30  C15 UNL     1      -5.271  -1.115   0.408  0.00  0.00    +0.004 A 
ATOM     31  C16 UNL     1      -4.361  -0.863  -0.631  0.00  0.00    -0.046 A 
ATOM     32  C17 UNL     1      -4.881  -0.808  -2.043  0.00  0.00    +0.044 C 
ENDBRANCH  24  25
ENDBRANCH   4  24
TORSDOF 5
