REMARK  Name = /home/vital/Documents/PhD_2021/Malaria_codes/data/pdb_ligands/ligand_131.pdb
REMARK  9 active torsions:
REMARK  status: ('A' for Active; 'I' for Inactive)
REMARK    1  A    between atoms: C2_2  and  C3_3
REMARK    2  A    between atoms: C3_3  and  C4_4
REMARK    3  A    between atoms: C3_3  and  O1_5
REMARK    4  A    between atoms: C3_3  and  C5_6
REMARK    5  A    between atoms: N1_8  and  C6_9
REMARK    6  A    between atoms: C8_11  and  S1_12
REMARK    7  A    between atoms: S1_12  and  C9_15
REMARK    8  A    between atoms: C9_15  and  C10_16
REMARK    9  A    between atoms: C13_19  and  O5_20
REMARK                            x       y       z     vdW  Elec       q    Type
REMARK                         _______ _______ _______ _____ _____    ______ ____
ROOT
ATOM      1  C6  UNL     1       0.315   0.394   0.535  0.00  0.00    +0.077 A 
ATOM      2  C7  UNL     1       1.394  -0.370   0.059  0.00  0.00    +0.054 A 
ATOM      3  C8  UNL     1       2.715   0.056   0.247  0.00  0.00    +0.090 A 
ATOM      4  C11 UNL     1       2.993   1.233   0.936  0.00  0.00    +0.030 A 
ATOM      5  C12 UNL     1       1.932   1.999   1.408  0.00  0.00    +0.049 A 
ATOM      6  C13 UNL     1       0.607   1.591   1.208  0.00  0.00    +0.138 A 
ENDROOT
BRANCH   1   9
ATOM      7  C5  UNL     1      -2.224   0.318   0.558  0.00  0.00    +0.253 C 
ATOM      8  O2  UNL     1      -2.465   1.391   1.105  0.00  0.00    -0.272 OA
ATOM      9  N1  UNL     1      -0.958  -0.160   0.275  0.00  0.00    -0.280 N 
ATOM     10  H8  UNL     1      -0.977  -1.047  -0.227  0.00  0.00    +0.155 HD
BRANCH   7  11
ATOM     11  C3  UNL     1      -3.338  -0.695   0.127  0.00  0.00    +0.157 C 
ATOM     12  C4  UNL     1      -3.537  -1.694   1.268  0.00  0.00    +0.056 C 
BRANCH  11  14
ATOM     13  C1  UNL     1      -5.840  -0.156   0.061  0.00  0.00    +0.007 C 
ATOM     14  C2  UNL     1      -4.572   0.057  -0.320  0.00  0.00    +0.009 C 
ENDBRANCH  11  14
BRANCH  11  15
ATOM     15  O1  UNL     1      -2.855  -1.448  -1.000  0.00  0.00    -0.376 OA
ATOM     16  H7  UNL     1      -3.127  -0.977  -1.808  0.00  0.00    +0.211 HD
ENDBRANCH  11  15
ENDBRANCH   7  11
ENDBRANCH   1   9
BRANCH   3  17
ATOM     17  S1  UNL     1       4.061  -0.929  -0.365  0.00  0.00    -0.003 S 
ATOM     18  O3  UNL     1       3.503  -2.171  -0.869  0.00  0.00    -0.169 OA
ATOM     19  O4  UNL     1       5.071  -0.945   0.676  0.00  0.00    -0.169 OA
BRANCH  17  20
ATOM     20  C9  UNL     1       4.704  -0.006  -1.745  0.00  0.00    +0.168 C 
ATOM     21  C10 UNL     1       3.699   0.185  -2.863  0.00  0.00    +0.028 C 
ENDBRANCH  17  20
ENDBRANCH   3  17
BRANCH   6  22
ATOM     22  O5  UNL     1      -0.310   2.456   1.729  0.00  0.00    -0.505 OA
ATOM     23  H17 UNL     1      -1.213   2.123   1.547  0.00  0.00    +0.292 HD
ENDBRANCH   6  22
TORSDOF 7
