REMARK  Name = /home/vital/Documents/PhD_2021/Malaria_codes/data/pdb_ligands/ligand_286.pdb
REMARK  9 active torsions:
REMARK  status: ('A' for Active; 'I' for Inactive)
REMARK    1  A    between atoms: C1_1  and  N1_2
REMARK    2  A    between atoms: N1_2  and  C2_3
REMARK    3  A    between atoms: N1_2  and  C3_4
REMARK    4  A    between atoms: C3_4  and  C4_5
REMARK    5  A    between atoms: C4_5  and  C5_6
REMARK    6  A    between atoms: C5_6  and  N2_7
REMARK    7  A    between atoms: N2_7  and  C6_8
REMARK    8  A    between atoms: C6_8  and  C7_9
REMARK    9  A    between atoms: C10_12  and  C11_13
REMARK                            x       y       z     vdW  Elec       q    Type
REMARK                         _______ _______ _______ _____ _____    ______ ____
ROOT
ATOM      1  C7  UNL     1       1.538  -1.643   1.555  0.00  0.00    +0.119 A 
ATOM      2  C8  UNL     1       2.529  -2.459   2.054  0.00  0.00    +0.046 A 
ATOM      3  C9  UNL     1       3.755  -1.931   1.582  0.00  0.00    +0.050 A 
ATOM      4  C10 UNL     1       3.444  -0.824   0.818  0.00  0.00    +0.137 A 
ATOM      5  O1  UNL     1       2.087  -0.653   0.790  0.00  0.00    -0.458 OA
ENDROOT
BRANCH   4   6
ATOM      6  C11 UNL     1       4.218   0.151   0.059  0.00  0.00    +0.036 A 
ATOM      7  C12 UNL     1       3.799   0.470  -1.246  0.00  0.00    +0.014 A 
ATOM      8  C13 UNL     1       4.509   1.385  -2.027  0.00  0.00    +0.021 A 
ATOM      9  C14 UNL     1       5.646   1.997  -1.510  0.00  0.00    +0.042 A 
ATOM     10 CL1  UNL     1       6.516   3.128  -2.468  0.00  0.00    -0.083 Cl
ATOM     11  C15 UNL     1       6.080   1.702  -0.220  0.00  0.00    +0.040 A 
ATOM     12  C16 UNL     1       5.369   0.784   0.562  0.00  0.00    +0.053 A 
ATOM     13 CL2  UNL     1       5.955   0.512   2.168  0.00  0.00    -0.083 Cl
ENDBRANCH   4   6
BRANCH   1  14
ATOM     14  C6  UNL     1       0.058  -1.629   1.689  0.00  0.00    +0.155 C 
BRANCH  14  15
ATOM     15  N2  UNL     1      -0.569  -1.984   0.416  0.00  0.00    -0.309 NA
ATOM     16  H14 UNL     1      -0.118  -1.454  -0.330  0.00  0.00    +0.122 HD
BRANCH  15  17
ATOM     17  C5  UNL     1      -2.015  -1.827   0.410  0.00  0.00    +0.079 C 
BRANCH  17  18
ATOM     18  C4  UNL     1      -2.457  -0.375   0.200  0.00  0.00    -0.004 C 
BRANCH  18  19
ATOM     19  C3  UNL     1      -3.979  -0.292   0.117  0.00  0.00    -0.078 C 
BRANCH  19  21
ATOM     20  C1  UNL     1      -4.123   1.801  -1.299  0.00  0.00    -0.097 C 
ATOM     21  N1  UNL     1      -4.441   1.151   0.022  0.00  0.00    +0.376 N 
ATOM     22  C2  UNL     1      -5.910   1.275   0.339  0.00  0.00    -0.097 C 
ATOM     23  H4  UNL     1      -3.945   1.686   0.748  0.00  0.00    -0.083 HD
ENDBRANCH  19  21
ENDBRANCH  18  19
ENDBRANCH  17  18
ENDBRANCH  15  17
ENDBRANCH  14  15
ENDBRANCH   1  14
TORSDOF 7
