MODEL 1
REMARK VINA RESULT:    -7.943      0.000      0.000
REMARK INTER + INTRA:          -7.943
REMARK INTER:                  -7.943
REMARK INTRA:                   0.000
REMARK UNBOUND:                 0.000
REMARK  Name = /home/vital/Documents/PhD_2021/Malaria_codes/scripts/../data/pdbqt_ligands/ligand_422_temp.pdb
REMARK                            x       y       z     vdW  Elec       q    Type
REMARK                         _______ _______ _______ _____ _____    ______ ____
ROOT
ATOM      1  C   UNL     1      -4.903  -3.940 -24.510  0.00  0.00    -0.047 C 
ATOM      2  C   UNL     1      -4.775  -4.898 -25.650  0.00  0.00    -0.089 C 
ATOM      3  C   UNL     1      -3.894  -4.861 -26.665  0.00  0.00    -0.067 C 
ATOM      4  C   UNL     1      -2.821  -3.837 -26.932  0.00  0.00    +0.073 C 
ATOM      5 CL   UNL     1      -3.241  -2.957 -28.439  0.00  0.00    -0.113 Cl
ATOM      6  C   UNL     1      -1.438  -4.478 -27.009  0.00  0.00    -0.051 C 
ATOM      7  C   UNL     1      -0.648  -4.332 -25.730  0.00  0.00    -0.042 C 
ATOM      8  C   UNL     1      -0.988  -5.124 -28.108  0.00  0.00    -0.060 C 
ATOM      9  C   UNL     1       0.324  -5.698 -28.300  0.00  0.00    -0.048 C 
ATOM     10  C   UNL     1       0.760  -6.502 -29.282  0.00  0.00    -0.000 C 
ATOM     11  N   UNL     1       0.191  -7.167 -30.377  0.00  0.00    -0.273 N 
ATOM     12  C   UNL     1      -1.292  -7.211 -30.549  0.00  0.00    +0.038 C 
ATOM     13  C   UNL     1      -1.770  -8.288 -31.486  0.00  0.00    -0.066 C 
ATOM     14  C   UNL     1      -2.127  -8.061 -32.766  0.00  0.00    -0.052 C 
ATOM     15  C   UNL     1      -1.949  -9.091 -33.783  0.00  0.00    +0.010 C 
ATOM     16  C   UNL     1      -3.172  -9.698 -34.393  0.00  0.00    -0.031 C 
ATOM     17  C   UNL     1      -0.717  -9.386 -34.128  0.00  0.00    -0.012 C 
ATOM     18  N   UNL     1       0.426  -9.585 -34.336  0.00  0.00    -0.214 NA
ATOM     19  C   UNL     1       1.383  -8.924 -33.391  0.00  0.00    +0.160 C 
ATOM     20  C   UNL     1       1.893  -7.650 -34.033  0.00  0.00    +0.046 C 
ATOM     21  C   UNL     1       2.606  -6.877 -32.956  0.00  0.00    +0.103 C 
ATOM     22  N   UNL     1       3.729  -6.168 -33.326  0.00  0.00    -0.330 N 
ATOM     23  C   UNL     1       4.345  -5.194 -32.444  0.00  0.00    +0.033 C 
ATOM     24  C   UNL     1       5.653  -4.660 -33.037  0.00  0.00    +0.060 C 
ATOM     25  O   UNL     1       6.274  -3.716 -32.171  0.00  0.00    -0.393 OA
ATOM     26  N   UNL     1       2.151  -6.855 -31.742  0.00  0.00    -0.204 N 
ATOM     27  C   UNL     1       1.020  -7.581 -31.445  0.00  0.00    +0.221 C 
ATOM     28  N   UNL     1       0.733  -8.627 -32.135  0.00  0.00    -0.224 N 
ATOM     29  H   UNL     1       4.124  -6.327 -34.213  0.00  0.00    +0.000 HD
ATOM     30  H   UNL     1       5.681  -2.959 -32.039  0.00  0.00    +0.000 HD
ATOM     31  H   UNL     1       2.606  -6.328 -31.046  0.00  0.00    +0.000 HD
ATOM     32  H   UNL     1       0.047  -9.247 -31.796  0.00  0.00    +0.000 HD
ENDROOT
TORSDOF 0
ENDMDL
MODEL 2
REMARK VINA RESULT:    -7.761      9.838     12.942
REMARK INTER + INTRA:          -7.761
REMARK INTER:                  -7.761
REMARK INTRA:                   0.000
REMARK UNBOUND:                 0.000
REMARK  Name = /home/vital/Documents/PhD_2021/Malaria_codes/scripts/../data/pdbqt_ligands/ligand_422_temp.pdb
REMARK                            x       y       z     vdW  Elec       q    Type
REMARK                         _______ _______ _______ _____ _____    ______ ____
ROOT
ATOM      1  C   UNL     1      12.613   4.851 -22.329  0.00  0.00    -0.047 C 
ATOM      2  C   UNL     1      11.788   3.724 -21.800  0.00  0.00    -0.089 C 
ATOM      3  C   UNL     1      10.920   2.949 -22.473  0.00  0.00    -0.067 C 
ATOM      4  C   UNL     1      10.537   3.024 -23.928  0.00  0.00    +0.073 C 
ATOM      5 CL   UNL     1       8.812   3.508 -24.036  0.00  0.00    -0.113 Cl
ATOM      6  C   UNL     1      10.809   1.708 -24.652  0.00  0.00    -0.051 C 
ATOM      7  C   UNL     1      12.096   1.722 -25.440  0.00  0.00    -0.042 C 
ATOM      8  C   UNL     1       9.982   0.641 -24.569  0.00  0.00    -0.060 C 
ATOM      9  C   UNL     1      10.118  -0.617 -25.269  0.00  0.00    -0.048 C 
ATOM     10  C   UNL     1       9.443  -1.763 -25.087  0.00  0.00    -0.000 C 
ATOM     11  N   UNL     1       8.494  -2.248 -24.176  0.00  0.00    -0.273 N 
ATOM     12  C   UNL     1       8.150  -1.465 -22.951  0.00  0.00    +0.038 C 
ATOM     13  C   UNL     1       7.471  -2.272 -21.877  0.00  0.00    -0.066 C 
ATOM     14  C   UNL     1       6.141  -2.256 -21.657  0.00  0.00    -0.052 C 
ATOM     15  C   UNL     1       5.458  -3.433 -21.132  0.00  0.00    +0.010 C 
ATOM     16  C   UNL     1       4.875  -3.354 -19.758  0.00  0.00    -0.031 C 
ATOM     17  C   UNL     1       5.365  -4.474 -21.925  0.00  0.00    -0.012 C 
ATOM     18  N   UNL     1       5.365  -5.352 -22.712  0.00  0.00    -0.214 NA
ATOM     19  C   UNL     1       6.220  -5.139 -23.923  0.00  0.00    +0.160 C 
ATOM     20  C   UNL     1       5.341  -4.651 -25.056  0.00  0.00    +0.046 C 
ATOM     21  C   UNL     1       6.263  -4.173 -26.146  0.00  0.00    +0.103 C 
ATOM     22  N   UNL     1       5.869  -4.395 -27.448  0.00  0.00    -0.330 N 
ATOM     23  C   UNL     1       6.539  -3.763 -28.570  0.00  0.00    +0.033 C 
ATOM     24  C   UNL     1       6.002  -4.289 -29.904  0.00  0.00    +0.060 C 
ATOM     25  O   UNL     1       6.665  -3.687 -31.010  0.00  0.00    -0.393 OA
ATOM     26  N   UNL     1       7.360  -3.544 -25.859  0.00  0.00    -0.204 N 
ATOM     27  C   UNL     1       7.687  -3.351 -24.536  0.00  0.00    +0.221 C 
ATOM     28  N   UNL     1       7.261  -4.176 -23.646  0.00  0.00    -0.224 N 
ATOM     29  H   UNL     1       5.112  -5.000 -27.623  0.00  0.00    +0.000 HD
ATOM     30  H   UNL     1       6.518  -2.728 -30.993  0.00  0.00    +0.000 HD
ATOM     31  H   UNL     1       7.948  -3.211 -26.575  0.00  0.00    +0.000 HD
ATOM     32  H   UNL     1       7.658  -4.150 -22.746  0.00  0.00    +0.000 HD
ENDROOT
TORSDOF 0
ENDMDL
MODEL 3
REMARK VINA RESULT:    -7.690     10.947     14.472
REMARK INTER + INTRA:          -7.690
REMARK INTER:                  -7.690
REMARK INTRA:                   0.000
REMARK UNBOUND:                 0.000
REMARK  Name = /home/vital/Documents/PhD_2021/Malaria_codes/scripts/../data/pdbqt_ligands/ligand_422_temp.pdb
REMARK                            x       y       z     vdW  Elec       q    Type
REMARK                         _______ _______ _______ _____ _____    ______ ____
ROOT
ATOM      1  C   UNL     1       5.566  -5.525 -26.345  0.00  0.00    -0.047 C 
ATOM      2  C   UNL     1       6.165  -4.562 -27.317  0.00  0.00    -0.089 C 
ATOM      3  C   UNL     1       6.709  -3.360 -27.060  0.00  0.00    -0.067 C 
ATOM      4  C   UNL     1       6.841  -2.661 -25.732  0.00  0.00    +0.073 C 
ATOM      5 CL   UNL     1       5.808  -1.194 -25.759  0.00  0.00    -0.113 Cl
ATOM      6  C   UNL     1       8.297  -2.331 -25.410  0.00  0.00    -0.051 C 
ATOM      7  C   UNL     1       8.930  -3.318 -24.461  0.00  0.00    -0.042 C 
ATOM      8  C   UNL     1       8.944  -1.271 -25.946  0.00  0.00    -0.060 C 
ATOM      9  C   UNL     1      10.292  -0.840 -25.651  0.00  0.00    -0.048 C 
ATOM     10  C   UNL     1      11.042   0.079 -26.280  0.00  0.00    -0.000 C 
ATOM     11  N   UNL     1      10.928   0.865 -27.434  0.00  0.00    -0.273 N 
ATOM     12  C   UNL     1       9.811   0.635 -28.400  0.00  0.00    +0.038 C 
ATOM     13  C   UNL     1      10.046   1.228 -29.764  0.00  0.00    -0.066 C 
ATOM     14  C   UNL     1       9.503   2.390 -30.178  0.00  0.00    -0.052 C 
ATOM     15  C   UNL     1      10.198   3.238 -31.139  0.00  0.00    +0.010 C 
ATOM     16  C   UNL     1       9.598   3.401 -32.499  0.00  0.00    -0.031 C 
ATOM     17  C   UNL     1      11.290   3.839 -30.727  0.00  0.00    -0.012 C 
ATOM     18  N   UNL     1      12.266   4.303 -30.256  0.00  0.00    -0.214 NA
ATOM     19  C   UNL     1      12.663   3.761 -28.917  0.00  0.00    +0.160 C 
ATOM     20  C   UNL     1      12.169   4.710 -27.845  0.00  0.00    +0.046 C 
ATOM     21  C   UNL     1      12.322   3.996 -26.529  0.00  0.00    +0.103 C 
ATOM     22  N   UNL     1      12.683   4.756 -25.437  0.00  0.00    -0.330 N 
ATOM     23  C   UNL     1      12.614   4.235 -24.084  0.00  0.00    +0.033 C 
ATOM     24  C   UNL     1      13.206   5.226 -23.078  0.00  0.00    +0.060 C 
ATOM     25  O   UNL     1      13.158   4.717 -21.750  0.00  0.00    -0.393 OA
ATOM     26  N   UNL     1      12.082   2.726 -26.431  0.00  0.00    -0.204 N 
ATOM     27  C   UNL     1      11.718   2.031 -27.562  0.00  0.00    +0.221 C 
ATOM     28  N   UNL     1      12.103   2.443 -28.717  0.00  0.00    -0.224 N 
ATOM     29  H   UNL     1      12.998   5.678 -25.578  0.00  0.00    +0.000 HD
ATOM     30  H   UNL     1      12.234   4.559 -21.497  0.00  0.00    +0.000 HD
ATOM     31  H   UNL     1      12.158   2.267 -25.563  0.00  0.00    +0.000 HD
ATOM     32  H   UNL     1      12.013   1.842 -29.491  0.00  0.00    +0.000 HD
ENDROOT
TORSDOF 0
ENDMDL
MODEL 4
REMARK VINA RESULT:    -7.535     11.645     14.362
REMARK INTER + INTRA:          -7.535
REMARK INTER:                  -7.535
REMARK INTRA:                   0.000
REMARK UNBOUND:                 0.000
REMARK  Name = /home/vital/Documents/PhD_2021/Malaria_codes/scripts/../data/pdbqt_ligands/ligand_422_temp.pdb
REMARK                            x       y       z     vdW  Elec       q    Type
REMARK                         _______ _______ _______ _____ _____    ______ ____
ROOT
ATOM      1  C   UNL     1       1.495   6.462 -16.836  0.00  0.00    -0.047 C 
ATOM      2  C   UNL     1       1.122   5.088 -17.287  0.00  0.00    -0.089 C 
ATOM      3  C   UNL     1      -0.016   4.696 -17.887  0.00  0.00    -0.067 C 
ATOM      4  C   UNL     1      -1.218   5.531 -18.244  0.00  0.00    +0.073 C 
ATOM      5 CL   UNL     1      -2.605   4.984 -17.246  0.00  0.00    -0.113 Cl
ATOM      6  C   UNL     1      -1.526   5.467 -19.738  0.00  0.00    -0.051 C 
ATOM      7  C   UNL     1      -1.012   6.665 -20.499  0.00  0.00    -0.042 C 
ATOM      8  C   UNL     1      -2.175   4.427 -20.308  0.00  0.00    -0.060 C 
ATOM      9  C   UNL     1      -2.571   4.308 -21.693  0.00  0.00    -0.048 C 
ATOM     10  C   UNL     1      -3.044   3.236 -22.348  0.00  0.00    -0.000 C 
ATOM     11  N   UNL     1      -3.242   1.878 -22.063  0.00  0.00    -0.273 N 
ATOM     12  C   UNL     1      -2.707   1.283 -20.801  0.00  0.00    +0.038 C 
ATOM     13  C   UNL     1      -2.609  -0.219 -20.823  0.00  0.00    -0.066 C 
ATOM     14  C   UNL     1      -3.508  -1.036 -20.240  0.00  0.00    -0.052 C 
ATOM     15  C   UNL     1      -3.775  -2.362 -20.786  0.00  0.00    +0.010 C 
ATOM     16  C   UNL     1      -3.370  -3.552 -19.977  0.00  0.00    -0.031 C 
ATOM     17  C   UNL     1      -4.398  -2.419 -21.940  0.00  0.00    -0.012 C 
ATOM     18  N   UNL     1      -4.934  -2.348 -22.988  0.00  0.00    -0.214 NA
ATOM     19  C   UNL     1      -5.010  -0.976 -23.586  0.00  0.00    +0.160 C 
ATOM     20  C   UNL     1      -6.377  -0.394 -23.288  0.00  0.00    +0.046 C 
ATOM     21  C   UNL     1      -6.312   1.068 -23.639  0.00  0.00    +0.103 C 
ATOM     22  N   UNL     1      -7.443   1.637 -24.186  0.00  0.00    -0.330 N 
ATOM     23  C   UNL     1      -7.586   3.074 -24.327  0.00  0.00    +0.033 C 
ATOM     24  C   UNL     1      -8.864   3.431 -25.091  0.00  0.00    +0.060 C 
ATOM     25  O   UNL     1      -9.004   4.839 -25.249  0.00  0.00    -0.393 OA
ATOM     26  N   UNL     1      -5.245   1.762 -23.396  0.00  0.00    -0.204 N 
ATOM     27  C   UNL     1      -4.154   1.130 -22.842  0.00  0.00    +0.221 C 
ATOM     28  N   UNL     1      -3.975  -0.127 -23.042  0.00  0.00    -0.224 N 
ATOM     29  H   UNL     1      -8.174   1.052 -24.489  0.00  0.00    +0.000 HD
ATOM     30  H   UNL     1      -9.058   5.259 -24.376  0.00  0.00    +0.000 HD
ATOM     31  H   UNL     1      -5.214   2.724 -23.604  0.00  0.00    +0.000 HD
ATOM     32  H   UNL     1      -3.102  -0.525 -22.819  0.00  0.00    +0.000 HD
ENDROOT
TORSDOF 0
ENDMDL
MODEL 5
REMARK VINA RESULT:    -7.453      9.686     13.088
REMARK INTER + INTRA:          -7.453
REMARK INTER:                  -7.453
REMARK INTRA:                   0.000
REMARK UNBOUND:                 0.000
REMARK  Name = /home/vital/Documents/PhD_2021/Malaria_codes/scripts/../data/pdbqt_ligands/ligand_422_temp.pdb
REMARK                            x       y       z     vdW  Elec       q    Type
REMARK                         _______ _______ _______ _____ _____    ______ ____
ROOT
ATOM      1  C   UNL     1      -6.113  -5.701 -26.211  0.00  0.00    -0.047 C 
ATOM      2  C   UNL     1      -4.906  -5.730 -25.330  0.00  0.00    -0.089 C 
ATOM      3  C   UNL     1      -4.248  -4.685 -24.798  0.00  0.00    -0.067 C 
ATOM      4  C   UNL     1      -4.540  -3.216 -24.962  0.00  0.00    +0.073 C 
ATOM      5 CL   UNL     1      -3.183  -2.467 -25.866  0.00  0.00    -0.113 Cl
ATOM      6  C   UNL     1      -4.778  -2.534 -23.617  0.00  0.00    -0.051 C 
ATOM      7  C   UNL     1      -6.242  -2.345 -23.302  0.00  0.00    -0.042 C 
ATOM      8  C   UNL     1      -3.771  -2.164 -22.794  0.00  0.00    -0.060 C 
ATOM      9  C   UNL     1      -3.893  -1.455 -21.541  0.00  0.00    -0.048 C 
ATOM     10  C   UNL     1      -2.959  -1.227 -20.604  0.00  0.00    -0.000 C 
ATOM     11  N   UNL     1      -1.632  -1.618 -20.378  0.00  0.00    -0.273 N 
ATOM     12  C   UNL     1      -0.997  -2.670 -21.228  0.00  0.00    +0.038 C 
ATOM     13  C   UNL     1       0.237  -3.286 -20.623  0.00  0.00    -0.066 C 
ATOM     14  C   UNL     1       1.492  -2.946 -20.975  0.00  0.00    -0.052 C 
ATOM     15  C   UNL     1       2.584  -3.024 -20.012  0.00  0.00    +0.010 C 
ATOM     16  C   UNL     1       3.655  -4.042 -20.240  0.00  0.00    -0.031 C 
ATOM     17  C   UNL     1       2.574  -2.158 -19.025  0.00  0.00    -0.012 C 
ATOM     18  N   UNL     1       2.447  -1.354 -18.172  0.00  0.00    -0.214 NA
ATOM     19  C   UNL     1       1.139  -0.625 -18.157  0.00  0.00    +0.160 C 
ATOM     20  C   UNL     1       1.322   0.711 -18.848  0.00  0.00    +0.046 C 
ATOM     21  C   UNL     1      -0.055   1.276 -19.073  0.00  0.00    +0.103 C 
ATOM     22  N   UNL     1      -0.205   2.641 -18.953  0.00  0.00    -0.330 N 
ATOM     23  C   UNL     1      -1.410   3.321 -19.390  0.00  0.00    +0.033 C 
ATOM     24  C   UNL     1      -1.377   4.805 -19.012  0.00  0.00    +0.060 C 
ATOM     25  O   UNL     1      -2.563   5.477 -19.422  0.00  0.00    -0.393 OA
ATOM     26  N   UNL     1      -1.043   0.505 -19.404  0.00  0.00    -0.204 N 
ATOM     27  C   UNL     1      -0.819  -0.849 -19.513  0.00  0.00    +0.221 C 
ATOM     28  N   UNL     1       0.118  -1.399 -18.827  0.00  0.00    -0.224 N 
ATOM     29  H   UNL     1       0.526   3.170 -18.558  0.00  0.00    +0.000 HD
ATOM     30  H   UNL     1      -2.648   5.423 -20.387  0.00  0.00    +0.000 HD
ATOM     31  H   UNL     1      -1.937   0.880 -19.575  0.00  0.00    +0.000 HD
ATOM     32  H   UNL     1       0.142  -2.381 -18.755  0.00  0.00    +0.000 HD
ENDROOT
TORSDOF 0
ENDMDL
MODEL 6
REMARK VINA RESULT:    -7.146      9.310     13.532
REMARK INTER + INTRA:          -7.146
REMARK INTER:                  -7.146
REMARK INTRA:                   0.000
REMARK UNBOUND:                 0.000
REMARK  Name = /home/vital/Documents/PhD_2021/Malaria_codes/scripts/../data/pdbqt_ligands/ligand_422_temp.pdb
REMARK                            x       y       z     vdW  Elec       q    Type
REMARK                         _______ _______ _______ _____ _____    ______ ____
ROOT
ATOM      1  C   UNL     1       8.047  -1.802 -19.241  0.00  0.00    -0.047 C 
ATOM      2  C   UNL     1       6.779  -1.048 -19.006  0.00  0.00    -0.089 C 
ATOM      3  C   UNL     1       5.619  -1.153 -19.676  0.00  0.00    -0.067 C 
ATOM      4  C   UNL     1       5.296  -2.042 -20.849  0.00  0.00    +0.073 C 
ATOM      5 CL   UNL     1       5.001  -1.005 -22.282  0.00  0.00    -0.113 Cl
ATOM      6  C   UNL     1       4.113  -2.960 -20.552  0.00  0.00    -0.051 C 
ATOM      7  C   UNL     1       4.532  -4.358 -20.166  0.00  0.00    -0.042 C 
ATOM      8  C   UNL     1       2.828  -2.543 -20.613  0.00  0.00    -0.060 C 
ATOM      9  C   UNL     1       1.645  -3.351 -20.418  0.00  0.00    -0.048 C 
ATOM     10  C   UNL     1       0.368  -2.961 -20.284  0.00  0.00    -0.000 C 
ATOM     11  N   UNL     1      -0.314  -1.742 -20.170  0.00  0.00    -0.273 N 
ATOM     12  C   UNL     1       0.441  -0.465 -19.989  0.00  0.00    +0.038 C 
ATOM     13  C   UNL     1      -0.392   0.671 -19.458  0.00  0.00    -0.066 C 
ATOM     14  C   UNL     1      -0.892   1.656 -20.230  0.00  0.00    -0.052 C 
ATOM     15  C   UNL     1      -2.145   2.314 -19.880  0.00  0.00    +0.010 C 
ATOM     16  C   UNL     1      -2.097   3.752 -19.474  0.00  0.00    -0.031 C 
ATOM     17  C   UNL     1      -3.244   1.605 -19.987  0.00  0.00    -0.012 C 
ATOM     18  N   UNL     1      -4.157   0.866 -20.096  0.00  0.00    -0.214 NA
ATOM     19  C   UNL     1      -3.805  -0.569 -20.342  0.00  0.00    +0.160 C 
ATOM     20  C   UNL     1      -3.912  -0.846 -21.827  0.00  0.00    +0.046 C 
ATOM     21  C   UNL     1      -3.276  -2.189 -22.066  0.00  0.00    +0.103 C 
ATOM     22  N   UNL     1      -3.845  -2.996 -23.028  0.00  0.00    -0.330 N 
ATOM     23  C   UNL     1      -3.180  -4.188 -23.520  0.00  0.00    +0.033 C 
ATOM     24  C   UNL     1      -4.086  -4.975 -24.471  0.00  0.00    +0.060 C 
ATOM     25  O   UNL     1      -3.449  -6.156 -24.946  0.00  0.00    -0.393 OA
ATOM     26  N   UNL     1      -2.213  -2.545 -21.414  0.00  0.00    -0.204 N 
ATOM     27  C   UNL     1      -1.694  -1.687 -20.471  0.00  0.00    +0.221 C 
ATOM     28  N   UNL     1      -2.467  -0.851 -19.874  0.00  0.00    -0.224 N 
ATOM     29  H   UNL     1      -4.727  -2.756 -23.392  0.00  0.00    +0.000 HD
ATOM     30  H   UNL     1      -2.647  -5.916 -25.437  0.00  0.00    +0.000 HD
ATOM     31  H   UNL     1      -1.785  -3.415 -21.590  0.00  0.00    +0.000 HD
ATOM     32  H   UNL     1      -2.137  -0.388 -19.070  0.00  0.00    +0.000 HD
ENDROOT
TORSDOF 0
ENDMDL
MODEL 7
REMARK VINA RESULT:    -7.042      9.287     12.792
REMARK INTER + INTRA:          -7.042
REMARK INTER:                  -7.042
REMARK INTRA:                   0.000
REMARK UNBOUND:                 0.000
REMARK  Name = /home/vital/Documents/PhD_2021/Malaria_codes/scripts/../data/pdbqt_ligands/ligand_422_temp.pdb
REMARK                            x       y       z     vdW  Elec       q    Type
REMARK                         _______ _______ _______ _____ _____    ______ ____
ROOT
ATOM      1  C   UNL     1       1.527   5.657 -14.779  0.00  0.00    -0.047 C 
ATOM      2  C   UNL     1       0.539   4.731 -15.411  0.00  0.00    -0.089 C 
ATOM      3  C   UNL     1       0.723   3.928 -16.473  0.00  0.00    -0.067 C 
ATOM      4  C   UNL     1       1.962   3.761 -17.314  0.00  0.00    +0.073 C 
ATOM      5 CL   UNL     1       1.614   4.375 -18.963  0.00  0.00    -0.113 Cl
ATOM      6  C   UNL     1       2.443   2.312 -17.331  0.00  0.00    -0.051 C 
ATOM      7  C   UNL     1       3.584   2.057 -16.377  0.00  0.00    -0.042 C 
ATOM      8  C   UNL     1       1.879   1.362 -18.111  0.00  0.00    -0.060 C 
ATOM      9  C   UNL     1       2.306  -0.012 -18.247  0.00  0.00    -0.048 C 
ATOM     10  C   UNL     1       1.682  -1.035 -18.854  0.00  0.00    -0.000 C 
ATOM     11  N   UNL     1       0.437  -1.248 -19.459  0.00  0.00    -0.273 N 
ATOM     12  C   UNL     1      -0.641  -0.218 -19.359  0.00  0.00    +0.038 C 
ATOM     13  C   UNL     1      -2.020  -0.740 -19.665  0.00  0.00    -0.066 C 
ATOM     14  C   UNL     1      -2.643  -0.559 -20.846  0.00  0.00    -0.052 C 
ATOM     15  C   UNL     1      -3.593  -1.546 -21.347  0.00  0.00    +0.010 C 
ATOM     16  C   UNL     1      -5.032  -1.155 -21.441  0.00  0.00    -0.031 C 
ATOM     17  C   UNL     1      -3.107  -2.706 -21.725  0.00  0.00    -0.012 C 
ATOM     18  N   UNL     1      -2.564  -3.713 -22.008  0.00  0.00    -0.214 NA
ATOM     19  C   UNL     1      -1.127  -3.814 -21.596  0.00  0.00    +0.160 C 
ATOM     20  C   UNL     1      -0.257  -3.469 -22.788  0.00  0.00    +0.046 C 
ATOM     21  C   UNL     1       1.144  -3.294 -22.267  0.00  0.00    +0.103 C 
ATOM     22  N   UNL     1       2.177  -3.721 -23.074  0.00  0.00    -0.330 N 
ATOM     23  C   UNL     1       3.559  -3.378 -22.797  0.00  0.00    +0.033 C 
ATOM     24  C   UNL     1       4.511  -4.095 -23.758  0.00  0.00    +0.060 C 
ATOM     25  O   UNL     1       5.871  -3.778 -23.483  0.00  0.00    -0.393 OA
ATOM     26  N   UNL     1       1.360  -2.728 -21.121  0.00  0.00    -0.204 N 
ATOM     27  C   UNL     1       0.281  -2.319 -20.369  0.00  0.00    +0.221 C 
ATOM     28  N   UNL     1      -0.850  -2.917 -20.498  0.00  0.00    -0.224 N 
ATOM     29  H   UNL     1       1.970  -4.274 -23.862  0.00  0.00    +0.000 HD
ATOM     30  H   UNL     1       6.010  -2.823 -23.591  0.00  0.00    +0.000 HD
ATOM     31  H   UNL     1       2.279  -2.592 -20.793  0.00  0.00    +0.000 HD
ATOM     32  H   UNL     1      -1.550  -2.758 -19.824  0.00  0.00    +0.000 HD
ENDROOT
TORSDOF 0
ENDMDL
MODEL 8
REMARK VINA RESULT:    -7.010     12.243     16.520
REMARK INTER + INTRA:          -7.010
REMARK INTER:                  -7.010
REMARK INTRA:                   0.000
REMARK UNBOUND:                 0.000
REMARK  Name = /home/vital/Documents/PhD_2021/Malaria_codes/scripts/../data/pdbqt_ligands/ligand_422_temp.pdb
REMARK                            x       y       z     vdW  Elec       q    Type
REMARK                         _______ _______ _______ _____ _____    ______ ____
ROOT
ATOM      1  C   UNL     1       5.883  -5.313 -23.151  0.00  0.00    -0.047 C 
ATOM      2  C   UNL     1       4.878  -4.213 -23.043  0.00  0.00    -0.089 C 
ATOM      3  C   UNL     1       4.527  -3.519 -21.946  0.00  0.00    -0.067 C 
ATOM      4  C   UNL     1       5.039  -3.680 -20.538  0.00  0.00    +0.073 C 
ATOM      5 CL   UNL     1       3.692  -4.267 -19.509  0.00  0.00    -0.113 Cl
ATOM      6  C   UNL     1       5.643  -2.382 -20.006  0.00  0.00    -0.051 C 
ATOM      7  C   UNL     1       7.151  -2.357 -20.086  0.00  0.00    -0.042 C 
ATOM      8  C   UNL     1       4.891  -1.362 -19.535  0.00  0.00    -0.060 C 
ATOM      9  C   UNL     1       5.371  -0.131 -18.950  0.00  0.00    -0.048 C 
ATOM     10  C   UNL     1       4.686   0.981 -18.639  0.00  0.00    -0.000 C 
ATOM     11  N   UNL     1       3.377   1.450 -18.819  0.00  0.00    -0.273 N 
ATOM     12  C   UNL     1       2.416   0.701 -19.685  0.00  0.00    +0.038 C 
ATOM     13  C   UNL     1       1.230   1.514 -20.130  0.00  0.00    -0.066 C 
ATOM     14  C   UNL     1       0.011   1.431 -19.561  0.00  0.00    -0.052 C 
ATOM     15  C   UNL     1      -0.877   2.588 -19.527  0.00  0.00    +0.010 C 
ATOM     16  C   UNL     1      -2.135   2.536 -20.332  0.00  0.00    -0.031 C 
ATOM     17  C   UNL     1      -0.527   3.587 -18.750  0.00  0.00    -0.012 C 
ATOM     18  N   UNL     1      -0.101   4.428 -18.043  0.00  0.00    -0.214 NA
ATOM     19  C   UNL     1       1.295   4.213 -17.545  0.00  0.00    +0.160 C 
ATOM     20  C   UNL     1       1.225   3.626 -16.150  0.00  0.00    +0.046 C 
ATOM     21  C   UNL     1       2.613   3.155 -15.807  0.00  0.00    +0.103 C 
ATOM     22  N   UNL     1       3.023   3.297 -14.498  0.00  0.00    -0.330 N 
ATOM     23  C   UNL     1       4.225   2.657 -13.998  0.00  0.00    +0.033 C 
ATOM     24  C   UNL     1       4.528   3.093 -12.561  0.00  0.00    +0.060 C 
ATOM     25  O   UNL     1       5.716   2.483 -12.068  0.00  0.00    -0.393 OA
ATOM     26  N   UNL     1       3.368   2.604 -16.706  0.00  0.00    -0.204 N 
ATOM     27  C   UNL     1       2.891   2.488 -17.992  0.00  0.00    +0.221 C 
ATOM     28  N   UNL     1       2.017   3.324 -18.427  0.00  0.00    -0.224 N 
ATOM     29  H   UNL     1       2.485   3.849 -13.886  0.00  0.00    +0.000 HD
ATOM     30  H   UNL     1       5.607   1.519 -12.064  0.00  0.00    +0.000 HD
ATOM     31  H   UNL     1       4.266   2.274 -16.472  0.00  0.00    +0.000 HD
ATOM     32  H   UNL     1       1.834   3.361 -19.393  0.00  0.00    +0.000 HD
ENDROOT
TORSDOF 0
ENDMDL
MODEL 9
REMARK VINA RESULT:    -6.784     13.284     18.084
REMARK INTER + INTRA:          -6.784
REMARK INTER:                  -6.784
REMARK INTRA:                   0.000
REMARK UNBOUND:                 0.000
REMARK  Name = /home/vital/Documents/PhD_2021/Malaria_codes/scripts/../data/pdbqt_ligands/ligand_422_temp.pdb
REMARK                            x       y       z     vdW  Elec       q    Type
REMARK                         _______ _______ _______ _____ _____    ______ ____
ROOT
ATOM      1  C   UNL     1       5.411  -4.534 -22.082  0.00  0.00    -0.047 C 
ATOM      2  C   UNL     1       5.731  -3.669 -20.907  0.00  0.00    -0.089 C 
ATOM      3  C   UNL     1       5.167  -2.496 -20.567  0.00  0.00    -0.067 C 
ATOM      4  C   UNL     1       4.082  -1.739 -21.287  0.00  0.00    +0.073 C 
ATOM      5 CL   UNL     1       4.778  -0.206 -21.908  0.00  0.00    -0.113 Cl
ATOM      6  C   UNL     1       2.872  -1.496 -20.390  0.00  0.00    -0.051 C 
ATOM      7  C   UNL     1       1.749  -2.475 -20.636  0.00  0.00    -0.042 C 
ATOM      8  C   UNL     1       2.833  -0.515 -19.460  0.00  0.00    -0.060 C 
ATOM      9  C   UNL     1       1.713  -0.166 -18.616  0.00  0.00    -0.048 C 
ATOM     10  C   UNL     1       1.676   0.663 -17.560  0.00  0.00    -0.000 C 
ATOM     11  N   UNL     1       2.608   1.393 -16.811  0.00  0.00    -0.273 N 
ATOM     12  C   UNL     1       4.074   1.192 -17.020  0.00  0.00    +0.038 C 
ATOM     13  C   UNL     1       4.931   1.695 -15.889  0.00  0.00    -0.066 C 
ATOM     14  C   UNL     1       5.593   2.868 -15.916  0.00  0.00    -0.052 C 
ATOM     15  C   UNL     1       5.841   3.613 -14.687  0.00  0.00    +0.010 C 
ATOM     16  C   UNL     1       7.254   3.747 -14.218  0.00  0.00    -0.031 C 
ATOM     17  C   UNL     1       4.803   4.156 -14.096  0.00  0.00    -0.012 C 
ATOM     18  N   UNL     1       3.798   4.574 -13.642  0.00  0.00    -0.214 NA
ATOM     19  C   UNL     1       2.539   4.076 -14.282  0.00  0.00    +0.160 C 
ATOM     20  C   UNL     1       2.060   5.114 -15.277  0.00  0.00    +0.046 C 
ATOM     21  C   UNL     1       0.981   4.461 -16.099  0.00  0.00    +0.103 C 
ATOM     22  N   UNL     1      -0.081   5.250 -16.488  0.00  0.00    -0.330 N 
ATOM     23  C   UNL     1      -1.041   4.807 -17.482  0.00  0.00    +0.033 C 
ATOM     24  C   UNL     1      -2.194   5.806 -17.622  0.00  0.00    +0.060 C 
ATOM     25  O   UNL     1      -3.150   5.372 -18.583  0.00  0.00    -0.393 OA
ATOM     26  N   UNL     1       1.077   3.218 -16.454  0.00  0.00    -0.204 N 
ATOM     27  C   UNL     1       2.169   2.492 -16.036  0.00  0.00    +0.221 C 
ATOM     28  N   UNL     1       2.772   2.814 -14.947  0.00  0.00    -0.224 N 
ATOM     29  H   UNL     1      -0.192   6.138 -16.079  0.00  0.00    +0.000 HD
ATOM     30  H   UNL     1      -2.723   5.294 -19.451  0.00  0.00    +0.000 HD
ATOM     31  H   UNL     1       0.382   2.801 -17.013  0.00  0.00    +0.000 HD
ATOM     32  H   UNL     1       3.414   2.181 -14.554  0.00  0.00    +0.000 HD
ENDROOT
TORSDOF 0
ENDMDL
