MODEL 1
REMARK VINA RESULT:    -7.488      0.000      0.000
REMARK INTER + INTRA:          -7.488
REMARK INTER:                  -7.488
REMARK INTRA:                   0.000
REMARK UNBOUND:                 0.000
REMARK  Name = /home/vital/Documents/PhD_2021/Malaria_codes/scripts/../data/pdbqt_ligands/ligand_464_temp.pdb
REMARK                            x       y       z     vdW  Elec       q    Type
REMARK                         _______ _______ _______ _____ _____    ______ ____
ROOT
ATOM      1  N   UNL     1      -1.622  -5.918 -35.152  0.00  0.00    +0.380 N 
ATOM      2  C   UNL     1      -2.469  -4.708 -34.963  0.00  0.00    -0.072 C 
ATOM      3  C   UNL     1      -2.150  -4.083 -33.607  0.00  0.00    +0.032 C 
ATOM      4  O   UNL     1      -0.735  -3.874 -33.583  0.00  0.00    -0.379 OA
ATOM      5  C   UNL     1      -0.076  -4.402 -32.426  0.00  0.00    +0.071 C 
ATOM      6  C   UNL     1       1.180  -5.130 -32.904  0.00  0.00    +0.071 C 
ATOM      7  O   UNL     1       0.774  -6.172 -33.824  0.00  0.00    -0.376 OA
ATOM      8  C   UNL     1       1.882  -7.001 -34.228  0.00  0.00    +0.063 C 
ATOM      9  C   UNL     1       2.359  -7.995 -33.149  0.00  0.00    +0.034 C 
ATOM     10  N   UNL     1       1.436  -9.137 -32.940  0.00  0.00    -0.326 N 
ATOM     11  C   UNL     1       0.213  -8.730 -32.357  0.00  0.00    +0.130 A 
ATOM     12  N   UNL     1       0.273  -8.198 -31.129  0.00  0.00    -0.212 NA
ATOM     13  C   UNL     1      -0.885  -7.786 -30.584  0.00  0.00    +0.162 A 
ATOM     14  C   UNL     1      -0.836  -7.147 -29.254  0.00  0.00    +0.019 A 
ATOM     15  C   UNL     1       0.374  -7.001 -28.548  0.00  0.00    -0.051 A 
ATOM     16  C   UNL     1       0.417  -6.388 -27.291  0.00  0.00    -0.061 A 
ATOM     17  C   UNL     1      -0.751  -5.908 -26.710  0.00  0.00    -0.062 A 
ATOM     18  C   UNL     1      -1.962  -6.042 -27.380  0.00  0.00    -0.061 A 
ATOM     19  C   UNL     1      -2.002  -6.654 -28.636  0.00  0.00    -0.051 A 
ATOM     20  N   UNL     1      -2.080  -7.852 -31.202  0.00  0.00    -0.227 NA
ATOM     21  C   UNL     1      -2.129  -8.438 -32.398  0.00  0.00    +0.077 A 
ATOM     22  C   UNL     1      -3.362  -8.574 -33.026  0.00  0.00    -0.036 A 
ATOM     23  C   UNL     1      -3.485  -9.157 -34.292  0.00  0.00    -0.060 A 
ATOM     24  C   UNL     1      -2.352  -9.617 -34.953  0.00  0.00    -0.061 A 
ATOM     25  C   UNL     1      -1.107  -9.489 -34.341  0.00  0.00    -0.049 A 
ATOM     26  C   UNL     1      -0.987  -8.898 -33.059  0.00  0.00    +0.040 A 
ATOM     27  H   UNL     1      -1.831  -6.340 -36.056  0.00  0.00    +0.000 HD
ATOM     28  H   UNL     1      -1.817  -6.590 -34.409  0.00  0.00    +0.000 HD
ATOM     29  H   UNL     1      -0.638  -5.652 -35.119  0.00  0.00    +0.000 HD
ATOM     30  H   UNL     1       1.649 -10.069 -33.179  0.00  0.00    +0.000 HD
ENDROOT
TORSDOF 0
ENDMDL
MODEL 2
REMARK VINA RESULT:    -6.809     16.304     19.783
REMARK INTER + INTRA:          -6.809
REMARK INTER:                  -6.809
REMARK INTRA:                   0.000
REMARK UNBOUND:                 0.000
REMARK  Name = /home/vital/Documents/PhD_2021/Malaria_codes/scripts/../data/pdbqt_ligands/ligand_464_temp.pdb
REMARK                            x       y       z     vdW  Elec       q    Type
REMARK                         _______ _______ _______ _____ _____    ______ ____
ROOT
ATOM      1  N   UNL     1       3.369   2.276 -18.112  0.00  0.00    +0.380 N 
ATOM      2  C   UNL     1       4.706   2.341 -18.761  0.00  0.00    -0.072 C 
ATOM      3  C   UNL     1       5.319   3.716 -18.506  0.00  0.00    +0.032 C 
ATOM      4  O   UNL     1       5.295   3.910 -17.089  0.00  0.00    -0.379 OA
ATOM      5  C   UNL     1       4.708   5.148 -16.669  0.00  0.00    +0.071 C 
ATOM      6  C   UNL     1       3.768   4.839 -15.504  0.00  0.00    +0.071 C 
ATOM      7  O   UNL     1       2.774   3.892 -15.966  0.00  0.00    -0.376 OA
ATOM      8  C   UNL     1       1.761   3.641 -14.971  0.00  0.00    +0.063 C 
ATOM      9  C   UNL     1       0.742   4.786 -14.799  0.00  0.00    +0.034 C 
ATOM     10  N   UNL     1      -0.226   4.898 -15.917  0.00  0.00    -0.326 N 
ATOM     11  C   UNL     1       0.396   5.320 -17.115  0.00  0.00    +0.130 A 
ATOM     12  N   UNL     1       0.956   6.537 -17.114  0.00  0.00    -0.212 NA
ATOM     13  C   UNL     1       1.570   6.929 -18.243  0.00  0.00    +0.162 A 
ATOM     14  C   UNL     1       2.240   8.245 -18.247  0.00  0.00    +0.019 A 
ATOM     15  C   UNL     1       2.212   9.092 -17.122  0.00  0.00    -0.051 A 
ATOM     16  C   UNL     1       2.855  10.334 -17.126  0.00  0.00    -0.061 A 
ATOM     17  C   UNL     1       3.540  10.760 -18.259  0.00  0.00    -0.062 A 
ATOM     18  C   UNL     1       3.581   9.949 -19.387  0.00  0.00    -0.061 A 
ATOM     19  C   UNL     1       2.939   8.707 -19.379  0.00  0.00    -0.051 A 
ATOM     20  N   UNL     1       1.678   6.170 -19.350  0.00  0.00    -0.227 NA
ATOM     21  C   UNL     1       1.066   4.986 -19.354  0.00  0.00    +0.077 A 
ATOM     22  C   UNL     1       1.111   4.214 -20.509  0.00  0.00    -0.036 A 
ATOM     23  C   UNL     1       0.510   2.951 -20.577  0.00  0.00    -0.060 A 
ATOM     24  C   UNL     1      -0.151   2.442 -19.466  0.00  0.00    -0.061 A 
ATOM     25  C   UNL     1      -0.208   3.201 -18.298  0.00  0.00    -0.049 A 
ATOM     26  C   UNL     1       0.402   4.479 -18.235  0.00  0.00    +0.040 A 
ATOM     27  H   UNL     1       2.954   1.360 -18.279  0.00  0.00    +0.000 HD
ATOM     28  H   UNL     1       2.765   3.000 -18.503  0.00  0.00    +0.000 HD
ATOM     29  H   UNL     1       3.471   2.426 -17.108  0.00  0.00    +0.000 HD
ATOM     30  H   UNL     1      -1.188   4.702 -15.835  0.00  0.00    +0.000 HD
ENDROOT
TORSDOF 0
ENDMDL
MODEL 3
REMARK VINA RESULT:    -6.794      5.797      7.555
REMARK INTER + INTRA:          -6.794
REMARK INTER:                  -6.794
REMARK INTRA:                   0.000
REMARK UNBOUND:                 0.000
REMARK  Name = /home/vital/Documents/PhD_2021/Malaria_codes/scripts/../data/pdbqt_ligands/ligand_464_temp.pdb
REMARK                            x       y       z     vdW  Elec       q    Type
REMARK                         _______ _______ _______ _____ _____    ______ ____
ROOT
ATOM      1  N   UNL     1       1.367  -1.236 -30.945  0.00  0.00    +0.380 N 
ATOM      2  C   UNL     1       0.349  -1.452 -29.881  0.00  0.00    -0.072 C 
ATOM      3  C   UNL     1       1.060  -1.696 -28.553  0.00  0.00    +0.032 C 
ATOM      4  O   UNL     1       1.949  -0.591 -28.362  0.00  0.00    -0.379 OA
ATOM      5  C   UNL     1       3.300  -0.960 -28.063  0.00  0.00    +0.071 C 
ATOM      6  C   UNL     1       4.215  -0.088 -28.922  0.00  0.00    +0.071 C 
ATOM      7  O   UNL     1       3.882  -0.318 -30.312  0.00  0.00    -0.376 OA
ATOM      8  C   UNL     1       4.785   0.364 -31.206  0.00  0.00    +0.063 C 
ATOM      9  C   UNL     1       6.177  -0.289 -31.324  0.00  0.00    +0.034 C 
ATOM     10  N   UNL     1       6.180  -1.551 -32.103  0.00  0.00    -0.326 N 
ATOM     11  C   UNL     1       5.493  -2.589 -31.433  0.00  0.00    +0.130 A 
ATOM     12  N   UNL     1       5.995  -2.992 -30.258  0.00  0.00    -0.212 NA
ATOM     13  C   UNL     1       5.328  -3.960 -29.607  0.00  0.00    +0.162 A 
ATOM     14  C   UNL     1       5.833  -4.381 -28.285  0.00  0.00    +0.019 A 
ATOM     15  C   UNL     1       6.999  -3.823 -27.727  0.00  0.00    -0.051 A 
ATOM     16  C   UNL     1       7.470  -4.219 -26.471  0.00  0.00    -0.061 A 
ATOM     17  C   UNL     1       6.786  -5.186 -25.743  0.00  0.00    -0.062 A 
ATOM     18  C   UNL     1       5.634  -5.760 -26.270  0.00  0.00    -0.061 A 
ATOM     19  C   UNL     1       5.165  -5.362 -27.525  0.00  0.00    -0.051 A 
ATOM     20  N   UNL     1       4.187  -4.523 -30.048  0.00  0.00    -0.227 NA
ATOM     21  C   UNL     1       3.733  -4.152 -31.245  0.00  0.00    +0.077 A 
ATOM     22  C   UNL     1       2.591  -4.766 -31.748  0.00  0.00    -0.036 A 
ATOM     23  C   UNL     1       2.047  -4.410 -32.987  0.00  0.00    -0.060 A 
ATOM     24  C   UNL     1       2.652  -3.417 -33.747  0.00  0.00    -0.061 A 
ATOM     25  C   UNL     1       3.798  -2.789 -33.261  0.00  0.00    -0.049 A 
ATOM     26  C   UNL     1       4.346  -3.152 -32.005  0.00  0.00    +0.040 A 
ATOM     27  H   UNL     1       0.898  -1.072 -31.836  0.00  0.00    +0.000 HD
ATOM     28  H   UNL     1       1.962  -2.062 -31.021  0.00  0.00    +0.000 HD
ATOM     29  H   UNL     1       1.940  -0.426 -30.708  0.00  0.00    +0.000 HD
ATOM     30  H   UNL     1       6.611  -1.654 -32.983  0.00  0.00    +0.000 HD
ENDROOT
TORSDOF 0
ENDMDL
MODEL 4
REMARK VINA RESULT:    -6.710     16.072     19.556
REMARK INTER + INTRA:          -6.710
REMARK INTER:                  -6.710
REMARK INTRA:                   0.000
REMARK UNBOUND:                 0.000
REMARK  Name = /home/vital/Documents/PhD_2021/Malaria_codes/scripts/../data/pdbqt_ligands/ligand_464_temp.pdb
REMARK                            x       y       z     vdW  Elec       q    Type
REMARK                         _______ _______ _______ _____ _____    ______ ____
ROOT
ATOM      1  N   UNL     1       0.820   2.689 -18.690  0.00  0.00    +0.380 N 
ATOM      2  C   UNL     1       1.364   2.118 -19.952  0.00  0.00    -0.072 C 
ATOM      3  C   UNL     1       2.510   2.998 -20.445  0.00  0.00    +0.032 C 
ATOM      4  O   UNL     1       3.429   3.110 -19.355  0.00  0.00    -0.379 OA
ATOM      5  C   UNL     1       3.802   4.454 -19.028  0.00  0.00    +0.071 C 
ATOM      6  C   UNL     1       3.736   4.593 -17.507  0.00  0.00    +0.071 C 
ATOM      7  O   UNL     1       2.386   4.283 -17.084  0.00  0.00    -0.376 OA
ATOM      8  C   UNL     1       2.192   4.515 -15.675  0.00  0.00    +0.063 C 
ATOM      9  C   UNL     1       2.084   6.004 -15.285  0.00  0.00    +0.034 C 
ATOM     10  N   UNL     1       0.799   6.632 -15.679  0.00  0.00    -0.326 N 
ATOM     11  C   UNL     1       0.676   6.750 -17.083  0.00  0.00    +0.130 A 
ATOM     12  N   UNL     1       1.567   7.532 -17.708  0.00  0.00    -0.212 NA
ATOM     13  C   UNL     1       1.468   7.624 -19.045  0.00  0.00    +0.162 A 
ATOM     14  C   UNL     1       2.471   8.438 -19.760  0.00  0.00    +0.019 A 
ATOM     15  C   UNL     1       3.485   9.133 -19.073  0.00  0.00    -0.051 A 
ATOM     16  C   UNL     1       4.439   9.896 -19.754  0.00  0.00    -0.061 A 
ATOM     17  C   UNL     1       4.400   9.984 -21.141  0.00  0.00    -0.062 A 
ATOM     18  C   UNL     1       3.409   9.312 -21.848  0.00  0.00    -0.061 A 
ATOM     19  C   UNL     1       2.457   8.549 -21.165  0.00  0.00    -0.051 A 
ATOM     20  N   UNL     1       0.556   6.966 -19.785  0.00  0.00    -0.227 NA
ATOM     21  C   UNL     1      -0.358   6.239 -19.143  0.00  0.00    +0.077 A 
ATOM     22  C   UNL     1      -1.348   5.601 -19.883  0.00  0.00    -0.036 A 
ATOM     23  C   UNL     1      -2.325   4.803 -19.277  0.00  0.00    -0.060 A 
ATOM     24  C   UNL     1      -2.318   4.633 -17.898  0.00  0.00    -0.061 A 
ATOM     25  C   UNL     1      -1.335   5.264 -17.137  0.00  0.00    -0.049 A 
ATOM     26  C   UNL     1      -0.347   6.071 -17.756  0.00  0.00    +0.040 A 
ATOM     27  H   UNL     1       0.054   2.106 -18.355  0.00  0.00    +0.000 HD
ATOM     28  H   UNL     1       0.477   3.634 -18.864  0.00  0.00    +0.000 HD
ATOM     29  H   UNL     1       1.557   2.720 -17.986  0.00  0.00    +0.000 HD
ATOM     30  H   UNL     1       0.113   6.931 -15.039  0.00  0.00    +0.000 HD
ENDROOT
TORSDOF 0
ENDMDL
MODEL 5
REMARK VINA RESULT:    -6.603     10.032     12.953
REMARK INTER + INTRA:          -6.603
REMARK INTER:                  -6.603
REMARK INTRA:                   0.000
REMARK UNBOUND:                 0.000
REMARK  Name = /home/vital/Documents/PhD_2021/Malaria_codes/scripts/../data/pdbqt_ligands/ligand_464_temp.pdb
REMARK                            x       y       z     vdW  Elec       q    Type
REMARK                         _______ _______ _______ _____ _____    ______ ____
ROOT
ATOM      1  N   UNL     1       3.940  -1.624 -24.162  0.00  0.00    +0.380 N 
ATOM      2  C   UNL     1       3.548  -0.220 -23.862  0.00  0.00    -0.072 C 
ATOM      3  C   UNL     1       4.564   0.727 -24.495  0.00  0.00    +0.032 C 
ATOM      4  O   UNL     1       4.637   0.374 -25.879  0.00  0.00    -0.379 OA
ATOM      5  C   UNL     1       5.966   0.153 -26.366  0.00  0.00    +0.071 C 
ATOM      6  C   UNL     1       5.941  -1.124 -27.207  0.00  0.00    +0.071 C 
ATOM      7  O   UNL     1       5.480  -2.209 -26.365  0.00  0.00    -0.376 OA
ATOM      8  C   UNL     1       5.549  -3.483 -27.037  0.00  0.00    +0.063 C 
ATOM      9  C   UNL     1       6.976  -4.054 -27.171  0.00  0.00    +0.034 C 
ATOM     10  N   UNL     1       7.535  -4.569 -25.897  0.00  0.00    -0.326 N 
ATOM     11  C   UNL     1       7.787  -3.530 -24.971  0.00  0.00    +0.130 A 
ATOM     12  N   UNL     1       8.699  -2.612 -25.320  0.00  0.00    -0.212 NA
ATOM     13  C   UNL     1       8.921  -1.610 -24.453  0.00  0.00    +0.162 A 
ATOM     14  C   UNL     1       9.883  -0.558 -24.841  0.00  0.00    +0.019 A 
ATOM     15  C   UNL     1      10.583  -0.610 -26.062  0.00  0.00    -0.051 A 
ATOM     16  C   UNL     1      11.487   0.392 -26.429  0.00  0.00    -0.061 A 
ATOM     17  C   UNL     1      11.714   1.470 -25.581  0.00  0.00    -0.062 A 
ATOM     18  C   UNL     1      11.041   1.548 -24.367  0.00  0.00    -0.061 A 
ATOM     19  C   UNL     1      10.137   0.546 -24.003  0.00  0.00    -0.051 A 
ATOM     20  N   UNL     1       8.271  -1.461 -23.284  0.00  0.00    -0.227 NA
ATOM     21  C   UNL     1       7.410  -2.413 -22.926  0.00  0.00    +0.077 A 
ATOM     22  C   UNL     1       6.774  -2.312 -21.694  0.00  0.00    -0.036 A 
ATOM     23  C   UNL     1       5.841  -3.263 -21.263  0.00  0.00    -0.060 A 
ATOM     24  C   UNL     1       5.531  -4.343 -22.081  0.00  0.00    -0.061 A 
ATOM     25  C   UNL     1       6.157  -4.462 -23.320  0.00  0.00    -0.049 A 
ATOM     26  C   UNL     1       7.101  -3.497 -23.752  0.00  0.00    +0.040 A 
ATOM     27  H   UNL     1       3.265  -2.262 -23.742  0.00  0.00    +0.000 HD
ATOM     28  H   UNL     1       4.867  -1.808 -23.778  0.00  0.00    +0.000 HD
ATOM     29  H   UNL     1       3.957  -1.764 -25.173  0.00  0.00    +0.000 HD
ATOM     30  H   UNL     1       7.711  -5.521 -25.717  0.00  0.00    +0.000 HD
ENDROOT
TORSDOF 0
ENDMDL
MODEL 6
REMARK VINA RESULT:    -6.485      1.488      1.881
REMARK INTER + INTRA:          -6.485
REMARK INTER:                  -6.485
REMARK INTRA:                   0.000
REMARK UNBOUND:                 0.000
REMARK  Name = /home/vital/Documents/PhD_2021/Malaria_codes/scripts/../data/pdbqt_ligands/ligand_464_temp.pdb
REMARK                            x       y       z     vdW  Elec       q    Type
REMARK                         _______ _______ _______ _____ _____    ______ ____
ROOT
ATOM      1  N   UNL     1      -1.810  -5.913 -34.272  0.00  0.00    +0.380 N 
ATOM      2  C   UNL     1      -3.134  -5.379 -33.852  0.00  0.00    -0.072 C 
ATOM      3  C   UNL     1      -2.980  -4.664 -32.512  0.00  0.00    +0.032 C 
ATOM      4  O   UNL     1      -1.936  -3.701 -32.685  0.00  0.00    -0.379 OA
ATOM      5  C   UNL     1      -0.905  -3.757 -31.693  0.00  0.00    +0.071 C 
ATOM      6  C   UNL     1       0.437  -3.668 -32.419  0.00  0.00    +0.071 C 
ATOM      7  O   UNL     1       0.518  -4.771 -33.354  0.00  0.00    -0.376 OA
ATOM      8  C   UNL     1       1.809  -4.847 -33.993  0.00  0.00    +0.063 C 
ATOM      9  C   UNL     1       2.934  -5.392 -33.090  0.00  0.00    +0.034 C 
ATOM     10  N   UNL     1       2.846  -6.852 -32.842  0.00  0.00    -0.326 N 
ATOM     11  C   UNL     1       1.727  -7.188 -32.046  0.00  0.00    +0.130 A 
ATOM     12  N   UNL     1       1.697  -6.697 -30.800  0.00  0.00    -0.212 NA
ATOM     13  C   UNL     1       0.622  -6.993 -30.051  0.00  0.00    +0.162 A 
ATOM     14  C   UNL     1       0.542  -6.418 -28.693  0.00  0.00    +0.019 A 
ATOM     15  C   UNL     1       1.573  -5.613 -28.170  0.00  0.00    -0.051 A 
ATOM     16  C   UNL     1       1.491  -5.063 -26.886  0.00  0.00    -0.061 A 
ATOM     17  C   UNL     1       0.375  -5.308 -26.094  0.00  0.00    -0.062 A 
ATOM     18  C   UNL     1      -0.657  -6.103 -26.580  0.00  0.00    -0.061 A 
ATOM     19  C   UNL     1      -0.573  -6.650 -27.864  0.00  0.00    -0.051 A 
ATOM     20  N   UNL     1      -0.425  -7.722 -30.482  0.00  0.00    -0.227 NA
ATOM     21  C   UNL     1      -0.353  -8.252 -31.703  0.00  0.00    +0.077 A 
ATOM     22  C   UNL     1      -1.394  -9.060 -32.145  0.00  0.00    -0.036 A 
ATOM     23  C   UNL     1      -1.395  -9.630 -33.423  0.00  0.00    -0.060 A 
ATOM     24  C   UNL     1      -0.334  -9.388 -34.287  0.00  0.00    -0.061 A 
ATOM     25  C   UNL     1       0.720  -8.580 -33.863  0.00  0.00    -0.049 A 
ATOM     26  C   UNL     1       0.717  -8.006 -32.568  0.00  0.00    +0.040 A 
ATOM     27  H   UNL     1      -1.905  -6.392 -35.168  0.00  0.00    +0.000 HD
ATOM     28  H   UNL     1      -1.469  -6.570 -33.570  0.00  0.00    +0.000 HD
ATOM     29  H   UNL     1      -1.147  -5.144 -34.368  0.00  0.00    +0.000 HD
ATOM     30  H   UNL     1       3.492  -7.510 -33.191  0.00  0.00    +0.000 HD
ENDROOT
TORSDOF 0
ENDMDL
MODEL 7
REMARK VINA RESULT:    -6.441      2.724      5.476
REMARK INTER + INTRA:          -6.441
REMARK INTER:                  -6.441
REMARK INTRA:                   0.000
REMARK UNBOUND:                 0.000
REMARK  Name = /home/vital/Documents/PhD_2021/Malaria_codes/scripts/../data/pdbqt_ligands/ligand_464_temp.pdb
REMARK                            x       y       z     vdW  Elec       q    Type
REMARK                         _______ _______ _______ _____ _____    ______ ____
ROOT
ATOM      1  N   UNL     1      -1.200  -7.023 -30.782  0.00  0.00    +0.380 N 
ATOM      2  C   UNL     1      -0.785  -7.155 -29.359  0.00  0.00    -0.072 C 
ATOM      3  C   UNL     1       0.166  -6.013 -29.009  0.00  0.00    +0.032 C 
ATOM      4  O   UNL     1      -0.511  -4.802 -29.360  0.00  0.00    -0.379 OA
ATOM      5  C   UNL     1       0.250  -3.914 -30.186  0.00  0.00    +0.071 C 
ATOM      6  C   UNL     1      -0.671  -3.420 -31.301  0.00  0.00    +0.071 C 
ATOM      7  O   UNL     1      -1.149  -4.574 -32.035  0.00  0.00    -0.376 OA
ATOM      8  C   UNL     1      -1.923  -4.198 -33.192  0.00  0.00    +0.063 C 
ATOM      9  C   UNL     1      -1.085  -3.664 -34.372  0.00  0.00    +0.034 C 
ATOM     10  N   UNL     1      -0.321  -4.717 -35.086  0.00  0.00    -0.326 N 
ATOM     11  C   UNL     1       0.717  -5.252 -34.287  0.00  0.00    +0.130 A 
ATOM     12  N   UNL     1       1.691  -4.412 -33.913  0.00  0.00    -0.212 NA
ATOM     13  C   UNL     1       2.663  -4.913 -33.132  0.00  0.00    +0.162 A 
ATOM     14  C   UNL     1       3.719  -3.992 -32.663  0.00  0.00    +0.019 A 
ATOM     15  C   UNL     1       3.741  -2.637 -33.046  0.00  0.00    -0.051 A 
ATOM     16  C   UNL     1       4.738  -1.766 -32.593  0.00  0.00    -0.061 A 
ATOM     17  C   UNL     1       5.739  -2.232 -31.748  0.00  0.00    -0.062 A 
ATOM     18  C   UNL     1       5.747  -3.566 -31.357  0.00  0.00    -0.061 A 
ATOM     19  C   UNL     1       4.749  -4.434 -31.809  0.00  0.00    -0.051 A 
ATOM     20  N   UNL     1       2.701  -6.184 -32.688  0.00  0.00    -0.227 NA
ATOM     21  C   UNL     1       1.756  -7.020 -33.118  0.00  0.00    +0.077 A 
ATOM     22  C   UNL     1       1.811  -8.352 -32.723  0.00  0.00    -0.036 A 
ATOM     23  C   UNL     1       0.840  -9.279 -33.116  0.00  0.00    -0.060 A 
ATOM     24  C   UNL     1      -0.216  -8.872 -33.923  0.00  0.00    -0.061 A 
ATOM     25  C   UNL     1      -0.289  -7.541 -34.329  0.00  0.00    -0.049 A 
ATOM     26  C   UNL     1       0.696  -6.605 -33.928  0.00  0.00    +0.040 A 
ATOM     27  H   UNL     1      -1.836  -7.783 -31.023  0.00  0.00    +0.000 HD
ATOM     28  H   UNL     1      -0.376  -7.065 -31.383  0.00  0.00    +0.000 HD
ATOM     29  H   UNL     1      -1.672  -6.128 -30.917  0.00  0.00    +0.000 HD
ATOM     30  H   UNL     1      -0.513  -5.008 -36.007  0.00  0.00    +0.000 HD
ENDROOT
TORSDOF 0
ENDMDL
MODEL 8
REMARK VINA RESULT:    -6.439     17.776     20.337
REMARK INTER + INTRA:          -6.439
REMARK INTER:                  -6.439
REMARK INTRA:                   0.000
REMARK UNBOUND:                 0.000
REMARK  Name = /home/vital/Documents/PhD_2021/Malaria_codes/scripts/../data/pdbqt_ligands/ligand_464_temp.pdb
REMARK                            x       y       z     vdW  Elec       q    Type
REMARK                         _______ _______ _______ _____ _____    ______ ____
ROOT
ATOM      1  N   UNL     1       4.968   2.920 -16.231  0.00  0.00    +0.380 N 
ATOM      2  C   UNL     1       4.700   1.605 -16.874  0.00  0.00    -0.072 C 
ATOM      3  C   UNL     1       3.716   1.804 -18.025  0.00  0.00    +0.032 C 
ATOM      4  O   UNL     1       4.278   2.816 -18.865  0.00  0.00    -0.379 OA
ATOM      5  C   UNL     1       3.386   3.893 -19.175  0.00  0.00    +0.071 C 
ATOM      6  C   UNL     1       4.164   5.198 -19.003  0.00  0.00    +0.071 C 
ATOM      7  O   UNL     1       4.642   5.261 -17.638  0.00  0.00    -0.376 OA
ATOM      8  C   UNL     1       5.276   6.522 -17.343  0.00  0.00    +0.063 C 
ATOM      9  C   UNL     1       4.296   7.700 -17.165  0.00  0.00    +0.034 C 
ATOM     10  N   UNL     1       3.536   7.657 -15.892  0.00  0.00    -0.326 N 
ATOM     11  C   UNL     1       2.616   6.583 -15.860  0.00  0.00    +0.130 A 
ATOM     12  N   UNL     1       1.631   6.600 -16.767  0.00  0.00    -0.212 NA
ATOM     13  C   UNL     1       0.771   5.567 -16.756  0.00  0.00    +0.162 A 
ATOM     14  C   UNL     1      -0.291   5.538 -17.781  0.00  0.00    +0.019 A 
ATOM     15  C   UNL     1      -0.436   6.572 -18.725  0.00  0.00    -0.051 A 
ATOM     16  C   UNL     1      -1.439   6.537 -19.700  0.00  0.00    -0.061 A 
ATOM     17  C   UNL     1      -2.323   5.465 -19.752  0.00  0.00    -0.062 A 
ATOM     18  C   UNL     1      -2.208   4.430 -18.831  0.00  0.00    -0.061 A 
ATOM     19  C   UNL     1      -1.205   4.467 -17.858  0.00  0.00    -0.051 A 
ATOM     20  N   UNL     1       0.857   4.519 -15.915  0.00  0.00    -0.227 NA
ATOM     21  C   UNL     1       1.808   4.547 -14.982  0.00  0.00    +0.077 A 
ATOM     22  C   UNL     1       1.875   3.505 -14.064  0.00  0.00    -0.036 A 
ATOM     23  C   UNL     1       2.862   3.458 -13.072  0.00  0.00    -0.060 A 
ATOM     24  C   UNL     1       3.807   4.473 -12.991  0.00  0.00    -0.061 A 
ATOM     25  C   UNL     1       3.757   5.526 -13.902  0.00  0.00    -0.049 A 
ATOM     26  C   UNL     1       2.757   5.569 -14.905  0.00  0.00    +0.040 A 
ATOM     27  H   UNL     1       5.625   2.794 -15.461  0.00  0.00    +0.000 HD
ATOM     28  H   UNL     1       4.095   3.308 -15.872  0.00  0.00    +0.000 HD
ATOM     29  H   UNL     1       5.367   3.560 -16.917  0.00  0.00    +0.000 HD
ATOM     30  H   UNL     1       3.657   8.301 -15.156  0.00  0.00    +0.000 HD
ENDROOT
TORSDOF 0
ENDMDL
MODEL 9
REMARK VINA RESULT:    -6.407     16.123     19.775
REMARK INTER + INTRA:          -6.407
REMARK INTER:                  -6.407
REMARK INTRA:                   0.000
REMARK UNBOUND:                 0.000
REMARK  Name = /home/vital/Documents/PhD_2021/Malaria_codes/scripts/../data/pdbqt_ligands/ligand_464_temp.pdb
REMARK                            x       y       z     vdW  Elec       q    Type
REMARK                         _______ _______ _______ _____ _____    ______ ____
ROOT
ATOM      1  N   UNL     1       5.429   4.577 -16.614  0.00  0.00    +0.380 N 
ATOM      2  C   UNL     1       6.087   3.692 -17.614  0.00  0.00    -0.072 C 
ATOM      3  C   UNL     1       5.185   3.567 -18.839  0.00  0.00    +0.032 C 
ATOM      4  O   UNL     1       4.900   4.902 -19.267  0.00  0.00    -0.379 OA
ATOM      5  C   UNL     1       3.508   5.181 -19.453  0.00  0.00    +0.071 C 
ATOM      6  C   UNL     1       3.220   6.536 -18.805  0.00  0.00    +0.071 C 
ATOM      7  O   UNL     1       3.577   6.451 -17.405  0.00  0.00    -0.376 OA
ATOM      8  C   UNL     1       3.217   7.644 -16.679  0.00  0.00    +0.063 C 
ATOM      9  C   UNL     1       1.707   7.782 -16.393  0.00  0.00    +0.034 C 
ATOM     10  N   UNL     1       1.212   6.859 -15.343  0.00  0.00    -0.326 N 
ATOM     11  C   UNL     1       1.246   5.509 -15.765  0.00  0.00    +0.130 A 
ATOM     12  N   UNL     1       0.473   5.178 -16.807  0.00  0.00    -0.212 NA
ATOM     13  C   UNL     1       0.523   3.903 -17.226  0.00  0.00    +0.162 A 
ATOM     14  C   UNL     1      -0.280   3.528 -18.407  0.00  0.00    +0.019 A 
ATOM     15  C   UNL     1      -1.110   4.459 -19.062  0.00  0.00    -0.051 A 
ATOM     16  C   UNL     1      -1.864   4.102 -20.185  0.00  0.00    -0.061 A 
ATOM     17  C   UNL     1      -1.807   2.803 -20.679  0.00  0.00    -0.062 A 
ATOM     18  C   UNL     1      -1.001   1.861 -20.051  0.00  0.00    -0.061 A 
ATOM     19  C   UNL     1      -0.248   2.220 -18.930  0.00  0.00    -0.051 A 
ATOM     20  N   UNL     1       1.315   2.957 -16.684  0.00  0.00    -0.227 NA
ATOM     21  C   UNL     1       2.034   3.289 -15.612  0.00  0.00    +0.077 A 
ATOM     22  C   UNL     1       2.810   2.312 -14.998  0.00  0.00    -0.036 A 
ATOM     23  C   UNL     1       3.607   2.595 -13.883  0.00  0.00    -0.060 A 
ATOM     24  C   UNL     1       3.635   3.884 -13.365  0.00  0.00    -0.061 A 
ATOM     25  C   UNL     1       2.865   4.878 -13.966  0.00  0.00    -0.049 A 
ATOM     26  C   UNL     1       2.059   4.587 -15.095  0.00  0.00    +0.040 A 
ATOM     27  H   UNL     1       6.027   4.665 -15.792  0.00  0.00    +0.000 HD
ATOM     28  H   UNL     1       4.533   4.174 -16.340  0.00  0.00    +0.000 HD
ATOM     29  H   UNL     1       5.277   5.498 -17.023  0.00  0.00    +0.000 HD
ATOM     30  H   UNL     1       0.897   7.151 -14.457  0.00  0.00    +0.000 HD
ENDROOT
TORSDOF 0
ENDMDL
