MODEL 1
REMARK VINA RESULT:    -8.228      0.000      0.000
REMARK INTER + INTRA:          -8.228
REMARK INTER:                  -8.228
REMARK INTRA:                   0.000
REMARK UNBOUND:                 0.000
REMARK  Name = /home/vital/Documents/PhD_2021/Malaria_codes/scripts/../data/pdbqt_ligands/ligand_277_temp.pdb
REMARK                            x       y       z     vdW  Elec       q    Type
REMARK                         _______ _______ _______ _____ _____    ______ ____
ROOT
ATOM      1  C   UNL     1      -1.363  -5.956 -23.289  0.00  0.00    -0.102 C 
ATOM      2  C   UNL     1      -1.963  -5.111 -22.439  0.00  0.00    -0.087 C 
ATOM      3  C   UNL     1      -1.246  -4.371 -21.345  0.00  0.00    -0.016 C 
ATOM      4  C   UNL     1      -1.249  -2.892 -21.602  0.00  0.00    -0.072 C 
ATOM      5  C   UNL     1      -0.182  -2.114 -21.848  0.00  0.00    -0.015 C 
ATOM      6  C   UNL     1       1.147  -2.604 -21.907  0.00  0.00    -0.073 C 
ATOM      7  C   UNL     1       2.266  -3.037 -21.964  0.00  0.00    -0.079 C 
ATOM      8  C   UNL     1       3.621  -3.595 -22.041  0.00  0.00    +0.071 C 
ATOM      9  N   UNL     1       3.693  -4.562 -23.132  0.00  0.00    -0.338 N 
ATOM     10  C   UNL     1       4.054  -4.269 -24.431  0.00  0.00    -0.003 C 
ATOM     11  C   UNL     1       5.040  -3.534 -24.966  0.00  0.00    -0.010 C 
ATOM     12  S   UNL     1       6.312  -2.789 -24.059  0.00  0.00    -0.095 S 
ATOM     13  C   UNL     1       6.792  -1.574 -25.204  0.00  0.00    +0.021 C 
ATOM     14  C   UNL     1       7.456  -1.877 -26.337  0.00  0.00    -0.047 C 
ATOM     15  C   UNL     1       7.953  -0.902 -27.296  0.00  0.00    -0.054 C 
ATOM     16  C   UNL     1       8.837   0.075 -27.022  0.00  0.00    -0.004 C 
ATOM     17  C   UNL     1       9.350   1.124 -27.971  0.00  0.00    +0.068 C 
ATOM     18  N   UNL     1       8.738   1.010 -29.282  0.00  0.00    -0.269 N 
ATOM     19  C   UNL     1       9.361   0.913 -30.391  0.00  0.00    +0.090 C 
ATOM     20  C   UNL     1       8.417   0.706 -31.588  0.00  0.00    -0.000 C 
ATOM     21  C   UNL     1       7.985   2.042 -32.169  0.00  0.00    -0.059 C 
ATOM     22  N   UNL     1      10.700   0.947 -30.725  0.00  0.00    -0.333 N 
ATOM     23  C   UNL     1      11.767   1.686 -30.066  0.00  0.00    +0.010 C 
ATOM     24  C   UNL     1      11.492   3.187 -29.987  0.00  0.00    -0.040 C 
ATOM     25  C   UNL     1      11.627   3.871 -31.340  0.00  0.00    -0.064 C 
ATOM     26  C   UNL     1       9.464   0.117 -25.653  0.00  0.00    +0.052 C 
ATOM     27  C   UNL     1      10.927  -0.264 -25.590  0.00  0.00    +0.025 C 
ATOM     28  C   UNL     1      11.876   0.882 -25.416  0.00  0.00    +0.006 C 
ATOM     29  N   UNL     1      11.572   2.087 -25.752  0.00  0.00    -0.291 NA
ATOM     30  C   UNL     1      12.606   3.082 -25.448  0.00  0.00    +0.057 C 
ATOM     31  C   UNL     1      12.653   3.447 -23.987  0.00  0.00    -0.070 C 
ATOM     32  C   UNL     1      11.751   3.124 -23.049  0.00  0.00    -0.101 C 
ATOM     33  N   UNL     1       8.879   0.404 -24.530  0.00  0.00    -0.251 NA
ATOM     34  C   UNL     1       7.516   0.747 -24.532  0.00  0.00    +0.072 A 
ATOM     35  C   UNL     1       7.178   2.064 -24.192  0.00  0.00    -0.036 A 
ATOM     36  C   UNL     1       5.846   2.472 -24.159  0.00  0.00    -0.060 A 
ATOM     37  C   UNL     1       4.832   1.565 -24.458  0.00  0.00    -0.061 A 
ATOM     38  C   UNL     1       5.152   0.247 -24.780  0.00  0.00    -0.051 A 
ATOM     39  C   UNL     1       6.489  -0.181 -24.814  0.00  0.00    +0.014 A 
ATOM     40  H   UNL     1       3.466  -5.498 -22.925  0.00  0.00    +0.000 HD
ATOM     41  H   UNL     1       7.754   1.007 -29.319  0.00  0.00    +0.000 HD
ATOM     42  H   UNL     1      10.965   0.406 -31.503  0.00  0.00    +0.000 HD
ENDROOT
TORSDOF 0
ENDMDL
MODEL 2
REMARK VINA RESULT:    -8.081      4.767      6.529
REMARK INTER + INTRA:          -8.081
REMARK INTER:                  -8.081
REMARK INTRA:                   0.000
REMARK UNBOUND:                 0.000
REMARK  Name = /home/vital/Documents/PhD_2021/Malaria_codes/scripts/../data/pdbqt_ligands/ligand_277_temp.pdb
REMARK                            x       y       z     vdW  Elec       q    Type
REMARK                         _______ _______ _______ _____ _____    ______ ____
ROOT
ATOM      1  C   UNL     1      -2.510  -6.728 -31.671  0.00  0.00    -0.102 C 
ATOM      2  C   UNL     1      -2.707  -6.950 -30.364  0.00  0.00    -0.087 C 
ATOM      3  C   UNL     1      -1.599  -7.196 -29.378  0.00  0.00    -0.016 C 
ATOM      4  C   UNL     1      -1.505  -6.075 -28.383  0.00  0.00    -0.072 C 
ATOM      5  C   UNL     1      -0.483  -5.217 -28.231  0.00  0.00    -0.015 C 
ATOM      6  C   UNL     1       0.691  -5.250 -29.025  0.00  0.00    -0.073 C 
ATOM      7  C   UNL     1       1.676  -5.283 -29.712  0.00  0.00    -0.079 C 
ATOM      8  C   UNL     1       2.861  -5.340 -30.576  0.00  0.00    +0.071 C 
ATOM      9  N   UNL     1       2.470  -5.103 -31.963  0.00  0.00    -0.338 N 
ATOM     10  C   UNL     1       2.439  -3.868 -32.579  0.00  0.00    -0.003 C 
ATOM     11  C   UNL     1       3.289  -2.832 -32.600  0.00  0.00    -0.010 C 
ATOM     12  S   UNL     1       4.861  -2.835 -31.876  0.00  0.00    -0.095 S 
ATOM     13  C   UNL     1       5.102  -1.122 -31.729  0.00  0.00    +0.021 C 
ATOM     14  C   UNL     1       5.335  -0.334 -32.798  0.00  0.00    -0.047 C 
ATOM     15  C   UNL     1       5.621   1.091 -32.734  0.00  0.00    -0.054 C 
ATOM     16  C   UNL     1       6.658   1.646 -32.080  0.00  0.00    -0.004 C 
ATOM     17  C   UNL     1       6.970   3.113 -31.959  0.00  0.00    +0.068 C 
ATOM     18  N   UNL     1       5.969   3.934 -32.615  0.00  0.00    -0.269 N 
ATOM     19  C   UNL     1       6.198   4.825 -33.499  0.00  0.00    +0.090 C 
ATOM     20  C   UNL     1       4.908   5.443 -34.068  0.00  0.00    -0.000 C 
ATOM     21  C   UNL     1       4.480   6.645 -33.244  0.00  0.00    -0.059 C 
ATOM     22  N   UNL     1       7.358   5.331 -34.048  0.00  0.00    -0.333 N 
ATOM     23  C   UNL     1       8.659   5.476 -33.412  0.00  0.00    +0.010 C 
ATOM     24  C   UNL     1       8.606   6.307 -32.130  0.00  0.00    -0.040 C 
ATOM     25  C   UNL     1       8.392   7.788 -32.411  0.00  0.00    -0.064 C 
ATOM     26  C   UNL     1       7.682   0.739 -31.450  0.00  0.00    +0.052 C 
ATOM     27  C   UNL     1       9.034   0.706 -32.128  0.00  0.00    +0.025 C 
ATOM     28  C   UNL     1      10.120   1.454 -31.419  0.00  0.00    +0.006 C 
ATOM     29  N   UNL     1       9.874   2.411 -30.594  0.00  0.00    -0.291 NA
ATOM     30  C   UNL     1      11.064   2.981 -29.952  0.00  0.00    +0.057 C 
ATOM     31  C   UNL     1      11.610   2.105 -28.853  0.00  0.00    -0.070 C 
ATOM     32  C   UNL     1      11.015   1.034 -28.310  0.00  0.00    -0.101 C 
ATOM     33  N   UNL     1       7.517  -0.037 -30.422  0.00  0.00    -0.251 NA
ATOM     34  C   UNL     1       6.274  -0.056 -29.766  0.00  0.00    +0.072 A 
ATOM     35  C   UNL     1       6.221   0.451 -28.460  0.00  0.00    -0.036 A 
ATOM     36  C   UNL     1       5.026   0.450 -27.744  0.00  0.00    -0.060 A 
ATOM     37  C   UNL     1       3.868  -0.064 -28.322  0.00  0.00    -0.061 A 
ATOM     38  C   UNL     1       3.909  -0.588 -29.612  0.00  0.00    -0.051 A 
ATOM     39  C   UNL     1       5.106  -0.599 -30.346  0.00  0.00    +0.014 A 
ATOM     40  H   UNL     1       2.208  -5.885 -32.501  0.00  0.00    +0.000 HD
ATOM     41  H   UNL     1       5.031   3.790 -32.355  0.00  0.00    +0.000 HD
ATOM     42  H   UNL     1       7.299   5.630 -34.984  0.00  0.00    +0.000 HD
ENDROOT
TORSDOF 0
ENDMDL
MODEL 3
REMARK VINA RESULT:    -7.798      9.448     13.777
REMARK INTER + INTRA:          -7.798
REMARK INTER:                  -7.798
REMARK INTRA:                   0.000
REMARK UNBOUND:                 0.000
REMARK  Name = /home/vital/Documents/PhD_2021/Malaria_codes/scripts/../data/pdbqt_ligands/ligand_277_temp.pdb
REMARK                            x       y       z     vdW  Elec       q    Type
REMARK                         _______ _______ _______ _____ _____    ______ ____
ROOT
ATOM      1  C   UNL     1       8.324   3.443 -13.639  0.00  0.00    -0.102 C 
ATOM      2  C   UNL     1       7.907   4.238 -12.644  0.00  0.00    -0.087 C 
ATOM      3  C   UNL     1       7.186   5.539 -12.855  0.00  0.00    -0.016 C 
ATOM      4  C   UNL     1       5.775   5.462 -12.347  0.00  0.00    -0.072 C 
ATOM      5  C   UNL     1       4.650   5.544 -13.076  0.00  0.00    -0.015 C 
ATOM      6  C   UNL     1       4.641   5.714 -14.483  0.00  0.00    -0.073 C 
ATOM      7  C   UNL     1       4.649   5.849 -15.677  0.00  0.00    -0.079 C 
ATOM      8  C   UNL     1       4.690   6.000 -17.137  0.00  0.00    +0.071 C 
ATOM      9  N   UNL     1       5.354   4.843 -17.732  0.00  0.00    -0.338 N 
ATOM     10  C   UNL     1       4.718   3.695 -18.160  0.00  0.00    -0.003 C 
ATOM     11  C   UNL     1       3.607   3.475 -18.876  0.00  0.00    -0.010 C 
ATOM     12  S   UNL     1       2.657   4.714 -19.623  0.00  0.00    -0.095 S 
ATOM     13  C   UNL     1       1.161   3.850 -19.796  0.00  0.00    +0.021 C 
ATOM     14  C   UNL     1       1.004   2.858 -20.694  0.00  0.00    -0.047 C 
ATOM     15  C   UNL     1      -0.242   2.149 -20.941  0.00  0.00    -0.054 C 
ATOM     16  C   UNL     1      -1.392   2.719 -21.348  0.00  0.00    -0.004 C 
ATOM     17  C   UNL     1      -2.710   2.032 -21.581  0.00  0.00    +0.068 C 
ATOM     18  N   UNL     1      -2.642   0.616 -21.269  0.00  0.00    -0.269 N 
ATOM     19  C   UNL     1      -2.972  -0.337 -22.051  0.00  0.00    +0.090 C 
ATOM     20  C   UNL     1      -2.684  -1.725 -21.451  0.00  0.00    -0.000 C 
ATOM     21  C   UNL     1      -3.877  -2.224 -20.655  0.00  0.00    -0.059 C 
ATOM     22  N   UNL     1      -3.519  -0.370 -23.317  0.00  0.00    -0.333 N 
ATOM     23  C   UNL     1      -4.439   0.585 -23.918  0.00  0.00    +0.010 C 
ATOM     24  C   UNL     1      -5.715   0.779 -23.100  0.00  0.00    -0.040 C 
ATOM     25  C   UNL     1      -6.644  -0.424 -23.186  0.00  0.00    -0.064 C 
ATOM     26  C   UNL     1      -1.388   4.186 -21.690  0.00  0.00    +0.052 C 
ATOM     27  C   UNL     1      -1.521   4.516 -23.161  0.00  0.00    +0.025 C 
ATOM     28  C   UNL     1      -2.867   5.023 -23.579  0.00  0.00    +0.006 C 
ATOM     29  N   UNL     1      -3.938   4.773 -22.909  0.00  0.00    -0.291 NA
ATOM     30  C   UNL     1      -5.149   5.406 -23.442  0.00  0.00    +0.057 C 
ATOM     31  C   UNL     1      -5.229   6.877 -23.119  0.00  0.00    -0.070 C 
ATOM     32  C   UNL     1      -4.450   7.554 -22.264  0.00  0.00    -0.101 C 
ATOM     33  N   UNL     1      -1.244   5.183 -20.871  0.00  0.00    -0.251 NA
ATOM     34  C   UNL     1      -1.099   4.929 -19.496  0.00  0.00    +0.072 A 
ATOM     35  C   UNL     1      -2.136   5.341 -18.647  0.00  0.00    -0.036 A 
ATOM     36  C   UNL     1      -2.054   5.135 -17.271  0.00  0.00    -0.060 A 
ATOM     37  C   UNL     1      -0.929   4.521 -16.725  0.00  0.00    -0.061 A 
ATOM     38  C   UNL     1       0.117   4.123 -17.555  0.00  0.00    -0.051 A 
ATOM     39  C   UNL     1       0.052   4.326 -18.942  0.00  0.00    +0.014 A 
ATOM     40  H   UNL     1       6.332   4.886 -17.836  0.00  0.00    +0.000 HD
ATOM     41  H   UNL     1      -2.313   0.369 -20.375  0.00  0.00    +0.000 HD
ATOM     42  H   UNL     1      -3.255  -1.131 -23.883  0.00  0.00    +0.000 HD
ENDROOT
TORSDOF 0
ENDMDL
MODEL 4
REMARK VINA RESULT:    -7.781      6.867      9.511
REMARK INTER + INTRA:          -7.781
REMARK INTER:                  -7.781
REMARK INTRA:                   0.000
REMARK UNBOUND:                 0.000
REMARK  Name = /home/vital/Documents/PhD_2021/Malaria_codes/scripts/../data/pdbqt_ligands/ligand_277_temp.pdb
REMARK                            x       y       z     vdW  Elec       q    Type
REMARK                         _______ _______ _______ _____ _____    ______ ____
ROOT
ATOM      1  C   UNL     1      -5.564  -8.916 -32.344  0.00  0.00    -0.102 C 
ATOM      2  C   UNL     1      -5.177  -9.512 -33.480  0.00  0.00    -0.087 C 
ATOM      3  C   UNL     1      -4.477  -8.802 -34.605  0.00  0.00    -0.016 C 
ATOM      4  C   UNL     1      -3.073  -9.306 -34.770  0.00  0.00    -0.072 C 
ATOM      5  C   UNL     1      -1.940  -8.611 -34.580  0.00  0.00    -0.015 C 
ATOM      6  C   UNL     1      -1.914  -7.253 -34.173  0.00  0.00    -0.073 C 
ATOM      7  C   UNL     1      -1.907  -6.105 -33.819  0.00  0.00    -0.079 C 
ATOM      8  C   UNL     1      -1.931  -4.707 -33.372  0.00  0.00    +0.071 C 
ATOM      9  N   UNL     1      -2.563  -4.621 -32.060  0.00  0.00    -0.338 N 
ATOM     10  C   UNL     1      -1.900  -4.691 -30.852  0.00  0.00    -0.003 C 
ATOM     11  C   UNL     1      -0.774  -4.129 -30.389  0.00  0.00    -0.010 C 
ATOM     12  S   UNL     1       0.162  -2.954 -31.248  0.00  0.00    -0.095 S 
ATOM     13  C   UNL     1       1.676  -3.149 -30.421  0.00  0.00    +0.021 C 
ATOM     14  C   UNL     1       1.865  -2.724 -29.157  0.00  0.00    -0.047 C 
ATOM     15  C   UNL     1       3.128  -2.788 -28.438  0.00  0.00    -0.054 C 
ATOM     16  C   UNL     1       4.273  -2.193 -28.824  0.00  0.00    -0.004 C 
ATOM     17  C   UNL     1       5.607  -2.262 -28.132  0.00  0.00    +0.068 C 
ATOM     18  N   UNL     1       5.562  -3.114 -26.958  0.00  0.00    -0.269 N 
ATOM     19  C   UNL     1       5.921  -2.780 -25.780  0.00  0.00    +0.090 C 
ATOM     20  C   UNL     1       5.651  -3.883 -24.741  0.00  0.00    -0.000 C 
ATOM     21  C   UNL     1       6.842  -4.820 -24.631  0.00  0.00    -0.059 C 
ATOM     22  N   UNL     1       6.486  -1.636 -25.256  0.00  0.00    -0.333 N 
ATOM     23  C   UNL     1       7.396  -0.708 -25.912  0.00  0.00    +0.010 C 
ATOM     24  C   UNL     1       8.657  -1.387 -26.447  0.00  0.00    -0.040 C 
ATOM     25  C   UNL     1       9.610  -1.795 -25.332  0.00  0.00    -0.064 C 
ATOM     26  C   UNL     1       4.245  -1.292 -30.032  0.00  0.00    +0.052 C 
ATOM     27  C   UNL     1       4.393   0.187 -29.749  0.00  0.00    +0.025 C 
ATOM     28  C   UNL     1       5.735   0.766 -30.077  0.00  0.00    +0.006 C 
ATOM     29  N   UNL     1       6.801   0.046 -30.141  0.00  0.00    -0.291 NA
ATOM     30  C   UNL     1       8.007   0.781 -30.537  0.00  0.00    +0.057 C 
ATOM     31  C   UNL     1       8.054   1.073 -32.014  0.00  0.00    -0.070 C 
ATOM     32  C   UNL     1       7.250   0.565 -32.959  0.00  0.00    -0.101 C 
ATOM     33  N   UNL     1       4.071  -1.644 -31.269  0.00  0.00    -0.251 NA
ATOM     34  C   UNL     1       3.911  -3.005 -31.583  0.00  0.00    +0.072 A 
ATOM     35  C   UNL     1       4.928  -3.623 -32.324  0.00  0.00    -0.036 A 
ATOM     36  C   UNL     1       4.830  -4.966 -32.683  0.00  0.00    -0.060 A 
ATOM     37  C   UNL     1       3.710  -5.706 -32.313  0.00  0.00    -0.061 A 
ATOM     38  C   UNL     1       2.683  -5.100 -31.592  0.00  0.00    -0.051 A 
ATOM     39  C   UNL     1       2.764  -3.747 -31.225  0.00  0.00    +0.014 A 
ATOM     40  H   UNL     1      -3.541  -4.503 -32.034  0.00  0.00    +0.000 HD
ATOM     41  H   UNL     1       5.225  -4.030 -27.081  0.00  0.00    +0.000 HD
ATOM     42  H   UNL     1       6.245  -1.421 -24.326  0.00  0.00    +0.000 HD
ENDROOT
TORSDOF 0
ENDMDL
MODEL 5
REMARK VINA RESULT:    -7.701      7.337     12.848
REMARK INTER + INTRA:          -7.701
REMARK INTER:                  -7.701
REMARK INTRA:                   0.000
REMARK UNBOUND:                 0.000
REMARK  Name = /home/vital/Documents/PhD_2021/Malaria_codes/scripts/../data/pdbqt_ligands/ligand_277_temp.pdb
REMARK                            x       y       z     vdW  Elec       q    Type
REMARK                         _______ _______ _______ _____ _____    ______ ____
ROOT
ATOM      1  C   UNL     1       7.325  -1.315 -22.139  0.00  0.00    -0.102 C 
ATOM      2  C   UNL     1       8.396  -1.090 -22.913  0.00  0.00    -0.087 C 
ATOM      3  C   UNL     1       8.908  -2.060 -23.941  0.00  0.00    -0.016 C 
ATOM      4  C   UNL     1       8.754  -1.506 -25.328  0.00  0.00    -0.072 C 
ATOM      5  C   UNL     1       7.970  -1.988 -26.306  0.00  0.00    -0.015 C 
ATOM      6  C   UNL     1       7.141  -3.128 -26.154  0.00  0.00    -0.073 C 
ATOM      7  C   UNL     1       6.436  -4.090 -26.007  0.00  0.00    -0.079 C 
ATOM      8  C   UNL     1       5.576  -5.259 -25.794  0.00  0.00    +0.071 C 
ATOM      9  N   UNL     1       4.605  -4.970 -24.742  0.00  0.00    -0.338 N 
ATOM     10  C   UNL     1       3.346  -4.444 -24.945  0.00  0.00    -0.003 C 
ATOM     11  C   UNL     1       2.370  -4.713 -25.825  0.00  0.00    -0.010 C 
ATOM     12  S   UNL     1       2.411  -6.009 -26.971  0.00  0.00    -0.095 S 
ATOM     13  C   UNL     1       1.244  -5.410 -28.108  0.00  0.00    +0.021 C 
ATOM     14  C   UNL     1      -0.076  -5.376 -27.835  0.00  0.00    -0.047 C 
ATOM     15  C   UNL     1      -1.109  -4.959 -28.770  0.00  0.00    -0.054 C 
ATOM     16  C   UNL     1      -1.356  -5.535 -29.961  0.00  0.00    -0.004 C 
ATOM     17  C   UNL     1      -2.388  -5.116 -30.973  0.00  0.00    +0.068 C 
ATOM     18  N   UNL     1      -3.113  -3.935 -30.545  0.00  0.00    -0.269 N 
ATOM     19  C   UNL     1      -4.382  -3.827 -30.462  0.00  0.00    +0.090 C 
ATOM     20  C   UNL     1      -4.828  -2.475 -29.877  0.00  0.00    -0.000 C 
ATOM     21  C   UNL     1      -5.005  -1.445 -30.979  0.00  0.00    -0.059 C 
ATOM     22  N   UNL     1      -5.422  -4.676 -30.781  0.00  0.00    -0.333 N 
ATOM     23  C   UNL     1      -5.467  -5.676 -31.838  0.00  0.00    +0.010 C 
ATOM     24  C   UNL     1      -5.189  -5.093 -33.223  0.00  0.00    -0.040 C 
ATOM     25  C   UNL     1      -6.348  -4.253 -33.739  0.00  0.00    -0.064 C 
ATOM     26  C   UNL     1      -0.593  -6.781 -30.332  0.00  0.00    +0.052 C 
ATOM     27  C   UNL     1      -1.395  -8.064 -30.334  0.00  0.00    +0.025 C 
ATOM     28  C   UNL     1      -1.754  -8.587 -31.691  0.00  0.00    +0.006 C 
ATOM     29  N   UNL     1      -1.810  -7.830 -32.731  0.00  0.00    -0.291 NA
ATOM     30  C   UNL     1      -2.117  -8.535 -33.980  0.00  0.00    +0.057 C 
ATOM     31  C   UNL     1      -0.935  -9.290 -34.530  0.00  0.00    -0.070 C 
ATOM     32  C   UNL     1       0.338  -9.199 -34.118  0.00  0.00    -0.101 C 
ATOM     33  N   UNL     1       0.672  -6.873 -30.608  0.00  0.00    -0.251 NA
ATOM     34  C   UNL     1       1.465  -5.713 -30.602  0.00  0.00    +0.072 A 
ATOM     35  C   UNL     1       1.986  -5.277 -31.829  0.00  0.00    -0.036 A 
ATOM     36  C   UNL     1       2.792  -4.142 -31.897  0.00  0.00    -0.060 A 
ATOM     37  C   UNL     1       3.095  -3.432 -30.738  0.00  0.00    -0.061 A 
ATOM     38  C   UNL     1       2.599  -3.865 -29.509  0.00  0.00    -0.051 A 
ATOM     39  C   UNL     1       1.788  -5.008 -29.422  0.00  0.00    +0.014 A 
ATOM     40  H   UNL     1       4.871  -5.166 -23.814  0.00  0.00    +0.000 HD
ATOM     41  H   UNL     1      -2.579  -3.146 -30.295  0.00  0.00    +0.000 HD
ATOM     42  H   UNL     1      -6.231  -4.597 -30.226  0.00  0.00    +0.000 HD
ENDROOT
TORSDOF 0
ENDMDL
MODEL 6
REMARK VINA RESULT:    -7.611      3.250     12.266
REMARK INTER + INTRA:          -7.611
REMARK INTER:                  -7.611
REMARK INTRA:                   0.000
REMARK UNBOUND:                 0.000
REMARK  Name = /home/vital/Documents/PhD_2021/Malaria_codes/scripts/../data/pdbqt_ligands/ligand_277_temp.pdb
REMARK                            x       y       z     vdW  Elec       q    Type
REMARK                         _______ _______ _______ _____ _____    ______ ____
ROOT
ATOM      1  C   UNL     1      11.720   1.478 -24.428  0.00  0.00    -0.102 C 
ATOM      2  C   UNL     1      11.866   1.771 -25.728  0.00  0.00    -0.087 C 
ATOM      3  C   UNL     1      11.449   0.858 -26.847  0.00  0.00    -0.016 C 
ATOM      4  C   UNL     1      10.318   1.453 -27.635  0.00  0.00    -0.072 C 
ATOM      5  C   UNL     1       9.067   0.974 -27.736  0.00  0.00    -0.015 C 
ATOM      6  C   UNL     1       8.624  -0.203 -27.080  0.00  0.00    -0.073 C 
ATOM      7  C   UNL     1       8.261  -1.196 -26.510  0.00  0.00    -0.079 C 
ATOM      8  C   UNL     1       7.842  -2.405 -25.791  0.00  0.00    +0.071 C 
ATOM      9  N   UNL     1       7.969  -2.190 -24.353  0.00  0.00    -0.338 N 
ATOM     10  C   UNL     1       6.972  -1.708 -23.530  0.00  0.00    -0.003 C 
ATOM     11  C   UNL     1       5.665  -1.984 -23.413  0.00  0.00    -0.010 C 
ATOM     12  S   UNL     1       4.845  -3.238 -24.278  0.00  0.00    -0.095 S 
ATOM     13  C   UNL     1       3.218  -2.646 -24.147  0.00  0.00    +0.021 C 
ATOM     14  C   UNL     1       2.534  -2.674 -22.986  0.00  0.00    -0.047 C 
ATOM     15  C   UNL     1       1.147  -2.266 -22.827  0.00  0.00    -0.054 C 
ATOM     16  C   UNL     1       0.099  -2.810 -23.473  0.00  0.00    -0.004 C 
ATOM     17  C   UNL     1      -1.344  -2.397 -23.367  0.00  0.00    +0.068 C 
ATOM     18  N   UNL     1      -1.515  -1.261 -22.481  0.00  0.00    -0.269 N 
ATOM     19  C   UNL     1      -2.307  -1.206 -21.482  0.00  0.00    +0.090 C 
ATOM     20  C   UNL     1      -2.174   0.106 -20.689  0.00  0.00    -0.000 C 
ATOM     21  C   UNL     1      -3.110   1.166 -21.243  0.00  0.00    -0.059 C 
ATOM     22  N   UNL     1      -3.240  -2.084 -20.971  0.00  0.00    -0.333 N 
ATOM     23  C   UNL     1      -4.053  -3.048 -21.698  0.00  0.00    +0.010 C 
ATOM     24  C   UNL     1      -4.892  -2.408 -22.803  0.00  0.00    -0.040 C 
ATOM     25  C   UNL     1      -6.054  -1.596 -22.247  0.00  0.00    -0.064 C 
ATOM     26  C   UNL     1       0.338  -4.011 -24.351  0.00  0.00    +0.052 C 
ATOM     27  C   UNL     1      -0.201  -5.324 -23.826  0.00  0.00    +0.025 C 
ATOM     28  C   UNL     1      -1.447  -5.814 -24.498  0.00  0.00    +0.006 C 
ATOM     29  N   UNL     1      -2.255  -5.025 -25.115  0.00  0.00    -0.291 NA
ATOM     30  C   UNL     1      -3.387  -5.698 -25.762  0.00  0.00    +0.057 C 
ATOM     31  C   UNL     1      -2.999  -6.386 -27.046  0.00  0.00    -0.070 C 
ATOM     32  C   UNL     1      -1.839  -6.260 -27.706  0.00  0.00    -0.101 C 
ATOM     33  N   UNL     1       0.983  -4.044 -25.477  0.00  0.00    -0.251 NA
ATOM     34  C   UNL     1       1.519  -2.854 -25.999  0.00  0.00    +0.072 A 
ATOM     35  C   UNL     1       0.960  -2.357 -27.185  0.00  0.00    -0.036 A 
ATOM     36  C   UNL     1       1.450  -1.190 -27.768  0.00  0.00    -0.060 A 
ATOM     37  C   UNL     1       2.511  -0.509 -27.177  0.00  0.00    -0.061 A 
ATOM     38  C   UNL     1       3.089  -1.002 -26.009  0.00  0.00    -0.051 A 
ATOM     39  C   UNL     1       2.609  -2.178 -25.410  0.00  0.00    +0.014 A 
ATOM     40  H   UNL     1       8.835  -2.407 -23.937  0.00  0.00    +0.000 HD
ATOM     41  H   UNL     1      -0.973  -0.461 -22.668  0.00  0.00    +0.000 HD
ATOM     42  H   UNL     1      -3.373  -2.055 -19.996  0.00  0.00    +0.000 HD
ENDROOT
TORSDOF 0
ENDMDL
MODEL 7
REMARK VINA RESULT:    -7.522      8.548     12.428
REMARK INTER + INTRA:          -7.522
REMARK INTER:                  -7.522
REMARK INTRA:                   0.000
REMARK UNBOUND:                 0.000
REMARK  Name = /home/vital/Documents/PhD_2021/Malaria_codes/scripts/../data/pdbqt_ligands/ligand_277_temp.pdb
REMARK                            x       y       z     vdW  Elec       q    Type
REMARK                         _______ _______ _______ _____ _____    ______ ____
ROOT
ATOM      1  C   UNL     1      -8.563   6.827 -26.111  0.00  0.00    -0.102 C 
ATOM      2  C   UNL     1      -9.444   5.818 -26.077  0.00  0.00    -0.087 C 
ATOM      3  C   UNL     1      -9.084   4.379 -26.323  0.00  0.00    -0.016 C 
ATOM      4  C   UNL     1      -9.268   3.558 -25.080  0.00  0.00    -0.072 C 
ATOM      5  C   UNL     1      -8.309   2.933 -24.378  0.00  0.00    -0.015 C 
ATOM      6  C   UNL     1      -6.935   2.971 -24.724  0.00  0.00    -0.073 C 
ATOM      7  C   UNL     1      -5.772   3.021 -25.025  0.00  0.00    -0.079 C 
ATOM      8  C   UNL     1      -4.359   3.111 -25.409  0.00  0.00    +0.071 C 
ATOM      9  N   UNL     1      -3.921   4.503 -25.349  0.00  0.00    -0.338 N 
ATOM     10  C   UNL     1      -3.359   5.112 -24.245  0.00  0.00    -0.003 C 
ATOM     11  C   UNL     1      -2.414   4.737 -23.371  0.00  0.00    -0.010 C 
ATOM     12  S   UNL     1      -1.481   3.285 -23.497  0.00  0.00    -0.095 S 
ATOM     13  C   UNL     1      -0.979   3.134 -21.842  0.00  0.00    +0.021 C 
ATOM     14  C   UNL     1      -0.065   3.956 -21.290  0.00  0.00    -0.047 C 
ATOM     15  C   UNL     1       0.453   3.835 -19.936  0.00  0.00    -0.054 C 
ATOM     16  C   UNL     1       1.102   2.762 -19.446  0.00  0.00    -0.004 C 
ATOM     17  C   UNL     1       1.622   2.580 -18.046  0.00  0.00    +0.068 C 
ATOM     18  N   UNL     1       1.308   3.717 -17.202  0.00  0.00    -0.269 N 
ATOM     19  C   UNL     1       2.147   4.393 -16.518  0.00  0.00    +0.090 C 
ATOM     20  C   UNL     1       1.503   5.599 -15.812  0.00  0.00    -0.000 C 
ATOM     21  C   UNL     1       0.991   5.206 -14.437  0.00  0.00    -0.059 C 
ATOM     22  N   UNL     1       3.502   4.265 -16.297  0.00  0.00    -0.333 N 
ATOM     23  C   UNL     1       4.288   3.040 -16.251  0.00  0.00    +0.010 C 
ATOM     24  C   UNL     1       3.771   2.038 -15.219  0.00  0.00    -0.040 C 
ATOM     25  C   UNL     1       4.064   2.478 -13.791  0.00  0.00    -0.064 C 
ATOM     26  C   UNL     1       1.430   1.628 -20.383  0.00  0.00    +0.052 C 
ATOM     27  C   UNL     1       2.892   1.474 -20.739  0.00  0.00    +0.025 C 
ATOM     28  C   UNL     1       3.596   0.339 -20.059  0.00  0.00    +0.006 C 
ATOM     29  N   UNL     1       3.180  -0.167 -18.951  0.00  0.00    -0.291 NA
ATOM     30  C   UNL     1       3.964  -1.311 -18.473  0.00  0.00    +0.057 C 
ATOM     31  C   UNL     1       3.662  -2.581 -19.227  0.00  0.00    -0.070 C 
ATOM     32  C   UNL     1       2.654  -2.784 -20.087  0.00  0.00    -0.101 C 
ATOM     33  N   UNL     1       0.595   0.804 -20.941  0.00  0.00    -0.251 NA
ATOM     34  C   UNL     1      -0.777   0.917 -20.657  0.00  0.00    +0.072 A 
ATOM     35  C   UNL     1      -1.377  -0.126 -19.937  0.00  0.00    -0.036 A 
ATOM     36  C   UNL     1      -2.737  -0.089 -19.632  0.00  0.00    -0.060 A 
ATOM     37  C   UNL     1      -3.516   0.987 -20.050  0.00  0.00    -0.061 A 
ATOM     38  C   UNL     1      -2.936   2.021 -20.783  0.00  0.00    -0.051 A 
ATOM     39  C   UNL     1      -1.568   1.998 -21.102  0.00  0.00    +0.014 A 
ATOM     40  H   UNL     1      -4.035   5.050 -26.160  0.00  0.00    +0.000 HD
ATOM     41  H   UNL     1       0.364   3.992 -17.153  0.00  0.00    +0.000 HD
ATOM     42  H   UNL     1       3.998   5.102 -16.153  0.00  0.00    +0.000 HD
ENDROOT
TORSDOF 0
ENDMDL
MODEL 8
REMARK VINA RESULT:    -7.398      5.698     11.940
REMARK INTER + INTRA:          -7.398
REMARK INTER:                  -7.398
REMARK INTRA:                   0.000
REMARK UNBOUND:                 0.000
REMARK  Name = /home/vital/Documents/PhD_2021/Malaria_codes/scripts/../data/pdbqt_ligands/ligand_277_temp.pdb
REMARK                            x       y       z     vdW  Elec       q    Type
REMARK                         _______ _______ _______ _____ _____    ______ ____
ROOT
ATOM      1  C   UNL     1      11.261   3.736 -31.325  0.00  0.00    -0.102 C 
ATOM      2  C   UNL     1      12.092   3.360 -30.342  0.00  0.00    -0.087 C 
ATOM      3  C   UNL     1      11.656   3.105 -28.926  0.00  0.00    -0.016 C 
ATOM      4  C   UNL     1      11.818   1.656 -28.566  0.00  0.00    -0.072 C 
ATOM      5  C   UNL     1      10.840   0.786 -28.267  0.00  0.00    -0.015 C 
ATOM      6  C   UNL     1       9.464   1.128 -28.257  0.00  0.00    -0.073 C 
ATOM      7  C   UNL     1       8.301   1.431 -28.263  0.00  0.00    -0.079 C 
ATOM      8  C   UNL     1       6.888   1.826 -28.292  0.00  0.00    +0.071 C 
ATOM      9  N   UNL     1       6.521   2.242 -29.642  0.00  0.00    -0.338 N 
ATOM     10  C   UNL     1       6.008   1.412 -30.618  0.00  0.00    -0.003 C 
ATOM     11  C   UNL     1       5.059   0.465 -30.610  0.00  0.00    -0.010 C 
ATOM     12  S   UNL     1       4.052   0.094 -29.253  0.00  0.00    -0.095 S 
ATOM     13  C   UNL     1       3.569  -1.514 -29.698  0.00  0.00    +0.021 C 
ATOM     14  C   UNL     1       2.706  -1.752 -30.705  0.00  0.00    -0.047 C 
ATOM     15  C   UNL     1       2.203  -3.065 -31.077  0.00  0.00    -0.054 C 
ATOM     16  C   UNL     1       1.509  -3.888 -30.269  0.00  0.00    -0.004 C 
ATOM     17  C   UNL     1       1.002  -5.266 -30.599  0.00  0.00    +0.068 C 
ATOM     18  N   UNL     1       1.385  -5.675 -31.937  0.00  0.00    -0.269 N 
ATOM     19  C   UNL     1       0.592  -6.087 -32.848  0.00  0.00    +0.090 C 
ATOM     20  C   UNL     1       1.306  -6.344 -34.186  0.00  0.00    -0.000 C 
ATOM     21  C   UNL     1       1.819  -7.772 -34.256  0.00  0.00    -0.059 C 
ATOM     22  N   UNL     1      -0.765  -6.335 -32.873  0.00  0.00    -0.333 N 
ATOM     23  C   UNL     1      -1.610  -6.792 -31.779  0.00  0.00    +0.010 C 
ATOM     24  C   UNL     1      -1.128  -8.104 -31.160  0.00  0.00    -0.040 C 
ATOM     25  C   UNL     1      -1.376  -9.297 -32.072  0.00  0.00    -0.064 C 
ATOM     26  C   UNL     1       1.110  -3.391 -28.903  0.00  0.00    +0.052 C 
ATOM     27  C   UNL     1      -0.363  -3.104 -28.715  0.00  0.00    +0.025 C 
ATOM     28  C   UNL     1      -1.112  -4.127 -27.916  0.00  0.00    +0.006 C 
ATOM     29  N   UNL     1      -0.705  -5.342 -27.793  0.00  0.00    -0.291 NA
ATOM     30  C   UNL     1      -1.538  -6.177 -26.922  0.00  0.00    +0.057 C 
ATOM     31  C   UNL     1      -1.312  -5.900 -25.458  0.00  0.00    -0.070 C 
ATOM     32  C   UNL     1      -0.328  -5.162 -24.923  0.00  0.00    -0.101 C 
ATOM     33  N   UNL     1       1.894  -3.147 -27.897  0.00  0.00    -0.251 NA
ATOM     34  C   UNL     1       3.274  -3.379 -28.027  0.00  0.00    +0.072 A 
ATOM     35  C   UNL     1       3.833  -4.412 -27.260  0.00  0.00    -0.036 A 
ATOM     36  C   UNL     1       5.197  -4.690 -27.327  0.00  0.00    -0.060 A 
ATOM     37  C   UNL     1       6.022  -3.933 -28.156  0.00  0.00    -0.061 A 
ATOM     38  C   UNL     1       5.483  -2.892 -28.909  0.00  0.00    -0.051 A 
ATOM     39  C   UNL     1       4.112  -2.596 -28.851  0.00  0.00    +0.014 A 
ATOM     40  H   UNL     1       6.651   3.190 -29.875  0.00  0.00    +0.000 HD
ATOM     41  H   UNL     1       2.343  -5.630 -32.163  0.00  0.00    +0.000 HD
ATOM     42  H   UNL     1      -1.216  -6.186 -33.734  0.00  0.00    +0.000 HD
ENDROOT
TORSDOF 0
ENDMDL
MODEL 9
REMARK VINA RESULT:    -7.393      6.292     13.160
REMARK INTER + INTRA:          -7.393
REMARK INTER:                  -7.393
REMARK INTRA:                   0.000
REMARK UNBOUND:                 0.000
REMARK  Name = /home/vital/Documents/PhD_2021/Malaria_codes/scripts/../data/pdbqt_ligands/ligand_277_temp.pdb
REMARK                            x       y       z     vdW  Elec       q    Type
REMARK                         _______ _______ _______ _____ _____    ______ ____
ROOT
ATOM      1  C   UNL     1       8.201   7.389 -32.145  0.00  0.00    -0.102 C 
ATOM      2  C   UNL     1       7.594   7.933 -33.208  0.00  0.00    -0.087 C 
ATOM      3  C   UNL     1       7.229   7.168 -34.450  0.00  0.00    -0.016 C 
ATOM      4  C   UNL     1       5.739   7.085 -34.613  0.00  0.00    -0.072 C 
ATOM      5  C   UNL     1       4.984   5.975 -34.570  0.00  0.00    -0.015 C 
ATOM      6  C   UNL     1       5.512   4.678 -34.349  0.00  0.00    -0.073 C 
ATOM      7  C   UNL     1       5.973   3.586 -34.150  0.00  0.00    -0.079 C 
ATOM      8  C   UNL     1       6.562   2.267 -33.893  0.00  0.00    +0.071 C 
ATOM      9  N   UNL     1       7.190   2.258 -32.575  0.00  0.00    -0.338 N 
ATOM     10  C   UNL     1       6.567   1.887 -31.401  0.00  0.00    -0.003 C 
ATOM     11  C   UNL     1       5.769   0.861 -31.070  0.00  0.00    -0.010 C 
ATOM     12  S   UNL     1       5.377  -0.457 -32.121  0.00  0.00    -0.095 S 
ATOM     13  C   UNL     1       3.921  -1.003 -31.348  0.00  0.00    +0.021 C 
ATOM     14  C   UNL     1       3.933  -1.641 -30.161  0.00  0.00    -0.047 C 
ATOM     15  C   UNL     1       2.759  -2.190 -29.500  0.00  0.00    -0.054 C 
ATOM     16  C   UNL     1       1.947  -3.133 -30.016  0.00  0.00    -0.004 C 
ATOM     17  C   UNL     1       0.706  -3.703 -29.384  0.00  0.00    +0.068 C 
ATOM     18  N   UNL     1       0.416  -3.078 -28.107  0.00  0.00    -0.269 N 
ATOM     19  C   UNL     1       0.235  -3.689 -27.002  0.00  0.00    +0.090 C 
ATOM     20  C   UNL     1       0.048  -2.728 -25.814  0.00  0.00    -0.000 C 
ATOM     21  C   UNL     1      -1.418  -2.373 -25.637  0.00  0.00    -0.059 C 
ATOM     22  N   UNL     1       0.184  -5.025 -26.662  0.00  0.00    -0.333 N 
ATOM     23  C   UNL     1      -0.281  -6.138 -27.477  0.00  0.00    +0.010 C 
ATOM     24  C   UNL     1      -1.714  -5.953 -27.976  0.00  0.00    -0.040 C 
ATOM     25  C   UNL     1      -2.739  -6.122 -26.863  0.00  0.00    -0.064 C 
ATOM     26  C   UNL     1       2.323  -3.768 -31.330  0.00  0.00    +0.052 C 
ATOM     27  C   UNL     1       2.787  -5.206 -31.253  0.00  0.00    +0.025 C 
ATOM     28  C   UNL     1       1.789  -6.222 -31.718  0.00  0.00    +0.006 C 
ATOM     29  N   UNL     1       0.523  -5.988 -31.736  0.00  0.00    -0.291 NA
ATOM     30  C   UNL     1      -0.288  -7.081 -32.282  0.00  0.00    +0.057 C 
ATOM     31  C   UNL     1      -0.229  -7.157 -33.786  0.00  0.00    -0.070 C 
ATOM     32  C   UNL     1       0.292  -6.242 -34.616  0.00  0.00    -0.101 C 
ATOM     33  N   UNL     1       2.328  -3.206 -32.500  0.00  0.00    -0.251 NA
ATOM     34  C   UNL     1       1.922  -1.866 -32.622  0.00  0.00    +0.072 A 
ATOM     35  C   UNL     1       0.735  -1.609 -33.322  0.00  0.00    -0.036 A 
ATOM     36  C   UNL     1       0.279  -0.303 -33.495  0.00  0.00    -0.060 A 
ATOM     37  C   UNL     1       1.009   0.764 -32.977  0.00  0.00    -0.061 A 
ATOM     38  C   UNL     1       2.201   0.524 -32.296  0.00  0.00    -0.051 A 
ATOM     39  C   UNL     1       2.676  -0.785 -32.115  0.00  0.00    +0.014 A 
ATOM     40  H   UNL     1       8.132   2.540 -32.519  0.00  0.00    +0.000 HD
ATOM     41  H   UNL     1       0.354  -2.096 -28.092  0.00  0.00    +0.000 HD
ATOM     42  H   UNL     1       0.501  -5.255 -25.758  0.00  0.00    +0.000 HD
ENDROOT
TORSDOF 0
ENDMDL
