MODEL 1
REMARK VINA RESULT:    -8.580      0.000      0.000
REMARK INTER + INTRA:          -8.580
REMARK INTER:                  -8.580
REMARK INTRA:                   0.000
REMARK UNBOUND:                 0.000
REMARK  Name = /home/vital/Documents/PhD_2021/Malaria_codes/scripts/../data/pdbqt_ligands/ligand_276_temp.pdb
REMARK                            x       y       z     vdW  Elec       q    Type
REMARK                         _______ _______ _______ _____ _____    ______ ____
ROOT
ATOM      1  C   UNL     1       2.995  -4.226 -23.872  0.00  0.00    +0.082 C 
ATOM      2  O   UNL     1       4.075  -4.647 -24.707  0.00  0.00    -0.468 OA
ATOM      3  C   UNL     1       4.706  -3.622 -25.356  0.00  0.00    +0.313 C 
ATOM      4  O   UNL     1       4.422  -2.441 -25.198  0.00  0.00    -0.250 OA
ATOM      5  C   UNL     1       5.853  -4.154 -26.232  0.00  0.00    +0.074 C 
ATOM      6  C   UNL     1       7.038  -4.536 -25.305  0.00  0.00    -0.012 C 
ATOM      7  C   UNL     1       7.715  -3.402 -24.568  0.00  0.00    -0.044 A 
ATOM      8  C   UNL     1       7.211  -2.938 -23.343  0.00  0.00    -0.058 A 
ATOM      9  C   UNL     1       7.836  -1.887 -22.665  0.00  0.00    -0.059 A 
ATOM     10  C   UNL     1       8.975  -1.292 -23.201  0.00  0.00    -0.026 A 
ATOM     11  C   UNL     1       9.480  -1.753 -24.409  0.00  0.00    +0.124 A 
ATOM     12  F   UNL     1      10.578  -1.185 -24.926  0.00  0.00    -0.205 F 
ATOM     13  C   UNL     1       8.866  -2.798 -25.093  0.00  0.00    -0.023 A 
ATOM     14  C   UNL     1       5.400  -5.414 -27.007  0.00  0.00    -0.024 C 
ATOM     15  C   UNL     1       4.204  -5.142 -27.932  0.00  0.00    +0.000 C 
ATOM     16  N   UNL     1       4.095  -3.736 -28.303  0.00  0.00    -0.298 N 
ATOM     17  C   UNL     1       3.068  -3.433 -29.308  0.00  0.00    +0.028 C 
ATOM     18  C   UNL     1       3.272  -4.008 -30.700  0.00  0.00    +0.009 A 
ATOM     19  C   UNL     1       2.754  -5.286 -30.992  0.00  0.00    -0.036 A 
ATOM     20  C   UNL     1       2.921  -5.860 -32.255  0.00  0.00    +0.052 A 
ATOM     21  C   UNL     1       2.397  -7.166 -32.529  0.00  0.00    +0.099 C 
ATOM     22  N   UNL     1       1.976  -8.225 -32.750  0.00  0.00    -0.191 NA
ATOM     23  C   UNL     1       3.602  -5.153 -33.245  0.00  0.00    -0.041 A 
ATOM     24  C   UNL     1       4.108  -3.878 -32.977  0.00  0.00    -0.018 A 
ATOM     25  C   UNL     1       3.946  -3.297 -31.713  0.00  0.00    +0.125 A 
ATOM     26  O   UNL     1       4.392  -2.046 -31.379  0.00  0.00    -0.495 OA
ATOM     27  C   UNL     1       5.091  -1.301 -32.367  0.00  0.00    +0.079 C 
ATOM     28  C   UNL     1       5.382  -3.101 -28.549  0.00  0.00    +0.000 C 
ATOM     29  C   UNL     1       6.260  -3.091 -27.285  0.00  0.00    -0.024 C 
ATOM     30  H   UNL     1       3.731  -3.285 -27.463  0.00  0.00    +0.000 HD
ENDROOT
TORSDOF 0
ENDMDL
MODEL 2
REMARK VINA RESULT:    -8.106      9.849     14.081
REMARK INTER + INTRA:          -8.106
REMARK INTER:                  -8.106
REMARK INTRA:                   0.000
REMARK UNBOUND:                 0.000
REMARK  Name = /home/vital/Documents/PhD_2021/Malaria_codes/scripts/../data/pdbqt_ligands/ligand_276_temp.pdb
REMARK                            x       y       z     vdW  Elec       q    Type
REMARK                         _______ _______ _______ _____ _____    ______ ____
ROOT
ATOM      1  C   UNL     1       0.611  -2.652 -21.691  0.00  0.00    +0.082 C 
ATOM      2  O   UNL     1      -0.492  -2.210 -20.899  0.00  0.00    -0.468 OA
ATOM      3  C   UNL     1      -1.314  -1.324 -21.540  0.00  0.00    +0.313 C 
ATOM      4  O   UNL     1      -1.165  -0.980 -22.706  0.00  0.00    -0.250 OA
ATOM      5  C   UNL     1      -2.475  -0.896 -20.625  0.00  0.00    +0.074 C 
ATOM      6  C   UNL     1      -3.493  -2.065 -20.550  0.00  0.00    -0.012 C 
ATOM      7  C   UNL     1      -4.222  -2.412 -21.829  0.00  0.00    -0.044 A 
ATOM      8  C   UNL     1      -3.649  -3.281 -22.771  0.00  0.00    -0.058 A 
ATOM      9  C   UNL     1      -4.322  -3.597 -23.955  0.00  0.00    -0.059 A 
ATOM     10  C   UNL     1      -5.579  -3.054 -24.208  0.00  0.00    -0.026 A 
ATOM     11  C   UNL     1      -6.152  -2.200 -23.275  0.00  0.00    +0.124 A 
ATOM     12  F   UNL     1      -7.362  -1.677 -23.515  0.00  0.00    -0.205 F 
ATOM     13  C   UNL     1      -5.491  -1.877 -22.094  0.00  0.00    -0.023 A 
ATOM     14  C   UNL     1      -1.955  -0.596 -19.199  0.00  0.00    -0.024 C 
ATOM     15  C   UNL     1      -0.912   0.531 -19.174  0.00  0.00    +0.000 C 
ATOM     16  N   UNL     1      -1.022   1.417 -20.327  0.00  0.00    -0.298 N 
ATOM     17  C   UNL     1      -0.157   2.604 -20.287  0.00  0.00    +0.028 C 
ATOM     18  C   UNL     1      -0.439   3.629 -19.200  0.00  0.00    +0.009 A 
ATOM     19  C   UNL     1       0.199   3.491 -17.951  0.00  0.00    -0.036 A 
ATOM     20  C   UNL     1      -0.032   4.402 -16.919  0.00  0.00    +0.052 A 
ATOM     21  C   UNL     1       0.618   4.239 -15.652  0.00  0.00    +0.099 C 
ATOM     22  N   UNL     1       1.141   4.104 -14.625  0.00  0.00    -0.191 NA
ATOM     23  C   UNL     1      -0.901   5.472 -17.130  0.00  0.00    -0.041 A 
ATOM     24  C   UNL     1      -1.531   5.632 -18.368  0.00  0.00    -0.018 A 
ATOM     25  C   UNL     1      -1.305   4.722 -19.407  0.00  0.00    +0.125 A 
ATOM     26  O   UNL     1      -1.864   4.821 -20.653  0.00  0.00    -0.495 OA
ATOM     27  C   UNL     1      -2.756   5.901 -20.899  0.00  0.00    +0.079 C 
ATOM     28  C   UNL     1      -2.398   1.689 -20.719  0.00  0.00    +0.000 C 
ATOM     29  C   UNL     1      -3.126   0.406 -21.158  0.00  0.00    -0.024 C 
ATOM     30  H   UNL     1      -0.627   0.874 -21.096  0.00  0.00    +0.000 HD
ENDROOT
TORSDOF 0
ENDMDL
MODEL 3
REMARK VINA RESULT:    -8.047      1.522      1.888
REMARK INTER + INTRA:          -8.047
REMARK INTER:                  -8.047
REMARK INTRA:                   0.000
REMARK UNBOUND:                 0.000
REMARK  Name = /home/vital/Documents/PhD_2021/Malaria_codes/scripts/../data/pdbqt_ligands/ligand_276_temp.pdb
REMARK                            x       y       z     vdW  Elec       q    Type
REMARK                         _______ _______ _______ _____ _____    ______ ____
ROOT
ATOM      1  C   UNL     1       1.682  -2.349 -24.484  0.00  0.00    +0.082 C 
ATOM      2  O   UNL     1       2.487  -3.476 -24.831  0.00  0.00    -0.468 OA
ATOM      3  C   UNL     1       3.570  -3.167 -25.607  0.00  0.00    +0.313 C 
ATOM      4  O   UNL     1       3.869  -2.024 -25.931  0.00  0.00    -0.250 OA
ATOM      5  C   UNL     1       4.384  -4.429 -25.937  0.00  0.00    +0.074 C 
ATOM      6  C   UNL     1       5.182  -4.841 -24.671  0.00  0.00    -0.012 C 
ATOM      7  C   UNL     1       6.264  -3.888 -24.213  0.00  0.00    -0.044 A 
ATOM      8  C   UNL     1       5.960  -2.799 -23.381  0.00  0.00    -0.058 A 
ATOM      9  C   UNL     1       6.961  -1.917 -22.963  0.00  0.00    -0.059 A 
ATOM     10  C   UNL     1       8.278  -2.118 -23.365  0.00  0.00    -0.026 A 
ATOM     11  C   UNL     1       8.584  -3.199 -24.181  0.00  0.00    +0.124 A 
ATOM     12  F   UNL     1       9.852  -3.397 -24.566  0.00  0.00    -0.205 F 
ATOM     13  C   UNL     1       7.596  -4.083 -24.605  0.00  0.00    -0.023 A 
ATOM     14  C   UNL     1       3.441  -5.591 -26.331  0.00  0.00    -0.024 C 
ATOM     15  C   UNL     1       2.581  -5.265 -27.561  0.00  0.00    +0.000 C 
ATOM     16  N   UNL     1       3.176  -4.229 -28.397  0.00  0.00    -0.298 N 
ATOM     17  C   UNL     1       2.484  -3.978 -29.668  0.00  0.00    +0.028 C 
ATOM     18  C   UNL     1       2.484  -5.105 -30.689  0.00  0.00    +0.009 A 
ATOM     19  C   UNL     1       1.444  -6.055 -30.655  0.00  0.00    -0.036 A 
ATOM     20  C   UNL     1       1.403  -7.113 -31.567  0.00  0.00    +0.052 A 
ATOM     21  C   UNL     1       0.343  -8.076 -31.509  0.00  0.00    +0.099 C 
ATOM     22  N   UNL     1      -0.513  -8.858 -31.459  0.00  0.00    -0.191 NA
ATOM     23  C   UNL     1       2.402  -7.224 -32.534  0.00  0.00    -0.041 A 
ATOM     24  C   UNL     1       3.433  -6.280 -32.591  0.00  0.00    -0.018 A 
ATOM     25  C   UNL     1       3.481  -5.219 -31.680  0.00  0.00    +0.125 A 
ATOM     26  O   UNL     1       4.442  -4.244 -31.684  0.00  0.00    -0.495 OA
ATOM     27  C   UNL     1       5.474  -4.331 -32.657  0.00  0.00    +0.079 C 
ATOM     28  C   UNL     1       4.624  -4.338 -28.513  0.00  0.00    +0.000 C 
ATOM     29  C   UNL     1       5.315  -4.165 -27.149  0.00  0.00    -0.024 C 
ATOM     30  H   UNL     1       3.014  -3.366 -27.877  0.00  0.00    +0.000 HD
ENDROOT
TORSDOF 0
ENDMDL
MODEL 4
REMARK VINA RESULT:    -7.968      3.305      8.827
REMARK INTER + INTRA:          -7.968
REMARK INTER:                  -7.968
REMARK INTRA:                   0.000
REMARK UNBOUND:                 0.000
REMARK  Name = /home/vital/Documents/PhD_2021/Malaria_codes/scripts/../data/pdbqt_ligands/ligand_276_temp.pdb
REMARK                            x       y       z     vdW  Elec       q    Type
REMARK                         _______ _______ _______ _____ _____    ______ ____
ROOT
ATOM      1  C   UNL     1       4.886  -0.471 -32.356  0.00  0.00    +0.082 C 
ATOM      2  O   UNL     1       5.139  -1.825 -31.978  0.00  0.00    -0.468 OA
ATOM      3  C   UNL     1       4.061  -2.457 -31.422  0.00  0.00    +0.313 C 
ATOM      4  O   UNL     1       2.955  -1.941 -31.311  0.00  0.00    -0.250 OA
ATOM      5  C   UNL     1       4.411  -3.906 -31.044  0.00  0.00    +0.074 C 
ATOM      6  C   UNL     1       4.466  -4.751 -32.344  0.00  0.00    -0.012 C 
ATOM      7  C   UNL     1       3.162  -4.935 -33.087  0.00  0.00    -0.044 A 
ATOM      8  C   UNL     1       2.716  -3.975 -34.009  0.00  0.00    -0.058 A 
ATOM      9  C   UNL     1       1.508  -4.145 -34.691  0.00  0.00    -0.059 A 
ATOM     10  C   UNL     1       0.735  -5.280 -34.466  0.00  0.00    -0.026 A 
ATOM     11  C   UNL     1       1.176  -6.236 -33.561  0.00  0.00    +0.124 A 
ATOM     12  F   UNL     1       0.436  -7.332 -33.345  0.00  0.00    -0.205 F 
ATOM     13  C   UNL     1       2.376  -6.077 -32.875  0.00  0.00    -0.023 A 
ATOM     14  C   UNL     1       5.796  -3.962 -30.354  0.00  0.00    -0.024 C 
ATOM     15  C   UNL     1       5.852  -3.125 -29.068  0.00  0.00    +0.000 C 
ATOM     16  N   UNL     1       4.532  -2.913 -28.484  0.00  0.00    -0.298 N 
ATOM     17  C   UNL     1       4.529  -2.253 -27.172  0.00  0.00    +0.028 C 
ATOM     18  C   UNL     1       5.157  -3.012 -26.014  0.00  0.00    +0.009 A 
ATOM     19  C   UNL     1       6.534  -2.848 -25.759  0.00  0.00    -0.036 A 
ATOM     20  C   UNL     1       7.160  -3.529 -24.712  0.00  0.00    +0.052 A 
ATOM     21  C   UNL     1       8.563  -3.357 -24.475  0.00  0.00    +0.099 C 
ATOM     22  N   UNL     1       9.700  -3.222 -24.287  0.00  0.00    -0.191 NA
ATOM     23  C   UNL     1       6.408  -4.376 -23.899  0.00  0.00    -0.041 A 
ATOM     24  C   UNL     1       5.038  -4.538 -24.129  0.00  0.00    -0.018 A 
ATOM     25  C   UNL     1       4.405  -3.860 -25.177  0.00  0.00    +0.125 A 
ATOM     26  O   UNL     1       3.067  -3.948 -25.453  0.00  0.00    -0.495 OA
ATOM     27  C   UNL     1       2.274  -4.806 -24.642  0.00  0.00    +0.079 C 
ATOM     28  C   UNL     1       3.666  -4.081 -28.571  0.00  0.00    +0.000 C 
ATOM     29  C   UNL     1       3.375  -4.462 -30.033  0.00  0.00    -0.024 C 
ATOM     30  H   UNL     1       4.101  -2.215 -29.090  0.00  0.00    +0.000 HD
ENDROOT
TORSDOF 0
ENDMDL
MODEL 5
REMARK VINA RESULT:    -7.687     10.431     12.956
REMARK INTER + INTRA:          -7.687
REMARK INTER:                  -7.687
REMARK INTRA:                   0.000
REMARK UNBOUND:                 0.000
REMARK  Name = /home/vital/Documents/PhD_2021/Malaria_codes/scripts/../data/pdbqt_ligands/ligand_276_temp.pdb
REMARK                            x       y       z     vdW  Elec       q    Type
REMARK                         _______ _______ _______ _____ _____    ______ ____
ROOT
ATOM      1  C   UNL     1      -1.576   6.558 -21.687  0.00  0.00    +0.082 C 
ATOM      2  O   UNL     1      -1.938   5.747 -20.568  0.00  0.00    -0.468 OA
ATOM      3  C   UNL     1      -0.910   4.990 -20.076  0.00  0.00    +0.313 C 
ATOM      4  O   UNL     1       0.236   5.040 -20.506  0.00  0.00    -0.250 OA
ATOM      5  C   UNL     1      -1.377   4.148 -18.877  0.00  0.00    +0.074 C 
ATOM      6  C   UNL     1      -1.517   5.084 -17.648  0.00  0.00    -0.012 C 
ATOM      7  C   UNL     1      -0.241   5.696 -17.114  0.00  0.00    -0.044 A 
ATOM      8  C   UNL     1       0.274   6.881 -17.663  0.00  0.00    -0.058 A 
ATOM      9  C   UNL     1       1.457   7.442 -17.172  0.00  0.00    -0.059 A 
ATOM     10  C   UNL     1       2.134   6.830 -16.121  0.00  0.00    -0.026 A 
ATOM     11  C   UNL     1       1.624   5.662 -15.570  0.00  0.00    +0.124 A 
ATOM     12  F   UNL     1       2.272   5.072 -14.556  0.00  0.00    -0.205 F 
ATOM     13  C   UNL     1       0.448   5.093 -16.052  0.00  0.00    -0.023 A 
ATOM     14  C   UNL     1      -2.754   3.506 -19.174  0.00  0.00    -0.024 C 
ATOM     15  C   UNL     1      -2.726   2.583 -20.400  0.00  0.00    +0.000 C 
ATOM     16  N   UNL     1      -1.387   2.081 -20.689  0.00  0.00    -0.298 N 
ATOM     17  C   UNL     1      -1.314   1.072 -21.753  0.00  0.00    +0.028 C 
ATOM     18  C   UNL     1      -1.992  -0.263 -21.488  0.00  0.00    +0.009 A 
ATOM     19  C   UNL     1      -3.348  -0.421 -21.842  0.00  0.00    -0.036 A 
ATOM     20  C   UNL     1      -4.017  -1.626 -21.613  0.00  0.00    +0.052 A 
ATOM     21  C   UNL     1      -5.398  -1.764 -21.970  0.00  0.00    +0.099 C 
ATOM     22  N   UNL     1      -6.518  -1.873 -22.255  0.00  0.00    -0.191 NA
ATOM     23  C   UNL     1      -3.331  -2.693 -21.033  0.00  0.00    -0.041 A 
ATOM     24  C   UNL     1      -1.982  -2.557 -20.690  0.00  0.00    -0.018 A 
ATOM     25  C   UNL     1      -1.305  -1.353 -20.916  0.00  0.00    +0.125 A 
ATOM     26  O   UNL     1       0.018  -1.148 -20.629  0.00  0.00    -0.495 OA
ATOM     27  C   UNL     1       0.744  -2.217 -20.036  0.00  0.00    +0.079 C 
ATOM     28  C   UNL     1      -0.623   1.750 -19.493  0.00  0.00    +0.000 C 
ATOM     29  C   UNL     1      -0.381   2.990 -18.615  0.00  0.00    -0.024 C 
ATOM     30  H   UNL     1      -0.905   2.880 -21.100  0.00  0.00    +0.000 HD
ENDROOT
TORSDOF 0
ENDMDL
MODEL 6
REMARK VINA RESULT:    -7.461      3.093      4.824
REMARK INTER + INTRA:          -7.461
REMARK INTER:                  -7.461
REMARK INTRA:                   0.000
REMARK UNBOUND:                 0.000
REMARK  Name = /home/vital/Documents/PhD_2021/Malaria_codes/scripts/../data/pdbqt_ligands/ligand_276_temp.pdb
REMARK                            x       y       z     vdW  Elec       q    Type
REMARK                         _______ _______ _______ _____ _____    ______ ____
ROOT
ATOM      1  C   UNL     1       9.009  -3.283 -24.336  0.00  0.00    +0.082 C 
ATOM      2  O   UNL     1       7.760  -2.611 -24.502  0.00  0.00    -0.468 OA
ATOM      3  C   UNL     1       6.679  -3.448 -24.531  0.00  0.00    +0.313 C 
ATOM      4  O   UNL     1       6.754  -4.660 -24.368  0.00  0.00    -0.250 OA
ATOM      5  C   UNL     1       5.376  -2.651 -24.711  0.00  0.00    +0.074 C 
ATOM      6  C   UNL     1       5.034  -1.962 -23.364  0.00  0.00    -0.012 C 
ATOM      7  C   UNL     1       4.680  -2.872 -22.208  0.00  0.00    -0.044 A 
ATOM      8  C   UNL     1       5.682  -3.432 -21.400  0.00  0.00    -0.058 A 
ATOM      9  C   UNL     1       5.353  -4.276 -20.335  0.00  0.00    -0.059 A 
ATOM     10  C   UNL     1       4.019  -4.565 -20.062  0.00  0.00    -0.026 A 
ATOM     11  C   UNL     1       3.025  -4.007 -20.855  0.00  0.00    +0.124 A 
ATOM     12  F   UNL     1       1.740  -4.281 -20.592  0.00  0.00    -0.205 F 
ATOM     13  C   UNL     1       3.340  -3.167 -21.918  0.00  0.00    -0.023 A 
ATOM     14  C   UNL     1       5.555  -1.562 -25.796  0.00  0.00    -0.024 C 
ATOM     15  C   UNL     1       5.929  -2.147 -27.166  0.00  0.00    +0.000 C 
ATOM     16  N   UNL     1       5.519  -3.539 -27.308  0.00  0.00    -0.298 N 
ATOM     17  C   UNL     1       5.707  -4.112 -28.647  0.00  0.00    +0.028 C 
ATOM     18  C   UNL     1       4.872  -3.525 -29.774  0.00  0.00    +0.009 A 
ATOM     19  C   UNL     1       5.381  -2.429 -30.499  0.00  0.00    -0.036 A 
ATOM     20  C   UNL     1       4.649  -1.850 -31.539  0.00  0.00    +0.052 A 
ATOM     21  C   UNL     1       5.178  -0.728 -32.257  0.00  0.00    +0.099 C 
ATOM     22  N   UNL     1       5.605   0.184 -32.835  0.00  0.00    -0.191 NA
ATOM     23  C   UNL     1       3.399  -2.372 -31.872  0.00  0.00    -0.041 A 
ATOM     24  C   UNL     1       2.887  -3.469 -31.173  0.00  0.00    -0.018 A 
ATOM     25  C   UNL     1       3.615  -4.054 -30.129  0.00  0.00    +0.125 A 
ATOM     26  O   UNL     1       3.193  -5.142 -29.413  0.00  0.00    -0.495 OA
ATOM     27  C   UNL     1       1.923  -5.696 -29.728  0.00  0.00    +0.079 C 
ATOM     28  C   UNL     1       4.222  -3.825 -26.710  0.00  0.00    +0.000 C 
ATOM     29  C   UNL     1       4.236  -3.588 -25.189  0.00  0.00    -0.024 C 
ATOM     30  H   UNL     1       6.194  -4.056 -26.743  0.00  0.00    +0.000 HD
ENDROOT
TORSDOF 0
ENDMDL
MODEL 7
REMARK VINA RESULT:    -7.400     12.129     15.443
REMARK INTER + INTRA:          -7.400
REMARK INTER:                  -7.400
REMARK INTRA:                   0.000
REMARK UNBOUND:                 0.000
REMARK  Name = /home/vital/Documents/PhD_2021/Malaria_codes/scripts/../data/pdbqt_ligands/ligand_276_temp.pdb
REMARK                            x       y       z     vdW  Elec       q    Type
REMARK                         _______ _______ _______ _____ _____    ______ ____
ROOT
ATOM      1  C   UNL     1      -3.497   5.866 -22.659  0.00  0.00    +0.082 C 
ATOM      2  O   UNL     1      -2.314   5.123 -22.361  0.00  0.00    -0.468 OA
ATOM      3  C   UNL     1      -2.364   4.455 -21.169  0.00  0.00    +0.313 C 
ATOM      4  O   UNL     1      -3.349   4.436 -20.442  0.00  0.00    -0.250 OA
ATOM      5  C   UNL     1      -1.058   3.680 -20.922  0.00  0.00    +0.074 C 
ATOM      6  C   UNL     1      -1.055   2.424 -21.832  0.00  0.00    -0.012 C 
ATOM      7  C   UNL     1      -2.098   1.370 -21.535  0.00  0.00    -0.044 A 
ATOM      8  C   UNL     1      -3.392   1.466 -22.070  0.00  0.00    -0.058 A 
ATOM      9  C   UNL     1      -4.356   0.493 -21.790  0.00  0.00    -0.059 A 
ATOM     10  C   UNL     1      -4.036  -0.592 -20.979  0.00  0.00    -0.026 A 
ATOM     11  C   UNL     1      -2.754  -0.695 -20.455  0.00  0.00    +0.124 A 
ATOM     12  F   UNL     1      -2.442  -1.739 -19.676  0.00  0.00    -0.205 F 
ATOM     13  C   UNL     1      -1.787   0.269 -20.725  0.00  0.00    -0.023 A 
ATOM     14  C   UNL     1       0.165   4.558 -21.280  0.00  0.00    -0.024 C 
ATOM     15  C   UNL     1       0.232   5.848 -20.449  0.00  0.00    +0.000 C 
ATOM     16  N   UNL     1      -0.493   5.737 -19.189  0.00  0.00    -0.298 N 
ATOM     17  C   UNL     1      -0.340   6.879 -18.278  0.00  0.00    +0.028 C 
ATOM     18  C   UNL     1       1.047   7.129 -17.707  0.00  0.00    +0.009 A 
ATOM     19  C   UNL     1       1.936   7.960 -18.418  0.00  0.00    -0.036 A 
ATOM     20  C   UNL     1       3.223   8.215 -17.939  0.00  0.00    +0.052 A 
ATOM     21  C   UNL     1       4.117   9.054 -18.682  0.00  0.00    +0.099 C 
ATOM     22  N   UNL     1       4.842   9.730 -19.286  0.00  0.00    -0.191 NA
ATOM     23  C   UNL     1       3.632   7.645 -16.734  0.00  0.00    -0.041 A 
ATOM     24  C   UNL     1       2.757   6.831 -16.009  0.00  0.00    -0.018 A 
ATOM     25  C   UNL     1       1.465   6.570 -16.483  0.00  0.00    +0.125 A 
ATOM     26  O   UNL     1       0.543   5.803 -15.823  0.00  0.00    -0.495 OA
ATOM     27  C   UNL     1       0.931   5.208 -14.592  0.00  0.00    +0.079 C 
ATOM     28  C   UNL     1      -0.348   4.436 -18.550  0.00  0.00    +0.000 C 
ATOM     29  C   UNL     1      -0.930   3.310 -19.422  0.00  0.00    -0.024 C 
ATOM     30  H   UNL     1      -1.475   5.793 -19.461  0.00  0.00    +0.000 HD
ENDROOT
TORSDOF 0
ENDMDL
MODEL 8
REMARK VINA RESULT:    -7.183      3.330      8.822
REMARK INTER + INTRA:          -7.183
REMARK INTER:                  -7.183
REMARK INTRA:                   0.000
REMARK UNBOUND:                 0.000
REMARK  Name = /home/vital/Documents/PhD_2021/Malaria_codes/scripts/../data/pdbqt_ligands/ligand_276_temp.pdb
REMARK                            x       y       z     vdW  Elec       q    Type
REMARK                         _______ _______ _______ _____ _____    ______ ____
ROOT
ATOM      1  C   UNL     1       2.403   0.092 -31.747  0.00  0.00    +0.082 C 
ATOM      2  O   UNL     1       3.487  -0.835 -31.817  0.00  0.00    -0.468 OA
ATOM      3  C   UNL     1       3.248  -2.017 -31.171  0.00  0.00    +0.313 C 
ATOM      4  O   UNL     1       2.184  -2.293 -30.632  0.00  0.00    -0.250 OA
ATOM      5  C   UNL     1       4.458  -2.960 -31.291  0.00  0.00    +0.074 C 
ATOM      6  C   UNL     1       4.482  -3.541 -32.730  0.00  0.00    -0.012 C 
ATOM      7  C   UNL     1       3.341  -4.458 -33.109  0.00  0.00    -0.044 A 
ATOM      8  C   UNL     1       2.130  -3.937 -33.592  0.00  0.00    -0.058 A 
ATOM      9  C   UNL     1       1.074  -4.786 -33.938  0.00  0.00    -0.059 A 
ATOM     10  C   UNL     1       1.218  -6.165 -33.812  0.00  0.00    -0.026 A 
ATOM     11  C   UNL     1       2.418  -6.684 -33.342  0.00  0.00    +0.124 A 
ATOM     12  F   UNL     1       2.561  -8.011 -33.223  0.00  0.00    -0.205 F 
ATOM     13  C   UNL     1       3.475  -5.849 -32.993  0.00  0.00    -0.023 A 
ATOM     14  C   UNL     1       5.774  -2.182 -31.046  0.00  0.00    -0.024 C 
ATOM     15  C   UNL     1       5.830  -1.538 -29.653  0.00  0.00    +0.000 C 
ATOM     16  N   UNL     1       4.954  -2.203 -28.696  0.00  0.00    -0.298 N 
ATOM     17  C   UNL     1       5.075  -1.737 -27.309  0.00  0.00    +0.028 C 
ATOM     18  C   UNL     1       6.398  -1.995 -26.605  0.00  0.00    +0.009 A 
ATOM     19  C   UNL     1       7.422  -1.031 -26.704  0.00  0.00    -0.036 A 
ATOM     20  C   UNL     1       8.657  -1.225 -26.081  0.00  0.00    +0.052 A 
ATOM     21  C   UNL     1       9.690  -0.239 -26.202  0.00  0.00    +0.099 C 
ATOM     22  N   UNL     1      10.527   0.559 -26.303  0.00  0.00    -0.191 NA
ATOM     23  C   UNL     1       8.878  -2.387 -25.342  0.00  0.00    -0.041 A 
ATOM     24  C   UNL     1       7.867  -3.346 -25.222  0.00  0.00    -0.018 A 
ATOM     25  C   UNL     1       6.627  -3.159 -25.844  0.00  0.00    +0.125 A 
ATOM     26  O   UNL     1       5.582  -4.039 -25.756  0.00  0.00    -0.495 OA
ATOM     27  C   UNL     1       5.777  -5.233 -25.010  0.00  0.00    +0.079 C 
ATOM     28  C   UNL     1       4.930  -3.652 -28.843  0.00  0.00    +0.000 C 
ATOM     29  C   UNL     1       4.379  -4.074 -30.216  0.00  0.00    -0.024 C 
ATOM     30  H   UNL     1       4.018  -1.893 -28.959  0.00  0.00    +0.000 HD
ENDROOT
TORSDOF 0
ENDMDL
MODEL 9
REMARK VINA RESULT:    -7.082     11.398     12.979
REMARK INTER + INTRA:          -7.082
REMARK INTER:                  -7.082
REMARK INTRA:                   0.000
REMARK UNBOUND:                 0.000
REMARK  Name = /home/vital/Documents/PhD_2021/Malaria_codes/scripts/../data/pdbqt_ligands/ligand_276_temp.pdb
REMARK                            x       y       z     vdW  Elec       q    Type
REMARK                         _______ _______ _______ _____ _____    ______ ____
ROOT
ATOM      1  C   UNL     1       0.254   5.350 -23.777  0.00  0.00    +0.082 C 
ATOM      2  O   UNL     1      -0.886   5.300 -22.918  0.00  0.00    -0.468 OA
ATOM      3  C   UNL     1      -0.731   4.478 -21.837  0.00  0.00    +0.313 C 
ATOM      4  O   UNL     1       0.308   3.881 -21.581  0.00  0.00    -0.250 OA
ATOM      5  C   UNL     1      -1.997   4.478 -20.963  0.00  0.00    +0.074 C 
ATOM      6  C   UNL     1      -2.043   5.811 -20.171  0.00  0.00    -0.012 C 
ATOM      7  C   UNL     1      -0.959   6.024 -19.138  0.00  0.00    -0.044 A 
ATOM      8  C   UNL     1       0.288   6.555 -19.503  0.00  0.00    -0.058 A 
ATOM      9  C   UNL     1       1.291   6.747 -18.548  0.00  0.00    -0.059 A 
ATOM     10  C   UNL     1       1.057   6.416 -17.216  0.00  0.00    -0.026 A 
ATOM     11  C   UNL     1      -0.178   5.897 -16.850  0.00  0.00    +0.124 A 
ATOM     12  F   UNL     1      -0.407   5.580 -15.569  0.00  0.00    -0.205 F 
ATOM     13  C   UNL     1      -1.183   5.700 -17.793  0.00  0.00    -0.023 A 
ATOM     14  C   UNL     1      -3.262   4.381 -21.849  0.00  0.00    -0.024 C 
ATOM     15  C   UNL     1      -3.292   3.103 -22.701  0.00  0.00    +0.000 C 
ATOM     16  N   UNL     1      -2.471   2.038 -22.137  0.00  0.00    -0.298 N 
ATOM     17  C   UNL     1      -2.576   0.741 -22.817  0.00  0.00    +0.028 C 
ATOM     18  C   UNL     1      -3.921   0.033 -22.751  0.00  0.00    +0.009 A 
ATOM     19  C   UNL     1      -4.879   0.298 -23.750  0.00  0.00    -0.036 A 
ATOM     20  C   UNL     1      -6.131  -0.322 -23.730  0.00  0.00    +0.052 A 
ATOM     21  C   UNL     1      -7.097  -0.032 -24.749  0.00  0.00    +0.099 C 
ATOM     22  N   UNL     1      -7.880   0.207 -25.571  0.00  0.00    -0.191 NA
ATOM     23  C   UNL     1      -6.433  -1.224 -22.711  0.00  0.00    -0.041 A 
ATOM     24  C   UNL     1      -5.488  -1.509 -21.721  0.00  0.00    -0.018 A 
ATOM     25  C   UNL     1      -4.232  -0.891 -21.734  0.00  0.00    +0.125 A 
ATOM     26  O   UNL     1      -3.246  -1.133 -20.815  0.00  0.00    -0.495 OA
ATOM     27  C   UNL     1      -3.525  -2.048 -19.764  0.00  0.00    +0.079 C 
ATOM     28  C   UNL     1      -2.539   1.963 -20.684  0.00  0.00    +0.000 C 
ATOM     29  C   UNL     1      -2.001   3.245 -20.024  0.00  0.00    -0.024 C 
ATOM     30  H   UNL     1      -1.514   2.326 -22.345  0.00  0.00    +0.000 HD
ENDROOT
TORSDOF 0
ENDMDL
