MODEL 1
REMARK VINA RESULT:    -7.684      0.000      0.000
REMARK INTER + INTRA:          -7.684
REMARK INTER:                  -7.684
REMARK INTRA:                   0.000
REMARK UNBOUND:                 0.000
REMARK  Name = /home/vital/Documents/PhD_2021/Malaria_codes/scripts/../data/pdbqt_ligands/ligand_331_temp.pdb
REMARK                            x       y       z     vdW  Elec       q    Type
REMARK                         _______ _______ _______ _____ _____    ______ ____
ROOT
ATOM      1  C   UNL     1       7.541  -3.468 -24.711  0.00  0.00    -0.037 C 
ATOM      2  C   UNL     1       6.690  -4.102 -23.967  0.00  0.00    -0.016 C 
ATOM      3  N   UNL     1       5.932  -4.688 -23.288  0.00  0.00    -0.171 NA
ATOM      4  C   UNL     1       4.602  -4.404 -23.444  0.00  0.00    +0.224 C 
ATOM      5  N   UNL     1       3.849  -3.920 -22.512  0.00  0.00    -0.240 N 
ATOM      6  C   UNL     1       4.393  -3.669 -21.169  0.00  0.00    +0.091 C 
ATOM      7  C   UNL     1       5.213  -2.374 -21.124  0.00  0.00    -0.008 C 
ATOM      8  C   UNL     1       6.209  -2.309 -19.968  0.00  0.00    +0.012 C 
ATOM      9  N   UNL     1       6.844  -0.997 -19.945  0.00  0.00    -0.335 N 
ATOM     10  C   UNL     1       7.602  -0.583 -18.887  0.00  0.00    +0.078 C 
ATOM     11  N   UNL     1       7.676  -1.159 -17.742  0.00  0.00    -0.249 NA
ATOM     12  C   UNL     1       8.561  -0.465 -16.819  0.00  0.00    +0.137 C 
ATOM     13  O   UNL     1       8.670  -1.147 -15.588  0.00  0.00    -0.373 OA
ATOM     14  C   UNL     1       4.924  -4.928 -20.488  0.00  0.00    -0.060 C 
ATOM     15  C   UNL     1       4.005  -4.917 -19.503  0.00  0.00    -0.080 C 
ATOM     16  C   UNL     1       3.176  -3.825 -20.155  0.00  0.00    +0.003 C 
ATOM     17  C   UNL     1       2.745  -2.682 -19.250  0.00  0.00    -0.056 C 
ATOM     18  N   UNL     1       4.055  -4.706 -24.673  0.00  0.00    -0.284 N 
ATOM     19  C   UNL     1       2.759  -4.509 -25.042  0.00  0.00    +0.034 C 
ATOM     20  S   UNL     1       2.376  -5.036 -26.640  0.00  0.00    -0.090 S 
ATOM     21  C   UNL     1       1.524  -6.474 -26.173  0.00  0.00    -0.023 C 
ATOM     22  C   UNL     1       0.060  -6.417 -26.109  0.00  0.00    -0.054 C 
ATOM     23  C   UNL     1      -0.766  -6.260 -27.155  0.00  0.00    -0.043 C 
ATOM     24  C   UNL     1      -0.469  -6.201 -28.572  0.00  0.00    +0.034 C 
ATOM     25  C   UNL     1      -1.234  -5.501 -29.421  0.00  0.00    -0.080 C 
ATOM     26 CL   UNL     1       0.791  -7.194 -29.228  0.00  0.00    -0.084 Cl
ATOM     27  H   UNL     1       2.905  -3.716 -22.703  0.00  0.00    +0.000 HD
ATOM     28  H   UNL     1       6.722  -0.393 -20.712  0.00  0.00    +0.000 HD
ATOM     29  H   UNL     1       7.796  -1.199 -15.169  0.00  0.00    +0.000 HD
ATOM     30  H   UNL     1       4.657  -5.101 -25.345  0.00  0.00    +0.000 HD
ATOM     31  H   UNL     1       3.484  -5.302 -27.383  0.00  0.00    +0.000 HD
ENDROOT
TORSDOF 0
ENDMDL
MODEL 2
REMARK VINA RESULT:    -7.253      8.809     10.207
REMARK INTER + INTRA:          -7.253
REMARK INTER:                  -7.253
REMARK INTRA:                   0.000
REMARK UNBOUND:                 0.000
REMARK  Name = /home/vital/Documents/PhD_2021/Malaria_codes/scripts/../data/pdbqt_ligands/ligand_331_temp.pdb
REMARK                            x       y       z     vdW  Elec       q    Type
REMARK                         _______ _______ _______ _____ _____    ______ ____
ROOT
ATOM      1  C   UNL     1       1.578   5.366 -22.211  0.00  0.00    -0.037 C 
ATOM      2  C   UNL     1       1.626   4.668 -21.119  0.00  0.00    -0.016 C 
ATOM      3  N   UNL     1       1.687   4.033 -20.134  0.00  0.00    -0.171 NA
ATOM      4  C   UNL     1       0.504   3.654 -19.558  0.00  0.00    +0.224 C 
ATOM      5  N   UNL     1       0.127   4.008 -18.374  0.00  0.00    -0.240 N 
ATOM      6  C   UNL     1       0.997   4.843 -17.532  0.00  0.00    +0.091 C 
ATOM      7  C   UNL     1       0.938   6.318 -17.949  0.00  0.00    -0.008 C 
ATOM      8  C   UNL     1       2.148   7.138 -17.505  0.00  0.00    +0.012 C 
ATOM      9  N   UNL     1       1.937   8.540 -17.840  0.00  0.00    -0.335 N 
ATOM     10  C   UNL     1       2.749   9.526 -17.357  0.00  0.00    +0.078 C 
ATOM     11  N   UNL     1       3.619   9.395 -16.422  0.00  0.00    -0.249 NA
ATOM     12  C   UNL     1       4.317  10.636 -16.123  0.00  0.00    +0.137 C 
ATOM     13  O   UNL     1       5.305  10.454 -15.132  0.00  0.00    -0.373 OA
ATOM     14  C   UNL     1       2.344   4.194 -17.226  0.00  0.00    -0.060 C 
ATOM     15  C   UNL     1       2.117   4.087 -15.903  0.00  0.00    -0.080 C 
ATOM     16  C   UNL     1       0.654   4.473 -16.023  0.00  0.00    +0.003 C 
ATOM     17  C   UNL     1       0.154   5.522 -15.042  0.00  0.00    -0.056 C 
ATOM     18  N   UNL     1      -0.290   2.806 -20.301  0.00  0.00    -0.284 N 
ATOM     19  C   UNL     1      -1.498   2.306 -19.923  0.00  0.00    +0.034 C 
ATOM     20  S   UNL     1      -2.223   1.232 -21.062  0.00  0.00    -0.090 S 
ATOM     21  C   UNL     1      -1.882  -0.232 -20.194  0.00  0.00    -0.023 C 
ATOM     22  C   UNL     1      -2.945  -0.801 -19.358  0.00  0.00    -0.054 C 
ATOM     23  C   UNL     1      -4.098  -1.325 -19.803  0.00  0.00    -0.043 C 
ATOM     24  C   UNL     1      -4.552  -1.552 -21.160  0.00  0.00    +0.034 C 
ATOM     25  C   UNL     1      -5.854  -1.530 -21.477  0.00  0.00    -0.080 C 
ATOM     26 CL   UNL     1      -3.418  -2.041 -22.376  0.00  0.00    -0.084 Cl
ATOM     27  H   UNL     1      -0.750   3.717 -18.033  0.00  0.00    +0.000 HD
ATOM     28  H   UNL     1       1.189   8.784 -18.432  0.00  0.00    +0.000 HD
ATOM     29  H   UNL     1       4.888  10.150 -14.311  0.00  0.00    +0.000 HD
ATOM     30  H   UNL     1       0.049   2.537 -21.186  0.00  0.00    +0.000 HD
ATOM     31  H   UNL     1      -1.616   1.273 -22.279  0.00  0.00    +0.000 HD
ENDROOT
TORSDOF 0
ENDMDL
MODEL 3
REMARK VINA RESULT:    -7.108      7.409      9.049
REMARK INTER + INTRA:          -7.108
REMARK INTER:                  -7.108
REMARK INTRA:                   0.000
REMARK UNBOUND:                 0.000
REMARK  Name = /home/vital/Documents/PhD_2021/Malaria_codes/scripts/../data/pdbqt_ligands/ligand_331_temp.pdb
REMARK                            x       y       z     vdW  Elec       q    Type
REMARK                         _______ _______ _______ _____ _____    ______ ____
ROOT
ATOM      1  C   UNL     1       4.293   0.302 -18.097  0.00  0.00    -0.037 C 
ATOM      2  C   UNL     1       3.223   0.804 -17.561  0.00  0.00    -0.016 C 
ATOM      3  N   UNL     1       2.261   1.252 -17.060  0.00  0.00    -0.171 NA
ATOM      4  C   UNL     1       1.218   1.576 -17.884  0.00  0.00    +0.224 C 
ATOM      5  N   UNL     1       0.747   2.771 -18.024  0.00  0.00    -0.240 N 
ATOM      6  C   UNL     1       1.306   3.889 -17.247  0.00  0.00    +0.091 C 
ATOM      7  C   UNL     1       2.630   4.383 -17.844  0.00  0.00    -0.008 C 
ATOM      8  C   UNL     1       3.510   5.145 -16.855  0.00  0.00    +0.012 C 
ATOM      9  N   UNL     1       4.677   5.674 -17.548  0.00  0.00    -0.335 N 
ATOM     10  C   UNL     1       5.510   6.585 -16.963  0.00  0.00    +0.078 C 
ATOM     11  N   UNL     1       5.277   7.233 -15.879  0.00  0.00    -0.249 NA
ATOM     12  C   UNL     1       6.355   8.142 -15.524  0.00  0.00    +0.137 C 
ATOM     13  O   UNL     1       6.102   8.800 -14.301  0.00  0.00    -0.373 OA
ATOM     14  C   UNL     1       1.176   3.700 -15.738  0.00  0.00    -0.060 C 
ATOM     15  C   UNL     1       0.338   4.741 -15.569  0.00  0.00    -0.080 C 
ATOM     16  C   UNL     1       0.126   4.940 -17.058  0.00  0.00    +0.003 C 
ATOM     17  C   UNL     1       0.246   6.368 -17.567  0.00  0.00    -0.056 C 
ATOM     18  N   UNL     1       0.628   0.529 -18.561  0.00  0.00    -0.284 N 
ATOM     19  C   UNL     1      -0.419   0.624 -19.426  0.00  0.00    +0.034 C 
ATOM     20  S   UNL     1      -0.955  -0.881 -20.077  0.00  0.00    -0.090 S 
ATOM     21  C   UNL     1      -2.388  -1.014 -19.107  0.00  0.00    -0.023 C 
ATOM     22  C   UNL     1      -3.662  -0.589 -19.697  0.00  0.00    -0.054 C 
ATOM     23  C   UNL     1      -4.291  -1.188 -20.720  0.00  0.00    -0.043 C 
ATOM     24  C   UNL     1      -3.960  -2.408 -21.428  0.00  0.00    +0.034 C 
ATOM     25  C   UNL     1      -4.290  -2.585 -22.714  0.00  0.00    -0.080 C 
ATOM     26 CL   UNL     1      -3.282  -3.748 -20.561  0.00  0.00    -0.084 Cl
ATOM     27  H   UNL     1       0.009   2.936 -18.655  0.00  0.00    +0.000 HD
ATOM     28  H   UNL     1       4.871   5.367 -18.463  0.00  0.00    +0.000 HD
ATOM     29  H   UNL     1       5.291   9.327 -14.380  0.00  0.00    +0.000 HD
ATOM     30  H   UNL     1       0.999  -0.370 -18.404  0.00  0.00    +0.000 HD
ATOM     31  H   UNL     1      -0.074  -1.893 -19.851  0.00  0.00    +0.000 HD
ENDROOT
TORSDOF 0
ENDMDL
MODEL 4
REMARK VINA RESULT:    -6.931      4.352      5.676
REMARK INTER + INTRA:          -6.931
REMARK INTER:                  -6.931
REMARK INTRA:                   0.000
REMARK UNBOUND:                 0.000
REMARK  Name = /home/vital/Documents/PhD_2021/Malaria_codes/scripts/../data/pdbqt_ligands/ligand_331_temp.pdb
REMARK                            x       y       z     vdW  Elec       q    Type
REMARK                         _______ _______ _______ _____ _____    ______ ____
ROOT
ATOM      1  C   UNL     1       7.405  -0.034 -19.142  0.00  0.00    -0.037 C 
ATOM      2  C   UNL     1       6.325  -0.752 -19.173  0.00  0.00    -0.016 C 
ATOM      3  N   UNL     1       5.354  -1.411 -19.186  0.00  0.00    -0.171 NA
ATOM      4  C   UNL     1       4.619  -1.422 -20.340  0.00  0.00    +0.224 C 
ATOM      5  N   UNL     1       3.397  -1.013 -20.426  0.00  0.00    -0.240 N 
ATOM      6  C   UNL     1       2.687  -0.525 -19.234  0.00  0.00    +0.091 C 
ATOM      7  C   UNL     1       3.100   0.909 -18.879  0.00  0.00    -0.008 C 
ATOM      8  C   UNL     1       2.832   1.290 -17.424  0.00  0.00    +0.012 C 
ATOM      9  N   UNL     1       3.143   2.699 -17.224  0.00  0.00    -0.335 N 
ATOM     10  C   UNL     1       2.782   3.361 -16.085  0.00  0.00    +0.078 C 
ATOM     11  N   UNL     1       1.974   2.929 -15.186  0.00  0.00    -0.249 NA
ATOM     12  C   UNL     1       1.781   3.876 -14.099  0.00  0.00    +0.137 C 
ATOM     13  O   UNL     1       0.935   3.356 -13.097  0.00  0.00    -0.373 OA
ATOM     14  C   UNL     1       2.565  -1.576 -18.133  0.00  0.00    -0.060 C 
ATOM     15  C   UNL     1       1.222  -1.655 -18.206  0.00  0.00    -0.080 C 
ATOM     16  C   UNL     1       1.143  -0.826 -19.474  0.00  0.00    +0.003 C 
ATOM     17  C   UNL     1       0.109   0.289 -19.482  0.00  0.00    -0.056 C 
ATOM     18  N   UNL     1       5.241  -1.950 -21.453  0.00  0.00    -0.284 N 
ATOM     19  C   UNL     1       4.697  -2.059 -22.696  0.00  0.00    +0.034 C 
ATOM     20  S   UNL     1       5.720  -2.808 -23.867  0.00  0.00    -0.090 S 
ATOM     21  C   UNL     1       4.898  -4.336 -23.894  0.00  0.00    -0.023 C 
ATOM     22  C   UNL     1       3.921  -4.575 -24.962  0.00  0.00    -0.054 C 
ATOM     23  C   UNL     1       4.200  -4.693 -26.269  0.00  0.00    -0.043 C 
ATOM     24  C   UNL     1       5.480  -4.715 -26.948  0.00  0.00    +0.034 C 
ATOM     25  C   UNL     1       5.616  -4.274 -28.205  0.00  0.00    -0.080 C 
ATOM     26 CL   UNL     1       6.837  -5.489 -26.197  0.00  0.00    -0.084 Cl
ATOM     27  H   UNL     1       2.937  -1.026 -21.297  0.00  0.00    +0.000 HD
ATOM     28  H   UNL     1       3.627   3.187 -17.928  0.00  0.00    +0.000 HD
ATOM     29  H   UNL     1       0.063   3.168 -13.476  0.00  0.00    +0.000 HD
ATOM     30  H   UNL     1       6.162  -2.277 -21.336  0.00  0.00    +0.000 HD
ATOM     31  H   UNL     1       7.009  -2.913 -23.445  0.00  0.00    +0.000 HD
ENDROOT
TORSDOF 0
ENDMDL
MODEL 5
REMARK VINA RESULT:    -6.814      3.464      4.203
REMARK INTER + INTRA:          -6.814
REMARK INTER:                  -6.814
REMARK INTRA:                   0.000
REMARK UNBOUND:                 0.000
REMARK  Name = /home/vital/Documents/PhD_2021/Malaria_codes/scripts/../data/pdbqt_ligands/ligand_331_temp.pdb
REMARK                            x       y       z     vdW  Elec       q    Type
REMARK                         _______ _______ _______ _____ _____    ______ ____
ROOT
ATOM      1  C   UNL     1       8.659  -0.252 -26.712  0.00  0.00    -0.037 C 
ATOM      2  C   UNL     1       8.186  -1.445 -26.525  0.00  0.00    -0.016 C 
ATOM      3  N   UNL     1       7.775  -2.531 -26.355  0.00  0.00    -0.171 NA
ATOM      4  C   UNL     1       6.444  -2.743 -26.594  0.00  0.00    +0.224 C 
ATOM      5  N   UNL     1       5.599  -3.128 -25.697  0.00  0.00    -0.240 N 
ATOM      6  C   UNL     1       6.043  -3.406 -24.322  0.00  0.00    +0.091 C 
ATOM      7  C   UNL     1       6.242  -2.113 -23.522  0.00  0.00    -0.008 C 
ATOM      8  C   UNL     1       7.166  -2.266 -22.316  0.00  0.00    +0.012 C 
ATOM      9  N   UNL     1       7.190  -1.021 -21.559  0.00  0.00    -0.335 N 
ATOM     10  C   UNL     1       7.748  -0.946 -20.314  0.00  0.00    +0.078 C 
ATOM     11  N   UNL     1       8.107  -1.942 -19.587  0.00  0.00    -0.249 NA
ATOM     12  C   UNL     1       8.656  -1.534 -18.304  0.00  0.00    +0.137 C 
ATOM     13  O   UNL     1       9.094  -2.642 -17.547  0.00  0.00    -0.373 OA
ATOM     14  C   UNL     1       7.083  -4.520 -24.238  0.00  0.00    -0.060 C 
ATOM     15  C   UNL     1       6.289  -5.361 -23.550  0.00  0.00    -0.080 C 
ATOM     16  C   UNL     1       5.050  -4.506 -23.742  0.00  0.00    +0.003 C 
ATOM     17  C   UNL     1       4.216  -4.245 -22.498  0.00  0.00    -0.056 C 
ATOM     18  N   UNL     1       6.024  -2.564 -27.895  0.00  0.00    -0.284 N 
ATOM     19  C   UNL     1       4.751  -2.722 -28.353  0.00  0.00    +0.034 C 
ATOM     20  S   UNL     1       4.557  -2.467 -30.048  0.00  0.00    -0.090 S 
ATOM     21  C   UNL     1       4.411  -4.141 -30.482  0.00  0.00    -0.023 C 
ATOM     22  C   UNL     1       3.063  -4.691 -30.663  0.00  0.00    -0.054 C 
ATOM     23  C   UNL     1       2.204  -4.356 -31.638  0.00  0.00    -0.043 C 
ATOM     24  C   UNL     1       2.388  -3.480 -32.778  0.00  0.00    +0.034 C 
ATOM     25  C   UNL     1       1.364  -2.803 -33.315  0.00  0.00    -0.080 C 
ATOM     26 CL   UNL     1       3.920  -3.433 -33.588  0.00  0.00    -0.084 Cl
ATOM     27  H   UNL     1       4.649  -3.236 -25.935  0.00  0.00    +0.000 HD
ATOM     28  H   UNL     1       6.793  -0.212 -21.955  0.00  0.00    +0.000 HD
ATOM     29  H   UNL     1       8.343  -3.229 -17.369  0.00  0.00    +0.000 HD
ATOM     30  H   UNL     1       6.706  -2.298 -28.553  0.00  0.00    +0.000 HD
ATOM     31  H   UNL     1       5.642  -1.872 -30.615  0.00  0.00    +0.000 HD
ENDROOT
TORSDOF 0
ENDMDL
MODEL 6
REMARK VINA RESULT:    -6.785     10.698     13.545
REMARK INTER + INTRA:          -6.785
REMARK INTER:                  -6.785
REMARK INTRA:                   0.000
REMARK UNBOUND:                 0.000
REMARK  Name = /home/vital/Documents/PhD_2021/Malaria_codes/scripts/../data/pdbqt_ligands/ligand_331_temp.pdb
REMARK                            x       y       z     vdW  Elec       q    Type
REMARK                         _______ _______ _______ _____ _____    ______ ____
ROOT
ATOM      1  C   UNL     1       8.781   0.673 -32.208  0.00  0.00    -0.037 C 
ATOM      2  C   UNL     1       9.763   0.934 -31.403  0.00  0.00    -0.016 C 
ATOM      3  N   UNL     1      10.663   1.161 -30.685  0.00  0.00    -0.171 NA
ATOM      4  C   UNL     1      10.364   1.596 -29.422  0.00  0.00    +0.224 C 
ATOM      5  N   UNL     1      10.716   2.745 -28.948  0.00  0.00    -0.240 N 
ATOM      6  C   UNL     1      11.520   3.673 -29.758  0.00  0.00    +0.091 C 
ATOM      7  C   UNL     1      10.659   4.408 -30.793  0.00  0.00    -0.008 C 
ATOM      8  C   UNL     1      11.450   4.966 -31.974  0.00  0.00    +0.012 C 
ATOM      9  N   UNL     1      10.565   5.746 -32.829  0.00  0.00    -0.335 N 
ATOM     10  C   UNL     1      11.047   6.546 -33.826  0.00  0.00    +0.078 C 
ATOM     11  N   UNL     1      12.275   6.878 -33.998  0.00  0.00    -0.249 NA
ATOM     12  C   UNL     1      12.467   7.754 -35.144  0.00  0.00    +0.137 C 
ATOM     13  O   UNL     1      13.830   8.059 -35.346  0.00  0.00    -0.373 OA
ATOM     14  C   UNL     1      12.875   3.100 -30.166  0.00  0.00    -0.060 C 
ATOM     15  C   UNL     1      13.590   3.992 -29.455  0.00  0.00    -0.080 C 
ATOM     16  C   UNL     1      12.373   4.542 -28.734  0.00  0.00    +0.003 C 
ATOM     17  C   UNL     1      12.251   6.057 -28.685  0.00  0.00    -0.056 C 
ATOM     18  N   UNL     1       9.679   0.708 -28.619  0.00  0.00    -0.284 N 
ATOM     19  C   UNL     1       9.284   0.932 -27.335  0.00  0.00    +0.034 C 
ATOM     20  S   UNL     1       8.483  -0.399 -26.585  0.00  0.00    -0.090 S 
ATOM     21  C   UNL     1       9.814  -0.889 -25.585  0.00  0.00    -0.023 C 
ATOM     22  C   UNL     1       9.831  -0.435 -24.190  0.00  0.00    -0.054 C 
ATOM     23  C   UNL     1       8.966  -0.806 -23.233  0.00  0.00    -0.043 C 
ATOM     24  C   UNL     1       7.892  -1.778 -23.278  0.00  0.00    +0.034 C 
ATOM     25  C   UNL     1       6.799  -1.651 -22.513  0.00  0.00    -0.080 C 
ATOM     26 CL   UNL     1       8.086  -3.232 -24.201  0.00  0.00    -0.084 Cl
ATOM     27  H   UNL     1      10.444   3.002 -28.037  0.00  0.00    +0.000 HD
ATOM     28  H   UNL     1       9.593   5.696 -32.684  0.00  0.00    +0.000 HD
ATOM     29  H   UNL     1      14.176   8.521 -34.566  0.00  0.00    +0.000 HD
ATOM     30  H   UNL     1       9.456  -0.167 -29.010  0.00  0.00    +0.000 HD
ATOM     31  H   UNL     1       8.117  -1.359 -27.477  0.00  0.00    +0.000 HD
ENDROOT
TORSDOF 0
ENDMDL
MODEL 7
REMARK VINA RESULT:    -6.776      2.624      2.867
REMARK INTER + INTRA:          -6.776
REMARK INTER:                  -6.776
REMARK INTRA:                   0.000
REMARK UNBOUND:                 0.000
REMARK  Name = /home/vital/Documents/PhD_2021/Malaria_codes/scripts/../data/pdbqt_ligands/ligand_331_temp.pdb
REMARK                            x       y       z     vdW  Elec       q    Type
REMARK                         _______ _______ _______ _____ _____    ______ ____
ROOT
ATOM      1  C   UNL     1       9.619  -2.525 -24.525  0.00  0.00    -0.037 C 
ATOM      2  C   UNL     1       8.511  -3.107 -24.183  0.00  0.00    -0.016 C 
ATOM      3  N   UNL     1       7.518  -3.647 -23.868  0.00  0.00    -0.171 NA
ATOM      4  C   UNL     1       6.345  -3.141 -24.359  0.00  0.00    +0.224 C 
ATOM      5  N   UNL     1       5.395  -2.666 -23.623  0.00  0.00    -0.240 N 
ATOM      6  C   UNL     1       5.511  -2.676 -22.156  0.00  0.00    +0.091 C 
ATOM      7  C   UNL     1       6.413  -1.542 -21.654  0.00  0.00    -0.008 C 
ATOM      8  C   UNL     1       6.994  -1.781 -20.262  0.00  0.00    +0.012 C 
ATOM      9  N   UNL     1       7.729  -0.599 -19.831  0.00  0.00    -0.335 N 
ATOM     10  C   UNL     1       8.156  -0.447 -18.542  0.00  0.00    +0.078 C 
ATOM     11  N   UNL     1       7.801  -1.167 -17.541  0.00  0.00    -0.249 NA
ATOM     12  C   UNL     1       8.420  -0.744 -16.295  0.00  0.00    +0.137 C 
ATOM     13  O   UNL     1       8.059  -1.584 -15.220  0.00  0.00    -0.373 OA
ATOM     14  C   UNL     1       5.658  -4.079 -21.572  0.00  0.00    -0.060 C 
ATOM     15  C   UNL     1       4.483  -4.048 -20.915  0.00  0.00    -0.080 C 
ATOM     16  C   UNL     1       4.027  -2.767 -21.588  0.00  0.00    +0.003 C 
ATOM     17  C   UNL     1       3.462  -1.693 -20.672  0.00  0.00    -0.056 C 
ATOM     18  N   UNL     1       6.184  -3.195 -25.727  0.00  0.00    -0.284 N 
ATOM     19  C   UNL     1       5.101  -2.752 -26.423  0.00  0.00    +0.034 C 
ATOM     20  S   UNL     1       5.187  -3.005 -28.128  0.00  0.00    -0.090 S 
ATOM     21  C   UNL     1       4.077  -4.339 -28.183  0.00  0.00    -0.023 C 
ATOM     22  C   UNL     1       2.683  -4.062 -28.545  0.00  0.00    -0.054 C 
ATOM     23  C   UNL     1       2.253  -3.645 -29.746  0.00  0.00    -0.043 C 
ATOM     24  C   UNL     1       2.986  -3.455 -30.981  0.00  0.00    +0.034 C 
ATOM     25  C   UNL     1       2.610  -2.543 -31.887  0.00  0.00    -0.080 C 
ATOM     26 CL   UNL     1       4.271  -4.543 -31.394  0.00  0.00    -0.084 Cl
ATOM     27  H   UNL     1       4.588  -2.294 -24.047  0.00  0.00    +0.000 HD
ATOM     28  H   UNL     1       7.924   0.109 -20.486  0.00  0.00    +0.000 HD
ATOM     29  H   UNL     1       7.098  -1.552 -15.093  0.00  0.00    +0.000 HD
ATOM     30  H   UNL     1       6.920  -3.591 -26.248  0.00  0.00    +0.000 HD
ATOM     31  H   UNL     1       6.436  -3.346 -28.544  0.00  0.00    +0.000 HD
ENDROOT
TORSDOF 0
ENDMDL
MODEL 8
REMARK VINA RESULT:    -6.683      5.343      6.699
REMARK INTER + INTRA:          -6.683
REMARK INTER:                  -6.683
REMARK INTRA:                   0.000
REMARK UNBOUND:                 0.000
REMARK  Name = /home/vital/Documents/PhD_2021/Malaria_codes/scripts/../data/pdbqt_ligands/ligand_331_temp.pdb
REMARK                            x       y       z     vdW  Elec       q    Type
REMARK                         _______ _______ _______ _____ _____    ______ ____
ROOT
ATOM      1  C   UNL     1       5.448  -1.107 -31.949  0.00  0.00    -0.037 C 
ATOM      2  C   UNL     1       5.598  -2.192 -31.254  0.00  0.00    -0.016 C 
ATOM      3  N   UNL     1       5.749  -3.176 -30.632  0.00  0.00    -0.171 NA
ATOM      4  C   UNL     1       4.647  -3.705 -30.016  0.00  0.00    +0.224 C 
ATOM      5  N   UNL     1       4.528  -3.849 -28.738  0.00  0.00    -0.240 N 
ATOM      6  C   UNL     1       5.630  -3.470 -27.839  0.00  0.00    +0.091 C 
ATOM      7  C   UNL     1       5.685  -1.953 -27.623  0.00  0.00    -0.008 C 
ATOM      8  C   UNL     1       7.047  -1.441 -27.159  0.00  0.00    +0.012 C 
ATOM      9  N   UNL     1       6.959  -0.016 -26.866  0.00  0.00    -0.335 N 
ATOM     10  C   UNL     1       7.960   0.649 -26.217  0.00  0.00    +0.078 C 
ATOM     11  N   UNL     1       8.956   0.109 -25.613  0.00  0.00    -0.249 NA
ATOM     12  C   UNL     1       9.845   1.087 -25.006  0.00  0.00    +0.137 C 
ATOM     13  O   UNL     1      10.960   0.472 -24.397  0.00  0.00    -0.373 OA
ATOM     14  C   UNL     1       6.917  -4.248 -28.101  0.00  0.00    -0.060 C 
ATOM     15  C   UNL     1       6.911  -4.875 -26.910  0.00  0.00    -0.080 C 
ATOM     16  C   UNL     1       5.510  -4.409 -26.560  0.00  0.00    +0.003 C 
ATOM     17  C   UNL     1       5.325  -3.832 -25.166  0.00  0.00    -0.056 C 
ATOM     18  N   UNL     1       3.635  -4.139 -30.847  0.00  0.00    -0.284 N 
ATOM     19  C   UNL     1       2.457  -4.696 -30.450  0.00  0.00    +0.034 C 
ATOM     20  S   UNL     1       1.416  -5.177 -31.739  0.00  0.00    -0.090 S 
ATOM     21  C   UNL     1       1.716  -6.881 -31.606  0.00  0.00    -0.023 C 
ATOM     22  C   UNL     1       0.753  -7.694 -30.856  0.00  0.00    -0.054 C 
ATOM     23  C   UNL     1      -0.517  -7.938 -31.218  0.00  0.00    -0.043 C 
ATOM     24  C   UNL     1      -1.225  -7.571 -32.427  0.00  0.00    +0.034 C 
ATOM     25  C   UNL     1      -2.549  -7.363 -32.429  0.00  0.00    -0.080 C 
ATOM     26 CL   UNL     1      -0.390  -7.571 -33.946  0.00  0.00    -0.084 Cl
ATOM     27  H   UNL     1       3.695  -4.214 -28.362  0.00  0.00    +0.000 HD
ATOM     28  H   UNL     1       6.155   0.481 -27.143  0.00  0.00    +0.000 HD
ATOM     29  H   UNL     1      10.657  -0.122 -23.693  0.00  0.00    +0.000 HD
ATOM     30  H   UNL     1       3.778  -4.037 -31.816  0.00  0.00    +0.000 HD
ATOM     31  H   UNL     1       1.803  -4.669 -32.941  0.00  0.00    +0.000 HD
ENDROOT
TORSDOF 0
ENDMDL
MODEL 9
REMARK VINA RESULT:    -6.597     10.611     13.673
REMARK INTER + INTRA:          -6.597
REMARK INTER:                  -6.597
REMARK INTRA:                   0.000
REMARK UNBOUND:                 0.000
REMARK  Name = /home/vital/Documents/PhD_2021/Malaria_codes/scripts/../data/pdbqt_ligands/ligand_331_temp.pdb
REMARK                            x       y       z     vdW  Elec       q    Type
REMARK                         _______ _______ _______ _____ _____    ______ ____
ROOT
ATOM      1  C   UNL     1       0.982   0.084 -33.183  0.00  0.00    -0.037 C 
ATOM      2  C   UNL     1       1.955  -0.388 -32.467  0.00  0.00    -0.016 C 
ATOM      3  N   UNL     1       2.825  -0.816 -31.805  0.00  0.00    -0.171 NA
ATOM      4  C   UNL     1       4.098  -0.705 -32.294  0.00  0.00    +0.224 C 
ATOM      5  N   UNL     1       4.863  -1.710 -32.562  0.00  0.00    -0.240 N 
ATOM      6  C   UNL     1       4.403  -3.085 -32.314  0.00  0.00    +0.091 C 
ATOM      7  C   UNL     1       3.450  -3.568 -33.414  0.00  0.00    -0.008 C 
ATOM      8  C   UNL     1       2.547  -4.725 -32.990  0.00  0.00    +0.012 C 
ATOM      9  N   UNL     1       1.774  -5.186 -34.136  0.00  0.00    -0.335 N 
ATOM     10  C   UNL     1       1.060  -6.349 -34.101  0.00  0.00    +0.078 C 
ATOM     11  N   UNL     1       1.141  -7.257 -33.197  0.00  0.00    -0.249 NA
ATOM     12  C   UNL     1       0.260  -8.386 -33.451  0.00  0.00    +0.137 C 
ATOM     13  O   UNL     1       0.325  -9.343 -32.416  0.00  0.00    -0.373 OA
ATOM     14  C   UNL     1       4.071  -3.355 -30.848  0.00  0.00    -0.060 C 
ATOM     15  C   UNL     1       5.057  -4.256 -30.676  0.00  0.00    -0.080 C 
ATOM     16  C   UNL     1       5.706  -3.949 -32.013  0.00  0.00    +0.003 C 
ATOM     17  C   UNL     1       6.076  -5.149 -32.869  0.00  0.00    -0.056 C 
ATOM     18  N   UNL     1       4.577   0.578 -32.458  0.00  0.00    -0.284 N 
ATOM     19  C   UNL     1       5.810   0.918 -32.927  0.00  0.00    +0.034 C 
ATOM     20  S   UNL     1       6.121   2.615 -32.972  0.00  0.00    -0.090 S 
ATOM     21  C   UNL     1       7.162   2.658 -31.584  0.00  0.00    -0.023 C 
ATOM     22  C   UNL     1       8.612   2.639 -31.808  0.00  0.00    -0.054 C 
ATOM     23  C   UNL     1       9.330   3.614 -32.387  0.00  0.00    -0.043 C 
ATOM     24  C   UNL     1       8.917   4.927 -32.839  0.00  0.00    +0.034 C 
ATOM     25  C   UNL     1       9.530   5.542 -33.859  0.00  0.00    -0.080 C 
ATOM     26 CL   UNL     1       7.728   5.812 -31.941  0.00  0.00    -0.084 Cl
ATOM     27  H   UNL     1       5.761  -1.556 -32.936  0.00  0.00    +0.000 HD
ATOM     28  H   UNL     1       1.766  -4.644 -34.957  0.00  0.00    +0.000 HD
ATOM     29  H   UNL     1       1.229  -9.688 -32.352  0.00  0.00    +0.000 HD
ATOM     30  H   UNL     1       3.971   1.316 -32.215  0.00  0.00    +0.000 HD
ATOM     31  H   UNL     1       4.995   3.358 -32.805  0.00  0.00    +0.000 HD
ENDROOT
TORSDOF 0
ENDMDL
