MODEL 1
REMARK VINA RESULT:    -7.780      0.000      0.000
REMARK INTER + INTRA:          -7.780
REMARK INTER:                  -7.780
REMARK INTRA:                   0.000
REMARK UNBOUND:                 0.000
REMARK  Name = /home/vital/Documents/PhD_2021/Malaria_codes/scripts/../data/pdbqt_ligands/ligand_371_temp.pdb
REMARK                            x       y       z     vdW  Elec       q    Type
REMARK                         _______ _______ _______ _____ _____    ______ ____
ROOT
ATOM      1  C   UNL     1     141.408 146.280 162.880  0.00  0.00    -0.099 C 
ATOM      2  C   UNL     1     142.308 147.100 163.439  0.00  0.00    -0.069 C 
ATOM      3  C   UNL     1     142.568 147.117 164.860  0.00  0.00    -0.060 C 
ATOM      4  C   UNL     1     143.489 147.787 165.599  0.00  0.00    -0.034 C 
ATOM      5  C   UNL     1     143.386 147.690 167.155  0.00  0.00    +0.041 C 
ATOM      6  N   UNL     1     142.999 148.999 167.723  0.00  0.00    -0.307 N 
ATOM      7  C   UNL     1     141.672 149.486 167.335  0.00  0.00    +0.020 C 
ATOM      8  C   UNL     1     141.271 150.666 168.233  0.00  0.00    +0.057 C 
ATOM      9  O   UNL     1     141.158 150.236 169.591  0.00  0.00    -0.394 OA
ATOM     10  C   UNL     1     142.568 146.521 167.831  0.00  0.00    +0.029 C 
ATOM     11  C   UNL     1     143.078 145.205 167.410  0.00  0.00    -0.094 C 
ATOM     12  C   UNL     1     143.599 144.322 166.786  0.00  0.00    -0.046 C 
ATOM     13  C   UNL     1     144.335 143.685 165.742  0.00  0.00    +0.126 A 
ATOM     14  N   UNL     1     144.807 144.623 164.911  0.00  0.00    -0.205 NA
ATOM     15  C   UNL     1     145.539 144.233 163.882  0.00  0.00    +0.217 A 
ATOM     16  N   UNL     1     145.818 142.952 163.625  0.00  0.00    -0.214 NA
ATOM     17  C   UNL     1     145.323 142.019 164.460  0.00  0.00    +0.077 A 
ATOM     18  C   UNL     1     145.591 140.677 164.213  0.00  0.00    -0.036 A 
ATOM     19  C   UNL     1     145.113 139.658 165.046  0.00  0.00    -0.060 A 
ATOM     20  C   UNL     1     144.345 139.975 166.160  0.00  0.00    -0.061 A 
ATOM     21  C   UNL     1     144.059 141.308 166.435  0.00  0.00    -0.050 A 
ATOM     22  C   UNL     1     144.547 142.329 165.584  0.00  0.00    +0.034 A 
ATOM     23  N   UNL     1     146.068 145.201 163.036  0.00  0.00    -0.310 N 
ATOM     24  C   UNL     1     146.481 146.411 163.729  0.00  0.00    +0.031 C 
ATOM     25  C   UNL     1     145.839 147.589 163.061  0.00  0.00    -0.051 C 
ATOM     26  C   UNL     1     145.069 148.554 163.612  0.00  0.00    +0.033 C 
ATOM     27 CL   UNL     1     144.638 149.893 162.548  0.00  0.00    -0.087 Cl
ATOM     28  C   UNL     1     144.575 148.753 165.048  0.00  0.00    +0.060 C 
ATOM     29  S   UNL     1     146.090 148.930 166.093  0.00  0.00    -0.165 S 
ATOM     30  H   UNL     1     143.688 149.689 167.421  0.00  0.00    +0.000 HD
ATOM     31  H   UNL     1     142.967 148.869 168.734  0.00  0.00    +0.000 HD
ATOM     32  H   UNL     1     140.478 149.547 169.657  0.00  0.00    +0.000 HD
ATOM     33  H   UNL     1     146.155 145.079 162.063  0.00  0.00    +0.000 HD
ATOM     34  H   UNL     1     146.819 147.783 166.033  0.00  0.00    +0.000 HD
ENDROOT
TORSDOF 0
ENDMDL
MODEL 2
REMARK VINA RESULT:    -7.413      3.353      4.743
REMARK INTER + INTRA:          -7.413
REMARK INTER:                  -7.413
REMARK INTRA:                   0.000
REMARK UNBOUND:                 0.000
REMARK  Name = /home/vital/Documents/PhD_2021/Malaria_codes/scripts/../data/pdbqt_ligands/ligand_371_temp.pdb
REMARK                            x       y       z     vdW  Elec       q    Type
REMARK                         _______ _______ _______ _____ _____    ______ ____
ROOT
ATOM      1  C   UNL     1     145.666 145.714 163.878  0.00  0.00    -0.099 C 
ATOM      2  C   UNL     1     144.739 146.566 164.338  0.00  0.00    -0.069 C 
ATOM      3  C   UNL     1     143.424 146.675 163.751  0.00  0.00    -0.060 C 
ATOM      4  C   UNL     1     142.330 147.389 164.120  0.00  0.00    -0.034 C 
ATOM      5  C   UNL     1     141.103 147.394 163.153  0.00  0.00    +0.041 C 
ATOM      6  N   UNL     1     140.922 148.739 162.566  0.00  0.00    -0.307 N 
ATOM      7  C   UNL     1     142.017 149.204 161.709  0.00  0.00    +0.020 C 
ATOM      8  C   UNL     1     141.567 150.441 160.919  0.00  0.00    +0.057 C 
ATOM      9  O   UNL     1     140.490 150.102 160.042  0.00  0.00    -0.394 OA
ATOM     10  C   UNL     1     140.948 146.275 162.051  0.00  0.00    +0.029 C 
ATOM     11  C   UNL     1     140.937 144.933 162.656  0.00  0.00    -0.094 C 
ATOM     12  C   UNL     1     141.110 144.008 163.402  0.00  0.00    -0.046 C 
ATOM     13  C   UNL     1     141.519 143.302 164.573  0.00  0.00    +0.126 A 
ATOM     14  N   UNL     1     141.985 144.182 165.469  0.00  0.00    -0.205 NA
ATOM     15  C   UNL     1     142.397 143.723 166.637  0.00  0.00    +0.217 A 
ATOM     16  N   UNL     1     142.385 142.427 166.961  0.00  0.00    -0.214 NA
ATOM     17  C   UNL     1     141.929 141.552 166.045  0.00  0.00    +0.077 A 
ATOM     18  C   UNL     1     141.910 140.196 166.352  0.00  0.00    -0.036 A 
ATOM     19  C   UNL     1     141.442 139.236 165.447  0.00  0.00    -0.060 A 
ATOM     20  C   UNL     1     140.976 139.627 164.198  0.00  0.00    -0.061 A 
ATOM     21  C   UNL     1     140.981 140.976 163.860  0.00  0.00    -0.050 A 
ATOM     22  C   UNL     1     141.459 141.938 164.783  0.00  0.00    +0.034 A 
ATOM     23  N   UNL     1     142.845 144.631 167.590  0.00  0.00    -0.310 N 
ATOM     24  C   UNL     1     142.104 145.882 167.587  0.00  0.00    +0.031 C 
ATOM     25  C   UNL     1     143.078 147.017 167.481  0.00  0.00    -0.051 C 
ATOM     26  C   UNL     1     143.111 148.019 166.575  0.00  0.00    +0.033 C 
ATOM     27 CL   UNL     1     144.300 149.286 166.873  0.00  0.00    -0.087 Cl
ATOM     28  C   UNL     1     142.219 148.313 165.365  0.00  0.00    +0.060 C 
ATOM     29  S   UNL     1     140.511 148.553 166.031  0.00  0.00    -0.165 S 
ATOM     30  H   UNL     1     140.817 149.405 163.332  0.00  0.00    +0.000 HD
ATOM     31  H   UNL     1     140.102 148.675 161.963  0.00  0.00    +0.000 HD
ATOM     32  H   UNL     1     140.785 149.421 159.417  0.00  0.00    +0.000 HD
ATOM     33  H   UNL     1     143.590 144.446 168.205  0.00  0.00    +0.000 HD
ATOM     34  H   UNL     1     140.088 147.402 166.620  0.00  0.00    +0.000 HD
ENDROOT
TORSDOF 0
ENDMDL
MODEL 3
REMARK VINA RESULT:    -6.922     12.834     15.120
REMARK INTER + INTRA:          -6.922
REMARK INTER:                  -6.922
REMARK INTRA:                   0.000
REMARK UNBOUND:                 0.000
REMARK  Name = /home/vital/Documents/PhD_2021/Malaria_codes/scripts/../data/pdbqt_ligands/ligand_371_temp.pdb
REMARK                            x       y       z     vdW  Elec       q    Type
REMARK                         _______ _______ _______ _____ _____    ______ ____
ROOT
ATOM      1  C   UNL     1     148.239 159.837 167.260  0.00  0.00    -0.099 C 
ATOM      2  C   UNL     1     149.342 160.434 166.789  0.00  0.00    -0.069 C 
ATOM      3  C   UNL     1     150.656 160.181 167.333  0.00  0.00    -0.060 C 
ATOM      4  C   UNL     1     151.888 160.598 166.944  0.00  0.00    -0.034 C 
ATOM      5  C   UNL     1     153.100 160.256 167.869  0.00  0.00    +0.041 C 
ATOM      6  N   UNL     1     153.639 161.490 168.480  0.00  0.00    -0.307 N 
ATOM      7  C   UNL     1     152.725 162.196 169.383  0.00  0.00    +0.020 C 
ATOM      8  C   UNL     1     153.502 163.250 170.186  0.00  0.00    +0.057 C 
ATOM      9  O   UNL     1     154.476 162.617 171.018  0.00  0.00    -0.394 OA
ATOM     10  C   UNL     1     152.988 159.102 168.940  0.00  0.00    +0.029 C 
ATOM     11  C   UNL     1     152.634 157.822 168.304  0.00  0.00    -0.094 C 
ATOM     12  C   UNL     1     152.208 156.997 167.543  0.00  0.00    -0.046 C 
ATOM     13  C   UNL     1     151.598 156.457 166.371  0.00  0.00    +0.126 A 
ATOM     14  N   UNL     1     151.354 157.454 165.511  0.00  0.00    -0.205 NA
ATOM     15  C   UNL     1     150.805 157.154 164.347  0.00  0.00    +0.217 A 
ATOM     16  N   UNL     1     150.472 155.909 163.993  0.00  0.00    -0.214 NA
ATOM     17  C   UNL     1     150.710 154.918 164.874  0.00  0.00    +0.077 A 
ATOM     18  C   UNL     1     150.368 153.614 164.535  0.00  0.00    -0.036 A 
ATOM     19  C   UNL     1     150.595 152.538 165.402  0.00  0.00    -0.060 A 
ATOM     20  C   UNL     1     151.180 152.757 166.643  0.00  0.00    -0.061 A 
ATOM     21  C   UNL     1     151.534 154.050 167.012  0.00  0.00    -0.050 A 
ATOM     22  C   UNL     1     151.297 155.131 166.127  0.00  0.00    +0.034 A 
ATOM     23  N   UNL     1     150.583 158.176 163.432  0.00  0.00    -0.310 N 
ATOM     24  C   UNL     1     151.623 159.192 163.438  0.00  0.00    +0.031 C 
ATOM     25  C   UNL     1     150.979 160.536 163.602  0.00  0.00    -0.051 C 
ATOM     26  C   UNL     1     151.232 161.484 164.532  0.00  0.00    +0.033 C 
ATOM     27 CL   UNL     1     150.405 163.024 164.303  0.00  0.00    -0.087 Cl
ATOM     28  C   UNL     1     152.202 161.500 165.717  0.00  0.00    +0.060 C 
ATOM     29  S   UNL     1     153.895 161.311 165.000  0.00  0.00    -0.165 S 
ATOM     30  H   UNL     1     153.892 162.129 167.727  0.00  0.00    +0.000 HD
ATOM     31  H   UNL     1     154.430 161.198 169.053  0.00  0.00    +0.000 HD
ATOM     32  H   UNL     1     154.032 162.016 171.638  0.00  0.00    +0.000 HD
ATOM     33  H   UNL     1     149.799 158.208 162.837  0.00  0.00    +0.000 HD
ATOM     34  H   UNL     1     153.989 160.109 164.371  0.00  0.00    +0.000 HD
ENDROOT
TORSDOF 0
ENDMDL
MODEL 4
REMARK VINA RESULT:    -6.808      3.011      4.407
REMARK INTER + INTRA:          -6.808
REMARK INTER:                  -6.808
REMARK INTRA:                   0.000
REMARK UNBOUND:                 0.000
REMARK  Name = /home/vital/Documents/PhD_2021/Malaria_codes/scripts/../data/pdbqt_ligands/ligand_371_temp.pdb
REMARK                            x       y       z     vdW  Elec       q    Type
REMARK                         _______ _______ _______ _____ _____    ______ ____
ROOT
ATOM      1  C   UNL     1     143.494 146.502 168.442  0.00  0.00    -0.099 C 
ATOM      2  C   UNL     1     143.249 147.289 167.386  0.00  0.00    -0.069 C 
ATOM      3  C   UNL     1     144.110 147.325 166.226  0.00  0.00    -0.060 C 
ATOM      4  C   UNL     1     143.990 147.966 165.035  0.00  0.00    -0.034 C 
ATOM      5  C   UNL     1     145.203 147.909 164.052  0.00  0.00    +0.041 C 
ATOM      6  N   UNL     1     145.817 149.248 163.920  0.00  0.00    -0.307 N 
ATOM      7  C   UNL     1     146.412 149.789 165.145  0.00  0.00    +0.020 C 
ATOM      8  C   UNL     1     147.283 151.007 164.802  0.00  0.00    +0.057 C 
ATOM      9  O   UNL     1     148.374 150.614 163.967  0.00  0.00    -0.394 OA
ATOM     10  C   UNL     1     146.312 146.796 164.212  0.00  0.00    +0.029 C 
ATOM     11  C   UNL     1     145.723 145.448 164.153  0.00  0.00    -0.094 C 
ATOM     12  C   UNL     1     144.956 144.527 164.216  0.00  0.00    -0.046 C 
ATOM     13  C   UNL     1     143.723 143.831 164.403  0.00  0.00    +0.126 A 
ATOM     14  N   UNL     1     142.748 144.727 164.604  0.00  0.00    -0.205 NA
ATOM     15  C   UNL     1     141.517 144.279 164.779  0.00  0.00    +0.217 A 
ATOM     16  N   UNL     1     141.202 142.980 164.777  0.00  0.00    -0.214 NA
ATOM     17  C   UNL     1     142.196 142.091 164.588  0.00  0.00    +0.077 A 
ATOM     18  C   UNL     1     141.899 140.733 164.588  0.00  0.00    -0.036 A 
ATOM     19  C   UNL     1     142.884 139.757 164.390  0.00  0.00    -0.060 A 
ATOM     20  C   UNL     1     144.205 140.136 164.185  0.00  0.00    -0.061 A 
ATOM     21  C   UNL     1     144.535 141.486 164.180  0.00  0.00    -0.050 A 
ATOM     22  C   UNL     1     143.530 142.464 164.383  0.00  0.00    +0.034 A 
ATOM     23  N   UNL     1     140.490 145.200 164.949  0.00  0.00    -0.310 N 
ATOM     24  C   UNL     1     140.656 146.404 164.151  0.00  0.00    +0.031 C 
ATOM     25  C   UNL     1     140.547 147.597 165.052  0.00  0.00    -0.051 C 
ATOM     26  C   UNL     1     141.425 148.611 165.219  0.00  0.00    +0.033 C 
ATOM     27 CL   UNL     1     140.874 149.944 166.233  0.00  0.00    -0.087 Cl
ATOM     28  C   UNL     1     142.801 148.865 164.597  0.00  0.00    +0.060 C 
ATOM     29  S   UNL     1     142.526 148.992 162.773  0.00  0.00    -0.165 S 
ATOM     30  H   UNL     1     145.093 149.896 163.609  0.00  0.00    +0.000 HD
ATOM     31  H   UNL     1     146.585 149.141 163.258  0.00  0.00    +0.000 HD
ATOM     32  H   UNL     1     148.919 149.961 164.434  0.00  0.00    +0.000 HD
ATOM     33  H   UNL     1     139.726 145.053 165.552  0.00  0.00    +0.000 HD
ATOM     34  H   UNL     1     142.043 147.810 162.305  0.00  0.00    +0.000 HD
ENDROOT
TORSDOF 0
ENDMDL
MODEL 5
REMARK VINA RESULT:    -6.726     12.330     15.014
REMARK INTER + INTRA:          -6.726
REMARK INTER:                  -6.726
REMARK INTRA:                   0.000
REMARK UNBOUND:                 0.000
REMARK  Name = /home/vital/Documents/PhD_2021/Malaria_codes/scripts/../data/pdbqt_ligands/ligand_371_temp.pdb
REMARK                            x       y       z     vdW  Elec       q    Type
REMARK                         _______ _______ _______ _____ _____    ______ ____
ROOT
ATOM      1  C   UNL     1     154.913 157.106 163.947  0.00  0.00    -0.099 C 
ATOM      2  C   UNL     1     153.920 157.251 164.835  0.00  0.00    -0.069 C 
ATOM      3  C   UNL     1     152.959 158.327 164.759  0.00  0.00    -0.060 C 
ATOM      4  C   UNL     1     151.843 158.591 165.486  0.00  0.00    -0.034 C 
ATOM      5  C   UNL     1     151.112 159.948 165.231  0.00  0.00    +0.041 C 
ATOM      6  N   UNL     1     151.246 160.829 166.411  0.00  0.00    -0.307 N 
ATOM      7  C   UNL     1     152.614 161.249 166.730  0.00  0.00    +0.020 C 
ATOM      8  C   UNL     1     152.578 162.396 167.750  0.00  0.00    +0.057 C 
ATOM      9  O   UNL     1     151.932 163.539 167.185  0.00  0.00    -0.394 OA
ATOM     10  C   UNL     1     151.362 160.754 163.897  0.00  0.00    +0.029 C 
ATOM     11  C   UNL     1     151.046 159.934 162.715  0.00  0.00    -0.094 C 
ATOM     12  C   UNL     1     150.860 159.004 161.980  0.00  0.00    -0.046 C 
ATOM     13  C   UNL     1     150.730 157.647 161.557  0.00  0.00    +0.126 A 
ATOM     14  N   UNL     1     150.835 156.849 162.628  0.00  0.00    -0.205 NA
ATOM     15  C   UNL     1     150.720 155.545 162.447  0.00  0.00    +0.217 A 
ATOM     16  N   UNL     1     150.517 154.986 161.250  0.00  0.00    -0.214 NA
ATOM     17  C   UNL     1     150.429 155.800 160.181  0.00  0.00    +0.077 A 
ATOM     18  C   UNL     1     150.225 155.246 158.922  0.00  0.00    -0.036 A 
ATOM     19  C   UNL     1     150.117 156.036 157.771  0.00  0.00    -0.060 A 
ATOM     20  C   UNL     1     150.212 157.419 157.867  0.00  0.00    -0.061 A 
ATOM     21  C   UNL     1     150.416 158.005 159.112  0.00  0.00    -0.050 A 
ATOM     22  C   UNL     1     150.526 157.194 160.268  0.00  0.00    +0.034 A 
ATOM     23  N   UNL     1     150.787 154.710 163.556  0.00  0.00    -0.310 N 
ATOM     24  C   UNL     1     150.170 155.276 164.744  0.00  0.00    +0.031 C 
ATOM     25  C   UNL     1     151.156 155.219 165.872  0.00  0.00    -0.051 C 
ATOM     26  C   UNL     1     151.598 156.225 166.658  0.00  0.00    +0.033 C 
ATOM     27 CL   UNL     1     152.624 155.750 168.010  0.00  0.00    -0.087 Cl
ATOM     28  C   UNL     1     151.284 157.724 166.648  0.00  0.00    +0.060 C 
ATOM     29  S   UNL     1     149.466 157.871 166.949  0.00  0.00    -0.165 S 
ATOM     30  H   UNL     1     150.873 160.331 167.219  0.00  0.00    +0.000 HD
ATOM     31  H   UNL     1     150.736 161.683 166.184  0.00  0.00    +0.000 HD
ATOM     32  H   UNL     1     152.422 163.832 166.400  0.00  0.00    +0.000 HD
ATOM     33  H   UNL     1     151.212 153.822 163.539  0.00  0.00    +0.000 HD
ATOM     34  H   UNL     1     148.788 157.272 165.933  0.00  0.00    +0.000 HD
ENDROOT
TORSDOF 0
ENDMDL
MODEL 6
REMARK VINA RESULT:    -6.158     12.823     15.641
REMARK INTER + INTRA:          -6.158
REMARK INTER:                  -6.158
REMARK INTRA:                   0.000
REMARK UNBOUND:                 0.000
REMARK  Name = /home/vital/Documents/PhD_2021/Malaria_codes/scripts/../data/pdbqt_ligands/ligand_371_temp.pdb
REMARK                            x       y       z     vdW  Elec       q    Type
REMARK                         _______ _______ _______ _____ _____    ______ ____
ROOT
ATOM      1  C   UNL     1     154.600 159.887 166.013  0.00  0.00    -0.099 C 
ATOM      2  C   UNL     1     153.488 160.549 165.665  0.00  0.00    -0.069 C 
ATOM      3  C   UNL     1     152.697 160.188 164.511  0.00  0.00    -0.060 C 
ATOM      4  C   UNL     1     151.509 160.658 164.051  0.00  0.00    -0.034 C 
ATOM      5  C   UNL     1     151.008 160.140 162.665  0.00  0.00    +0.041 C 
ATOM      6  N   UNL     1     151.034 161.235 161.672  0.00  0.00    -0.307 N 
ATOM      7  C   UNL     1     152.362 161.771 161.361  0.00  0.00    +0.020 C 
ATOM      8  C   UNL     1     152.284 162.652 160.106  0.00  0.00    +0.057 C 
ATOM      9  O   UNL     1     151.896 161.868 158.976  0.00  0.00    -0.394 OA
ATOM     10  C   UNL     1     151.593 158.809 162.049  0.00  0.00    +0.029 C 
ATOM     11  C   UNL     1     151.398 157.671 162.962  0.00  0.00    -0.094 C 
ATOM     12  C   UNL     1     151.235 157.005 163.947  0.00  0.00    -0.046 C 
ATOM     13  C   UNL     1     151.017 156.695 165.324  0.00  0.00    +0.126 A 
ATOM     14  N   UNL     1     150.828 157.836 165.999  0.00  0.00    -0.205 NA
ATOM     15  C   UNL     1     150.588 157.760 167.297  0.00  0.00    +0.217 A 
ATOM     16  N   UNL     1     150.538 156.605 167.966  0.00  0.00    -0.214 NA
ATOM     17  C   UNL     1     150.746 155.467 167.277  0.00  0.00    +0.077 A 
ATOM     18  C   UNL     1     150.706 154.250 167.949  0.00  0.00    -0.036 A 
ATOM     19  C   UNL     1     150.906 153.031 167.290  0.00  0.00    -0.060 A 
ATOM     20  C   UNL     1     151.153 153.012 165.922  0.00  0.00    -0.061 A 
ATOM     21  C   UNL     1     151.198 154.212 165.221  0.00  0.00    -0.050 A 
ATOM     22  C   UNL     1     150.996 155.439 165.899  0.00  0.00    +0.034 A 
ATOM     23  N   UNL     1     150.351 158.935 168.000  0.00  0.00    -0.310 N 
ATOM     24  C   UNL     1     149.603 159.923 167.240  0.00  0.00    +0.031 C 
ATOM     25  C   UNL     1     150.354 161.220 167.268  0.00  0.00    -0.051 C 
ATOM     26  C   UNL     1     150.766 161.978 166.227  0.00  0.00    +0.033 C 
ATOM     27 CL   UNL     1     151.464 163.542 166.647  0.00  0.00    -0.087 Cl
ATOM     28  C   UNL     1     150.646 161.766 164.716  0.00  0.00    +0.060 C 
ATOM     29  S   UNL     1     148.836 161.695 164.348  0.00  0.00    -0.165 S 
ATOM     30  H   UNL     1     150.462 161.999 162.032  0.00  0.00    +0.000 HD
ATOM     31  H   UNL     1     150.683 160.834 160.802  0.00  0.00    +0.000 HD
ATOM     32  H   UNL     1     152.552 161.168 158.827  0.00  0.00    +0.000 HD
ATOM     33  H   UNL     1     150.659 159.084 168.923  0.00  0.00    +0.000 HD
ATOM     34  H   UNL     1     148.285 160.629 164.987  0.00  0.00    +0.000 HD
ENDROOT
TORSDOF 0
ENDMDL
MODEL 7
REMARK VINA RESULT:    -5.962     14.064     16.498
REMARK INTER + INTRA:          -5.962
REMARK INTER:                  -5.962
REMARK INTRA:                   0.000
REMARK UNBOUND:                 0.000
REMARK  Name = /home/vital/Documents/PhD_2021/Malaria_codes/scripts/../data/pdbqt_ligands/ligand_371_temp.pdb
REMARK                            x       y       z     vdW  Elec       q    Type
REMARK                         _______ _______ _______ _____ _____    ______ ____
ROOT
ATOM      1  C   UNL     1     154.920 160.520 164.904  0.00  0.00    -0.099 C 
ATOM      2  C   UNL     1     153.945 159.913 165.595  0.00  0.00    -0.069 C 
ATOM      3  C   UNL     1     152.586 160.404 165.617  0.00  0.00    -0.060 C 
ATOM      4  C   UNL     1     151.453 159.893 166.162  0.00  0.00    -0.034 C 
ATOM      5  C   UNL     1     150.165 160.778 166.131  0.00  0.00    +0.041 C 
ATOM      6  N   UNL     1     149.804 161.201 167.501  0.00  0.00    -0.307 N 
ATOM      7  C   UNL     1     150.780 162.065 168.170  0.00  0.00    +0.020 C 
ATOM      8  C   UNL     1     150.147 162.685 169.425  0.00  0.00    +0.057 C 
ATOM      9  O   UNL     1     149.052 163.528 169.060  0.00  0.00    -0.394 OA
ATOM     10  C   UNL     1     150.050 161.986 165.121  0.00  0.00    +0.029 C 
ATOM     11  C   UNL     1     150.222 161.533 163.731  0.00  0.00    -0.094 C 
ATOM     12  C   UNL     1     150.544 160.906 162.759  0.00  0.00    -0.046 C 
ATOM     13  C   UNL     1     151.108 159.847 161.986  0.00  0.00    +0.126 A 
ATOM     14  N   UNL     1     151.542 158.889 162.815  0.00  0.00    -0.205 NA
ATOM     15  C   UNL     1     152.083 157.805 162.286  0.00  0.00    +0.217 A 
ATOM     16  N   UNL     1     152.229 157.626 160.971  0.00  0.00    -0.214 NA
ATOM     17  C   UNL     1     151.802 158.604 160.150  0.00  0.00    +0.077 A 
ATOM     18  C   UNL     1     151.948 158.448 158.776  0.00  0.00    -0.036 A 
ATOM     19  C   UNL     1     151.519 159.424 157.868  0.00  0.00    -0.060 A 
ATOM     20  C   UNL     1     150.926 160.592 158.332  0.00  0.00    -0.061 A 
ATOM     21  C   UNL     1     150.765 160.779 159.701  0.00  0.00    -0.050 A 
ATOM     22  C   UNL     1     151.206 159.785 160.609  0.00  0.00    +0.034 A 
ATOM     23  N   UNL     1     152.501 156.787 163.136  0.00  0.00    -0.310 N 
ATOM     24  C   UNL     1     151.635 156.607 164.290  0.00  0.00    +0.031 C 
ATOM     25  C   UNL     1     152.476 156.645 165.531  0.00  0.00    -0.051 C 
ATOM     26  C   UNL     1     152.338 157.436 166.619  0.00  0.00    +0.033 C 
ATOM     27 CL   UNL     1     153.407 157.072 167.973  0.00  0.00    -0.087 Cl
ATOM     28  C   UNL     1     151.336 158.550 166.935  0.00  0.00    +0.060 C 
ATOM     29  S   UNL     1     149.664 157.760 166.913  0.00  0.00    -0.165 S 
ATOM     30  H   UNL     1     149.685 160.361 168.068  0.00  0.00    +0.000 HD
ATOM     31  H   UNL     1     148.953 161.757 167.408  0.00  0.00    +0.000 HD
ATOM     32  H   UNL     1     149.370 164.241 168.485  0.00  0.00    +0.000 HD
ATOM     33  H   UNL     1     153.304 156.242 162.972  0.00  0.00    +0.000 HD
ATOM     34  H   UNL     1     149.408 157.276 165.668  0.00  0.00    +0.000 HD
ENDROOT
TORSDOF 0
ENDMDL
MODEL 8
REMARK VINA RESULT:    -5.506      3.632      6.781
REMARK INTER + INTRA:          -5.506
REMARK INTER:                  -5.506
REMARK INTRA:                   0.000
REMARK UNBOUND:                 0.000
REMARK  Name = /home/vital/Documents/PhD_2021/Malaria_codes/scripts/../data/pdbqt_ligands/ligand_371_temp.pdb
REMARK                            x       y       z     vdW  Elec       q    Type
REMARK                         _______ _______ _______ _____ _____    ______ ____
ROOT
ATOM      1  C   UNL     1     142.139 147.995 167.429  0.00  0.00    -0.099 C 
ATOM      2  C   UNL     1     142.933 146.971 167.087  0.00  0.00    -0.069 C 
ATOM      3  C   UNL     1     142.506 145.922 166.190  0.00  0.00    -0.060 C 
ATOM      4  C   UNL     1     143.176 144.872 165.650  0.00  0.00    -0.034 C 
ATOM      5  C   UNL     1     142.352 143.826 164.831  0.00  0.00    +0.041 C 
ATOM      6  N   UNL     1     142.310 142.535 165.550  0.00  0.00    -0.307 N 
ATOM      7  C   UNL     1     141.619 142.556 166.842  0.00  0.00    +0.020 C 
ATOM      8  C   UNL     1     141.364 141.118 167.317  0.00  0.00    +0.057 C 
ATOM      9  O   UNL     1     140.490 140.446 166.408  0.00  0.00    -0.394 OA
ATOM     10  C   UNL     1     140.928 144.199 164.261  0.00  0.00    +0.029 C 
ATOM     11  C   UNL     1     141.000 145.382 163.387  0.00  0.00    -0.094 C 
ATOM     12  C   UNL     1     141.345 146.410 162.873  0.00  0.00    -0.046 C 
ATOM     13  C   UNL     1     142.150 147.558 162.602  0.00  0.00    +0.126 A 
ATOM     14  N   UNL     1     143.276 147.477 163.322  0.00  0.00    -0.205 NA
ATOM     15  C   UNL     1     144.169 148.443 163.193  0.00  0.00    +0.217 A 
ATOM     16  N   UNL     1     143.997 149.498 162.392  0.00  0.00    -0.214 NA
ATOM     17  C   UNL     1     142.853 149.574 161.686  0.00  0.00    +0.077 A 
ATOM     18  C   UNL     1     142.643 150.664 160.849  0.00  0.00    -0.036 A 
ATOM     19  C   UNL     1     141.480 150.800 160.082  0.00  0.00    -0.060 A 
ATOM     20  C   UNL     1     140.490 149.825 160.143  0.00  0.00    -0.061 A 
ATOM     21  C   UNL     1     140.669 148.722 160.971  0.00  0.00    -0.050 A 
ATOM     22  C   UNL     1     141.850 148.598 161.743  0.00  0.00    +0.034 A 
ATOM     23  N   UNL     1     145.359 148.349 163.905  0.00  0.00    -0.310 N 
ATOM     24  C   UNL     1     145.858 146.989 164.019  0.00  0.00    +0.031 C 
ATOM     25  C   UNL     1     146.117 146.691 165.466  0.00  0.00    -0.051 C 
ATOM     26  C   UNL     1     145.639 145.673 166.216  0.00  0.00    +0.033 C 
ATOM     27 CL   UNL     1     146.308 145.538 167.841  0.00  0.00    -0.087 Cl
ATOM     28  C   UNL     1     144.676 144.533 165.872  0.00  0.00    +0.060 C 
ATOM     29  S   UNL     1     145.484 143.568 164.518  0.00  0.00    -0.165 S 
ATOM     30  H   UNL     1     143.271 142.233 165.711  0.00  0.00    +0.000 HD
ATOM     31  H   UNL     1     141.775 141.900 164.956  0.00  0.00    +0.000 HD
ATOM     32  H   UNL     1     139.642 140.917 166.367  0.00  0.00    +0.000 HD
ATOM     33  H   UNL     1     145.818 149.128 164.295  0.00  0.00    +0.000 HD
ATOM     34  H   UNL     1     145.636 144.361 163.424  0.00  0.00    +0.000 HD
ENDROOT
TORSDOF 0
ENDMDL
