MODEL 1
REMARK VINA RESULT:    -7.355      0.000      0.000
REMARK INTER + INTRA:          -7.355
REMARK INTER:                  -7.355
REMARK INTRA:                   0.000
REMARK UNBOUND:                 0.000
REMARK  Name = /home/vital/Documents/PhD_2021/Malaria_codes/scripts/../data/pdbqt_ligands/ligand_301_temp.pdb
REMARK                            x       y       z     vdW  Elec       q    Type
REMARK                         _______ _______ _______ _____ _____    ______ ____
ROOT
ATOM      1  C1  UNL     1     152.227 156.867 162.047  0.00  0.00    -0.022 C 
ATOM      2  C2  UNL     1     151.974 157.756 160.866  0.00  0.00    +0.041 A 
ATOM      3  C3  UNL     1     151.427 157.230 159.704  0.00  0.00    -0.019 A 
ATOM      4  C4  UNL     1     151.211 158.053 158.594  0.00  0.00    +0.038 A 
ATOM      5  N1  UNL     1     150.636 157.565 157.413  0.00  0.00    -0.341 N 
ATOM      6  C5  UNL     1     150.533 156.139 157.076  0.00  0.00    +0.020 C 
ATOM      7  C6  UNL     1     149.523 155.993 155.935  0.00  0.00    -0.047 C 
ATOM      8  C7  UNL     1     151.907 155.519 156.753  0.00  0.00    -0.012 C 
ATOM      9  C8  UNL     1     152.656 156.121 155.570  0.00  0.00    +0.046 C 
ATOM     10  O1  UNL     1     152.051 155.733 154.345  0.00  0.00    -0.395 OA
ATOM     11  C9  UNL     1     151.482 159.444 158.746  0.00  0.00    +0.024 A 
ATOM     12  C10 UNL     1     151.225 160.418 157.749  0.00  0.00    -0.016 A 
ATOM     13  C11 UNL     1     151.535 161.756 157.958  0.00  0.00    +0.124 A 
ATOM     14  F1  UNL     1     151.283 162.652 156.995  0.00  0.00    -0.205 F 
ATOM     15  C12 UNL     1     152.099 162.171 159.150  0.00  0.00    -0.024 A 
ATOM     16  C13 UNL     1     152.345 161.227 160.145  0.00  0.00    -0.033 A 
ATOM     17  C14 UNL     1     152.042 159.882 159.971  0.00  0.00    +0.073 A 
ATOM     18  N2  UNL     1     152.296 159.059 160.995  0.00  0.00    -0.252 NA
ATOM     19  H   UNL     1     150.279 158.218 156.769  0.00  0.00    +0.000 HD
ATOM     20  H   UNL     1     152.075 154.766 154.265  0.00  0.00    +0.000 HD
ENDROOT
TORSDOF 0
ENDMDL
MODEL 2
REMARK VINA RESULT:    -7.178      3.231      5.169
REMARK INTER + INTRA:          -7.178
REMARK INTER:                  -7.178
REMARK INTRA:                   0.000
REMARK UNBOUND:                 0.000
REMARK  Name = /home/vital/Documents/PhD_2021/Malaria_codes/scripts/../data/pdbqt_ligands/ligand_301_temp.pdb
REMARK                            x       y       z     vdW  Elec       q    Type
REMARK                         _______ _______ _______ _____ _____    ______ ____
ROOT
ATOM      1  C1  UNL     1     151.479 160.780 158.911  0.00  0.00    -0.022 C 
ATOM      2  C2  UNL     1     151.493 159.387 158.356  0.00  0.00    +0.041 A 
ATOM      3  C3  UNL     1     150.967 158.338 159.098  0.00  0.00    -0.019 A 
ATOM      4  C4  UNL     1     150.999 157.035 158.592  0.00  0.00    +0.038 A 
ATOM      5  N1  UNL     1     150.455 155.954 159.298  0.00  0.00    -0.341 N 
ATOM      6  C5  UNL     1     150.133 155.985 160.730  0.00  0.00    +0.020 C 
ATOM      7  C6  UNL     1     149.220 154.796 161.038  0.00  0.00    -0.047 C 
ATOM      8  C7  UNL     1     151.401 156.020 161.608  0.00  0.00    -0.012 C 
ATOM      9  C8  UNL     1     152.346 154.832 161.472  0.00  0.00    +0.046 C 
ATOM     10  O1  UNL     1     151.794 153.680 162.091  0.00  0.00    -0.395 OA
ATOM     11  C9  UNL     1     151.496 156.857 157.267  0.00  0.00    +0.024 A 
ATOM     12  C10 UNL     1     151.503 155.618 156.580  0.00  0.00    -0.016 A 
ATOM     13  C11 UNL     1     152.023 155.514 155.295  0.00  0.00    +0.124 A 
ATOM     14  F1  UNL     1     152.019 154.328 154.674  0.00  0.00    -0.205 F 
ATOM     15  C12 UNL     1     152.543 156.622 154.654  0.00  0.00    -0.024 A 
ATOM     16  C13 UNL     1     152.529 157.851 155.311  0.00  0.00    -0.033 A 
ATOM     17  C14 UNL     1     152.012 157.992 156.594  0.00  0.00    +0.073 A 
ATOM     18  N2  UNL     1     152.025 159.218 157.129  0.00  0.00    -0.252 NA
ATOM     19  H   UNL     1     150.277 155.122 158.803  0.00  0.00    +0.000 HD
ATOM     20  H   UNL     1     151.655 153.856 163.035  0.00  0.00    +0.000 HD
ENDROOT
TORSDOF 0
ENDMDL
MODEL 3
REMARK VINA RESULT:    -7.069      2.935      4.524
REMARK INTER + INTRA:          -7.069
REMARK INTER:                  -7.069
REMARK INTRA:                   0.000
REMARK UNBOUND:                 0.000
REMARK  Name = /home/vital/Documents/PhD_2021/Malaria_codes/scripts/../data/pdbqt_ligands/ligand_301_temp.pdb
REMARK                            x       y       z     vdW  Elec       q    Type
REMARK                         _______ _______ _______ _____ _____    ______ ____
ROOT
ATOM      1  C1  UNL     1     151.449 155.494 155.047  0.00  0.00    -0.022 C 
ATOM      2  C2  UNL     1     151.457 156.323 156.297  0.00  0.00    +0.041 A 
ATOM      3  C3  UNL     1     151.533 155.709 157.539  0.00  0.00    -0.019 A 
ATOM      4  C4  UNL     1     151.519 156.479 158.705  0.00  0.00    +0.038 A 
ATOM      5  N1  UNL     1     151.620 155.898 159.976  0.00  0.00    -0.341 N 
ATOM      6  C5  UNL     1     151.396 154.472 160.250  0.00  0.00    +0.020 C 
ATOM      7  C6  UNL     1     151.970 154.158 161.633  0.00  0.00    -0.047 C 
ATOM      8  C7  UNL     1     149.911 154.082 160.105  0.00  0.00    -0.012 C 
ATOM      9  C8  UNL     1     148.935 154.791 161.037  0.00  0.00    +0.046 C 
ATOM     10  O1  UNL     1     149.067 154.302 162.364  0.00  0.00    -0.395 OA
ATOM     11  C9  UNL     1     151.523 157.897 158.556  0.00  0.00    +0.024 A 
ATOM     12  C10 UNL     1     151.607 158.810 159.636  0.00  0.00    -0.016 A 
ATOM     13  C11 UNL     1     151.584 160.182 159.417  0.00  0.00    +0.124 A 
ATOM     14  F1  UNL     1     151.661 161.020 160.459  0.00  0.00    -0.205 F 
ATOM     15  C12 UNL     1     151.485 160.690 158.136  0.00  0.00    -0.024 A 
ATOM     16  C13 UNL     1     151.417 159.804 157.062  0.00  0.00    -0.033 A 
ATOM     17  C14 UNL     1     151.442 158.427 157.244  0.00  0.00    +0.073 A 
ATOM     18  N2  UNL     1     151.394 157.661 156.148  0.00  0.00    -0.252 NA
ATOM     19  H   UNL     1     151.857 156.481 160.733  0.00  0.00    +0.000 HD
ATOM     20  H   UNL     1     148.872 153.352 162.380  0.00  0.00    +0.000 HD
ENDROOT
TORSDOF 0
ENDMDL
MODEL 4
REMARK VINA RESULT:    -6.533      3.131      4.374
REMARK INTER + INTRA:          -6.533
REMARK INTER:                  -6.533
REMARK INTRA:                   0.000
REMARK UNBOUND:                 0.000
REMARK  Name = /home/vital/Documents/PhD_2021/Malaria_codes/scripts/../data/pdbqt_ligands/ligand_301_temp.pdb
REMARK                            x       y       z     vdW  Elec       q    Type
REMARK                         _______ _______ _______ _____ _____    ______ ____
ROOT
ATOM      1  C1  UNL     1     151.448 157.408 155.645  0.00  0.00    -0.022 C 
ATOM      2  C2  UNL     1     151.457 157.770 157.100  0.00  0.00    +0.041 A 
ATOM      3  C3  UNL     1     151.535 156.774 158.064  0.00  0.00    -0.019 A 
ATOM      4  C4  UNL     1     151.521 157.109 159.421  0.00  0.00    +0.038 A 
ATOM      5  N1  UNL     1     151.625 156.135 160.423  0.00  0.00    -0.341 N 
ATOM      6  C5  UNL     1     151.403 154.700 160.203  0.00  0.00    +0.020 C 
ATOM      7  C6  UNL     1     151.979 153.941 161.401  0.00  0.00    -0.047 C 
ATOM      8  C7  UNL     1     149.919 154.378 159.937  0.00  0.00    -0.012 C 
ATOM      9  C8  UNL     1     148.943 154.732 161.054  0.00  0.00    +0.046 C 
ATOM     10  O1  UNL     1     149.077 153.827 162.140  0.00  0.00    -0.395 OA
ATOM     11  C9  UNL     1     151.524 158.495 159.756  0.00  0.00    +0.024 A 
ATOM     12  C10 UNL     1     151.608 158.993 161.080  0.00  0.00    -0.016 A 
ATOM     13  C11 UNL     1     151.583 160.359 161.333  0.00  0.00    +0.124 A 
ATOM     14  F1  UNL     1     151.660 160.798 162.596  0.00  0.00    -0.205 F 
ATOM     15  C12 UNL     1     151.482 161.268 160.297  0.00  0.00    -0.024 A 
ATOM     16  C13 UNL     1     151.414 160.792 158.988  0.00  0.00    -0.033 A 
ATOM     17  C14 UNL     1     151.440 159.434 158.698  0.00  0.00    +0.073 A 
ATOM     18  N2  UNL     1     151.392 159.080 157.408  0.00  0.00    -0.252 NA
ATOM     19  H   UNL     1     151.862 156.431 161.332  0.00  0.00    +0.000 HD
ATOM     20  H   UNL     1     148.883 152.927 161.836  0.00  0.00    +0.000 HD
ENDROOT
TORSDOF 0
ENDMDL
MODEL 5
REMARK VINA RESULT:    -6.324      7.833      9.901
REMARK INTER + INTRA:          -6.324
REMARK INTER:                  -6.324
REMARK INTRA:                   0.000
REMARK UNBOUND:                 0.000
REMARK  Name = /home/vital/Documents/PhD_2021/Malaria_codes/scripts/../data/pdbqt_ligands/ligand_301_temp.pdb
REMARK                            x       y       z     vdW  Elec       q    Type
REMARK                         _______ _______ _______ _____ _____    ______ ____
ROOT
ATOM      1  C1  UNL     1     153.750 161.429 170.016  0.00  0.00    -0.022 C 
ATOM      2  C2  UNL     1     153.104 160.757 168.842  0.00  0.00    +0.041 A 
ATOM      3  C3  UNL     1     152.619 161.515 167.785  0.00  0.00    -0.019 A 
ATOM      4  C4  UNL     1     151.997 160.891 166.700  0.00  0.00    +0.038 A 
ATOM      5  N1  UNL     1     151.519 161.620 165.603  0.00  0.00    -0.341 N 
ATOM      6  C5  UNL     1     151.289 163.070 165.615  0.00  0.00    +0.020 C 
ATOM      7  C6  UNL     1     151.152 163.542 164.166  0.00  0.00    -0.047 C 
ATOM      8  C7  UNL     1     150.084 163.458 166.496  0.00  0.00    -0.012 C 
ATOM      9  C8  UNL     1     148.735 162.878 166.085  0.00  0.00    +0.046 C 
ATOM     10  O1  UNL     1     148.251 163.521 164.915  0.00  0.00    -0.395 OA
ATOM     11  C9  UNL     1     151.975 159.466 166.686  0.00  0.00    +0.024 A 
ATOM     12  C10 UNL     1     151.470 158.688 165.615  0.00  0.00    -0.016 A 
ATOM     13  C11 UNL     1     151.462 157.300 165.679  0.00  0.00    +0.124 A 
ATOM     14  F1  UNL     1     150.974 156.593 164.652  0.00  0.00    -0.205 F 
ATOM     15  C12 UNL     1     151.952 156.642 166.792  0.00  0.00    -0.024 A 
ATOM     16  C13 UNL     1     152.466 157.394 167.848  0.00  0.00    -0.033 A 
ATOM     17  C14 UNL     1     152.494 158.783 167.814  0.00  0.00    +0.073 A 
ATOM     18  N2  UNL     1     153.028 159.411 168.868  0.00  0.00    -0.252 NA
ATOM     19  H   UNL     1     151.325 161.129 164.772  0.00  0.00    +0.000 HD
ATOM     20  H   UNL     1     148.138 164.468 165.090  0.00  0.00    +0.000 HD
ENDROOT
TORSDOF 0
ENDMDL
MODEL 6
REMARK VINA RESULT:    -6.173      6.704      8.480
REMARK INTER + INTRA:          -6.173
REMARK INTER:                  -6.173
REMARK INTRA:                   0.000
REMARK UNBOUND:                 0.000
REMARK  Name = /home/vital/Documents/PhD_2021/Malaria_codes/scripts/../data/pdbqt_ligands/ligand_301_temp.pdb
REMARK                            x       y       z     vdW  Elec       q    Type
REMARK                         _______ _______ _______ _____ _____    ______ ____
ROOT
ATOM      1  C1  UNL     1     147.902 162.561 166.695  0.00  0.00    -0.022 C 
ATOM      2  C2  UNL     1     149.371 162.293 166.568  0.00  0.00    +0.041 A 
ATOM      3  C3  UNL     1     149.944 162.135 165.313  0.00  0.00    -0.019 A 
ATOM      4  C4  UNL     1     151.310 161.863 165.194  0.00  0.00    +0.038 A 
ATOM      5  N1  UNL     1     151.929 161.723 163.945  0.00  0.00    -0.341 N 
ATOM      6  C5  UNL     1     151.205 161.491 162.688  0.00  0.00    +0.020 C 
ATOM      7  C6  UNL     1     152.160 161.783 161.529  0.00  0.00    -0.047 C 
ATOM      8  C7  UNL     1     150.590 160.079 162.627  0.00  0.00    -0.012 C 
ATOM      9  C8  UNL     1     151.571 158.913 162.704  0.00  0.00    +0.046 C 
ATOM     10  O1  UNL     1     152.296 158.790 161.489  0.00  0.00    -0.395 OA
ATOM     11  C9  UNL     1     152.085 161.855 166.391  0.00  0.00    +0.024 A 
ATOM     12  C10 UNL     1     153.492 161.691 166.426  0.00  0.00    -0.016 A 
ATOM     13  C11 UNL     1     154.181 161.673 167.633  0.00  0.00    +0.124 A 
ATOM     14  F1  UNL     1     155.510 161.512 167.633  0.00  0.00    -0.205 F 
ATOM     15  C12 UNL     1     153.508 161.818 168.831  0.00  0.00    -0.024 A 
ATOM     16  C13 UNL     1     152.125 161.995 168.811  0.00  0.00    -0.033 A 
ATOM     17  C14 UNL     1     151.406 162.024 167.623  0.00  0.00    +0.073 A 
ATOM     18  N2  UNL     1     150.085 162.221 167.709  0.00  0.00    -0.252 NA
ATOM     19  H   UNL     1     152.911 161.785 163.907  0.00  0.00    +0.000 HD
ATOM     20  H   UNL     1     151.679 158.625 160.760  0.00  0.00    +0.000 HD
ENDROOT
TORSDOF 0
ENDMDL
MODEL 7
REMARK VINA RESULT:    -6.140      6.618      9.205
REMARK INTER + INTRA:          -6.140
REMARK INTER:                  -6.140
REMARK INTRA:                   0.000
REMARK UNBOUND:                 0.000
REMARK  Name = /home/vital/Documents/PhD_2021/Malaria_codes/scripts/../data/pdbqt_ligands/ligand_301_temp.pdb
REMARK                            x       y       z     vdW  Elec       q    Type
REMARK                         _______ _______ _______ _____ _____    ______ ____
ROOT
ATOM      1  C1  UNL     1     147.555 151.565 166.051  0.00  0.00    -0.022 C 
ATOM      2  C2  UNL     1     148.435 152.462 165.234  0.00  0.00    +0.041 A 
ATOM      3  C3  UNL     1     149.511 153.109 165.827  0.00  0.00    -0.019 A 
ATOM      4  C4  UNL     1     150.320 153.962 165.071  0.00  0.00    +0.038 A 
ATOM      5  N1  UNL     1     151.431 154.612 165.626  0.00  0.00    -0.341 N 
ATOM      6  C5  UNL     1     151.659 154.765 167.069  0.00  0.00    +0.020 C 
ATOM      7  C6  UNL     1     153.121 155.162 167.279  0.00  0.00    -0.047 C 
ATOM      8  C7  UNL     1     150.663 155.751 167.711  0.00  0.00    -0.012 C 
ATOM      9  C8  UNL     1     150.697 157.181 167.183  0.00  0.00    +0.046 C 
ATOM     10  O1  UNL     1     151.860 157.856 167.642  0.00  0.00    -0.395 OA
ATOM     11  C9  UNL     1     150.052 154.055 163.674  0.00  0.00    +0.024 A 
ATOM     12  C10 UNL     1     150.840 154.798 162.760  0.00  0.00    -0.016 A 
ATOM     13  C11 UNL     1     150.506 154.861 161.412  0.00  0.00    +0.124 A 
ATOM     14  F1  UNL     1     151.268 155.576 160.575  0.00  0.00    -0.205 F 
ATOM     15  C12 UNL     1     149.397 154.194 160.929  0.00  0.00    -0.024 A 
ATOM     16  C13 UNL     1     148.621 153.445 161.813  0.00  0.00    -0.033 A 
ATOM     17  C14 UNL     1     148.929 153.357 163.165  0.00  0.00    +0.073 A 
ATOM     18  N2  UNL     1     148.134 152.596 163.927  0.00  0.00    -0.252 NA
ATOM     19  H   UNL     1     152.100 154.990 165.011  0.00  0.00    +0.000 HD
ATOM     20  H   UNL     1     151.854 157.886 168.611  0.00  0.00    +0.000 HD
ENDROOT
TORSDOF 0
ENDMDL
MODEL 8
REMARK VINA RESULT:    -6.118      1.797      2.310
REMARK INTER + INTRA:          -6.118
REMARK INTER:                  -6.118
REMARK INTRA:                   0.000
REMARK UNBOUND:                 0.000
REMARK  Name = /home/vital/Documents/PhD_2021/Malaria_codes/scripts/../data/pdbqt_ligands/ligand_301_temp.pdb
REMARK                            x       y       z     vdW  Elec       q    Type
REMARK                         _______ _______ _______ _____ _____    ______ ____
ROOT
ATOM      1  C1  UNL     1     151.779 154.014 161.889  0.00  0.00    -0.022 C 
ATOM      2  C2  UNL     1     151.527 155.355 161.267  0.00  0.00    +0.041 A 
ATOM      3  C3  UNL     1     151.101 155.440 159.949  0.00  0.00    -0.019 A 
ATOM      4  C4  UNL     1     150.886 156.690 159.361  0.00  0.00    +0.038 A 
ATOM      5  N1  UNL     1     150.431 156.817 158.042  0.00  0.00    -0.341 N 
ATOM      6  C5  UNL     1     150.472 155.737 157.048  0.00  0.00    +0.020 C 
ATOM      7  C6  UNL     1     149.554 156.123 155.887  0.00  0.00    -0.047 C 
ATOM      8  C7  UNL     1     151.913 155.415 156.602  0.00  0.00    -0.012 C 
ATOM      9  C8  UNL     1     152.681 156.553 155.937  0.00  0.00    +0.046 C 
ATOM     10  O1  UNL     1     152.189 156.786 154.625  0.00  0.00    -0.395 OA
ATOM     11  C9  UNL     1     151.025 157.840 160.192  0.00  0.00    +0.024 A 
ATOM     12  C10 UNL     1     150.747 159.164 159.771  0.00  0.00    -0.016 A 
ATOM     13  C11 UNL     1     150.927 160.241 160.630  0.00  0.00    +0.124 A 
ATOM     14  F1  UNL     1     150.659 161.481 160.201  0.00  0.00    -0.205 F 
ATOM     15  C12 UNL     1     151.377 160.046 161.922  0.00  0.00    -0.024 A 
ATOM     16  C13 UNL     1     151.640 158.747 162.355  0.00  0.00    -0.033 A 
ATOM     17  C14 UNL     1     151.467 157.647 161.524  0.00  0.00    +0.073 A 
ATOM     18  N2  UNL     1     151.725 156.440 162.041  0.00  0.00    -0.252 NA
ATOM     19  H   UNL     1     150.059 157.686 157.763  0.00  0.00    +0.000 HD
ATOM     20  H   UNL     1     152.302 155.985 154.090  0.00  0.00    +0.000 HD
ENDROOT
TORSDOF 0
ENDMDL
MODEL 9
REMARK VINA RESULT:    -6.021      7.592      9.567
REMARK INTER + INTRA:          -6.021
REMARK INTER:                  -6.021
REMARK INTRA:                   0.000
REMARK UNBOUND:                 0.000
REMARK  Name = /home/vital/Documents/PhD_2021/Malaria_codes/scripts/../data/pdbqt_ligands/ligand_301_temp.pdb
REMARK                            x       y       z     vdW  Elec       q    Type
REMARK                         _______ _______ _______ _____ _____    ______ ____
ROOT
ATOM      1  C1  UNL     1     154.494 160.652 169.728  0.00  0.00    -0.022 C 
ATOM      2  C2  UNL     1     153.139 160.647 169.086  0.00  0.00    +0.041 A 
ATOM      3  C3  UNL     1     152.610 159.465 168.586  0.00  0.00    -0.019 A 
ATOM      4  C4  UNL     1     151.356 159.463 167.968  0.00  0.00    +0.038 A 
ATOM      5  N1  UNL     1     150.778 158.286 167.475  0.00  0.00    -0.341 N 
ATOM      6  C5  UNL     1     151.522 157.045 167.224  0.00  0.00    +0.020 C 
ATOM      7  C6  UNL     1     150.511 155.907 167.074  0.00  0.00    -0.047 C 
ATOM      8  C7  UNL     1     152.474 157.175 166.017  0.00  0.00    -0.012 C 
ATOM      9  C8  UNL     1     151.821 157.487 164.675  0.00  0.00    +0.046 C 
ATOM     10  O1  UNL     1     151.136 156.347 164.176  0.00  0.00    -0.395 OA
ATOM     11  C9  UNL     1     150.622 160.685 167.968  0.00  0.00    +0.024 A 
ATOM     12  C10 UNL     1     149.303 160.820 167.469  0.00  0.00    -0.016 A 
ATOM     13  C11 UNL     1     148.655 162.050 167.481  0.00  0.00    +0.124 A 
ATOM     14  F1  UNL     1     147.409 162.146 166.999  0.00  0.00    -0.205 F 
ATOM     15  C12 UNL     1     149.283 163.173 167.986  0.00  0.00    -0.024 A 
ATOM     16  C13 UNL     1     150.576 163.052 168.493  0.00  0.00    -0.033 A 
ATOM     17  C14 UNL     1     151.251 161.837 168.501  0.00  0.00    +0.073 A 
ATOM     18  N2  UNL     1     152.480 161.822 169.031  0.00  0.00    -0.252 NA
ATOM     19  H   UNL     1     149.812 158.291 167.284  0.00  0.00    +0.000 HD
ATOM     20  H   UNL     1     151.767 155.621 164.050  0.00  0.00    +0.000 HD
ENDROOT
TORSDOF 0
ENDMDL
