MODEL 1
REMARK VINA RESULT:    -7.650      0.000      0.000
REMARK INTER + INTRA:          -7.650
REMARK INTER:                  -7.650
REMARK INTRA:                   0.000
REMARK UNBOUND:                 0.000
REMARK  Name = /home/vital/Documents/PhD_2021/Malaria_codes/scripts/../data/pdbqt_ligands/ligand_148_temp.pdb
REMARK                            x       y       z     vdW  Elec       q    Type
REMARK                         _______ _______ _______ _____ _____    ______ ____
ROOT
ATOM      1  C1  UNL     1     150.775 161.690 168.991  0.00  0.00    -0.049 C 
ATOM      2  C2  UNL     1     151.589 160.437 168.701  0.00  0.00    +0.009 C 
ATOM      3  N1  UNL     1     152.609 160.620 167.657  0.00  0.00    -0.329 N 
ATOM      4  C3  UNL     1     153.997 160.922 168.021  0.00  0.00    +0.009 C 
ATOM      5  C4  UNL     1     154.162 162.134 168.923  0.00  0.00    -0.049 C 
ATOM      6  C5  UNL     1     152.169 160.985 166.377  0.00  0.00    +0.051 A 
ATOM      7  C6  UNL     1     152.175 162.317 165.951  0.00  0.00    -0.037 A 
ATOM      8  C7  UNL     1     151.699 162.669 164.684  0.00  0.00    -0.039 A 
ATOM      9  C8  UNL     1     151.247 161.693 163.796  0.00  0.00    +0.026 A 
ATOM     10  N2  UNL     1     150.657 162.068 162.581  0.00  0.00    -0.358 N 
ATOM     11  C9  UNL     1     151.196 160.364 164.223  0.00  0.00    -0.018 A 
ATOM     12  C10 UNL     1     151.680 159.999 165.484  0.00  0.00    +0.057 A 
ATOM     13  N3  UNL     1     151.762 158.662 165.934  0.00  0.00    -0.280 N 
ATOM     14  C11 UNL     1     151.336 157.515 165.303  0.00  0.00    +0.248 C 
ATOM     15  O1  UNL     1     150.727 157.439 164.243  0.00  0.00    -0.270 OA
ATOM     16  C12 UNL     1     151.635 156.250 166.035  0.00  0.00    +0.038 A 
ATOM     17  C13 UNL     1     150.735 155.181 165.914  0.00  0.00    -0.050 A 
ATOM     18  C14 UNL     1     150.976 153.979 166.581  0.00  0.00    -0.060 A 
ATOM     19  C15 UNL     1     152.121 153.838 167.365  0.00  0.00    -0.043 A 
ATOM     20  C16 UNL     1     153.024 154.895 167.472  0.00  0.00    +0.042 A 
ATOM     21 CL1  UNL     1     154.443 154.710 168.428  0.00  0.00    -0.084 Cl
ATOM     22  C17 UNL     1     152.793 156.100 166.808  0.00  0.00    -0.031 A 
ATOM     23  H   UNL     1     150.696 163.006 162.284  0.00  0.00    +0.000 HD
ATOM     24  H   UNL     1     150.204 161.394 162.025  0.00  0.00    +0.000 HD
ATOM     25  H   UNL     1     152.179 158.534 166.816  0.00  0.00    +0.000 HD
ENDROOT
TORSDOF 0
ENDMDL
MODEL 2
REMARK VINA RESULT:    -7.321      4.231      7.424
REMARK INTER + INTRA:          -7.321
REMARK INTER:                  -7.321
REMARK INTRA:                   0.000
REMARK UNBOUND:                 0.000
REMARK  Name = /home/vital/Documents/PhD_2021/Malaria_codes/scripts/../data/pdbqt_ligands/ligand_148_temp.pdb
REMARK                            x       y       z     vdW  Elec       q    Type
REMARK                         _______ _______ _______ _____ _____    ______ ____
ROOT
ATOM      1  C1  UNL     1     147.857 153.366 165.004  0.00  0.00    -0.049 C 
ATOM      2  C2  UNL     1     148.860 153.643 163.893  0.00  0.00    +0.009 C 
ATOM      3  N1  UNL     1     150.248 153.766 164.363  0.00  0.00    -0.329 N 
ATOM      4  C3  UNL     1     151.153 152.614 164.312  0.00  0.00    +0.009 C 
ATOM      5  C4  UNL     1     150.630 151.370 165.011  0.00  0.00    -0.049 C 
ATOM      6  C5  UNL     1     150.535 154.790 165.277  0.00  0.00    +0.051 A 
ATOM      7  C6  UNL     1     150.590 154.550 166.654  0.00  0.00    -0.037 A 
ATOM      8  C7  UNL     1     150.842 155.590 167.555  0.00  0.00    -0.039 A 
ATOM      9  C8  UNL     1     151.089 156.884 167.099  0.00  0.00    +0.026 A 
ATOM     10  N2  UNL     1     151.215 157.938 168.013  0.00  0.00    -0.358 N 
ATOM     11  C9  UNL     1     150.995 157.147 165.730  0.00  0.00    -0.018 A 
ATOM     12  C10 UNL     1     150.755 156.113 164.819  0.00  0.00    +0.057 A 
ATOM     13  N3  UNL     1     150.760 156.289 163.417  0.00  0.00    -0.280 N 
ATOM     14  C11 UNL     1     150.910 157.452 162.696  0.00  0.00    +0.248 C 
ATOM     15  O1  UNL     1     150.998 158.589 163.143  0.00  0.00    -0.270 OA
ATOM     16  C12 UNL     1     150.930 157.274 161.216  0.00  0.00    +0.038 A 
ATOM     17  C13 UNL     1     150.400 158.295 160.414  0.00  0.00    -0.050 A 
ATOM     18  C14 UNL     1     150.399 158.170 159.024  0.00  0.00    -0.060 A 
ATOM     19  C15 UNL     1     150.935 157.028 158.429  0.00  0.00    -0.043 A 
ATOM     20  C16 UNL     1     151.477 156.021 159.226  0.00  0.00    +0.042 A 
ATOM     21 CL1  UNL     1     152.151 154.620 158.486  0.00  0.00    -0.084 Cl
ATOM     22  C17 UNL     1     151.484 156.136 160.616  0.00  0.00    -0.031 A 
ATOM     23  H   UNL     1     151.281 157.748 168.978  0.00  0.00    +0.000 HD
ATOM     24  H   UNL     1     151.238 158.868 167.693  0.00  0.00    +0.000 HD
ATOM     25  H   UNL     1     150.639 155.470 162.884  0.00  0.00    +0.000 HD
ENDROOT
TORSDOF 0
ENDMDL
MODEL 3
REMARK VINA RESULT:    -7.269      1.292      1.471
REMARK INTER + INTRA:          -7.269
REMARK INTER:                  -7.269
REMARK INTRA:                   0.000
REMARK UNBOUND:                 0.000
REMARK  Name = /home/vital/Documents/PhD_2021/Malaria_codes/scripts/../data/pdbqt_ligands/ligand_148_temp.pdb
REMARK                            x       y       z     vdW  Elec       q    Type
REMARK                         _______ _______ _______ _____ _____    ______ ____
ROOT
ATOM      1  C1  UNL     1     150.361 160.921 168.868  0.00  0.00    -0.049 C 
ATOM      2  C2  UNL     1     150.900 159.515 168.648  0.00  0.00    +0.009 C 
ATOM      3  N1  UNL     1     152.193 159.477 167.949  0.00  0.00    -0.329 N 
ATOM      4  C3  UNL     1     153.444 159.378 168.707  0.00  0.00    +0.009 C 
ATOM      5  C4  UNL     1     153.624 160.451 169.769  0.00  0.00    -0.049 C 
ATOM      6  C5  UNL     1     152.248 160.015 166.655  0.00  0.00    +0.051 A 
ATOM      7  C6  UNL     1     152.696 161.319 166.422  0.00  0.00    -0.037 A 
ATOM      8  C7  UNL     1     152.710 161.854 165.129  0.00  0.00    -0.039 A 
ATOM      9  C8  UNL     1     152.318 161.084 164.035  0.00  0.00    +0.026 A 
ATOM     10  N2  UNL     1     152.217 161.668 162.766  0.00  0.00    -0.358 N 
ATOM     11  C9  UNL     1     151.827 159.795 164.258  0.00  0.00    -0.018 A 
ATOM     12  C10 UNL     1     151.819 159.246 165.545  0.00  0.00    +0.057 A 
ATOM     13  N3  UNL     1     151.443 157.913 165.824  0.00  0.00    -0.280 N 
ATOM     14  C11 UNL     1     150.958 156.957 164.960  0.00  0.00    +0.248 C 
ATOM     15  O1  UNL     1     150.687 157.104 163.775  0.00  0.00    -0.270 OA
ATOM     16  C12 UNL     1     150.718 155.620 165.577  0.00  0.00    +0.038 A 
ATOM     17  C13 UNL     1     149.665 154.837 165.083  0.00  0.00    -0.050 A 
ATOM     18  C14 UNL     1     149.405 153.580 165.629  0.00  0.00    -0.060 A 
ATOM     19  C15 UNL     1     150.202 153.096 166.667  0.00  0.00    -0.043 A 
ATOM     20  C16 UNL     1     151.259 153.867 167.146  0.00  0.00    +0.042 A 
ATOM     21 CL1  UNL     1     152.250 153.259 168.416  0.00  0.00    -0.084 Cl
ATOM     22  C17 UNL     1     151.529 155.124 166.606  0.00  0.00    -0.031 A 
ATOM     23  H   UNL     1     152.564 162.577 162.613  0.00  0.00    +0.000 HD
ATOM     24  H   UNL     1     151.799 161.171 162.027  0.00  0.00    +0.000 HD
ATOM     25  H   UNL     1     151.541 157.630 166.762  0.00  0.00    +0.000 HD
ENDROOT
TORSDOF 0
ENDMDL
MODEL 4
REMARK VINA RESULT:    -7.232      4.304      6.628
REMARK INTER + INTRA:          -7.232
REMARK INTER:                  -7.232
REMARK INTRA:                   0.000
REMARK UNBOUND:                 0.000
REMARK  Name = /home/vital/Documents/PhD_2021/Malaria_codes/scripts/../data/pdbqt_ligands/ligand_148_temp.pdb
REMARK                            x       y       z     vdW  Elec       q    Type
REMARK                         _______ _______ _______ _____ _____    ______ ____
ROOT
ATOM      1  C1  UNL     1     149.022 159.388 159.857  0.00  0.00    -0.049 C 
ATOM      2  C2  UNL     1     150.087 159.629 160.917  0.00  0.00    +0.009 C 
ATOM      3  N1  UNL     1     151.383 159.005 160.611  0.00  0.00    -0.329 N 
ATOM      4  C3  UNL     1     152.449 159.783 159.973  0.00  0.00    +0.009 C 
ATOM      5  C4  UNL     1     152.044 160.461 158.675  0.00  0.00    -0.049 C 
ATOM      6  C5  UNL     1     151.416 157.610 160.477  0.00  0.00    +0.051 A 
ATOM      7  C6  UNL     1     151.357 156.991 159.224  0.00  0.00    -0.037 A 
ATOM      8  C7  UNL     1     151.354 155.597 159.110  0.00  0.00    -0.039 A 
ATOM      9  C8  UNL     1     151.455 154.789 160.242  0.00  0.00    +0.026 A 
ATOM     10  N2  UNL     1     151.324 153.399 160.126  0.00  0.00    -0.358 N 
ATOM     11  C9  UNL     1     151.470 155.392 161.502  0.00  0.00    -0.018 A 
ATOM     12  C10 UNL     1     151.485 156.785 161.628  0.00  0.00    +0.057 A 
ATOM     13  N3  UNL     1     151.615 157.458 162.864  0.00  0.00    -0.280 N 
ATOM     14  C11 UNL     1     151.668 156.925 164.132  0.00  0.00    +0.248 C 
ATOM     15  O1  UNL     1     151.538 155.747 164.442  0.00  0.00    -0.270 OA
ATOM     16  C12 UNL     1     151.874 157.922 165.222  0.00  0.00    +0.038 A 
ATOM     17  C13 UNL     1     151.287 157.673 166.472  0.00  0.00    -0.050 A 
ATOM     18  C14 UNL     1     151.455 158.579 167.520  0.00  0.00    -0.060 A 
ATOM     19  C15 UNL     1     152.214 159.733 167.327  0.00  0.00    -0.043 A 
ATOM     20  C16 UNL     1     152.811 159.971 166.090  0.00  0.00    +0.042 A 
ATOM     21 CL1  UNL     1     153.760 161.389 165.860  0.00  0.00    -0.084 Cl
ATOM     22  C17 UNL     1     152.651 159.072 165.035  0.00  0.00    -0.031 A 
ATOM     23  H   UNL     1     151.313 152.978 159.235  0.00  0.00    +0.000 HD
ATOM     24  H   UNL     1     151.243 152.843 160.934  0.00  0.00    +0.000 HD
ATOM     25  H   UNL     1     151.675 158.439 162.811  0.00  0.00    +0.000 HD
ENDROOT
TORSDOF 0
ENDMDL
MODEL 5
REMARK VINA RESULT:    -7.044     12.572     15.701
REMARK INTER + INTRA:          -7.044
REMARK INTER:                  -7.044
REMARK INTRA:                   0.000
REMARK UNBOUND:                 0.000
REMARK  Name = /home/vital/Documents/PhD_2021/Malaria_codes/scripts/../data/pdbqt_ligands/ligand_148_temp.pdb
REMARK                            x       y       z     vdW  Elec       q    Type
REMARK                         _______ _______ _______ _____ _____    ______ ____
ROOT
ATOM      1  C1  UNL     1     141.186 147.864 163.112  0.00  0.00    -0.049 C 
ATOM      2  C2  UNL     1     141.716 146.683 163.913  0.00  0.00    +0.009 C 
ATOM      3  N1  UNL     1     142.697 147.055 164.943  0.00  0.00    -0.329 N 
ATOM      4  C3  UNL     1     142.273 147.259 166.332  0.00  0.00    +0.009 C 
ATOM      5  C4  UNL     1     141.147 148.265 166.506  0.00  0.00    -0.049 C 
ATOM      6  C5  UNL     1     143.881 147.674 164.518  0.00  0.00    +0.051 A 
ATOM      7  C6  UNL     1     144.034 149.063 164.544  0.00  0.00    -0.037 A 
ATOM      8  C7  UNL     1     145.208 149.667 164.082  0.00  0.00    -0.039 A 
ATOM      9  C8  UNL     1     146.274 148.894 163.625  0.00  0.00    +0.026 A 
ATOM     10  N2  UNL     1     147.393 149.511 163.050  0.00  0.00    -0.358 N 
ATOM     11  C9  UNL     1     146.120 147.507 163.553  0.00  0.00    -0.018 A 
ATOM     12  C10 UNL     1     144.955 146.892 164.023  0.00  0.00    +0.057 A 
ATOM     13  N3  UNL     1     144.780 145.491 164.084  0.00  0.00    -0.280 N 
ATOM     14  C11 UNL     1     145.628 144.499 163.648  0.00  0.00    +0.248 C 
ATOM     15  O1  UNL     1     146.686 144.644 163.047  0.00  0.00    -0.270 OA
ATOM     16  C12 UNL     1     145.161 143.109 163.925  0.00  0.00    +0.038 A 
ATOM     17  C13 UNL     1     145.497 142.099 163.013  0.00  0.00    -0.050 A 
ATOM     18  C14 UNL     1     145.082 140.785 163.233  0.00  0.00    -0.060 A 
ATOM     19  C15 UNL     1     144.336 140.474 164.370  0.00  0.00    -0.043 A 
ATOM     20  C16 UNL     1     144.017 141.476 165.285  0.00  0.00    +0.042 A 
ATOM     21 CL1  UNL     1     143.109 141.084 166.695  0.00  0.00    -0.084 Cl
ATOM     22  C17 UNL     1     144.428 142.792 165.075  0.00  0.00    -0.031 A 
ATOM     23  H   UNL     1     147.497 150.489 163.103  0.00  0.00    +0.000 HD
ATOM     24  H   UNL     1     148.074 148.968 162.592  0.00  0.00    +0.000 HD
ATOM     25  H   UNL     1     143.939 145.184 164.493  0.00  0.00    +0.000 HD
ENDROOT
TORSDOF 0
ENDMDL
MODEL 6
REMARK VINA RESULT:    -6.907      4.868      6.991
REMARK INTER + INTRA:          -6.907
REMARK INTER:                  -6.907
REMARK INTRA:                   0.000
REMARK UNBOUND:                 0.000
REMARK  Name = /home/vital/Documents/PhD_2021/Malaria_codes/scripts/../data/pdbqt_ligands/ligand_148_temp.pdb
REMARK                            x       y       z     vdW  Elec       q    Type
REMARK                         _______ _______ _______ _____ _____    ______ ____
ROOT
ATOM      1  C1  UNL     1     154.200 157.114 164.811  0.00  0.00    -0.049 C 
ATOM      2  C2  UNL     1     153.261 157.575 163.706  0.00  0.00    +0.009 C 
ATOM      3  N1  UNL     1     151.900 157.881 164.171  0.00  0.00    -0.329 N 
ATOM      4  C3  UNL     1     151.517 159.260 164.488  0.00  0.00    +0.009 C 
ATOM      5  C4  UNL     1     152.421 159.950 165.497  0.00  0.00    -0.049 C 
ATOM      6  C5  UNL     1     151.167 156.841 164.761  0.00  0.00    +0.051 A 
ATOM      7  C6  UNL     1     151.097 156.688 166.149  0.00  0.00    -0.037 A 
ATOM      8  C7  UNL     1     150.392 155.624 166.720  0.00  0.00    -0.039 A 
ATOM      9  C8  UNL     1     149.703 154.714 165.919  0.00  0.00    +0.026 A 
ATOM     10  N2  UNL     1     149.106 153.584 166.495  0.00  0.00    -0.358 N 
ATOM     11  C9  UNL     1     149.799 154.830 164.530  0.00  0.00    -0.018 A 
ATOM     12  C10 UNL     1     150.492 155.896 163.948  0.00  0.00    +0.057 A 
ATOM     13  N3  UNL     1     150.533 156.136 162.556  0.00  0.00    -0.280 N 
ATOM     14  C11 UNL     1     150.004 155.377 161.537  0.00  0.00    +0.248 C 
ATOM     15  O1  UNL     1     149.448 154.290 161.639  0.00  0.00    -0.270 OA
ATOM     16  C12 UNL     1     150.174 155.956 160.173  0.00  0.00    +0.038 A 
ATOM     17  C13 UNL     1     150.332 155.077 159.091  0.00  0.00    -0.050 A 
ATOM     18  C14 UNL     1     150.494 155.575 157.797  0.00  0.00    -0.060 A 
ATOM     19  C15 UNL     1     150.490 156.952 157.578  0.00  0.00    -0.043 A 
ATOM     20  C16 UNL     1     150.316 157.825 158.651  0.00  0.00    +0.042 A 
ATOM     21 CL1  UNL     1     150.297 159.524 158.373  0.00  0.00    -0.084 Cl
ATOM     22  C17 UNL     1     150.152 157.338 159.948  0.00  0.00    -0.031 A 
ATOM     23  H   UNL     1     149.041 153.507 167.474  0.00  0.00    +0.000 HD
ATOM     24  H   UNL     1     148.753 152.868 165.920  0.00  0.00    +0.000 HD
ATOM     25  H   UNL     1     151.003 156.955 162.279  0.00  0.00    +0.000 HD
ENDROOT
TORSDOF 0
ENDMDL
MODEL 7
REMARK VINA RESULT:    -6.628      4.175      6.940
REMARK INTER + INTRA:          -6.628
REMARK INTER:                  -6.628
REMARK INTRA:                   0.000
REMARK UNBOUND:                 0.000
REMARK  Name = /home/vital/Documents/PhD_2021/Malaria_codes/scripts/../data/pdbqt_ligands/ligand_148_temp.pdb
REMARK                            x       y       z     vdW  Elec       q    Type
REMARK                         _______ _______ _______ _____ _____    ______ ____
ROOT
ATOM      1  C1  UNL     1     153.451 156.359 166.624  0.00  0.00    -0.049 C 
ATOM      2  C2  UNL     1     152.650 157.125 165.581  0.00  0.00    +0.009 C 
ATOM      3  N1  UNL     1     151.196 157.074 165.792  0.00  0.00    -0.329 N 
ATOM      4  C3  UNL     1     150.509 158.160 166.498  0.00  0.00    +0.009 C 
ATOM      5  C4  UNL     1     151.076 158.476 167.872  0.00  0.00    -0.049 C 
ATOM      6  C5  UNL     1     150.581 155.814 165.764  0.00  0.00    +0.051 A 
ATOM      7  C6  UNL     1     150.299 155.108 166.938  0.00  0.00    -0.037 A 
ATOM      8  C7  UNL     1     149.718 153.837 166.891  0.00  0.00    -0.039 A 
ATOM      9  C8  UNL     1     149.364 153.260 165.672  0.00  0.00    +0.026 A 
ATOM     10  N2  UNL     1     148.900 151.938 165.629  0.00  0.00    -0.358 N 
ATOM     11  C9  UNL     1     149.679 153.934 164.489  0.00  0.00    -0.018 A 
ATOM     12  C10 UNL     1     150.249 155.211 164.525  0.00  0.00    +0.057 A 
ATOM     13  N3  UNL     1     150.487 155.994 163.372  0.00  0.00    -0.280 N 
ATOM     14  C11 UNL     1     150.298 155.659 162.051  0.00  0.00    +0.248 C 
ATOM     15  O1  UNL     1     149.949 154.571 161.609  0.00  0.00    -0.270 OA
ATOM     16  C12 UNL     1     150.593 156.752 161.080  0.00  0.00    +0.038 A 
ATOM     17  C13 UNL     1     151.101 156.404 159.819  0.00  0.00    -0.050 A 
ATOM     18  C14 UNL     1     151.390 157.394 158.880  0.00  0.00    -0.060 A 
ATOM     19  C15 UNL     1     151.165 158.735 159.192  0.00  0.00    -0.043 A 
ATOM     20  C16 UNL     1     150.644 159.079 160.438  0.00  0.00    +0.042 A 
ATOM     21 CL1  UNL     1     150.354 160.733 160.814  0.00  0.00    -0.084 Cl
ATOM     22  C17 UNL     1     150.351 158.097 161.385  0.00  0.00    -0.031 A 
ATOM     23  H   UNL     1     148.680 151.467 166.465  0.00  0.00    +0.000 HD
ATOM     24  H   UNL     1     148.794 151.481 164.764  0.00  0.00    +0.000 HD
ATOM     25  H   UNL     1     150.836 156.899 163.537  0.00  0.00    +0.000 HD
ENDROOT
TORSDOF 0
ENDMDL
MODEL 8
REMARK VINA RESULT:    -6.618      4.768      6.491
REMARK INTER + INTRA:          -6.618
REMARK INTER:                  -6.618
REMARK INTRA:                   0.000
REMARK UNBOUND:                 0.000
REMARK  Name = /home/vital/Documents/PhD_2021/Malaria_codes/scripts/../data/pdbqt_ligands/ligand_148_temp.pdb
REMARK                            x       y       z     vdW  Elec       q    Type
REMARK                         _______ _______ _______ _____ _____    ______ ____
ROOT
ATOM      1  C1  UNL     1     148.724 159.610 159.696  0.00  0.00    -0.049 C 
ATOM      2  C2  UNL     1     149.600 159.280 160.896  0.00  0.00    +0.009 C 
ATOM      3  N1  UNL     1     151.004 159.012 160.551  0.00  0.00    -0.329 N 
ATOM      4  C3  UNL     1     152.008 160.075 160.648  0.00  0.00    +0.009 C 
ATOM      5  C4  UNL     1     151.666 161.338 159.874  0.00  0.00    -0.049 C 
ATOM      6  C5  UNL     1     151.267 157.934 159.692  0.00  0.00    +0.051 A 
ATOM      7  C6  UNL     1     151.459 158.119 158.320  0.00  0.00    -0.037 A 
ATOM      8  C7  UNL     1     151.684 157.030 157.472  0.00  0.00    -0.039 A 
ATOM      9  C8  UNL     1     151.767 155.735 157.982  0.00  0.00    +0.026 A 
ATOM     10  N2  UNL     1     151.867 154.642 157.110  0.00  0.00    -0.358 N 
ATOM     11  C9  UNL     1     151.535 155.531 159.344  0.00  0.00    -0.018 A 
ATOM     12  C10 UNL     1     151.320 156.613 160.204  0.00  0.00    +0.057 A 
ATOM     13  N3  UNL     1     151.191 156.487 161.605  0.00  0.00    -0.280 N 
ATOM     14  C11 UNL     1     151.170 155.340 162.367  0.00  0.00    +0.248 C 
ATOM     15  O1  UNL     1     151.185 154.185 161.960  0.00  0.00    -0.270 OA
ATOM     16  C12 UNL     1     151.084 155.568 163.838  0.00  0.00    +0.038 A 
ATOM     17  C13 UNL     1     150.393 154.629 164.619  0.00  0.00    -0.050 A 
ATOM     18  C14 UNL     1     150.289 154.802 165.999  0.00  0.00    -0.060 A 
ATOM     19  C15 UNL     1     150.880 155.909 166.607  0.00  0.00    -0.043 A 
ATOM     20  C16 UNL     1     151.581 156.833 165.833  0.00  0.00    +0.042 A 
ATOM     21 CL1  UNL     1     152.322 158.190 166.590  0.00  0.00    -0.084 Cl
ATOM     22  C17 UNL     1     151.692 156.669 164.453  0.00  0.00    -0.031 A 
ATOM     23  H   UNL     1     152.031 154.792 156.151  0.00  0.00    +0.000 HD
ATOM     24  H   UNL     1     151.773 153.726 157.457  0.00  0.00    +0.000 HD
ATOM     25  H   UNL     1     151.106 157.331 162.103  0.00  0.00    +0.000 HD
ENDROOT
TORSDOF 0
ENDMDL
MODEL 9
REMARK VINA RESULT:    -6.199      3.143      5.297
REMARK INTER + INTRA:          -6.199
REMARK INTER:                  -6.199
REMARK INTRA:                   0.000
REMARK UNBOUND:                 0.000
REMARK  Name = /home/vital/Documents/PhD_2021/Malaria_codes/scripts/../data/pdbqt_ligands/ligand_148_temp.pdb
REMARK                            x       y       z     vdW  Elec       q    Type
REMARK                         _______ _______ _______ _____ _____    ______ ____
ROOT
ATOM      1  C1  UNL     1     149.905 157.657 168.032  0.00  0.00    -0.049 C 
ATOM      2  C2  UNL     1     150.404 157.444 166.610  0.00  0.00    +0.009 C 
ATOM      3  N1  UNL     1     151.825 157.772 166.423  0.00  0.00    -0.329 N 
ATOM      4  C3  UNL     1     152.844 156.719 166.483  0.00  0.00    +0.009 C 
ATOM      5  C4  UNL     1     152.815 155.887 167.755  0.00  0.00    -0.049 C 
ATOM      6  C5  UNL     1     152.226 159.091 166.677  0.00  0.00    +0.051 A 
ATOM      7  C6  UNL     1     152.789 159.464 167.902  0.00  0.00    -0.037 A 
ATOM      8  C7  UNL     1     153.150 160.791 168.153  0.00  0.00    -0.039 A 
ATOM      9  C8  UNL     1     152.998 161.769 167.171  0.00  0.00    +0.026 A 
ATOM     10  N2  UNL     1     153.244 163.114 167.476  0.00  0.00    -0.358 N 
ATOM     11  C9  UNL     1     152.397 161.420 165.959  0.00  0.00    -0.018 A 
ATOM     12  C10 UNL     1     152.043 160.093 165.692  0.00  0.00    +0.057 A 
ATOM     13  N3  UNL     1     151.537 159.653 164.448  0.00  0.00    -0.280 N 
ATOM     14  C11 UNL     1     151.229 160.399 163.333  0.00  0.00    +0.248 C 
ATOM     15  O1  UNL     1     151.265 161.619 163.229  0.00  0.00    -0.270 OA
ATOM     16  C12 UNL     1     150.772 159.605 162.156  0.00  0.00    +0.038 A 
ATOM     17  C13 UNL     1     149.831 160.179 161.289  0.00  0.00    -0.050 A 
ATOM     18  C14 UNL     1     149.376 159.472 160.175  0.00  0.00    -0.060 A 
ATOM     19  C15 UNL     1     149.865 158.192 159.918  0.00  0.00    -0.043 A 
ATOM     20  C16 UNL     1     150.813 157.628 160.771  0.00  0.00    +0.042 A 
ATOM     21 CL1  UNL     1     151.425 156.053 160.442  0.00  0.00    -0.084 Cl
ATOM     22  C17 UNL     1     151.275 158.326 161.887  0.00  0.00    -0.031 A 
ATOM     23  H   UNL     1     153.668 163.355 168.332  0.00  0.00    +0.000 HD
ATOM     24  H   UNL     1     152.994 163.818 166.835  0.00  0.00    +0.000 HD
ATOM     25  H   UNL     1     151.386 158.684 164.369  0.00  0.00    +0.000 HD
ENDROOT
TORSDOF 0
ENDMDL
