MODEL 1
REMARK VINA RESULT:    -7.670      0.000      0.000
REMARK INTER + INTRA:          -7.670
REMARK INTER:                  -7.670
REMARK INTRA:                   0.000
REMARK UNBOUND:                 0.000
REMARK  Name = /home/vital/Documents/PhD_2021/Malaria_codes/scripts/../data/pdbqt_ligands/ligand_156_temp.pdb
REMARK                            x       y       z     vdW  Elec       q    Type
REMARK                         _______ _______ _______ _____ _____    ______ ____
ROOT
ATOM      1  C   UNL     1     151.697 154.566 159.278  0.00  0.00    -0.046 C 
ATOM      2  C   UNL     1     150.875 155.664 158.592  0.00  0.00    +0.030 C 
ATOM      3  N   UNL     1     151.114 156.931 159.297  0.00  0.00    -0.306 N 
ATOM      4  C   UNL     1     150.196 157.989 158.879  0.00  0.00    +0.023 C 
ATOM      5  C   UNL     1     150.445 159.251 159.674  0.00  0.00    -0.012 A 
ATOM      6  C   UNL     1     149.690 159.482 160.840  0.00  0.00    -0.056 A 
ATOM      7  C   UNL     1     149.889 160.630 161.611  0.00  0.00    -0.058 A 
ATOM      8  C   UNL     1     150.850 161.564 161.237  0.00  0.00    -0.019 A 
ATOM      9  C   UNL     1     151.614 161.340 160.098  0.00  0.00    +0.135 A 
ATOM     10  O   UNL     1     152.554 162.287 159.784  0.00  0.00    -0.505 OA
ATOM     11  C   UNL     1     151.426 160.191 159.316  0.00  0.00    +0.087 A 
ATOM     12 CL   UNL     1     152.437 159.966 157.928  0.00  0.00    -0.079 Cl
ATOM     13  C   UNL     1     151.194 155.735 157.107  0.00  0.00    -0.031 A 
ATOM     14  C   UNL     1     152.485 156.030 156.639  0.00  0.00    -0.057 A 
ATOM     15  C   UNL     1     152.749 156.103 155.270  0.00  0.00    -0.061 A 
ATOM     16  C   UNL     1     151.727 155.880 154.350  0.00  0.00    -0.062 A 
ATOM     17  C   UNL     1     150.442 155.586 154.797  0.00  0.00    -0.061 A 
ATOM     18  C   UNL     1     150.176 155.514 156.166  0.00  0.00    -0.057 A 
ATOM     19  H   UNL     1     152.069 157.235 159.108  0.00  0.00    +0.000 HD
ATOM     20  H   UNL     1     150.961 156.765 160.292  0.00  0.00    +0.000 HD
ATOM     21  H   UNL     1     152.656 163.044 160.327  0.00  0.00    +0.000 HD
ENDROOT
TORSDOF 0
ENDMDL
MODEL 2
REMARK VINA RESULT:    -7.179      3.749      4.774
REMARK INTER + INTRA:          -7.179
REMARK INTER:                  -7.179
REMARK INTRA:                   0.000
REMARK UNBOUND:                 0.000
REMARK  Name = /home/vital/Documents/PhD_2021/Malaria_codes/scripts/../data/pdbqt_ligands/ligand_156_temp.pdb
REMARK                            x       y       z     vdW  Elec       q    Type
REMARK                         _______ _______ _______ _____ _____    ______ ____
ROOT
ATOM      1  C   UNL     1     149.807 159.300 158.031  0.00  0.00    -0.046 C 
ATOM      2  C   UNL     1     150.844 158.217 158.352  0.00  0.00    +0.030 C 
ATOM      3  N   UNL     1     150.477 157.584 159.626  0.00  0.00    -0.306 N 
ATOM      4  C   UNL     1     151.528 156.710 160.143  0.00  0.00    +0.023 C 
ATOM      5  C   UNL     1     151.124 156.131 161.481  0.00  0.00    -0.012 A 
ATOM      6  C   UNL     1     151.523 156.794 162.658  0.00  0.00    -0.056 A 
ATOM      7  C   UNL     1     151.170 156.302 163.917  0.00  0.00    -0.058 A 
ATOM      8  C   UNL     1     150.403 155.145 164.023  0.00  0.00    -0.019 A 
ATOM      9  C   UNL     1     149.988 154.491 162.869  0.00  0.00    +0.135 A 
ATOM     10  O   UNL     1     149.226 153.364 163.034  0.00  0.00    -0.505 OA
ATOM     11  C   UNL     1     150.335 154.975 161.601  0.00  0.00    +0.087 A 
ATOM     12 CL   UNL     1     149.754 154.124 160.208  0.00  0.00    -0.079 Cl
ATOM     13  C   UNL     1     150.969 157.227 157.204  0.00  0.00    -0.031 A 
ATOM     14  C   UNL     1     149.882 156.444 156.780  0.00  0.00    -0.057 A 
ATOM     15  C   UNL     1     150.026 155.532 155.733  0.00  0.00    -0.061 A 
ATOM     16  C   UNL     1     151.256 155.390 155.095  0.00  0.00    -0.062 A 
ATOM     17  C   UNL     1     152.343 156.157 155.503  0.00  0.00    -0.061 A 
ATOM     18  C   UNL     1     152.201 157.070 156.551  0.00  0.00    -0.057 A 
ATOM     19  H   UNL     1     149.633 157.031 159.484  0.00  0.00    +0.000 HD
ATOM     20  H   UNL     1     150.330 158.328 160.309  0.00  0.00    +0.000 HD
ATOM     21  H   UNL     1     149.010 153.066 163.896  0.00  0.00    +0.000 HD
ENDROOT
TORSDOF 0
ENDMDL
MODEL 3
REMARK VINA RESULT:    -6.839     13.511     15.996
REMARK INTER + INTRA:          -6.839
REMARK INTER:                  -6.839
REMARK INTRA:                   0.000
REMARK UNBOUND:                 0.000
REMARK  Name = /home/vital/Documents/PhD_2021/Malaria_codes/scripts/../data/pdbqt_ligands/ligand_156_temp.pdb
REMARK                            x       y       z     vdW  Elec       q    Type
REMARK                         _______ _______ _______ _____ _____    ______ ____
ROOT
ATOM      1  C   UNL     1     142.139 148.765 165.392  0.00  0.00    -0.046 C 
ATOM      2  C   UNL     1     143.422 148.238 166.043  0.00  0.00    +0.030 C 
ATOM      3  N   UNL     1     143.606 146.837 165.640  0.00  0.00    -0.306 N 
ATOM      4  C   UNL     1     144.663 146.167 166.395  0.00  0.00    +0.023 C 
ATOM      5  C   UNL     1     144.772 144.716 165.984  0.00  0.00    -0.012 A 
ATOM      6  C   UNL     1     144.060 143.746 166.714  0.00  0.00    -0.056 A 
ATOM      7  C   UNL     1     144.122 142.394 166.369  0.00  0.00    -0.058 A 
ATOM      8  C   UNL     1     144.890 141.987 165.281  0.00  0.00    -0.019 A 
ATOM      9  C   UNL     1     145.584 142.937 164.540  0.00  0.00    +0.135 A 
ATOM     10  O   UNL     1     146.313 142.481 163.473  0.00  0.00    -0.505 OA
ATOM     11  C   UNL     1     145.528 144.297 164.876  0.00  0.00    +0.087 A 
ATOM     12 CL   UNL     1     146.394 145.425 163.887  0.00  0.00    -0.079 Cl
ATOM     13  C   UNL     1     144.611 149.122 165.698  0.00  0.00    -0.031 A 
ATOM     14  C   UNL     1     145.035 149.307 164.372  0.00  0.00    -0.057 A 
ATOM     15  C   UNL     1     146.137 150.113 164.082  0.00  0.00    -0.061 A 
ATOM     16  C   UNL     1     146.830 150.746 165.111  0.00  0.00    -0.062 A 
ATOM     17  C   UNL     1     146.422 150.572 166.431  0.00  0.00    -0.061 A 
ATOM     18  C   UNL     1     145.320 149.766 166.723  0.00  0.00    -0.057 A 
ATOM     19  H   UNL     1     143.847 146.811 164.649  0.00  0.00    +0.000 HD
ATOM     20  H   UNL     1     142.733 146.344 165.828  0.00  0.00    +0.000 HD
ATOM     21  H   UNL     1     146.330 141.566 163.274  0.00  0.00    +0.000 HD
ENDROOT
TORSDOF 0
ENDMDL
MODEL 4
REMARK VINA RESULT:    -6.741      7.904     10.042
REMARK INTER + INTRA:          -6.741
REMARK INTER:                  -6.741
REMARK INTRA:                   0.000
REMARK UNBOUND:                 0.000
REMARK  Name = /home/vital/Documents/PhD_2021/Malaria_codes/scripts/../data/pdbqt_ligands/ligand_156_temp.pdb
REMARK                            x       y       z     vdW  Elec       q    Type
REMARK                         _______ _______ _______ _____ _____    ______ ____
ROOT
ATOM      1  C   UNL     1     151.047 159.971 168.899  0.00  0.00    -0.046 C 
ATOM      2  C   UNL     1     152.009 159.249 167.948  0.00  0.00    +0.030 C 
ATOM      3  N   UNL     1     151.585 157.846 167.835  0.00  0.00    -0.306 N 
ATOM      4  C   UNL     1     152.571 157.014 167.149  0.00  0.00    +0.023 C 
ATOM      5  C   UNL     1     152.114 155.573 167.111  0.00  0.00    -0.012 A 
ATOM      6  C   UNL     1     152.538 154.697 168.129  0.00  0.00    -0.056 A 
ATOM      7  C   UNL     1     152.137 153.359 168.142  0.00  0.00    -0.058 A 
ATOM      8  C   UNL     1     151.297 152.873 167.144  0.00  0.00    -0.019 A 
ATOM      9  C   UNL     1     150.857 153.731 166.143  0.00  0.00    +0.135 A 
ATOM     10  O   UNL     1     150.022 153.202 165.193  0.00  0.00    -0.505 OA
ATOM     11  C   UNL     1     151.251 155.076 166.120  0.00  0.00    +0.087 A 
ATOM     12 CL   UNL     1     150.636 156.093 164.859  0.00  0.00    -0.079 Cl
ATOM     13  C   UNL     1     152.085 159.962 166.607  0.00  0.00    -0.031 A 
ATOM     14  C   UNL     1     150.957 160.117 165.785  0.00  0.00    -0.057 A 
ATOM     15  C   UNL     1     151.056 160.763 164.551  0.00  0.00    -0.061 A 
ATOM     16  C   UNL     1     152.283 161.264 164.123  0.00  0.00    -0.062 A 
ATOM     17  C   UNL     1     153.411 161.119 164.925  0.00  0.00    -0.061 A 
ATOM     18  C   UNL     1     153.314 160.471 166.159  0.00  0.00    -0.057 A 
ATOM     19  H   UNL     1     150.709 157.811 167.314  0.00  0.00    +0.000 HD
ATOM     20  H   UNL     1     151.476 157.479 168.781  0.00  0.00    +0.000 HD
ATOM     21  H   UNL     1     149.777 152.299 165.236  0.00  0.00    +0.000 HD
ENDROOT
TORSDOF 0
ENDMDL
MODEL 5
REMARK VINA RESULT:    -6.611      5.253      7.729
REMARK INTER + INTRA:          -6.611
REMARK INTER:                  -6.611
REMARK INTRA:                   0.000
REMARK UNBOUND:                 0.000
REMARK  Name = /home/vital/Documents/PhD_2021/Malaria_codes/scripts/../data/pdbqt_ligands/ligand_156_temp.pdb
REMARK                            x       y       z     vdW  Elec       q    Type
REMARK                         _______ _______ _______ _____ _____    ______ ____
ROOT
ATOM      1  C   UNL     1     147.715 153.104 164.135  0.00  0.00    -0.046 C 
ATOM      2  C   UNL     1     149.228 153.131 163.893  0.00  0.00    +0.030 C 
ATOM      3  N   UNL     1     149.510 154.097 162.821  0.00  0.00    -0.306 N 
ATOM      4  C   UNL     1     150.890 154.023 162.346  0.00  0.00    +0.023 C 
ATOM      5  C   UNL     1     151.111 154.993 161.207  0.00  0.00    -0.012 A 
ATOM      6  C   UNL     1     150.956 154.537 159.884  0.00  0.00    -0.056 A 
ATOM      7  C   UNL     1     151.143 155.396 158.799  0.00  0.00    -0.058 A 
ATOM      8  C   UNL     1     151.478 156.730 159.015  0.00  0.00    -0.019 A 
ATOM      9  C   UNL     1     151.617 157.197 160.317  0.00  0.00    +0.135 A 
ATOM     10  O   UNL     1     151.936 158.521 160.470  0.00  0.00    -0.505 OA
ATOM     11  C   UNL     1     151.431 156.345 161.414  0.00  0.00    +0.087 A 
ATOM     12 CL   UNL     1     151.590 157.008 163.007  0.00  0.00    -0.079 Cl
ATOM     13  C   UNL     1     149.980 153.430 165.181  0.00  0.00    -0.031 A 
ATOM     14  C   UNL     1     149.796 154.631 165.885  0.00  0.00    -0.057 A 
ATOM     15  C   UNL     1     150.508 154.887 167.058  0.00  0.00    -0.061 A 
ATOM     16  C   UNL     1     151.413 153.946 167.544  0.00  0.00    -0.062 A 
ATOM     17  C   UNL     1     151.607 152.750 166.859  0.00  0.00    -0.061 A 
ATOM     18  C   UNL     1     150.896 152.493 165.684  0.00  0.00    -0.057 A 
ATOM     19  H   UNL     1     149.337 155.037 163.175  0.00  0.00    +0.000 HD
ATOM     20  H   UNL     1     148.901 153.872 162.034  0.00  0.00    +0.000 HD
ATOM     21  H   UNL     1     152.054 159.066 159.716  0.00  0.00    +0.000 HD
ENDROOT
TORSDOF 0
ENDMDL
MODEL 6
REMARK VINA RESULT:    -6.501      7.105      9.175
REMARK INTER + INTRA:          -6.501
REMARK INTER:                  -6.501
REMARK INTRA:                   0.000
REMARK UNBOUND:                 0.000
REMARK  Name = /home/vital/Documents/PhD_2021/Malaria_codes/scripts/../data/pdbqt_ligands/ligand_156_temp.pdb
REMARK                            x       y       z     vdW  Elec       q    Type
REMARK                         _______ _______ _______ _____ _____    ______ ____
ROOT
ATOM      1  C   UNL     1     152.375 157.735 163.799  0.00  0.00    -0.046 C 
ATOM      2  C   UNL     1     152.429 158.075 165.293  0.00  0.00    +0.030 C 
ATOM      3  N   UNL     1     151.592 159.259 165.531  0.00  0.00    -0.306 N 
ATOM      4  C   UNL     1     151.766 159.811 166.872  0.00  0.00    +0.023 C 
ATOM      5  C   UNL     1     150.929 161.059 167.046  0.00  0.00    -0.012 A 
ATOM      6  C   UNL     1     151.515 162.313 166.788  0.00  0.00    -0.056 A 
ATOM      7  C   UNL     1     150.780 163.493 166.927  0.00  0.00    -0.058 A 
ATOM      8  C   UNL     1     149.445 163.442 167.316  0.00  0.00    -0.019 A 
ATOM      9  C   UNL     1     148.850 162.209 167.556  0.00  0.00    +0.135 A 
ATOM     10  O   UNL     1     147.530 162.218 167.925  0.00  0.00    -0.505 OA
ATOM     11  C   UNL     1     149.576 161.018 167.419  0.00  0.00    +0.087 A 
ATOM     12 CL   UNL     1     148.757 159.518 167.705  0.00  0.00    -0.079 Cl
ATOM     13  C   UNL     1     152.026 156.876 166.138  0.00  0.00    -0.031 A 
ATOM     14  C   UNL     1     150.752 156.294 166.039  0.00  0.00    -0.057 A 
ATOM     15  C   UNL     1     150.402 155.203 166.836  0.00  0.00    -0.061 A 
ATOM     16  C   UNL     1     151.320 154.678 167.743  0.00  0.00    -0.062 A 
ATOM     17  C   UNL     1     152.587 155.243 167.854  0.00  0.00    -0.061 A 
ATOM     18  C   UNL     1     152.939 156.336 167.058  0.00  0.00    -0.057 A 
ATOM     19  H   UNL     1     150.614 158.997 165.411  0.00  0.00    +0.000 HD
ATOM     20  H   UNL     1     151.875 159.977 164.863  0.00  0.00    +0.000 HD
ATOM     21  H   UNL     1     147.071 163.032 168.008  0.00  0.00    +0.000 HD
ENDROOT
TORSDOF 0
ENDMDL
MODEL 7
REMARK VINA RESULT:    -6.451      3.505      7.546
REMARK INTER + INTRA:          -6.451
REMARK INTER:                  -6.451
REMARK INTRA:                   0.000
REMARK UNBOUND:                 0.000
REMARK  Name = /home/vital/Documents/PhD_2021/Malaria_codes/scripts/../data/pdbqt_ligands/ligand_156_temp.pdb
REMARK                            x       y       z     vdW  Elec       q    Type
REMARK                         _______ _______ _______ _____ _____    ______ ____
ROOT
ATOM      1  C   UNL     1     152.479 161.799 160.849  0.00  0.00    -0.046 C 
ATOM      2  C   UNL     1     151.321 160.943 161.375  0.00  0.00    +0.030 C 
ATOM      3  N   UNL     1     151.584 159.540 161.025  0.00  0.00    -0.306 N 
ATOM      4  C   UNL     1     150.430 158.676 161.264  0.00  0.00    +0.023 C 
ATOM      5  C   UNL     1     150.733 157.257 160.834  0.00  0.00    -0.012 A 
ATOM      6  C   UNL     1     150.379 156.850 159.533  0.00  0.00    -0.056 A 
ATOM      7  C   UNL     1     150.644 155.553 159.087  0.00  0.00    -0.058 A 
ATOM      8  C   UNL     1     151.275 154.642 159.928  0.00  0.00    -0.019 A 
ATOM      9  C   UNL     1     151.646 155.036 161.209  0.00  0.00    +0.135 A 
ATOM     10  O   UNL     1     152.275 154.101 161.989  0.00  0.00    -0.505 OA
ATOM     11  C   UNL     1     151.387 156.335 161.667  0.00  0.00    +0.087 A 
ATOM     12 CL   UNL     1     151.906 156.763 163.264  0.00  0.00    -0.079 Cl
ATOM     13  C   UNL     1     151.118 161.161 162.866  0.00  0.00    -0.031 A 
ATOM     14  C   UNL     1     152.122 160.864 163.802  0.00  0.00    -0.057 A 
ATOM     15  C   UNL     1     151.906 161.060 165.167  0.00  0.00    -0.061 A 
ATOM     16  C   UNL     1     150.685 161.556 165.616  0.00  0.00    -0.062 A 
ATOM     17  C   UNL     1     149.679 161.856 164.702  0.00  0.00    -0.061 A 
ATOM     18  C   UNL     1     149.893 161.660 163.336  0.00  0.00    -0.057 A 
ATOM     19  H   UNL     1     152.365 159.204 161.587  0.00  0.00    +0.000 HD
ATOM     20  H   UNL     1     151.794 159.505 160.027  0.00  0.00    +0.000 HD
ATOM     21  H   UNL     1     152.434 153.241 161.653  0.00  0.00    +0.000 HD
ENDROOT
TORSDOF 0
ENDMDL
MODEL 8
REMARK VINA RESULT:    -6.390      8.079     10.821
REMARK INTER + INTRA:          -6.390
REMARK INTER:                  -6.390
REMARK INTRA:                   0.000
REMARK UNBOUND:                 0.000
REMARK  Name = /home/vital/Documents/PhD_2021/Malaria_codes/scripts/../data/pdbqt_ligands/ligand_156_temp.pdb
REMARK                            x       y       z     vdW  Elec       q    Type
REMARK                         _______ _______ _______ _____ _____    ______ ____
ROOT
ATOM      1  C   UNL     1     151.906 160.157 165.031  0.00  0.00    -0.046 C 
ATOM      2  C   UNL     1     151.197 159.402 166.161  0.00  0.00    +0.030 C 
ATOM      3  N   UNL     1     151.269 157.962 165.874  0.00  0.00    -0.306 N 
ATOM      4  C   UNL     1     150.418 157.170 166.758  0.00  0.00    +0.023 C 
ATOM      5  C   UNL     1     150.483 155.706 166.385  0.00  0.00    -0.012 A 
ATOM      6  C   UNL     1     149.521 155.185 165.498  0.00  0.00    -0.056 A 
ATOM      7  C   UNL     1     149.543 153.841 165.118  0.00  0.00    -0.058 A 
ATOM      8  C   UNL     1     150.533 152.995 165.607  0.00  0.00    -0.019 A 
ATOM      9  C   UNL     1     151.500 153.499 166.469  0.00  0.00    +0.135 A 
ATOM     10  O   UNL     1     152.458 152.624 166.911  0.00  0.00    -0.505 OA
ATOM     11  C   UNL     1     151.489 154.846 166.858  0.00  0.00    +0.087 A 
ATOM     12 CL   UNL     1     152.745 155.410 167.909  0.00  0.00    -0.079 Cl
ATOM     13  C   UNL     1     151.783 159.774 167.514  0.00  0.00    -0.031 A 
ATOM     14  C   UNL     1     153.130 159.533 167.830  0.00  0.00    -0.057 A 
ATOM     15  C   UNL     1     153.641 159.871 169.084  0.00  0.00    -0.061 A 
ATOM     16  C   UNL     1     152.813 160.455 170.040  0.00  0.00    -0.062 A 
ATOM     17  C   UNL     1     151.475 160.700 169.744  0.00  0.00    -0.061 A 
ATOM     18  C   UNL     1     150.963 160.362 168.489  0.00  0.00    -0.057 A 
ATOM     19  H   UNL     1     152.235 157.654 165.989  0.00  0.00    +0.000 HD
ATOM     20  H   UNL     1     150.939 157.821 164.919  0.00  0.00    +0.000 HD
ATOM     21  H   UNL     1     152.438 151.729 166.632  0.00  0.00    +0.000 HD
ENDROOT
TORSDOF 0
ENDMDL
MODEL 9
REMARK VINA RESULT:    -5.964     14.926     17.527
REMARK INTER + INTRA:          -5.964
REMARK INTER:                  -5.964
REMARK INTRA:                   0.000
REMARK UNBOUND:                 0.000
REMARK  Name = /home/vital/Documents/PhD_2021/Malaria_codes/scripts/../data/pdbqt_ligands/ligand_156_temp.pdb
REMARK                            x       y       z     vdW  Elec       q    Type
REMARK                         _______ _______ _______ _____ _____    ______ ____
ROOT
ATOM      1  C   UNL     1     146.490 147.676 164.882  0.00  0.00    -0.046 C 
ATOM      2  C   UNL     1     145.196 146.994 164.424  0.00  0.00    +0.030 C 
ATOM      3  N   UNL     1     145.379 145.539 164.519  0.00  0.00    -0.306 N 
ATOM      4  C   UNL     1     144.298 144.792 163.879  0.00  0.00    +0.023 C 
ATOM      5  C   UNL     1     144.564 143.305 163.954  0.00  0.00    -0.012 A 
ATOM      6  C   UNL     1     145.220 142.676 162.879  0.00  0.00    -0.056 A 
ATOM      7  C   UNL     1     145.494 141.306 162.904  0.00  0.00    -0.058 A 
ATOM      8  C   UNL     1     145.126 140.542 164.008  0.00  0.00    -0.019 A 
ATOM      9  C   UNL     1     144.494 141.154 165.084  0.00  0.00    +0.135 A 
ATOM     10  O   UNL     1     144.166 140.356 166.148  0.00  0.00    -0.505 OA
ATOM     11  C   UNL     1     144.215 142.528 165.071  0.00  0.00    +0.087 A 
ATOM     12 CL   UNL     1     143.452 143.226 166.461  0.00  0.00    -0.079 Cl
ATOM     13  C   UNL     1     144.002 147.501 165.219  0.00  0.00    -0.031 A 
ATOM     14  C   UNL     1     143.916 147.338 166.611  0.00  0.00    -0.057 A 
ATOM     15  C   UNL     1     142.804 147.801 167.316  0.00  0.00    -0.061 A 
ATOM     16  C   UNL     1     141.763 148.432 166.641  0.00  0.00    -0.062 A 
ATOM     17  C   UNL     1     141.832 148.602 165.261  0.00  0.00    -0.061 A 
ATOM     18  C   UNL     1     142.944 148.139 164.553  0.00  0.00    -0.057 A 
ATOM     19  H   UNL     1     145.416 145.278 165.505  0.00  0.00    +0.000 HD
ATOM     20  H   UNL     1     146.245 145.304 164.034  0.00  0.00    +0.000 HD
ATOM     21  H   UNL     1     144.366 139.440 166.127  0.00  0.00    +0.000 HD
ENDROOT
TORSDOF 0
ENDMDL
