MODEL 1
REMARK VINA RESULT:    -7.638      0.000      0.000
REMARK INTER + INTRA:          -7.638
REMARK INTER:                  -7.638
REMARK INTRA:                   0.000
REMARK UNBOUND:                 0.000
REMARK  Name = /home/vital/Documents/PhD_2021/Malaria_codes/scripts/../data/pdbqt_ligands/ligand_308_temp.pdb
REMARK                            x       y       z     vdW  Elec       q    Type
REMARK                         _______ _______ _______ _____ _____    ______ ____
ROOT
ATOM      1  C   UNL     1     151.600 158.789 161.341  0.00  0.00    -0.023 C 
ATOM      2  C   UNL     1     150.861 159.791 160.445  0.00  0.00    +0.130 C 
ATOM      3  C   UNL     1     149.366 159.462 160.357  0.00  0.00    -0.023 C 
ATOM      4  C   UNL     1     151.035 161.203 161.017  0.00  0.00    -0.023 C 
ATOM      5  O   UNL     1     151.450 159.829 159.132  0.00  0.00    -0.388 OA
ATOM      6  N   UNL     1     151.352 158.578 158.502  0.00  0.00    -0.092 NA
ATOM      7  C   UNL     1     151.893 158.661 157.329  0.00  0.00    +0.074 C 
ATOM      8  C   UNL     1     151.950 157.508 156.411  0.00  0.00    -0.003 A 
ATOM      9  C   UNL     1     151.414 156.271 156.780  0.00  0.00    -0.050 A 
ATOM     10  C   UNL     1     151.478 155.193 155.896  0.00  0.00    -0.019 A 
ATOM     11  C   UNL     1     152.077 155.353 154.648  0.00  0.00    +0.131 A 
ATOM     12  O   UNL     1     152.096 154.244 153.845  0.00  0.00    -0.506 OA
ATOM     13  C   UNL     1     152.617 156.591 154.269  0.00  0.00    +0.101 A 
ATOM     14  C   UNL     1     153.245 156.734 152.939  0.00  0.00    +0.340 C 
ATOM     15  O   UNL     1     153.335 155.835 152.120  0.00  0.00    -0.245 OA
ATOM     16  O   UNL     1     153.724 157.966 152.696  0.00  0.00    -0.477 OA
ATOM     17  C   UNL     1     152.551 157.674 155.159  0.00  0.00    -0.036 A 
ATOM     18  H   UNL     1     151.720 153.441 154.147  0.00  0.00    +0.000 HD
ENDROOT
TORSDOF 0
ENDMDL
MODEL 2
REMARK VINA RESULT:    -7.585      2.006      7.026
REMARK INTER + INTRA:          -7.585
REMARK INTER:                  -7.585
REMARK INTRA:                   0.000
REMARK UNBOUND:                 0.000
REMARK  Name = /home/vital/Documents/PhD_2021/Malaria_codes/scripts/../data/pdbqt_ligands/ligand_308_temp.pdb
REMARK                            x       y       z     vdW  Elec       q    Type
REMARK                         _______ _______ _______ _____ _____    ______ ____
ROOT
ATOM      1  C   UNL     1     151.671 157.367 151.862  0.00  0.00    -0.023 C 
ATOM      2  C   UNL     1     152.683 156.510 152.633  0.00  0.00    +0.130 C 
ATOM      3  C   UNL     1     152.096 155.139 152.986  0.00  0.00    -0.023 C 
ATOM      4  C   UNL     1     153.937 156.317 151.773  0.00  0.00    -0.023 C 
ATOM      5  O   UNL     1     153.128 157.194 153.820  0.00  0.00    -0.388 OA
ATOM      6  N   UNL     1     152.054 157.430 154.694  0.00  0.00    -0.092 NA
ATOM      7  C   UNL     1     152.501 158.044 155.742  0.00  0.00    +0.074 C 
ATOM      8  C   UNL     1     151.616 158.436 156.855  0.00  0.00    -0.003 A 
ATOM      9  C   UNL     1     150.248 158.154 156.815  0.00  0.00    -0.050 A 
ATOM     10  C   UNL     1     149.428 158.534 157.879  0.00  0.00    -0.019 A 
ATOM     11  C   UNL     1     149.976 159.193 158.978  0.00  0.00    +0.131 A 
ATOM     12  O   UNL     1     149.100 159.528 159.975  0.00  0.00    -0.506 OA
ATOM     13  C   UNL     1     151.349 159.479 159.025  0.00  0.00    +0.101 A 
ATOM     14  C   UNL     1     151.905 160.179 160.203  0.00  0.00    +0.340 C 
ATOM     15  O   UNL     1     151.247 160.538 161.164  0.00  0.00    -0.245 OA
ATOM     16  O   UNL     1     153.229 160.395 160.128  0.00  0.00    -0.477 OA
ATOM     17  C   UNL     1     152.171 159.096 157.955  0.00  0.00    -0.036 A 
ATOM     18  H   UNL     1     148.192 159.313 159.892  0.00  0.00    +0.000 HD
ENDROOT
TORSDOF 0
ENDMDL
MODEL 3
REMARK VINA RESULT:    -7.487      2.487      6.996
REMARK INTER + INTRA:          -7.487
REMARK INTER:                  -7.487
REMARK INTRA:                   0.000
REMARK UNBOUND:                 0.000
REMARK  Name = /home/vital/Documents/PhD_2021/Malaria_codes/scripts/../data/pdbqt_ligands/ligand_308_temp.pdb
REMARK                            x       y       z     vdW  Elec       q    Type
REMARK                         _______ _______ _______ _____ _____    ______ ____
ROOT
ATOM      1  C   UNL     1     151.458 154.763 152.566  0.00  0.00    -0.023 C 
ATOM      2  C   UNL     1     152.225 156.086 152.676  0.00  0.00    +0.130 C 
ATOM      3  C   UNL     1     153.711 155.846 152.967  0.00  0.00    -0.023 C 
ATOM      4  C   UNL     1     152.087 156.858 151.358  0.00  0.00    -0.023 C 
ATOM      5  O   UNL     1     151.639 156.931 153.683  0.00  0.00    -0.388 OA
ATOM      6  N   UNL     1     151.706 156.324 154.948  0.00  0.00    -0.092 NA
ATOM      7  C   UNL     1     151.170 157.117 155.818  0.00  0.00    +0.074 C 
ATOM      8  C   UNL     1     151.084 156.766 157.248  0.00  0.00    -0.003 A 
ATOM      9  C   UNL     1     151.586 155.550 157.718  0.00  0.00    -0.050 A 
ATOM     10  C   UNL     1     151.495 155.237 159.075  0.00  0.00    -0.019 A 
ATOM     11  C   UNL     1     150.903 156.139 159.958  0.00  0.00    +0.131 A 
ATOM     12  O   UNL     1     150.857 155.752 161.270  0.00  0.00    -0.506 OA
ATOM     13  C   UNL     1     150.397 157.363 159.494  0.00  0.00    +0.101 A 
ATOM     14  C   UNL     1     149.776 158.303 160.451  0.00  0.00    +0.340 C 
ATOM     15  O   UNL     1     149.664 158.093 161.647  0.00  0.00    -0.245 OA
ATOM     16  O   UNL     1     149.331 159.436 159.885  0.00  0.00    -0.477 OA
ATOM     17  C   UNL     1     150.490 157.675 158.129  0.00  0.00    -0.036 A 
ATOM     18  H   UNL     1     151.210 154.923 161.527  0.00  0.00    +0.000 HD
ENDROOT
TORSDOF 0
ENDMDL
MODEL 4
REMARK VINA RESULT:    -7.175      2.822      7.081
REMARK INTER + INTRA:          -7.175
REMARK INTER:                  -7.175
REMARK INTRA:                   0.000
REMARK UNBOUND:                 0.000
REMARK  Name = /home/vital/Documents/PhD_2021/Malaria_codes/scripts/../data/pdbqt_ligands/ligand_308_temp.pdb
REMARK                            x       y       z     vdW  Elec       q    Type
REMARK                         _______ _______ _______ _____ _____    ______ ____
ROOT
ATOM      1  C   UNL     1     153.641 157.731 152.503  0.00  0.00    -0.023 C 
ATOM      2  C   UNL     1     152.793 156.464 152.340  0.00  0.00    +0.130 C 
ATOM      3  C   UNL     1     151.393 156.795 151.810  0.00  0.00    -0.023 C 
ATOM      4  C   UNL     1     153.491 155.512 151.362  0.00  0.00    -0.023 C 
ATOM      5  O   UNL     1     152.708 155.747 153.586  0.00  0.00    -0.388 OA
ATOM      6  N   UNL     1     152.080 156.526 154.571  0.00  0.00    -0.092 NA
ATOM      7  C   UNL     1     152.027 155.842 155.668  0.00  0.00    +0.074 C 
ATOM      8  C   UNL     1     151.421 156.385 156.899  0.00  0.00    -0.003 A 
ATOM      9  C   UNL     1     150.878 157.672 156.923  0.00  0.00    -0.050 A 
ATOM     10  C   UNL     1     150.310 158.166 158.098  0.00  0.00    -0.019 A 
ATOM     11  C   UNL     1     150.287 157.375 159.245  0.00  0.00    +0.131 A 
ATOM     12  O   UNL     1     149.710 157.939 160.351  0.00  0.00    -0.506 OA
ATOM     13  C   UNL     1     150.830 156.082 159.229  0.00  0.00    +0.101 A 
ATOM     14  C   UNL     1     150.792 155.262 160.460  0.00  0.00    +0.340 C 
ATOM     15  O   UNL     1     150.312 155.632 161.518  0.00  0.00    -0.245 OA
ATOM     16  O   UNL     1     151.343 154.046 160.316  0.00  0.00    -0.477 OA
ATOM     17  C   UNL     1     151.400 155.586 158.047  0.00  0.00    -0.036 A 
ATOM     18  H   UNL     1     149.362 158.807 160.307  0.00  0.00    +0.000 HD
ENDROOT
TORSDOF 0
ENDMDL
MODEL 5
REMARK VINA RESULT:    -7.147      1.998      7.257
REMARK INTER + INTRA:          -7.147
REMARK INTER:                  -7.147
REMARK INTRA:                   0.000
REMARK UNBOUND:                 0.000
REMARK  Name = /home/vital/Documents/PhD_2021/Malaria_codes/scripts/../data/pdbqt_ligands/ligand_308_temp.pdb
REMARK                            x       y       z     vdW  Elec       q    Type
REMARK                         _______ _______ _______ _____ _____    ______ ____
ROOT
ATOM      1  C   UNL     1     153.728 156.527 153.032  0.00  0.00    -0.023 C 
ATOM      2  C   UNL     1     152.209 156.366 152.900  0.00  0.00    +0.130 C 
ATOM      3  C   UNL     1     151.584 157.559 152.169  0.00  0.00    -0.023 C 
ATOM      4  C   UNL     1     151.905 155.081 152.120  0.00  0.00    -0.023 C 
ATOM      5  O   UNL     1     151.602 156.187 154.193  0.00  0.00    -0.388 OA
ATOM      6  N   UNL     1     151.816 157.312 155.006  0.00  0.00    -0.092 NA
ATOM      7  C   UNL     1     151.255 157.106 156.154  0.00  0.00    +0.074 C 
ATOM      8  C   UNL     1     151.300 158.106 157.237  0.00  0.00    -0.003 A 
ATOM      9  C   UNL     1     151.959 159.326 157.059  0.00  0.00    -0.050 A 
ATOM     10  C   UNL     1     151.989 160.259 158.096  0.00  0.00    -0.019 A 
ATOM     11  C   UNL     1     151.363 159.971 159.308  0.00  0.00    +0.131 A 
ATOM     12  O   UNL     1     151.443 160.942 160.270  0.00  0.00    -0.506 OA
ATOM     13  C   UNL     1     150.700 158.749 159.495  0.00  0.00    +0.101 A 
ATOM     14  C   UNL     1     150.043 158.469 160.790  0.00  0.00    +0.340 C 
ATOM     15  O   UNL     1     150.032 159.237 161.736  0.00  0.00    -0.245 OA
ATOM     16  O   UNL     1     149.444 157.268 160.844  0.00  0.00    -0.477 OA
ATOM     17  C   UNL     1     150.670 157.812 158.450  0.00  0.00    -0.036 A 
ATOM     18  H   UNL     1     151.899 161.741 160.092  0.00  0.00    +0.000 HD
ENDROOT
TORSDOF 0
ENDMDL
MODEL 6
REMARK VINA RESULT:    -6.953      2.325      3.433
REMARK INTER + INTRA:          -6.953
REMARK INTER:                  -6.953
REMARK INTRA:                   0.000
REMARK UNBOUND:                 0.000
REMARK  Name = /home/vital/Documents/PhD_2021/Malaria_codes/scripts/../data/pdbqt_ligands/ligand_308_temp.pdb
REMARK                            x       y       z     vdW  Elec       q    Type
REMARK                         _______ _______ _______ _____ _____    ______ ____
ROOT
ATOM      1  C   UNL     1     149.671 156.989 160.922  0.00  0.00    -0.023 C 
ATOM      2  C   UNL     1     150.407 155.645 160.847  0.00  0.00    +0.130 C 
ATOM      3  C   UNL     1     151.862 155.780 161.310  0.00  0.00    -0.023 C 
ATOM      4  C   UNL     1     149.686 154.625 161.736  0.00  0.00    -0.023 C 
ATOM      5  O   UNL     1     150.346 155.107 159.513  0.00  0.00    -0.388 OA
ATOM      6  N   UNL     1     150.980 155.964 158.598  0.00  0.00    -0.092 NA
ATOM      7  C   UNL     1     150.900 155.440 157.417  0.00  0.00    +0.074 C 
ATOM      8  C   UNL     1     151.475 156.100 156.229  0.00  0.00    -0.003 A 
ATOM      9  C   UNL     1     152.133 157.328 156.340  0.00  0.00    -0.050 A 
ATOM     10  C   UNL     1     152.670 157.934 155.203  0.00  0.00    -0.019 A 
ATOM     11  C   UNL     1     152.547 157.315 153.961  0.00  0.00    +0.131 A 
ATOM     12  O   UNL     1     153.102 157.980 152.901  0.00  0.00    -0.506 OA
ATOM     13  C   UNL     1     151.887 156.082 153.841  0.00  0.00    +0.101 A 
ATOM     14  C   UNL     1     151.772 155.446 152.512  0.00  0.00    +0.340 C 
ATOM     15  O   UNL     1     152.216 155.920 151.481  0.00  0.00    -0.245 OA
ATOM     16  O   UNL     1     151.120 154.271 152.530  0.00  0.00    -0.477 OA
ATOM     17  C   UNL     1     151.349 155.473 154.985  0.00  0.00    -0.036 A 
ATOM     18  H   UNL     1     153.532 158.801 153.037  0.00  0.00    +0.000 HD
ENDROOT
TORSDOF 0
ENDMDL
MODEL 7
REMARK VINA RESULT:    -6.502      4.219      5.702
REMARK INTER + INTRA:          -6.502
REMARK INTER:                  -6.502
REMARK INTRA:                   0.000
REMARK UNBOUND:                 0.000
REMARK  Name = /home/vital/Documents/PhD_2021/Malaria_codes/scripts/../data/pdbqt_ligands/ligand_308_temp.pdb
REMARK                            x       y       z     vdW  Elec       q    Type
REMARK                         _______ _______ _______ _____ _____    ______ ____
ROOT
ATOM      1  C   UNL     1     150.773 153.101 164.208  0.00  0.00    -0.023 C 
ATOM      2  C   UNL     1     149.559 154.022 164.383  0.00  0.00    +0.130 C 
ATOM      3  C   UNL     1     148.279 153.363 163.856  0.00  0.00    -0.023 C 
ATOM      4  C   UNL     1     149.384 154.346 165.872  0.00  0.00    -0.023 C 
ATOM      5  O   UNL     1     149.784 155.287 163.734  0.00  0.00    -0.388 OA
ATOM      6  N   UNL     1     149.961 155.117 162.351  0.00  0.00    -0.092 NA
ATOM      7  C   UNL     1     150.158 156.276 161.813  0.00  0.00    +0.074 C 
ATOM      8  C   UNL     1     150.379 156.438 160.363  0.00  0.00    -0.003 A 
ATOM      9  C   UNL     1     150.382 155.330 159.512  0.00  0.00    -0.050 A 
ATOM     10  C   UNL     1     150.593 155.506 158.143  0.00  0.00    -0.019 A 
ATOM     11  C   UNL     1     150.800 156.785 157.630  0.00  0.00    +0.131 A 
ATOM     12  O   UNL     1     150.998 156.864 156.278  0.00  0.00    -0.506 OA
ATOM     13  C   UNL     1     150.798 157.902 158.479  0.00  0.00    +0.101 A 
ATOM     14  C   UNL     1     151.020 159.248 157.909  0.00  0.00    +0.340 C 
ATOM     15  O   UNL     1     151.210 159.472 156.725  0.00  0.00    -0.245 OA
ATOM     16  O   UNL     1     150.995 160.233 158.822  0.00  0.00    -0.477 OA
ATOM     17  C   UNL     1     150.586 157.724 159.854  0.00  0.00    -0.036 A 
ATOM     18  H   UNL     1     150.989 156.086 155.757  0.00  0.00    +0.000 HD
ENDROOT
TORSDOF 0
ENDMDL
MODEL 8
REMARK VINA RESULT:    -6.471      3.040      4.913
REMARK INTER + INTRA:          -6.471
REMARK INTER:                  -6.471
REMARK INTRA:                   0.000
REMARK UNBOUND:                 0.000
REMARK  Name = /home/vital/Documents/PhD_2021/Malaria_codes/scripts/../data/pdbqt_ligands/ligand_308_temp.pdb
REMARK                            x       y       z     vdW  Elec       q    Type
REMARK                         _______ _______ _______ _____ _____    ______ ____
ROOT
ATOM      1  C   UNL     1     150.027 162.105 164.205  0.00  0.00    -0.023 C 
ATOM      2  C   UNL     1     151.037 160.990 164.504  0.00  0.00    +0.130 C 
ATOM      3  C   UNL     1     152.478 161.502 164.403  0.00  0.00    -0.023 C 
ATOM      4  C   UNL     1     150.789 160.453 165.919  0.00  0.00    -0.023 C 
ATOM      5  O   UNL     1     150.833 159.870 163.622  0.00  0.00    -0.388 OA
ATOM      6  N   UNL     1     151.032 160.243 162.283  0.00  0.00    -0.092 NA
ATOM      7  C   UNL     1     150.838 159.208 161.531  0.00  0.00    +0.074 C 
ATOM      8  C   UNL     1     150.973 159.272 160.064  0.00  0.00    -0.003 A 
ATOM      9  C   UNL     1     151.319 160.467 159.427  0.00  0.00    -0.050 A 
ATOM     10  C   UNL     1     151.441 160.506 158.038  0.00  0.00    -0.019 A 
ATOM     11  C   UNL     1     151.217 159.352 157.288  0.00  0.00    +0.131 A 
ATOM     12  O   UNL     1     151.359 159.480 155.933  0.00  0.00    -0.506 OA
ATOM     13  C   UNL     1     150.870 158.148 157.920  0.00  0.00    +0.101 A 
ATOM     14  C   UNL     1     150.639 156.938 157.101  0.00  0.00    +0.340 C 
ATOM     15  O   UNL     1     150.728 156.902 155.886  0.00  0.00    -0.245 OA
ATOM     16  O   UNL     1     150.313 155.852 157.822  0.00  0.00    -0.477 OA
ATOM     17  C   UNL     1     150.748 158.111 159.317  0.00  0.00    -0.036 A 
ATOM     18  H   UNL     1     151.593 160.309 155.563  0.00  0.00    +0.000 HD
ENDROOT
TORSDOF 0
ENDMDL
MODEL 9
REMARK VINA RESULT:    -5.940      3.070      4.577
REMARK INTER + INTRA:          -5.940
REMARK INTER:                  -5.940
REMARK INTRA:                   0.000
REMARK UNBOUND:                 0.000
REMARK  Name = /home/vital/Documents/PhD_2021/Malaria_codes/scripts/../data/pdbqt_ligands/ligand_308_temp.pdb
REMARK                            x       y       z     vdW  Elec       q    Type
REMARK                         _______ _______ _______ _____ _____    ______ ____
ROOT
ATOM      1  C   UNL     1     152.489 161.281 164.972  0.00  0.00    -0.023 C 
ATOM      2  C   UNL     1     151.336 162.039 164.304  0.00  0.00    +0.130 C 
ATOM      3  C   UNL     1     149.977 161.558 164.825  0.00  0.00    -0.023 C 
ATOM      4  C   UNL     1     151.485 163.538 164.591  0.00  0.00    -0.023 C 
ATOM      5  O   UNL     1     151.406 161.910 162.872  0.00  0.00    -0.388 OA
ATOM      6  N   UNL     1     151.281 160.566 162.483  0.00  0.00    -0.092 NA
ATOM      7  C   UNL     1     151.349 160.500 161.193  0.00  0.00    +0.074 C 
ATOM      8  C   UNL     1     151.250 159.218 160.469  0.00  0.00    -0.003 A 
ATOM      9  C   UNL     1     151.076 158.017 161.162  0.00  0.00    -0.050 A 
ATOM     10  C   UNL     1     150.984 156.815 160.458  0.00  0.00    -0.019 A 
ATOM     11  C   UNL     1     151.067 156.817 159.067  0.00  0.00    +0.131 A 
ATOM     12  O   UNL     1     150.967 155.594 158.458  0.00  0.00    -0.506 OA
ATOM     13  C   UNL     1     151.241 158.019 158.364  0.00  0.00    +0.101 A 
ATOM     14  C   UNL     1     151.324 157.992 156.888  0.00  0.00    +0.340 C 
ATOM     15  O   UNL     1     151.252 156.980 156.213  0.00  0.00    -0.245 OA
ATOM     16  O   UNL     1     151.491 159.205 156.335  0.00  0.00    -0.477 OA
ATOM     17  C   UNL     1     151.332 159.226 159.074  0.00  0.00    -0.036 A 
ATOM     18  H   UNL     1     150.851 154.822 158.976  0.00  0.00    +0.000 HD
ENDROOT
TORSDOF 0
ENDMDL
