MODEL 1
REMARK VINA RESULT:    -8.973      0.000      0.000
REMARK INTER + INTRA:          -8.973
REMARK INTER:                  -8.973
REMARK INTRA:                   0.000
REMARK UNBOUND:                 0.000
REMARK  Name = /home/vital/Documents/PhD_2021/Malaria_codes/scripts/../data/pdbqt_ligands/ligand_102_temp.pdb
REMARK                            x       y       z     vdW  Elec       q    Type
REMARK                         _______ _______ _______ _____ _____    ______ ____
ROOT
ATOM      1  N1  UNL     1     153.266 157.379 155.885  0.00  0.00    -0.266 NA
ATOM      2  S1  UNL     1     152.126 158.551 156.126  0.00  0.00    +0.006 S 
ATOM      3  C1  UNL     1     151.486 158.000 157.593  0.00  0.00    -0.013 C 
ATOM      4  C2  UNL     1     151.031 157.609 158.633  0.00  0.00    -0.061 C 
ATOM      5  C3  UNL     1     150.484 157.144 159.860  0.00  0.00    -0.011 C 
ATOM      6  C4  UNL     1     151.262 156.898 160.923  0.00  0.00    -0.054 C 
ATOM      7  C5  UNL     1     150.738 156.426 162.185  0.00  0.00    -0.062 C 
ATOM      8  C6  UNL     1     151.515 156.177 163.252  0.00  0.00    -0.049 C 
ATOM      9  C7  UNL     1     151.050 155.680 164.606  0.00  0.00    +0.130 C 
ATOM     10  O1  UNL     1     149.621 155.483 164.601  0.00  0.00    -0.262 OA
ATOM     11  N2  UNL     1     149.307 154.540 165.592  0.00  0.00    -0.269 N 
ATOM     12  C8  UNL     1     148.715 153.365 165.199  0.00  0.00    +0.043 C 
ATOM     13  C9  UNL     1     148.711 152.762 163.999  0.00  0.00    -0.041 C 
ATOM     14  C10 UNL     1     147.961 151.535 164.066  0.00  0.00    -0.064 C 
ATOM     15  C11 UNL     1     147.491 151.366 165.309  0.00  0.00    -0.078 C 
ATOM     16  C12 UNL     1     147.923 152.517 166.171  0.00  0.00    +0.008 C 
ATOM     17  C13 UNL     1     151.427 156.661 165.708  0.00  0.00    -0.011 A 
ATOM     18  C14 UNL     1     152.425 156.332 166.638  0.00  0.00    -0.054 A 
ATOM     19  C15 UNL     1     152.777 157.233 167.646  0.00  0.00    -0.042 A 
ATOM     20  C16 UNL     1     152.140 158.474 167.739  0.00  0.00    +0.059 A 
ATOM     21 CL1  UNL     1     152.628 159.534 169.013  0.00  0.00    -0.082 Cl
ATOM     22  C17 UNL     1     151.145 158.815 166.817  0.00  0.00    +0.060 A 
ATOM     23 CL2  UNL     1     150.315 160.329 166.869  0.00  0.00    -0.082 Cl
ATOM     24  C18 UNL     1     150.794 157.913 165.808  0.00  0.00    -0.036 A 
ATOM     25  H   UNL     1     153.763 157.564 155.013  0.00  0.00    +0.000 HD
ATOM     26  H   UNL     1     152.810 156.468 155.830  0.00  0.00    +0.000 HD
ATOM     27  H   UNL     1     149.504 154.717 166.540  0.00  0.00    +0.000 HD
ENDROOT
TORSDOF 0
ENDMDL
MODEL 2
REMARK VINA RESULT:    -8.773      2.330      2.682
REMARK INTER + INTRA:          -8.773
REMARK INTER:                  -8.773
REMARK INTRA:                   0.000
REMARK UNBOUND:                 0.000
REMARK  Name = /home/vital/Documents/PhD_2021/Malaria_codes/scripts/../data/pdbqt_ligands/ligand_102_temp.pdb
REMARK                            x       y       z     vdW  Elec       q    Type
REMARK                         _______ _______ _______ _____ _____    ______ ____
ROOT
ATOM      1  N1  UNL     1     153.213 154.546 153.882  0.00  0.00    -0.266 NA
ATOM      2  S1  UNL     1     152.017 155.677 153.736  0.00  0.00    +0.006 S 
ATOM      3  C1  UNL     1     151.473 155.696 155.338  0.00  0.00    -0.013 C 
ATOM      4  C2  UNL     1     151.087 155.708 156.476  0.00  0.00    -0.061 C 
ATOM      5  C3  UNL     1     150.620 155.720 157.818  0.00  0.00    -0.011 C 
ATOM      6  C4  UNL     1     151.455 155.924 158.846  0.00  0.00    -0.054 C 
ATOM      7  C5  UNL     1     151.013 155.943 160.222  0.00  0.00    -0.062 C 
ATOM      8  C6  UNL     1     151.849 156.146 161.255  0.00  0.00    -0.049 C 
ATOM      9  C7  UNL     1     151.471 156.179 162.722  0.00  0.00    +0.130 C 
ATOM     10  O1  UNL     1     150.057 155.939 162.879  0.00  0.00    -0.262 OA
ATOM     11  N2  UNL     1     149.841 155.429 164.169  0.00  0.00    -0.269 N 
ATOM     12  C8  UNL     1     149.305 154.170 164.282  0.00  0.00    +0.043 C 
ATOM     13  C9  UNL     1     149.285 153.159 163.398  0.00  0.00    -0.041 C 
ATOM     14  C10 UNL     1     148.613 152.019 163.965  0.00  0.00    -0.064 C 
ATOM     15  C11 UNL     1     148.207 152.314 165.208  0.00  0.00    -0.078 C 
ATOM     16  C12 UNL     1     148.606 153.721 165.547  0.00  0.00    +0.008 C 
ATOM     17  C13 UNL     1     151.836 157.517 163.351  0.00  0.00    -0.011 A 
ATOM     18  C14 UNL     1     152.889 157.603 164.273  0.00  0.00    -0.054 A 
ATOM     19  C15 UNL     1     153.229 158.830 164.847  0.00  0.00    -0.042 A 
ATOM     20  C16 UNL     1     152.525 159.989 164.507  0.00  0.00    +0.059 A 
ATOM     21 CL1  UNL     1     153.002 161.470 165.259  0.00  0.00    -0.082 Cl
ATOM     22  C17 UNL     1     151.473 159.918 163.587  0.00  0.00    +0.060 A 
ATOM     23 CL2  UNL     1     150.557 161.305 163.119  0.00  0.00    -0.082 Cl
ATOM     24  C18 UNL     1     151.134 158.689 163.013  0.00  0.00    -0.036 A 
ATOM     25  H   UNL     1     153.661 154.407 152.976  0.00  0.00    +0.000 HD
ATOM     26  H   UNL     1     152.811 153.665 154.201  0.00  0.00    +0.000 HD
ATOM     27  H   UNL     1     150.068 155.957 164.968  0.00  0.00    +0.000 HD
ENDROOT
TORSDOF 0
ENDMDL
MODEL 3
REMARK VINA RESULT:    -8.158      2.234      2.492
REMARK INTER + INTRA:          -8.158
REMARK INTER:                  -8.158
REMARK INTRA:                   0.000
REMARK UNBOUND:                 0.000
REMARK  Name = /home/vital/Documents/PhD_2021/Malaria_codes/scripts/../data/pdbqt_ligands/ligand_102_temp.pdb
REMARK                            x       y       z     vdW  Elec       q    Type
REMARK                         _______ _______ _______ _____ _____    ______ ____
ROOT
ATOM      1  N1  UNL     1     153.043 155.849 154.476  0.00  0.00    -0.266 NA
ATOM      2  S1  UNL     1     151.625 156.698 154.446  0.00  0.00    +0.006 S 
ATOM      3  C1  UNL     1     151.225 156.604 156.087  0.00  0.00    -0.013 C 
ATOM      4  C2  UNL     1     150.941 156.536 157.252  0.00  0.00    -0.061 C 
ATOM      5  C3  UNL     1     150.595 156.451 158.628  0.00  0.00    -0.011 C 
ATOM      6  C4  UNL     1     151.450 156.831 159.587  0.00  0.00    -0.054 C 
ATOM      7  C5  UNL     1     151.130 156.759 160.995  0.00  0.00    -0.062 C 
ATOM      8  C6  UNL     1     151.986 157.137 161.960  0.00  0.00    -0.049 C 
ATOM      9  C7  UNL     1     151.733 157.092 163.453  0.00  0.00    +0.130 C 
ATOM     10  O1  UNL     1     150.421 156.556 163.721  0.00  0.00    -0.262 OA
ATOM     11  N2  UNL     1     150.427 156.014 165.016  0.00  0.00    -0.269 N 
ATOM     12  C8  UNL     1     150.181 154.671 165.153  0.00  0.00    +0.043 C 
ATOM     13  C9  UNL     1     150.305 153.676 164.258  0.00  0.00    -0.041 C 
ATOM     14  C10 UNL     1     149.940 152.421 164.861  0.00  0.00    -0.064 C 
ATOM     15  C11 UNL     1     149.585 152.625 166.137  0.00  0.00    -0.078 C 
ATOM     16  C12 UNL     1     149.702 154.086 166.464  0.00  0.00    +0.008 C 
ATOM     17  C13 UNL     1     151.855 158.479 164.071  0.00  0.00    -0.011 A 
ATOM     18  C14 UNL     1     152.938 158.790 164.905  0.00  0.00    -0.054 A 
ATOM     19  C15 UNL     1     153.056 160.063 165.468  0.00  0.00    -0.042 A 
ATOM     20  C16 UNL     1     152.095 161.043 165.204  0.00  0.00    +0.059 A 
ATOM     21 CL1  UNL     1     152.307 162.594 165.938  0.00  0.00    -0.082 Cl
ATOM     22  C17 UNL     1     151.010 160.747 164.373  0.00  0.00    +0.060 A 
ATOM     23 CL2  UNL     1     149.784 161.906 164.002  0.00  0.00    -0.082 Cl
ATOM     24  C18 UNL     1     150.894 159.473 163.809  0.00  0.00    -0.036 A 
ATOM     25  H   UNL     1     153.434 155.807 153.534  0.00  0.00    +0.000 HD
ATOM     26  H   UNL     1     152.865 154.903 154.813  0.00  0.00    +0.000 HD
ATOM     27  H   UNL     1     150.600 156.581 165.802  0.00  0.00    +0.000 HD
ENDROOT
TORSDOF 0
ENDMDL
MODEL 4
REMARK VINA RESULT:    -7.893      2.345      2.830
REMARK INTER + INTRA:          -7.893
REMARK INTER:                  -7.893
REMARK INTRA:                   0.000
REMARK UNBOUND:                 0.000
REMARK  Name = /home/vital/Documents/PhD_2021/Malaria_codes/scripts/../data/pdbqt_ligands/ligand_102_temp.pdb
REMARK                            x       y       z     vdW  Elec       q    Type
REMARK                         _______ _______ _______ _____ _____    ______ ____
ROOT
ATOM      1  N1  UNL     1     153.394 157.542 155.879  0.00  0.00    -0.266 NA
ATOM      2  S1  UNL     1     151.836 158.096 155.875  0.00  0.00    +0.006 S 
ATOM      3  C1  UNL     1     151.466 157.859 157.508  0.00  0.00    -0.013 C 
ATOM      4  C2  UNL     1     151.203 157.690 158.668  0.00  0.00    -0.061 C 
ATOM      5  C3  UNL     1     150.884 157.482 160.037  0.00  0.00    -0.011 C 
ATOM      6  C4  UNL     1     151.649 157.984 161.016  0.00  0.00    -0.054 C 
ATOM      7  C5  UNL     1     151.352 157.794 162.418  0.00  0.00    -0.062 C 
ATOM      8  C6  UNL     1     152.119 158.294 163.402  0.00  0.00    -0.049 C 
ATOM      9  C7  UNL     1     151.883 158.139 164.891  0.00  0.00    +0.130 C 
ATOM     10  O1  UNL     1     150.703 157.345 165.130  0.00  0.00    -0.262 OA
ATOM     11  N2  UNL     1     150.817 156.764 166.402  0.00  0.00    -0.269 N 
ATOM     12  C8  UNL     1     150.842 155.394 166.483  0.00  0.00    +0.043 C 
ATOM     13  C9  UNL     1     151.157 154.480 165.550  0.00  0.00    -0.041 C 
ATOM     14  C10 UNL     1     151.047 153.154 166.100  0.00  0.00    -0.064 C 
ATOM     15  C11 UNL     1     150.662 153.233 167.381  0.00  0.00    -0.078 C 
ATOM     16  C12 UNL     1     150.490 154.673 167.767  0.00  0.00    +0.008 C 
ATOM     17  C13 UNL     1     151.731 159.497 165.564  0.00  0.00    -0.011 A 
ATOM     18  C14 UNL     1     152.734 159.981 166.417  0.00  0.00    -0.054 A 
ATOM     19  C15 UNL     1     152.599 161.229 167.031  0.00  0.00    -0.042 A 
ATOM     20  C16 UNL     1     151.464 162.011 166.801  0.00  0.00    +0.059 A 
ATOM     21 CL1  UNL     1     151.367 163.542 167.597  0.00  0.00    -0.082 Cl
ATOM     22  C17 UNL     1     150.457 161.541 165.952  0.00  0.00    +0.060 A 
ATOM     23 CL2  UNL     1     149.025 162.450 165.620  0.00  0.00    -0.082 Cl
ATOM     24  C18 UNL     1     150.593 160.292 165.337  0.00  0.00    -0.036 A 
ATOM     25  H   UNL     1     153.783 157.615 154.939  0.00  0.00    +0.000 HD
ATOM     26  H   UNL     1     153.406 156.567 156.177  0.00  0.00    +0.000 HD
ATOM     27  H   UNL     1     150.878 157.321 167.211  0.00  0.00    +0.000 HD
ENDROOT
TORSDOF 0
ENDMDL
MODEL 5
REMARK VINA RESULT:    -7.737      2.664      3.376
REMARK INTER + INTRA:          -7.737
REMARK INTER:                  -7.737
REMARK INTRA:                   0.000
REMARK UNBOUND:                 0.000
REMARK  Name = /home/vital/Documents/PhD_2021/Malaria_codes/scripts/../data/pdbqt_ligands/ligand_102_temp.pdb
REMARK                            x       y       z     vdW  Elec       q    Type
REMARK                         _______ _______ _______ _____ _____    ______ ____
ROOT
ATOM      1  N1  UNL     1     152.589 156.143 155.606  0.00  0.00    -0.266 NA
ATOM      2  S1  UNL     1     151.818 157.461 156.239  0.00  0.00    +0.006 S 
ATOM      3  C1  UNL     1     151.008 156.706 157.518  0.00  0.00    -0.013 C 
ATOM      4  C2  UNL     1     150.433 156.170 158.426  0.00  0.00    -0.061 C 
ATOM      5  C3  UNL     1     149.743 155.538 159.496  0.00  0.00    -0.011 C 
ATOM      6  C4  UNL     1     150.390 154.788 160.398  0.00  0.00    -0.054 C 
ATOM      7  C5  UNL     1     149.719 154.133 161.499  0.00  0.00    -0.062 C 
ATOM      8  C6  UNL     1     150.365 153.378 162.403  0.00  0.00    -0.049 C 
ATOM      9  C7  UNL     1     149.741 152.657 163.581  0.00  0.00    +0.130 C 
ATOM     10  O1  UNL     1     148.316 152.873 163.600  0.00  0.00    -0.262 OA
ATOM     11  N2  UNL     1     147.721 151.809 164.295  0.00  0.00    -0.269 N 
ATOM     12  C8  UNL     1     146.835 151.011 163.615  0.00  0.00    +0.043 C 
ATOM     13  C9  UNL     1     146.694 150.810 162.294  0.00  0.00    -0.041 C 
ATOM     14  C10 UNL     1     145.628 149.875 162.047  0.00  0.00    -0.064 C 
ATOM     15  C11 UNL     1     145.096 149.487 163.214  0.00  0.00    -0.078 C 
ATOM     16  C12 UNL     1     145.809 150.170 164.344  0.00  0.00    +0.008 C 
ATOM     17  C13 UNL     1     150.348 153.130 164.896  0.00  0.00    -0.011 A 
ATOM     18  C14 UNL     1     151.187 152.282 165.634  0.00  0.00    -0.054 A 
ATOM     19  C15 UNL     1     151.749 152.714 166.837  0.00  0.00    -0.042 A 
ATOM     20  C16 UNL     1     151.485 154.000 167.318  0.00  0.00    +0.059 A 
ATOM     21 CL1  UNL     1     152.215 154.464 168.815  0.00  0.00    -0.082 Cl
ATOM     22  C17 UNL     1     150.652 154.857 166.591  0.00  0.00    +0.060 A 
ATOM     23 CL2  UNL     1     150.279 156.457 167.123  0.00  0.00    -0.082 Cl
ATOM     24  C18 UNL     1     150.090 154.422 165.387  0.00  0.00    -0.036 A 
ATOM     25  H   UNL     1     153.142 156.428 154.798  0.00  0.00    +0.000 HD
ATOM     26  H   UNL     1     151.897 155.451 155.318  0.00  0.00    +0.000 HD
ATOM     27  H   UNL     1     147.934 151.639 165.241  0.00  0.00    +0.000 HD
ENDROOT
TORSDOF 0
ENDMDL
MODEL 6
REMARK VINA RESULT:    -7.602      7.991     11.695
REMARK INTER + INTRA:          -7.602
REMARK INTER:                  -7.602
REMARK INTRA:                   0.000
REMARK UNBOUND:                 0.000
REMARK  Name = /home/vital/Documents/PhD_2021/Malaria_codes/scripts/../data/pdbqt_ligands/ligand_102_temp.pdb
REMARK                            x       y       z     vdW  Elec       q    Type
REMARK                         _______ _______ _______ _____ _____    ______ ____
ROOT
ATOM      1  N1  UNL     1     152.088 152.487 165.692  0.00  0.00    -0.266 NA
ATOM      2  S1  UNL     1     151.135 152.982 166.948  0.00  0.00    +0.006 S 
ATOM      3  C1  UNL     1     149.633 152.471 166.360  0.00  0.00    -0.013 C 
ATOM      4  C2  UNL     1     148.567 152.108 165.942  0.00  0.00    -0.061 C 
ATOM      5  C3  UNL     1     147.302 151.690 165.447  0.00  0.00    -0.011 C 
ATOM      6  C4  UNL     1     147.090 150.427 165.052  0.00  0.00    -0.054 C 
ATOM      7  C5  UNL     1     145.816 149.968 164.546  0.00  0.00    -0.062 C 
ATOM      8  C6  UNL     1     145.601 148.703 164.147  0.00  0.00    -0.049 C 
ATOM      9  C7  UNL     1     144.302 148.142 163.603  0.00  0.00    +0.130 C 
ATOM     10  O1  UNL     1     143.297 149.174 163.546  0.00  0.00    -0.262 OA
ATOM     11  N2  UNL     1     142.355 148.813 162.571  0.00  0.00    -0.269 N 
ATOM     12  C8  UNL     1     142.196 149.644 161.490  0.00  0.00    +0.043 C 
ATOM     13  C9  UNL     1     143.035 150.559 160.976  0.00  0.00    -0.041 C 
ATOM     14  C10 UNL     1     142.438 151.186 159.826  0.00  0.00    -0.064 C 
ATOM     15  C11 UNL     1     141.221 150.665 159.616  0.00  0.00    -0.078 C 
ATOM     16  C12 UNL     1     140.934 149.621 160.656  0.00  0.00    +0.008 C 
ATOM     17  C13 UNL     1     143.803 146.988 164.463  0.00  0.00    -0.011 A 
ATOM     18  C14 UNL     1     143.838 145.674 163.975  0.00  0.00    -0.054 A 
ATOM     19  C15 UNL     1     143.386 144.613 164.763  0.00  0.00    -0.042 A 
ATOM     20  C16 UNL     1     142.895 144.849 166.051  0.00  0.00    +0.059 A 
ATOM     21 CL1  UNL     1     142.352 143.487 166.966  0.00  0.00    -0.082 Cl
ATOM     22  C17 UNL     1     142.856 146.154 166.551  0.00  0.00    +0.060 A 
ATOM     23 CL2  UNL     1     142.262 146.524 168.130  0.00  0.00    -0.082 Cl
ATOM     24  C18 UNL     1     143.309 147.215 165.761  0.00  0.00    -0.036 A 
ATOM     25  H   UNL     1     153.060 152.726 165.888  0.00  0.00    +0.000 HD
ATOM     26  H   UNL     1     151.789 152.954 164.835  0.00  0.00    +0.000 HD
ATOM     27  H   UNL     1     141.823 147.989 162.660  0.00  0.00    +0.000 HD
ENDROOT
TORSDOF 0
ENDMDL
MODEL 7
REMARK VINA RESULT:    -7.470      5.408      8.568
REMARK INTER + INTRA:          -7.470
REMARK INTER:                  -7.470
REMARK INTRA:                   0.000
REMARK UNBOUND:                 0.000
REMARK  Name = /home/vital/Documents/PhD_2021/Malaria_codes/scripts/../data/pdbqt_ligands/ligand_102_temp.pdb
REMARK                            x       y       z     vdW  Elec       q    Type
REMARK                         _______ _______ _______ _____ _____    ______ ____
ROOT
ATOM      1  N1  UNL     1     154.516 152.875 168.876  0.00  0.00    -0.266 NA
ATOM      2  S1  UNL     1     153.268 152.169 168.053  0.00  0.00    +0.006 S 
ATOM      3  C1  UNL     1     152.483 153.567 167.513  0.00  0.00    -0.013 C 
ATOM      4  C2  UNL     1     151.925 154.559 167.130  0.00  0.00    -0.061 C 
ATOM      5  C3  UNL     1     151.256 155.731 166.682  0.00  0.00    -0.011 C 
ATOM      6  C4  UNL     1     151.902 156.686 166.000  0.00  0.00    -0.054 C 
ATOM      7  C5  UNL     1     151.252 157.888 165.529  0.00  0.00    -0.062 C 
ATOM      8  C6  UNL     1     151.897 158.849 164.846  0.00  0.00    -0.049 C 
ATOM      9  C7  UNL     1     151.295 160.136 164.321  0.00  0.00    +0.130 C 
ATOM     10  O1  UNL     1     149.899 160.214 164.673  0.00  0.00    -0.262 OA
ATOM     11  N2  UNL     1     149.528 161.568 164.690  0.00  0.00    -0.269 N 
ATOM     12  C8  UNL     1     149.084 162.098 165.876  0.00  0.00    +0.043 C 
ATOM     13  C9  UNL     1     149.285 161.680 167.137  0.00  0.00    -0.041 C 
ATOM     14  C10 UNL     1     148.627 162.565 168.062  0.00  0.00    -0.064 C 
ATOM     15  C11 UNL     1     148.011 163.542 167.384  0.00  0.00    -0.078 C 
ATOM     16  C12 UNL     1     148.237 163.352 165.911  0.00  0.00    +0.008 C 
ATOM     17  C13 UNL     1     151.448 160.234 162.808  0.00  0.00    -0.011 A 
ATOM     18  C14 UNL     1     152.334 161.163 162.244  0.00  0.00    -0.054 A 
ATOM     19  C15 UNL     1     152.480 161.250 160.858  0.00  0.00    -0.042 A 
ATOM     20  C16 UNL     1     151.745 160.411 160.016  0.00  0.00    +0.059 A 
ATOM     21 CL1  UNL     1     151.978 160.579 158.311  0.00  0.00    -0.082 Cl
ATOM     22  C17 UNL     1     150.859 159.479 160.565  0.00  0.00    +0.060 A 
ATOM     23 CL2  UNL     1     149.916 158.410 159.588  0.00  0.00    -0.082 Cl
ATOM     24  C18 UNL     1     150.714 159.392 161.953  0.00  0.00    -0.036 A 
ATOM     25  H   UNL     1     155.109 152.150 169.281  0.00  0.00    +0.000 HD
ATOM     26  H   UNL     1     154.141 153.463 169.621  0.00  0.00    +0.000 HD
ATOM     27  H   UNL     1     149.583 162.119 163.877  0.00  0.00    +0.000 HD
ENDROOT
TORSDOF 0
ENDMDL
MODEL 8
REMARK VINA RESULT:    -7.314      4.808      7.832
REMARK INTER + INTRA:          -7.314
REMARK INTER:                  -7.314
REMARK INTRA:                   0.000
REMARK UNBOUND:                 0.000
REMARK  Name = /home/vital/Documents/PhD_2021/Malaria_codes/scripts/../data/pdbqt_ligands/ligand_102_temp.pdb
REMARK                            x       y       z     vdW  Elec       q    Type
REMARK                         _______ _______ _______ _____ _____    ______ ____
ROOT
ATOM      1  N1  UNL     1     141.905 148.579 164.039  0.00  0.00    -0.266 NA
ATOM      2  S1  UNL     1     143.105 147.460 164.234  0.00  0.00    +0.006 S 
ATOM      3  C1  UNL     1     144.436 148.428 163.842  0.00  0.00    -0.013 C 
ATOM      4  C2  UNL     1     145.382 149.115 163.563  0.00  0.00    -0.061 C 
ATOM      5  C3  UNL     1     146.502 149.921 163.224  0.00  0.00    -0.011 C 
ATOM      6  C4  UNL     1     146.729 151.092 163.835  0.00  0.00    -0.054 C 
ATOM      7  C5  UNL     1     147.859 151.936 163.516  0.00  0.00    -0.062 C 
ATOM      8  C6  UNL     1     148.089 153.111 164.125  0.00  0.00    -0.049 C 
ATOM      9  C7  UNL     1     149.243 154.054 163.850  0.00  0.00    +0.130 C 
ATOM     10  O1  UNL     1     150.082 153.525 162.804  0.00  0.00    -0.262 OA
ATOM     11  N2  UNL     1     150.758 154.597 162.202  0.00  0.00    -0.269 N 
ATOM     12  C8  UNL     1     150.531 154.833 160.868  0.00  0.00    +0.043 C 
ATOM     13  C9  UNL     1     149.495 154.473 160.093  0.00  0.00    -0.041 C 
ATOM     14  C10 UNL     1     149.691 154.955 158.751  0.00  0.00    -0.064 C 
ATOM     15  C11 UNL     1     150.852 155.619 158.680  0.00  0.00    -0.078 C 
ATOM     16  C12 UNL     1     151.517 155.615 160.027  0.00  0.00    +0.008 C 
ATOM     17  C13 UNL     1     150.073 154.283 165.107  0.00  0.00    -0.011 A 
ATOM     18  C14 UNL     1     150.043 155.524 165.759  0.00  0.00    -0.054 A 
ATOM     19  C15 UNL     1     150.800 155.735 166.914  0.00  0.00    -0.042 A 
ATOM     20  C16 UNL     1     151.593 154.710 167.436  0.00  0.00    +0.059 A 
ATOM     21 CL1  UNL     1     152.502 155.045 168.867  0.00  0.00    -0.082 Cl
ATOM     22  C17 UNL     1     151.630 153.466 166.797  0.00  0.00    +0.060 A 
ATOM     23 CL2  UNL     1     152.588 152.152 167.381  0.00  0.00    -0.082 Cl
ATOM     24  C18 UNL     1     150.873 153.256 165.640  0.00  0.00    -0.036 A 
ATOM     25  H   UNL     1     141.003 148.149 164.242  0.00  0.00    +0.000 HD
ATOM     26  H   UNL     1     141.911 148.919 163.078  0.00  0.00    +0.000 HD
ATOM     27  H   UNL     1     151.377 155.162 162.719  0.00  0.00    +0.000 HD
ENDROOT
TORSDOF 0
ENDMDL
MODEL 9
REMARK VINA RESULT:    -7.223      4.777      6.754
REMARK INTER + INTRA:          -7.223
REMARK INTER:                  -7.223
REMARK INTRA:                   0.000
REMARK UNBOUND:                 0.000
REMARK  Name = /home/vital/Documents/PhD_2021/Malaria_codes/scripts/../data/pdbqt_ligands/ligand_102_temp.pdb
REMARK                            x       y       z     vdW  Elec       q    Type
REMARK                         _______ _______ _______ _____ _____    ______ ____
ROOT
ATOM      1  N1  UNL     1     150.181 159.448 159.178  0.00  0.00    -0.266 NA
ATOM      2  S1  UNL     1     150.588 158.136 158.260  0.00  0.00    +0.006 S 
ATOM      3  C1  UNL     1     150.753 156.990 159.494  0.00  0.00    -0.013 C 
ATOM      4  C2  UNL     1     150.870 156.177 160.370  0.00  0.00    -0.061 C 
ATOM      5  C3  UNL     1     151.020 155.214 161.405  0.00  0.00    -0.011 C 
ATOM      6  C4  UNL     1     150.044 154.987 162.294  0.00  0.00    -0.054 C 
ATOM      7  C5  UNL     1     150.163 154.014 163.357  0.00  0.00    -0.062 C 
ATOM      8  C6  UNL     1     149.187 153.787 164.253  0.00  0.00    -0.049 C 
ATOM      9  C7  UNL     1     149.230 152.792 165.395  0.00  0.00    +0.130 C 
ATOM     10  O1  UNL     1     150.500 152.109 165.414  0.00  0.00    -0.262 OA
ATOM     11  N2  UNL     1     150.731 151.652 166.721  0.00  0.00    -0.269 N 
ATOM     12  C8  UNL     1     151.830 152.135 167.386  0.00  0.00    +0.043 C 
ATOM     13  C9  UNL     1     152.540 153.257 167.179  0.00  0.00    -0.041 C 
ATOM     14  C10 UNL     1     153.609 153.350 168.138  0.00  0.00    -0.064 C 
ATOM     15  C11 UNL     1     153.574 152.285 168.950  0.00  0.00    -0.078 C 
ATOM     16  C12 UNL     1     152.431 151.392 168.560  0.00  0.00    +0.008 C 
ATOM     17  C13 UNL     1     148.103 151.774 165.276  0.00  0.00    -0.011 A 
ATOM     18  C14 UNL     1     147.029 151.798 166.176  0.00  0.00    -0.054 A 
ATOM     19  C15 UNL     1     145.991 150.870 166.066  0.00  0.00    -0.042 A 
ATOM     20  C16 UNL     1     146.011 149.906 165.054  0.00  0.00    +0.059 A 
ATOM     21 CL1  UNL     1     144.693 148.789 164.982  0.00  0.00    -0.082 Cl
ATOM     22  C17 UNL     1     147.075 149.871 164.148  0.00  0.00    +0.060 A 
ATOM     23 CL2  UNL     1     147.169 148.709 162.873  0.00  0.00    -0.082 Cl
ATOM     24  C18 UNL     1     148.113 150.801 164.259  0.00  0.00    -0.036 A 
ATOM     25  H   UNL     1     150.040 160.256 158.572  0.00  0.00    +0.000 HD
ATOM     26  H   UNL     1     150.931 159.646 159.840  0.00  0.00    +0.000 HD
ATOM     27  H   UNL     1     150.124 151.005 167.146  0.00  0.00    +0.000 HD
ENDROOT
TORSDOF 0
ENDMDL
