MODEL 1
REMARK VINA RESULT:    -7.857      0.000      0.000
REMARK INTER + INTRA:          -7.857
REMARK INTER:                  -7.857
REMARK INTRA:                   0.000
REMARK UNBOUND:                 0.000
REMARK  Name = /home/vital/Documents/PhD_2021/Malaria_codes/scripts/../data/pdbqt_ligands/ligand_426_temp.pdb
REMARK                            x       y       z     vdW  Elec       q    Type
REMARK                         _______ _______ _______ _____ _____    ______ ____
ROOT
ATOM      1  C1  UNL     1     151.478 158.856 163.160  0.00  0.00    -0.061 C 
ATOM      2  C2  UNL     1     152.312 157.583 163.186  0.00  0.00    -0.029 C 
ATOM      3  C3  UNL     1     151.469 156.344 162.970  0.00  0.00    -0.026 A 
ATOM      4  C4  UNL     1     151.066 155.631 164.117  0.00  0.00    -0.057 A 
ATOM      5  C5  UNL     1     150.284 154.483 164.012  0.00  0.00    -0.061 A 
ATOM      6  C6  UNL     1     149.886 154.037 162.760  0.00  0.00    -0.060 A 
ATOM      7  C7  UNL     1     150.269 154.736 161.612  0.00  0.00    -0.040 A 
ATOM      8  C8  UNL     1     151.064 155.887 161.696  0.00  0.00    +0.038 A 
ATOM      9  N1  UNL     1     151.439 156.620 160.544  0.00  0.00    -0.269 N 
ATOM     10  C9  UNL     1     151.323 156.235 159.216  0.00  0.00    +0.308 C 
ATOM     11  O1  UNL     1     150.988 155.127 158.824  0.00  0.00    -0.252 OA
ATOM     12  N2  UNL     1     151.645 157.302 158.386  0.00  0.00    -0.269 N 
ATOM     13  C10 UNL     1     151.772 157.285 156.981  0.00  0.00    +0.036 A 
ATOM     14  C11 UNL     1     151.888 158.523 156.336  0.00  0.00    -0.039 A 
ATOM     15  C12 UNL     1     152.025 158.592 154.946  0.00  0.00    -0.040 A 
ATOM     16  C13 UNL     1     152.056 157.422 154.186  0.00  0.00    +0.059 A 
ATOM     17 CL1  UNL     1     152.232 157.580 152.475  0.00  0.00    -0.082 Cl
ATOM     18  C14 UNL     1     151.951 156.181 154.823  0.00  0.00    +0.061 A 
ATOM     19 CL2  UNL     1     151.994 154.691 153.946  0.00  0.00    -0.082 Cl
ATOM     20  C15 UNL     1     151.812 156.116 156.216  0.00  0.00    -0.021 A 
ATOM     21  H   UNL     1     151.829 157.509 160.705  0.00  0.00    +0.000 HD
ATOM     22  H   UNL     1     151.803 158.168 158.828  0.00  0.00    +0.000 HD
ENDROOT
TORSDOF 0
ENDMDL
MODEL 2
REMARK VINA RESULT:    -7.676      3.323      5.231
REMARK INTER + INTRA:          -7.676
REMARK INTER:                  -7.676
REMARK INTRA:                   0.000
REMARK UNBOUND:                 0.000
REMARK  Name = /home/vital/Documents/PhD_2021/Malaria_codes/scripts/../data/pdbqt_ligands/ligand_426_temp.pdb
REMARK                            x       y       z     vdW  Elec       q    Type
REMARK                         _______ _______ _______ _____ _____    ______ ____
ROOT
ATOM      1  C1  UNL     1     152.521 156.209 166.872  0.00  0.00    -0.061 C 
ATOM      2  C2  UNL     1     151.574 157.398 166.936  0.00  0.00    -0.029 C 
ATOM      3  C3  UNL     1     152.242 158.685 166.501  0.00  0.00    -0.026 A 
ATOM      4  C4  UNL     1     152.737 159.530 167.515  0.00  0.00    -0.057 A 
ATOM      5  C5  UNL     1     153.371 160.730 167.206  0.00  0.00    -0.061 A 
ATOM      6  C6  UNL     1     153.529 161.099 165.878  0.00  0.00    -0.060 A 
ATOM      7  C7  UNL     1     153.054 160.271 164.858  0.00  0.00    -0.040 A 
ATOM      8  C8  UNL     1     152.404 159.064 165.149  0.00  0.00    +0.038 A 
ATOM      9  N1  UNL     1     151.938 158.202 164.127  0.00  0.00    -0.269 N 
ATOM     10  C9  UNL     1     151.815 158.478 162.772  0.00  0.00    +0.308 C 
ATOM     11  O1  UNL     1     151.971 159.573 162.253  0.00  0.00    -0.252 OA
ATOM     12  N2  UNL     1     151.484 157.317 162.083  0.00  0.00    -0.269 N 
ATOM     13  C10 UNL     1     151.148 157.200 160.719  0.00  0.00    +0.036 A 
ATOM     14  C11 UNL     1     151.065 155.905 160.190  0.00  0.00    -0.039 A 
ATOM     15  C12 UNL     1     150.730 155.702 158.848  0.00  0.00    -0.040 A 
ATOM     16  C13 UNL     1     150.465 156.793 158.020  0.00  0.00    +0.059 A 
ATOM     17 CL1  UNL     1     150.054 156.470 156.374  0.00  0.00    -0.082 Cl
ATOM     18  C14 UNL     1     150.535 158.089 158.540  0.00  0.00    +0.061 A 
ATOM     19 CL2  UNL     1     150.208 159.487 157.575  0.00  0.00    -0.082 Cl
ATOM     20  C15 UNL     1     150.873 158.288 159.886  0.00  0.00    -0.021 A 
ATOM     21  H   UNL     1     151.670 157.298 164.411  0.00  0.00    +0.000 HD
ATOM     22  H   UNL     1     151.484 156.483 162.606  0.00  0.00    +0.000 HD
ENDROOT
TORSDOF 0
ENDMDL
MODEL 3
REMARK VINA RESULT:    -7.554      4.011      7.739
REMARK INTER + INTRA:          -7.554
REMARK INTER:                  -7.554
REMARK INTRA:                   0.000
REMARK UNBOUND:                 0.000
REMARK  Name = /home/vital/Documents/PhD_2021/Malaria_codes/scripts/../data/pdbqt_ligands/ligand_426_temp.pdb
REMARK                            x       y       z     vdW  Elec       q    Type
REMARK                         _______ _______ _______ _____ _____    ______ ____
ROOT
ATOM      1  C1  UNL     1     152.489 159.841 158.477  0.00  0.00    -0.061 C 
ATOM      2  C2  UNL     1     151.162 159.389 157.884  0.00  0.00    -0.029 C 
ATOM      3  C3  UNL     1     151.255 158.012 157.262  0.00  0.00    -0.026 A 
ATOM      4  C4  UNL     1     151.448 157.945 155.867  0.00  0.00    -0.057 A 
ATOM      5  C5  UNL     1     151.551 156.721 155.212  0.00  0.00    -0.061 A 
ATOM      6  C6  UNL     1     151.471 155.544 155.944  0.00  0.00    -0.060 A 
ATOM      7  C7  UNL     1     151.289 155.590 157.328  0.00  0.00    -0.040 A 
ATOM      8  C8  UNL     1     151.173 156.812 158.004  0.00  0.00    +0.038 A 
ATOM      9  N1  UNL     1     151.013 156.875 159.409  0.00  0.00    -0.269 N 
ATOM     10  C9  UNL     1     150.709 155.836 160.278  0.00  0.00    +0.308 C 
ATOM     11  O1  UNL     1     150.398 154.702 159.948  0.00  0.00    -0.252 OA
ATOM     12  N2  UNL     1     150.808 156.277 161.593  0.00  0.00    -0.269 N 
ATOM     13  C10 UNL     1     150.459 155.568 162.760  0.00  0.00    +0.036 A 
ATOM     14  C11 UNL     1     150.849 156.125 163.986  0.00  0.00    -0.039 A 
ATOM     15  C12 UNL     1     150.534 155.488 165.190  0.00  0.00    -0.040 A 
ATOM     16  C13 UNL     1     149.818 154.290 165.183  0.00  0.00    +0.059 A 
ATOM     17 CL1  UNL     1     149.461 153.559 166.707  0.00  0.00    -0.082 Cl
ATOM     18  C14 UNL     1     149.416 153.732 163.966  0.00  0.00    +0.061 A 
ATOM     19 CL2  UNL     1     148.516 152.257 163.883  0.00  0.00    -0.082 Cl
ATOM     20  C15 UNL     1     149.735 154.373 162.761  0.00  0.00    -0.021 A 
ATOM     21  H   UNL     1     151.132 157.762 159.819  0.00  0.00    +0.000 HD
ATOM     22  H   UNL     1     151.162 157.187 161.723  0.00  0.00    +0.000 HD
ENDROOT
TORSDOF 0
ENDMDL
MODEL 4
REMARK VINA RESULT:    -7.534      5.370      8.691
REMARK INTER + INTRA:          -7.534
REMARK INTER:                  -7.534
REMARK INTRA:                   0.000
REMARK UNBOUND:                 0.000
REMARK  Name = /home/vital/Documents/PhD_2021/Malaria_codes/scripts/../data/pdbqt_ligands/ligand_426_temp.pdb
REMARK                            x       y       z     vdW  Elec       q    Type
REMARK                         _______ _______ _______ _____ _____    ______ ____
ROOT
ATOM      1  C1  UNL     1     150.027 154.555 159.858  0.00  0.00    -0.061 C 
ATOM      2  C2  UNL     1     151.285 155.201 159.297  0.00  0.00    -0.029 C 
ATOM      3  C3  UNL     1     151.064 156.650 158.921  0.00  0.00    -0.026 A 
ATOM      4  C4  UNL     1     150.794 156.931 157.566  0.00  0.00    -0.057 A 
ATOM      5  C5  UNL     1     150.572 158.236 157.132  0.00  0.00    -0.061 A 
ATOM      6  C6  UNL     1     150.607 159.278 158.048  0.00  0.00    -0.060 A 
ATOM      7  C7  UNL     1     150.865 159.018 159.396  0.00  0.00    -0.040 A 
ATOM      8  C8  UNL     1     151.101 157.714 159.851  0.00  0.00    +0.038 A 
ATOM      9  N1  UNL     1     151.338 157.432 161.218  0.00  0.00    -0.269 N 
ATOM     10  C9  UNL     1     151.615 158.333 162.237  0.00  0.00    +0.308 C 
ATOM     11  O1  UNL     1     151.827 159.527 162.091  0.00  0.00    -0.252 OA
ATOM     12  N2  UNL     1     151.615 157.674 163.461  0.00  0.00    -0.269 N 
ATOM     13  C10 UNL     1     151.975 158.205 164.717  0.00  0.00    +0.036 A 
ATOM     14  C11 UNL     1     151.690 157.425 165.845  0.00  0.00    -0.039 A 
ATOM     15  C12 UNL     1     152.021 157.876 167.126  0.00  0.00    -0.040 A 
ATOM     16  C13 UNL     1     152.651 159.111 167.293  0.00  0.00    +0.059 A 
ATOM     17 CL1  UNL     1     153.035 159.605 168.903  0.00  0.00    -0.082 Cl
ATOM     18  C14 UNL     1     152.948 159.892 166.172  0.00  0.00    +0.061 A 
ATOM     19 CL2  UNL     1     153.737 161.426 166.304  0.00  0.00    -0.082 Cl
ATOM     20  C15 UNL     1     152.613 159.437 164.890  0.00  0.00    -0.021 A 
ATOM     21  H   UNL     1     151.303 156.482 161.477  0.00  0.00    +0.000 HD
ATOM     22  H   UNL     1     151.333 156.731 163.450  0.00  0.00    +0.000 HD
ENDROOT
TORSDOF 0
ENDMDL
MODEL 5
REMARK VINA RESULT:    -7.483      3.487      4.773
REMARK INTER + INTRA:          -7.483
REMARK INTER:                  -7.483
REMARK INTRA:                   0.000
REMARK UNBOUND:                 0.000
REMARK  Name = /home/vital/Documents/PhD_2021/Malaria_codes/scripts/../data/pdbqt_ligands/ligand_426_temp.pdb
REMARK                            x       y       z     vdW  Elec       q    Type
REMARK                         _______ _______ _______ _____ _____    ______ ____
ROOT
ATOM      1  C1  UNL     1     151.707 162.503 165.505  0.00  0.00    -0.061 C 
ATOM      2  C2  UNL     1     152.946 161.622 165.577  0.00  0.00    -0.029 C 
ATOM      3  C3  UNL     1     152.634 160.241 166.111  0.00  0.00    -0.026 A 
ATOM      4  C4  UNL     1     152.874 160.008 167.480  0.00  0.00    -0.057 A 
ATOM      5  C5  UNL     1     152.611 158.769 168.057  0.00  0.00    -0.061 A 
ATOM      6  C6  UNL     1     152.093 157.746 167.275  0.00  0.00    -0.060 A 
ATOM      7  C7  UNL     1     151.840 157.959 165.919  0.00  0.00    -0.040 A 
ATOM      8  C8  UNL     1     152.108 159.196 165.317  0.00  0.00    +0.038 A 
ATOM      9  N1  UNL     1     151.834 159.436 163.949  0.00  0.00    -0.269 N 
ATOM     10  C9  UNL     1     151.519 158.505 162.969  0.00  0.00    +0.308 C 
ATOM     11  O1  UNL     1     151.552 157.291 163.104  0.00  0.00    -0.252 OA
ATOM     12  N2  UNL     1     151.155 159.159 161.797  0.00  0.00    -0.269 N 
ATOM     13  C10 UNL     1     150.888 158.577 160.541  0.00  0.00    +0.036 A 
ATOM     14  C11 UNL     1     150.326 159.404 159.560  0.00  0.00    -0.039 A 
ATOM     15  C12 UNL     1     150.039 158.906 158.286  0.00  0.00    -0.040 A 
ATOM     16  C13 UNL     1     150.317 157.574 157.975  0.00  0.00    +0.059 A 
ATOM     17 CL1  UNL     1     149.940 157.026 156.382  0.00  0.00    -0.082 Cl
ATOM     18  C14 UNL     1     150.887 156.743 158.945  0.00  0.00    +0.061 A 
ATOM     19 CL2  UNL     1     151.270 155.087 158.626  0.00  0.00    -0.082 Cl
ATOM     20  C15 UNL     1     151.172 157.246 160.221  0.00  0.00    -0.021 A 
ATOM     21  H   UNL     1     151.871 160.376 163.658  0.00  0.00    +0.000 HD
ATOM     22  H   UNL     1     151.075 160.139 161.851  0.00  0.00    +0.000 HD
ENDROOT
TORSDOF 0
ENDMDL
MODEL 6
REMARK VINA RESULT:    -7.419      4.334      7.923
REMARK INTER + INTRA:          -7.419
REMARK INTER:                  -7.419
REMARK INTRA:                   0.000
REMARK UNBOUND:                 0.000
REMARK  Name = /home/vital/Documents/PhD_2021/Malaria_codes/scripts/../data/pdbqt_ligands/ligand_426_temp.pdb
REMARK                            x       y       z     vdW  Elec       q    Type
REMARK                         _______ _______ _______ _____ _____    ______ ____
ROOT
ATOM      1  C1  UNL     1     151.761 160.218 158.635  0.00  0.00    -0.061 C 
ATOM      2  C2  UNL     1     150.432 159.561 158.291  0.00  0.00    -0.029 C 
ATOM      3  C3  UNL     1     150.609 158.145 157.784  0.00  0.00    -0.026 A 
ATOM      4  C4  UNL     1     150.613 157.955 156.387  0.00  0.00    -0.057 A 
ATOM      5  C5  UNL     1     150.776 156.688 155.834  0.00  0.00    -0.061 A 
ATOM      6  C6  UNL     1     150.948 155.593 156.669  0.00  0.00    -0.060 A 
ATOM      7  C7  UNL     1     150.956 155.762 158.055  0.00  0.00    -0.040 A 
ATOM      8  C8  UNL     1     150.783 157.028 158.632  0.00  0.00    +0.038 A 
ATOM      9  N1  UNL     1     150.814 157.219 160.034  0.00  0.00    -0.269 N 
ATOM     10  C9  UNL     1     150.766 156.250 161.027  0.00  0.00    +0.308 C 
ATOM     11  O1  UNL     1     150.557 155.059 160.847  0.00  0.00    -0.252 OA
ATOM     12  N2  UNL     1     150.991 156.834 162.267  0.00  0.00    -0.269 N 
ATOM     13  C10 UNL     1     150.900 156.216 163.532  0.00  0.00    +0.036 A 
ATOM     14  C11 UNL     1     151.383 156.938 164.631  0.00  0.00    -0.039 A 
ATOM     15  C12 UNL     1     151.322 156.400 165.920  0.00  0.00    -0.040 A 
ATOM     16  C13 UNL     1     150.768 155.135 166.126  0.00  0.00    +0.059 A 
ATOM     17 CL1  UNL     1     150.721 154.533 167.744  0.00  0.00    -0.082 Cl
ATOM     18  C14 UNL     1     150.274 154.412 165.036  0.00  0.00    +0.061 A 
ATOM     19 CL2  UNL     1     149.563 152.846 165.219  0.00  0.00    -0.082 Cl
ATOM     20  C15 UNL     1     150.338 154.955 163.745  0.00  0.00    -0.021 A 
ATOM     21  H   UNL     1     150.876 158.152 160.343  0.00  0.00    +0.000 HD
ATOM     22  H   UNL     1     151.243 157.786 162.263  0.00  0.00    +0.000 HD
ENDROOT
TORSDOF 0
ENDMDL
MODEL 7
REMARK VINA RESULT:    -7.274      5.421      8.409
REMARK INTER + INTRA:          -7.274
REMARK INTER:                  -7.274
REMARK INTRA:                   0.000
REMARK UNBOUND:                 0.000
REMARK  Name = /home/vital/Documents/PhD_2021/Malaria_codes/scripts/../data/pdbqt_ligands/ligand_426_temp.pdb
REMARK                            x       y       z     vdW  Elec       q    Type
REMARK                         _______ _______ _______ _____ _____    ______ ____
ROOT
ATOM      1  C1  UNL     1     151.648 160.397 157.802  0.00  0.00    -0.061 C 
ATOM      2  C2  UNL     1     150.381 159.645 158.184  0.00  0.00    -0.029 C 
ATOM      3  C3  UNL     1     150.661 158.205 158.556  0.00  0.00    -0.026 A 
ATOM      4  C4  UNL     1     150.465 157.230 157.558  0.00  0.00    -0.057 A 
ATOM      5  C5  UNL     1     150.704 155.882 157.810  0.00  0.00    -0.061 A 
ATOM      6  C6  UNL     1     151.154 155.490 159.064  0.00  0.00    -0.060 A 
ATOM      7  C7  UNL     1     151.363 156.442 160.064  0.00  0.00    -0.040 A 
ATOM      8  C8  UNL     1     151.118 157.802 159.832  0.00  0.00    +0.038 A 
ATOM      9  N1  UNL     1     151.349 158.782 160.827  0.00  0.00    -0.269 N 
ATOM     10  C9  UNL     1     151.593 158.581 162.179  0.00  0.00    +0.308 C 
ATOM     11  O1  UNL     1     151.519 157.510 162.762  0.00  0.00    -0.252 OA
ATOM     12  N2  UNL     1     151.936 159.786 162.780  0.00  0.00    -0.269 N 
ATOM     13  C10 UNL     1     152.134 160.029 164.155  0.00  0.00    +0.036 A 
ATOM     14  C11 UNL     1     152.688 161.265 164.512  0.00  0.00    -0.039 A 
ATOM     15  C12 UNL     1     152.909 161.587 165.855  0.00  0.00    -0.040 A 
ATOM     16  C13 UNL     1     152.570 160.678 166.858  0.00  0.00    +0.059 A 
ATOM     17 CL1  UNL     1     152.867 161.142 168.495  0.00  0.00    -0.082 Cl
ATOM     18  C14 UNL     1     152.007 159.445 166.512  0.00  0.00    +0.061 A 
ATOM     19 CL2  UNL     1     151.551 158.277 167.703  0.00  0.00    -0.082 Cl
ATOM     20  C15 UNL     1     151.788 159.126 165.165  0.00  0.00    -0.021 A 
ATOM     21  H   UNL     1     151.336 159.719 160.524  0.00  0.00    +0.000 HD
ATOM     22  H   UNL     1     152.054 160.557 162.179  0.00  0.00    +0.000 HD
ENDROOT
TORSDOF 0
ENDMDL
MODEL 8
REMARK VINA RESULT:    -7.122      2.348      3.914
REMARK INTER + INTRA:          -7.122
REMARK INTER:                  -7.122
REMARK INTRA:                   0.000
REMARK UNBOUND:                 0.000
REMARK  Name = /home/vital/Documents/PhD_2021/Malaria_codes/scripts/../data/pdbqt_ligands/ligand_426_temp.pdb
REMARK                            x       y       z     vdW  Elec       q    Type
REMARK                         _______ _______ _______ _____ _____    ______ ____
ROOT
ATOM      1  C1  UNL     1     150.485 153.239 164.931  0.00  0.00    -0.061 C 
ATOM      2  C2  UNL     1     149.740 154.533 165.227  0.00  0.00    -0.029 C 
ATOM      3  C3  UNL     1     150.683 155.686 165.499  0.00  0.00    -0.026 A 
ATOM      4  C4  UNL     1     150.950 155.996 166.847  0.00  0.00    -0.057 A 
ATOM      5  C5  UNL     1     151.810 157.037 167.190  0.00  0.00    -0.061 A 
ATOM      6  C6  UNL     1     152.423 157.776 166.188  0.00  0.00    -0.060 A 
ATOM      7  C7  UNL     1     152.178 157.478 164.846  0.00  0.00    -0.040 A 
ATOM      8  C8  UNL     1     151.308 156.441 164.481  0.00  0.00    +0.038 A 
ATOM      9  N1  UNL     1     151.068 156.110 163.125  0.00  0.00    -0.269 N 
ATOM     10  C9  UNL     1     151.412 156.843 161.997  0.00  0.00    +0.308 C 
ATOM     11  O1  UNL     1     151.873 157.974 161.998  0.00  0.00    -0.252 OA
ATOM     12  N2  UNL     1     151.153 156.096 160.854  0.00  0.00    -0.269 N 
ATOM     13  C10 UNL     1     151.245 156.526 159.514  0.00  0.00    +0.036 A 
ATOM     14  C11 UNL     1     151.151 155.543 158.520  0.00  0.00    -0.039 A 
ATOM     15  C12 UNL     1     151.225 155.887 157.167  0.00  0.00    -0.040 A 
ATOM     16  C13 UNL     1     151.386 157.221 156.792  0.00  0.00    +0.059 A 
ATOM     17 CL1  UNL     1     151.466 157.576 155.103  0.00  0.00    -0.082 Cl
ATOM     18  C14 UNL     1     151.470 158.211 157.776  0.00  0.00    +0.061 A 
ATOM     19 CL2  UNL     1     151.658 159.885 157.383  0.00  0.00    -0.082 Cl
ATOM     20  C15 UNL     1     151.397 157.861 159.131  0.00  0.00    -0.021 A 
ATOM     21  H   UNL     1     150.602 155.259 162.963  0.00  0.00    +0.000 HD
ATOM     22  H   UNL     1     150.874 155.162 160.995  0.00  0.00    +0.000 HD
ENDROOT
TORSDOF 0
ENDMDL
MODEL 9
REMARK VINA RESULT:    -7.016      2.464      3.553
REMARK INTER + INTRA:          -7.016
REMARK INTER:                  -7.016
REMARK INTRA:                   0.000
REMARK UNBOUND:                 0.000
REMARK  Name = /home/vital/Documents/PhD_2021/Malaria_codes/scripts/../data/pdbqt_ligands/ligand_426_temp.pdb
REMARK                            x       y       z     vdW  Elec       q    Type
REMARK                         _______ _______ _______ _____ _____    ______ ____
ROOT
ATOM      1  C1  UNL     1     150.695 156.868 166.878  0.00  0.00    -0.061 C 
ATOM      2  C2  UNL     1     151.415 155.581 166.506  0.00  0.00    -0.029 C 
ATOM      3  C3  UNL     1     150.479 154.556 165.901  0.00  0.00    -0.026 A 
ATOM      4  C4  UNL     1     149.974 153.558 166.759  0.00  0.00    -0.057 A 
ATOM      5  C5  UNL     1     149.102 152.580 166.290  0.00  0.00    -0.061 A 
ATOM      6  C6  UNL     1     148.715 152.590 164.957  0.00  0.00    -0.060 A 
ATOM      7  C7  UNL     1     149.198 153.575 164.093  0.00  0.00    -0.040 A 
ATOM      8  C8  UNL     1     150.084 154.563 164.544  0.00  0.00    +0.038 A 
ATOM      9  N1  UNL     1     150.563 155.583 163.688  0.00  0.00    -0.269 N 
ATOM     10  C9  UNL     1     150.464 155.649 162.305  0.00  0.00    +0.308 C 
ATOM     11  O1  UNL     1     150.052 154.757 161.579  0.00  0.00    -0.252 OA
ATOM     12  N2  UNL     1     150.908 156.889 161.859  0.00  0.00    -0.269 N 
ATOM     13  C10 UNL     1     151.084 157.303 160.523  0.00  0.00    +0.036 A 
ATOM     14  C11 UNL     1     151.329 158.664 160.304  0.00  0.00    -0.039 A 
ATOM     15  C12 UNL     1     151.524 159.155 159.009  0.00  0.00    -0.040 A 
ATOM     16  C13 UNL     1     151.484 158.286 157.917  0.00  0.00    +0.059 A 
ATOM     17 CL1  UNL     1     151.736 158.958 156.346  0.00  0.00    -0.082 Cl
ATOM     18  C14 UNL     1     151.250 156.923 158.127  0.00  0.00    +0.061 A 
ATOM     19 CL2  UNL     1     151.199 155.788 156.823  0.00  0.00    -0.082 Cl
ATOM     20  C15 UNL     1     151.054 156.436 159.426  0.00  0.00    -0.021 A 
ATOM     21  H   UNL     1     151.022 156.337 164.126  0.00  0.00    +0.000 HD
ATOM     22  H   UNL     1     151.122 157.552 162.554  0.00  0.00    +0.000 HD
ENDROOT
TORSDOF 0
ENDMDL
