MODEL 1
REMARK VINA RESULT:    -8.590      0.000      0.000
REMARK INTER + INTRA:          -8.590
REMARK INTER:                  -8.590
REMARK INTRA:                   0.000
REMARK UNBOUND:                 0.000
REMARK  Name = /home/vital/Documents/PhD_2021/Malaria_codes/scripts/../data/pdbqt_ligands/ligand_16_temp.pdb
REMARK                            x       y       z     vdW  Elec       q    Type
REMARK                         _______ _______ _______ _____ _____    ______ ____
ROOT
ATOM      1  O   UNL     1     152.498 159.069 161.241  0.00  0.00    -0.388 OA
ATOM      2  C   UNL     1     151.581 158.182 161.901  0.00  0.00    +0.072 C 
ATOM      3  C   UNL     1     150.369 157.922 160.966  0.00  0.00    +0.001 C 
ATOM      4  C   UNL     1     150.680 157.282 159.628  0.00  0.00    -0.044 A 
ATOM      5  C   UNL     1     151.143 158.065 158.558  0.00  0.00    -0.056 A 
ATOM      6  C   UNL     1     151.431 157.479 157.325  0.00  0.00    -0.026 A 
ATOM      7  C   UNL     1     151.250 156.111 157.158  0.00  0.00    +0.123 A 
ATOM      8  F   UNL     1     151.526 155.549 155.974  0.00  0.00    -0.205 F 
ATOM      9  C   UNL     1     150.784 155.320 158.201  0.00  0.00    -0.026 A 
ATOM     10  C   UNL     1     150.496 155.904 159.435  0.00  0.00    -0.056 A 
ATOM     11  C   UNL     1     152.351 156.907 162.301  0.00  0.00    -0.011 C 
ATOM     12  C   UNL     1     151.768 156.291 163.570  0.00  0.00    +0.002 C 
ATOM     13  N   UNL     1     151.929 157.181 164.733  0.00  0.00    -0.298 N 
ATOM     14  C   UNL     1     150.959 156.878 165.798  0.00  0.00    +0.024 C 
ATOM     15  C   UNL     1     151.095 155.476 166.366  0.00  0.00    -0.028 A 
ATOM     16  C   UNL     1     149.993 154.604 166.284  0.00  0.00    -0.057 A 
ATOM     17  C   UNL     1     150.063 153.308 166.797  0.00  0.00    -0.061 A 
ATOM     18  C   UNL     1     151.234 152.864 167.401  0.00  0.00    -0.061 A 
ATOM     19  C   UNL     1     152.334 153.714 167.494  0.00  0.00    -0.056 A 
ATOM     20  C   UNL     1     152.281 155.025 166.990  0.00  0.00    -0.013 A 
ATOM     21  C   UNL     1     153.510 155.896 167.089  0.00  0.00    +0.116 C 
ATOM     22  F   UNL     1     154.430 155.428 167.987  0.00  0.00    -0.244 F 
ATOM     23  C   UNL     1     151.928 158.610 164.379  0.00  0.00    +0.002 C 
ATOM     24  C   UNL     1     151.069 158.926 163.156  0.00  0.00    -0.011 C 
ATOM     25  H   UNL     1     152.845 158.641 160.443  0.00  0.00    +0.000 HD
ATOM     26  H   UNL     1     152.859 156.986 165.105  0.00  0.00    +0.000 HD
ENDROOT
TORSDOF 0
ENDMDL
MODEL 2
REMARK VINA RESULT:    -8.552      3.040      3.779
REMARK INTER + INTRA:          -8.552
REMARK INTER:                  -8.552
REMARK INTRA:                   0.000
REMARK UNBOUND:                 0.000
REMARK  Name = /home/vital/Documents/PhD_2021/Malaria_codes/scripts/../data/pdbqt_ligands/ligand_16_temp.pdb
REMARK                            x       y       z     vdW  Elec       q    Type
REMARK                         _______ _______ _______ _____ _____    ______ ____
ROOT
ATOM      1  O   UNL     1     150.918 161.354 159.965  0.00  0.00    -0.388 OA
ATOM      2  C   UNL     1     150.459 160.574 161.081  0.00  0.00    +0.072 C 
ATOM      3  C   UNL     1     149.408 159.547 160.581  0.00  0.00    +0.001 C 
ATOM      4  C   UNL     1     149.885 158.551 159.543  0.00  0.00    -0.044 A 
ATOM      5  C   UNL     1     149.950 158.916 158.188  0.00  0.00    -0.056 A 
ATOM      6  C   UNL     1     150.389 158.001 157.230  0.00  0.00    -0.026 A 
ATOM      7  C   UNL     1     150.758 156.721 157.623  0.00  0.00    +0.123 A 
ATOM      8  F   UNL     1     151.179 155.844 156.703  0.00  0.00    -0.205 F 
ATOM      9  C   UNL     1     150.693 156.337 158.957  0.00  0.00    -0.026 A 
ATOM     10  C   UNL     1     150.254 157.250 159.917  0.00  0.00    -0.056 A 
ATOM     11  C   UNL     1     151.689 159.935 161.758  0.00  0.00    -0.011 C 
ATOM     12  C   UNL     1     151.457 159.754 163.255  0.00  0.00    +0.002 C 
ATOM     13  N   UNL     1     151.307 161.047 163.945  0.00  0.00    -0.298 N 
ATOM     14  C   UNL     1     150.586 160.911 165.222  0.00  0.00    +0.024 C 
ATOM     15  C   UNL     1     151.294 160.020 166.229  0.00  0.00    -0.028 A 
ATOM     16  C   UNL     1     150.625 158.876 166.705  0.00  0.00    -0.057 A 
ATOM     17  C   UNL     1     151.227 158.028 167.636  0.00  0.00    -0.061 A 
ATOM     18  C   UNL     1     152.504 158.310 168.106  0.00  0.00    -0.061 A 
ATOM     19  C   UNL     1     153.180 159.440 167.648  0.00  0.00    -0.056 A 
ATOM     20  C   UNL     1     152.588 160.310 166.717  0.00  0.00    -0.013 A 
ATOM     21  C   UNL     1     153.374 161.503 166.229  0.00  0.00    +0.116 C 
ATOM     22  F   UNL     1     154.444 161.803 167.026  0.00  0.00    -0.244 F 
ATOM     23  C   UNL     1     150.722 162.097 163.095  0.00  0.00    +0.002 C 
ATOM     24  C   UNL     1     149.753 161.553 162.047  0.00  0.00    -0.011 C 
ATOM     25  H   UNL     1     151.369 160.776 159.330  0.00  0.00    +0.000 HD
ATOM     26  H   UNL     1     152.254 161.359 164.162  0.00  0.00    +0.000 HD
ENDROOT
TORSDOF 0
ENDMDL
MODEL 3
REMARK VINA RESULT:    -8.529      4.960      8.183
REMARK INTER + INTRA:          -8.529
REMARK INTER:                  -8.529
REMARK INTRA:                   0.000
REMARK UNBOUND:                 0.000
REMARK  Name = /home/vital/Documents/PhD_2021/Malaria_codes/scripts/../data/pdbqt_ligands/ligand_16_temp.pdb
REMARK                            x       y       z     vdW  Elec       q    Type
REMARK                         _______ _______ _______ _____ _____    ______ ____
ROOT
ATOM      1  O   UNL     1     147.947 152.895 166.249  0.00  0.00    -0.388 OA
ATOM      2  C   UNL     1     148.679 152.618 165.044  0.00  0.00    +0.072 C 
ATOM      3  C   UNL     1     148.625 151.091 164.762  0.00  0.00    +0.001 C 
ATOM      4  C   UNL     1     147.247 150.495 164.561  0.00  0.00    -0.044 A 
ATOM      5  C   UNL     1     146.449 150.164 165.669  0.00  0.00    -0.056 A 
ATOM      6  C   UNL     1     145.180 149.614 165.488  0.00  0.00    -0.026 A 
ATOM      7  C   UNL     1     144.708 149.389 164.200  0.00  0.00    +0.123 A 
ATOM      8  F   UNL     1     143.489 148.862 164.027  0.00  0.00    -0.205 F 
ATOM      9  C   UNL     1     145.484 149.702 163.091  0.00  0.00    -0.026 A 
ATOM     10  C   UNL     1     146.754 150.251 163.270  0.00  0.00    -0.056 A 
ATOM     11  C   UNL     1     148.090 153.486 163.913  0.00  0.00    -0.011 C 
ATOM     12  C   UNL     1     149.159 153.847 162.887  0.00  0.00    +0.002 C 
ATOM     13  N   UNL     1     150.213 154.696 163.472  0.00  0.00    -0.298 N 
ATOM     14  C   UNL     1     151.467 154.624 162.705  0.00  0.00    +0.024 C 
ATOM     15  C   UNL     1     151.335 155.111 161.272  0.00  0.00    -0.028 A 
ATOM     16  C   UNL     1     151.637 154.219 160.226  0.00  0.00    -0.057 A 
ATOM     17  C   UNL     1     151.539 154.618 158.892  0.00  0.00    -0.061 A 
ATOM     18  C   UNL     1     151.139 155.913 158.584  0.00  0.00    -0.061 A 
ATOM     19  C   UNL     1     150.839 156.810 159.607  0.00  0.00    -0.056 A 
ATOM     20  C   UNL     1     150.939 156.430 160.956  0.00  0.00    -0.013 A 
ATOM     21  C   UNL     1     150.573 157.430 162.026  0.00  0.00    +0.116 C 
ATOM     22  F   UNL     1     150.529 158.718 161.565  0.00  0.00    -0.244 F 
ATOM     23  C   UNL     1     150.431 154.449 164.907  0.00  0.00    +0.002 C 
ATOM     24  C   UNL     1     150.150 153.005 165.318  0.00  0.00    -0.011 C 
ATOM     25  H   UNL     1     147.013 152.665 166.121  0.00  0.00    +0.000 HD
ATOM     26  H   UNL     1     149.869 155.654 163.403  0.00  0.00    +0.000 HD
ENDROOT
TORSDOF 0
ENDMDL
MODEL 4
REMARK VINA RESULT:    -8.391      2.207      2.799
REMARK INTER + INTRA:          -8.391
REMARK INTER:                  -8.391
REMARK INTRA:                   0.000
REMARK UNBOUND:                 0.000
REMARK  Name = /home/vital/Documents/PhD_2021/Malaria_codes/scripts/../data/pdbqt_ligands/ligand_16_temp.pdb
REMARK                            x       y       z     vdW  Elec       q    Type
REMARK                         _______ _______ _______ _____ _____    ______ ____
ROOT
ATOM      1  O   UNL     1     152.724 160.944 164.149  0.00  0.00    -0.388 OA
ATOM      2  C   UNL     1     151.775 159.867 164.210  0.00  0.00    +0.072 C 
ATOM      3  C   UNL     1     150.688 160.091 163.123  0.00  0.00    +0.001 C 
ATOM      4  C   UNL     1     151.176 160.138 161.689  0.00  0.00    -0.044 A 
ATOM      5  C   UNL     1     151.725 161.320 161.166  0.00  0.00    -0.056 A 
ATOM      6  C   UNL     1     152.175 161.367 159.846  0.00  0.00    -0.026 A 
ATOM      7  C   UNL     1     152.070 160.237 159.046  0.00  0.00    +0.123 A 
ATOM      8  F   UNL     1     152.501 160.283 157.778  0.00  0.00    -0.205 F 
ATOM      9  C   UNL     1     151.521 159.060 159.541  0.00  0.00    -0.026 A 
ATOM     10  C   UNL     1     151.071 159.011 160.861  0.00  0.00    -0.056 A 
ATOM     11  C   UNL     1     152.545 158.539 164.065  0.00  0.00    -0.011 C 
ATOM     12  C   UNL     1     151.847 157.415 164.825  0.00  0.00    +0.002 C 
ATOM     13  N   UNL     1     151.839 157.661 166.278  0.00  0.00    -0.298 N 
ATOM     14  C   UNL     1     150.767 156.916 166.958  0.00  0.00    +0.024 C 
ATOM     15  C   UNL     1     150.895 155.408 166.826  0.00  0.00    -0.028 A 
ATOM     16  C   UNL     1     149.845 154.693 166.219  0.00  0.00    -0.057 A 
ATOM     17  C   UNL     1     149.909 153.305 166.079  0.00  0.00    -0.061 A 
ATOM     18  C   UNL     1     151.021 152.612 166.544  0.00  0.00    -0.061 A 
ATOM     19  C   UNL     1     152.068 153.304 167.150  0.00  0.00    -0.056 A 
ATOM     20  C   UNL     1     152.019 154.699 167.307  0.00  0.00    -0.013 A 
ATOM     21  C   UNL     1     153.193 155.405 167.943  0.00  0.00    +0.116 C 
ATOM     22  F   UNL     1     154.022 154.558 168.626  0.00  0.00    -0.244 F 
ATOM     23  C   UNL     1     151.820 159.091 166.627  0.00  0.00    +0.002 C 
ATOM     24  C   UNL     1     151.094 159.953 165.596  0.00  0.00    -0.011 C 
ATOM     25  H   UNL     1     153.177 160.928 163.292  0.00  0.00    +0.000 HD
ATOM     26  H   UNL     1     152.728 157.301 166.626  0.00  0.00    +0.000 HD
ENDROOT
TORSDOF 0
ENDMDL
MODEL 5
REMARK VINA RESULT:    -8.265      3.183      4.897
REMARK INTER + INTRA:          -8.265
REMARK INTER:                  -8.265
REMARK INTRA:                   0.000
REMARK UNBOUND:                 0.000
REMARK  Name = /home/vital/Documents/PhD_2021/Malaria_codes/scripts/../data/pdbqt_ligands/ligand_16_temp.pdb
REMARK                            x       y       z     vdW  Elec       q    Type
REMARK                         _______ _______ _______ _____ _____    ______ ____
ROOT
ATOM      1  O   UNL     1     152.331 159.413 156.602  0.00  0.00    -0.388 OA
ATOM      2  C   UNL     1     151.412 158.399 157.040  0.00  0.00    +0.072 C 
ATOM      3  C   UNL     1     150.711 157.782 155.799  0.00  0.00    +0.001 C 
ATOM      4  C   UNL     1     151.616 157.116 154.782  0.00  0.00    -0.044 A 
ATOM      5  C   UNL     1     152.296 157.887 153.825  0.00  0.00    -0.056 A 
ATOM      6  C   UNL     1     153.129 157.277 152.887  0.00  0.00    -0.026 A 
ATOM      7  C   UNL     1     153.279 155.895 152.900  0.00  0.00    +0.123 A 
ATOM      8  F   UNL     1     154.079 155.310 151.999  0.00  0.00    -0.205 F 
ATOM      9  C   UNL     1     152.608 155.113 153.832  0.00  0.00    -0.026 A 
ATOM     10  C   UNL     1     151.774 155.722 154.771  0.00  0.00    -0.056 A 
ATOM     11  C   UNL     1     152.194 157.378 157.892  0.00  0.00    -0.011 C 
ATOM     12  C   UNL     1     151.299 156.759 158.962  0.00  0.00    +0.002 C 
ATOM     13  N   UNL     1     150.844 157.762 159.941  0.00  0.00    -0.298 N 
ATOM     14  C   UNL     1     149.618 157.337 160.636  0.00  0.00    +0.024 C 
ATOM     15  C   UNL     1     149.784 156.061 161.443  0.00  0.00    -0.028 A 
ATOM     16  C   UNL     1     148.975 154.954 161.129  0.00  0.00    -0.057 A 
ATOM     17  C   UNL     1     149.083 153.760 161.845  0.00  0.00    -0.061 A 
ATOM     18  C   UNL     1     149.999 153.656 162.884  0.00  0.00    -0.061 A 
ATOM     19  C   UNL     1     150.807 154.743 163.211  0.00  0.00    -0.056 A 
ATOM     20  C   UNL     1     150.708 155.956 162.508  0.00  0.00    -0.013 A 
ATOM     21  C   UNL     1     151.628 157.094 162.881  0.00  0.00    +0.116 C 
ATOM     22  F   UNL     1     152.209 156.934 164.108  0.00  0.00    -0.244 F 
ATOM     23  C   UNL     1     150.715 159.114 159.374  0.00  0.00    +0.002 C 
ATOM     24  C   UNL     1     150.337 159.112 157.894  0.00  0.00    -0.011 C 
ATOM     25  H   UNL     1     153.025 159.008 156.059  0.00  0.00    +0.000 HD
ATOM     26  H   UNL     1     151.584 157.822 160.641  0.00  0.00    +0.000 HD
ENDROOT
TORSDOF 0
ENDMDL
MODEL 6
REMARK VINA RESULT:    -7.967      2.774      7.863
REMARK INTER + INTRA:          -7.967
REMARK INTER:                  -7.967
REMARK INTRA:                   0.000
REMARK UNBOUND:                 0.000
REMARK  Name = /home/vital/Documents/PhD_2021/Malaria_codes/scripts/../data/pdbqt_ligands/ligand_16_temp.pdb
REMARK                            x       y       z     vdW  Elec       q    Type
REMARK                         _______ _______ _______ _____ _____    ______ ____
ROOT
ATOM      1  O   UNL     1     152.186 155.836 166.470  0.00  0.00    -0.388 OA
ATOM      2  C   UNL     1     151.517 156.548 165.417  0.00  0.00    +0.072 C 
ATOM      3  C   UNL     1     150.968 157.886 165.982  0.00  0.00    +0.001 C 
ATOM      4  C   UNL     1     151.996 158.845 166.548  0.00  0.00    -0.044 A 
ATOM      5  C   UNL     1     152.485 158.670 167.853  0.00  0.00    -0.056 A 
ATOM      6  C   UNL     1     153.431 159.552 168.378  0.00  0.00    -0.026 A 
ATOM      7  C   UNL     1     153.885 160.612 167.602  0.00  0.00    +0.123 A 
ATOM      8  F   UNL     1     154.793 161.457 168.106  0.00  0.00    -0.205 F 
ATOM      9  C   UNL     1     153.407 160.808 166.312  0.00  0.00    -0.026 A 
ATOM     10  C   UNL     1     152.460 159.927 165.785  0.00  0.00    -0.056 A 
ATOM     11  C   UNL     1     152.508 156.719 164.247  0.00  0.00    -0.011 C 
ATOM     12  C   UNL     1     151.776 156.746 162.909  0.00  0.00    +0.002 C 
ATOM     13  N   UNL     1     151.112 155.462 162.623  0.00  0.00    -0.298 N 
ATOM     14  C   UNL     1     150.012 155.613 161.657  0.00  0.00    +0.024 C 
ATOM     15  C   UNL     1     150.460 156.123 160.298  0.00  0.00    -0.028 A 
ATOM     16  C   UNL     1     149.916 157.329 159.817  0.00  0.00    -0.057 A 
ATOM     17  C   UNL     1     150.288 157.837 158.571  0.00  0.00    -0.061 A 
ATOM     18  C   UNL     1     151.208 157.149 157.788  0.00  0.00    -0.061 A 
ATOM     19  C   UNL     1     151.754 155.952 158.248  0.00  0.00    -0.056 A 
ATOM     20  C   UNL     1     151.387 155.420 159.495  0.00  0.00    -0.013 A 
ATOM     21  C   UNL     1     152.030 154.135 159.960  0.00  0.00    +0.116 C 
ATOM     22  F   UNL     1     152.636 153.442 158.949  0.00  0.00    -0.244 F 
ATOM     23  C   UNL     1     150.683 154.745 163.836  0.00  0.00    +0.002 C 
ATOM     24  C   UNL     1     150.313 155.678 164.987  0.00  0.00    -0.011 C 
ATOM     25  H   UNL     1     152.952 156.348 166.771  0.00  0.00    +0.000 HD
ATOM     26  H   UNL     1     151.821 154.873 162.187  0.00  0.00    +0.000 HD
ENDROOT
TORSDOF 0
ENDMDL
MODEL 7
REMARK VINA RESULT:    -7.688      4.612      6.491
REMARK INTER + INTRA:          -7.688
REMARK INTER:                  -7.688
REMARK INTRA:                   0.000
REMARK UNBOUND:                 0.000
REMARK  Name = /home/vital/Documents/PhD_2021/Malaria_codes/scripts/../data/pdbqt_ligands/ligand_16_temp.pdb
REMARK                            x       y       z     vdW  Elec       q    Type
REMARK                         _______ _______ _______ _____ _____    ______ ____
ROOT
ATOM      1  O   UNL     1     149.606 153.034 167.229  0.00  0.00    -0.388 OA
ATOM      2  C   UNL     1     150.351 153.903 166.361  0.00  0.00    +0.072 C 
ATOM      3  C   UNL     1     150.606 153.173 165.014  0.00  0.00    +0.001 C 
ATOM      4  C   UNL     1     149.375 152.757 164.234  0.00  0.00    -0.044 A 
ATOM      5  C   UNL     1     148.689 151.579 164.568  0.00  0.00    -0.056 A 
ATOM      6  C   UNL     1     147.555 151.194 163.851  0.00  0.00    -0.026 A 
ATOM      7  C   UNL     1     147.111 151.982 162.797  0.00  0.00    +0.123 A 
ATOM      8  F   UNL     1     146.023 151.611 162.109  0.00  0.00    -0.205 F 
ATOM      9  C   UNL     1     147.780 153.147 162.444  0.00  0.00    -0.026 A 
ATOM     10  C   UNL     1     148.915 153.534 163.160  0.00  0.00    -0.056 A 
ATOM     11  C   UNL     1     149.571 155.226 166.221  0.00  0.00    -0.011 C 
ATOM     12  C   UNL     1     150.520 156.400 166.001  0.00  0.00    +0.002 C 
ATOM     13  N   UNL     1     151.390 156.626 167.169  0.00  0.00    -0.298 N 
ATOM     14  C   UNL     1     152.614 157.360 166.811  0.00  0.00    +0.024 C 
ATOM     15  C   UNL     1     152.352 158.749 166.254  0.00  0.00    -0.028 A 
ATOM     16  C   UNL     1     152.807 159.054 164.958  0.00  0.00    -0.057 A 
ATOM     17  C   UNL     1     152.599 160.317 164.403  0.00  0.00    -0.061 A 
ATOM     18  C   UNL     1     151.934 161.295 165.134  0.00  0.00    -0.061 A 
ATOM     19  C   UNL     1     151.479 161.012 166.420  0.00  0.00    -0.056 A 
ATOM     20  C   UNL     1     151.686 159.748 167.000  0.00  0.00    -0.013 A 
ATOM     21  C   UNL     1     151.146 159.483 168.385  0.00  0.00    +0.116 C 
ATOM     22  F   UNL     1     150.829 160.625 169.066  0.00  0.00    -0.244 F 
ATOM     23  C   UNL     1     151.686 155.396 167.921  0.00  0.00    +0.002 C 
ATOM     24  C   UNL     1     151.718 154.146 167.043  0.00  0.00    -0.011 C 
ATOM     25  H   UNL     1     148.737 152.854 166.838  0.00  0.00    +0.000 HD
ATOM     26  H   UNL     1     150.854 157.219 167.803  0.00  0.00    +0.000 HD
ENDROOT
TORSDOF 0
ENDMDL
MODEL 8
REMARK VINA RESULT:    -7.623      3.909      4.368
REMARK INTER + INTRA:          -7.623
REMARK INTER:                  -7.623
REMARK INTRA:                   0.000
REMARK UNBOUND:                 0.000
REMARK  Name = /home/vital/Documents/PhD_2021/Malaria_codes/scripts/../data/pdbqt_ligands/ligand_16_temp.pdb
REMARK                            x       y       z     vdW  Elec       q    Type
REMARK                         _______ _______ _______ _____ _____    ______ ____
ROOT
ATOM      1  O   UNL     1     152.160 160.347 160.397  0.00  0.00    -0.388 OA
ATOM      2  C   UNL     1     151.239 160.097 161.471  0.00  0.00    +0.072 C 
ATOM      3  C   UNL     1     150.074 159.216 160.941  0.00  0.00    +0.001 C 
ATOM      4  C   UNL     1     150.458 157.856 160.395  0.00  0.00    -0.044 A 
ATOM      5  C   UNL     1     150.946 157.731 159.084  0.00  0.00    -0.056 A 
ATOM      6  C   UNL     1     151.301 156.480 158.577  0.00  0.00    -0.026 A 
ATOM      7  C   UNL     1     151.162 155.353 159.377  0.00  0.00    +0.123 A 
ATOM      8  F   UNL     1     151.502 154.152 158.890  0.00  0.00    -0.205 F 
ATOM      9  C   UNL     1     150.673 155.453 160.674  0.00  0.00    -0.026 A 
ATOM     10  C   UNL     1     150.318 156.703 161.182  0.00  0.00    -0.056 A 
ATOM     11  C   UNL     1     152.023 159.466 162.640  0.00  0.00    -0.011 C 
ATOM     12  C   UNL     1     151.402 159.842 163.981  0.00  0.00    +0.002 C 
ATOM     13  N   UNL     1     151.492 161.291 164.238  0.00  0.00    -0.298 N 
ATOM     14  C   UNL     1     150.485 161.741 165.213  0.00  0.00    +0.024 C 
ATOM     15  C   UNL     1     150.633 161.100 166.582  0.00  0.00    -0.028 A 
ATOM     16  C   UNL     1     149.558 160.351 167.096  0.00  0.00    -0.057 A 
ATOM     17  C   UNL     1     149.639 159.748 168.352  0.00  0.00    -0.061 A 
ATOM     18  C   UNL     1     150.794 159.884 169.113  0.00  0.00    -0.061 A 
ATOM     19  C   UNL     1     151.867 160.625 168.622  0.00  0.00    -0.056 A 
ATOM     20  C   UNL     1     151.802 161.246 167.363  0.00  0.00    -0.013 A 
ATOM     21  C   UNL     1     153.004 162.012 166.863  0.00  0.00    +0.116 C 
ATOM     22  F   UNL     1     153.895 162.318 167.854  0.00  0.00    -0.244 F 
ATOM     23  C   UNL     1     151.469 162.102 163.010  0.00  0.00    +0.002 C 
ATOM     24  C   UNL     1     150.655 161.468 161.884  0.00  0.00    -0.011 C 
ATOM     25  H   UNL     1     152.551 159.509 160.105  0.00  0.00    +0.000 HD
ATOM     26  H   UNL     1     152.410 161.442 164.656  0.00  0.00    +0.000 HD
ENDROOT
TORSDOF 0
ENDMDL
MODEL 9
REMARK VINA RESULT:    -7.262     13.062     16.623
REMARK INTER + INTRA:          -7.262
REMARK INTER:                  -7.262
REMARK INTRA:                   0.000
REMARK UNBOUND:                 0.000
REMARK  Name = /home/vital/Documents/PhD_2021/Malaria_codes/scripts/../data/pdbqt_ligands/ligand_16_temp.pdb
REMARK                            x       y       z     vdW  Elec       q    Type
REMARK                         _______ _______ _______ _____ _____    ______ ____
ROOT
ATOM      1  O   UNL     1     145.523 141.650 165.868  0.00  0.00    -0.388 OA
ATOM      2  C   UNL     1     144.356 142.419 165.534  0.00  0.00    +0.072 C 
ATOM      3  C   UNL     1     143.136 141.464 165.430  0.00  0.00    +0.001 C 
ATOM      4  C   UNL     1     142.782 140.691 166.684  0.00  0.00    -0.044 A 
ATOM      5  C   UNL     1     143.479 139.517 167.013  0.00  0.00    -0.056 A 
ATOM      6  C   UNL     1     143.155 138.802 168.167  0.00  0.00    -0.026 A 
ATOM      7  C   UNL     1     142.130 139.256 168.989  0.00  0.00    +0.123 A 
ATOM      8  F   UNL     1     141.820 138.570 170.096  0.00  0.00    -0.205 F 
ATOM      9  C   UNL     1     141.423 140.410 168.677  0.00  0.00    -0.026 A 
ATOM     10  C   UNL     1     141.745 141.126 167.523  0.00  0.00    -0.056 A 
ATOM     11  C   UNL     1     144.195 143.532 166.589  0.00  0.00    -0.011 C 
ATOM     12  C   UNL     1     143.541 144.769 165.984  0.00  0.00    +0.002 C 
ATOM     13  N   UNL     1     144.389 145.386 164.949  0.00  0.00    -0.298 N 
ATOM     14  C   UNL     1     143.607 146.215 164.017  0.00  0.00    +0.024 C 
ATOM     15  C   UNL     1     142.906 147.386 164.685  0.00  0.00    -0.028 A 
ATOM     16  C   UNL     1     141.504 147.471 164.600  0.00  0.00    -0.057 A 
ATOM     17  C   UNL     1     140.812 148.530 165.189  0.00  0.00    -0.061 A 
ATOM     18  C   UNL     1     141.510 149.520 165.870  0.00  0.00    -0.061 A 
ATOM     19  C   UNL     1     142.899 149.454 165.962  0.00  0.00    -0.056 A 
ATOM     20  C   UNL     1     143.614 148.401 165.369  0.00  0.00    -0.013 A 
ATOM     21  C   UNL     1     145.116 148.359 165.523  0.00  0.00    +0.116 C 
ATOM     22  F   UNL     1     145.648 149.554 165.920  0.00  0.00    -0.244 F 
ATOM     23  C   UNL     1     145.239 144.416 164.239  0.00  0.00    +0.002 C 
ATOM     24  C   UNL     1     144.611 143.027 164.135  0.00  0.00    -0.011 C 
ATOM     25  H   UNL     1     145.405 141.247 166.743  0.00  0.00    +0.000 HD
ATOM     26  H   UNL     1     145.028 146.006 165.446  0.00  0.00    +0.000 HD
ENDROOT
TORSDOF 0
ENDMDL
