MODEL 1
REMARK VINA RESULT:    -8.984      0.000      0.000
REMARK INTER + INTRA:          -8.984
REMARK INTER:                  -8.984
REMARK INTRA:                   0.000
REMARK UNBOUND:                 0.000
REMARK  Name = /home/vital/Documents/PhD_2021/Malaria_codes/scripts/../data/pdbqt_ligands/ligand_196_temp.pdb
REMARK                            x       y       z     vdW  Elec       q    Type
REMARK                         _______ _______ _______ _____ _____    ______ ____
ROOT
ATOM      1  C   UNL     1     156.868 151.012 149.853  0.00  0.00    -0.060 C 
ATOM      2  C   UNL     1     156.918 152.358 149.105  0.00  0.00    -0.036 C 
ATOM      3  C   UNL     1     156.566 152.057 147.625  0.00  0.00    -0.060 C 
ATOM      4  C   UNL     1     158.349 152.904 149.134  0.00  0.00    -0.060 C 
ATOM      5  C   UNL     1     155.841 153.360 149.633  0.00  0.00    -0.030 C 
ATOM      6  C   UNL     1     155.967 154.161 150.976  0.00  0.00    +0.014 C 
ATOM      7  C   UNL     1     156.946 155.341 150.829  0.00  0.00    -0.047 C 
ATOM      8  C   UNL     1     156.393 153.278 152.154  0.00  0.00    -0.047 C 
ATOM      9  N   UNL     1     154.590 154.695 151.183  0.00  0.00    -0.308 N 
ATOM     10  C   UNL     1     154.340 155.458 152.422  0.00  0.00    +0.027 C 
ATOM     11  C   UNL     1     152.842 155.851 152.488  0.00  0.00    +0.093 C 
ATOM     12  O   UNL     1     152.045 154.671 152.335  0.00  0.00    -0.386 OA
ATOM     13  C   UNL     1     152.500 156.553 153.784  0.00  0.00    -0.018 A 
ATOM     14  C   UNL     1     152.152 155.829 154.936  0.00  0.00    -0.055 A 
ATOM     15  C   UNL     1     151.868 156.487 156.135  0.00  0.00    -0.043 A 
ATOM     16  C   UNL     1     151.935 157.876 156.193  0.00  0.00    +0.041 A 
ATOM     17 CL   UNL     1     151.592 158.689 157.670  0.00  0.00    -0.084 Cl
ATOM     18  C   UNL     1     152.281 158.613 155.062  0.00  0.00    -0.043 A 
ATOM     19  C   UNL     1     152.564 157.952 153.862  0.00  0.00    -0.055 A 
ATOM     20  H   UNL     1     153.949 153.901 151.177  0.00  0.00    +0.000 HD
ATOM     21  H   UNL     1     154.453 155.368 150.428  0.00  0.00    +0.000 HD
ATOM     22  H   UNL     1     152.239 154.054 153.057  0.00  0.00    +0.000 HD
ENDROOT
TORSDOF 0
ENDMDL
MODEL 2
REMARK VINA RESULT:    -8.654      4.500      9.481
REMARK INTER + INTRA:          -8.654
REMARK INTER:                  -8.654
REMARK INTRA:                   0.000
REMARK UNBOUND:                 0.000
REMARK  Name = /home/vital/Documents/PhD_2021/Malaria_codes/scripts/../data/pdbqt_ligands/ligand_196_temp.pdb
REMARK                            x       y       z     vdW  Elec       q    Type
REMARK                         _______ _______ _______ _____ _____    ______ ____
ROOT
ATOM      1  C   UNL     1     149.544 159.083 161.003  0.00  0.00    -0.060 C 
ATOM      2  C   UNL     1     150.907 159.747 160.732  0.00  0.00    -0.036 C 
ATOM      3  C   UNL     1     151.721 159.642 162.049  0.00  0.00    -0.060 C 
ATOM      4  C   UNL     1     150.700 161.236 160.439  0.00  0.00    -0.060 C 
ATOM      5  C   UNL     1     151.721 158.986 159.636  0.00  0.00    -0.030 C 
ATOM      6  C   UNL     1     151.428 159.082 158.097  0.00  0.00    +0.014 C 
ATOM      7  C   UNL     1     151.948 160.411 157.515  0.00  0.00    -0.047 C 
ATOM      8  C   UNL     1     149.940 158.919 157.767  0.00  0.00    -0.047 C 
ATOM      9  N   UNL     1     152.226 157.958 157.529  0.00  0.00    -0.308 N 
ATOM     10  C   UNL     1     152.118 157.720 156.076  0.00  0.00    +0.027 C 
ATOM     11  C   UNL     1     152.950 156.467 155.699  0.00  0.00    +0.093 C 
ATOM     12  O   UNL     1     152.537 155.370 156.523  0.00  0.00    -0.386 OA
ATOM     13  C   UNL     1     152.802 156.111 154.236  0.00  0.00    -0.018 A 
ATOM     14  C   UNL     1     151.750 155.298 153.785  0.00  0.00    -0.055 A 
ATOM     15  C   UNL     1     151.607 155.002 152.427  0.00  0.00    -0.043 A 
ATOM     16  C   UNL     1     152.514 155.522 151.508  0.00  0.00    +0.041 A 
ATOM     17 CL   UNL     1     152.336 155.164 149.834  0.00  0.00    -0.084 Cl
ATOM     18  C   UNL     1     153.563 156.333 151.935  0.00  0.00    -0.043 A 
ATOM     19  C   UNL     1     153.706 156.627 153.294  0.00  0.00    -0.055 A 
ATOM     20  H   UNL     1     151.932 157.104 158.002  0.00  0.00    +0.000 HD
ATOM     21  H   UNL     1     153.199 158.223 157.680  0.00  0.00    +0.000 HD
ATOM     22  H   UNL     1     151.599 155.182 156.364  0.00  0.00    +0.000 HD
ENDROOT
TORSDOF 0
ENDMDL
MODEL 3
REMARK VINA RESULT:    -7.405      5.737     11.034
REMARK INTER + INTRA:          -7.405
REMARK INTER:                  -7.405
REMARK INTRA:                   0.000
REMARK UNBOUND:                 0.000
REMARK  Name = /home/vital/Documents/PhD_2021/Malaria_codes/scripts/../data/pdbqt_ligands/ligand_196_temp.pdb
REMARK                            x       y       z     vdW  Elec       q    Type
REMARK                         _______ _______ _______ _____ _____    ______ ____
ROOT
ATOM      1  C   UNL     1     151.562 162.480 162.504  0.00  0.00    -0.060 C 
ATOM      2  C   UNL     1     150.869 161.158 162.887  0.00  0.00    -0.036 C 
ATOM      3  C   UNL     1     149.580 161.541 163.661  0.00  0.00    -0.060 C 
ATOM      4  C   UNL     1     151.765 160.373 163.851  0.00  0.00    -0.060 C 
ATOM      5  C   UNL     1     150.419 160.347 161.630  0.00  0.00    -0.030 C 
ATOM      6  C   UNL     1     151.393 159.513 160.725  0.00  0.00    +0.014 C 
ATOM      7  C   UNL     1     151.779 158.184 161.404  0.00  0.00    -0.047 C 
ATOM      8  C   UNL     1     152.659 160.288 160.347  0.00  0.00    -0.047 C 
ATOM      9  N   UNL     1     150.568 159.220 159.518  0.00  0.00    -0.308 N 
ATOM     10  C   UNL     1     151.222 158.490 158.414  0.00  0.00    +0.027 C 
ATOM     11  C   UNL     1     150.231 158.359 157.229  0.00  0.00    +0.093 C 
ATOM     12  O   UNL     1     149.743 159.661 156.886  0.00  0.00    -0.386 OA
ATOM     13  C   UNL     1     150.874 157.704 156.026  0.00  0.00    -0.018 A 
ATOM     14  C   UNL     1     151.589 158.457 155.080  0.00  0.00    -0.055 A 
ATOM     15  C   UNL     1     152.204 157.836 153.990  0.00  0.00    -0.043 A 
ATOM     16  C   UNL     1     152.113 156.455 153.840  0.00  0.00    +0.041 A 
ATOM     17 CL   UNL     1     152.874 155.688 152.502  0.00  0.00    -0.084 Cl
ATOM     18  C   UNL     1     151.410 155.691 154.769  0.00  0.00    -0.043 A 
ATOM     19  C   UNL     1     150.794 156.313 155.858  0.00  0.00    -0.055 A 
ATOM     20  H   UNL     1     150.243 160.112 159.146  0.00  0.00    +0.000 HD
ATOM     21  H   UNL     1     149.833 158.594 159.847  0.00  0.00    +0.000 HD
ATOM     22  H   UNL     1     150.485 160.223 156.613  0.00  0.00    +0.000 HD
ENDROOT
TORSDOF 0
ENDMDL
MODEL 4
REMARK VINA RESULT:    -7.143      8.634     12.101
REMARK INTER + INTRA:          -7.143
REMARK INTER:                  -7.143
REMARK INTRA:                   0.000
REMARK UNBOUND:                 0.000
REMARK  Name = /home/vital/Documents/PhD_2021/Malaria_codes/scripts/../data/pdbqt_ligands/ligand_196_temp.pdb
REMARK                            x       y       z     vdW  Elec       q    Type
REMARK                         _______ _______ _______ _____ _____    ______ ____
ROOT
ATOM      1  C   UNL     1     152.094 158.515 157.325  0.00  0.00    -0.060 C 
ATOM      2  C   UNL     1     150.796 158.050 158.012  0.00  0.00    -0.036 C 
ATOM      3  C   UNL     1     150.525 156.605 157.516  0.00  0.00    -0.060 C 
ATOM      4  C   UNL     1     149.628 158.923 157.541  0.00  0.00    -0.060 C 
ATOM      5  C   UNL     1     150.950 157.975 159.565  0.00  0.00    -0.030 C 
ATOM      6  C   UNL     1     150.941 159.225 160.513  0.00  0.00    +0.014 C 
ATOM      7  C   UNL     1     149.510 159.758 160.714  0.00  0.00    -0.047 C 
ATOM      8  C   UNL     1     151.849 160.354 160.012  0.00  0.00    -0.047 C 
ATOM      9  N   UNL     1     151.441 158.675 161.806  0.00  0.00    -0.308 N 
ATOM     10  C   UNL     1     151.622 159.627 162.920  0.00  0.00    +0.027 C 
ATOM     11  C   UNL     1     152.222 158.880 164.139  0.00  0.00    +0.093 C 
ATOM     12  O   UNL     1     153.414 158.201 163.726  0.00  0.00    -0.386 OA
ATOM     13  C   UNL     1     152.523 159.822 165.285  0.00  0.00    -0.018 A 
ATOM     14  C   UNL     1     153.744 160.511 165.362  0.00  0.00    -0.055 A 
ATOM     15  C   UNL     1     153.998 161.401 166.408  0.00  0.00    -0.043 A 
ATOM     16  C   UNL     1     153.028 161.613 167.384  0.00  0.00    +0.041 A 
ATOM     17 CL   UNL     1     153.335 162.713 168.671  0.00  0.00    -0.084 Cl
ATOM     18  C   UNL     1     151.809 160.941 167.325  0.00  0.00    -0.043 A 
ATOM     19  C   UNL     1     151.557 160.050 166.277  0.00  0.00    -0.055 A 
ATOM     20  H   UNL     1     152.346 158.240 161.625  0.00  0.00    +0.000 HD
ATOM     21  H   UNL     1     150.709 158.038 162.121  0.00  0.00    +0.000 HD
ATOM     22  H   UNL     1     154.061 158.849 163.406  0.00  0.00    +0.000 HD
ENDROOT
TORSDOF 0
ENDMDL
MODEL 5
REMARK VINA RESULT:    -7.062      8.111     11.718
REMARK INTER + INTRA:          -7.062
REMARK INTER:                  -7.062
REMARK INTRA:                   0.000
REMARK UNBOUND:                 0.000
REMARK  Name = /home/vital/Documents/PhD_2021/Malaria_codes/scripts/../data/pdbqt_ligands/ligand_196_temp.pdb
REMARK                            x       y       z     vdW  Elec       q    Type
REMARK                         _______ _______ _______ _____ _____    ______ ____
ROOT
ATOM      1  C   UNL     1     149.496 158.534 157.109  0.00  0.00    -0.060 C 
ATOM      2  C   UNL     1     150.887 157.998 157.498  0.00  0.00    -0.036 C 
ATOM      3  C   UNL     1     151.806 158.212 156.266  0.00  0.00    -0.060 C 
ATOM      4  C   UNL     1     150.802 156.489 157.749  0.00  0.00    -0.060 C 
ATOM      5  C   UNL     1     151.516 158.808 158.678  0.00  0.00    -0.030 C 
ATOM      6  C   UNL     1     151.092 158.648 160.180  0.00  0.00    +0.014 C 
ATOM      7  C   UNL     1     151.684 157.362 160.790  0.00  0.00    -0.047 C 
ATOM      8  C   UNL     1     149.571 158.659 160.370  0.00  0.00    -0.047 C 
ATOM      9  N   UNL     1     151.719 159.830 160.838  0.00  0.00    -0.308 N 
ATOM     10  C   UNL     1     151.453 160.022 162.277  0.00  0.00    +0.027 C 
ATOM     11  C   UNL     1     152.119 161.341 162.749  0.00  0.00    +0.093 C 
ATOM     12  O   UNL     1     151.678 162.411 161.906  0.00  0.00    -0.386 OA
ATOM     13  C   UNL     1     151.801 161.646 164.197  0.00  0.00    -0.018 A 
ATOM     14  C   UNL     1     150.636 162.343 164.557  0.00  0.00    -0.055 A 
ATOM     15  C   UNL     1     150.339 162.592 165.899  0.00  0.00    -0.043 A 
ATOM     16  C   UNL     1     151.203 162.140 166.893  0.00  0.00    +0.041 A 
ATOM     17 CL   UNL     1     150.835 162.440 168.547  0.00  0.00    -0.084 Cl
ATOM     18  C   UNL     1     152.362 161.445 166.556  0.00  0.00    -0.043 A 
ATOM     19  C   UNL     1     152.659 161.197 165.213  0.00  0.00    -0.055 A 
ATOM     20  H   UNL     1     151.388 160.663 160.351  0.00  0.00    +0.000 HD
ATOM     21  H   UNL     1     152.723 159.664 160.776  0.00  0.00    +0.000 HD
ATOM     22  H   UNL     1     150.716 162.504 161.977  0.00  0.00    +0.000 HD
ENDROOT
TORSDOF 0
ENDMDL
MODEL 6
REMARK VINA RESULT:    -7.026     10.298     15.192
REMARK INTER + INTRA:          -7.026
REMARK INTER:                  -7.026
REMARK INTRA:                   0.000
REMARK UNBOUND:                 0.000
REMARK  Name = /home/vital/Documents/PhD_2021/Malaria_codes/scripts/../data/pdbqt_ligands/ligand_196_temp.pdb
REMARK                            x       y       z     vdW  Elec       q    Type
REMARK                         _______ _______ _______ _____ _____    ______ ____
ROOT
ATOM      1  C   UNL     1     153.511 162.834 168.662  0.00  0.00    -0.060 C 
ATOM      2  C   UNL     1     152.432 161.752 168.851  0.00  0.00    -0.036 C 
ATOM      3  C   UNL     1     151.456 162.282 169.935  0.00  0.00    -0.060 C 
ATOM      4  C   UNL     1     153.079 160.476 169.402  0.00  0.00    -0.060 C 
ATOM      5  C   UNL     1     151.590 161.532 167.553  0.00  0.00    -0.030 C 
ATOM      6  C   UNL     1     152.097 160.733 166.300  0.00  0.00    +0.014 C 
ATOM      7  C   UNL     1     152.044 159.214 166.552  0.00  0.00    -0.047 C 
ATOM      8  C   UNL     1     153.511 161.139 165.872  0.00  0.00    -0.047 C 
ATOM      9  N   UNL     1     151.100 161.086 165.248  0.00  0.00    -0.308 N 
ATOM     10  C   UNL     1     151.327 160.542 163.894  0.00  0.00    +0.027 C 
ATOM     11  C   UNL     1     150.238 161.087 162.934  0.00  0.00    +0.093 C 
ATOM     12  O   UNL     1     150.221 162.517 163.015  0.00  0.00    -0.386 OA
ATOM     13  C   UNL     1     150.471 160.643 161.507  0.00  0.00    -0.018 A 
ATOM     14  C   UNL     1     151.308 161.370 160.644  0.00  0.00    -0.055 A 
ATOM     15  C   UNL     1     151.539 160.933 159.337  0.00  0.00    -0.043 A 
ATOM     16  C   UNL     1     150.939 159.761 158.885  0.00  0.00    +0.041 A 
ATOM     17 CL   UNL     1     151.228 159.218 157.278  0.00  0.00    -0.084 Cl
ATOM     18  C   UNL     1     150.108 159.024 159.726  0.00  0.00    -0.043 A 
ATOM     19  C   UNL     1     149.877 159.463 161.033  0.00  0.00    -0.055 A 
ATOM     20  H   UNL     1     151.083 162.103 165.171  0.00  0.00    +0.000 HD
ATOM     21  H   UNL     1     150.227 160.660 165.559  0.00  0.00    +0.000 HD
ATOM     22  H   UNL     1     151.083 162.866 162.741  0.00  0.00    +0.000 HD
ENDROOT
TORSDOF 0
ENDMDL
MODEL 7
REMARK VINA RESULT:    -7.020      7.843     13.098
REMARK INTER + INTRA:          -7.020
REMARK INTER:                  -7.020
REMARK INTRA:                   0.000
REMARK UNBOUND:                 0.000
REMARK  Name = /home/vital/Documents/PhD_2021/Malaria_codes/scripts/../data/pdbqt_ligands/ligand_196_temp.pdb
REMARK                            x       y       z     vdW  Elec       q    Type
REMARK                         _______ _______ _______ _____ _____    ______ ____
ROOT
ATOM      1  C   UNL     1     151.021 163.542 164.856  0.00  0.00    -0.060 C 
ATOM      2  C   UNL     1     150.951 162.157 165.528  0.00  0.00    -0.036 C 
ATOM      3  C   UNL     1     149.897 162.267 166.661  0.00  0.00    -0.060 C 
ATOM      4  C   UNL     1     152.299 161.840 166.184  0.00  0.00    -0.060 C 
ATOM      5  C   UNL     1     150.444 161.054 164.543  0.00  0.00    -0.030 C 
ATOM      6  C   UNL     1     151.326 160.406 163.418  0.00  0.00    +0.014 C 
ATOM      7  C   UNL     1     152.312 159.380 164.009  0.00  0.00    -0.047 C 
ATOM      8  C   UNL     1     152.092 161.446 162.594  0.00  0.00    -0.047 C 
ATOM      9  N   UNL     1     150.327 159.689 162.575  0.00  0.00    -0.308 N 
ATOM     10  C   UNL     1     150.828 159.012 161.362  0.00  0.00    +0.027 C 
ATOM     11  C   UNL     1     149.632 158.403 160.585  0.00  0.00    +0.093 C 
ATOM     12  O   UNL     1     148.663 159.430 160.346  0.00  0.00    -0.386 OA
ATOM     13  C   UNL     1     150.070 157.777 159.279  0.00  0.00    -0.018 A 
ATOM     14  C   UNL     1     150.182 158.541 158.105  0.00  0.00    -0.055 A 
ATOM     15  C   UNL     1     150.616 157.957 156.912  0.00  0.00    -0.043 A 
ATOM     16  C   UNL     1     150.947 156.605 156.886  0.00  0.00    +0.041 A 
ATOM     17 CL   UNL     1     151.488 155.886 155.419  0.00  0.00    -0.084 Cl
ATOM     18  C   UNL     1     150.845 155.832 158.039  0.00  0.00    -0.043 A 
ATOM     19  C   UNL     1     150.409 156.416 159.232  0.00  0.00    -0.055 A 
ATOM     20  H   UNL     1     149.629 160.373 162.279  0.00  0.00    +0.000 HD
ATOM     21  H   UNL     1     149.972 158.938 163.167  0.00  0.00    +0.000 HD
ATOM     22  H   UNL     1     149.061 160.132 159.808  0.00  0.00    +0.000 HD
ENDROOT
TORSDOF 0
ENDMDL
MODEL 8
REMARK VINA RESULT:    -6.964     14.338     16.879
REMARK INTER + INTRA:          -6.964
REMARK INTER:                  -6.964
REMARK INTRA:                   0.000
REMARK UNBOUND:                 0.000
REMARK  Name = /home/vital/Documents/PhD_2021/Malaria_codes/scripts/../data/pdbqt_ligands/ligand_196_temp.pdb
REMARK                            x       y       z     vdW  Elec       q    Type
REMARK                         _______ _______ _______ _____ _____    ______ ____
ROOT
ATOM      1  C   UNL     1     151.452 160.918 170.122  0.00  0.00    -0.060 C 
ATOM      2  C   UNL     1     152.553 160.688 169.070  0.00  0.00    -0.036 C 
ATOM      3  C   UNL     1     153.904 160.999 169.766  0.00  0.00    -0.060 C 
ATOM      4  C   UNL     1     152.384 161.693 167.926  0.00  0.00    -0.060 C 
ATOM      5  C   UNL     1     152.616 159.197 168.606  0.00  0.00    -0.030 C 
ATOM      6  C   UNL     1     151.598 158.542 167.607  0.00  0.00    +0.014 C 
ATOM      7  C   UNL     1     151.889 158.972 166.156  0.00  0.00    -0.047 C 
ATOM      8  C   UNL     1     150.140 158.857 167.957  0.00  0.00    -0.047 C 
ATOM      9  N   UNL     1     151.876 157.084 167.746  0.00  0.00    -0.308 N 
ATOM     10  C   UNL     1     151.024 156.157 166.974  0.00  0.00    +0.027 C 
ATOM     11  C   UNL     1     151.415 154.696 167.318  0.00  0.00    +0.093 C 
ATOM     12  O   UNL     1     151.361 154.523 168.739  0.00  0.00    -0.386 OA
ATOM     13  C   UNL     1     150.511 153.695 166.631  0.00  0.00    -0.018 A 
ATOM     14  C   UNL     1     149.296 153.292 167.209  0.00  0.00    -0.055 A 
ATOM     15  C   UNL     1     148.457 152.390 166.551  0.00  0.00    -0.043 A 
ATOM     16  C   UNL     1     148.824 151.888 165.305  0.00  0.00    +0.041 A 
ATOM     17 CL   UNL     1     147.789 150.781 164.490  0.00  0.00    -0.084 Cl
ATOM     18  C   UNL     1     150.024 152.277 164.715  0.00  0.00    -0.043 A 
ATOM     19  C   UNL     1     150.864 153.179 165.375  0.00  0.00    -0.055 A 
ATOM     20  H   UNL     1     151.773 156.845 168.733  0.00  0.00    +0.000 HD
ATOM     21  H   UNL     1     152.814 156.957 167.366  0.00  0.00    +0.000 HD
ATOM     22  H   UNL     1     150.458 154.688 169.051  0.00  0.00    +0.000 HD
ENDROOT
TORSDOF 0
ENDMDL
MODEL 9
REMARK VINA RESULT:    -6.486     15.682     18.205
REMARK INTER + INTRA:          -6.486
REMARK INTER:                  -6.486
REMARK INTRA:                   0.000
REMARK UNBOUND:                 0.000
REMARK  Name = /home/vital/Documents/PhD_2021/Malaria_codes/scripts/../data/pdbqt_ligands/ligand_196_temp.pdb
REMARK                            x       y       z     vdW  Elec       q    Type
REMARK                         _______ _______ _______ _____ _____    ______ ____
ROOT
ATOM      1  C   UNL     1     143.454 141.275 166.131  0.00  0.00    -0.060 C 
ATOM      2  C   UNL     1     143.358 141.426 164.601  0.00  0.00    -0.036 C 
ATOM      3  C   UNL     1     141.979 140.851 164.184  0.00  0.00    -0.060 C 
ATOM      4  C   UNL     1     144.435 140.562 163.935  0.00  0.00    -0.060 C 
ATOM      5  C   UNL     1     143.377 142.924 164.158  0.00  0.00    -0.030 C 
ATOM      6  C   UNL     1     144.670 143.813 164.112  0.00  0.00    +0.014 C 
ATOM      7  C   UNL     1     145.533 143.472 162.882  0.00  0.00    -0.047 C 
ATOM      8  C   UNL     1     145.514 143.695 165.385  0.00  0.00    -0.047 C 
ATOM      9  N   UNL     1     144.128 145.193 163.958  0.00  0.00    -0.308 N 
ATOM     10  C   UNL     1     145.101 146.304 163.949  0.00  0.00    +0.027 C 
ATOM     11  C   UNL     1     144.339 147.652 163.865  0.00  0.00    +0.093 C 
ATOM     12  O   UNL     1     143.372 147.705 164.921  0.00  0.00    -0.386 OA
ATOM     13  C   UNL     1     145.277 148.836 163.950  0.00  0.00    -0.018 A 
ATOM     14  C   UNL     1     145.670 149.368 165.189  0.00  0.00    -0.055 A 
ATOM     15  C   UNL     1     146.560 150.442 165.254  0.00  0.00    -0.043 A 
ATOM     16  C   UNL     1     147.070 150.990 164.080  0.00  0.00    +0.041 A 
ATOM     17 CL   UNL     1     148.171 152.309 164.158  0.00  0.00    -0.084 Cl
ATOM     18  C   UNL     1     146.693 150.475 162.841  0.00  0.00    -0.043 A 
ATOM     19  C   UNL     1     145.801 149.400 162.777  0.00  0.00    -0.055 A 
ATOM     20  H   UNL     1     143.483 145.357 164.731  0.00  0.00    +0.000 HD
ATOM     21  H   UNL     1     143.704 145.208 163.030  0.00  0.00    +0.000 HD
ATOM     22  H   UNL     1     143.825 147.654 165.777  0.00  0.00    +0.000 HD
ENDROOT
TORSDOF 0
ENDMDL
