MODEL 1
REMARK VINA RESULT:    -7.003      0.000      0.000
REMARK INTER + INTRA:          -7.003
REMARK INTER:                  -7.003
REMARK INTRA:                   0.000
REMARK UNBOUND:                 0.000
REMARK  Name = /home/vital/Documents/PhD_2021/Malaria_codes/scripts/../data/pdbqt_ligands/ligand_266_temp.pdb
REMARK                            x       y       z     vdW  Elec       q    Type
REMARK                         _______ _______ _______ _____ _____    ______ ____
ROOT
ATOM      1  C1  UNL     1     152.498 161.990 160.584  0.00  0.00    -0.044 C 
ATOM      2  C2  UNL     1     151.598 161.080 159.770  0.00  0.00    +0.082 C 
ATOM      3  S1  UNL     1     150.460 160.180 160.825  0.00  0.00    +0.043 S 
ATOM      4  O1  UNL     1     151.212 159.226 161.611  0.00  0.00    -0.155 OA
ATOM      5  O2  UNL     1     149.585 161.147 161.453  0.00  0.00    -0.155 OA
ATOM      6  N1  UNL     1     149.504 159.353 159.705  0.00  0.00    -0.217 N 
ATOM      7  C3  UNL     1     150.133 158.372 158.877  0.00  0.00    +0.090 A 
ATOM      8  C4  UNL     1     150.608 157.174 159.408  0.00  0.00    -0.022 A 
ATOM      9  C5  UNL     1     151.229 156.241 158.567  0.00  0.00    +0.061 A 
ATOM     10  C6  UNL     1     151.757 154.944 159.069  0.00  0.00    +0.339 C 
ATOM     11  O3  UNL     1     152.348 154.144 158.360  0.00  0.00    -0.245 OA
ATOM     12  O4  UNL     1     151.484 154.789 160.386  0.00  0.00    -0.464 OA
ATOM     13  C7  UNL     1     151.968 153.568 160.945  0.00  0.00    +0.082 C 
ATOM     14  C8  UNL     1     151.369 156.526 157.199  0.00  0.00    -0.044 A 
ATOM     15  C9  UNL     1     150.893 157.726 156.665  0.00  0.00    -0.018 A 
ATOM     16  C10 UNL     1     150.277 158.642 157.510  0.00  0.00    +0.139 A 
ATOM     17  O5  UNL     1     149.805 159.836 157.031  0.00  0.00    -0.505 OA
ATOM     18  H   UNL     1     148.541 159.541 159.625  0.00  0.00    +0.000 HD
ATOM     19  H   UNL     1     149.392 160.443 157.612  0.00  0.00    +0.000 HD
ENDROOT
TORSDOF 0
ENDMDL
MODEL 2
REMARK VINA RESULT:    -6.651      2.466      3.883
REMARK INTER + INTRA:          -6.651
REMARK INTER:                  -6.651
REMARK INTRA:                   0.000
REMARK UNBOUND:                 0.000
REMARK  Name = /home/vital/Documents/PhD_2021/Malaria_codes/scripts/../data/pdbqt_ligands/ligand_266_temp.pdb
REMARK                            x       y       z     vdW  Elec       q    Type
REMARK                         _______ _______ _______ _____ _____    ______ ____
ROOT
ATOM      1  C1  UNL     1     153.095 156.905 162.755  0.00  0.00    -0.044 C 
ATOM      2  C2  UNL     1     152.221 157.683 161.789  0.00  0.00    +0.082 C 
ATOM      3  S1  UNL     1     150.879 156.667 161.168  0.00  0.00    +0.043 S 
ATOM      4  O1  UNL     1     151.432 155.643 160.309  0.00  0.00    -0.155 OA
ATOM      5  O2  UNL     1     150.028 156.329 162.289  0.00  0.00    -0.155 OA
ATOM      6  N1  UNL     1     149.996 157.764 160.235  0.00  0.00    -0.217 N 
ATOM      7  C3  UNL     1     150.627 158.331 159.084  0.00  0.00    +0.090 A 
ATOM      8  C4  UNL     1     150.914 157.556 157.962  0.00  0.00    -0.022 A 
ATOM      9  C5  UNL     1     151.544 158.143 156.857  0.00  0.00    +0.061 A 
ATOM     10  C6  UNL     1     151.879 157.373 155.628  0.00  0.00    +0.339 C 
ATOM     11  O3  UNL     1     152.474 157.857 154.678  0.00  0.00    -0.245 OA
ATOM     12  O4  UNL     1     151.429 156.099 155.720  0.00  0.00    -0.464 OA
ATOM     13  C7  UNL     1     151.720 155.292 154.579  0.00  0.00    +0.082 C 
ATOM     14  C8  UNL     1     151.882 159.506 156.894  0.00  0.00    -0.044 A 
ATOM     15  C9  UNL     1     151.593 160.285 158.018  0.00  0.00    -0.018 A 
ATOM     16  C10 UNL     1     150.966 159.690 159.107  0.00  0.00    +0.139 A 
ATOM     17  O5  UNL     1     150.675 160.413 160.233  0.00  0.00    -0.505 OA
ATOM     18  H   UNL     1     149.073 158.007 160.477  0.00  0.00    +0.000 HD
ATOM     19  H   UNL     1     150.252 159.998 160.960  0.00  0.00    +0.000 HD
ENDROOT
TORSDOF 0
ENDMDL
MODEL 3
REMARK VINA RESULT:    -6.575     15.159     18.344
REMARK INTER + INTRA:          -6.575
REMARK INTER:                  -6.575
REMARK INTRA:                   0.000
REMARK UNBOUND:                 0.000
REMARK  Name = /home/vital/Documents/PhD_2021/Malaria_codes/scripts/../data/pdbqt_ligands/ligand_266_temp.pdb
REMARK                            x       y       z     vdW  Elec       q    Type
REMARK                         _______ _______ _______ _____ _____    ______ ____
ROOT
ATOM      1  C1  UNL     1     141.022 139.774 165.180  0.00  0.00    -0.044 C 
ATOM      2  C2  UNL     1     142.495 140.050 164.939  0.00  0.00    +0.082 C 
ATOM      3  S1  UNL     1     143.286 140.683 166.419  0.00  0.00    +0.043 S 
ATOM      4  O1  UNL     1     142.776 142.010 166.686  0.00  0.00    -0.155 OA
ATOM      5  O2  UNL     1     143.235 139.643 167.425  0.00  0.00    -0.155 OA
ATOM      6  N1  UNL     1     144.904 140.788 165.949  0.00  0.00    -0.217 N 
ATOM      7  C3  UNL     1     145.244 141.700 164.901  0.00  0.00    +0.090 A 
ATOM      8  C4  UNL     1     145.173 143.078 165.090  0.00  0.00    -0.022 A 
ATOM      9  C5  UNL     1     145.501 143.941 164.036  0.00  0.00    +0.061 A 
ATOM     10  C6  UNL     1     145.448 145.422 164.172  0.00  0.00    +0.339 C 
ATOM     11  O3  UNL     1     145.680 146.186 163.247  0.00  0.00    -0.245 OA
ATOM     12  O4  UNL     1     145.121 145.778 165.436  0.00  0.00    -0.464 OA
ATOM     13  C7  UNL     1     145.042 147.189 165.644  0.00  0.00    +0.082 C 
ATOM     14  C8  UNL     1     145.895 143.405 162.798  0.00  0.00    -0.044 A 
ATOM     15  C9  UNL     1     145.967 142.023 162.607  0.00  0.00    -0.018 A 
ATOM     16  C10 UNL     1     145.640 141.178 163.663  0.00  0.00    +0.139 A 
ATOM     17  O5  UNL     1     145.686 139.817 163.516  0.00  0.00    -0.505 OA
ATOM     18  H   UNL     1     145.595 140.238 166.384  0.00  0.00    +0.000 HD
ATOM     19  H   UNL     1     145.463 139.260 164.236  0.00  0.00    +0.000 HD
ENDROOT
TORSDOF 0
ENDMDL
MODEL 4
REMARK VINA RESULT:    -6.526      8.671     11.276
REMARK INTER + INTRA:          -6.526
REMARK INTER:                  -6.526
REMARK INTRA:                   0.000
REMARK UNBOUND:                 0.000
REMARK  Name = /home/vital/Documents/PhD_2021/Malaria_codes/scripts/../data/pdbqt_ligands/ligand_266_temp.pdb
REMARK                            x       y       z     vdW  Elec       q    Type
REMARK                         _______ _______ _______ _____ _____    ______ ____
ROOT
ATOM      1  C1  UNL     1     142.791 148.625 166.112  0.00  0.00    -0.044 C 
ATOM      2  C2  UNL     1     143.950 148.756 165.141  0.00  0.00    +0.082 C 
ATOM      3  S1  UNL     1     145.503 148.313 165.921  0.00  0.00    +0.043 S 
ATOM      4  O1  UNL     1     145.829 149.319 166.909  0.00  0.00    -0.155 OA
ATOM      5  O2  UNL     1     145.435 146.910 166.273  0.00  0.00    -0.155 OA
ATOM      6  N1  UNL     1     146.596 148.412 164.638  0.00  0.00    -0.217 N 
ATOM      7  C3  UNL     1     146.810 149.690 164.032  0.00  0.00    +0.090 A 
ATOM      8  C4  UNL     1     147.465 150.713 164.715  0.00  0.00    -0.022 A 
ATOM      9  C5  UNL     1     147.645 151.956 164.094  0.00  0.00    +0.061 A 
ATOM     10  C6  UNL     1     148.337 153.090 164.766  0.00  0.00    +0.339 C 
ATOM     11  O3  UNL     1     148.456 154.195 164.258  0.00  0.00    -0.245 OA
ATOM     12  O4  UNL     1     148.804 152.717 165.981  0.00  0.00    -0.464 OA
ATOM     13  C7  UNL     1     149.476 153.757 166.693  0.00  0.00    +0.082 C 
ATOM     14  C8  UNL     1     147.161 152.158 162.791  0.00  0.00    -0.044 A 
ATOM     15  C9  UNL     1     146.503 151.133 162.105  0.00  0.00    -0.018 A 
ATOM     16  C10 UNL     1     146.333 149.903 162.732  0.00  0.00    +0.139 A 
ATOM     17  O5  UNL     1     145.685 148.875 162.101  0.00  0.00    -0.505 OA
ATOM     18  H   UNL     1     147.072 147.614 164.315  0.00  0.00    +0.000 HD
ATOM     19  H   UNL     1     145.577 148.052 162.536  0.00  0.00    +0.000 HD
ENDROOT
TORSDOF 0
ENDMDL
MODEL 5
REMARK VINA RESULT:    -6.387      2.677      3.568
REMARK INTER + INTRA:          -6.387
REMARK INTER:                  -6.387
REMARK INTRA:                   0.000
REMARK UNBOUND:                 0.000
REMARK  Name = /home/vital/Documents/PhD_2021/Malaria_codes/scripts/../data/pdbqt_ligands/ligand_266_temp.pdb
REMARK                            x       y       z     vdW  Elec       q    Type
REMARK                         _______ _______ _______ _____ _____    ______ ____
ROOT
ATOM      1  C1  UNL     1     152.991 161.553 165.371  0.00  0.00    -0.044 C 
ATOM      2  C2  UNL     1     152.517 161.642 163.932  0.00  0.00    +0.082 C 
ATOM      3  S1  UNL     1     150.752 161.345 163.811  0.00  0.00    +0.043 S 
ATOM      4  O1  UNL     1     150.493 159.956 164.123  0.00  0.00    -0.155 OA
ATOM      5  O2  UNL     1     150.077 162.412 164.519  0.00  0.00    -0.155 OA
ATOM      6  N1  UNL     1     150.449 161.617 162.172  0.00  0.00    -0.217 N 
ATOM      7  C3  UNL     1     151.062 160.744 161.220  0.00  0.00    +0.090 A 
ATOM      8  C4  UNL     1     150.672 159.411 161.106  0.00  0.00    -0.022 A 
ATOM      9  C5  UNL     1     151.304 158.582 160.169  0.00  0.00    +0.061 A 
ATOM     10  C6  UNL     1     150.936 157.151 159.996  0.00  0.00    +0.339 C 
ATOM     11  O3  UNL     1     151.512 156.402 159.221  0.00  0.00    -0.245 OA
ATOM     12  O4  UNL     1     149.894 156.821 160.796  0.00  0.00    -0.464 OA
ATOM     13  C7  UNL     1     149.486 155.457 160.691  0.00  0.00    +0.082 C 
ATOM     14  C8  UNL     1     152.325 159.104 159.358  0.00  0.00    -0.044 A 
ATOM     15  C9  UNL     1     152.717 160.441 159.471  0.00  0.00    -0.018 A 
ATOM     16  C10 UNL     1     152.080 161.253 160.403  0.00  0.00    +0.139 A 
ATOM     17  O5  UNL     1     152.440 162.566 160.555  0.00  0.00    -0.505 OA
ATOM     18  H   UNL     1     149.868 162.356 161.880  0.00  0.00    +0.000 HD
ATOM     19  H   UNL     1     152.002 163.101 161.187  0.00  0.00    +0.000 HD
ENDROOT
TORSDOF 0
ENDMDL
MODEL 6
REMARK VINA RESULT:    -6.360      3.478      6.210
REMARK INTER + INTRA:          -6.360
REMARK INTER:                  -6.360
REMARK INTRA:                   0.000
REMARK UNBOUND:                 0.000
REMARK  Name = /home/vital/Documents/PhD_2021/Malaria_codes/scripts/../data/pdbqt_ligands/ligand_266_temp.pdb
REMARK                            x       y       z     vdW  Elec       q    Type
REMARK                         _______ _______ _______ _____ _____    ______ ____
ROOT
ATOM      1  C1  UNL     1     147.706 152.944 163.395  0.00  0.00    -0.044 C 
ATOM      2  C2  UNL     1     148.908 153.535 162.683  0.00  0.00    +0.082 C 
ATOM      3  S1  UNL     1     150.052 154.276 163.849  0.00  0.00    +0.043 S 
ATOM      4  O1  UNL     1     149.436 155.455 164.417  0.00  0.00    -0.155 OA
ATOM      5  O2  UNL     1     150.569 153.219 164.691  0.00  0.00    -0.155 OA
ATOM      6  N1  UNL     1     151.335 154.740 162.854  0.00  0.00    -0.217 N 
ATOM      7  C3  UNL     1     151.090 155.734 161.856  0.00  0.00    +0.090 A 
ATOM      8  C4  UNL     1     150.836 157.060 162.204  0.00  0.00    -0.022 A 
ATOM      9  C5  UNL     1     150.587 158.005 161.200  0.00  0.00    +0.061 A 
ATOM     10  C6  UNL     1     150.310 159.435 161.503  0.00  0.00    +0.339 C 
ATOM     11  O3  UNL     1     150.040 160.260 160.643  0.00  0.00    -0.245 OA
ATOM     12  O4  UNL     1     150.408 159.674 162.832  0.00  0.00    -0.464 OA
ATOM     13  C7  UNL     1     150.148 161.028 163.203  0.00  0.00    +0.082 C 
ATOM     14  C8  UNL     1     150.594 157.604 159.854  0.00  0.00    -0.044 A 
ATOM     15  C9  UNL     1     150.848 156.276 159.503  0.00  0.00    -0.018 A 
ATOM     16  C10 UNL     1     151.096 155.348 160.510  0.00  0.00    +0.139 A 
ATOM     17  O5  UNL     1     151.339 154.034 160.212  0.00  0.00    -0.505 OA
ATOM     18  H   UNL     1     152.227 154.337 162.957  0.00  0.00    +0.000 HD
ATOM     19  H   UNL     1     151.504 153.420 160.901  0.00  0.00    +0.000 HD
ENDROOT
TORSDOF 0
ENDMDL
MODEL 7
REMARK VINA RESULT:    -5.855      5.614      7.992
REMARK INTER + INTRA:          -5.855
REMARK INTER:                  -5.855
REMARK INTRA:                   0.000
REMARK UNBOUND:                 0.000
REMARK  Name = /home/vital/Documents/PhD_2021/Malaria_codes/scripts/../data/pdbqt_ligands/ligand_266_temp.pdb
REMARK                            x       y       z     vdW  Elec       q    Type
REMARK                         _______ _______ _______ _____ _____    ______ ____
ROOT
ATOM      1  C1  UNL     1     153.360 159.551 168.887  0.00  0.00    -0.044 C 
ATOM      2  C2  UNL     1     152.344 160.476 168.244  0.00  0.00    +0.082 C 
ATOM      3  S1  UNL     1     150.830 159.599 167.847  0.00  0.00    +0.043 S 
ATOM      4  O1  UNL     1     151.101 158.666 166.776  0.00  0.00    -0.155 OA
ATOM      5  O2  UNL     1     150.236 159.161 169.093  0.00  0.00    -0.155 OA
ATOM      6  N1  UNL     1     149.833 160.836 167.274  0.00  0.00    -0.217 N 
ATOM      7  C3  UNL     1     150.221 161.513 166.076  0.00  0.00    +0.090 A 
ATOM      8  C4  UNL     1     150.193 160.870 164.840  0.00  0.00    -0.022 A 
ATOM      9  C5  UNL     1     150.592 161.562 163.689  0.00  0.00    +0.061 A 
ATOM     10  C6  UNL     1     150.584 160.935 162.339  0.00  0.00    +0.339 C 
ATOM     11  O3  UNL     1     150.979 161.507 161.335  0.00  0.00    -0.245 OA
ATOM     12  O4  UNL     1     150.082 159.679 162.394  0.00  0.00    -0.464 OA
ATOM     13  C7  UNL     1     150.049 159.006 161.135  0.00  0.00    +0.082 C 
ATOM     14  C8  UNL     1     151.020 162.896 163.795  0.00  0.00    -0.044 A 
ATOM     15  C9  UNL     1     151.049 163.542 165.033  0.00  0.00    -0.018 A 
ATOM     16  C10 UNL     1     150.648 162.844 166.168  0.00  0.00    +0.139 A 
ATOM     17  O5  UNL     1     150.672 163.435 167.403  0.00  0.00    -0.505 OA
ATOM     18  H   UNL     1     149.009 161.084 167.751  0.00  0.00    +0.000 HD
ATOM     19  H   UNL     1     150.398 162.953 168.158  0.00  0.00    +0.000 HD
ENDROOT
TORSDOF 0
ENDMDL
MODEL 8
REMARK VINA RESULT:    -5.767      4.316      6.057
REMARK INTER + INTRA:          -5.767
REMARK INTER:                  -5.767
REMARK INTRA:                   0.000
REMARK UNBOUND:                 0.000
REMARK  Name = /home/vital/Documents/PhD_2021/Malaria_codes/scripts/../data/pdbqt_ligands/ligand_266_temp.pdb
REMARK                            x       y       z     vdW  Elec       q    Type
REMARK                         _______ _______ _______ _____ _____    ______ ____
ROOT
ATOM      1  C1  UNL     1     149.592 159.644 160.875  0.00  0.00    -0.044 C 
ATOM      2  C2  UNL     1     150.484 158.743 161.708  0.00  0.00    +0.082 C 
ATOM      3  S1  UNL     1     150.763 157.172 160.887  0.00  0.00    +0.043 S 
ATOM      4  O1  UNL     1     149.522 156.429 160.873  0.00  0.00    -0.155 OA
ATOM      5  O2  UNL     1     151.493 157.437 159.666  0.00  0.00    -0.155 OA
ATOM      6  N1  UNL     1     151.859 156.412 161.923  0.00  0.00    -0.217 N 
ATOM      7  C3  UNL     1     151.425 156.093 163.247  0.00  0.00    +0.090 A 
ATOM      8  C4  UNL     1     150.470 155.105 163.477  0.00  0.00    -0.022 A 
ATOM      9  C5  UNL     1     150.060 154.828 164.787  0.00  0.00    +0.061 A 
ATOM     10  C6  UNL     1     149.046 153.785 165.102  0.00  0.00    +0.339 C 
ATOM     11  O3  UNL     1     148.640 153.568 166.234  0.00  0.00    -0.245 OA
ATOM     12  O4  UNL     1     148.662 153.132 163.980  0.00  0.00    -0.464 OA
ATOM     13  C7  UNL     1     147.681 152.118 164.200  0.00  0.00    +0.082 C 
ATOM     14  C8  UNL     1     150.615 155.552 165.856  0.00  0.00    -0.044 A 
ATOM     15  C9  UNL     1     151.573 156.543 165.627  0.00  0.00    -0.018 A 
ATOM     16  C10 UNL     1     151.972 156.807 164.321  0.00  0.00    +0.139 A 
ATOM     17  O5  UNL     1     152.901 157.777 164.051  0.00  0.00    -0.505 OA
ATOM     18  H   UNL     1     152.771 156.194 161.623  0.00  0.00    +0.000 HD
ATOM     19  H   UNL     1     153.160 157.943 163.166  0.00  0.00    +0.000 HD
ENDROOT
TORSDOF 0
ENDMDL
MODEL 9
REMARK VINA RESULT:    -5.652      6.040      7.706
REMARK INTER + INTRA:          -5.652
REMARK INTER:                  -5.652
REMARK INTRA:                   0.000
REMARK UNBOUND:                 0.000
REMARK  Name = /home/vital/Documents/PhD_2021/Malaria_codes/scripts/../data/pdbqt_ligands/ligand_266_temp.pdb
REMARK                            x       y       z     vdW  Elec       q    Type
REMARK                         _______ _______ _______ _____ _____    ______ ____
ROOT
ATOM      1  C1  UNL     1     148.680 163.538 165.928  0.00  0.00    -0.044 C 
ATOM      2  C2  UNL     1     149.980 162.789 166.154  0.00  0.00    +0.082 C 
ATOM      3  S1  UNL     1     150.629 162.138 164.614  0.00  0.00    +0.043 S 
ATOM      4  O1  UNL     1     149.756 161.082 164.151  0.00  0.00    -0.155 OA
ATOM      5  O2  UNL     1     150.961 163.264 163.766  0.00  0.00    -0.155 OA
ATOM      6  N1  UNL     1     152.106 161.474 165.094  0.00  0.00    -0.217 N 
ATOM      7  C3  UNL     1     152.084 160.374 166.008  0.00  0.00    +0.090 A 
ATOM      8  C4  UNL     1     151.607 159.123 165.623  0.00  0.00    -0.022 A 
ATOM      9  C5  UNL     1     151.590 158.072 166.549  0.00  0.00    +0.061 A 
ATOM     10  C6  UNL     1     151.095 156.712 166.203  0.00  0.00    +0.339 C 
ATOM     11  O3  UNL     1     151.024 155.801 167.013  0.00  0.00    -0.245 OA
ATOM     12  O4  UNL     1     150.754 156.642 164.894  0.00  0.00    -0.464 OA
ATOM     13  C7  UNL     1     150.260 155.367 164.486  0.00  0.00    +0.082 C 
ATOM     14  C8  UNL     1     152.051 158.293 167.857  0.00  0.00    -0.044 A 
ATOM     15  C9  UNL     1     152.530 159.547 168.245  0.00  0.00    -0.018 A 
ATOM     16  C10 UNL     1     152.544 160.581 167.315  0.00  0.00    +0.139 A 
ATOM     17  O5  UNL     1     152.994 161.829 167.656  0.00  0.00    -0.505 OA
ATOM     18  H   UNL     1     152.957 161.833 164.755  0.00  0.00    +0.000 HD
ATOM     19  H   UNL     1     152.998 162.516 167.018  0.00  0.00    +0.000 HD
ENDROOT
TORSDOF 0
ENDMDL
