MODEL 1
REMARK VINA RESULT:    -7.526      0.000      0.000
REMARK INTER + INTRA:          -7.526
REMARK INTER:                  -7.526
REMARK INTRA:                   0.000
REMARK UNBOUND:                 0.000
REMARK  Name = /home/vital/Documents/PhD_2021/Malaria_codes/scripts/../data/pdbqt_ligands/ligand_121_temp.pdb
REMARK                            x       y       z     vdW  Elec       q    Type
REMARK                         _______ _______ _______ _____ _____    ______ ____
ROOT
ATOM      1  C1  UNL     1     150.606 160.107 161.651  0.00  0.00    -0.065 C 
ATOM      2  C2  UNL     1     150.281 161.337 162.485  0.00  0.00    -0.056 C 
ATOM      3  C3  UNL     1     150.574 161.095 163.970  0.00  0.00    -0.047 C 
ATOM      4  C4  UNL     1     150.365 162.349 164.851  0.00  0.00    -0.007 C 
ATOM      5  C5  UNL     1     148.874 162.688 164.964  0.00  0.00    -0.059 C 
ATOM      6  C6  UNL     1     151.048 162.156 166.242  0.00  0.00    +0.103 C 
ATOM      7  C7  UNL     1     151.042 163.456 167.081  0.00  0.00    -0.018 C 
ATOM      8  C8  UNL     1     149.971 163.539 168.162  0.00  0.00    -0.062 C 
ATOM      9  O1  UNL     1     150.390 161.095 166.956  0.00  0.00    -0.485 OA
ATOM     10  C9  UNL     1     151.161 159.992 167.228  0.00  0.00    +0.163 A 
ATOM     11  C10 UNL     1     150.594 158.774 166.831  0.00  0.00    -0.006 A 
ATOM     12  C11 UNL     1     151.265 157.576 167.066  0.00  0.00    +0.021 A 
ATOM     13  C12 UNL     1     150.726 156.291 166.653  0.00  0.00    -0.044 A 
ATOM     14  C13 UNL     1     151.421 155.176 166.904  0.00  0.00    +0.024 A 
ATOM     15  C14 UNL     1     152.725 155.195 167.591  0.00  0.00    +0.337 A 
ATOM     16  O2  UNL     1     153.336 154.153 167.802  0.00  0.00    -0.245 OA
ATOM     17  O3  UNL     1     153.214 156.435 167.978  0.00  0.00    -0.422 OA
ATOM     18  C15 UNL     1     152.492 157.618 167.719  0.00  0.00    +0.143 A 
ATOM     19  C16 UNL     1     153.055 158.817 168.157  0.00  0.00    +0.027 A 
ATOM     20  C17 UNL     1     152.381 160.020 167.930  0.00  0.00    +0.165 A 
ATOM     21  O4  UNL     1     152.822 161.241 168.367  0.00  0.00    -0.491 OA
ATOM     22  C18 UNL     1     153.972 161.270 169.202  0.00  0.00    +0.079 C 
ENDROOT
TORSDOF 0
ENDMDL
MODEL 2
REMARK VINA RESULT:    -7.447      3.213      5.925
REMARK INTER + INTRA:          -7.447
REMARK INTER:                  -7.447
REMARK INTRA:                   0.000
REMARK UNBOUND:                 0.000
REMARK  Name = /home/vital/Documents/PhD_2021/Malaria_codes/scripts/../data/pdbqt_ligands/ligand_121_temp.pdb
REMARK                            x       y       z     vdW  Elec       q    Type
REMARK                         _______ _______ _______ _____ _____    ______ ____
ROOT
ATOM      1  C1  UNL     1     150.387 162.011 163.981  0.00  0.00    -0.065 C 
ATOM      2  C2  UNL     1     150.479 161.487 162.556  0.00  0.00    -0.056 C 
ATOM      3  C3  UNL     1     150.661 159.965 162.534  0.00  0.00    -0.047 C 
ATOM      4  C4  UNL     1     150.650 159.365 161.108  0.00  0.00    -0.007 C 
ATOM      5  C5  UNL     1     151.922 159.758 160.347  0.00  0.00    -0.059 C 
ATOM      6  C6  UNL     1     150.438 157.818 161.171  0.00  0.00    +0.103 C 
ATOM      7  C7  UNL     1     150.217 157.202 159.769  0.00  0.00    -0.018 C 
ATOM      8  C8  UNL     1     151.431 156.521 159.149  0.00  0.00    -0.062 C 
ATOM      9  O1  UNL     1     151.567 157.205 161.817  0.00  0.00    -0.485 OA
ATOM     10  C9  UNL     1     151.301 156.567 163.003  0.00  0.00    +0.163 A 
ATOM     11  C10 UNL     1     152.125 156.952 164.069  0.00  0.00    -0.006 A 
ATOM     12  C11 UNL     1     151.972 156.367 165.324  0.00  0.00    +0.021 A 
ATOM     13  C12 UNL     1     152.789 156.750 166.463  0.00  0.00    -0.044 A 
ATOM     14  C13 UNL     1     152.591 156.153 167.643  0.00  0.00    +0.024 A 
ATOM     15  C14 UNL     1     151.568 155.110 167.840  0.00  0.00    +0.337 A 
ATOM     16  O2  UNL     1     151.413 154.587 168.937  0.00  0.00    -0.245 OA
ATOM     17  O3  UNL     1     150.806 154.760 166.734  0.00  0.00    -0.422 OA
ATOM     18  C15 UNL     1     151.004 155.382 165.484  0.00  0.00    +0.143 A 
ATOM     19  C16 UNL     1     150.200 154.957 164.427  0.00  0.00    +0.027 A 
ATOM     20  C17 UNL     1     150.355 155.536 163.164  0.00  0.00    +0.165 A 
ATOM     21  O4  UNL     1     149.656 155.152 162.052  0.00  0.00    -0.491 OA
ATOM     22  C18 UNL     1     148.806 154.018 162.163  0.00  0.00    +0.079 C 
ENDROOT
TORSDOF 0
ENDMDL
MODEL 3
REMARK VINA RESULT:    -7.420      3.537      7.786
REMARK INTER + INTRA:          -7.420
REMARK INTER:                  -7.420
REMARK INTRA:                   0.000
REMARK UNBOUND:                 0.000
REMARK  Name = /home/vital/Documents/PhD_2021/Malaria_codes/scripts/../data/pdbqt_ligands/ligand_121_temp.pdb
REMARK                            x       y       z     vdW  Elec       q    Type
REMARK                         _______ _______ _______ _____ _____    ______ ____
ROOT
ATOM      1  C1  UNL     1     153.119 152.603 168.516  0.00  0.00    -0.065 C 
ATOM      2  C2  UNL     1     151.914 152.034 167.782  0.00  0.00    -0.056 C 
ATOM      3  C3  UNL     1     151.378 153.023 166.742  0.00  0.00    -0.047 C 
ATOM      4  C4  UNL     1     150.219 152.453 165.890  0.00  0.00    -0.007 C 
ATOM      5  C5  UNL     1     148.950 152.300 166.737  0.00  0.00    -0.059 C 
ATOM      6  C6  UNL     1     149.995 153.333 164.619  0.00  0.00    +0.103 C 
ATOM      7  C7  UNL     1     148.988 152.692 163.635  0.00  0.00    -0.018 C 
ATOM      8  C8  UNL     1     147.572 153.255 163.680  0.00  0.00    -0.062 C 
ATOM      9  O1  UNL     1     149.548 154.641 165.014  0.00  0.00    -0.485 OA
ATOM     10  C9  UNL     1     150.392 155.678 164.703  0.00  0.00    +0.163 A 
ATOM     11  C10 UNL     1     150.705 156.516 165.782  0.00  0.00    -0.006 A 
ATOM     12  C11 UNL     1     151.538 157.618 165.598  0.00  0.00    +0.021 A 
ATOM     13  C12 UNL     1     151.907 158.502 166.691  0.00  0.00    -0.044 A 
ATOM     14  C13 UNL     1     152.713 159.542 166.451  0.00  0.00    +0.024 A 
ATOM     15  C14 UNL     1     153.248 159.834 165.109  0.00  0.00    +0.337 A 
ATOM     16  O2  UNL     1     153.988 160.794 164.927  0.00  0.00    -0.245 OA
ATOM     17  O3  UNL     1     152.876 158.976 164.083  0.00  0.00    -0.422 OA
ATOM     18  C15 UNL     1     152.027 157.876 164.323  0.00  0.00    +0.143 A 
ATOM     19  C16 UNL     1     151.696 157.077 163.228  0.00  0.00    +0.027 A 
ATOM     20  C17 UNL     1     150.855 155.975 163.407  0.00  0.00    +0.165 A 
ATOM     21  O4  UNL     1     150.428 155.163 162.391  0.00  0.00    -0.491 OA
ATOM     22  C18 UNL     1     150.765 155.533 161.061  0.00  0.00    +0.079 C 
ENDROOT
TORSDOF 0
ENDMDL
MODEL 4
REMARK VINA RESULT:    -7.356      4.665      7.824
REMARK INTER + INTRA:          -7.356
REMARK INTER:                  -7.356
REMARK INTRA:                   0.000
REMARK UNBOUND:                 0.000
REMARK  Name = /home/vital/Documents/PhD_2021/Malaria_codes/scripts/../data/pdbqt_ligands/ligand_121_temp.pdb
REMARK                            x       y       z     vdW  Elec       q    Type
REMARK                         _______ _______ _______ _____ _____    ______ ____
ROOT
ATOM      1  C1  UNL     1     146.986 152.408 162.854  0.00  0.00    -0.065 C 
ATOM      2  C2  UNL     1     147.723 152.661 164.161  0.00  0.00    -0.056 C 
ATOM      3  C3  UNL     1     148.800 153.739 163.991  0.00  0.00    -0.047 C 
ATOM      4  C4  UNL     1     149.508 154.115 165.314  0.00  0.00    -0.007 C 
ATOM      5  C5  UNL     1     150.405 152.967 165.792  0.00  0.00    -0.059 C 
ATOM      6  C6  UNL     1     150.284 155.461 165.153  0.00  0.00    +0.103 C 
ATOM      7  C7  UNL     1     150.838 155.981 166.500  0.00  0.00    -0.018 C 
ATOM      8  C8  UNL     1     152.318 155.720 166.750  0.00  0.00    -0.062 C 
ATOM      9  O1  UNL     1     151.351 155.288 164.204  0.00  0.00    -0.485 OA
ATOM     10  C9  UNL     1     151.255 156.036 163.057  0.00  0.00    +0.163 A 
ATOM     11  C10 UNL     1     151.378 155.299 161.871  0.00  0.00    -0.006 A 
ATOM     12  C11 UNL     1     151.317 155.940 160.635  0.00  0.00    +0.021 A 
ATOM     13  C12 UNL     1     151.418 155.215 159.380  0.00  0.00    -0.044 A 
ATOM     14  C13 UNL     1     151.349 155.888 158.226  0.00  0.00    +0.024 A 
ATOM     15  C14 UNL     1     151.175 157.350 158.172  0.00  0.00    +0.337 A 
ATOM     16  O2  UNL     1     151.113 157.934 157.096  0.00  0.00    -0.245 OA
ATOM     17  O3  UNL     1     151.087 158.018 159.386  0.00  0.00    -0.422 OA
ATOM     18  C15 UNL     1     151.157 157.321 160.610  0.00  0.00    +0.143 A 
ATOM     19  C16 UNL     1     151.073 158.077 161.779  0.00  0.00    +0.027 A 
ATOM     20  C17 UNL     1     151.140 157.438 163.021  0.00  0.00    +0.165 A 
ATOM     21  O4  UNL     1     151.122 158.094 164.223  0.00  0.00    -0.491 OA
ATOM     22  C18 UNL     1     151.154 159.515 164.203  0.00  0.00    +0.079 C 
ENDROOT
TORSDOF 0
ENDMDL
MODEL 5
REMARK VINA RESULT:    -7.265      2.303      4.494
REMARK INTER + INTRA:          -7.265
REMARK INTER:                  -7.265
REMARK INTRA:                   0.000
REMARK UNBOUND:                 0.000
REMARK  Name = /home/vital/Documents/PhD_2021/Malaria_codes/scripts/../data/pdbqt_ligands/ligand_121_temp.pdb
REMARK                            x       y       z     vdW  Elec       q    Type
REMARK                         _______ _______ _______ _____ _____    ______ ____
ROOT
ATOM      1  C1  UNL     1     148.539 162.320 167.375  0.00  0.00    -0.065 C 
ATOM      2  C2  UNL     1     148.984 162.822 166.010  0.00  0.00    -0.056 C 
ATOM      3  C3  UNL     1     149.742 161.736 165.239  0.00  0.00    -0.047 C 
ATOM      4  C4  UNL     1     150.124 162.156 163.800  0.00  0.00    -0.007 C 
ATOM      5  C5  UNL     1     151.220 163.228 163.822  0.00  0.00    -0.059 C 
ATOM      6  C6  UNL     1     150.522 160.903 162.955  0.00  0.00    +0.103 C 
ATOM      7  C7  UNL     1     150.715 161.245 161.459  0.00  0.00    -0.018 C 
ATOM      8  C8  UNL     1     152.159 161.409 161.000  0.00  0.00    -0.062 C 
ATOM      9  O1  UNL     1     151.721 160.321 163.496  0.00  0.00    -0.485 OA
ATOM     10  C9  UNL     1     151.593 159.050 163.997  0.00  0.00    +0.163 A 
ATOM     11  C10 UNL     1     152.079 158.888 165.302  0.00  0.00    -0.006 A 
ATOM     12  C11 UNL     1     152.026 157.642 165.922  0.00  0.00    +0.021 A 
ATOM     13  C12 UNL     1     152.499 157.431 167.280  0.00  0.00    -0.044 A 
ATOM     14  C13 UNL     1     152.418 156.211 167.821  0.00  0.00    +0.024 A 
ATOM     15  C14 UNL     1     151.864 155.057 167.091  0.00  0.00    +0.337 A 
ATOM     16  O2  UNL     1     151.802 153.953 167.620  0.00  0.00    -0.245 OA
ATOM     17  O3  UNL     1     151.425 155.285 165.794  0.00  0.00    -0.422 OA
ATOM     18  C15 UNL     1     151.504 156.567 165.212  0.00  0.00    +0.143 A 
ATOM     19  C16 UNL     1     151.051 156.699 163.899  0.00  0.00    +0.027 A 
ATOM     20  C17 UNL     1     151.109 157.946 163.270  0.00  0.00    +0.165 A 
ATOM     21  O4  UNL     1     150.741 158.168 161.970  0.00  0.00    -0.491 OA
ATOM     22  C18 UNL     1     150.390 157.040 161.179  0.00  0.00    +0.079 C 
ENDROOT
TORSDOF 0
ENDMDL
MODEL 6
REMARK VINA RESULT:    -7.123      4.375      7.275
REMARK INTER + INTRA:          -7.123
REMARK INTER:                  -7.123
REMARK INTRA:                   0.000
REMARK UNBOUND:                 0.000
REMARK  Name = /home/vital/Documents/PhD_2021/Malaria_codes/scripts/../data/pdbqt_ligands/ligand_121_temp.pdb
REMARK                            x       y       z     vdW  Elec       q    Type
REMARK                         _______ _______ _______ _____ _____    ______ ____
ROOT
ATOM      1  C1  UNL     1     149.113 153.829 165.083  0.00  0.00    -0.065 C 
ATOM      2  C2  UNL     1     149.928 154.855 165.856  0.00  0.00    -0.056 C 
ATOM      3  C3  UNL     1     150.488 155.935 164.924  0.00  0.00    -0.047 C 
ATOM      4  C4  UNL     1     151.234 157.066 165.671  0.00  0.00    -0.007 C 
ATOM      5  C5  UNL     1     152.558 156.551 166.248  0.00  0.00    -0.059 C 
ATOM      6  C6  UNL     1     151.423 158.303 164.736  0.00  0.00    +0.103 C 
ATOM      7  C7  UNL     1     151.980 159.530 165.496  0.00  0.00    -0.018 C 
ATOM      8  C8  UNL     1     153.473 159.787 165.329  0.00  0.00    -0.062 C 
ATOM      9  O1  UNL     1     152.292 157.951 163.645  0.00  0.00    -0.485 OA
ATOM     10  C9  UNL     1     151.726 157.996 162.395  0.00  0.00    +0.163 A 
ATOM     11  C10 UNL     1     151.895 156.829 161.638  0.00  0.00    -0.006 A 
ATOM     12  C11 UNL     1     151.386 156.750 160.344  0.00  0.00    +0.021 A 
ATOM     13  C12 UNL     1     151.518 155.553 159.530  0.00  0.00    -0.044 A 
ATOM     14  C13 UNL     1     151.004 155.538 158.296  0.00  0.00    +0.024 A 
ATOM     15  C14 UNL     1     150.301 156.698 157.718  0.00  0.00    +0.337 A 
ATOM     16  O2  UNL     1     149.840 156.648 156.584  0.00  0.00    -0.245 OA
ATOM     17  O3  UNL     1     150.194 157.830 158.515  0.00  0.00    -0.422 OA
ATOM     18  C15 UNL     1     150.731 157.858 159.818  0.00  0.00    +0.143 A 
ATOM     19  C16 UNL     1     150.587 159.043 160.541  0.00  0.00    +0.027 A 
ATOM     20  C17 UNL     1     151.103 159.129 161.837  0.00  0.00    +0.165 A 
ATOM     21  O4  UNL     1     151.062 160.261 162.606  0.00  0.00    -0.491 OA
ATOM     22  C18 UNL     1     150.570 161.451 162.006  0.00  0.00    +0.079 C 
ENDROOT
TORSDOF 0
ENDMDL
MODEL 7
REMARK VINA RESULT:    -6.928      2.918      6.296
REMARK INTER + INTRA:          -6.928
REMARK INTER:                  -6.928
REMARK INTRA:                   0.000
REMARK UNBOUND:                 0.000
REMARK  Name = /home/vital/Documents/PhD_2021/Malaria_codes/scripts/../data/pdbqt_ligands/ligand_121_temp.pdb
REMARK                            x       y       z     vdW  Elec       q    Type
REMARK                         _______ _______ _______ _____ _____    ______ ____
ROOT
ATOM      1  C1  UNL     1     149.569 154.374 165.880  0.00  0.00    -0.065 C 
ATOM      2  C2  UNL     1     150.312 155.275 166.855  0.00  0.00    -0.056 C 
ATOM      3  C3  UNL     1     150.714 156.598 166.193  0.00  0.00    -0.047 C 
ATOM      4  C4  UNL     1     151.376 157.598 167.170  0.00  0.00    -0.007 C 
ATOM      5  C5  UNL     1     152.772 157.112 167.577  0.00  0.00    -0.059 C 
ATOM      6  C6  UNL     1     151.392 159.032 166.551  0.00  0.00    +0.103 C 
ATOM      7  C7  UNL     1     151.858 160.102 167.567  0.00  0.00    -0.018 C 
ATOM      8  C8  UNL     1     153.306 160.554 167.432  0.00  0.00    -0.062 C 
ATOM      9  O1  UNL     1     152.239 159.043 165.388  0.00  0.00    -0.485 OA
ATOM     10  C9  UNL     1     151.612 159.316 164.197  0.00  0.00    +0.163 A 
ATOM     11  C10 UNL     1     151.862 158.383 163.182  0.00  0.00    -0.006 A 
ATOM     12  C11 UNL     1     151.302 158.552 161.918  0.00  0.00    +0.021 A 
ATOM     13  C12 UNL     1     151.516 157.601 160.840  0.00  0.00    -0.044 A 
ATOM     14  C13 UNL     1     150.947 157.818 159.650  0.00  0.00    +0.024 A 
ATOM     15  C14 UNL     1     150.103 158.996 159.380  0.00  0.00    +0.337 A 
ATOM     16  O2  UNL     1     149.595 159.161 158.276  0.00  0.00    -0.245 OA
ATOM     17  O3  UNL     1     149.919 159.891 160.425  0.00  0.00    -0.422 OA
ATOM     18  C15 UNL     1     150.513 159.673 161.685  0.00  0.00    +0.143 A 
ATOM     19  C16 UNL     1     150.284 160.634 162.671  0.00  0.00    +0.027 A 
ATOM     20  C17 UNL     1     150.851 160.471 163.938  0.00  0.00    +0.165 A 
ATOM     21  O4  UNL     1     150.731 161.381 164.955  0.00  0.00    -0.491 OA
ATOM     22  C18 UNL     1     150.092 162.617 164.666  0.00  0.00    +0.079 C 
ENDROOT
TORSDOF 0
ENDMDL
MODEL 8
REMARK VINA RESULT:    -6.530      3.249      6.935
REMARK INTER + INTRA:          -6.530
REMARK INTER:                  -6.530
REMARK INTRA:                   0.000
REMARK UNBOUND:                 0.000
REMARK  Name = /home/vital/Documents/PhD_2021/Malaria_codes/scripts/../data/pdbqt_ligands/ligand_121_temp.pdb
REMARK                            x       y       z     vdW  Elec       q    Type
REMARK                         _______ _______ _______ _____ _____    ______ ____
ROOT
ATOM      1  C1  UNL     1     147.588 153.184 163.953  0.00  0.00    -0.065 C 
ATOM      2  C2  UNL     1     148.502 153.114 165.167  0.00  0.00    -0.056 C 
ATOM      3  C3  UNL     1     149.543 154.238 165.144  0.00  0.00    -0.047 C 
ATOM      4  C4  UNL     1     150.430 154.281 166.411  0.00  0.00    -0.007 C 
ATOM      5  C5  UNL     1     151.387 153.084 166.442  0.00  0.00    -0.059 C 
ATOM      6  C6  UNL     1     151.174 155.652 166.507  0.00  0.00    +0.103 C 
ATOM      7  C7  UNL     1     151.912 155.822 167.856  0.00  0.00    -0.018 C 
ATOM      8  C8  UNL     1     153.413 155.561 167.824  0.00  0.00    -0.062 C 
ATOM      9  O1  UNL     1     152.097 155.774 165.411  0.00  0.00    -0.485 OA
ATOM     10  C9  UNL     1     151.840 156.792 164.526  0.00  0.00    +0.163 A 
ATOM     11  C10 UNL     1     151.794 156.397 163.182  0.00  0.00    -0.006 A 
ATOM     12  C11 UNL     1     151.560 157.336 162.181  0.00  0.00    +0.021 A 
ATOM     13  C12 UNL     1     151.483 156.969 160.777  0.00  0.00    -0.044 A 
ATOM     14  C13 UNL     1     151.252 157.917 159.862  0.00  0.00    +0.024 A 
ATOM     15  C14 UNL     1     151.071 159.336 160.222  0.00  0.00    +0.337 A 
ATOM     16  O2  UNL     1     150.857 160.177 159.357  0.00  0.00    -0.245 OA
ATOM     17  O3  UNL     1     151.154 159.658 161.569  0.00  0.00    -0.422 OA
ATOM     18  C15 UNL     1     151.397 158.668 162.543  0.00  0.00    +0.143 A 
ATOM     19  C16 UNL     1     151.477 159.088 163.872  0.00  0.00    +0.027 A 
ATOM     20  C17 UNL     1     151.720 158.150 164.879  0.00  0.00    +0.165 A 
ATOM     21  O4  UNL     1     151.870 158.466 166.202  0.00  0.00    -0.491 OA
ATOM     22  C18 UNL     1     151.898 159.843 166.555  0.00  0.00    +0.079 C 
ENDROOT
TORSDOF 0
ENDMDL
