MODEL 1
REMARK VINA RESULT:    -8.305      0.000      0.000
REMARK INTER + INTRA:          -8.305
REMARK INTER:                  -8.305
REMARK INTRA:                   0.000
REMARK UNBOUND:                 0.000
REMARK  Name = /home/vital/Documents/PhD_2021/Malaria_codes/scripts/../data/pdbqt_ligands/ligand_41_temp.pdb
REMARK                            x       y       z     vdW  Elec       q    Type
REMARK                         _______ _______ _______ _____ _____    ______ ____
ROOT
ATOM      1  C1  UNL     1     149.780 159.160 159.647  0.00  0.00    -0.039 C 
ATOM      2  C2  UNL     1     150.369 157.930 159.008  0.00  0.00    -0.043 A 
ATOM      3  C3  UNL     1     150.451 157.886 157.608  0.00  0.00    -0.058 A 
ATOM      4  C4  UNL     1     150.970 156.773 156.955  0.00  0.00    -0.061 A 
ATOM      5  C5  UNL     1     151.426 155.684 157.692  0.00  0.00    -0.054 A 
ATOM      6  C6  UNL     1     151.379 155.695 159.096  0.00  0.00    +0.006 A 
ATOM      7  C7  UNL     1     150.828 156.825 159.770  0.00  0.00    +0.005 A 
ATOM      8  C8  UNL     1     150.773 156.823 161.307  0.00  0.00    +0.141 C 
ATOM      9  N1  UNL     1     152.148 156.918 161.805  0.00  0.00    -0.325 N 
ATOM     10  C9  UNL     1     152.533 157.031 163.127  0.00  0.00    -0.009 C 
ATOM     11  C10 UNL     1     151.840 156.769 164.243  0.00  0.00    -0.047 C 
ATOM     12  C11 UNL     1     152.396 156.935 165.570  0.00  0.00    -0.043 C 
ATOM     13  C12 UNL     1     151.790 156.708 166.754  0.00  0.00    +0.016 C 
ATOM     14  N2  UNL     1     152.482 156.919 167.949  0.00  0.00    -0.360 N 
ATOM     15  C13 UNL     1     150.349 156.236 166.899  0.00  0.00    +0.060 C 
ATOM     16 CL1  UNL     1     150.307 154.670 167.759  0.00  0.00    -0.119 Cl
ATOM     17  N3  UNL     1     149.937 155.778 161.893  0.00  0.00    -0.250 NA
ATOM     18  C14 UNL     1     150.012 154.559 161.528  0.00  0.00    +0.080 C 
ATOM     19  N4  UNL     1     150.758 153.919 160.590  0.00  0.00    -0.307 N 
ATOM     20  C15 UNL     1     151.861 154.511 159.917  0.00  0.00    +0.147 C 
ATOM     21  O1  UNL     1     152.421 153.487 159.112  0.00  0.00    -0.370 OA
ATOM     22  H   UNL     1     152.867 156.899 161.133  0.00  0.00    +0.000 HD
ATOM     23  H   UNL     1     153.419 157.225 167.928  0.00  0.00    +0.000 HD
ATOM     24  H   UNL     1     152.035 156.762 168.812  0.00  0.00    +0.000 HD
ATOM     25  H   UNL     1     150.521 152.990 160.365  0.00  0.00    +0.000 HD
ATOM     26  H   UNL     1     151.745 153.147 158.506  0.00  0.00    +0.000 HD
ENDROOT
TORSDOF 0
ENDMDL
MODEL 2
REMARK VINA RESULT:    -8.015      5.437      8.731
REMARK INTER + INTRA:          -8.015
REMARK INTER:                  -8.015
REMARK INTRA:                   0.000
REMARK UNBOUND:                 0.000
REMARK  Name = /home/vital/Documents/PhD_2021/Malaria_codes/scripts/../data/pdbqt_ligands/ligand_41_temp.pdb
REMARK                            x       y       z     vdW  Elec       q    Type
REMARK                         _______ _______ _______ _____ _____    ______ ____
ROOT
ATOM      1  C1  UNL     1     151.478 154.069 159.875  0.00  0.00    -0.039 C 
ATOM      2  C2  UNL     1     151.211 155.531 160.115  0.00  0.00    -0.043 A 
ATOM      3  C3  UNL     1     151.069 155.969 161.441  0.00  0.00    -0.058 A 
ATOM      4  C4  UNL     1     150.806 157.304 161.730  0.00  0.00    -0.061 A 
ATOM      5  C5  UNL     1     150.687 158.229 160.697  0.00  0.00    -0.054 A 
ATOM      6  C6  UNL     1     150.840 157.835 159.357  0.00  0.00    +0.006 A 
ATOM      7  C7  UNL     1     151.089 156.464 159.054  0.00  0.00    +0.005 A 
ATOM      8  C8  UNL     1     151.245 156.042 157.583  0.00  0.00    +0.141 C 
ATOM      9  N1  UNL     1     152.501 156.610 157.085  0.00  0.00    -0.325 N 
ATOM     10  C9  UNL     1     153.056 156.399 155.838  0.00  0.00    -0.009 C 
ATOM     11  C10 UNL     1     152.488 155.933 154.718  0.00  0.00    -0.047 C 
ATOM     12  C11 UNL     1     153.214 155.774 153.476  0.00  0.00    -0.043 C 
ATOM     13  C12 UNL     1     152.744 155.311 152.298  0.00  0.00    +0.016 C 
ATOM     14  N2  UNL     1     153.591 155.227 151.189  0.00  0.00    -0.360 N 
ATOM     15  C13 UNL     1     151.314 154.839 152.074  0.00  0.00    +0.060 C 
ATOM     16 CL1  UNL     1     150.539 155.831 150.805  0.00  0.00    -0.119 Cl
ATOM     17  N3  UNL     1     150.061 156.248 156.753  0.00  0.00    -0.250 NA
ATOM     18  C14 UNL     1     149.410 157.344 156.752  0.00  0.00    +0.080 C 
ATOM     19  N4  UNL     1     149.555 158.506 157.441  0.00  0.00    -0.307 N 
ATOM     20  C15 UNL     1     150.702 158.829 158.216  0.00  0.00    +0.147 C 
ATOM     21  O1  UNL     1     150.501 160.155 158.675  0.00  0.00    -0.370 OA
ATOM     22  H   UNL     1     152.998 157.200 157.698  0.00  0.00    +0.000 HD
ATOM     23  H   UNL     1     154.530 155.516 151.264  0.00  0.00    +0.000 HD
ATOM     24  H   UNL     1     153.249 154.880 150.334  0.00  0.00    +0.000 HD
ATOM     25  H   UNL     1     148.823 159.163 157.400  0.00  0.00    +0.000 HD
ATOM     26  H   UNL     1     149.676 160.200 159.183  0.00  0.00    +0.000 HD
ENDROOT
TORSDOF 0
ENDMDL
MODEL 3
REMARK VINA RESULT:    -8.004      4.908      7.337
REMARK INTER + INTRA:          -8.004
REMARK INTER:                  -8.004
REMARK INTRA:                   0.000
REMARK UNBOUND:                 0.000
REMARK  Name = /home/vital/Documents/PhD_2021/Malaria_codes/scripts/../data/pdbqt_ligands/ligand_41_temp.pdb
REMARK                            x       y       z     vdW  Elec       q    Type
REMARK                         _______ _______ _______ _____ _____    ______ ____
ROOT
ATOM      1  C1  UNL     1     154.062 154.707 168.129  0.00  0.00    -0.039 C 
ATOM      2  C2  UNL     1     152.770 154.147 167.594  0.00  0.00    -0.043 A 
ATOM      3  C3  UNL     1     152.527 152.775 167.757  0.00  0.00    -0.058 A 
ATOM      4  C4  UNL     1     151.360 152.192 167.273  0.00  0.00    -0.061 A 
ATOM      5  C5  UNL     1     150.409 152.974 166.623  0.00  0.00    -0.054 A 
ATOM      6  C6  UNL     1     150.607 154.354 166.455  0.00  0.00    +0.006 A 
ATOM      7  C7  UNL     1     151.810 154.954 166.931  0.00  0.00    +0.005 A 
ATOM      8  C8  UNL     1     152.020 156.464 166.734  0.00  0.00    +0.141 C 
ATOM      9  N1  UNL     1     151.067 157.165 167.600  0.00  0.00    -0.325 N 
ATOM     10  C9  UNL     1     150.984 158.532 167.785  0.00  0.00    -0.009 C 
ATOM     11  C10 UNL     1     151.480 159.527 167.038  0.00  0.00    -0.047 C 
ATOM     12  C11 UNL     1     151.297 160.924 167.370  0.00  0.00    -0.043 C 
ATOM     13  C12 UNL     1     151.756 162.000 166.696  0.00  0.00    +0.016 C 
ATOM     14  N2  UNL     1     151.481 163.289 167.161  0.00  0.00    -0.360 N 
ATOM     15  C13 UNL     1     152.595 161.920 165.428  0.00  0.00    +0.060 C 
ATOM     16 CL1  UNL     1     151.747 162.740 164.085  0.00  0.00    -0.119 Cl
ATOM     17  N3  UNL     1     152.082 156.902 165.342  0.00  0.00    -0.250 NA
ATOM     18  C14 UNL     1     151.226 156.535 164.472  0.00  0.00    +0.080 C 
ATOM     19  N4  UNL     1     150.146 155.712 164.527  0.00  0.00    -0.307 N 
ATOM     20  C15 UNL     1     149.586 155.221 165.738  0.00  0.00    +0.147 C 
ATOM     21  O1  UNL     1     148.427 154.496 165.364  0.00  0.00    -0.370 OA
ATOM     22  H   UNL     1     150.425 156.609 168.096  0.00  0.00    +0.000 HD
ATOM     23  H   UNL     1     150.943 163.413 167.976  0.00  0.00    +0.000 HD
ATOM     24  H   UNL     1     151.824 164.072 166.673  0.00  0.00    +0.000 HD
ATOM     25  H   UNL     1     149.728 155.440 163.678  0.00  0.00    +0.000 HD
ATOM     26  H   UNL     1     148.673 153.789 164.747  0.00  0.00    +0.000 HD
ENDROOT
TORSDOF 0
ENDMDL
MODEL 4
REMARK VINA RESULT:    -7.725      9.732     11.746
REMARK INTER + INTRA:          -7.725
REMARK INTER:                  -7.725
REMARK INTRA:                   0.000
REMARK UNBOUND:                 0.000
REMARK  Name = /home/vital/Documents/PhD_2021/Malaria_codes/scripts/../data/pdbqt_ligands/ligand_41_temp.pdb
REMARK                            x       y       z     vdW  Elec       q    Type
REMARK                         _______ _______ _______ _____ _____    ______ ____
ROOT
ATOM      1  C1  UNL     1     146.515 150.525 167.832  0.00  0.00    -0.039 C 
ATOM      2  C2  UNL     1     146.845 150.676 166.371  0.00  0.00    -0.043 A 
ATOM      3  C3  UNL     1     147.576 151.805 165.971  0.00  0.00    -0.058 A 
ATOM      4  C4  UNL     1     147.901 152.011 164.633  0.00  0.00    -0.061 A 
ATOM      5  C5  UNL     1     147.505 151.086 163.671  0.00  0.00    -0.054 A 
ATOM      6  C6  UNL     1     146.787 149.934 164.033  0.00  0.00    +0.006 A 
ATOM      7  C7  UNL     1     146.434 149.728 165.399  0.00  0.00    +0.005 A 
ATOM      8  C8  UNL     1     145.640 148.468 165.782  0.00  0.00    +0.141 C 
ATOM      9  N1  UNL     1     146.522 147.311 165.605  0.00  0.00    -0.325 N 
ATOM     10  C9  UNL     1     146.224 146.000 165.921  0.00  0.00    -0.009 C 
ATOM     11  C10 UNL     1     145.035 145.424 166.139  0.00  0.00    -0.047 C 
ATOM     12  C11 UNL     1     144.890 144.018 166.457  0.00  0.00    -0.043 C 
ATOM     13  C12 UNL     1     143.749 143.341 166.701  0.00  0.00    +0.016 C 
ATOM     14  N2  UNL     1     143.792 141.974 166.991  0.00  0.00    -0.360 N 
ATOM     15  C13 UNL     1     142.363 143.972 166.701  0.00  0.00    +0.060 C 
ATOM     16 CL1  UNL     1     141.339 143.188 165.463  0.00  0.00    -0.119 Cl
ATOM     17  N3  UNL     1     144.310 148.372 165.186  0.00  0.00    -0.250 NA
ATOM     18  C14 UNL     1     144.102 148.572 163.944  0.00  0.00    +0.080 C 
ATOM     19  N4  UNL     1     144.917 148.920 162.914  0.00  0.00    -0.307 N 
ATOM     20  C15 UNL     1     146.337 148.921 162.994  0.00  0.00    +0.147 C 
ATOM     21  O1  UNL     1     146.800 149.237 161.692  0.00  0.00    -0.370 OA
ATOM     22  H   UNL     1     147.414 147.485 165.224  0.00  0.00    +0.000 HD
ATOM     23  H   UNL     1     144.657 141.502 167.007  0.00  0.00    +0.000 HD
ATOM     24  H   UNL     1     142.960 141.483 167.177  0.00  0.00    +0.000 HD
ATOM     25  H   UNL     1     144.500 149.187 162.064  0.00  0.00    +0.000 HD
ATOM     26  H   UNL     1     146.435 150.093 161.419  0.00  0.00    +0.000 HD
ENDROOT
TORSDOF 0
ENDMDL
MODEL 5
REMARK VINA RESULT:    -7.606      2.892      4.168
REMARK INTER + INTRA:          -7.606
REMARK INTER:                  -7.606
REMARK INTRA:                   0.000
REMARK UNBOUND:                 0.000
REMARK  Name = /home/vital/Documents/PhD_2021/Malaria_codes/scripts/../data/pdbqt_ligands/ligand_41_temp.pdb
REMARK                            x       y       z     vdW  Elec       q    Type
REMARK                         _______ _______ _______ _____ _____    ______ ____
ROOT
ATOM      1  C1  UNL     1     152.022 154.885 157.847  0.00  0.00    -0.039 C 
ATOM      2  C2  UNL     1     151.411 156.247 158.049  0.00  0.00    -0.043 A 
ATOM      3  C3  UNL     1     151.501 157.174 156.999  0.00  0.00    -0.058 A 
ATOM      4  C4  UNL     1     150.969 158.453 157.126  0.00  0.00    -0.061 A 
ATOM      5  C5  UNL     1     150.330 158.828 158.304  0.00  0.00    -0.054 A 
ATOM      6  C6  UNL     1     150.204 157.923 159.372  0.00  0.00    +0.006 A 
ATOM      7  C7  UNL     1     150.764 156.617 159.255  0.00  0.00    +0.005 A 
ATOM      8  C8  UNL     1     150.628 155.639 160.434  0.00  0.00    +0.141 C 
ATOM      9  N1  UNL     1     149.215 155.264 160.543  0.00  0.00    -0.325 N 
ATOM     10  C9  UNL     1     148.681 154.338 161.418  0.00  0.00    -0.009 C 
ATOM     11  C10 UNL     1     149.203 153.821 162.538  0.00  0.00    -0.047 C 
ATOM     12  C11 UNL     1     148.503 152.854 163.357  0.00  0.00    -0.043 C 
ATOM     13  C12 UNL     1     148.935 152.267 164.494  0.00  0.00    +0.016 C 
ATOM     14  N2  UNL     1     148.121 151.351 165.164  0.00  0.00    -0.360 N 
ATOM     15  C13 UNL     1     150.299 152.522 165.122  0.00  0.00    +0.060 C 
ATOM     16 CL1  UNL     1     150.095 153.181 166.771  0.00  0.00    -0.119 Cl
ATOM     17  N3  UNL     1     151.288 156.061 161.666  0.00  0.00    -0.250 NA
ATOM     18  C14 UNL     1     151.152 157.234 162.146  0.00  0.00    +0.080 C 
ATOM     19  N4  UNL     1     150.474 158.333 161.724  0.00  0.00    -0.307 N 
ATOM     20  C15 UNL     1     149.520 158.318 160.670  0.00  0.00    +0.147 C 
ATOM     21  O1  UNL     1     148.976 159.626 160.619  0.00  0.00    -0.370 OA
ATOM     22  H   UNL     1     148.586 155.714 159.935  0.00  0.00    +0.000 HD
ATOM     23  H   UNL     1     147.225 151.139 164.812  0.00  0.00    +0.000 HD
ATOM     24  H   UNL     1     148.442 150.917 165.987  0.00  0.00    +0.000 HD
ATOM     25  H   UNL     1     150.654 159.190 162.175  0.00  0.00    +0.000 HD
ATOM     26  H   UNL     1     149.689 160.267 160.476  0.00  0.00    +0.000 HD
ENDROOT
TORSDOF 0
ENDMDL
MODEL 6
REMARK VINA RESULT:    -7.601      4.915      9.024
REMARK INTER + INTRA:          -7.601
REMARK INTER:                  -7.601
REMARK INTRA:                   0.000
REMARK UNBOUND:                 0.000
REMARK  Name = /home/vital/Documents/PhD_2021/Malaria_codes/scripts/../data/pdbqt_ligands/ligand_41_temp.pdb
REMARK                            x       y       z     vdW  Elec       q    Type
REMARK                         _______ _______ _______ _____ _____    ______ ____
ROOT
ATOM      1  C1  UNL     1     154.884 161.546 167.643  0.00  0.00    -0.039 C 
ATOM      2  C2  UNL     1     153.736 161.173 168.543  0.00  0.00    -0.043 A 
ATOM      3  C3  UNL     1     153.816 161.529 169.898  0.00  0.00    -0.058 A 
ATOM      4  C4  UNL     1     152.796 161.200 170.786  0.00  0.00    -0.061 A 
ATOM      5  C5  UNL     1     151.672 160.515 170.332  0.00  0.00    -0.054 A 
ATOM      6  C6  UNL     1     151.546 160.157 168.980  0.00  0.00    +0.006 A 
ATOM      7  C7  UNL     1     152.597 160.473 168.070  0.00  0.00    +0.005 A 
ATOM      8  C8  UNL     1     152.452 160.067 166.593  0.00  0.00    +0.141 C 
ATOM      9  N1  UNL     1     151.394 160.893 166.004  0.00  0.00    -0.325 N 
ATOM     10  C9  UNL     1     151.010 160.904 164.677  0.00  0.00    -0.009 C 
ATOM     11  C10 UNL     1     151.242 160.003 163.713  0.00  0.00    -0.047 C 
ATOM     12  C11 UNL     1     150.759 160.161 162.357  0.00  0.00    -0.043 C 
ATOM     13  C12 UNL     1     150.939 159.324 161.314  0.00  0.00    +0.016 C 
ATOM     14  N2  UNL     1     150.394 159.634 160.065  0.00  0.00    -0.360 N 
ATOM     15  C13 UNL     1     151.732 158.027 161.386  0.00  0.00    +0.060 C 
ATOM     16 CL1  UNL     1     150.676 156.646 160.970  0.00  0.00    -0.119 Cl
ATOM     17  N3  UNL     1     152.367 158.629 166.354  0.00  0.00    -0.250 NA
ATOM     18  C14 UNL     1     151.589 157.871 167.019  0.00  0.00    +0.080 C 
ATOM     19  N4  UNL     1     150.726 158.101 168.043  0.00  0.00    -0.307 N 
ATOM     20  C15 UNL     1     150.332 159.400 168.469  0.00  0.00    +0.147 C 
ATOM     21  O1  UNL     1     149.356 159.199 169.477  0.00  0.00    -0.370 OA
ATOM     22  H   UNL     1     150.911 161.498 166.611  0.00  0.00    +0.000 HD
ATOM     23  H   UNL     1     149.869 160.459 159.947  0.00  0.00    +0.000 HD
ATOM     24  H   UNL     1     150.535 159.027 159.302  0.00  0.00    +0.000 HD
ATOM     25  H   UNL     1     150.352 157.324 168.518  0.00  0.00    +0.000 HD
ATOM     26  H   UNL     1     149.735 158.664 170.192  0.00  0.00    +0.000 HD
ENDROOT
TORSDOF 0
ENDMDL
MODEL 7
REMARK VINA RESULT:    -7.549      4.436      5.313
REMARK INTER + INTRA:          -7.549
REMARK INTER:                  -7.549
REMARK INTRA:                   0.000
REMARK UNBOUND:                 0.000
REMARK  Name = /home/vital/Documents/PhD_2021/Malaria_codes/scripts/../data/pdbqt_ligands/ligand_41_temp.pdb
REMARK                            x       y       z     vdW  Elec       q    Type
REMARK                         _______ _______ _______ _____ _____    ______ ____
ROOT
ATOM      1  C1  UNL     1     150.848 156.033 160.068  0.00  0.00    -0.039 C 
ATOM      2  C2  UNL     1     151.049 156.930 158.875  0.00  0.00    -0.043 A 
ATOM      3  C3  UNL     1     151.104 156.338 157.604  0.00  0.00    -0.058 A 
ATOM      4  C4  UNL     1     151.303 157.108 156.463  0.00  0.00    -0.061 A 
ATOM      5  C5  UNL     1     151.444 158.489 156.571  0.00  0.00    -0.054 A 
ATOM      6  C6  UNL     1     151.377 159.122 157.823  0.00  0.00    +0.006 A 
ATOM      7  C7  UNL     1     151.194 158.336 158.998  0.00  0.00    +0.005 A 
ATOM      8  C8  UNL     1     151.131 159.039 160.365  0.00  0.00    +0.141 C 
ATOM      9  N1  UNL     1     149.884 159.807 160.417  0.00  0.00    -0.325 N 
ATOM     10  C9  UNL     1     149.405 160.514 161.502  0.00  0.00    -0.009 C 
ATOM     11  C10 UNL     1     150.048 160.937 162.598  0.00  0.00    -0.047 C 
ATOM     12  C11 UNL     1     149.395 161.682 163.654  0.00  0.00    -0.043 C 
ATOM     13  C12 UNL     1     149.943 162.148 164.796  0.00  0.00    +0.016 C 
ATOM     14  N2  UNL     1     149.161 162.856 165.712  0.00  0.00    -0.360 N 
ATOM     15  C13 UNL     1     151.400 161.943 165.191  0.00  0.00    +0.060 C 
ATOM     16 CL1  UNL     1     152.205 163.527 165.383  0.00  0.00    -0.119 Cl
ATOM     17  N3  UNL     1     152.350 159.746 160.751  0.00  0.00    -0.250 NA
ATOM     18  C14 UNL     1     152.960 160.537 159.960  0.00  0.00    +0.080 C 
ATOM     19  N4  UNL     1     152.737 160.912 158.673  0.00  0.00    -0.307 N 
ATOM     20  C15 UNL     1     151.540 160.626 157.962  0.00  0.00    +0.147 C 
ATOM     21  O1  UNL     1     151.668 161.275 156.707  0.00  0.00    -0.370 OA
ATOM     22  H   UNL     1     149.335 159.821 159.600  0.00  0.00    +0.000 HD
ATOM     23  H   UNL     1     148.210 163.025 165.519  0.00  0.00    +0.000 HD
ATOM     24  H   UNL     1     149.560 163.187 166.549  0.00  0.00    +0.000 HD
ATOM     25  H   UNL     1     153.447 161.410 158.206  0.00  0.00    +0.000 HD
ATOM     26  H   UNL     1     152.463 160.951 156.256  0.00  0.00    +0.000 HD
ENDROOT
TORSDOF 0
ENDMDL
MODEL 8
REMARK VINA RESULT:    -7.339      8.988     11.063
REMARK INTER + INTRA:          -7.339
REMARK INTER:                  -7.339
REMARK INTRA:                   0.000
REMARK UNBOUND:                 0.000
REMARK  Name = /home/vital/Documents/PhD_2021/Malaria_codes/scripts/../data/pdbqt_ligands/ligand_41_temp.pdb
REMARK                            x       y       z     vdW  Elec       q    Type
REMARK                         _______ _______ _______ _____ _____    ______ ____
ROOT
ATOM      1  C1  UNL     1     141.701 148.416 165.224  0.00  0.00    -0.039 C 
ATOM      2  C2  UNL     1     142.396 147.203 164.665  0.00  0.00    -0.043 A 
ATOM      3  C3  UNL     1     141.613 146.084 164.342  0.00  0.00    -0.058 A 
ATOM      4  C4  UNL     1     142.194 144.925 163.835  0.00  0.00    -0.061 A 
ATOM      5  C5  UNL     1     143.571 144.868 163.635  0.00  0.00    -0.054 A 
ATOM      6  C6  UNL     1     144.387 145.973 163.929  0.00  0.00    +0.006 A 
ATOM      7  C7  UNL     1     143.799 147.155 164.468  0.00  0.00    +0.005 A 
ATOM      8  C8  UNL     1     144.704 148.356 164.795  0.00  0.00    +0.141 C 
ATOM      9  N1  UNL     1     145.190 148.908 163.527  0.00  0.00    -0.325 N 
ATOM     10  C9  UNL     1     145.960 150.044 163.373  0.00  0.00    -0.009 C 
ATOM     11  C10 UNL     1     146.695 150.706 164.276  0.00  0.00    -0.047 C 
ATOM     12  C11 UNL     1     147.461 151.891 163.950  0.00  0.00    -0.043 C 
ATOM     13  C12 UNL     1     148.225 152.635 164.777  0.00  0.00    +0.016 C 
ATOM     14  N2  UNL     1     148.904 153.754 164.289  0.00  0.00    -0.360 N 
ATOM     15  C13 UNL     1     148.404 152.350 166.262  0.00  0.00    +0.060 C 
ATOM     16 CL1  UNL     1     150.130 152.057 166.621  0.00  0.00    -0.119 Cl
ATOM     17  N3  UNL     1     145.707 148.109 165.827  0.00  0.00    -0.250 NA
ATOM     18  C14 UNL     1     146.456 147.078 165.818  0.00  0.00    +0.080 C 
ATOM     19  N4  UNL     1     146.543 146.005 164.989  0.00  0.00    -0.307 N 
ATOM     20  C15 UNL     1     145.892 145.924 163.728  0.00  0.00    +0.147 C 
ATOM     21  O1  UNL     1     146.321 144.705 163.146  0.00  0.00    -0.370 OA
ATOM     22  H   UNL     1     144.943 148.424 162.706  0.00  0.00    +0.000 HD
ATOM     23  H   UNL     1     148.832 153.996 163.337  0.00  0.00    +0.000 HD
ATOM     24  H   UNL     1     149.453 154.301 164.896  0.00  0.00    +0.000 HD
ATOM     25  H   UNL     1     147.089 145.238 165.280  0.00  0.00    +0.000 HD
ATOM     26  H   UNL     1     146.097 143.969 163.736  0.00  0.00    +0.000 HD
ENDROOT
TORSDOF 0
ENDMDL
MODEL 9
REMARK VINA RESULT:    -6.893      6.089      9.688
REMARK INTER + INTRA:          -6.893
REMARK INTER:                  -6.893
REMARK INTRA:                   0.000
REMARK UNBOUND:                 0.000
REMARK  Name = /home/vital/Documents/PhD_2021/Malaria_codes/scripts/../data/pdbqt_ligands/ligand_41_temp.pdb
REMARK                            x       y       z     vdW  Elec       q    Type
REMARK                         _______ _______ _______ _____ _____    ______ ____
ROOT
ATOM      1  C1  UNL     1     154.589 161.546 167.988  0.00  0.00    -0.039 C 
ATOM      2  C2  UNL     1     153.279 162.017 168.564  0.00  0.00    -0.043 A 
ATOM      3  C3  UNL     1     153.281 162.543 169.865  0.00  0.00    -0.058 A 
ATOM      4  C4  UNL     1     152.102 162.982 170.461  0.00  0.00    -0.061 A 
ATOM      5  C5  UNL     1     150.900 162.909 169.763  0.00  0.00    -0.054 A 
ATOM      6  C6  UNL     1     150.860 162.406 168.452  0.00  0.00    +0.006 A 
ATOM      7  C7  UNL     1     152.060 161.936 167.843  0.00  0.00    +0.005 A 
ATOM      8  C8  UNL     1     152.002 161.378 166.411  0.00  0.00    +0.141 C 
ATOM      9  N1  UNL     1     151.720 162.497 165.507  0.00  0.00    -0.325 N 
ATOM     10  C9  UNL     1     151.671 162.439 164.127  0.00  0.00    -0.009 C 
ATOM     11  C10 UNL     1     151.543 161.378 163.321  0.00  0.00    -0.047 C 
ATOM     12  C11 UNL     1     151.501 161.488 161.877  0.00  0.00    -0.043 C 
ATOM     13  C12 UNL     1     151.383 160.491 160.976  0.00  0.00    +0.016 C 
ATOM     14  N2  UNL     1     151.355 160.780 159.609  0.00  0.00    -0.360 N 
ATOM     15  C13 UNL     1     151.289 159.015 161.341  0.00  0.00    +0.060 C 
ATOM     16 CL1  UNL     1     149.747 158.338 160.741  0.00  0.00    -0.119 Cl
ATOM     17  N3  UNL     1     151.181 160.183 166.248  0.00  0.00    -0.250 NA
ATOM     18  C14 UNL     1     150.001 160.094 166.723  0.00  0.00    +0.080 C 
ATOM     19  N4  UNL     1     149.234 160.942 167.458  0.00  0.00    -0.307 N 
ATOM     20  C15 UNL     1     149.555 162.309 167.679  0.00  0.00    +0.147 C 
ATOM     21  O1  UNL     1     148.460 162.855 168.395  0.00  0.00    -0.370 OA
ATOM     22  H   UNL     1     151.548 163.373 165.921  0.00  0.00    +0.000 HD
ATOM     23  H   UNL     1     151.412 161.714 159.303  0.00  0.00    +0.000 HD
ATOM     24  H   UNL     1     151.278 160.050 158.953  0.00  0.00    +0.000 HD
ATOM     25  H   UNL     1     148.408 160.588 167.860  0.00  0.00    +0.000 HD
ATOM     26  H   UNL     1     148.332 162.358 169.217  0.00  0.00    +0.000 HD
ENDROOT
TORSDOF 0
ENDMDL
