MODEL 1
REMARK VINA RESULT:    -7.854      0.000      0.000
REMARK INTER + INTRA:          -7.854
REMARK INTER:                  -7.854
REMARK INTRA:                   0.000
REMARK UNBOUND:                 0.000
REMARK  Name = /home/vital/Documents/PhD_2021/Malaria_codes/scripts/../data/pdbqt_ligands/ligand_236_temp.pdb
REMARK                            x       y       z     vdW  Elec       q    Type
REMARK                         _______ _______ _______ _____ _____    ______ ____
ROOT
ATOM      1  C   UNL     1     150.184 159.962 160.868  0.00  0.00    -0.064 C 
ATOM      2  C   UNL     1     150.250 159.813 159.352  0.00  0.00    -0.039 C 
ATOM      3  C   UNL     1     151.479 159.021 158.861  0.00  0.00    +0.017 C 
ATOM      4  N   UNL     1     152.733 159.700 159.233  0.00  0.00    -0.326 N 
ATOM      5  C   UNL     1     151.456 158.820 157.320  0.00  0.00    +0.012 C 
ATOM      6  N   UNL     1     150.256 158.134 156.817  0.00  0.00    -0.304 N 
ATOM      7  C   UNL     1     150.435 156.708 156.472  0.00  0.00    +0.061 C 
ATOM      8  C   UNL     1     150.780 155.875 157.713  0.00  0.00    -0.026 A 
ATOM      9  C   UNL     1     149.741 155.408 158.541  0.00  0.00    -0.055 A 
ATOM     10  C   UNL     1     150.020 154.667 159.691  0.00  0.00    -0.043 A 
ATOM     11  C   UNL     1     151.341 154.391 160.033  0.00  0.00    +0.041 A 
ATOM     12 CL   UNL     1     151.685 153.481 161.453  0.00  0.00    -0.084 Cl
ATOM     13  C   UNL     1     152.386 154.855 159.239  0.00  0.00    -0.043 A 
ATOM     14  C   UNL     1     152.108 155.597 158.088  0.00  0.00    -0.055 A 
ATOM     15  C   UNL     1     151.240 156.402 155.203  0.00  0.00    +0.009 A 
ATOM     16  C   UNL     1     151.628 155.076 154.911  0.00  0.00    -0.054 A 
ATOM     17  C   UNL     1     152.327 154.758 153.741  0.00  0.00    -0.061 A 
ATOM     18  C   UNL     1     152.631 155.751 152.817  0.00  0.00    -0.059 A 
ATOM     19  C   UNL     1     152.219 157.057 153.057  0.00  0.00    -0.026 A 
ATOM     20  C   UNL     1     151.523 157.368 154.226  0.00  0.00    +0.128 A 
ATOM     21  F   UNL     1     151.103 158.633 154.371  0.00  0.00    -0.205 F 
ATOM     22  H   UNL     1     152.773 160.612 158.778  0.00  0.00    +0.000 HD
ATOM     23  H   UNL     1     153.527 159.135 158.933  0.00  0.00    +0.000 HD
ATOM     24  H   UNL     1     152.765 159.824 160.245  0.00  0.00    +0.000 HD
ATOM     25  H   UNL     1     149.943 158.624 155.979  0.00  0.00    +0.000 HD
ATOM     26  H   UNL     1     149.582 158.155 157.582  0.00  0.00    +0.000 HD
ENDROOT
TORSDOF 0
ENDMDL
MODEL 2
REMARK VINA RESULT:    -7.261      6.447      9.123
REMARK INTER + INTRA:          -7.261
REMARK INTER:                  -7.261
REMARK INTRA:                   0.000
REMARK UNBOUND:                 0.000
REMARK  Name = /home/vital/Documents/PhD_2021/Malaria_codes/scripts/../data/pdbqt_ligands/ligand_236_temp.pdb
REMARK                            x       y       z     vdW  Elec       q    Type
REMARK                         _______ _______ _______ _____ _____    ______ ____
ROOT
ATOM      1  C   UNL     1     152.551 156.804 162.442  0.00  0.00    -0.064 C 
ATOM      2  C   UNL     1     151.264 156.022 162.206  0.00  0.00    -0.039 C 
ATOM      3  C   UNL     1     151.364 154.534 162.598  0.00  0.00    +0.017 C 
ATOM      4  N   UNL     1     152.385 153.839 161.794  0.00  0.00    -0.326 N 
ATOM      5  C   UNL     1     150.004 153.799 162.423  0.00  0.00    +0.012 C 
ATOM      6  N   UNL     1     148.896 154.388 163.190  0.00  0.00    -0.304 N 
ATOM      7  C   UNL     1     148.526 153.668 164.428  0.00  0.00    +0.061 C 
ATOM      8  C   UNL     1     149.669 153.695 165.449  0.00  0.00    -0.026 A 
ATOM      9  C   UNL     1     149.811 154.810 166.297  0.00  0.00    -0.055 A 
ATOM     10  C   UNL     1     150.854 154.878 167.223  0.00  0.00    -0.043 A 
ATOM     11  C   UNL     1     151.774 153.837 167.307  0.00  0.00    +0.041 A 
ATOM     12 CL   UNL     1     153.062 153.923 168.445  0.00  0.00    -0.084 Cl
ATOM     13  C   UNL     1     151.665 152.731 166.469  0.00  0.00    -0.043 A 
ATOM     14  C   UNL     1     150.621 152.662 165.541  0.00  0.00    -0.055 A 
ATOM     15  C   UNL     1     147.801 152.327 164.254  0.00  0.00    +0.009 A 
ATOM     16  C   UNL     1     147.592 151.484 165.367  0.00  0.00    -0.054 A 
ATOM     17  C   UNL     1     146.898 150.275 165.250  0.00  0.00    -0.061 A 
ATOM     18  C   UNL     1     146.368 149.889 164.024  0.00  0.00    -0.059 A 
ATOM     19  C   UNL     1     146.519 150.723 162.922  0.00  0.00    -0.026 A 
ATOM     20  C   UNL     1     147.213 151.928 163.045  0.00  0.00    +0.128 A 
ATOM     21  F   UNL     1     147.272 152.714 161.960  0.00  0.00    -0.205 F 
ATOM     22  H   UNL     1     152.118 153.864 160.810  0.00  0.00    +0.000 HD
ATOM     23  H   UNL     1     152.458 152.869 162.102  0.00  0.00    +0.000 HD
ATOM     24  H   UNL     1     153.285 154.304 161.913  0.00  0.00    +0.000 HD
ATOM     25  H   UNL     1     148.076 154.416 162.586  0.00  0.00    +0.000 HD
ATOM     26  H   UNL     1     149.220 155.308 163.488  0.00  0.00    +0.000 HD
ENDROOT
TORSDOF 0
ENDMDL
MODEL 3
REMARK VINA RESULT:    -6.842      3.131      4.260
REMARK INTER + INTRA:          -6.842
REMARK INTER:                  -6.842
REMARK INTRA:                   0.000
REMARK UNBOUND:                 0.000
REMARK  Name = /home/vital/Documents/PhD_2021/Malaria_codes/scripts/../data/pdbqt_ligands/ligand_236_temp.pdb
REMARK                            x       y       z     vdW  Elec       q    Type
REMARK                         _______ _______ _______ _____ _____    ______ ____
ROOT
ATOM      1  C   UNL     1     150.265 162.130 163.874  0.00  0.00    -0.064 C 
ATOM      2  C   UNL     1     149.879 161.490 162.545  0.00  0.00    -0.039 C 
ATOM      3  C   UNL     1     151.068 160.857 161.794  0.00  0.00    +0.017 C 
ATOM      4  N   UNL     1     152.080 161.871 161.450  0.00  0.00    -0.326 N 
ATOM      5  C   UNL     1     150.611 160.142 160.491  0.00  0.00    +0.012 C 
ATOM      6  N   UNL     1     149.606 159.089 160.699  0.00  0.00    -0.304 N 
ATOM      7  C   UNL     1     150.117 157.702 160.655  0.00  0.00    +0.061 C 
ATOM      8  C   UNL     1     151.099 157.436 161.803  0.00  0.00    -0.026 A 
ATOM      9  C   UNL     1     150.599 157.071 163.068  0.00  0.00    -0.055 A 
ATOM     10  C   UNL     1     151.463 156.844 164.142  0.00  0.00    -0.043 A 
ATOM     11  C   UNL     1     152.836 156.986 163.967  0.00  0.00    +0.041 A 
ATOM     12 CL   UNL     1     153.900 156.709 165.291  0.00  0.00    -0.084 Cl
ATOM     13  C   UNL     1     153.354 157.361 162.730  0.00  0.00    -0.043 A 
ATOM     14  C   UNL     1     152.490 157.590 161.655  0.00  0.00    -0.055 A 
ATOM     15  C   UNL     1     150.519 157.159 159.278  0.00  0.00    +0.009 A 
ATOM     16  C   UNL     1     151.200 155.928 159.172  0.00  0.00    -0.054 A 
ATOM     17  C   UNL     1     151.543 155.385 157.929  0.00  0.00    -0.061 A 
ATOM     18  C   UNL     1     151.189 156.043 156.757  0.00  0.00    -0.059 A 
ATOM     19  C   UNL     1     150.475 157.235 156.832  0.00  0.00    -0.026 A 
ATOM     20  C   UNL     1     150.137 157.771 158.075  0.00  0.00    +0.128 A 
ATOM     21  F   UNL     1     149.399 158.891 158.078  0.00  0.00    -0.205 F 
ATOM     22  H   UNL     1     151.671 162.560 160.818  0.00  0.00    +0.000 HD
ATOM     23  H   UNL     1     152.872 161.419 160.992  0.00  0.00    +0.000 HD
ATOM     24  H   UNL     1     152.398 162.336 162.300  0.00  0.00    +0.000 HD
ATOM     25  H   UNL     1     148.896 159.186 159.974  0.00  0.00    +0.000 HD
ATOM     26  H   UNL     1     149.250 159.226 161.645  0.00  0.00    +0.000 HD
ENDROOT
TORSDOF 0
ENDMDL
MODEL 4
REMARK VINA RESULT:    -6.678     10.057     11.589
REMARK INTER + INTRA:          -6.678
REMARK INTER:                  -6.678
REMARK INTRA:                   0.000
REMARK UNBOUND:                 0.000
REMARK  Name = /home/vital/Documents/PhD_2021/Malaria_codes/scripts/../data/pdbqt_ligands/ligand_236_temp.pdb
REMARK                            x       y       z     vdW  Elec       q    Type
REMARK                         _______ _______ _______ _____ _____    ______ ____
ROOT
ATOM      1  C   UNL     1     153.496 163.359 169.406  0.00  0.00    -0.064 C 
ATOM      2  C   UNL     1     153.768 161.894 169.087  0.00  0.00    -0.039 C 
ATOM      3  C   UNL     1     152.597 160.955 169.442  0.00  0.00    +0.017 C 
ATOM      4  N   UNL     1     152.312 160.984 170.887  0.00  0.00    -0.326 N 
ATOM      5  C   UNL     1     152.887 159.487 169.018  0.00  0.00    +0.012 C 
ATOM      6  N   UNL     1     153.174 159.317 167.586  0.00  0.00    -0.304 N 
ATOM      7  C   UNL     1     152.063 158.777 166.773  0.00  0.00    +0.061 C 
ATOM      8  C   UNL     1     150.874 159.745 166.746  0.00  0.00    -0.026 A 
ATOM      9  C   UNL     1     150.866 160.802 165.816  0.00  0.00    -0.055 A 
ATOM     10  C   UNL     1     149.810 161.716 165.778  0.00  0.00    -0.043 A 
ATOM     11  C   UNL     1     148.753 161.589 166.676  0.00  0.00    +0.041 A 
ATOM     12 CL   UNL     1     147.455 162.718 166.632  0.00  0.00    -0.084 Cl
ATOM     13  C   UNL     1     148.746 160.562 167.615  0.00  0.00    -0.043 A 
ATOM     14  C   UNL     1     149.803 159.648 167.654  0.00  0.00    -0.055 A 
ATOM     15  C   UNL     1     151.727 157.293 166.965  0.00  0.00    +0.009 A 
ATOM     16  C   UNL     1     150.561 156.748 166.384  0.00  0.00    -0.054 A 
ATOM     17  C   UNL     1     150.248 155.390 166.505  0.00  0.00    -0.061 A 
ATOM     18  C   UNL     1     151.106 154.533 167.185  0.00  0.00    -0.059 A 
ATOM     19  C   UNL     1     152.285 155.034 167.726  0.00  0.00    -0.026 A 
ATOM     20  C   UNL     1     152.591 156.390 167.602  0.00  0.00    +0.128 A 
ATOM     21  F   UNL     1     153.770 156.799 168.094  0.00  0.00    -0.205 F 
ATOM     22  H   UNL     1     153.124 160.643 171.401  0.00  0.00    +0.000 HD
ATOM     23  H   UNL     1     151.509 160.388 171.087  0.00  0.00    +0.000 HD
ATOM     24  H   UNL     1     152.105 161.941 171.174  0.00  0.00    +0.000 HD
ATOM     25  H   UNL     1     153.966 158.681 167.498  0.00  0.00    +0.000 HD
ATOM     26  H   UNL     1     153.356 160.253 167.224  0.00  0.00    +0.000 HD
ENDROOT
TORSDOF 0
ENDMDL
MODEL 5
REMARK VINA RESULT:    -6.655      5.961      8.711
REMARK INTER + INTRA:          -6.655
REMARK INTER:                  -6.655
REMARK INTRA:                   0.000
REMARK UNBOUND:                 0.000
REMARK  Name = /home/vital/Documents/PhD_2021/Malaria_codes/scripts/../data/pdbqt_ligands/ligand_236_temp.pdb
REMARK                            x       y       z     vdW  Elec       q    Type
REMARK                         _______ _______ _______ _____ _____    ______ ____
ROOT
ATOM      1  C   UNL     1     153.404 155.772 167.894  0.00  0.00    -0.064 C 
ATOM      2  C   UNL     1     152.993 155.847 166.428  0.00  0.00    -0.039 C 
ATOM      3  C   UNL     1     151.684 156.626 166.191  0.00  0.00    +0.017 C 
ATOM      4  N   UNL     1     150.549 155.979 166.873  0.00  0.00    -0.326 N 
ATOM      5  C   UNL     1     151.353 156.750 164.676  0.00  0.00    +0.012 C 
ATOM      6  N   UNL     1     152.405 157.397 163.879  0.00  0.00    -0.304 N 
ATOM      7  C   UNL     1     152.151 158.807 163.512  0.00  0.00    +0.061 C 
ATOM      8  C   UNL     1     152.097 159.703 164.755  0.00  0.00    -0.026 A 
ATOM      9  C   UNL     1     153.297 160.200 165.299  0.00  0.00    -0.055 A 
ATOM     10  C   UNL     1     153.288 161.000 166.444  0.00  0.00    -0.043 A 
ATOM     11  C   UNL     1     152.080 161.307 167.064  0.00  0.00    +0.041 A 
ATOM     12 CL   UNL     1     152.069 162.290 168.476  0.00  0.00    -0.084 Cl
ATOM     13  C   UNL     1     150.882 160.815 166.554  0.00  0.00    -0.043 A 
ATOM     14  C   UNL     1     150.890 160.014 165.409  0.00  0.00    -0.055 A 
ATOM     15  C   UNL     1     151.076 159.058 162.446  0.00  0.00    +0.009 A 
ATOM     16  C   UNL     1     150.630 160.371 162.184  0.00  0.00    -0.054 A 
ATOM     17  C   UNL     1     149.682 160.638 161.190  0.00  0.00    -0.061 A 
ATOM     18  C   UNL     1     149.175 159.604 160.412  0.00  0.00    -0.059 A 
ATOM     19  C   UNL     1     149.633 158.307 160.617  0.00  0.00    -0.026 A 
ATOM     20  C   UNL     1     150.578 158.047 161.611  0.00  0.00    +0.128 A 
ATOM     21  F   UNL     1     151.022 156.786 161.719  0.00  0.00    -0.205 F 
ATOM     22  H   UNL     1     150.406 155.046 166.486  0.00  0.00    +0.000 HD
ATOM     23  H   UNL     1     149.706 156.537 166.734  0.00  0.00    +0.000 HD
ATOM     24  H   UNL     1     150.749 155.906 167.871  0.00  0.00    +0.000 HD
ATOM     25  H   UNL     1     152.519 156.864 163.017  0.00  0.00    +0.000 HD
ATOM     26  H   UNL     1     153.237 157.408 164.469  0.00  0.00    +0.000 HD
ENDROOT
TORSDOF 0
ENDMDL
MODEL 6
REMARK VINA RESULT:    -6.521     14.326     17.106
REMARK INTER + INTRA:          -6.521
REMARK INTER:                  -6.521
REMARK INTRA:                   0.000
REMARK UNBOUND:                 0.000
REMARK  Name = /home/vital/Documents/PhD_2021/Malaria_codes/scripts/../data/pdbqt_ligands/ligand_236_temp.pdb
REMARK                            x       y       z     vdW  Elec       q    Type
REMARK                         _______ _______ _______ _____ _____    ______ ____
ROOT
ATOM      1  C   UNL     1     141.430 148.873 166.841  0.00  0.00    -0.064 C 
ATOM      2  C   UNL     1     141.485 147.372 167.100  0.00  0.00    -0.039 C 
ATOM      3  C   UNL     1     141.859 146.542 165.855  0.00  0.00    +0.017 C 
ATOM      4  N   UNL     1     140.860 146.709 164.785  0.00  0.00    -0.326 N 
ATOM      5  C   UNL     1     141.988 145.029 166.189  0.00  0.00    +0.012 C 
ATOM      6  N   UNL     1     142.971 144.723 167.239  0.00  0.00    -0.304 N 
ATOM      7  C   UNL     1     144.266 144.189 166.764  0.00  0.00    +0.061 C 
ATOM      8  C   UNL     1     145.016 145.225 165.919  0.00  0.00    -0.026 A 
ATOM      9  C   UNL     1     145.804 146.200 166.561  0.00  0.00    -0.055 A 
ATOM     10  C   UNL     1     146.482 147.173 165.823  0.00  0.00    -0.043 A 
ATOM     11  C   UNL     1     146.375 147.189 164.435  0.00  0.00    +0.041 A 
ATOM     12 CL   UNL     1     147.209 148.390 163.527  0.00  0.00    -0.084 Cl
ATOM     13  C   UNL     1     145.591 146.246 163.778  0.00  0.00    -0.043 A 
ATOM     14  C   UNL     1     144.910 145.272 164.516  0.00  0.00    -0.055 A 
ATOM     15  C   UNL     1     144.264 142.750 166.232  0.00  0.00    +0.009 A 
ATOM     16  C   UNL     1     145.404 142.235 165.577  0.00  0.00    -0.054 A 
ATOM     17  C   UNL     1     145.450 140.914 165.118  0.00  0.00    -0.061 A 
ATOM     18  C   UNL     1     144.371 140.063 165.327  0.00  0.00    -0.059 A 
ATOM     19  C   UNL     1     143.254 140.532 166.012  0.00  0.00    -0.026 A 
ATOM     20  C   UNL     1     143.214 141.851 166.466  0.00  0.00    +0.128 A 
ATOM     21  F   UNL     1     142.135 142.223 167.170  0.00  0.00    -0.205 F 
ATOM     22  H   UNL     1     139.957 146.361 165.106  0.00  0.00    +0.000 HD
ATOM     23  H   UNL     1     141.154 146.184 163.961  0.00  0.00    +0.000 HD
ATOM     24  H   UNL     1     140.779 147.697 164.547  0.00  0.00    +0.000 HD
ATOM     25  H   UNL     1     142.557 144.032 167.865  0.00  0.00    +0.000 HD
ATOM     26  H   UNL     1     143.184 145.612 167.691  0.00  0.00    +0.000 HD
ENDROOT
TORSDOF 0
ENDMDL
MODEL 7
REMARK VINA RESULT:    -6.465      7.682     11.424
REMARK INTER + INTRA:          -6.465
REMARK INTER:                  -6.465
REMARK INTRA:                   0.000
REMARK UNBOUND:                 0.000
REMARK  Name = /home/vital/Documents/PhD_2021/Malaria_codes/scripts/../data/pdbqt_ligands/ligand_236_temp.pdb
REMARK                            x       y       z     vdW  Elec       q    Type
REMARK                         _______ _______ _______ _____ _____    ______ ____
ROOT
ATOM      1  C   UNL     1     150.730 160.912 161.929  0.00  0.00    -0.064 C 
ATOM      2  C   UNL     1     151.423 161.587 163.107  0.00  0.00    -0.039 C 
ATOM      3  C   UNL     1     150.682 161.404 164.447  0.00  0.00    +0.017 C 
ATOM      4  N   UNL     1     149.338 162.007 164.398  0.00  0.00    -0.326 N 
ATOM      5  C   UNL     1     151.470 162.033 165.632  0.00  0.00    +0.012 C 
ATOM      6  N   UNL     1     152.831 161.503 165.801  0.00  0.00    -0.304 N 
ATOM      7  C   UNL     1     153.002 160.524 166.896  0.00  0.00    +0.061 C 
ATOM      8  C   UNL     1     152.195 159.248 166.630  0.00  0.00    -0.026 A 
ATOM      9  C   UNL     1     152.748 158.239 165.819  0.00  0.00    -0.055 A 
ATOM     10  C   UNL     1     152.032 157.073 165.537  0.00  0.00    -0.043 A 
ATOM     11  C   UNL     1     150.751 156.906 166.055  0.00  0.00    +0.041 A 
ATOM     12 CL   UNL     1     149.868 155.471 165.704  0.00  0.00    -0.084 Cl
ATOM     13  C   UNL     1     150.176 157.895 166.846  0.00  0.00    -0.043 A 
ATOM     14  C   UNL     1     150.892 159.063 167.128  0.00  0.00    -0.055 A 
ATOM     15  C   UNL     1     152.951 161.075 168.327  0.00  0.00    +0.009 A 
ATOM     16  C   UNL     1     152.903 160.191 169.426  0.00  0.00    -0.054 A 
ATOM     17  C   UNL     1     152.898 160.660 170.744  0.00  0.00    -0.061 A 
ATOM     18  C   UNL     1     152.970 162.024 171.000  0.00  0.00    -0.059 A 
ATOM     19  C   UNL     1     153.066 162.915 169.936  0.00  0.00    -0.026 A 
ATOM     20  C   UNL     1     153.070 162.440 168.624  0.00  0.00    +0.128 A 
ATOM     21  F   UNL     1     153.223 163.345 167.646  0.00  0.00    -0.205 F 
ATOM     22  H   UNL     1     149.421 163.012 164.246  0.00  0.00    +0.000 HD
ATOM     23  H   UNL     1     148.856 161.836 165.281  0.00  0.00    +0.000 HD
ATOM     24  H   UNL     1     148.807 161.590 163.634  0.00  0.00    +0.000 HD
ATOM     25  H   UNL     1     153.454 162.290 165.983  0.00  0.00    +0.000 HD
ATOM     26  H   UNL     1     153.045 161.000 164.940  0.00  0.00    +0.000 HD
ENDROOT
TORSDOF 0
ENDMDL
MODEL 8
REMARK VINA RESULT:    -6.225      8.501     11.898
REMARK INTER + INTRA:          -6.225
REMARK INTER:                  -6.225
REMARK INTRA:                   0.000
REMARK UNBOUND:                 0.000
REMARK  Name = /home/vital/Documents/PhD_2021/Malaria_codes/scripts/../data/pdbqt_ligands/ligand_236_temp.pdb
REMARK                            x       y       z     vdW  Elec       q    Type
REMARK                         _______ _______ _______ _____ _____    ______ ____
ROOT
ATOM      1  C   UNL     1     150.460 155.870 164.794  0.00  0.00    -0.064 C 
ATOM      2  C   UNL     1     150.676 156.616 166.107  0.00  0.00    -0.039 C 
ATOM      3  C   UNL     1     151.930 157.513 166.110  0.00  0.00    +0.017 C 
ATOM      4  N   UNL     1     153.155 156.717 165.917  0.00  0.00    -0.326 N 
ATOM      5  C   UNL     1     152.059 158.318 167.434  0.00  0.00    +0.012 C 
ATOM      6  N   UNL     1     150.901 159.172 167.738  0.00  0.00    -0.304 N 
ATOM      7  C   UNL     1     151.081 160.613 167.460  0.00  0.00    +0.061 C 
ATOM      8  C   UNL     1     151.280 160.869 165.961  0.00  0.00    -0.026 A 
ATOM      9  C   UNL     1     150.153 160.984 165.126  0.00  0.00    -0.055 A 
ATOM     10  C   UNL     1     150.297 161.194 163.752  0.00  0.00    -0.043 A 
ATOM     11  C   UNL     1     151.570 161.283 163.196  0.00  0.00    +0.041 A 
ATOM     12 CL   UNL     1     151.747 161.538 161.503  0.00  0.00    -0.084 Cl
ATOM     13  C   UNL     1     152.700 161.157 163.998  0.00  0.00    -0.043 A 
ATOM     14  C   UNL     1     152.556 160.946 165.373  0.00  0.00    -0.055 A 
ATOM     15  C   UNL     1     152.004 161.388 168.410  0.00  0.00    +0.009 A 
ATOM     16  C   UNL     1     152.390 162.710 168.103  0.00  0.00    -0.054 A 
ATOM     17  C   UNL     1     153.196 163.458 168.968  0.00  0.00    -0.061 A 
ATOM     18  C   UNL     1     153.615 162.915 170.177  0.00  0.00    -0.059 A 
ATOM     19  C   UNL     1     153.210 161.631 170.526  0.00  0.00    -0.026 A 
ATOM     20  C   UNL     1     152.407 160.890 169.658  0.00  0.00    +0.128 A 
ATOM     21  F   UNL     1     152.003 159.682 170.078  0.00  0.00    -0.205 F 
ATOM     22  H   UNL     1     153.262 156.064 166.694  0.00  0.00    +0.000 HD
ATOM     23  H   UNL     1     153.963 157.339 165.882  0.00  0.00    +0.000 HD
ATOM     24  H   UNL     1     153.088 156.196 165.043  0.00  0.00    +0.000 HD
ATOM     25  H   UNL     1     150.686 159.067 168.729  0.00  0.00    +0.000 HD
ATOM     26  H   UNL     1     150.153 158.859 167.119  0.00  0.00    +0.000 HD
ENDROOT
TORSDOF 0
ENDMDL
MODEL 9
REMARK VINA RESULT:    -6.011     14.180     17.033
REMARK INTER + INTRA:          -6.011
REMARK INTER:                  -6.011
REMARK INTRA:                   0.000
REMARK UNBOUND:                 0.000
REMARK  Name = /home/vital/Documents/PhD_2021/Malaria_codes/scripts/../data/pdbqt_ligands/ligand_236_temp.pdb
REMARK                            x       y       z     vdW  Elec       q    Type
REMARK                         _______ _______ _______ _____ _____    ______ ____
ROOT
ATOM      1  C   UNL     1     146.572 148.620 163.843  0.00  0.00    -0.064 C 
ATOM      2  C   UNL     1     146.186 147.147 163.762  0.00  0.00    -0.039 C 
ATOM      3  C   UNL     1     145.939 146.495 165.137  0.00  0.00    +0.017 C 
ATOM      4  N   UNL     1     147.157 146.525 165.966  0.00  0.00    -0.326 N 
ATOM      5  C   UNL     1     145.464 145.021 164.999  0.00  0.00    +0.012 C 
ATOM      6  N   UNL     1     144.240 144.853 164.202  0.00  0.00    -0.304 N 
ATOM      7  C   UNL     1     143.001 144.626 164.977  0.00  0.00    +0.061 C 
ATOM      8  C   UNL     1     142.654 145.847 165.838  0.00  0.00    -0.026 A 
ATOM      9  C   UNL     1     141.942 146.917 165.264  0.00  0.00    -0.055 A 
ATOM     10  C   UNL     1     141.629 148.054 166.012  0.00  0.00    -0.043 A 
ATOM     11  C   UNL     1     142.032 148.139 167.342  0.00  0.00    +0.041 A 
ATOM     12 CL   UNL     1     141.650 149.542 168.263  0.00  0.00    -0.084 Cl
ATOM     13  C   UNL     1     142.751 147.101 167.928  0.00  0.00    -0.043 A 
ATOM     14  C   UNL     1     143.065 145.963 167.179  0.00  0.00    -0.055 A 
ATOM     15  C   UNL     1     142.849 143.255 165.648  0.00  0.00    +0.009 A 
ATOM     16  C   UNL     1     141.801 143.027 166.566  0.00  0.00    -0.054 A 
ATOM     17  C   UNL     1     141.610 141.776 167.164  0.00  0.00    -0.061 A 
ATOM     18  C   UNL     1     142.443 140.712 166.838  0.00  0.00    -0.059 A 
ATOM     19  C   UNL     1     143.454 140.897 165.901  0.00  0.00    -0.026 A 
ATOM     20  C   UNL     1     143.639 142.148 165.309  0.00  0.00    +0.128 A 
ATOM     21  F   UNL     1     144.593 142.245 164.371  0.00  0.00    -0.205 F 
ATOM     22  H   UNL     1     147.891 145.980 165.513  0.00  0.00    +0.000 HD
ATOM     23  H   UNL     1     146.955 146.126 166.883  0.00  0.00    +0.000 HD
ATOM     24  H   UNL     1     147.470 147.490 166.076  0.00  0.00    +0.000 HD
ATOM     25  H   UNL     1     144.375 144.053 163.584  0.00  0.00    +0.000 HD
ATOM     26  H   UNL     1     144.104 145.735 163.709  0.00  0.00    +0.000 HD
ENDROOT
TORSDOF 0
ENDMDL
