MODEL 1
REMARK VINA RESULT:    -7.608      0.000      0.000
REMARK INTER + INTRA:          -7.608
REMARK INTER:                  -7.608
REMARK INTRA:                   0.000
REMARK UNBOUND:                 0.000
REMARK  Name = /home/vital/Documents/PhD_2021/Malaria_codes/scripts/../data/pdbqt_ligands/ligand_394_temp.pdb
REMARK                            x       y       z     vdW  Elec       q    Type
REMARK                         _______ _______ _______ _____ _____    ______ ____
ROOT
ATOM      1  C1  UNL     1     153.521 155.576 153.146  0.00  0.00    -0.033 C 
ATOM      2  C2  UNL     1     153.114 157.045 153.003  0.00  0.00    +0.079 C 
ATOM      3  C3  UNL     1     152.009 157.177 151.950  0.00  0.00    -0.033 C 
ATOM      4  O1  UNL     1     154.256 157.758 152.521  0.00  0.00    -0.385 OA
ATOM      5  C4  UNL     1     152.797 157.624 154.361  0.00  0.00    -0.053 C 
ATOM      6  C5  UNL     1     151.636 158.169 154.764  0.00  0.00    -0.056 C 
ATOM      7  C6  UNL     1     151.408 158.707 156.116  0.00  0.00    -0.023 A 
ATOM      8  C7  UNL     1     150.153 158.520 156.706  0.00  0.00    -0.054 A 
ATOM      9  C8  UNL     1     149.862 159.033 157.979  0.00  0.00    -0.052 A 
ATOM     10  C9  UNL     1     150.848 159.759 158.670  0.00  0.00    -0.000 A 
ATOM     11  C10 UNL     1     150.898 160.403 159.937  0.00  0.00    -0.037 A 
ATOM     12  C11 UNL     1     152.147 160.964 160.074  0.00  0.00    +0.003 A 
ATOM     13  N1  UNL     1     152.857 160.686 158.936  0.00  0.00    -0.361 N 
ATOM     14  C12 UNL     1     152.088 159.949 158.063  0.00  0.00    +0.047 A 
ATOM     15  C13 UNL     1     152.395 159.443 156.792  0.00  0.00    -0.031 A 
ATOM     16  H   UNL     1     154.501 157.421 151.646  0.00  0.00    +0.000 HD
ATOM     17  H   UNL     1     153.784 160.972 158.766  0.00  0.00    +0.000 HD
ENDROOT
TORSDOF 0
ENDMDL
MODEL 2
REMARK VINA RESULT:    -7.603      5.722      9.820
REMARK INTER + INTRA:          -7.603
REMARK INTER:                  -7.603
REMARK INTRA:                   0.000
REMARK UNBOUND:                 0.000
REMARK  Name = /home/vital/Documents/PhD_2021/Malaria_codes/scripts/../data/pdbqt_ligands/ligand_394_temp.pdb
REMARK                            x       y       z     vdW  Elec       q    Type
REMARK                         _______ _______ _______ _____ _____    ______ ____
ROOT
ATOM      1  C1  UNL     1     151.727 155.629 153.595  0.00  0.00    -0.033 C 
ATOM      2  C2  UNL     1     152.468 156.408 152.505  0.00  0.00    +0.079 C 
ATOM      3  C3  UNL     1     153.060 157.691 153.097  0.00  0.00    -0.033 C 
ATOM      4  O1  UNL     1     151.501 156.792 151.524  0.00  0.00    -0.385 OA
ATOM      5  C4  UNL     1     153.447 155.500 151.801  0.00  0.00    -0.053 C 
ATOM      6  C5  UNL     1     154.779 155.656 151.702  0.00  0.00    -0.056 C 
ATOM      7  C6  UNL     1     155.665 154.714 150.999  0.00  0.00    -0.023 A 
ATOM      8  C7  UNL     1     156.932 154.460 151.538  0.00  0.00    -0.054 A 
ATOM      9  C8  UNL     1     157.835 153.596 150.901  0.00  0.00    -0.052 A 
ATOM     10  C9  UNL     1     157.465 152.983 149.691  0.00  0.00    -0.000 A 
ATOM     11  C10 UNL     1     158.109 152.081 148.800  0.00  0.00    -0.037 A 
ATOM     12  C11 UNL     1     157.244 151.830 147.760  0.00  0.00    +0.003 A 
ATOM     13  N1  UNL     1     156.098 152.547 147.985  0.00  0.00    -0.361 N 
ATOM     14  C12 UNL     1     156.206 153.258 149.159  0.00  0.00    +0.047 A 
ATOM     15  C13 UNL     1     155.292 154.119 149.783  0.00  0.00    -0.031 A 
ATOM     16  H   UNL     1     150.845 157.379 151.930  0.00  0.00    +0.000 HD
ATOM     17  H   UNL     1     155.312 152.553 147.392  0.00  0.00    +0.000 HD
ENDROOT
TORSDOF 0
ENDMDL
MODEL 3
REMARK VINA RESULT:    -7.381      2.234      2.529
REMARK INTER + INTRA:          -7.381
REMARK INTER:                  -7.381
REMARK INTRA:                   0.000
REMARK UNBOUND:                 0.000
REMARK  Name = /home/vital/Documents/PhD_2021/Malaria_codes/scripts/../data/pdbqt_ligands/ligand_394_temp.pdb
REMARK                            x       y       z     vdW  Elec       q    Type
REMARK                         _______ _______ _______ _____ _____    ______ ____
ROOT
ATOM      1  C1  UNL     1     151.531 155.126 152.633  0.00  0.00    -0.033 C 
ATOM      2  C2  UNL     1     152.603 155.658 153.588  0.00  0.00    +0.079 C 
ATOM      3  C3  UNL     1     153.473 156.691 152.866  0.00  0.00    -0.033 C 
ATOM      4  O1  UNL     1     153.443 154.556 153.940  0.00  0.00    -0.385 OA
ATOM      5  C4  UNL     1     151.959 156.126 154.871  0.00  0.00    -0.053 C 
ATOM      6  C5  UNL     1     152.006 157.359 155.404  0.00  0.00    -0.056 C 
ATOM      7  C6  UNL     1     151.341 157.734 156.663  0.00  0.00    -0.023 A 
ATOM      8  C7  UNL     1     150.765 159.006 156.760  0.00  0.00    -0.054 A 
ATOM      9  C8  UNL     1     150.142 159.436 157.942  0.00  0.00    -0.052 A 
ATOM     10  C9  UNL     1     150.107 158.576 159.054  0.00  0.00    -0.000 A 
ATOM     11  C10 UNL     1     149.579 158.679 160.369  0.00  0.00    -0.037 A 
ATOM     12  C11 UNL     1     149.855 157.502 161.026  0.00  0.00    +0.003 A 
ATOM     13  N1  UNL     1     150.533 156.687 160.158  0.00  0.00    -0.361 N 
ATOM     14  C12 UNL     1     150.699 157.318 158.946  0.00  0.00    +0.047 A 
ATOM     15  C13 UNL     1     151.325 156.874 157.772  0.00  0.00    -0.031 A 
ATOM     16  H   UNL     1     153.882 154.218 153.144  0.00  0.00    +0.000 HD
ATOM     17  H   UNL     1     150.856 155.782 160.372  0.00  0.00    +0.000 HD
ENDROOT
TORSDOF 0
ENDMDL
MODEL 4
REMARK VINA RESULT:    -6.946      4.230      6.919
REMARK INTER + INTRA:          -6.946
REMARK INTER:                  -6.946
REMARK INTRA:                   0.000
REMARK UNBOUND:                 0.000
REMARK  Name = /home/vital/Documents/PhD_2021/Malaria_codes/scripts/../data/pdbqt_ligands/ligand_394_temp.pdb
REMARK                            x       y       z     vdW  Elec       q    Type
REMARK                         _______ _______ _______ _____ _____    ______ ____
ROOT
ATOM      1  C1  UNL     1     156.493 151.216 149.773  0.00  0.00    -0.033 C 
ATOM      2  C2  UNL     1     156.788 152.701 149.546  0.00  0.00    +0.079 C 
ATOM      3  C3  UNL     1     156.861 152.990 148.044  0.00  0.00    -0.033 C 
ATOM      4  O1  UNL     1     158.078 152.968 150.100  0.00  0.00    -0.385 OA
ATOM      5  C4  UNL     1     155.808 153.543 150.328  0.00  0.00    -0.053 C 
ATOM      6  C5  UNL     1     154.951 154.457 149.844  0.00  0.00    -0.056 C 
ATOM      7  C6  UNL     1     154.020 155.234 150.680  0.00  0.00    -0.023 A 
ATOM      8  C7  UNL     1     152.744 155.512 150.178  0.00  0.00    -0.054 A 
ATOM      9  C8  UNL     1     151.821 156.272 150.912  0.00  0.00    -0.052 A 
ATOM     10  C9  UNL     1     152.191 156.773 152.173  0.00  0.00    -0.000 A 
ATOM     11  C10 UNL     1     151.531 157.556 153.160  0.00  0.00    -0.037 A 
ATOM     12  C11 UNL     1     152.408 157.742 154.204  0.00  0.00    +0.003 A 
ATOM     13  N1  UNL     1     153.577 157.101 153.887  0.00  0.00    -0.361 N 
ATOM     14  C12 UNL     1     153.470 156.499 152.653  0.00  0.00    +0.047 A 
ATOM     15  C13 UNL     1     154.405 155.742 151.932  0.00  0.00    -0.031 A 
ATOM     16  H   UNL     1     158.746 152.447 149.629  0.00  0.00    +0.000 HD
ATOM     17  H   UNL     1     154.378 157.076 154.459  0.00  0.00    +0.000 HD
ENDROOT
TORSDOF 0
ENDMDL
MODEL 5
REMARK VINA RESULT:    -6.935      3.314      5.016
REMARK INTER + INTRA:          -6.935
REMARK INTER:                  -6.935
REMARK INTRA:                   0.000
REMARK UNBOUND:                 0.000
REMARK  Name = /home/vital/Documents/PhD_2021/Malaria_codes/scripts/../data/pdbqt_ligands/ligand_394_temp.pdb
REMARK                            x       y       z     vdW  Elec       q    Type
REMARK                         _______ _______ _______ _____ _____    ______ ____
ROOT
ATOM      1  C1  UNL     1     155.549 153.338 149.647  0.00  0.00    -0.033 C 
ATOM      2  C2  UNL     1     156.188 154.296 150.655  0.00  0.00    +0.079 C 
ATOM      3  C3  UNL     1     156.973 155.381 149.912  0.00  0.00    -0.033 C 
ATOM      4  O1  UNL     1     157.123 153.540 151.428  0.00  0.00    -0.385 OA
ATOM      5  C4  UNL     1     155.142 154.793 151.624  0.00  0.00    -0.053 C 
ATOM      6  C5  UNL     1     154.779 156.068 151.849  0.00  0.00    -0.056 C 
ATOM      7  C6  UNL     1     153.740 156.466 152.813  0.00  0.00    -0.023 A 
ATOM      8  C7  UNL     1     152.897 157.534 152.483  0.00  0.00    -0.054 A 
ATOM      9  C8  UNL     1     151.906 157.982 153.370  0.00  0.00    -0.052 A 
ATOM     10  C9  UNL     1     151.766 157.353 154.619  0.00  0.00    -0.000 A 
ATOM     11  C10 UNL     1     150.898 157.541 155.730  0.00  0.00    -0.037 A 
ATOM     12  C11 UNL     1     151.239 156.615 156.690  0.00  0.00    +0.003 A 
ATOM     13  N1  UNL     1     152.283 155.873 156.203  0.00  0.00    -0.361 N 
ATOM     14  C12 UNL     1     152.622 156.301 154.939  0.00  0.00    +0.047 A 
ATOM     15  C13 UNL     1     153.618 155.842 154.065  0.00  0.00    -0.031 A 
ATOM     16  H   UNL     1     157.819 153.197 150.846  0.00  0.00    +0.000 HD
ATOM     17  H   UNL     1     152.726 155.139 156.688  0.00  0.00    +0.000 HD
ENDROOT
TORSDOF 0
ENDMDL
MODEL 6
REMARK VINA RESULT:    -6.797      3.945      6.599
REMARK INTER + INTRA:          -6.797
REMARK INTER:                  -6.797
REMARK INTRA:                   0.000
REMARK UNBOUND:                 0.000
REMARK  Name = /home/vital/Documents/PhD_2021/Malaria_codes/scripts/../data/pdbqt_ligands/ligand_394_temp.pdb
REMARK                            x       y       z     vdW  Elec       q    Type
REMARK                         _______ _______ _______ _____ _____    ______ ____
ROOT
ATOM      1  C1  UNL     1     151.882 156.040 161.498  0.00  0.00    -0.033 C 
ATOM      2  C2  UNL     1     150.789 155.890 160.437  0.00  0.00    +0.079 C 
ATOM      3  C3  UNL     1     149.634 156.848 160.745  0.00  0.00    -0.033 C 
ATOM      4  O1  UNL     1     150.281 154.557 160.536  0.00  0.00    -0.385 OA
ATOM      5  C4  UNL     1     151.391 156.012 159.058  0.00  0.00    -0.053 C 
ATOM      6  C5  UNL     1     151.078 156.909 158.108  0.00  0.00    -0.056 C 
ATOM      7  C6  UNL     1     151.723 156.963 156.786  0.00  0.00    -0.023 A 
ATOM      8  C7  UNL     1     151.967 158.216 156.212  0.00  0.00    -0.054 A 
ATOM      9  C8  UNL     1     152.552 158.335 154.942  0.00  0.00    -0.052 A 
ATOM     10  C9  UNL     1     152.887 157.171 154.227  0.00  0.00    -0.000 A 
ATOM     11  C10 UNL     1     153.473 156.925 152.955  0.00  0.00    -0.037 A 
ATOM     12  C11 UNL     1     153.552 155.562 152.786  0.00  0.00    +0.003 A 
ATOM     13  N1  UNL     1     153.035 154.970 153.909  0.00  0.00    -0.361 N 
ATOM     14  C12 UNL     1     152.623 155.931 154.806  0.00  0.00    +0.047 A 
ATOM     15  C13 UNL     1     152.039 155.795 156.073  0.00  0.00    -0.031 A 
ATOM     16  H   UNL     1     149.881 154.428 161.410  0.00  0.00    +0.000 HD
ATOM     17  H   UNL     1     152.966 153.999 154.053  0.00  0.00    +0.000 HD
ENDROOT
TORSDOF 0
ENDMDL
MODEL 7
REMARK VINA RESULT:    -6.757      2.307      2.460
REMARK INTER + INTRA:          -6.757
REMARK INTER:                  -6.757
REMARK INTRA:                   0.000
REMARK UNBOUND:                 0.000
REMARK  Name = /home/vital/Documents/PhD_2021/Malaria_codes/scripts/../data/pdbqt_ligands/ligand_394_temp.pdb
REMARK                            x       y       z     vdW  Elec       q    Type
REMARK                         _______ _______ _______ _____ _____    ______ ____
ROOT
ATOM      1  C1  UNL     1     153.625 156.489 152.221  0.00  0.00    -0.033 C 
ATOM      2  C2  UNL     1     152.152 156.460 152.636  0.00  0.00    +0.079 C 
ATOM      3  C3  UNL     1     151.515 155.139 152.194  0.00  0.00    -0.033 C 
ATOM      4  O1  UNL     1     151.491 157.514 151.931  0.00  0.00    -0.385 OA
ATOM      5  C4  UNL     1     152.026 156.789 154.104  0.00  0.00    -0.053 C 
ATOM      6  C5  UNL     1     151.488 156.023 155.068  0.00  0.00    -0.056 C 
ATOM      7  C6  UNL     1     151.411 156.419 156.484  0.00  0.00    -0.023 A 
ATOM      8  C7  UNL     1     151.603 155.438 157.463  0.00  0.00    -0.054 A 
ATOM      9  C8  UNL     1     151.513 155.744 158.829  0.00  0.00    -0.052 A 
ATOM     10  C9  UNL     1     151.213 157.061 159.222  0.00  0.00    -0.000 A 
ATOM     11  C10 UNL     1     151.049 157.707 160.477  0.00  0.00    -0.037 A 
ATOM     12  C11 UNL     1     150.753 159.029 160.234  0.00  0.00    +0.003 A 
ATOM     13  N1  UNL     1     150.730 159.209 158.876  0.00  0.00    -0.361 N 
ATOM     14  C12 UNL     1     151.011 158.024 158.234  0.00  0.00    +0.047 A 
ATOM     15  C13 UNL     1     151.096 157.733 156.864  0.00  0.00    -0.031 A 
ATOM     16  H   UNL     1     151.544 157.348 150.977  0.00  0.00    +0.000 HD
ATOM     17  H   UNL     1     150.540 160.063 158.424  0.00  0.00    +0.000 HD
ENDROOT
TORSDOF 0
ENDMDL
MODEL 8
REMARK VINA RESULT:    -6.674      3.141      6.409
REMARK INTER + INTRA:          -6.674
REMARK INTER:                  -6.674
REMARK INTRA:                   0.000
REMARK UNBOUND:                 0.000
REMARK  Name = /home/vital/Documents/PhD_2021/Malaria_codes/scripts/../data/pdbqt_ligands/ligand_394_temp.pdb
REMARK                            x       y       z     vdW  Elec       q    Type
REMARK                         _______ _______ _______ _____ _____    ______ ____
ROOT
ATOM      1  C1  UNL     1     149.556 159.486 159.413  0.00  0.00    -0.033 C 
ATOM      2  C2  UNL     1     150.936 158.823 159.396  0.00  0.00    +0.079 C 
ATOM      3  C3  UNL     1     151.016 157.766 160.502  0.00  0.00    -0.033 C 
ATOM      4  O1  UNL     1     151.899 159.836 159.698  0.00  0.00    -0.385 OA
ATOM      5  C4  UNL     1     151.255 158.338 158.002  0.00  0.00    -0.053 C 
ATOM      6  C5  UNL     1     151.525 157.079 157.619  0.00  0.00    -0.056 C 
ATOM      7  C6  UNL     1     151.821 156.689 156.230  0.00  0.00    -0.023 A 
ATOM      8  C7  UNL     1     151.336 155.462 155.763  0.00  0.00    -0.054 A 
ATOM      9  C8  UNL     1     151.607 155.019 154.460  0.00  0.00    -0.052 A 
ATOM     10  C9  UNL     1     152.392 155.820 153.610  0.00  0.00    -0.000 A 
ATOM     11  C10 UNL     1     152.852 155.687 152.272  0.00  0.00    -0.037 A 
ATOM     12  C11 UNL     1     153.600 156.803 151.973  0.00  0.00    +0.003 A 
ATOM     13  N1  UNL     1     153.613 157.608 153.081  0.00  0.00    -0.361 N 
ATOM     14  C12 UNL     1     152.880 157.032 154.095  0.00  0.00    +0.047 A 
ATOM     15  C13 UNL     1     152.619 157.488 155.395  0.00  0.00    -0.031 A 
ATOM     16  H   UNL     1     151.735 160.182 160.589  0.00  0.00    +0.000 HD
ATOM     17  H   UNL     1     154.079 158.473 153.144  0.00  0.00    +0.000 HD
ENDROOT
TORSDOF 0
ENDMDL
MODEL 9
REMARK VINA RESULT:    -5.950      3.777      7.273
REMARK INTER + INTRA:          -5.950
REMARK INTER:                  -5.950
REMARK INTRA:                   0.000
REMARK UNBOUND:                 0.000
REMARK  Name = /home/vital/Documents/PhD_2021/Malaria_codes/scripts/../data/pdbqt_ligands/ligand_394_temp.pdb
REMARK                            x       y       z     vdW  Elec       q    Type
REMARK                         _______ _______ _______ _____ _____    ______ ____
ROOT
ATOM      1  C1  UNL     1     149.565 161.631 163.482  0.00  0.00    -0.033 C 
ATOM      2  C2  UNL     1     150.969 161.487 162.888  0.00  0.00    +0.079 C 
ATOM      3  C3  UNL     1     151.907 160.857 163.923  0.00  0.00    -0.033 C 
ATOM      4  O1  UNL     1     151.452 162.804 162.614  0.00  0.00    -0.385 OA
ATOM      5  C4  UNL     1     150.892 160.778 161.557  0.00  0.00    -0.053 C 
ATOM      6  C5  UNL     1     151.493 159.627 161.211  0.00  0.00    -0.056 C 
ATOM      7  C6  UNL     1     151.360 158.998 159.886  0.00  0.00    -0.023 A 
ATOM      8  C7  UNL     1     151.294 157.602 159.813  0.00  0.00    -0.054 A 
ATOM      9  C8  UNL     1     151.196 156.940 158.580  0.00  0.00    -0.052 A 
ATOM     10  C9  UNL     1     151.175 157.695 157.394  0.00  0.00    -0.000 A 
ATOM     11  C10 UNL     1     151.088 157.367 156.013  0.00  0.00    -0.037 A 
ATOM     12  C11 UNL     1     151.119 158.543 155.299  0.00  0.00    +0.003 A 
ATOM     13  N1  UNL     1     151.223 159.574 156.196  0.00  0.00    -0.361 N 
ATOM     14  C12 UNL     1     151.256 159.084 157.482  0.00  0.00    +0.047 A 
ATOM     15  C13 UNL     1     151.355 159.760 158.706  0.00  0.00    -0.031 A 
ATOM     16  H   UNL     1     151.519 163.303 163.443  0.00  0.00    +0.000 HD
ATOM     17  H   UNL     1     151.267 160.528 155.955  0.00  0.00    +0.000 HD
ENDROOT
TORSDOF 0
ENDMDL
