MODEL 1
REMARK VINA RESULT:    -7.981      0.000      0.000
REMARK INTER + INTRA:          -7.981
REMARK INTER:                  -7.981
REMARK INTRA:                   0.000
REMARK UNBOUND:                 0.000
REMARK  Name = /home/vital/Documents/PhD_2021/Malaria_codes/scripts/../data/pdbqt_ligands/ligand_136_temp.pdb
REMARK                            x       y       z     vdW  Elec       q    Type
REMARK                         _______ _______ _______ _____ _____    ______ ____
ROOT
ATOM      1  F1  UNL     1     157.127 153.460 151.790  0.00  0.00    -0.143 F 
ATOM      2  C1  UNL     1     156.173 154.404 151.778  0.00  0.00    +0.110 C 
ATOM      3  C2  UNL     1     155.320 155.250 151.767  0.00  0.00    -0.039 C 
ATOM      4  C3  UNL     1     154.312 156.252 151.745  0.00  0.00    -0.009 C 
ATOM      5  C4  UNL     1     153.656 156.607 152.859  0.00  0.00    -0.054 C 
ATOM      6  C5  UNL     1     152.625 157.621 152.868  0.00  0.00    -0.062 C 
ATOM      7  C6  UNL     1     151.919 158.036 153.933  0.00  0.00    -0.047 C 
ATOM      8  C7  UNL     1     152.002 157.575 155.356  0.00  0.00    +0.109 C 
ATOM      9  O1  UNL     1     150.680 157.174 155.746  0.00  0.00    -0.478 OA
ATOM     10  C8  UNL     1     150.554 156.724 157.015  0.00  0.00    +0.176 C 
ATOM     11  N1  UNL     1     151.531 156.662 157.851  0.00  0.00    -0.220 NA
ATOM     12  C9  UNL     1     151.200 156.167 159.119  0.00  0.00    +0.067 A 
ATOM     13  C10 UNL     1     151.289 154.799 159.389  0.00  0.00    -0.036 A 
ATOM     14  C11 UNL     1     150.969 154.305 160.655  0.00  0.00    -0.060 A 
ATOM     15  C12 UNL     1     150.569 155.182 161.663  0.00  0.00    -0.062 A 
ATOM     16  C13 UNL     1     150.495 156.551 161.407  0.00  0.00    -0.060 A 
ATOM     17  C14 UNL     1     150.816 157.041 160.139  0.00  0.00    -0.036 A 
ENDROOT
TORSDOF 0
ENDMDL
MODEL 2
REMARK VINA RESULT:    -7.839      3.395      8.613
REMARK INTER + INTRA:          -7.839
REMARK INTER:                  -7.839
REMARK INTRA:                   0.000
REMARK UNBOUND:                 0.000
REMARK  Name = /home/vital/Documents/PhD_2021/Malaria_codes/scripts/../data/pdbqt_ligands/ligand_136_temp.pdb
REMARK                            x       y       z     vdW  Elec       q    Type
REMARK                         _______ _______ _______ _____ _____    ______ ____
ROOT
ATOM      1  F1  UNL     1     151.743 153.740 160.031  0.00  0.00    -0.143 F 
ATOM      2  C1  UNL     1     151.517 154.710 159.133  0.00  0.00    +0.110 C 
ATOM      3  C2  UNL     1     151.316 155.579 158.329  0.00  0.00    -0.039 C 
ATOM      4  C3  UNL     1     151.071 156.613 157.383  0.00  0.00    -0.009 C 
ATOM      5  C4  UNL     1     151.556 156.546 156.134  0.00  0.00    -0.054 C 
ATOM      6  C5  UNL     1     151.325 157.581 155.151  0.00  0.00    -0.062 C 
ATOM      7  C6  UNL     1     151.772 157.596 153.885  0.00  0.00    -0.047 C 
ATOM      8  C7  UNL     1     152.607 156.578 153.168  0.00  0.00    +0.109 C 
ATOM      9  O1  UNL     1     153.754 157.266 152.648  0.00  0.00    -0.478 OA
ATOM     10  C8  UNL     1     154.634 156.503 151.959  0.00  0.00    +0.176 C 
ATOM     11  N1  UNL     1     154.474 155.244 151.751  0.00  0.00    -0.220 NA
ATOM     12  C9  UNL     1     155.496 154.628 151.015  0.00  0.00    +0.067 A 
ATOM     13  C10 UNL     1     156.597 154.066 151.668  0.00  0.00    -0.036 A 
ATOM     14  C11 UNL     1     157.610 153.443 150.937  0.00  0.00    -0.060 A 
ATOM     15  C12 UNL     1     157.521 153.369 149.547  0.00  0.00    -0.062 A 
ATOM     16  C13 UNL     1     156.418 153.912 148.890  0.00  0.00    -0.060 A 
ATOM     17  C14 UNL     1     155.406 154.534 149.624  0.00  0.00    -0.036 A 
ENDROOT
TORSDOF 0
ENDMDL
MODEL 3
REMARK VINA RESULT:    -7.700      3.373      8.132
REMARK INTER + INTRA:          -7.700
REMARK INTER:                  -7.700
REMARK INTRA:                   0.000
REMARK UNBOUND:                 0.000
REMARK  Name = /home/vital/Documents/PhD_2021/Malaria_codes/scripts/../data/pdbqt_ligands/ligand_136_temp.pdb
REMARK                            x       y       z     vdW  Elec       q    Type
REMARK                         _______ _______ _______ _____ _____    ______ ____
ROOT
ATOM      1  F1  UNL     1     151.349 153.725 162.599  0.00  0.00    -0.143 F 
ATOM      2  C1  UNL     1     150.984 154.906 162.075  0.00  0.00    +0.110 C 
ATOM      3  C2  UNL     1     150.658 155.962 161.606  0.00  0.00    -0.039 C 
ATOM      4  C3  UNL     1     150.269 157.216 161.060  0.00  0.00    -0.009 C 
ATOM      5  C4  UNL     1     150.348 157.459 159.744  0.00  0.00    -0.054 C 
ATOM      6  C5  UNL     1     149.961 158.724 159.159  0.00  0.00    -0.062 C 
ATOM      7  C6  UNL     1     150.009 159.052 157.857  0.00  0.00    -0.047 C 
ATOM      8  C7  UNL     1     150.463 158.224 156.693  0.00  0.00    +0.109 C 
ATOM      9  O1  UNL     1     151.477 158.978 156.012  0.00  0.00    -0.478 OA
ATOM     10  C8  UNL     1     152.013 158.388 154.920  0.00  0.00    +0.176 C 
ATOM     11  N1  UNL     1     151.648 157.234 154.482  0.00  0.00    -0.220 NA
ATOM     12  C9  UNL     1     152.322 156.792 153.335  0.00  0.00    +0.067 A 
ATOM     13  C10 UNL     1     153.492 156.035 153.451  0.00  0.00    -0.036 A 
ATOM     14  C11 UNL     1     154.158 155.585 152.310  0.00  0.00    -0.060 A 
ATOM     15  C12 UNL     1     153.651 155.881 151.045  0.00  0.00    -0.062 A 
ATOM     16  C13 UNL     1     152.475 156.621 150.922  0.00  0.00    -0.060 A 
ATOM     17  C14 UNL     1     151.811 157.070 152.065  0.00  0.00    -0.036 A 
ENDROOT
TORSDOF 0
ENDMDL
MODEL 4
REMARK VINA RESULT:    -7.079      4.066      8.639
REMARK INTER + INTRA:          -7.079
REMARK INTER:                  -7.079
REMARK INTRA:                   0.000
REMARK UNBOUND:                 0.000
REMARK  Name = /home/vital/Documents/PhD_2021/Malaria_codes/scripts/../data/pdbqt_ligands/ligand_136_temp.pdb
REMARK                            x       y       z     vdW  Elec       q    Type
REMARK                         _______ _______ _______ _____ _____    ______ ____
ROOT
ATOM      1  F1  UNL     1     151.503 162.463 162.226  0.00  0.00    -0.143 F 
ATOM      2  C1  UNL     1     151.185 161.164 162.118  0.00  0.00    +0.110 C 
ATOM      3  C2  UNL     1     150.901 160.001 162.022  0.00  0.00    -0.039 C 
ATOM      4  C3  UNL     1     150.560 158.625 161.916  0.00  0.00    -0.009 C 
ATOM      5  C4  UNL     1     150.885 157.906 160.832  0.00  0.00    -0.054 C 
ATOM      6  C5  UNL     1     150.552 156.506 160.694  0.00  0.00    -0.062 C 
ATOM      7  C6  UNL     1     150.835 155.714 159.647  0.00  0.00    -0.047 C 
ATOM      8  C7  UNL     1     151.550 156.055 158.375  0.00  0.00    +0.109 C 
ATOM      9  O1  UNL     1     150.683 155.682 157.293  0.00  0.00    -0.478 OA
ATOM     10  C8  UNL     1     151.163 155.915 156.050  0.00  0.00    +0.176 C 
ATOM     11  N1  UNL     1     152.323 156.420 155.816  0.00  0.00    -0.220 NA
ATOM     12  C9  UNL     1     152.640 156.584 154.461  0.00  0.00    +0.067 A 
ATOM     13  C10 UNL     1     152.329 157.777 153.802  0.00  0.00    -0.036 A 
ATOM     14  C11 UNL     1     152.653 157.946 152.455  0.00  0.00    -0.060 A 
ATOM     15  C12 UNL     1     153.300 156.924 151.762  0.00  0.00    -0.062 A 
ATOM     16  C13 UNL     1     153.629 155.738 152.416  0.00  0.00    -0.060 A 
ATOM     17  C14 UNL     1     153.304 155.572 153.764  0.00  0.00    -0.036 A 
ENDROOT
TORSDOF 0
ENDMDL
MODEL 5
REMARK VINA RESULT:    -6.889      5.833     10.149
REMARK INTER + INTRA:          -6.889
REMARK INTER:                  -6.889
REMARK INTRA:                   0.000
REMARK UNBOUND:                 0.000
REMARK  Name = /home/vital/Documents/PhD_2021/Malaria_codes/scripts/../data/pdbqt_ligands/ligand_136_temp.pdb
REMARK                            x       y       z     vdW  Elec       q    Type
REMARK                         _______ _______ _______ _____ _____    ______ ____
ROOT
ATOM      1  F1  UNL     1     151.491 152.091 167.879  0.00  0.00    -0.143 F 
ATOM      2  C1  UNL     1     151.727 153.398 167.688  0.00  0.00    +0.110 C 
ATOM      3  C2  UNL     1     151.938 154.568 167.517  0.00  0.00    -0.039 C 
ATOM      4  C3  UNL     1     152.191 155.954 167.325  0.00  0.00    -0.009 C 
ATOM      5  C4  UNL     1     151.967 156.547 166.143  0.00  0.00    -0.054 C 
ATOM      6  C5  UNL     1     152.215 157.954 165.916  0.00  0.00    -0.062 C 
ATOM      7  C6  UNL     1     152.021 158.626 164.770  0.00  0.00    -0.047 C 
ATOM      8  C7  UNL     1     151.513 158.118 163.454  0.00  0.00    +0.109 C 
ATOM      9  O1  UNL     1     152.490 158.468 162.463  0.00  0.00    -0.478 OA
ATOM     10  C8  UNL     1     152.202 158.091 161.196  0.00  0.00    +0.176 C 
ATOM     11  N1  UNL     1     151.124 157.472 160.864  0.00  0.00    -0.220 NA
ATOM     12  C9  UNL     1     151.008 157.166 159.502  0.00  0.00    +0.067 A 
ATOM     13  C10 UNL     1     151.490 155.951 159.007  0.00  0.00    -0.036 A 
ATOM     14  C11 UNL     1     151.366 155.641 157.651  0.00  0.00    -0.060 A 
ATOM     15  C12 UNL     1     150.748 156.542 156.785  0.00  0.00    -0.062 A 
ATOM     16  C13 UNL     1     150.249 157.748 157.274  0.00  0.00    -0.060 A 
ATOM     17  C14 UNL     1     150.374 158.056 158.630  0.00  0.00    -0.036 A 
ENDROOT
TORSDOF 0
ENDMDL
MODEL 6
REMARK VINA RESULT:    -6.729      6.386     10.312
REMARK INTER + INTRA:          -6.729
REMARK INTER:                  -6.729
REMARK INTRA:                   0.000
REMARK UNBOUND:                 0.000
REMARK  Name = /home/vital/Documents/PhD_2021/Malaria_codes/scripts/../data/pdbqt_ligands/ligand_136_temp.pdb
REMARK                            x       y       z     vdW  Elec       q    Type
REMARK                         _______ _______ _______ _____ _____    ______ ____
ROOT
ATOM      1  F1  UNL     1     149.377 158.651 168.682  0.00  0.00    -0.143 F 
ATOM      2  C1  UNL     1     149.959 159.519 167.840  0.00  0.00    +0.110 C 
ATOM      3  C2  UNL     1     150.480 160.295 167.087  0.00  0.00    -0.039 C 
ATOM      4  C3  UNL     1     151.099 161.220 166.202  0.00  0.00    -0.009 C 
ATOM      5  C4  UNL     1     151.080 161.036 164.874  0.00  0.00    -0.054 C 
ATOM      6  C5  UNL     1     151.702 161.958 163.948  0.00  0.00    -0.062 C 
ATOM      7  C6  UNL     1     151.732 161.850 162.610  0.00  0.00    -0.047 C 
ATOM      8  C7  UNL     1     151.151 160.779 161.738  0.00  0.00    +0.109 C 
ATOM      9  O1  UNL     1     152.218 160.279 160.919  0.00  0.00    -0.478 OA
ATOM     10  C8  UNL     1     151.882 159.295 160.053  0.00  0.00    +0.176 C 
ATOM     11  N1  UNL     1     150.690 158.827 159.934  0.00  0.00    -0.220 NA
ATOM     12  C9  UNL     1     150.542 157.809 158.982  0.00  0.00    +0.067 A 
ATOM     13  C10 UNL     1     150.698 156.470 159.350  0.00  0.00    -0.036 A 
ATOM     14  C11 UNL     1     150.541 155.455 158.404  0.00  0.00    -0.060 A 
ATOM     15  C12 UNL     1     150.214 155.775 157.087  0.00  0.00    -0.062 A 
ATOM     16  C13 UNL     1     150.039 157.107 156.716  0.00  0.00    -0.060 A 
ATOM     17  C14 UNL     1     150.197 158.121 157.664  0.00  0.00    -0.036 A 
ENDROOT
TORSDOF 0
ENDMDL
MODEL 7
REMARK VINA RESULT:    -6.681      5.901     10.351
REMARK INTER + INTRA:          -6.681
REMARK INTER:                  -6.681
REMARK INTRA:                   0.000
REMARK UNBOUND:                 0.000
REMARK  Name = /home/vital/Documents/PhD_2021/Malaria_codes/scripts/../data/pdbqt_ligands/ligand_136_temp.pdb
REMARK                            x       y       z     vdW  Elec       q    Type
REMARK                         _______ _______ _______ _____ _____    ______ ____
ROOT
ATOM      1  F1  UNL     1     153.088 159.469 168.122  0.00  0.00    -0.143 F 
ATOM      2  C1  UNL     1     152.479 158.323 167.779  0.00  0.00    +0.110 C 
ATOM      3  C2  UNL     1     151.934 157.297 167.473  0.00  0.00    -0.039 C 
ATOM      4  C3  UNL     1     151.288 156.081 167.119  0.00  0.00    -0.009 C 
ATOM      5  C4  UNL     1     151.103 155.736 165.837  0.00  0.00    -0.054 C 
ATOM      6  C5  UNL     1     150.449 154.507 165.446  0.00  0.00    -0.062 C 
ATOM      7  C6  UNL     1     150.221 154.085 164.192  0.00  0.00    -0.047 C 
ATOM      8  C7  UNL     1     150.569 154.752 162.895  0.00  0.00    +0.109 C 
ATOM      9  O1  UNL     1     149.354 154.859 162.138  0.00  0.00    -0.478 OA
ATOM     10  C8  UNL     1     149.470 155.440 160.922  0.00  0.00    +0.176 C 
ATOM     11  N1  UNL     1     150.584 155.865 160.438  0.00  0.00    -0.220 NA
ATOM     12  C9  UNL     1     150.499 156.438 159.162  0.00  0.00    +0.067 A 
ATOM     13  C10 UNL     1     150.269 157.808 159.017  0.00  0.00    -0.036 A 
ATOM     14  C11 UNL     1     150.194 158.382 157.746  0.00  0.00    -0.060 A 
ATOM     15  C12 UNL     1     150.362 157.587 156.613  0.00  0.00    -0.062 A 
ATOM     16  C13 UNL     1     150.610 156.222 156.750  0.00  0.00    -0.060 A 
ATOM     17  C14 UNL     1     150.684 155.651 158.022  0.00  0.00    -0.036 A 
ENDROOT
TORSDOF 0
ENDMDL
MODEL 8
REMARK VINA RESULT:    -6.624      5.409      9.798
REMARK INTER + INTRA:          -6.624
REMARK INTER:                  -6.624
REMARK INTRA:                   0.000
REMARK UNBOUND:                 0.000
REMARK  Name = /home/vital/Documents/PhD_2021/Malaria_codes/scripts/../data/pdbqt_ligands/ligand_136_temp.pdb
REMARK                            x       y       z     vdW  Elec       q    Type
REMARK                         _______ _______ _______ _____ _____    ______ ____
ROOT
ATOM      1  F1  UNL     1     145.733 149.653 163.438  0.00  0.00    -0.143 F 
ATOM      2  C1  UNL     1     146.653 150.506 163.913  0.00  0.00    +0.110 C 
ATOM      3  C2  UNL     1     147.478 151.268 164.338  0.00  0.00    -0.039 C 
ATOM      4  C3  UNL     1     148.453 152.167 164.850  0.00  0.00    -0.009 C 
ATOM      5  C4  UNL     1     148.951 153.160 164.098  0.00  0.00    -0.054 C 
ATOM      6  C5  UNL     1     149.944 154.089 164.590  0.00  0.00    -0.062 C 
ATOM      7  C6  UNL     1     150.496 155.106 163.908  0.00  0.00    -0.047 C 
ATOM      8  C7  UNL     1     150.244 155.541 162.496  0.00  0.00    +0.109 C 
ATOM      9  O1  UNL     1     151.515 155.566 161.831  0.00  0.00    -0.478 OA
ATOM     10  C8  UNL     1     151.490 155.942 160.532  0.00  0.00    +0.176 C 
ATOM     11  N1  UNL     1     150.416 156.278 159.907  0.00  0.00    -0.220 NA
ATOM     12  C9  UNL     1     150.595 156.637 158.564  0.00  0.00    +0.067 A 
ATOM     13  C10 UNL     1     150.510 155.670 157.558  0.00  0.00    -0.036 A 
ATOM     14  C11 UNL     1     150.677 156.028 156.219  0.00  0.00    -0.060 A 
ATOM     15  C12 UNL     1     150.921 157.359 155.879  0.00  0.00    -0.062 A 
ATOM     16  C13 UNL     1     150.990 158.331 156.876  0.00  0.00    -0.060 A 
ATOM     17  C14 UNL     1     150.821 157.970 158.215  0.00  0.00    -0.036 A 
ENDROOT
TORSDOF 0
ENDMDL
MODEL 9
REMARK VINA RESULT:    -6.457      6.315     10.702
REMARK INTER + INTRA:          -6.457
REMARK INTER:                  -6.457
REMARK INTRA:                   0.000
REMARK UNBOUND:                 0.000
REMARK  Name = /home/vital/Documents/PhD_2021/Malaria_codes/scripts/../data/pdbqt_ligands/ligand_136_temp.pdb
REMARK                            x       y       z     vdW  Elec       q    Type
REMARK                         _______ _______ _______ _____ _____    ______ ____
ROOT
ATOM      1  F1  UNL     1     152.389 163.484 167.206  0.00  0.00    -0.143 F 
ATOM      2  C1  UNL     1     152.234 162.151 167.211  0.00  0.00    +0.110 C 
ATOM      3  C2  UNL     1     152.095 160.958 167.215  0.00  0.00    -0.039 C 
ATOM      4  C3  UNL     1     151.931 159.546 167.230  0.00  0.00    -0.009 C 
ATOM      5  C4  UNL     1     151.832 158.842 166.093  0.00  0.00    -0.054 C 
ATOM      6  C5  UNL     1     151.664 157.406 166.076  0.00  0.00    -0.062 C 
ATOM      7  C6  UNL     1     151.554 156.626 164.988  0.00  0.00    -0.047 C 
ATOM      8  C7  UNL     1     151.574 157.018 163.542  0.00  0.00    +0.109 C 
ATOM      9  O1  UNL     1     150.375 156.497 162.949  0.00  0.00    -0.478 OA
ATOM     10  C8  UNL     1     150.214 156.751 161.631  0.00  0.00    +0.176 C 
ATOM     11  N1  UNL     1     151.069 157.399 160.920  0.00  0.00    -0.220 NA
ATOM     12  C9  UNL     1     150.722 157.559 159.571  0.00  0.00    +0.067 A 
ATOM     13  C10 UNL     1     149.994 158.678 159.158  0.00  0.00    -0.036 A 
ATOM     14  C11 UNL     1     149.657 158.845 157.813  0.00  0.00    -0.060 A 
ATOM     15  C12 UNL     1     150.058 157.897 156.872  0.00  0.00    -0.062 A 
ATOM     16  C13 UNL     1     150.800 156.787 157.274  0.00  0.00    -0.060 A 
ATOM     17  C14 UNL     1     151.135 156.623 158.620  0.00  0.00    -0.036 A 
ENDROOT
TORSDOF 0
ENDMDL
