MODEL 1
REMARK VINA RESULT:    -7.640      0.000      0.000
REMARK INTER + INTRA:          -7.640
REMARK INTER:                  -7.640
REMARK INTRA:                   0.000
REMARK UNBOUND:                 0.000
REMARK  Name = /home/vital/Documents/PhD_2021/Malaria_codes/scripts/../data/pdbqt_ligands/ligand_396_temp.pdb
REMARK                            x       y       z     vdW  Elec       q    Type
REMARK                         _______ _______ _______ _____ _____    ______ ____
ROOT
ATOM      1  N   UNL     1     152.015 152.217 168.456  0.00  0.00    -0.351 N 
ATOM      2  C   UNL     1     151.933 153.008 167.332  0.00  0.00    +0.086 C 
ATOM      3  C   UNL     1     151.441 152.478 166.252  0.00  0.00    -0.098 C 
ATOM      4  C   UNL     1     150.823 152.086 165.173  0.00  0.00    -0.016 C 
ATOM      5  C   UNL     1     149.605 152.784 164.606  0.00  0.00    +0.090 C 
ATOM      6  N   UNL     1     148.372 152.309 165.260  0.00  0.00    -0.305 N 
ATOM      7  C   UNL     1     147.892 151.059 164.639  0.00  0.00    -0.022 C 
ATOM      8  C   UNL     1     146.736 150.467 165.460  0.00  0.00    -0.097 C 
ATOM      9  N   UNL     1     146.429 149.095 165.051  0.00  0.00    +0.443 N 
ATOM     10  O   UNL     1     145.873 149.096 163.738  0.00  0.00    -0.485 OA
ATOM     11  C   UNL     1     149.770 154.332 164.900  0.00  0.00    +0.118 C 
ATOM     12  N   UNL     1     150.180 155.214 164.021  0.00  0.00    -0.235 N 
ATOM     13  C   UNL     1     150.465 154.815 162.712  0.00  0.00    +0.066 A 
ATOM     14  C   UNL     1     149.461 154.790 161.743  0.00  0.00    -0.036 A 
ATOM     15  C   UNL     1     149.751 154.400 160.435  0.00  0.00    -0.060 A 
ATOM     16  C   UNL     1     151.055 154.049 160.086  0.00  0.00    -0.062 A 
ATOM     17  C   UNL     1     152.069 154.091 161.044  0.00  0.00    -0.060 A 
ATOM     18  C   UNL     1     151.773 154.479 162.352  0.00  0.00    -0.036 A 
ATOM     19  N   UNL     1     149.539 154.733 166.211  0.00  0.00    -0.327 N 
ATOM     20  C   UNL     1     150.255 155.811 166.830  0.00  0.00    +0.030 C 
ATOM     21  C   UNL     1     151.695 155.518 167.153  0.00  0.00    -0.046 C 
ATOM     22  C   UNL     1     152.395 154.385 167.359  0.00  0.00    +0.067 C 
ATOM     23 CL   UNL     1     154.090 154.560 167.781  0.00  0.00    -0.081 Cl
ATOM     24  H   UNL     1     151.698 151.285 168.426  0.00  0.00    +0.000 HD
ATOM     25  H   UNL     1     152.389 152.582 169.290  0.00  0.00    +0.000 HD
ATOM     26  H   UNL     1     147.650 153.024 165.172  0.00  0.00    +0.000 HD
ATOM     27  H   UNL     1     148.574 152.127 166.243  0.00  0.00    +0.000 HD
ATOM     28  H   UNL     1     145.757 148.689 165.703  0.00  0.00    +0.000 HD
ATOM     29  H   UNL     1     147.287 148.542 165.054  0.00  0.00    +0.000 HD
ATOM     30  H   UNL     1     145.058 149.621 163.733  0.00  0.00    +0.000 HD
ATOM     31  H   UNL     1     150.287 156.157 164.283  0.00  0.00    +0.000 HD
ATOM     32  H   UNL     1     148.855 154.258 166.736  0.00  0.00    +0.000 HD
ENDROOT
TORSDOF 0
ENDMDL
MODEL 2
REMARK VINA RESULT:    -7.043      5.915      7.208
REMARK INTER + INTRA:          -7.043
REMARK INTER:                  -7.043
REMARK INTRA:                   0.000
REMARK UNBOUND:                 0.000
REMARK  Name = /home/vital/Documents/PhD_2021/Malaria_codes/scripts/../data/pdbqt_ligands/ligand_396_temp.pdb
REMARK                            x       y       z     vdW  Elec       q    Type
REMARK                         _______ _______ _______ _____ _____    ______ ____
ROOT
ATOM      1  N   UNL     1     153.478 160.386 169.519  0.00  0.00    -0.351 N 
ATOM      2  C   UNL     1     152.888 160.945 168.408  0.00  0.00    +0.086 C 
ATOM      3  C   UNL     1     152.889 160.252 167.308  0.00  0.00    -0.098 C 
ATOM      4  C   UNL     1     152.705 159.577 166.208  0.00  0.00    -0.016 C 
ATOM      5  C   UNL     1     151.338 159.283 165.626  0.00  0.00    +0.090 C 
ATOM      6  N   UNL     1     150.748 158.081 166.243  0.00  0.00    -0.305 N 
ATOM      7  C   UNL     1     151.244 156.854 165.589  0.00  0.00    -0.022 C 
ATOM      8  C   UNL     1     150.789 155.613 166.373  0.00  0.00    -0.097 C 
ATOM      9  N   UNL     1     151.493 154.407 165.934  0.00  0.00    +0.443 N 
ATOM     10  O   UNL     1     151.089 154.070 164.609  0.00  0.00    -0.485 OA
ATOM     11  C   UNL     1     150.412 160.527 165.950  0.00  0.00    +0.118 C 
ATOM     12  N   UNL     1     150.121 161.478 165.096  0.00  0.00    -0.235 N 
ATOM     13  C   UNL     1     150.608 161.414 163.788  0.00  0.00    +0.066 A 
ATOM     14  C   UNL     1     149.890 160.744 162.796  0.00  0.00    -0.036 A 
ATOM     15  C   UNL     1     150.375 160.690 161.488  0.00  0.00    -0.060 A 
ATOM     16  C   UNL     1     151.574 161.323 161.163  0.00  0.00    -0.062 A 
ATOM     17  C   UNL     1     152.287 162.012 162.144  0.00  0.00    -0.060 A 
ATOM     18  C   UNL     1     151.800 162.061 163.452  0.00  0.00    -0.036 A 
ATOM     19  N   UNL     1     149.963 160.628 167.263  0.00  0.00    -0.327 N 
ATOM     20  C   UNL     1     149.758 161.888 167.917  0.00  0.00    +0.030 C 
ATOM     21  C   UNL     1     151.015 162.637 168.268  0.00  0.00    -0.046 C 
ATOM     22  C   UNL     1     152.297 162.271 168.470  0.00  0.00    +0.067 C 
ATOM     23 CL   UNL     1     153.424 163.533 168.933  0.00  0.00    -0.081 Cl
ATOM     24  H   UNL     1     153.875 159.486 169.466  0.00  0.00    +0.000 HD
ATOM     25  H   UNL     1     153.502 160.884 170.368  0.00  0.00    +0.000 HD
ATOM     26  H   UNL     1     149.733 158.122 166.151  0.00  0.00    +0.000 HD
ATOM     27  H   UNL     1     151.015 158.056 167.227  0.00  0.00    +0.000 HD
ATOM     28  H   UNL     1     151.269 153.636 166.563  0.00  0.00    +0.000 HD
ATOM     29  H   UNL     1     152.498 154.580 165.947  0.00  0.00    +0.000 HD
ATOM     30  H   UNL     1     150.133 153.905 164.594  0.00  0.00    +0.000 HD
ATOM     31  H   UNL     1     149.561 162.237 165.377  0.00  0.00    +0.000 HD
ATOM     32  H   UNL     1     149.779 159.802 167.764  0.00  0.00    +0.000 HD
ENDROOT
TORSDOF 0
ENDMDL
MODEL 3
REMARK VINA RESULT:    -6.774      4.047      6.667
REMARK INTER + INTRA:          -6.774
REMARK INTER:                  -6.774
REMARK INTRA:                   0.000
REMARK UNBOUND:                 0.000
REMARK  Name = /home/vital/Documents/PhD_2021/Malaria_codes/scripts/../data/pdbqt_ligands/ligand_396_temp.pdb
REMARK                            x       y       z     vdW  Elec       q    Type
REMARK                         _______ _______ _______ _____ _____    ______ ____
ROOT
ATOM      1  N   UNL     1     150.178 154.501 162.068  0.00  0.00    -0.351 N 
ATOM      2  C   UNL     1     150.447 155.655 162.770  0.00  0.00    +0.086 C 
ATOM      3  C   UNL     1     150.328 155.618 164.065  0.00  0.00    -0.098 C 
ATOM      4  C   UNL     1     150.386 155.637 165.367  0.00  0.00    -0.016 C 
ATOM      5  C   UNL     1     151.637 155.990 166.143  0.00  0.00    +0.090 C 
ATOM      6  N   UNL     1     152.507 154.811 166.308  0.00  0.00    -0.305 N 
ATOM      7  C   UNL     1     152.075 153.993 167.458  0.00  0.00    -0.022 C 
ATOM      8  C   UNL     1     152.853 152.668 167.489  0.00  0.00    -0.097 C 
ATOM      9  N   UNL     1     152.258 151.713 168.427  0.00  0.00    +0.443 N 
ATOM     10  O   UNL     1     152.435 152.178 169.764  0.00  0.00    -0.485 OA
ATOM     11  C   UNL     1     152.418 157.083 165.304  0.00  0.00    +0.118 C 
ATOM     12  N   UNL     1     152.391 158.370 165.555  0.00  0.00    -0.235 N 
ATOM     13  C   UNL     1     151.668 158.852 166.649  0.00  0.00    +0.066 A 
ATOM     14  C   UNL     1     152.264 158.945 167.908  0.00  0.00    -0.036 A 
ATOM     15  C   UNL     1     151.542 159.437 168.997  0.00  0.00    -0.060 A 
ATOM     16  C   UNL     1     150.223 159.856 168.825  0.00  0.00    -0.062 A 
ATOM     17  C   UNL     1     149.627 159.786 167.566  0.00  0.00    -0.060 A 
ATOM     18  C   UNL     1     150.352 159.291 166.480  0.00  0.00    -0.036 A 
ATOM     19  N   UNL     1     153.100 156.621 164.183  0.00  0.00    -0.327 N 
ATOM     20  C   UNL     1     153.245 157.401 162.988  0.00  0.00    +0.030 C 
ATOM     21  C   UNL     1     151.987 157.569 162.179  0.00  0.00    -0.046 C 
ATOM     22  C   UNL     1     150.839 156.870 162.078  0.00  0.00    +0.067 C 
ATOM     23 CL   UNL     1     149.655 157.443 160.917  0.00  0.00    -0.081 Cl
ATOM     24  H   UNL     1     149.913 153.683 162.548  0.00  0.00    +0.000 HD
ATOM     25  H   UNL     1     150.251 154.494 161.087  0.00  0.00    +0.000 HD
ATOM     26  H   UNL     1     153.466 155.122 166.460  0.00  0.00    +0.000 HD
ATOM     27  H   UNL     1     152.447 154.243 165.463  0.00  0.00    +0.000 HD
ATOM     28  H   UNL     1     152.713 150.806 168.321  0.00  0.00    +0.000 HD
ATOM     29  H   UNL     1     151.261 151.623 168.230  0.00  0.00    +0.000 HD
ATOM     30  H   UNL     1     153.383 152.265 169.953  0.00  0.00    +0.000 HD
ATOM     31  H   UNL     1     152.880 158.995 164.972  0.00  0.00    +0.000 HD
ATOM     32  H   UNL     1     153.499 155.722 164.211  0.00  0.00    +0.000 HD
ENDROOT
TORSDOF 0
ENDMDL
MODEL 4
REMARK VINA RESULT:    -6.608      7.896      9.593
REMARK INTER + INTRA:          -6.608
REMARK INTER:                  -6.608
REMARK INTRA:                   0.000
REMARK UNBOUND:                 0.000
REMARK  Name = /home/vital/Documents/PhD_2021/Malaria_codes/scripts/../data/pdbqt_ligands/ligand_396_temp.pdb
REMARK                            x       y       z     vdW  Elec       q    Type
REMARK                         _______ _______ _______ _____ _____    ______ ____
ROOT
ATOM      1  N   UNL     1     146.370 146.980 166.770  0.00  0.00    -0.351 N 
ATOM      2  C   UNL     1     145.471 147.719 166.034  0.00  0.00    +0.086 C 
ATOM      3  C   UNL     1     144.969 147.174 164.966  0.00  0.00    -0.098 C 
ATOM      4  C   UNL     1     144.299 146.659 163.972  0.00  0.00    -0.016 C 
ATOM      5  C   UNL     1     142.789 146.545 163.951  0.00  0.00    +0.090 C 
ATOM      6  N   UNL     1     142.342 145.322 164.643  0.00  0.00    -0.305 N 
ATOM      7  C   UNL     1     142.401 144.154 163.742  0.00  0.00    -0.022 C 
ATOM      8  C   UNL     1     142.136 142.862 164.529  0.00  0.00    -0.097 C 
ATOM      9  N   UNL     1     142.471 141.672 163.744  0.00  0.00    +0.443 N 
ATOM     10  O   UNL     1     141.554 141.537 162.660  0.00  0.00    -0.485 OA
ATOM     11  C   UNL     1     142.212 147.803 164.722  0.00  0.00    +0.118 C 
ATOM     12  N   UNL     1     141.732 148.874 164.138  0.00  0.00    -0.235 N 
ATOM     13  C   UNL     1     141.671 148.941 162.744  0.00  0.00    +0.066 A 
ATOM     14  C   UNL     1     140.554 148.458 162.059  0.00  0.00    -0.036 A 
ATOM     15  C   UNL     1     140.491 148.535 160.667  0.00  0.00    -0.060 A 
ATOM     16  C   UNL     1     141.541 149.113 159.954  0.00  0.00    -0.062 A 
ATOM     17  C   UNL     1     142.651 149.616 160.632  0.00  0.00    -0.060 A 
ATOM     18  C   UNL     1     142.711 149.535 162.024  0.00  0.00    -0.036 A 
ATOM     19  N   UNL     1     142.315 147.771 166.108  0.00  0.00    -0.327 N 
ATOM     20  C   UNL     1     142.527 148.949 166.898  0.00  0.00    +0.030 C 
ATOM     21  C   UNL     1     143.902 149.551 166.790  0.00  0.00    -0.046 C 
ATOM     22  C   UNL     1     145.110 149.067 166.440  0.00  0.00    +0.067 C 
ATOM     23 CL   UNL     1     146.470 150.172 166.531  0.00  0.00    -0.081 Cl
ATOM     24  H   UNL     1     146.607 146.068 166.485  0.00  0.00    +0.000 HD
ATOM     25  H   UNL     1     146.775 147.363 167.580  0.00  0.00    +0.000 HD
ATOM     26  H   UNL     1     141.382 145.451 164.961  0.00  0.00    +0.000 HD
ATOM     27  H   UNL     1     142.961 145.153 165.436  0.00  0.00    +0.000 HD
ATOM     28  H   UNL     1     142.415 140.846 164.340  0.00  0.00    +0.000 HD
ATOM     29  H   UNL     1     143.417 141.766 163.375  0.00  0.00    +0.000 HD
ATOM     30  H   UNL     1     140.653 141.448 163.008  0.00  0.00    +0.000 HD
ATOM     31  H   UNL     1     141.416 149.632 164.682  0.00  0.00    +0.000 HD
ATOM     32  H   UNL     1     142.239 146.903 166.567  0.00  0.00    +0.000 HD
ENDROOT
TORSDOF 0
ENDMDL
MODEL 5
REMARK VINA RESULT:    -6.557      6.707      9.335
REMARK INTER + INTRA:          -6.557
REMARK INTER:                  -6.557
REMARK INTRA:                   0.000
REMARK UNBOUND:                 0.000
REMARK  Name = /home/vital/Documents/PhD_2021/Malaria_codes/scripts/../data/pdbqt_ligands/ligand_396_temp.pdb
REMARK                            x       y       z     vdW  Elec       q    Type
REMARK                         _______ _______ _______ _____ _____    ______ ____
ROOT
ATOM      1  N   UNL     1     152.723 155.903 166.955  0.00  0.00    -0.351 N 
ATOM      2  C   UNL     1     151.907 156.912 166.496  0.00  0.00    +0.086 C 
ATOM      3  C   UNL     1     151.651 157.899 167.304  0.00  0.00    -0.098 C 
ATOM      4  C   UNL     1     151.463 158.998 167.980  0.00  0.00    -0.016 C 
ATOM      5  C   UNL     1     151.864 160.369 167.476  0.00  0.00    +0.090 C 
ATOM      6  N   UNL     1     153.281 160.647 167.774  0.00  0.00    -0.305 N 
ATOM      7  C   UNL     1     153.442 161.153 169.151  0.00  0.00    -0.022 C 
ATOM      8  C   UNL     1     154.932 161.238 169.516  0.00  0.00    -0.097 C 
ATOM      9  N   UNL     1     155.127 161.452 170.951  0.00  0.00    +0.443 N 
ATOM     10  O   UNL     1     154.672 162.755 171.310  0.00  0.00    -0.485 OA
ATOM     11  C   UNL     1     151.667 160.368 165.905  0.00  0.00    +0.118 C 
ATOM     12  N   UNL     1     150.636 160.891 165.286  0.00  0.00    -0.235 N 
ATOM     13  C   UNL     1     149.636 161.536 166.019  0.00  0.00    +0.066 A 
ATOM     14  C   UNL     1     149.741 162.896 166.317  0.00  0.00    -0.036 A 
ATOM     15  C   UNL     1     148.736 163.540 167.041  0.00  0.00    -0.060 A 
ATOM     16  C   UNL     1     147.612 162.828 167.455  0.00  0.00    -0.062 A 
ATOM     17  C   UNL     1     147.489 161.474 167.144  0.00  0.00    -0.060 A 
ATOM     18  C   UNL     1     148.498 160.833 166.422  0.00  0.00    -0.036 A 
ATOM     19  N   UNL     1     152.628 159.684 165.168  0.00  0.00    -0.327 N 
ATOM     20  C   UNL     1     152.323 158.984 163.954  0.00  0.00    +0.030 C 
ATOM     21  C   UNL     1     151.529 157.718 164.131  0.00  0.00    -0.046 C 
ATOM     22  C   UNL     1     151.347 156.864 165.157  0.00  0.00    +0.067 C 
ATOM     23 CL   UNL     1     150.350 155.452 164.853  0.00  0.00    -0.081 Cl
ATOM     24  H   UNL     1     153.097 155.947 167.866  0.00  0.00    +0.000 HD
ATOM     25  H   UNL     1     152.932 155.137 166.374  0.00  0.00    +0.000 HD
ATOM     26  H   UNL     1     153.628 161.347 167.118  0.00  0.00    +0.000 HD
ATOM     27  H   UNL     1     153.809 159.780 167.682  0.00  0.00    +0.000 HD
ATOM     28  H   UNL     1     156.118 161.365 171.175  0.00  0.00    +0.000 HD
ATOM     29  H   UNL     1     154.595 160.753 171.471  0.00  0.00    +0.000 HD
ATOM     30  H   UNL     1     155.176 163.420 170.817  0.00  0.00    +0.000 HD
ATOM     31  H   UNL     1     150.566 160.828 164.306  0.00  0.00    +0.000 HD
ATOM     32  H   UNL     1     153.557 159.681 165.494  0.00  0.00    +0.000 HD
ENDROOT
TORSDOF 0
ENDMDL
MODEL 6
REMARK VINA RESULT:    -6.419      7.172      9.868
REMARK INTER + INTRA:          -6.419
REMARK INTER:                  -6.419
REMARK INTRA:                   0.000
REMARK UNBOUND:                 0.000
REMARK  Name = /home/vital/Documents/PhD_2021/Malaria_codes/scripts/../data/pdbqt_ligands/ligand_396_temp.pdb
REMARK                            x       y       z     vdW  Elec       q    Type
REMARK                         _______ _______ _______ _____ _____    ______ ____
ROOT
ATOM      1  N   UNL     1     153.118 157.407 163.736  0.00  0.00    -0.351 N 
ATOM      2  C   UNL     1     152.171 158.398 163.864  0.00  0.00    +0.086 C 
ATOM      3  C   UNL     1     151.930 158.855 165.057  0.00  0.00    -0.098 C 
ATOM      4  C   UNL     1     151.731 159.481 166.184  0.00  0.00    -0.016 C 
ATOM      5  C   UNL     1     151.951 160.968 166.364  0.00  0.00    +0.090 C 
ATOM      6  N   UNL     1     153.364 161.260 166.666  0.00  0.00    -0.305 N 
ATOM      7  C   UNL     1     153.644 161.088 168.105  0.00  0.00    -0.022 C 
ATOM      8  C   UNL     1     155.155 161.188 168.368  0.00  0.00    -0.097 C 
ATOM      9  N   UNL     1     155.500 160.736 169.718  0.00  0.00    +0.443 N 
ATOM     10  O   UNL     1     154.982 161.653 170.680  0.00  0.00    -0.485 OA
ATOM     11  C   UNL     1     151.569 161.670 164.996  0.00  0.00    +0.118 C 
ATOM     12  N   UNL     1     150.431 162.279 164.767  0.00  0.00    -0.235 N 
ATOM     13  C   UNL     1     149.475 162.375 165.781  0.00  0.00    +0.066 A 
ATOM     14  C   UNL     1     149.499 163.443 166.680  0.00  0.00    -0.036 A 
ATOM     15  C   UNL     1     148.536 163.541 167.686  0.00  0.00    -0.060 A 
ATOM     16  C   UNL     1     147.533 162.577 167.786  0.00  0.00    -0.062 A 
ATOM     17  C   UNL     1     147.490 161.519 166.879  0.00  0.00    -0.060 A 
ATOM     18  C   UNL     1     148.457 161.423 165.876  0.00  0.00    -0.036 A 
ATOM     19  N   UNL     1     152.491 161.537 163.963  0.00  0.00    -0.327 N 
ATOM     20  C   UNL     1     152.104 161.445 162.585  0.00  0.00    +0.030 C 
ATOM     21  C   UNL     1     151.447 160.149 162.192  0.00  0.00    -0.046 C 
ATOM     22  C   UNL     1     151.461 158.901 162.701  0.00  0.00    +0.067 C 
ATOM     23 CL   UNL     1     150.559 157.674 161.830  0.00  0.00    -0.081 Cl
ATOM     24  H   UNL     1     153.592 157.073 164.532  0.00  0.00    +0.000 HD
ATOM     25  H   UNL     1     153.321 157.032 162.850  0.00  0.00    +0.000 HD
ATOM     26  H   UNL     1     153.571 162.223 166.399  0.00  0.00    +0.000 HD
ATOM     27  H   UNL     1     153.950 160.612 166.140  0.00  0.00    +0.000 HD
ATOM     28  H   UNL     1     156.515 160.686 169.809  0.00  0.00    +0.000 HD
ATOM     29  H   UNL     1     155.095 159.814 169.878  0.00  0.00    +0.000 HD
ATOM     30  H   UNL     1     155.365 162.531 170.528  0.00  0.00    +0.000 HD
ATOM     31  H   UNL     1     150.251 162.669 163.881  0.00  0.00    +0.000 HD
ATOM     32  H   UNL     1     153.449 161.505 164.187  0.00  0.00    +0.000 HD
ENDROOT
TORSDOF 0
ENDMDL
MODEL 7
REMARK VINA RESULT:    -6.215      5.976      8.481
REMARK INTER + INTRA:          -6.215
REMARK INTER:                  -6.215
REMARK INTRA:                   0.000
REMARK UNBOUND:                 0.000
REMARK  Name = /home/vital/Documents/PhD_2021/Malaria_codes/scripts/../data/pdbqt_ligands/ligand_396_temp.pdb
REMARK                            x       y       z     vdW  Elec       q    Type
REMARK                         _______ _______ _______ _____ _____    ______ ____
ROOT
ATOM      1  N   UNL     1     150.488 163.511 168.318  0.00  0.00    -0.351 N 
ATOM      2  C   UNL     1     150.910 162.202 168.367  0.00  0.00    +0.086 C 
ATOM      3  C   UNL     1     150.478 161.391 167.446  0.00  0.00    -0.098 C 
ATOM      4  C   UNL     1     150.226 160.546 166.485  0.00  0.00    -0.016 C 
ATOM      5  C   UNL     1     151.301 159.878 165.655  0.00  0.00    +0.090 C 
ATOM      6  N   UNL     1     151.716 160.742 164.534  0.00  0.00    -0.305 N 
ATOM      7  C   UNL     1     150.799 160.597 163.387  0.00  0.00    -0.022 C 
ATOM      8  C   UNL     1     151.118 161.650 162.314  0.00  0.00    -0.097 C 
ATOM      9  N   UNL     1     150.061 161.731 161.305  0.00  0.00    +0.443 N 
ATOM     10  O   UNL     1     150.041 160.534 160.530  0.00  0.00    -0.485 OA
ATOM     11  C   UNL     1     152.549 159.642 166.602  0.00  0.00    +0.118 C 
ATOM     12  N   UNL     1     152.845 158.497 167.167  0.00  0.00    -0.235 N 
ATOM     13  C   UNL     1     152.057 157.371 166.915  0.00  0.00    +0.066 A 
ATOM     14  C   UNL     1     152.334 156.540 165.827  0.00  0.00    -0.036 A 
ATOM     15  C   UNL     1     151.551 155.410 165.584  0.00  0.00    -0.060 A 
ATOM     16  C   UNL     1     150.497 155.097 166.441  0.00  0.00    -0.062 A 
ATOM     17  C   UNL     1     150.227 155.909 167.542  0.00  0.00    -0.060 A 
ATOM     18  C   UNL     1     151.011 157.040 167.780  0.00  0.00    -0.036 A 
ATOM     19  N   UNL     1     153.310 160.767 166.901  0.00  0.00    -0.327 N 
ATOM     20  C   UNL     1     153.962 160.949 168.166  0.00  0.00    +0.030 C 
ATOM     21  C   UNL     1     153.043 161.239 169.322  0.00  0.00    -0.046 C 
ATOM     22  C   UNL     1     151.799 161.747 169.422  0.00  0.00    +0.067 C 
ATOM     23 CL   UNL     1     151.152 161.959 171.040  0.00  0.00    -0.081 Cl
ATOM     24  H   UNL     1     149.885 163.808 167.598  0.00  0.00    +0.000 HD
ATOM     25  H   UNL     1     150.788 164.151 169.003  0.00  0.00    +0.000 HD
ATOM     26  H   UNL     1     152.659 160.482 164.244  0.00  0.00    +0.000 HD
ATOM     27  H   UNL     1     151.695 161.713 164.847  0.00  0.00    +0.000 HD
ATOM     28  H   UNL     1     150.237 162.528 160.693  0.00  0.00    +0.000 HD
ATOM     29  H   UNL     1     149.159 161.848 161.769  0.00  0.00    +0.000 HD
ATOM     30  H   UNL     1     150.898 160.421 160.088  0.00  0.00    +0.000 HD
ATOM     31  H   UNL     1     153.622 158.431 167.768  0.00  0.00    +0.000 HD
ATOM     32  H   UNL     1     153.406 161.468 166.217  0.00  0.00    +0.000 HD
ENDROOT
TORSDOF 0
ENDMDL
MODEL 8
REMARK VINA RESULT:    -5.856      7.954     11.819
REMARK INTER + INTRA:          -5.856
REMARK INTER:                  -5.856
REMARK INTRA:                   0.000
REMARK UNBOUND:                 0.000
REMARK  Name = /home/vital/Documents/PhD_2021/Malaria_codes/scripts/../data/pdbqt_ligands/ligand_396_temp.pdb
REMARK                            x       y       z     vdW  Elec       q    Type
REMARK                         _______ _______ _______ _____ _____    ______ ____
ROOT
ATOM      1  N   UNL     1     145.510 142.010 165.905  0.00  0.00    -0.351 N 
ATOM      2  C   UNL     1     144.363 142.769 165.858  0.00  0.00    +0.086 C 
ATOM      3  C   UNL     1     144.478 144.052 166.037  0.00  0.00    -0.098 C 
ATOM      4  C   UNL     1     144.510 145.356 166.050  0.00  0.00    -0.016 C 
ATOM      5  C   UNL     1     144.003 146.216 164.912  0.00  0.00    +0.090 C 
ATOM      6  N   UNL     1     145.039 146.387 163.877  0.00  0.00    -0.305 N 
ATOM      7  C   UNL     1     145.967 147.478 164.233  0.00  0.00    -0.022 C 
ATOM      8  C   UNL     1     147.155 147.505 163.259  0.00  0.00    -0.097 C 
ATOM      9  N   UNL     1     148.233 148.370 163.743  0.00  0.00    +0.443 N 
ATOM     10  O   UNL     1     147.809 149.731 163.711  0.00  0.00    -0.485 OA
ATOM     11  C   UNL     1     142.764 145.466 164.270  0.00  0.00    +0.118 C 
ATOM     12  N   UNL     1     141.511 145.763 164.513  0.00  0.00    -0.235 N 
ATOM     13  C   UNL     1     141.197 146.830 165.358  0.00  0.00    +0.066 A 
ATOM     14  C   UNL     1     141.072 148.124 164.851  0.00  0.00    -0.036 A 
ATOM     15  C   UNL     1     140.749 149.187 165.697  0.00  0.00    -0.060 A 
ATOM     16  C   UNL     1     140.533 148.955 167.054  0.00  0.00    -0.062 A 
ATOM     17  C   UNL     1     140.636 147.661 167.566  0.00  0.00    -0.060 A 
ATOM     18  C   UNL     1     140.962 146.602 166.717  0.00  0.00    -0.036 A 
ATOM     19  N   UNL     1     143.062 144.370 163.468  0.00  0.00    -0.327 N 
ATOM     20  C   UNL     1     142.215 143.216 163.386  0.00  0.00    +0.030 C 
ATOM     21  C   UNL     1     142.207 142.342 164.610  0.00  0.00    -0.046 C 
ATOM     22  C   UNL     1     143.070 142.148 165.627  0.00  0.00    +0.067 C 
ATOM     23 CL   UNL     1     142.635 140.942 166.825  0.00  0.00    -0.081 Cl
ATOM     24  H   UNL     1     146.381 142.442 166.062  0.00  0.00    +0.000 HD
ATOM     25  H   UNL     1     145.461 141.035 165.781  0.00  0.00    +0.000 HD
ATOM     26  H   UNL     1     144.590 146.607 162.988  0.00  0.00    +0.000 HD
ATOM     27  H   UNL     1     145.570 145.519 163.802  0.00  0.00    +0.000 HD
ATOM     28  H   UNL     1     149.052 148.256 163.147  0.00  0.00    +0.000 HD
ATOM     29  H   UNL     1     148.468 148.112 164.702  0.00  0.00    +0.000 HD
ATOM     30  H   UNL     1     147.585 149.979 162.800  0.00  0.00    +0.000 HD
ATOM     31  H   UNL     1     140.791 145.234 164.099  0.00  0.00    +0.000 HD
ATOM     32  H   UNL     1     143.889 144.387 162.934  0.00  0.00    +0.000 HD
ENDROOT
TORSDOF 0
ENDMDL
MODEL 9
REMARK VINA RESULT:    -5.658     10.403     12.240
REMARK INTER + INTRA:          -5.658
REMARK INTER:                  -5.658
REMARK INTRA:                   0.000
REMARK UNBOUND:                 0.000
REMARK  Name = /home/vital/Documents/PhD_2021/Malaria_codes/scripts/../data/pdbqt_ligands/ligand_396_temp.pdb
REMARK                            x       y       z     vdW  Elec       q    Type
REMARK                         _______ _______ _______ _____ _____    ______ ____
ROOT
ATOM      1  N   UNL     1     144.046 142.651 162.880  0.00  0.00    -0.351 N 
ATOM      2  C   UNL     1     143.600 143.358 163.974  0.00  0.00    +0.086 C 
ATOM      3  C   UNL     1     143.477 144.647 163.854  0.00  0.00    -0.098 C 
ATOM      4  C   UNL     1     143.176 145.914 163.783  0.00  0.00    -0.016 C 
ATOM      5  C   UNL     1     141.787 146.459 164.042  0.00  0.00    +0.090 C 
ATOM      6  N   UNL     1     140.955 146.384 162.827  0.00  0.00    -0.305 N 
ATOM      7  C   UNL     1     141.200 147.544 161.947  0.00  0.00    -0.022 C 
ATOM      8  C   UNL     1     140.490 147.347 160.599  0.00  0.00    -0.097 C 
ATOM      9  N   UNL     1     140.941 148.322 159.603  0.00  0.00    +0.443 N 
ATOM     10  O   UNL     1     140.497 149.626 159.970  0.00  0.00    -0.485 OA
ATOM     11  C   UNL     1     141.129 145.555 165.164  0.00  0.00    +0.118 C 
ATOM     12  N   UNL     1     141.051 145.883 166.431  0.00  0.00    -0.235 N 
ATOM     13  C   UNL     1     141.535 147.122 166.861  0.00  0.00    +0.066 A 
ATOM     14  C   UNL     1     140.711 148.248 166.849  0.00  0.00    -0.036 A 
ATOM     15  C   UNL     1     141.194 149.482 167.289  0.00  0.00    -0.060 A 
ATOM     16  C   UNL     1     142.503 149.589 167.760  0.00  0.00    -0.062 A 
ATOM     17  C   UNL     1     143.326 148.463 167.795  0.00  0.00    -0.060 A 
ATOM     18  C   UNL     1     142.839 147.232 167.352  0.00  0.00    -0.036 A 
ATOM     19  N   UNL     1     140.690 144.299 164.757  0.00  0.00    -0.327 N 
ATOM     20  C   UNL     1     140.736 143.148 165.611  0.00  0.00    +0.030 C 
ATOM     21  C   UNL     1     142.114 142.603 165.874  0.00  0.00    -0.046 C 
ATOM     22  C   UNL     1     143.290 142.680 165.221  0.00  0.00    +0.067 C 
ATOM     23 CL   UNL     1     144.644 141.800 165.909  0.00  0.00    -0.081 Cl
ATOM     24  H   UNL     1     144.253 143.122 162.040  0.00  0.00    +0.000 HD
ATOM     25  H   UNL     1     144.158 141.675 162.937  0.00  0.00    +0.000 HD
ATOM     26  H   UNL     1     139.972 146.371 163.097  0.00  0.00    +0.000 HD
ATOM     27  H   UNL     1     141.197 145.533 162.319  0.00  0.00    +0.000 HD
ATOM     28  H   UNL     1     140.555 148.076 158.691  0.00  0.00    +0.000 HD
ATOM     29  H   UNL     1     141.960 148.311 159.558  0.00  0.00    +0.000 HD
ATOM     30  H   UNL     1     139.528 149.637 160.013  0.00  0.00    +0.000 HD
ATOM     31  H   UNL     1     140.653 145.258 167.078  0.00  0.00    +0.000 HD
ATOM     32  H   UNL     1     140.333 144.197 163.846  0.00  0.00    +0.000 HD
ENDROOT
TORSDOF 0
ENDMDL
