MODEL 1
REMARK VINA RESULT:    -8.085      0.000      0.000
REMARK INTER + INTRA:          -8.085
REMARK INTER:                  -8.085
REMARK INTRA:                   0.000
REMARK UNBOUND:                 0.000
REMARK  Name = /home/vital/Documents/PhD_2021/Malaria_codes/scripts/../data/pdbqt_ligands/ligand_175_temp.pdb
REMARK                            x       y       z     vdW  Elec       q    Type
REMARK                         _______ _______ _______ _____ _____    ______ ____
ROOT
ATOM      1  O1  UNL     1     146.880 150.775 164.538  0.00  0.00    -0.393 OA
ATOM      2  C1  UNL     1     147.497 151.500 163.479  0.00  0.00    +0.060 C 
ATOM      3  C2  UNL     1     148.327 152.658 164.040  0.00  0.00    +0.034 C 
ATOM      4  N1  UNL     1     148.894 153.447 162.941  0.00  0.00    -0.326 N 
ATOM      5  C3  UNL     1     149.780 154.493 163.337  0.00  0.00    +0.130 A 
ATOM      6  N2  UNL     1     149.959 154.640 164.677  0.00  0.00    -0.210 NA
ATOM      7  C4  UNL     1     150.746 155.569 165.255  0.00  0.00    +0.166 A 
ATOM      8  N3  UNL     1     150.803 155.540 166.663  0.00  0.00    -0.287 N 
ATOM      9  C5  UNL     1     151.935 155.869 167.380  0.00  0.00    +0.085 C 
ATOM     10  C6  UNL     1     152.746 154.738 167.701  0.00  0.00    -0.034 C 
ATOM     11  C7  UNL     1     153.429 153.787 167.966  0.00  0.00    +0.011 C 
ATOM     12 CL1  UNL     1     154.431 152.394 168.357  0.00  0.00    -0.022 Cl
ATOM     13  C8  UNL     1     152.292 157.083 167.835  0.00  0.00    -0.031 C 
ATOM     14  C9  UNL     1     151.518 158.295 167.655  0.00  0.00    -0.048 C 
ATOM     15  C10 UNL     1     151.919 159.488 168.101  0.00  0.00    +0.005 C 
ATOM     16 CL2  UNL     1     150.993 160.914 167.886  0.00  0.00    -0.092 Cl
ATOM     17  S1  UNL     1     151.638 156.764 164.320  0.00  0.00    -0.047 S 
ATOM     18  C11 UNL     1     151.192 156.358 162.650  0.00  0.00    +0.051 A 
ATOM     19  C12 UNL     1     150.384 155.269 162.303  0.00  0.00    +0.034 A 
ATOM     20  C13 UNL     1     150.210 154.928 160.937  0.00  0.00    -0.049 C 
ATOM     21  C14 UNL     1     150.825 155.553 159.845  0.00  0.00    -0.055 C 
ATOM     22  C15 UNL     1     151.633 156.667 159.960  0.00  0.00    -0.036 C 
ATOM     23  S2  UNL     1     151.831 157.579 161.472  0.00  0.00    -0.161 S 
ATOM     24  H   UNL     1     146.358 150.046 164.169  0.00  0.00    +0.000 HD
ATOM     25  H   UNL     1     148.678 153.267 161.997  0.00  0.00    +0.000 HD
ATOM     26  H   UNL     1     149.995 155.272 167.159  0.00  0.00    +0.000 HD
ATOM     27  H   UNL     1     153.135 157.882 161.713  0.00  0.00    +0.000 HD
ENDROOT
TORSDOF 0
ENDMDL
MODEL 2
REMARK VINA RESULT:    -7.749      4.308      7.576
REMARK INTER + INTRA:          -7.749
REMARK INTER:                  -7.749
REMARK INTRA:                   0.000
REMARK UNBOUND:                 0.000
REMARK  Name = /home/vital/Documents/PhD_2021/Malaria_codes/scripts/../data/pdbqt_ligands/ligand_175_temp.pdb
REMARK                            x       y       z     vdW  Elec       q    Type
REMARK                         _______ _______ _______ _____ _____    ______ ____
ROOT
ATOM      1  O1  UNL     1     149.985 160.436 166.131  0.00  0.00    -0.393 OA
ATOM      2  C1  UNL     1     150.963 159.538 166.644  0.00  0.00    +0.060 C 
ATOM      3  C2  UNL     1     150.526 158.088 166.414  0.00  0.00    +0.034 C 
ATOM      4  N1  UNL     1     151.499 157.170 167.016  0.00  0.00    -0.326 N 
ATOM      5  C3  UNL     1     151.258 155.784 166.773  0.00  0.00    +0.130 A 
ATOM      6  N2  UNL     1     150.147 155.496 166.044  0.00  0.00    -0.210 NA
ATOM      7  C4  UNL     1     149.740 154.255 165.712  0.00  0.00    +0.166 A 
ATOM      8  N3  UNL     1     148.564 154.178 164.937  0.00  0.00    -0.287 N 
ATOM      9  C5  UNL     1     148.353 153.204 163.982  0.00  0.00    +0.085 C 
ATOM     10  C6  UNL     1     148.740 153.611 162.669  0.00  0.00    -0.034 C 
ATOM     11  C7  UNL     1     149.071 153.952 161.567  0.00  0.00    +0.011 C 
ATOM     12 CL1  UNL     1     149.554 154.451 159.949  0.00  0.00    -0.022 Cl
ATOM     13  C8  UNL     1     147.785 151.998 164.155  0.00  0.00    -0.031 C 
ATOM     14  C9  UNL     1     147.270 151.498 165.415  0.00  0.00    -0.048 C 
ATOM     15  C10 UNL     1     146.734 150.282 165.551  0.00  0.00    +0.005 C 
ATOM     16 CL2  UNL     1     146.125 149.703 167.044  0.00  0.00    -0.092 Cl
ATOM     17  S1  UNL     1     150.601 152.810 166.227  0.00  0.00    -0.047 S 
ATOM     18  C11 UNL     1     151.951 153.480 167.167  0.00  0.00    +0.051 A 
ATOM     19  C12 UNL     1     152.194 154.850 167.309  0.00  0.00    +0.034 A 
ATOM     20  C13 UNL     1     153.384 155.292 167.945  0.00  0.00    -0.049 C 
ATOM     21  C14 UNL     1     154.417 154.476 168.423  0.00  0.00    -0.055 C 
ATOM     22  C15 UNL     1     154.364 153.096 168.413  0.00  0.00    -0.036 C 
ATOM     23  S2  UNL     1     152.904 152.176 167.990  0.00  0.00    -0.161 S 
ATOM     24  H   UNL     1     150.274 161.350 166.283  0.00  0.00    +0.000 HD
ATOM     25  H   UNL     1     152.263 157.487 167.549  0.00  0.00    +0.000 HD
ATOM     26  H   UNL     1     147.861 154.852 165.084  0.00  0.00    +0.000 HD
ATOM     27  H   UNL     1     153.181 151.144 167.150  0.00  0.00    +0.000 HD
ENDROOT
TORSDOF 0
ENDMDL
MODEL 3
REMARK VINA RESULT:    -7.577      4.449      7.080
REMARK INTER + INTRA:          -7.577
REMARK INTER:                  -7.577
REMARK INTRA:                   0.000
REMARK UNBOUND:                 0.000
REMARK  Name = /home/vital/Documents/PhD_2021/Malaria_codes/scripts/../data/pdbqt_ligands/ligand_175_temp.pdb
REMARK                            x       y       z     vdW  Elec       q    Type
REMARK                         _______ _______ _______ _____ _____    ______ ____
ROOT
ATOM      1  O1  UNL     1     153.626 155.060 167.887  0.00  0.00    -0.393 OA
ATOM      2  C1  UNL     1     153.161 156.350 167.503  0.00  0.00    +0.060 C 
ATOM      3  C2  UNL     1     152.712 156.341 166.039  0.00  0.00    +0.034 C 
ATOM      4  N1  UNL     1     152.310 157.690 165.628  0.00  0.00    -0.326 N 
ATOM      5  C3  UNL     1     151.766 157.789 164.313  0.00  0.00    +0.130 A 
ATOM      6  N2  UNL     1     151.720 156.630 163.604  0.00  0.00    -0.210 NA
ATOM      7  C4  UNL     1     151.251 156.510 162.346  0.00  0.00    +0.166 A 
ATOM      8  N3  UNL     1     151.280 155.212 161.797  0.00  0.00    -0.287 N 
ATOM      9  C5  UNL     1     150.326 154.744 160.916  0.00  0.00    +0.085 C 
ATOM     10  C6  UNL     1     149.262 154.041 161.559  0.00  0.00    -0.034 C 
ATOM     11  C7  UNL     1     148.367 153.454 162.101  0.00  0.00    +0.011 C 
ATOM     12 CL1  UNL     1     147.053 152.591 162.894  0.00  0.00    -0.022 Cl
ATOM     13  C8  UNL     1     150.340 154.829 159.574  0.00  0.00    -0.031 C 
ATOM     14  C9  UNL     1     151.400 155.437 158.794  0.00  0.00    -0.048 C 
ATOM     15  C10 UNL     1     151.365 155.524 157.461  0.00  0.00    +0.005 C 
ATOM     16 CL2  UNL     1     152.626 156.242 156.549  0.00  0.00    -0.092 Cl
ATOM     17  S1  UNL     1     150.657 157.888 161.426  0.00  0.00    -0.047 S 
ATOM     18  C11 UNL     1     150.869 159.233 162.565  0.00  0.00    +0.051 A 
ATOM     19  C12 UNL     1     151.329 159.075 163.877  0.00  0.00    +0.034 A 
ATOM     20  C13 UNL     1     151.317 160.182 164.766  0.00  0.00    -0.049 C 
ATOM     21  C14 UNL     1     150.825 161.463 164.483  0.00  0.00    -0.055 C 
ATOM     22  C15 UNL     1     150.357 161.841 163.240  0.00  0.00    -0.036 C 
ATOM     23  S2  UNL     1     150.509 160.830 161.787  0.00  0.00    -0.161 S 
ATOM     24  H   UNL     1     153.907 155.082 168.815  0.00  0.00    +0.000 HD
ATOM     25  H   UNL     1     152.408 158.472 166.219  0.00  0.00    +0.000 HD
ATOM     26  H   UNL     1     152.015 154.610 162.056  0.00  0.00    +0.000 HD
ATOM     27  H   UNL     1     149.354 160.796 161.071  0.00  0.00    +0.000 HD
ENDROOT
TORSDOF 0
ENDMDL
MODEL 4
REMARK VINA RESULT:    -7.415      3.953      6.122
REMARK INTER + INTRA:          -7.415
REMARK INTER:                  -7.415
REMARK INTRA:                   0.000
REMARK UNBOUND:                 0.000
REMARK  Name = /home/vital/Documents/PhD_2021/Malaria_codes/scripts/../data/pdbqt_ligands/ligand_175_temp.pdb
REMARK                            x       y       z     vdW  Elec       q    Type
REMARK                         _______ _______ _______ _____ _____    ______ ____
ROOT
ATOM      1  O1  UNL     1     151.885 158.453 158.856  0.00  0.00    -0.393 OA
ATOM      2  C1  UNL     1     151.474 157.408 159.731  0.00  0.00    +0.060 C 
ATOM      3  C2  UNL     1     151.625 157.845 161.192  0.00  0.00    +0.034 C 
ATOM      4  N1  UNL     1     151.275 156.736 162.086  0.00  0.00    -0.326 N 
ATOM      5  C3  UNL     1     151.272 157.055 163.477  0.00  0.00    +0.130 A 
ATOM      6  N2  UNL     1     151.620 158.331 163.791  0.00  0.00    -0.210 NA
ATOM      7  C4  UNL     1     151.685 158.829 165.042  0.00  0.00    +0.166 A 
ATOM      8  N3  UNL     1     152.055 160.186 165.148  0.00  0.00    -0.287 N 
ATOM      9  C5  UNL     1     151.566 161.027 166.127  0.00  0.00    +0.085 C 
ATOM     10  C6  UNL     1     150.415 161.764 165.712  0.00  0.00    -0.034 C 
ATOM     11  C7  UNL     1     149.446 162.379 165.364  0.00  0.00    +0.011 C 
ATOM     12 CL1  UNL     1     148.023 163.283 164.855  0.00  0.00    -0.022 Cl
ATOM     13  C8  UNL     1     152.086 161.252 167.346  0.00  0.00    -0.031 C 
ATOM     14  C9  UNL     1     153.296 160.638 167.857  0.00  0.00    -0.048 C 
ATOM     15  C10 UNL     1     153.766 160.869 169.086  0.00  0.00    +0.005 C 
ATOM     16 CL2  UNL     1     155.200 160.140 169.678  0.00  0.00    -0.092 Cl
ATOM     17  S1  UNL     1     151.353 157.850 166.466  0.00  0.00    -0.047 S 
ATOM     18  C11 UNL     1     150.972 156.264 165.763  0.00  0.00    +0.051 A 
ATOM     19  C12 UNL     1     150.906 156.019 164.387  0.00  0.00    +0.034 A 
ATOM     20  C13 UNL     1     150.440 154.764 163.917  0.00  0.00    -0.049 C 
ATOM     21  C14 UNL     1     149.966 153.710 164.708  0.00  0.00    -0.055 C 
ATOM     22  C15 UNL     1     149.975 153.730 166.089  0.00  0.00    -0.036 C 
ATOM     23  S2  UNL     1     150.776 154.996 167.044  0.00  0.00    -0.161 S 
ATOM     24  H   UNL     1     151.784 158.163 157.936  0.00  0.00    +0.000 HD
ATOM     25  H   UNL     1     151.059 155.837 161.750  0.00  0.00    +0.000 HD
ATOM     26  H   UNL     1     152.692 160.551 164.491  0.00  0.00    +0.000 HD
ATOM     27  H   UNL     1     149.995 155.428 168.070  0.00  0.00    +0.000 HD
ENDROOT
TORSDOF 0
ENDMDL
MODEL 5
REMARK VINA RESULT:    -7.254      3.383      5.524
REMARK INTER + INTRA:          -7.254
REMARK INTER:                  -7.254
REMARK INTRA:                   0.000
REMARK UNBOUND:                 0.000
REMARK  Name = /home/vital/Documents/PhD_2021/Malaria_codes/scripts/../data/pdbqt_ligands/ligand_175_temp.pdb
REMARK                            x       y       z     vdW  Elec       q    Type
REMARK                         _______ _______ _______ _____ _____    ______ ____
ROOT
ATOM      1  O1  UNL     1     152.384 156.864 157.295  0.00  0.00    -0.393 OA
ATOM      2  C1  UNL     1     151.403 156.003 157.863  0.00  0.00    +0.060 C 
ATOM      3  C2  UNL     1     151.496 156.025 159.392  0.00  0.00    +0.034 C 
ATOM      4  N1  UNL     1     150.537 155.075 159.966  0.00  0.00    -0.326 N 
ATOM      5  C3  UNL     1     150.451 155.085 161.390  0.00  0.00    +0.130 A 
ATOM      6  N2  UNL     1     151.287 155.947 162.027  0.00  0.00    -0.210 NA
ATOM      7  C4  UNL     1     151.367 156.103 163.363  0.00  0.00    +0.166 A 
ATOM      8  N3  UNL     1     152.293 157.064 163.819  0.00  0.00    -0.287 N 
ATOM      9  C5  UNL     1     152.090 157.832 164.947  0.00  0.00    +0.085 C 
ATOM     10  C6  UNL     1     151.489 159.097 164.666  0.00  0.00    -0.034 C 
ATOM     11  C7  UNL     1     150.979 160.157 164.429  0.00  0.00    +0.011 C 
ATOM     12 CL1  UNL     1     150.233 161.713 164.083  0.00  0.00    -0.022 Cl
ATOM     13  C8  UNL     1     152.447 157.541 166.211  0.00  0.00    -0.031 C 
ATOM     14  C9  UNL     1     153.140 156.335 166.618  0.00  0.00    -0.048 C 
ATOM     15  C10 UNL     1     153.456 156.071 167.889  0.00  0.00    +0.005 C 
ATOM     16 CL2  UNL     1     154.279 154.643 168.358  0.00  0.00    -0.092 Cl
ATOM     17  S1  UNL     1     150.396 155.155 164.483  0.00  0.00    -0.047 S 
ATOM     18  C11 UNL     1     149.453 154.117 163.393  0.00  0.00    +0.051 A 
ATOM     19  C12 UNL     1     149.509 154.202 161.998  0.00  0.00    +0.034 A 
ATOM     20  C13 UNL     1     148.605 153.444 161.209  0.00  0.00    -0.049 C 
ATOM     21  C14 UNL     1     147.579 152.620 161.691  0.00  0.00    -0.055 C 
ATOM     22  C15 UNL     1     147.370 152.370 163.033  0.00  0.00    -0.036 C 
ATOM     23  S2  UNL     1     148.492 152.883 164.310  0.00  0.00    -0.161 S 
ATOM     24  H   UNL     1     152.313 156.840 156.327  0.00  0.00    +0.000 HD
ATOM     25  H   UNL     1     149.991 154.475 159.408  0.00  0.00    +0.000 HD
ATOM     26  H   UNL     1     153.124 157.194 163.306  0.00  0.00    +0.000 HD
ATOM     27  H   UNL     1     147.839 153.434 165.368  0.00  0.00    +0.000 HD
ENDROOT
TORSDOF 0
ENDMDL
MODEL 6
REMARK VINA RESULT:    -7.069      2.971      5.360
REMARK INTER + INTRA:          -7.069
REMARK INTER:                  -7.069
REMARK INTRA:                   0.000
REMARK UNBOUND:                 0.000
REMARK  Name = /home/vital/Documents/PhD_2021/Malaria_codes/scripts/../data/pdbqt_ligands/ligand_175_temp.pdb
REMARK                            x       y       z     vdW  Elec       q    Type
REMARK                         _______ _______ _______ _____ _____    ______ ____
ROOT
ATOM      1  O1  UNL     1     152.316 158.874 159.350  0.00  0.00    -0.393 OA
ATOM      2  C1  UNL     1     151.365 157.831 159.539  0.00  0.00    +0.060 C 
ATOM      3  C2  UNL     1     151.497 157.238 160.945  0.00  0.00    +0.034 C 
ATOM      4  N1  UNL     1     150.570 156.113 161.104  0.00  0.00    -0.326 N 
ATOM      5  C3  UNL     1     150.521 155.546 162.412  0.00  0.00    +0.130 A 
ATOM      6  N2  UNL     1     151.358 156.100 163.328  0.00  0.00    -0.210 NA
ATOM      7  C4  UNL     1     151.470 155.707 164.613  0.00  0.00    +0.166 A 
ATOM      8  N3  UNL     1     152.390 156.427 165.401  0.00  0.00    -0.287 N 
ATOM      9  C5  UNL     1     152.204 156.670 166.747  0.00  0.00    +0.085 C 
ATOM     10  C6  UNL     1     151.574 157.925 167.010  0.00  0.00    -0.034 C 
ATOM     11  C7  UNL     1     151.040 158.977 167.229  0.00  0.00    +0.011 C 
ATOM     12 CL1  UNL     1     150.258 160.521 167.552  0.00  0.00    -0.022 Cl
ATOM     13  C8  UNL     1     152.598 155.905 167.780  0.00  0.00    -0.031 C 
ATOM     14  C9  UNL     1     153.322 154.655 167.654  0.00  0.00    -0.048 C 
ATOM     15  C10 UNL     1     153.675 153.910 168.706  0.00  0.00    +0.005 C 
ATOM     16 CL2  UNL     1     154.535 152.436 168.546  0.00  0.00    -0.092 Cl
ATOM     17  S1  UNL     1     150.544 154.363 165.272  0.00  0.00    -0.047 S 
ATOM     18  C11 UNL     1     149.591 153.828 163.872  0.00  0.00    +0.051 A 
ATOM     19  C12 UNL     1     149.610 154.469 162.628  0.00  0.00    +0.034 A 
ATOM     20  C13 UNL     1     148.699 154.069 161.616  0.00  0.00    -0.049 C 
ATOM     21  C14 UNL     1     147.700 153.095 161.742  0.00  0.00    -0.055 C 
ATOM     22  C15 UNL     1     147.530 152.320 162.873  0.00  0.00    -0.036 C 
ATOM     23  S2  UNL     1     148.676 152.305 164.230  0.00  0.00    -0.161 S 
ATOM     24  H   UNL     1     152.221 159.239 158.456  0.00  0.00    +0.000 HD
ATOM     25  H   UNL     1     150.020 155.774 160.361  0.00  0.00    +0.000 HD
ATOM     26  H   UNL     1     153.206 156.774 164.971  0.00  0.00    +0.000 HD
ATOM     27  H   UNL     1     148.041 152.365 165.430  0.00  0.00    +0.000 HD
ENDROOT
TORSDOF 0
ENDMDL
MODEL 7
REMARK VINA RESULT:    -7.005      2.918      5.445
REMARK INTER + INTRA:          -7.005
REMARK INTER:                  -7.005
REMARK INTRA:                   0.000
REMARK UNBOUND:                 0.000
REMARK  Name = /home/vital/Documents/PhD_2021/Malaria_codes/scripts/../data/pdbqt_ligands/ligand_175_temp.pdb
REMARK                            x       y       z     vdW  Elec       q    Type
REMARK                         _______ _______ _______ _____ _____    ______ ____
ROOT
ATOM      1  O1  UNL     1     151.460 157.664 159.398  0.00  0.00    -0.393 OA
ATOM      2  C1  UNL     1     150.498 156.640 159.629  0.00  0.00    +0.060 C 
ATOM      3  C2  UNL     1     150.632 156.094 161.054  0.00  0.00    +0.034 C 
ATOM      4  N1  UNL     1     149.693 154.987 161.258  0.00  0.00    -0.326 N 
ATOM      5  C3  UNL     1     149.646 154.466 162.585  0.00  0.00    +0.130 A 
ATOM      6  N2  UNL     1     150.496 155.041 163.476  0.00  0.00    -0.210 NA
ATOM      7  C4  UNL     1     150.612 154.691 164.773  0.00  0.00    +0.166 A 
ATOM      8  N3  UNL     1     151.546 155.426 165.530  0.00  0.00    -0.287 N 
ATOM      9  C5  UNL     1     151.372 155.718 166.867  0.00  0.00    +0.085 C 
ATOM     10  C6  UNL     1     150.759 156.989 167.091  0.00  0.00    -0.034 C 
ATOM     11  C7  UNL     1     150.240 158.055 167.277  0.00  0.00    +0.011 C 
ATOM     12 CL1  UNL     1     149.479 159.618 167.552  0.00  0.00    -0.022 Cl
ATOM     13  C8  UNL     1     151.764 154.984 167.924  0.00  0.00    -0.031 C 
ATOM     14  C9  UNL     1     152.472 153.721 167.837  0.00  0.00    -0.048 C 
ATOM     15  C10 UNL     1     152.823 153.009 168.911  0.00  0.00    +0.005 C 
ATOM     16 CL2  UNL     1     153.663 151.520 168.797  0.00  0.00    -0.092 Cl
ATOM     17  S1  UNL     1     149.674 153.383 165.484  0.00  0.00    -0.047 S 
ATOM     18  C11 UNL     1     148.705 152.811 164.109  0.00  0.00    +0.051 A 
ATOM     19  C12 UNL     1     148.723 153.408 162.844  0.00  0.00    +0.034 A 
ATOM     20  C13 UNL     1     147.800 152.985 161.852  0.00  0.00    -0.049 C 
ATOM     21  C14 UNL     1     146.791 152.029 162.019  0.00  0.00    -0.055 C 
ATOM     22  C15 UNL     1     146.619 151.296 163.176  0.00  0.00    -0.036 C 
ATOM     23  S2  UNL     1     147.774 151.313 164.525  0.00  0.00    -0.161 S 
ATOM     24  H   UNL     1     151.364 157.999 158.493  0.00  0.00    +0.000 HD
ATOM     25  H   UNL     1     149.134 154.629 160.530  0.00  0.00    +0.000 HD
ATOM     26  H   UNL     1     152.363 155.748 165.082  0.00  0.00    +0.000 HD
ATOM     27  H   UNL     1     147.148 151.422 165.727  0.00  0.00    +0.000 HD
ENDROOT
TORSDOF 0
ENDMDL
MODEL 8
REMARK VINA RESULT:    -6.844      4.980      8.068
REMARK INTER + INTRA:          -6.844
REMARK INTER:                  -6.844
REMARK INTRA:                   0.000
REMARK UNBOUND:                 0.000
REMARK  Name = /home/vital/Documents/PhD_2021/Malaria_codes/scripts/../data/pdbqt_ligands/ligand_175_temp.pdb
REMARK                            x       y       z     vdW  Elec       q    Type
REMARK                         _______ _______ _______ _____ _____    ______ ____
ROOT
ATOM      1  O1  UNL     1     155.490 159.740 169.878  0.00  0.00    -0.393 OA
ATOM      2  C1  UNL     1     154.323 160.541 169.725  0.00  0.00    +0.060 C 
ATOM      3  C2  UNL     1     153.697 160.311 168.346  0.00  0.00    +0.034 C 
ATOM      4  N1  UNL     1     152.543 161.198 168.165  0.00  0.00    -0.326 N 
ATOM      5  C3  UNL     1     151.807 161.000 166.959  0.00  0.00    +0.130 A 
ATOM      6  N2  UNL     1     152.288 160.040 166.124  0.00  0.00    -0.210 NA
ATOM      7  C4  UNL     1     151.746 159.705 164.937  0.00  0.00    +0.166 A 
ATOM      8  N3  UNL     1     152.394 158.669 164.233  0.00  0.00    -0.287 N 
ATOM      9  C5  UNL     1     151.723 157.762 163.438  0.00  0.00    +0.085 C 
ATOM     10  C6  UNL     1     151.373 156.561 164.128  0.00  0.00    -0.034 C 
ATOM     11  C7  UNL     1     151.076 155.555 164.710  0.00  0.00    +0.011 C 
ATOM     12 CL1  UNL     1     150.641 154.077 165.562  0.00  0.00    -0.022 Cl
ATOM     13  C8  UNL     1     151.441 157.872 162.128  0.00  0.00    -0.031 C 
ATOM     14  C9  UNL     1     151.816 158.997 161.292  0.00  0.00    -0.048 C 
ATOM     15  C10 UNL     1     151.495 159.080 159.998  0.00  0.00    +0.005 C 
ATOM     16 CL2  UNL     1     151.947 160.412 159.019  0.00  0.00    -0.092 Cl
ATOM     17  S1  UNL     1     150.327 160.516 164.285  0.00  0.00    -0.047 S 
ATOM     18  C11 UNL     1     149.955 161.713 165.543  0.00  0.00    +0.051 A 
ATOM     19  C12 UNL     1     150.655 161.815 166.750  0.00  0.00    +0.034 A 
ATOM     20  C13 UNL     1     150.189 162.694 167.763  0.00  0.00    -0.049 C 
ATOM     21  C14 UNL     1     149.024 163.469 167.711  0.00  0.00    -0.055 C 
ATOM     22  C15 UNL     1     148.206 163.542 166.601  0.00  0.00    -0.036 C 
ATOM     23  S2  UNL     1     148.629 162.835 165.026  0.00  0.00    -0.161 S 
ATOM     24  H   UNL     1     155.876 159.895 170.755  0.00  0.00    +0.000 HD
ATOM     25  H   UNL     1     152.294 161.880 168.830  0.00  0.00    +0.000 HD
ATOM     26  H   UNL     1     153.372 158.590 164.312  0.00  0.00    +0.000 HD
ATOM     27  H   UNL     1     147.582 162.164 164.475  0.00  0.00    +0.000 HD
ENDROOT
TORSDOF 0
ENDMDL
MODEL 9
REMARK VINA RESULT:    -6.645      3.446      4.591
REMARK INTER + INTRA:          -6.645
REMARK INTER:                  -6.645
REMARK INTRA:                   0.000
REMARK UNBOUND:                 0.000
REMARK  Name = /home/vital/Documents/PhD_2021/Malaria_codes/scripts/../data/pdbqt_ligands/ligand_175_temp.pdb
REMARK                            x       y       z     vdW  Elec       q    Type
REMARK                         _______ _______ _______ _____ _____    ______ ____
ROOT
ATOM      1  O1  UNL     1     151.612 153.017 168.256  0.00  0.00    -0.393 OA
ATOM      2  C1  UNL     1     151.755 153.470 166.914  0.00  0.00    +0.060 C 
ATOM      3  C2  UNL     1     151.514 154.980 166.833  0.00  0.00    +0.034 C 
ATOM      4  N1  UNL     1     151.584 155.424 165.437  0.00  0.00    -0.326 N 
ATOM      5  C3  UNL     1     151.484 156.835 165.242  0.00  0.00    +0.130 A 
ATOM      6  N2  UNL     1     151.306 157.575 166.368  0.00  0.00    -0.210 NA
ATOM      7  C4  UNL     1     151.182 158.917 166.400  0.00  0.00    +0.166 A 
ATOM      8  N3  UNL     1     151.020 159.492 167.678  0.00  0.00    -0.287 N 
ATOM      9  C5  UNL     1     151.522 160.731 168.017  0.00  0.00    +0.085 C 
ATOM     10  C6  UNL     1     152.813 160.668 168.625  0.00  0.00    -0.034 C 
ATOM     11  C7  UNL     1     153.900 160.614 169.131  0.00  0.00    +0.011 C 
ATOM     12 CL1  UNL     1     155.493 160.536 169.875  0.00  0.00    -0.022 Cl
ATOM     13  C8  UNL     1     150.912 161.924 167.893  0.00  0.00    -0.031 C 
ATOM     14  C9  UNL     1     149.572 162.118 167.375  0.00  0.00    -0.048 C 
ATOM     15  C10 UNL     1     149.011 163.323 167.245  0.00  0.00    +0.005 C 
ATOM     16 CL2  UNL     1     147.424 163.541 166.636  0.00  0.00    -0.092 Cl
ATOM     17  S1  UNL     1     151.197 159.901 164.942  0.00  0.00    -0.047 S 
ATOM     18  C11 UNL     1     151.401 158.688 163.660  0.00  0.00    +0.051 A 
ATOM     19  C12 UNL     1     151.579 157.322 163.905  0.00  0.00    +0.034 A 
ATOM     20  C13 UNL     1     151.893 156.449 162.830  0.00  0.00    -0.049 C 
ATOM     21  C14 UNL     1     152.105 156.824 161.497  0.00  0.00    -0.055 C 
ATOM     22  C15 UNL     1     151.947 158.115 161.035  0.00  0.00    -0.036 C 
ATOM     23  S2  UNL     1     151.252 159.427 162.012  0.00  0.00    -0.161 S 
ATOM     24  H   UNL     1     151.767 152.060 168.292  0.00  0.00    +0.000 HD
ATOM     25  H   UNL     1     151.693 154.795 164.688  0.00  0.00    +0.000 HD
ATOM     26  H   UNL     1     150.524 158.984 168.361  0.00  0.00    +0.000 HD
ATOM     27  H   UNL     1     151.973 160.575 161.904  0.00  0.00    +0.000 HD
ENDROOT
TORSDOF 0
ENDMDL
