MODEL 1
REMARK VINA RESULT:    -7.329      0.000      0.000
REMARK INTER + INTRA:          -7.329
REMARK INTER:                  -7.329
REMARK INTRA:                   0.000
REMARK UNBOUND:                 0.000
REMARK  Name = /home/vital/Documents/PhD_2021/Malaria_codes/scripts/../data/pdbqt_ligands/ligand_258_temp.pdb
REMARK                            x       y       z     vdW  Elec       q    Type
REMARK                         _______ _______ _______ _____ _____    ______ ____
ROOT
ATOM      1  C1  UNL     1     151.653 161.520 162.096  0.00  0.00    -0.060 C 
ATOM      2  C2  UNL     1     151.610 160.359 161.092  0.00  0.00    -0.013 C 
ATOM      3  C3  UNL     1     152.334 160.719 159.788  0.00  0.00    +0.027 C 
ATOM      4 CL1  UNL     1     151.666 162.153 158.966  0.00  0.00    -0.125 Cl
ATOM      5  C4  UNL     1     150.155 159.897 160.889  0.00  0.00    +0.035 C 
ATOM      6  N1  UNL     1     150.026 158.531 160.375  0.00  0.00    -0.231 N 
ATOM      7  C5  UNL     1     149.808 158.273 159.032  0.00  0.00    +0.099 C 
ATOM      8  N2  UNL     1     150.098 159.056 158.042  0.00  0.00    -0.247 NA
ATOM      9  C6  UNL     1     150.059 158.512 156.781  0.00  0.00    +0.029 C 
ATOM     10  C7  UNL     1     150.786 157.466 156.337  0.00  0.00    -0.044 C 
ATOM     11  C8  UNL     1     151.608 156.637 157.198  0.00  0.00    -0.060 C 
ATOM     12  C9  UNL     1     151.071 155.560 157.788  0.00  0.00    -0.060 C 
ATOM     13  C10 UNL     1     151.555 154.837 158.941  0.00  0.00    -0.044 C 
ATOM     14  C11 UNL     1     151.720 155.345 160.185  0.00  0.00    +0.022 C 
ATOM     15  C12 UNL     1     151.767 156.847 160.522  0.00  0.00    +0.082 C 
ATOM     16  N3  UNL     1     150.569 157.463 161.155  0.00  0.00    -0.098 NA
ATOM     17  O1  UNL     1     149.592 156.433 161.471  0.00  0.00    -0.277 OA
ATOM     18  C13 UNL     1     150.051 155.716 162.627  0.00  0.00    +0.087 C 
ATOM     19  C14 UNL     1     150.648 154.372 162.195  0.00  0.00    +0.034 C 
ATOM     20  N4  UNL     1     151.826 154.489 161.301  0.00  0.00    -0.344 N 
ATOM     21  H   UNL     1     152.653 153.986 161.480  0.00  0.00    +0.000 HD
ENDROOT
TORSDOF 0
ENDMDL
MODEL 2
REMARK VINA RESULT:    -7.086      2.522      5.377
REMARK INTER + INTRA:          -7.086
REMARK INTER:                  -7.086
REMARK INTRA:                   0.000
REMARK UNBOUND:                 0.000
REMARK  Name = /home/vital/Documents/PhD_2021/Malaria_codes/scripts/../data/pdbqt_ligands/ligand_258_temp.pdb
REMARK                            x       y       z     vdW  Elec       q    Type
REMARK                         _______ _______ _______ _____ _____    ______ ____
ROOT
ATOM      1  C1  UNL     1     151.493 154.534 161.890  0.00  0.00    -0.060 C 
ATOM      2  C2  UNL     1     151.578 156.034 161.573  0.00  0.00    -0.013 C 
ATOM      3  C3  UNL     1     152.350 156.794 162.660  0.00  0.00    +0.027 C 
ATOM      4 CL1  UNL     1     151.642 156.637 164.289  0.00  0.00    -0.125 Cl
ATOM      5  C4  UNL     1     150.167 156.593 161.307  0.00  0.00    +0.035 C 
ATOM      6  N1  UNL     1     150.152 157.835 160.529  0.00  0.00    -0.231 N 
ATOM      7  C5  UNL     1     150.026 159.074 161.134  0.00  0.00    +0.099 C 
ATOM      8  N2  UNL     1     150.323 159.365 162.360  0.00  0.00    -0.247 NA
ATOM      9  C6  UNL     1     150.388 160.697 162.690  0.00  0.00    +0.029 C 
ATOM     10  C7  UNL     1     151.202 161.620 162.137  0.00  0.00    -0.044 C 
ATOM     11  C8  UNL     1     152.024 161.369 160.969  0.00  0.00    -0.060 C 
ATOM     12  C9  UNL     1     151.521 161.593 159.746  0.00  0.00    -0.060 C 
ATOM     13  C10 UNL     1     151.983 161.073 158.480  0.00  0.00    -0.044 C 
ATOM     14  C11 UNL     1     152.046 159.767 158.134  0.00  0.00    +0.022 C 
ATOM     15  C12 UNL     1     151.982 158.591 159.126  0.00  0.00    +0.082 C 
ATOM     16  N3  UNL     1     150.714 157.814 159.215  0.00  0.00    -0.098 NA
ATOM     17  O1  UNL     1     149.787 158.264 158.190  0.00  0.00    -0.277 OA
ATOM     18  C13 UNL     1     150.223 157.741 156.926  0.00  0.00    +0.087 C 
ATOM     19  C14 UNL     1     150.924 158.844 156.126  0.00  0.00    +0.034 C 
ATOM     20  N4  UNL     1     152.141 159.388 156.779  0.00  0.00    -0.344 N 
ATOM     21  H   UNL     1     152.987 159.480 156.282  0.00  0.00    +0.000 HD
ENDROOT
TORSDOF 0
ENDMDL
MODEL 3
REMARK VINA RESULT:    -6.507      7.392      9.764
REMARK INTER + INTRA:          -6.507
REMARK INTER:                  -6.507
REMARK INTRA:                   0.000
REMARK UNBOUND:                 0.000
REMARK  Name = /home/vital/Documents/PhD_2021/Malaria_codes/scripts/../data/pdbqt_ligands/ligand_258_temp.pdb
REMARK                            x       y       z     vdW  Elec       q    Type
REMARK                         _______ _______ _______ _____ _____    ______ ____
ROOT
ATOM      1  C1  UNL     1     150.238 156.351 166.220  0.00  0.00    -0.060 C 
ATOM      2  C2  UNL     1     150.918 157.688 166.548  0.00  0.00    -0.013 C 
ATOM      3  C3  UNL     1     152.443 157.536 166.629  0.00  0.00    +0.027 C 
ATOM      4 CL1  UNL     1     152.984 156.354 167.850  0.00  0.00    -0.125 Cl
ATOM      5  C4  UNL     1     150.285 158.301 167.812  0.00  0.00    +0.035 C 
ATOM      6  N1  UNL     1     150.480 159.748 167.938  0.00  0.00    -0.231 N 
ATOM      7  C5  UNL     1     151.475 160.285 168.737  0.00  0.00    +0.099 C 
ATOM      8  N2  UNL     1     152.565 159.693 169.108  0.00  0.00    -0.247 NA
ATOM      9  C6  UNL     1     153.545 160.479 169.665  0.00  0.00    +0.029 C 
ATOM     10  C7  UNL     1     154.160 161.528 169.080  0.00  0.00    -0.044 C 
ATOM     11  C8  UNL     1     153.743 162.098 167.812  0.00  0.00    -0.060 C 
ATOM     12  C9  UNL     1     152.827 163.076 167.797  0.00  0.00    -0.060 C 
ATOM     13  C10 UNL     1     152.002 163.513 166.695  0.00  0.00    -0.044 C 
ATOM     14  C11 UNL     1     151.096 162.756 166.033  0.00  0.00    +0.022 C 
ATOM     15  C12 UNL     1     151.029 161.218 166.087  0.00  0.00    +0.082 C 
ATOM     16  N3  UNL     1     149.957 160.590 166.908  0.00  0.00    -0.098 NA
ATOM     17  O1  UNL     1     149.056 161.614 167.410  0.00  0.00    -0.277 OA
ATOM     18  C13 UNL     1     148.216 162.047 166.329  0.00  0.00    +0.087 C 
ATOM     19  C14 UNL     1     148.714 163.395 165.798  0.00  0.00    +0.034 C 
ATOM     20  N4  UNL     1     150.092 163.361 165.249  0.00  0.00    -0.344 N 
ATOM     21  H   UNL     1     150.299 163.747 164.367  0.00  0.00    +0.000 HD
ENDROOT
TORSDOF 0
ENDMDL
MODEL 4
REMARK VINA RESULT:    -6.279      5.574      7.837
REMARK INTER + INTRA:          -6.279
REMARK INTER:                  -6.279
REMARK INTRA:                   0.000
REMARK UNBOUND:                 0.000
REMARK  Name = /home/vital/Documents/PhD_2021/Malaria_codes/scripts/../data/pdbqt_ligands/ligand_258_temp.pdb
REMARK                            x       y       z     vdW  Elec       q    Type
REMARK                         _______ _______ _______ _____ _____    ______ ____
ROOT
ATOM      1  C1  UNL     1     154.499 160.519 169.708  0.00  0.00    -0.060 C 
ATOM      2  C2  UNL     1     153.632 160.882 168.494  0.00  0.00    -0.013 C 
ATOM      3  C3  UNL     1     153.745 162.373 168.151  0.00  0.00    +0.027 C 
ATOM      4 CL1  UNL     1     153.268 163.457 169.484  0.00  0.00    -0.125 Cl
ATOM      5  C4  UNL     1     152.186 160.404 168.723  0.00  0.00    +0.035 C 
ATOM      6  N1  UNL     1     151.408 160.237 167.492  0.00  0.00    -0.231 N 
ATOM      7  C5  UNL     1     150.526 161.208 167.048  0.00  0.00    +0.099 C 
ATOM      8  N2  UNL     1     150.559 162.468 167.342  0.00  0.00    -0.247 NA
ATOM      9  C6  UNL     1     149.772 163.307 166.590  0.00  0.00    +0.029 C 
ATOM     10  C7  UNL     1     149.838 163.484 165.254  0.00  0.00    -0.044 C 
ATOM     11  C8  UNL     1     150.653 162.666 164.375  0.00  0.00    -0.060 C 
ATOM     12  C9  UNL     1     150.137 161.547 163.848  0.00  0.00    -0.060 C 
ATOM     13  C10 UNL     1     150.840 160.416 163.287  0.00  0.00    -0.044 C 
ATOM     14  C11 UNL     1     151.711 159.617 163.945  0.00  0.00    +0.022 C 
ATOM     15  C12 UNL     1     152.383 159.966 165.286  0.00  0.00    +0.082 C 
ATOM     16  N3  UNL     1     151.878 159.301 166.520  0.00  0.00    -0.098 NA
ATOM     17  O1  UNL     1     150.888 158.296 166.168  0.00  0.00    -0.277 OA
ATOM     18  C13 UNL     1     151.573 157.158 165.625  0.00  0.00    +0.087 C 
ATOM     19  C14 UNL     1     151.441 157.159 164.098  0.00  0.00    +0.034 C 
ATOM     20  N4  UNL     1     152.042 158.344 163.437  0.00  0.00    -0.344 N 
ATOM     21  H   UNL     1     152.650 158.245 162.669  0.00  0.00    +0.000 HD
ENDROOT
TORSDOF 0
ENDMDL
MODEL 5
REMARK VINA RESULT:    -6.216     11.823     15.068
REMARK INTER + INTRA:          -6.216
REMARK INTER:                  -6.216
REMARK INTRA:                   0.000
REMARK UNBOUND:                 0.000
REMARK  Name = /home/vital/Documents/PhD_2021/Malaria_codes/scripts/../data/pdbqt_ligands/ligand_258_temp.pdb
REMARK                            x       y       z     vdW  Elec       q    Type
REMARK                         _______ _______ _______ _____ _____    ______ ____
ROOT
ATOM      1  C1  UNL     1     145.498 142.493 164.454  0.00  0.00    -0.060 C 
ATOM      2  C2  UNL     1     144.907 143.809 164.981  0.00  0.00    -0.013 C 
ATOM      3  C3  UNL     1     144.090 143.583 166.260  0.00  0.00    +0.027 C 
ATOM      4 CL1  UNL     1     142.738 142.439 166.059  0.00  0.00    -0.125 Cl
ATOM      5  C4  UNL     1     144.123 144.516 163.859  0.00  0.00    +0.035 C 
ATOM      6  N1  UNL     1     143.947 145.956 164.068  0.00  0.00    -0.231 N 
ATOM      7  C5  UNL     1     142.775 146.481 164.586  0.00  0.00    +0.099 C 
ATOM      8  N2  UNL     1     141.908 145.854 165.315  0.00  0.00    -0.247 NA
ATOM      9  C6  UNL     1     140.960 146.616 165.955  0.00  0.00    +0.029 C 
ATOM     10  C7  UNL     1     141.192 147.601 166.846  0.00  0.00    -0.044 C 
ATOM     11  C8  UNL     1     142.513 148.127 167.136  0.00  0.00    -0.060 C 
ATOM     12  C9  UNL     1     142.991 149.149 166.413  0.00  0.00    -0.060 C 
ATOM     13  C10 UNL     1     144.364 149.570 166.259  0.00  0.00    -0.044 C 
ATOM     14  C11 UNL     1     145.368 148.828 165.737  0.00  0.00    +0.022 C 
ATOM     15  C12 UNL     1     145.324 147.301 165.546  0.00  0.00    +0.082 C 
ATOM     16  N3  UNL     1     145.117 146.770 164.169  0.00  0.00    -0.098 NA
ATOM     17  O1  UNL     1     145.137 147.863 163.211  0.00  0.00    -0.277 OA
ATOM     18  C13 UNL     1     146.498 148.282 163.033  0.00  0.00    +0.087 C 
ATOM     19  C14 UNL     1     146.746 149.576 163.818  0.00  0.00    +0.034 C 
ATOM     20  N4  UNL     1     146.554 149.443 165.283  0.00  0.00    -0.344 N 
ATOM     21  H   UNL     1     147.231 149.773 165.918  0.00  0.00    +0.000 HD
ENDROOT
TORSDOF 0
ENDMDL
MODEL 6
REMARK VINA RESULT:    -6.029      5.976      8.663
REMARK INTER + INTRA:          -6.029
REMARK INTER:                  -6.029
REMARK INTRA:                   0.000
REMARK UNBOUND:                 0.000
REMARK  Name = /home/vital/Documents/PhD_2021/Malaria_codes/scripts/../data/pdbqt_ligands/ligand_258_temp.pdb
REMARK                            x       y       z     vdW  Elec       q    Type
REMARK                         _______ _______ _______ _____ _____    ______ ____
ROOT
ATOM      1  C1  UNL     1     151.481 155.019 167.631  0.00  0.00    -0.060 C 
ATOM      2  C2  UNL     1     151.226 156.443 167.116  0.00  0.00    -0.013 C 
ATOM      3  C3  UNL     1     150.294 156.439 165.897  0.00  0.00    +0.027 C 
ATOM      4 CL1  UNL     1     150.909 155.483 164.524  0.00  0.00    -0.125 Cl
ATOM      5  C4  UNL     1     152.567 157.159 166.872  0.00  0.00    +0.035 C 
ATOM      6  N1  UNL     1     152.474 158.621 166.868  0.00  0.00    -0.231 N 
ATOM      7  C5  UNL     1     152.401 159.346 165.690  0.00  0.00    +0.099 C 
ATOM      8  N2  UNL     1     151.991 158.908 164.543  0.00  0.00    -0.247 NA
ATOM      9  C6  UNL     1     151.736 159.845 163.571  0.00  0.00    +0.029 C 
ATOM     10  C7  UNL     1     150.848 160.858 163.648  0.00  0.00    -0.044 C 
ATOM     11  C8  UNL     1     150.142 161.215 164.864  0.00  0.00    -0.060 C 
ATOM     12  C9  UNL     1     150.690 162.097 165.711  0.00  0.00    -0.060 C 
ATOM     13  C10 UNL     1     150.381 162.309 167.106  0.00  0.00    -0.044 C 
ATOM     14  C11 UNL     1     150.508 161.393 168.095  0.00  0.00    +0.022 C 
ATOM     15  C12 UNL     1     150.657 159.876 167.874  0.00  0.00    +0.082 C 
ATOM     16  N3  UNL     1     152.005 159.269 168.052  0.00  0.00    -0.098 NA
ATOM     17  O1  UNL     1     152.932 160.267 168.563  0.00  0.00    -0.277 OA
ATOM     18  C13 UNL     1     152.649 160.475 169.955  0.00  0.00    +0.087 C 
ATOM     19  C14 UNL     1     151.865 161.781 170.131  0.00  0.00    +0.034 C 
ATOM     20  N4  UNL     1     150.549 161.797 169.445  0.00  0.00    -0.344 N 
ATOM     21  H   UNL     1     149.733 162.080 169.918  0.00  0.00    +0.000 HD
ENDROOT
TORSDOF 0
ENDMDL
MODEL 7
REMARK VINA RESULT:    -5.909     12.986     15.964
REMARK INTER + INTRA:          -5.909
REMARK INTER:                  -5.909
REMARK INTRA:                   0.000
REMARK UNBOUND:                 0.000
REMARK  Name = /home/vital/Documents/PhD_2021/Malaria_codes/scripts/../data/pdbqt_ligands/ligand_258_temp.pdb
REMARK                            x       y       z     vdW  Elec       q    Type
REMARK                         _______ _______ _______ _____ _____    ______ ____
ROOT
ATOM      1  C1  UNL     1     147.384 147.630 163.938  0.00  0.00    -0.060 C 
ATOM      2  C2  UNL     1     146.081 146.959 164.397  0.00  0.00    -0.013 C 
ATOM      3  C3  UNL     1     144.955 147.986 164.577  0.00  0.00    +0.027 C 
ATOM      4 CL1  UNL     1     145.332 149.269 165.755  0.00  0.00    -0.125 Cl
ATOM      5  C4  UNL     1     146.347 146.102 165.649  0.00  0.00    +0.035 C 
ATOM      6  N1  UNL     1     145.351 145.053 165.880  0.00  0.00    -0.231 N 
ATOM      7  C5  UNL     1     144.311 145.217 166.780  0.00  0.00    +0.099 C 
ATOM      8  N2  UNL     1     143.820 146.343 167.189  0.00  0.00    -0.247 NA
ATOM      9  C6  UNL     1     142.624 146.296 167.863  0.00  0.00    +0.029 C 
ATOM     10  C7  UNL     1     141.457 145.809 167.391  0.00  0.00    -0.044 C 
ATOM     11  C8  UNL     1     141.336 145.092 166.136  0.00  0.00    -0.060 C 
ATOM     12  C9  UNL     1     141.493 143.761 166.118  0.00  0.00    -0.060 C 
ATOM     13  C10 UNL     1     141.793 142.911 164.989  0.00  0.00    -0.044 C 
ATOM     14  C11 UNL     1     142.903 142.977 164.218  0.00  0.00    +0.022 C 
ATOM     15  C12 UNL     1     143.868 144.177 164.169  0.00  0.00    +0.082 C 
ATOM     16  N3  UNL     1     145.177 144.055 164.871  0.00  0.00    -0.098 NA
ATOM     17  O1  UNL     1     145.344 142.701 165.372  0.00  0.00    -0.277 OA
ATOM     18  C13 UNL     1     145.661 141.845 164.264  0.00  0.00    +0.087 C 
ATOM     19  C14 UNL     1     144.416 141.049 163.856  0.00  0.00    +0.034 C 
ATOM     20  N4  UNL     1     143.279 141.888 163.405  0.00  0.00    -0.344 N 
ATOM     21  H   UNL     1     142.802 141.691 162.566  0.00  0.00    +0.000 HD
ENDROOT
TORSDOF 0
ENDMDL
MODEL 8
REMARK VINA RESULT:    -5.836      4.117      6.421
REMARK INTER + INTRA:          -5.836
REMARK INTER:                  -5.836
REMARK INTRA:                   0.000
REMARK UNBOUND:                 0.000
REMARK  Name = /home/vital/Documents/PhD_2021/Malaria_codes/scripts/../data/pdbqt_ligands/ligand_258_temp.pdb
REMARK                            x       y       z     vdW  Elec       q    Type
REMARK                         _______ _______ _______ _____ _____    ______ ____
ROOT
ATOM      1  C1  UNL     1     148.973 163.542 165.563  0.00  0.00    -0.060 C 
ATOM      2  C2  UNL     1     149.567 162.171 165.205  0.00  0.00    -0.013 C 
ATOM      3  C3  UNL     1     149.075 161.080 166.165  0.00  0.00    +0.027 C 
ATOM      4 CL1  UNL     1     149.467 161.395 167.876  0.00  0.00    -0.125 Cl
ATOM      5  C4  UNL     1     151.101 162.274 165.113  0.00  0.00    +0.035 C 
ATOM      6  N1  UNL     1     151.726 161.214 164.318  0.00  0.00    -0.231 N 
ATOM      7  C5  UNL     1     152.298 160.099 164.907  0.00  0.00    +0.099 C 
ATOM      8  N2  UNL     1     152.020 159.620 166.077  0.00  0.00    -0.247 NA
ATOM      9  C6  UNL     1     152.490 158.362 166.366  0.00  0.00    +0.029 C 
ATOM     10  C7  UNL     1     152.209 157.227 165.692  0.00  0.00    -0.044 C 
ATOM     11  C8  UNL     1     151.491 157.199 164.432  0.00  0.00    -0.060 C 
ATOM     12  C9  UNL     1     152.172 157.298 163.281  0.00  0.00    -0.060 C 
ATOM     13  C10 UNL     1     151.675 157.670 161.977  0.00  0.00    -0.044 C 
ATOM     14  C11 UNL     1     151.103 158.853 161.654  0.00  0.00    +0.022 C 
ATOM     15  C12 UNL     1     150.553 159.871 162.671  0.00  0.00    +0.082 C 
ATOM     16  N3  UNL     1     151.355 161.096 162.942  0.00  0.00    -0.098 NA
ATOM     17  O1  UNL     1     152.491 161.153 162.037  0.00  0.00    -0.277 OA
ATOM     18  C13 UNL     1     152.016 161.539 160.739  0.00  0.00    +0.087 C 
ATOM     19  C14 UNL     1     151.940 160.307 159.831  0.00  0.00    +0.034 C 
ATOM     20  N4  UNL     1     151.004 159.258 160.307  0.00  0.00    -0.344 N 
ATOM     21  H   UNL     1     150.337 158.858 159.702  0.00  0.00    +0.000 HD
ENDROOT
TORSDOF 0
ENDMDL
MODEL 9
REMARK VINA RESULT:    -5.827     11.970     14.641
REMARK INTER + INTRA:          -5.827
REMARK INTER:                  -5.827
REMARK INTRA:                   0.000
REMARK UNBOUND:                 0.000
REMARK  Name = /home/vital/Documents/PhD_2021/Malaria_codes/scripts/../data/pdbqt_ligands/ligand_258_temp.pdb
REMARK                            x       y       z     vdW  Elec       q    Type
REMARK                         _______ _______ _______ _____ _____    ______ ____
ROOT
ATOM      1  C1  UNL     1     147.798 147.537 163.871  0.00  0.00    -0.060 C 
ATOM      2  C2  UNL     1     146.322 147.583 164.294  0.00  0.00    -0.013 C 
ATOM      3  C3  UNL     1     145.590 148.765 163.644  0.00  0.00    +0.027 C 
ATOM      4 CL1  UNL     1     146.301 150.353 164.032  0.00  0.00    -0.125 Cl
ATOM      5  C4  UNL     1     146.217 147.555 165.830  0.00  0.00    +0.035 C 
ATOM      6  N1  UNL     1     144.917 147.100 166.333  0.00  0.00    -0.231 N 
ATOM      7  C5  UNL     1     143.940 147.991 166.744  0.00  0.00    +0.099 C 
ATOM      8  N2  UNL     1     143.826 149.228 166.380  0.00  0.00    -0.247 NA
ATOM      9  C6  UNL     1     142.644 149.862 166.678  0.00  0.00    +0.029 C 
ATOM     10  C7  UNL     1     141.412 149.492 166.271  0.00  0.00    -0.044 C 
ATOM     11  C8  UNL     1     141.134 148.244 165.586  0.00  0.00    -0.060 C 
ATOM     12  C9  UNL     1     140.843 147.148 166.300  0.00  0.00    -0.060 C 
ATOM     13  C10 UNL     1     140.911 145.766 165.886  0.00  0.00    -0.044 C 
ATOM     14  C11 UNL     1     142.023 145.113 165.477  0.00  0.00    +0.022 C 
ATOM     15  C12 UNL     1     143.332 145.797 165.038  0.00  0.00    +0.082 C 
ATOM     16  N3  UNL     1     144.483 145.784 165.983  0.00  0.00    -0.098 NA
ATOM     17  O1  UNL     1     144.164 144.962 167.139  0.00  0.00    -0.277 OA
ATOM     18  C13 UNL     1     144.244 143.583 166.748  0.00  0.00    +0.087 C 
ATOM     19  C14 UNL     1     142.832 143.025 166.537  0.00  0.00    +0.034 C 
ATOM     20  N4  UNL     1     142.064 143.704 165.464  0.00  0.00    -0.344 N 
ATOM     21  H   UNL     1     141.599 143.188 164.766  0.00  0.00    +0.000 HD
ENDROOT
TORSDOF 0
ENDMDL
