MODEL 1
REMARK VINA RESULT:    -8.827      0.000      0.000
REMARK INTER + INTRA:          -8.827
REMARK INTER:                  -8.827
REMARK INTRA:                   0.000
REMARK UNBOUND:                 0.000
REMARK  Name = /home/vital/Documents/PhD_2021/Malaria_codes/scripts/../data/pdbqt_ligands/ligand_463_temp.pdb
REMARK                            x       y       z     vdW  Elec       q    Type
REMARK                         _______ _______ _______ _____ _____    ______ ____
ROOT
ATOM      1  C1  UNL     1     151.528 161.517 160.742  0.00  0.00    -0.031 C 
ATOM      2  C2  UNL     1     150.485 160.837 161.612  0.00  0.00    +0.087 C 
ATOM      3  O1  UNL     1     150.145 161.662 162.724  0.00  0.00    -0.492 OA
ATOM      4  C3  UNL     1     150.825 161.514 163.903  0.00  0.00    +0.123 A 
ATOM      5  C4  UNL     1     151.981 160.747 164.075  0.00  0.00    -0.019 A 
ATOM      6  C5  UNL     1     152.602 160.666 165.327  0.00  0.00    -0.049 A 
ATOM      7  C6  UNL     1     152.072 161.345 166.429  0.00  0.00    +0.008 A 
ATOM      8  C7  UNL     1     152.733 161.293 167.725  0.00  0.00    +0.156 A 
ATOM      9  N1  UNL     1     153.091 162.438 168.327  0.00  0.00    -0.047 NA
ATOM     10  O2  UNL     1     153.805 162.066 169.449  0.00  0.00    -0.240 OA
ATOM     11  N2  UNL     1     153.899 160.691 169.550  0.00  0.00    -0.033 NA
ATOM     12  C8  UNL     1     153.191 160.207 168.524  0.00  0.00    +0.197 A 
ATOM     13  N3  UNL     1     153.076 158.832 168.425  0.00  0.00    -0.262 N 
ATOM     14  C9  UNL     1     152.116 158.152 167.719  0.00  0.00    +0.249 C 
ATOM     15  O3  UNL     1     151.173 158.655 167.122  0.00  0.00    -0.270 OA
ATOM     16  C10 UNL     1     152.227 156.663 167.766  0.00  0.00    +0.037 A 
ATOM     17  C11 UNL     1     151.066 155.901 167.603  0.00  0.00    -0.046 A 
ATOM     18  C12 UNL     1     151.131 154.505 167.641  0.00  0.00    -0.019 A 
ATOM     19  C13 UNL     1     152.351 153.853 167.838  0.00  0.00    +0.120 A 
ATOM     20  O4  UNL     1     152.274 152.489 167.857  0.00  0.00    -0.495 OA
ATOM     21  C14 UNL     1     153.463 151.781 168.180  0.00  0.00    +0.079 C 
ATOM     22  C15 UNL     1     153.514 154.612 167.979  0.00  0.00    -0.019 A 
ATOM     23  C16 UNL     1     153.456 156.012 167.939  0.00  0.00    -0.046 A 
ATOM     24  C17 UNL     1     150.927 162.132 166.252  0.00  0.00    -0.046 A 
ATOM     25  C18 UNL     1     150.298 162.221 164.999  0.00  0.00    -0.008 A 
ATOM     26  C19 UNL     1     149.059 163.061 164.848  0.00  0.00    -0.036 C 
ATOM     27  H   UNL     1     153.745 158.292 168.906  0.00  0.00    +0.000 HD
ENDROOT
TORSDOF 0
ENDMDL
MODEL 2
REMARK VINA RESULT:    -8.730      3.128      7.976
REMARK INTER + INTRA:          -8.730
REMARK INTER:                  -8.730
REMARK INTRA:                   0.000
REMARK UNBOUND:                 0.000
REMARK  Name = /home/vital/Documents/PhD_2021/Malaria_codes/scripts/../data/pdbqt_ligands/ligand_463_temp.pdb
REMARK                            x       y       z     vdW  Elec       q    Type
REMARK                         _______ _______ _______ _____ _____    ______ ____
ROOT
ATOM      1  C1  UNL     1     147.502 151.697 166.900  0.00  0.00    -0.031 C 
ATOM      2  C2  UNL     1     148.725 151.643 165.999  0.00  0.00    +0.087 C 
ATOM      3  O1  UNL     1     149.884 152.088 166.701  0.00  0.00    -0.492 OA
ATOM      4  C3  UNL     1     150.239 153.409 166.642  0.00  0.00    +0.123 A 
ATOM      5  C4  UNL     1     149.452 154.431 166.104  0.00  0.00    -0.019 A 
ATOM      6  C5  UNL     1     149.910 155.754 166.096  0.00  0.00    -0.049 A 
ATOM      7  C6  UNL     1     151.167 156.073 166.618  0.00  0.00    +0.008 A 
ATOM      8  C7  UNL     1     151.635 157.452 166.644  0.00  0.00    +0.156 A 
ATOM      9  N1  UNL     1     152.006 157.998 167.812  0.00  0.00    -0.047 NA
ATOM     10  O2  UNL     1     152.262 159.328 167.542  0.00  0.00    -0.240 OA
ATOM     11  N2  UNL     1     152.048 159.618 166.207  0.00  0.00    -0.033 NA
ATOM     12  C8  UNL     1     151.719 158.455 165.636  0.00  0.00    +0.197 A 
ATOM     13  N3  UNL     1     151.505 158.457 164.270  0.00  0.00    -0.262 N 
ATOM     14  C9  UNL     1     151.545 157.360 163.445  0.00  0.00    +0.249 C 
ATOM     15  O3  UNL     1     151.841 156.221 163.781  0.00  0.00    -0.270 OA
ATOM     16  C10 UNL     1     151.263 157.637 162.005  0.00  0.00    +0.037 A 
ATOM     17  C11 UNL     1     151.815 156.787 161.041  0.00  0.00    -0.046 A 
ATOM     18  C12 UNL     1     151.573 157.015 159.684  0.00  0.00    -0.019 A 
ATOM     19  C13 UNL     1     150.778 158.087 159.271  0.00  0.00    +0.120 A 
ATOM     20  O4  UNL     1     150.624 158.197 157.917  0.00  0.00    -0.495 OA
ATOM     21  C14 UNL     1     149.931 159.342 157.438  0.00  0.00    +0.079 C 
ATOM     22  C15 UNL     1     150.208 158.923 160.232  0.00  0.00    -0.019 A 
ATOM     23  C16 UNL     1     150.446 158.699 161.596  0.00  0.00    -0.046 A 
ATOM     24  C17 UNL     1     151.948 155.053 167.177  0.00  0.00    -0.046 A 
ATOM     25  C18 UNL     1     151.495 153.723 167.191  0.00  0.00    -0.008 A 
ATOM     26  C19 UNL     1     152.366 152.649 167.783  0.00  0.00    -0.036 C 
ATOM     27  H   UNL     1     151.307 159.325 163.850  0.00  0.00    +0.000 HD
ENDROOT
TORSDOF 0
ENDMDL
MODEL 3
REMARK VINA RESULT:    -8.680      6.003      7.461
REMARK INTER + INTRA:          -8.680
REMARK INTER:                  -8.680
REMARK INTRA:                   0.000
REMARK UNBOUND:                 0.000
REMARK  Name = /home/vital/Documents/PhD_2021/Malaria_codes/scripts/../data/pdbqt_ligands/ligand_463_temp.pdb
REMARK                            x       y       z     vdW  Elec       q    Type
REMARK                         _______ _______ _______ _____ _____    ______ ____
ROOT
ATOM      1  C1  UNL     1     151.796 155.165 155.149  0.00  0.00    -0.031 C 
ATOM      2  C2  UNL     1     150.432 155.464 155.749  0.00  0.00    +0.087 C 
ATOM      3  O1  UNL     1     150.464 156.689 156.480  0.00  0.00    -0.492 OA
ATOM      4  C3  UNL     1     150.743 156.663 157.819  0.00  0.00    +0.123 A 
ATOM      5  C4  UNL     1     151.201 155.548 158.527  0.00  0.00    -0.019 A 
ATOM      6  C5  UNL     1     151.459 155.633 159.900  0.00  0.00    -0.049 A 
ATOM      7  C6  UNL     1     151.256 156.832 160.589  0.00  0.00    +0.008 A 
ATOM      8  C7  UNL     1     151.557 156.935 162.011  0.00  0.00    +0.156 A 
ATOM      9  N1  UNL     1     152.411 157.879 162.434  0.00  0.00    -0.047 NA
ATOM     10  O2  UNL     1     152.597 157.641 163.782  0.00  0.00    -0.240 OA
ATOM     11  N2  UNL     1     151.863 156.547 164.203  0.00  0.00    -0.033 NA
ATOM     12  C8  UNL     1     151.175 156.143 163.130  0.00  0.00    +0.197 A 
ATOM     13  N3  UNL     1     150.305 155.081 163.298  0.00  0.00    -0.262 N 
ATOM     14  C9  UNL     1     149.251 154.764 162.478  0.00  0.00    +0.249 C 
ATOM     15  O3  UNL     1     148.876 155.411 161.509  0.00  0.00    -0.270 OA
ATOM     16  C10 UNL     1     148.474 153.554 162.880  0.00  0.00    +0.037 A 
ATOM     17  C11 UNL     1     147.128 153.471 162.510  0.00  0.00    -0.046 A 
ATOM     18  C12 UNL     1     146.369 152.353 162.867  0.00  0.00    -0.019 A 
ATOM     19  C13 UNL     1     146.942 151.305 163.593  0.00  0.00    +0.120 A 
ATOM     20  O4  UNL     1     146.090 150.276 163.880  0.00  0.00    -0.495 OA
ATOM     21  C14 UNL     1     146.585 149.245 164.724  0.00  0.00    +0.079 C 
ATOM     22  C15 UNL     1     148.291 151.376 163.945  0.00  0.00    -0.019 A 
ATOM     23  C16 UNL     1     149.057 152.494 163.587  0.00  0.00    -0.046 A 
ATOM     24  C17 UNL     1     150.818 157.956 159.877  0.00  0.00    -0.046 A 
ATOM     25  C18 UNL     1     150.558 157.882 158.499  0.00  0.00    -0.008 A 
ATOM     26  C19 UNL     1     150.072 159.104 157.768  0.00  0.00    -0.036 C 
ATOM     27  H   UNL     1     150.455 154.499 164.078  0.00  0.00    +0.000 HD
ENDROOT
TORSDOF 0
ENDMDL
MODEL 4
REMARK VINA RESULT:    -8.566      4.176      7.761
REMARK INTER + INTRA:          -8.566
REMARK INTER:                  -8.566
REMARK INTRA:                   0.000
REMARK UNBOUND:                 0.000
REMARK  Name = /home/vital/Documents/PhD_2021/Malaria_codes/scripts/../data/pdbqt_ligands/ligand_463_temp.pdb
REMARK                            x       y       z     vdW  Elec       q    Type
REMARK                         _______ _______ _______ _____ _____    ______ ____
ROOT
ATOM      1  C1  UNL     1     154.520 161.295 167.000  0.00  0.00    -0.031 C 
ATOM      2  C2  UNL     1     153.179 161.513 166.319  0.00  0.00    +0.087 C 
ATOM      3  O1  UNL     1     152.181 160.674 166.898  0.00  0.00    -0.492 OA
ATOM      4  C3  UNL     1     151.946 159.439 166.357  0.00  0.00    +0.123 A 
ATOM      5  C4  UNL     1     152.737 158.820 165.385  0.00  0.00    -0.019 A 
ATOM      6  C5  UNL     1     152.406 157.550 164.900  0.00  0.00    -0.049 A 
ATOM      7  C6  UNL     1     151.274 156.880 165.374  0.00  0.00    +0.008 A 
ATOM      8  C7  UNL     1     150.945 155.543 164.900  0.00  0.00    +0.156 A 
ATOM      9  N1  UNL     1     150.802 154.548 165.787  0.00  0.00    -0.047 NA
ATOM     10  O2  UNL     1     150.633 153.398 165.041  0.00  0.00    -0.240 OA
ATOM     11  N2  UNL     1     150.675 153.671 163.686  0.00  0.00    -0.033 NA
ATOM     12  C8  UNL     1     150.809 154.998 163.591  0.00  0.00    +0.197 A 
ATOM     13  N3  UNL     1     150.820 155.545 162.321  0.00  0.00    -0.262 N 
ATOM     14  C9  UNL     1     150.559 156.855 162.005  0.00  0.00    +0.249 C 
ATOM     15  O3  UNL     1     150.210 157.727 162.791  0.00  0.00    -0.270 OA
ATOM     16  C10 UNL     1     150.651 157.190 160.553  0.00  0.00    +0.037 A 
ATOM     17  C11 UNL     1     149.888 158.254 160.062  0.00  0.00    -0.046 A 
ATOM     18  C12 UNL     1     149.948 158.596 158.709  0.00  0.00    -0.019 A 
ATOM     19  C13 UNL     1     150.771 157.887 157.830  0.00  0.00    +0.120 A 
ATOM     20  O4  UNL     1     150.735 158.322 156.535  0.00  0.00    -0.495 OA
ATOM     21  C14 UNL     1     151.453 157.556 155.577  0.00  0.00    +0.079 C 
ATOM     22  C15 UNL     1     151.550 156.838 158.322  0.00  0.00    -0.019 A 
ATOM     23  C16 UNL     1     151.495 156.491 159.679  0.00  0.00    -0.046 A 
ATOM     24  C17 UNL     1     150.493 157.489 166.364  0.00  0.00    -0.046 A 
ATOM     25  C18 UNL     1     150.818 158.764 166.859  0.00  0.00    -0.008 A 
ATOM     26  C19 UNL     1     149.947 159.397 167.909  0.00  0.00    -0.036 C 
ATOM     27  H   UNL     1     151.034 154.940 161.575  0.00  0.00    +0.000 HD
ENDROOT
TORSDOF 0
ENDMDL
MODEL 5
REMARK VINA RESULT:    -8.531      6.244      7.618
REMARK INTER + INTRA:          -8.531
REMARK INTER:                  -8.531
REMARK INTRA:                   0.000
REMARK UNBOUND:                 0.000
REMARK  Name = /home/vital/Documents/PhD_2021/Malaria_codes/scripts/../data/pdbqt_ligands/ligand_463_temp.pdb
REMARK                            x       y       z     vdW  Elec       q    Type
REMARK                         _______ _______ _______ _____ _____    ______ ____
ROOT
ATOM      1  C1  UNL     1     152.464 155.494 156.952  0.00  0.00    -0.031 C 
ATOM      2  C2  UNL     1     150.984 155.614 157.276  0.00  0.00    +0.087 C 
ATOM      3  O1  UNL     1     150.764 156.649 158.233  0.00  0.00    -0.492 OA
ATOM      4  C3  UNL     1     150.750 156.339 159.566  0.00  0.00    +0.123 A 
ATOM      5  C4  UNL     1     151.130 155.110 160.112  0.00  0.00    -0.019 A 
ATOM      6  C5  UNL     1     151.080 154.898 161.494  0.00  0.00    -0.049 A 
ATOM      7  C6  UNL     1     150.641 155.910 162.353  0.00  0.00    +0.008 A 
ATOM      8  C7  UNL     1     150.621 155.708 163.795  0.00  0.00    +0.156 A 
ATOM      9  N1  UNL     1     151.289 156.560 164.588  0.00  0.00    -0.047 NA
ATOM     10  O2  UNL     1     151.199 156.037 165.863  0.00  0.00    -0.240 OA
ATOM     11  N2  UNL     1     150.478 154.857 165.870  0.00  0.00    -0.033 NA
ATOM     12  C8  UNL     1     150.070 154.678 164.610  0.00  0.00    +0.197 A 
ATOM     13  N3  UNL     1     149.269 153.581 164.353  0.00  0.00    -0.262 N 
ATOM     14  C9  UNL     1     148.443 153.421 163.268  0.00  0.00    +0.249 C 
ATOM     15  O3  UNL     1     148.237 154.254 162.395  0.00  0.00    -0.270 OA
ATOM     16  C10 UNL     1     147.694 152.130 163.223  0.00  0.00    +0.037 A 
ATOM     17  C11 UNL     1     146.470 152.091 162.549  0.00  0.00    -0.046 A 
ATOM     18  C12 UNL     1     145.740 150.900 162.486  0.00  0.00    -0.019 A 
ATOM     19  C13 UNL     1     146.223 149.736 163.089  0.00  0.00    +0.120 A 
ATOM     20  O4  UNL     1     145.412 148.644 162.955  0.00  0.00    -0.495 OA
ATOM     21  C14 UNL     1     145.793 147.468 163.657  0.00  0.00    +0.079 C 
ATOM     22  C15 UNL     1     147.455 149.767 163.743  0.00  0.00    -0.019 A 
ATOM     23  C16 UNL     1     148.192 150.958 163.808  0.00  0.00    -0.046 A 
ATOM     24  C17 UNL     1     150.281 157.150 161.810  0.00  0.00    -0.046 A 
ATOM     25  C18 UNL     1     150.330 157.373 160.423  0.00  0.00    -0.008 A 
ATOM     26  C19 UNL     1     149.919 158.710 159.871  0.00  0.00    -0.036 C 
ATOM     27  H   UNL     1     149.293 152.846 165.008  0.00  0.00    +0.000 HD
ENDROOT
TORSDOF 0
ENDMDL
MODEL 6
REMARK VINA RESULT:    -8.418      2.900      5.224
REMARK INTER + INTRA:          -8.418
REMARK INTER:                  -8.418
REMARK INTRA:                   0.000
REMARK UNBOUND:                 0.000
REMARK  Name = /home/vital/Documents/PhD_2021/Malaria_codes/scripts/../data/pdbqt_ligands/ligand_463_temp.pdb
REMARK                            x       y       z     vdW  Elec       q    Type
REMARK                         _______ _______ _______ _____ _____    ______ ____
ROOT
ATOM      1  C1  UNL     1     151.347 162.511 170.880  0.00  0.00    -0.031 C 
ATOM      2  C2  UNL     1     152.243 161.295 170.718  0.00  0.00    +0.087 C 
ATOM      3  O1  UNL     1     153.186 161.504 169.668  0.00  0.00    -0.492 OA
ATOM      4  C3  UNL     1     152.875 161.102 168.396  0.00  0.00    +0.123 A 
ATOM      5  C4  UNL     1     151.616 160.670 167.973  0.00  0.00    -0.019 A 
ATOM      6  C5  UNL     1     151.405 160.283 166.644  0.00  0.00    -0.049 A 
ATOM      7  C6  UNL     1     152.453 160.316 165.720  0.00  0.00    +0.008 A 
ATOM      8  C7  UNL     1     152.231 159.948 164.328  0.00  0.00    +0.156 A 
ATOM      9  N1  UNL     1     152.542 160.823 163.360  0.00  0.00    -0.047 NA
ATOM     10  O2  UNL     1     152.098 160.256 162.181  0.00  0.00    -0.240 OA
ATOM     11  N2  UNL     1     151.506 159.027 162.410  0.00  0.00    -0.033 NA
ATOM     12  C8  UNL     1     151.636 158.805 163.722  0.00  0.00    +0.197 A 
ATOM     13  N3  UNL     1     151.168 157.599 164.210  0.00  0.00    -0.262 N 
ATOM     14  C9  UNL     1     151.535 157.012 165.396  0.00  0.00    +0.249 C 
ATOM     15  O3  UNL     1     152.382 157.432 166.172  0.00  0.00    -0.270 OA
ATOM     16  C10 UNL     1     150.868 155.709 165.693  0.00  0.00    +0.037 A 
ATOM     17  C11 UNL     1     151.535 154.787 166.505  0.00  0.00    -0.046 A 
ATOM     18  C12 UNL     1     150.942 153.557 166.806  0.00  0.00    -0.019 A 
ATOM     19  C13 UNL     1     149.678 153.234 166.305  0.00  0.00    +0.120 A 
ATOM     20  O4  UNL     1     149.216 152.002 166.672  0.00  0.00    -0.495 OA
ATOM     21  C14 UNL     1     147.993 151.572 166.088  0.00  0.00    +0.079 C 
ATOM     22  C15 UNL     1     149.001 154.163 165.513  0.00  0.00    -0.019 A 
ATOM     23  C16 UNL     1     149.590 155.398 165.210  0.00  0.00    -0.046 A 
ATOM     24  C17 UNL     1     153.710 160.770 166.137  0.00  0.00    -0.046 A 
ATOM     25  C18 UNL     1     153.931 161.162 167.468  0.00  0.00    -0.008 A 
ATOM     26  C19 UNL     1     155.298 161.628 167.888  0.00  0.00    -0.036 C 
ATOM     27  H   UNL     1     150.512 157.116 163.657  0.00  0.00    +0.000 HD
ENDROOT
TORSDOF 0
ENDMDL
MODEL 7
REMARK VINA RESULT:    -8.159      2.845      7.412
REMARK INTER + INTRA:          -8.159
REMARK INTER:                  -8.159
REMARK INTRA:                   0.000
REMARK UNBOUND:                 0.000
REMARK  Name = /home/vital/Documents/PhD_2021/Malaria_codes/scripts/../data/pdbqt_ligands/ligand_463_temp.pdb
REMARK                            x       y       z     vdW  Elec       q    Type
REMARK                         _______ _______ _______ _____ _____    ______ ____
ROOT
ATOM      1  C1  UNL     1     152.101 154.824 168.347  0.00  0.00    -0.031 C 
ATOM      2  C2  UNL     1     153.076 155.646 167.521  0.00  0.00    +0.087 C 
ATOM      3  O1  UNL     1     153.177 156.972 168.037  0.00  0.00    -0.492 OA
ATOM      4  C3  UNL     1     152.358 157.949 167.540  0.00  0.00    +0.123 A 
ATOM      5  C4  UNL     1     151.270 157.734 166.689  0.00  0.00    -0.019 A 
ATOM      6  C5  UNL     1     150.494 158.809 166.240  0.00  0.00    -0.049 A 
ATOM      7  C6  UNL     1     150.797 160.117 166.629  0.00  0.00    +0.008 A 
ATOM      8  C7  UNL     1     149.971 161.235 166.194  0.00  0.00    +0.156 A 
ATOM      9  N1  UNL     1     149.423 162.044 167.113  0.00  0.00    -0.047 NA
ATOM     10  O2  UNL     1     148.601 162.906 166.414  0.00  0.00    -0.240 OA
ATOM     11  N2  UNL     1     148.630 162.636 165.059  0.00  0.00    -0.033 NA
ATOM     12  C8  UNL     1     149.516 161.646 164.909  0.00  0.00    +0.197 A 
ATOM     13  N3  UNL     1     149.778 161.219 163.620  0.00  0.00    -0.262 N 
ATOM     14  C9  UNL     1     150.888 160.524 163.210  0.00  0.00    +0.249 C 
ATOM     15  O3  UNL     1     151.851 160.234 163.908  0.00  0.00    -0.270 OA
ATOM     16  C10 UNL     1     150.919 160.171 161.759  0.00  0.00    +0.037 A 
ATOM     17  C11 UNL     1     152.160 160.006 161.138  0.00  0.00    -0.046 A 
ATOM     18  C12 UNL     1     152.228 159.676 159.781  0.00  0.00    -0.019 A 
ATOM     19  C13 UNL     1     151.062 159.502 159.031  0.00  0.00    +0.120 A 
ATOM     20  O4  UNL     1     151.270 159.184 157.718  0.00  0.00    -0.495 OA
ATOM     21  C14 UNL     1     150.122 159.122 156.881  0.00  0.00    +0.079 C 
ATOM     22  C15 UNL     1     149.822 159.645 159.655  0.00  0.00    -0.019 A 
ATOM     23  C16 UNL     1     149.748 159.975 161.015  0.00  0.00    -0.046 A 
ATOM     24  C17 UNL     1     151.873 160.332 167.500  0.00  0.00    -0.046 A 
ATOM     25  C18 UNL     1     152.657 159.259 167.957  0.00  0.00    -0.008 A 
ATOM     26  C19 UNL     1     153.817 159.527 168.878  0.00  0.00    -0.036 C 
ATOM     27  H   UNL     1     149.106 161.433 162.933  0.00  0.00    +0.000 HD
ENDROOT
TORSDOF 0
ENDMDL
MODEL 8
REMARK VINA RESULT:    -8.046      4.534      7.418
REMARK INTER + INTRA:          -8.046
REMARK INTER:                  -8.046
REMARK INTRA:                   0.000
REMARK UNBOUND:                 0.000
REMARK  Name = /home/vital/Documents/PhD_2021/Malaria_codes/scripts/../data/pdbqt_ligands/ligand_463_temp.pdb
REMARK                            x       y       z     vdW  Elec       q    Type
REMARK                         _______ _______ _______ _____ _____    ______ ____
ROOT
ATOM      1  C1  UNL     1     149.614 158.297 156.952  0.00  0.00    -0.031 C 
ATOM      2  C2  UNL     1     150.995 158.260 157.585  0.00  0.00    +0.087 C 
ATOM      3  O1  UNL     1     151.328 156.931 157.983  0.00  0.00    -0.492 OA
ATOM      4  C3  UNL     1     151.034 156.518 159.255  0.00  0.00    +0.123 A 
ATOM      5  C4  UNL     1     150.247 157.222 160.170  0.00  0.00    -0.019 A 
ATOM      6  C5  UNL     1     150.007 156.706 161.448  0.00  0.00    -0.049 A 
ATOM      7  C6  UNL     1     150.556 155.480 161.835  0.00  0.00    +0.008 A 
ATOM      8  C7  UNL     1     150.280 154.920 163.151  0.00  0.00    +0.156 A 
ATOM      9  N1  UNL     1     149.749 153.692 163.245  0.00  0.00    -0.047 NA
ATOM     10  O2  UNL     1     149.479 153.500 164.586  0.00  0.00    -0.240 OA
ATOM     11  N2  UNL     1     149.838 154.607 165.332  0.00  0.00    -0.033 NA
ATOM     12  C8  UNL     1     150.385 155.463 164.463  0.00  0.00    +0.197 A 
ATOM     13  N3  UNL     1     150.887 156.648 164.971  0.00  0.00    -0.262 N 
ATOM     14  C9  UNL     1     151.806 157.463 164.358  0.00  0.00    +0.249 C 
ATOM     15  O3  UNL     1     152.374 157.234 163.299  0.00  0.00    -0.270 OA
ATOM     16  C10 UNL     1     152.170 158.695 165.119  0.00  0.00    +0.037 A 
ATOM     17  C11 UNL     1     153.431 159.261 164.911  0.00  0.00    -0.046 A 
ATOM     18  C12 UNL     1     153.807 160.415 165.605  0.00  0.00    -0.019 A 
ATOM     19  C13 UNL     1     152.931 161.019 166.510  0.00  0.00    +0.120 A 
ATOM     20  O4  UNL     1     153.423 162.137 167.122  0.00  0.00    -0.495 OA
ATOM     21  C14 UNL     1     152.624 162.717 168.145  0.00  0.00    +0.079 C 
ATOM     22  C15 UNL     1     151.663 160.468 166.704  0.00  0.00    -0.019 A 
ATOM     23  C16 UNL     1     151.280 159.313 166.009  0.00  0.00    -0.046 A 
ATOM     24  C17 UNL     1     151.327 154.762 160.911  0.00  0.00    -0.046 A 
ATOM     25  C18 UNL     1     151.572 155.271 159.625  0.00  0.00    -0.008 A 
ATOM     26  C19 UNL     1     152.419 154.483 158.663  0.00  0.00    -0.036 C 
ATOM     27  H   UNL     1     150.554 156.933 165.853  0.00  0.00    +0.000 HD
ENDROOT
TORSDOF 0
ENDMDL
MODEL 9
REMARK VINA RESULT:    -7.798     12.175     16.556
REMARK INTER + INTRA:          -7.798
REMARK INTER:                  -7.798
REMARK INTRA:                   0.000
REMARK UNBOUND:                 0.000
REMARK  Name = /home/vital/Documents/PhD_2021/Malaria_codes/scripts/../data/pdbqt_ligands/ligand_463_temp.pdb
REMARK                            x       y       z     vdW  Elec       q    Type
REMARK                         _______ _______ _______ _____ _____    ______ ____
ROOT
ATOM      1  C1  UNL     1     145.487 140.634 164.721  0.00  0.00    -0.031 C 
ATOM      2  C2  UNL     1     145.120 141.565 165.864  0.00  0.00    +0.087 C 
ATOM      3  O1  UNL     1     143.733 141.898 165.813  0.00  0.00    -0.492 OA
ATOM      4  C3  UNL     1     143.337 143.020 165.136  0.00  0.00    +0.123 A 
ATOM      5  C4  UNL     1     144.154 143.790 164.304  0.00  0.00    -0.019 A 
ATOM      6  C5  UNL     1     143.645 144.920 163.654  0.00  0.00    -0.049 A 
ATOM      7  C6  UNL     1     142.312 145.303 163.832  0.00  0.00    +0.008 A 
ATOM      8  C7  UNL     1     141.767 146.457 163.130  0.00  0.00    +0.156 A 
ATOM      9  N1  UNL     1     140.682 146.304 162.356  0.00  0.00    -0.047 NA
ATOM     10  O2  UNL     1     140.493 147.519 161.728  0.00  0.00    -0.240 OA
ATOM     11  N2  UNL     1     141.459 148.433 162.105  0.00  0.00    -0.033 NA
ATOM     12  C8  UNL     1     142.213 147.804 163.012  0.00  0.00    +0.197 A 
ATOM     13  N3  UNL     1     143.235 148.528 163.599  0.00  0.00    -0.262 N 
ATOM     14  C9  UNL     1     143.857 148.230 164.786  0.00  0.00    +0.249 C 
ATOM     15  O3  UNL     1     143.557 147.315 165.542  0.00  0.00    -0.270 OA
ATOM     16  C10 UNL     1     144.943 149.171 165.190  0.00  0.00    +0.037 A 
ATOM     17  C11 UNL     1     145.228 149.319 166.551  0.00  0.00    -0.046 A 
ATOM     18  C12 UNL     1     146.238 150.191 166.966  0.00  0.00    -0.019 A 
ATOM     19  C13 UNL     1     146.978 150.921 166.032  0.00  0.00    +0.120 A 
ATOM     20  O4  UNL     1     147.932 151.738 166.571  0.00  0.00    -0.495 OA
ATOM     21  C14 UNL     1     148.626 152.597 165.676  0.00  0.00    +0.079 C 
ATOM     22  C15 UNL     1     146.710 150.759 164.672  0.00  0.00    -0.019 A 
ATOM     23  C16 UNL     1     145.699 149.884 164.250  0.00  0.00    -0.046 A 
ATOM     24  C17 UNL     1     141.486 144.519 164.647  0.00  0.00    -0.046 A 
ATOM     25  C18 UNL     1     141.987 143.381 165.302  0.00  0.00    -0.008 A 
ATOM     26  C19 UNL     1     141.077 142.572 166.186  0.00  0.00    -0.036 C 
ATOM     27  H   UNL     1     143.545 149.332 163.122  0.00  0.00    +0.000 HD
ENDROOT
TORSDOF 0
ENDMDL
