MODEL 1
REMARK VINA RESULT:    -8.395      0.000      0.000
REMARK INTER + INTRA:          -8.395
REMARK INTER:                  -8.395
REMARK INTRA:                   0.000
REMARK UNBOUND:                 0.000
REMARK  Name = /home/vital/Documents/PhD_2021/Malaria_codes/scripts/../data/pdbqt_ligands/ligand_336_temp.pdb
REMARK                            x       y       z     vdW  Elec       q    Type
REMARK                         _______ _______ _______ _____ _____    ______ ____
ROOT
ATOM      1  C   UNL     1     150.107 163.537 168.110  0.00  0.00    +0.038 C 
ATOM      2  N   UNL     1     150.500 162.682 169.233  0.00  0.00    -0.245 N 
ATOM      3  C   UNL     1     150.931 161.636 168.922  0.00  0.00    -0.018 C 
ATOM      4  C   UNL     1     151.415 160.471 168.605  0.00  0.00    +0.001 C 
ATOM      5  C   UNL     1     151.349 159.966 167.255  0.00  0.00    -0.031 C 
ATOM      6  C   UNL     1     151.793 158.778 166.802  0.00  0.00    +0.053 C 
ATOM      7  C   UNL     1     152.449 157.721 167.633  0.00  0.00    +0.046 C 
ATOM      8  C   UNL     1     151.845 156.405 167.187  0.00  0.00    +0.105 C 
ATOM      9  N   UNL     1     151.790 155.383 168.116  0.00  0.00    -0.330 N 
ATOM     10  C   UNL     1     150.966 154.185 167.965  0.00  0.00    +0.033 C 
ATOM     11  C   UNL     1     151.605 153.168 167.011  0.00  0.00    +0.060 C 
ATOM     12  O   UNL     1     151.419 153.532 165.645  0.00  0.00    -0.393 OA
ATOM     13  N   UNL     1     151.440 156.227 165.966  0.00  0.00    -0.204 N 
ATOM     14  C   UNL     1     151.517 157.277 165.079  0.00  0.00    +0.221 C 
ATOM     15  N   UNL     1     151.396 156.899 163.765  0.00  0.00    -0.287 N 
ATOM     16  C   UNL     1     151.393 157.601 162.563  0.00  0.00    +0.008 C 
ATOM     17  C   UNL     1     151.464 159.110 162.643  0.00  0.00    -0.026 C 
ATOM     18  C   UNL     1     151.312 156.925 161.394  0.00  0.00    -0.044 C 
ATOM     19  C   UNL     1     151.332 157.467 160.049  0.00  0.00    -0.045 C 
ATOM     20  C   UNL     1     151.113 156.775 158.914  0.00  0.00    +0.033 C 
ATOM     21 CL   UNL     1     151.210 157.634 157.399  0.00  0.00    -0.087 Cl
ATOM     22  C   UNL     1     150.727 155.333 158.778  0.00  0.00    +0.058 C 
ATOM     23 CL   UNL     1     152.166 154.324 158.503  0.00  0.00    -0.119 Cl
ATOM     24  N   UNL     1     151.673 158.508 165.464  0.00  0.00    -0.219 N 
ATOM     25  H   UNL     1     150.409 162.962 170.172  0.00  0.00    +0.000 HD
ATOM     26  H   UNL     1     152.338 155.467 168.928  0.00  0.00    +0.000 HD
ATOM     27  H   UNL     1     150.470 153.561 165.445  0.00  0.00    +0.000 HD
ATOM     28  H   UNL     1     151.083 155.356 165.680  0.00  0.00    +0.000 HD
ATOM     29  H   UNL     1     151.288 155.927 163.648  0.00  0.00    +0.000 HD
ATOM     30  H   UNL     1     151.705 159.238 164.803  0.00  0.00    +0.000 HD
ENDROOT
TORSDOF 0
ENDMDL
MODEL 2
REMARK VINA RESULT:    -8.336      2.749      5.354
REMARK INTER + INTRA:          -8.336
REMARK INTER:                  -8.336
REMARK INTRA:                   0.000
REMARK UNBOUND:                 0.000
REMARK  Name = /home/vital/Documents/PhD_2021/Malaria_codes/scripts/../data/pdbqt_ligands/ligand_336_temp.pdb
REMARK                            x       y       z     vdW  Elec       q    Type
REMARK                         _______ _______ _______ _____ _____    ______ ____
ROOT
ATOM      1  C   UNL     1     152.509 151.769 167.935  0.00  0.00    +0.038 C 
ATOM      2  N   UNL     1     152.549 152.889 168.879  0.00  0.00    -0.245 N 
ATOM      3  C   UNL     1     152.248 153.926 168.418  0.00  0.00    -0.018 C 
ATOM      4  C   UNL     1     151.917 155.087 167.933  0.00  0.00    +0.001 C 
ATOM      5  C   UNL     1     151.753 155.296 166.515  0.00  0.00    -0.031 C 
ATOM      6  C   UNL     1     151.432 156.443 165.888  0.00  0.00    +0.053 C 
ATOM      7  C   UNL     1     151.186 157.760 166.556  0.00  0.00    +0.046 C 
ATOM      8  C   UNL     1     151.891 158.797 165.705  0.00  0.00    +0.105 C 
ATOM      9  N   UNL     1     152.343 159.939 166.339  0.00  0.00    -0.330 N 
ATOM     10  C   UNL     1     153.307 160.871 165.755  0.00  0.00    +0.033 C 
ATOM     11  C   UNL     1     152.651 161.803 164.728  0.00  0.00    +0.060 C 
ATOM     12  O   UNL     1     152.444 161.151 163.477  0.00  0.00    -0.393 OA
ATOM     13  N   UNL     1     152.023 158.642 164.423  0.00  0.00    -0.204 N 
ATOM     14  C   UNL     1     151.556 157.485 163.839  0.00  0.00    +0.221 C 
ATOM     15  N   UNL     1     151.430 157.568 162.475  0.00  0.00    -0.287 N 
ATOM     16  C   UNL     1     151.026 156.666 161.495  0.00  0.00    +0.008 C 
ATOM     17  C   UNL     1     150.711 155.255 161.941  0.00  0.00    -0.026 C 
ATOM     18  C   UNL     1     150.949 157.070 160.206  0.00  0.00    -0.044 C 
ATOM     19  C   UNL     1     150.518 156.299 159.055  0.00  0.00    -0.045 C 
ATOM     20  C   UNL     1     150.584 156.694 157.770  0.00  0.00    +0.033 C 
ATOM     21 CL   UNL     1     149.983 155.603 156.547  0.00  0.00    -0.087 Cl
ATOM     22  C   UNL     1     151.175 157.959 157.227  0.00  0.00    +0.058 C 
ATOM     23 CL   UNL     1     149.913 159.192 157.000  0.00  0.00    -0.119 Cl
ATOM     24  N   UNL     1     151.280 156.418 164.526  0.00  0.00    -0.219 N 
ATOM     25  H   UNL     1     152.807 152.781 169.823  0.00  0.00    +0.000 HD
ATOM     26  H   UNL     1     151.994 160.137 167.238  0.00  0.00    +0.000 HD
ATOM     27  H   UNL     1     153.299 160.873 163.113  0.00  0.00    +0.000 HD
ATOM     28  H   UNL     1     152.451 159.340 163.876  0.00  0.00    +0.000 HD
ATOM     29  H   UNL     1     151.677 158.450 162.114  0.00  0.00    +0.000 HD
ATOM     30  H   UNL     1     150.965 155.601 164.075  0.00  0.00    +0.000 HD
ENDROOT
TORSDOF 0
ENDMDL
MODEL 3
REMARK VINA RESULT:    -7.949      4.275      7.781
REMARK INTER + INTRA:          -7.949
REMARK INTER:                  -7.949
REMARK INTRA:                   0.000
REMARK UNBOUND:                 0.000
REMARK  Name = /home/vital/Documents/PhD_2021/Malaria_codes/scripts/../data/pdbqt_ligands/ligand_336_temp.pdb
REMARK                            x       y       z     vdW  Elec       q    Type
REMARK                         _______ _______ _______ _____ _____    ______ ____
ROOT
ATOM      1  C   UNL     1     151.454 157.054 157.348  0.00  0.00    +0.038 C 
ATOM      2  N   UNL     1     150.796 155.760 157.550  0.00  0.00    -0.245 N 
ATOM      3  C   UNL     1     150.529 155.518 158.667  0.00  0.00    -0.018 C 
ATOM      4  C   UNL     1     150.219 155.226 159.896  0.00  0.00    +0.001 C 
ATOM      5  C   UNL     1     150.701 156.013 161.006  0.00  0.00    -0.031 C 
ATOM      6  C   UNL     1     150.470 155.808 162.317  0.00  0.00    +0.053 C 
ATOM      7  C   UNL     1     149.656 154.692 162.892  0.00  0.00    +0.046 C 
ATOM      8  C   UNL     1     150.432 154.187 164.092  0.00  0.00    +0.105 C 
ATOM      9  N   UNL     1     150.268 152.860 164.442  0.00  0.00    -0.330 N 
ATOM     10  C   UNL     1     151.161 152.136 165.346  0.00  0.00    +0.033 C 
ATOM     11  C   UNL     1     150.880 152.471 166.817  0.00  0.00    +0.060 C 
ATOM     12  O   UNL     1     151.436 153.730 167.189  0.00  0.00    -0.393 OA
ATOM     13  N   UNL     1     151.183 154.980 164.793  0.00  0.00    -0.204 N 
ATOM     14  C   UNL     1     151.313 156.294 164.402  0.00  0.00    +0.221 C 
ATOM     15  N   UNL     1     151.830 157.110 165.377  0.00  0.00    -0.287 N 
ATOM     16  C   UNL     1     152.145 158.466 165.422  0.00  0.00    +0.008 C 
ATOM     17  C   UNL     1     151.976 159.258 164.145  0.00  0.00    -0.026 C 
ATOM     18  C   UNL     1     152.598 159.008 166.576  0.00  0.00    -0.044 C 
ATOM     19  C   UNL     1     152.942 160.394 166.833  0.00  0.00    -0.045 C 
ATOM     20  C   UNL     1     153.517 160.870 167.954  0.00  0.00    +0.033 C 
ATOM     21 CL   UNL     1     153.820 162.586 168.052  0.00  0.00    -0.087 Cl
ATOM     22  C   UNL     1     154.000 160.093 169.140  0.00  0.00    +0.058 C 
ATOM     23 CL   UNL     1     152.757 160.059 170.413  0.00  0.00    -0.119 Cl
ATOM     24  N   UNL     1     150.988 156.705 163.214  0.00  0.00    -0.219 N 
ATOM     25  H   UNL     1     150.596 155.144 156.809  0.00  0.00    +0.000 HD
ATOM     26  H   UNL     1     149.503 152.372 164.060  0.00  0.00    +0.000 HD
ATOM     27  H   UNL     1     152.399 153.703 167.077  0.00  0.00    +0.000 HD
ATOM     28  H   UNL     1     151.652 154.647 165.592  0.00  0.00    +0.000 HD
ATOM     29  H   UNL     1     152.017 156.639 166.221  0.00  0.00    +0.000 HD
ATOM     30  H   UNL     1     151.112 157.649 162.961  0.00  0.00    +0.000 HD
ENDROOT
TORSDOF 0
ENDMDL
MODEL 4
REMARK VINA RESULT:    -7.939      4.421      7.756
REMARK INTER + INTRA:          -7.939
REMARK INTER:                  -7.939
REMARK INTRA:                   0.000
REMARK UNBOUND:                 0.000
REMARK  Name = /home/vital/Documents/PhD_2021/Malaria_codes/scripts/../data/pdbqt_ligands/ligand_336_temp.pdb
REMARK                            x       y       z     vdW  Elec       q    Type
REMARK                         _______ _______ _______ _____ _____    ______ ____
ROOT
ATOM      1  C   UNL     1     151.341 156.573 158.470  0.00  0.00    +0.038 C 
ATOM      2  N   UNL     1     150.910 155.221 158.837  0.00  0.00    -0.245 N 
ATOM      3  C   UNL     1     150.756 155.054 159.988  0.00  0.00    -0.018 C 
ATOM      4  C   UNL     1     150.575 154.843 161.259  0.00  0.00    +0.001 C 
ATOM      5  C   UNL     1     150.996 155.800 162.253  0.00  0.00    -0.031 C 
ATOM      6  C   UNL     1     150.884 155.695 163.591  0.00  0.00    +0.053 C 
ATOM      7  C   UNL     1     150.295 154.532 164.326  0.00  0.00    +0.046 C 
ATOM      8  C   UNL     1     151.215 154.272 165.501  0.00  0.00    +0.105 C 
ATOM      9  N   UNL     1     151.284 152.977 165.979  0.00  0.00    -0.330 N 
ATOM     10  C   UNL     1     152.336 152.490 166.871  0.00  0.00    +0.033 C 
ATOM     11  C   UNL     1     152.100 152.924 168.324  0.00  0.00    +0.060 C 
ATOM     12  O   UNL     1     152.474 154.283 168.539  0.00  0.00    -0.393 OA
ATOM     13  N   UNL     1     151.874 155.235 166.068  0.00  0.00    -0.204 N 
ATOM     14  C   UNL     1     151.771 156.508 165.553  0.00  0.00    +0.221 C 
ATOM     15  N   UNL     1     152.214 157.486 166.408  0.00  0.00    -0.287 N 
ATOM     16  C   UNL     1     152.314 158.871 166.308  0.00  0.00    +0.008 C 
ATOM     17  C   UNL     1     151.941 159.498 164.982  0.00  0.00    -0.026 C 
ATOM     18  C   UNL     1     152.747 159.588 167.370  0.00  0.00    -0.044 C 
ATOM     19  C   UNL     1     152.884 161.029 167.476  0.00  0.00    -0.045 C 
ATOM     20  C   UNL     1     153.447 161.696 168.501  0.00  0.00    +0.033 C 
ATOM     21 CL   UNL     1     153.481 163.439 168.423  0.00  0.00    -0.087 Cl
ATOM     22  C   UNL     1     154.121 161.123 169.711  0.00  0.00    +0.058 C 
ATOM     23 CL   UNL     1     152.983 161.029 171.074  0.00  0.00    -0.119 Cl
ATOM     24  N   UNL     1     151.310 156.745 164.362  0.00  0.00    -0.219 N 
ATOM     25  H   UNL     1     150.763 154.510 158.172  0.00  0.00    +0.000 HD
ATOM     26  H   UNL     1     150.583 152.344 165.703  0.00  0.00    +0.000 HD
ATOM     27  H   UNL     1     153.419 154.391 168.354  0.00  0.00    +0.000 HD
ATOM     28  H   UNL     1     152.440 155.059 166.854  0.00  0.00    +0.000 HD
ATOM     29  H   UNL     1     152.526 157.135 167.273  0.00  0.00    +0.000 HD
ATOM     30  H   UNL     1     151.267 157.666 164.017  0.00  0.00    +0.000 HD
ENDROOT
TORSDOF 0
ENDMDL
MODEL 5
REMARK VINA RESULT:    -7.920      4.776      8.453
REMARK INTER + INTRA:          -7.920
REMARK INTER:                  -7.920
REMARK INTRA:                   0.000
REMARK UNBOUND:                 0.000
REMARK  Name = /home/vital/Documents/PhD_2021/Malaria_codes/scripts/../data/pdbqt_ligands/ligand_336_temp.pdb
REMARK                            x       y       z     vdW  Elec       q    Type
REMARK                         _______ _______ _______ _____ _____    ______ ____
ROOT
ATOM      1  C   UNL     1     146.549 150.763 166.458  0.00  0.00    +0.038 C 
ATOM      2  N   UNL     1     146.712 150.538 165.019  0.00  0.00    -0.245 N 
ATOM      3  C   UNL     1     147.516 151.222 164.506  0.00  0.00    -0.018 C 
ATOM      4  C   UNL     1     148.403 151.966 163.913  0.00  0.00    +0.001 C 
ATOM      5  C   UNL     1     149.012 153.093 164.578  0.00  0.00    -0.031 C 
ATOM      6  C   UNL     1     149.923 153.947 164.074  0.00  0.00    +0.053 C 
ATOM      7  C   UNL     1     150.489 153.897 162.689  0.00  0.00    +0.046 C 
ATOM      8  C   UNL     1     150.518 155.331 162.199  0.00  0.00    +0.105 C 
ATOM      9  N   UNL     1     150.412 155.539 160.837  0.00  0.00    -0.330 N 
ATOM     10  C   UNL     1     150.101 156.833 160.230  0.00  0.00    +0.033 C 
ATOM     11  C   UNL     1     151.326 157.755 160.190  0.00  0.00    +0.060 C 
ATOM     12  O   UNL     1     151.580 158.353 161.459  0.00  0.00    -0.393 OA
ATOM     13  N   UNL     1     150.684 156.322 163.021  0.00  0.00    -0.204 N 
ATOM     14  C   UNL     1     150.785 156.060 164.369  0.00  0.00    +0.221 C 
ATOM     15  N   UNL     1     151.294 157.106 165.097  0.00  0.00    -0.287 N 
ATOM     16  C   UNL     1     151.548 157.295 166.453  0.00  0.00    +0.008 C 
ATOM     17  C   UNL     1     151.137 156.185 167.395  0.00  0.00    -0.026 C 
ATOM     18  C   UNL     1     152.125 158.445 166.871  0.00  0.00    -0.044 C 
ATOM     19  C   UNL     1     152.501 158.813 168.223  0.00  0.00    -0.045 C 
ATOM     20  C   UNL     1     152.948 160.020 168.619  0.00  0.00    +0.033 C 
ATOM     21 CL   UNL     1     153.363 160.228 170.301  0.00  0.00    -0.087 Cl
ATOM     22  C   UNL     1     153.086 161.264 167.794  0.00  0.00    +0.058 C 
ATOM     23 CL   UNL     1     154.747 161.426 167.180  0.00  0.00    -0.119 Cl
ATOM     24  N   UNL     1     150.412 154.931 164.892  0.00  0.00    -0.219 N 
ATOM     25  H   UNL     1     146.188 149.868 164.522  0.00  0.00    +0.000 HD
ATOM     26  H   UNL     1     150.555 154.771 160.239  0.00  0.00    +0.000 HD
ATOM     27  H   UNL     1     150.818 158.893 161.721  0.00  0.00    +0.000 HD
ATOM     28  H   UNL     1     150.738 157.245 162.686  0.00  0.00    +0.000 HD
ATOM     29  H   UNL     1     151.530 157.887 164.544  0.00  0.00    +0.000 HD
ATOM     30  H   UNL     1     150.480 154.784 165.863  0.00  0.00    +0.000 HD
ENDROOT
TORSDOF 0
ENDMDL
MODEL 6
REMARK VINA RESULT:    -7.825      3.978      7.094
REMARK INTER + INTRA:          -7.825
REMARK INTER:                  -7.825
REMARK INTRA:                   0.000
REMARK UNBOUND:                 0.000
REMARK  Name = /home/vital/Documents/PhD_2021/Malaria_codes/scripts/../data/pdbqt_ligands/ligand_336_temp.pdb
REMARK                            x       y       z     vdW  Elec       q    Type
REMARK                         _______ _______ _______ _____ _____    ______ ____
ROOT
ATOM      1  C   UNL     1     146.252 148.327 162.702  0.00  0.00    +0.038 C 
ATOM      2  N   UNL     1     146.470 148.369 164.151  0.00  0.00    -0.245 N 
ATOM      3  C   UNL     1     146.899 149.386 164.550  0.00  0.00    -0.018 C 
ATOM      4  C   UNL     1     147.373 150.503 165.020  0.00  0.00    +0.001 C 
ATOM      5  C   UNL     1     147.869 151.541 164.148  0.00  0.00    -0.031 C 
ATOM      6  C   UNL     1     148.397 152.727 164.505  0.00  0.00    +0.053 C 
ATOM      7  C   UNL     1     148.585 153.208 165.909  0.00  0.00    +0.046 C 
ATOM      8  C   UNL     1     149.959 153.846 165.951  0.00  0.00    +0.105 C 
ATOM      9  N   UNL     1     150.630 153.831 167.159  0.00  0.00    -0.330 N 
ATOM     10  C   UNL     1     152.060 154.101 167.303  0.00  0.00    +0.033 C 
ATOM     11  C   UNL     1     152.367 155.603 167.247  0.00  0.00    +0.060 C 
ATOM     12  O   UNL     1     152.355 156.097 165.910  0.00  0.00    -0.393 OA
ATOM     13  N   UNL     1     150.466 154.426 164.906  0.00  0.00    -0.204 N 
ATOM     14  C   UNL     1     149.757 154.413 163.726  0.00  0.00    +0.221 C 
ATOM     15  N   UNL     1     150.203 155.326 162.805  0.00  0.00    -0.287 N 
ATOM     16  C   UNL     1     149.813 155.645 161.506  0.00  0.00    +0.008 C 
ATOM     17  C   UNL     1     148.720 154.803 160.886  0.00  0.00    -0.026 C 
ATOM     18  C   UNL     1     150.424 156.662 160.856  0.00  0.00    -0.044 C 
ATOM     19  C   UNL     1     150.139 157.167 159.526  0.00  0.00    -0.045 C 
ATOM     20  C   UNL     1     150.858 158.091 158.861  0.00  0.00    +0.033 C 
ATOM     21 CL   UNL     1     150.312 158.566 157.273  0.00  0.00    -0.087 Cl
ATOM     22  C   UNL     1     152.137 158.744 159.291  0.00  0.00    +0.058 C 
ATOM     23 CL   UNL     1     151.809 160.311 160.066  0.00  0.00    -0.119 Cl
ATOM     24  N   UNL     1     148.770 153.595 163.513  0.00  0.00    -0.219 N 
ATOM     25  H   UNL     1     146.273 147.606 164.741  0.00  0.00    +0.000 HD
ATOM     26  H   UNL     1     150.114 153.627 167.972  0.00  0.00    +0.000 HD
ATOM     27  H   UNL     1     153.037 155.642 165.391  0.00  0.00    +0.000 HD
ATOM     28  H   UNL     1     151.343 154.869 164.957  0.00  0.00    +0.000 HD
ATOM     29  H   UNL     1     150.957 155.871 163.129  0.00  0.00    +0.000 HD
ATOM     30  H   UNL     1     148.296 153.599 162.650  0.00  0.00    +0.000 HD
ENDROOT
TORSDOF 0
ENDMDL
MODEL 7
REMARK VINA RESULT:    -7.298      2.288      2.692
REMARK INTER + INTRA:          -7.298
REMARK INTER:                  -7.298
REMARK INTRA:                   0.000
REMARK UNBOUND:                 0.000
REMARK  Name = /home/vital/Documents/PhD_2021/Malaria_codes/scripts/../data/pdbqt_ligands/ligand_336_temp.pdb
REMARK                            x       y       z     vdW  Elec       q    Type
REMARK                         _______ _______ _______ _____ _____    ______ ____
ROOT
ATOM      1  C   UNL     1     152.034 162.806 169.687  0.00  0.00    +0.038 C 
ATOM      2  N   UNL     1     152.122 161.471 170.287  0.00  0.00    -0.245 N 
ATOM      3  C   UNL     1     152.229 160.596 169.514  0.00  0.00    -0.018 C 
ATOM      4  C   UNL     1     152.351 159.606 168.678  0.00  0.00    +0.001 C 
ATOM      5  C   UNL     1     152.173 159.788 167.257  0.00  0.00    -0.031 C 
ATOM      6  C   UNL     1     152.253 158.850 166.295  0.00  0.00    +0.053 C 
ATOM      7  C   UNL     1     152.541 157.399 166.517  0.00  0.00    +0.046 C 
ATOM      8  C   UNL     1     151.583 156.642 165.619  0.00  0.00    +0.105 C 
ATOM      9  N   UNL     1     151.199 155.377 166.021  0.00  0.00    -0.330 N 
ATOM     10  C   UNL     1     150.059 154.652 165.462  0.00  0.00    +0.033 C 
ATOM     11  C   UNL     1     150.391 154.026 164.102  0.00  0.00    +0.060 C 
ATOM     12  O   UNL     1     150.359 154.991 163.053  0.00  0.00    -0.393 OA
ATOM     13  N   UNL     1     151.177 157.142 164.492  0.00  0.00    -0.204 N 
ATOM     14  C   UNL     1     151.588 158.407 164.137  0.00  0.00    +0.221 C 
ATOM     15  N   UNL     1     151.395 158.697 162.809  0.00  0.00    -0.287 N 
ATOM     16  C   UNL     1     151.636 159.826 162.031  0.00  0.00    +0.008 C 
ATOM     17  C   UNL     1     152.153 161.058 162.741  0.00  0.00    -0.026 C 
ATOM     18  C   UNL     1     151.388 159.787 160.702  0.00  0.00    -0.044 C 
ATOM     19  C   UNL     1     151.606 160.836 159.724  0.00  0.00    -0.045 C 
ATOM     20  C   UNL     1     151.221 160.807 158.434  0.00  0.00    +0.033 C 
ATOM     21 CL   UNL     1     151.612 162.181 157.432  0.00  0.00    -0.087 Cl
ATOM     22  C   UNL     1     150.425 159.745 157.737  0.00  0.00    +0.058 C 
ATOM     23 CL   UNL     1     151.503 158.604 156.902  0.00  0.00    -0.119 Cl
ATOM     24  N   UNL     1     152.095 159.244 164.992  0.00  0.00    -0.219 N 
ATOM     25  H   UNL     1     152.093 161.322 171.260  0.00  0.00    +0.000 HD
ATOM     26  H   UNL     1     151.725 154.937 166.727  0.00  0.00    +0.000 HD
ATOM     27  H   UNL     1     149.468 155.369 162.989  0.00  0.00    +0.000 HD
ATOM     28  H   UNL     1     150.584 156.625 163.901  0.00  0.00    +0.000 HD
ATOM     29  H   UNL     1     151.005 157.950 162.300  0.00  0.00    +0.000 HD
ATOM     30  H   UNL     1     152.362 160.148 164.707  0.00  0.00    +0.000 HD
ENDROOT
TORSDOF 0
ENDMDL
MODEL 8
REMARK VINA RESULT:    -7.223      4.863      8.653
REMARK INTER + INTRA:          -7.223
REMARK INTER:                  -7.223
REMARK INTRA:                   0.000
REMARK UNBOUND:                 0.000
REMARK  Name = /home/vital/Documents/PhD_2021/Malaria_codes/scripts/../data/pdbqt_ligands/ligand_336_temp.pdb
REMARK                            x       y       z     vdW  Elec       q    Type
REMARK                         _______ _______ _______ _____ _____    ______ ____
ROOT
ATOM      1  C   UNL     1     147.309 151.783 164.258  0.00  0.00    +0.038 C 
ATOM      2  N   UNL     1     147.597 151.869 162.823  0.00  0.00    -0.245 N 
ATOM      3  C   UNL     1     148.409 152.666 162.536  0.00  0.00    -0.018 C 
ATOM      4  C   UNL     1     149.307 153.541 162.190  0.00  0.00    +0.001 C 
ATOM      5  C   UNL     1     149.811 154.519 163.125  0.00  0.00    -0.031 C 
ATOM      6  C   UNL     1     150.722 155.483 162.890  0.00  0.00    +0.053 C 
ATOM      7  C   UNL     1     151.398 155.740 161.580  0.00  0.00    +0.046 C 
ATOM      8  C   UNL     1     151.403 157.245 161.403  0.00  0.00    +0.105 C 
ATOM      9  N   UNL     1     151.398 157.732 160.110  0.00  0.00    -0.330 N 
ATOM     10  C   UNL     1     151.080 159.116 159.758  0.00  0.00    +0.033 C 
ATOM     11  C   UNL     1     152.263 160.058 160.018  0.00  0.00    +0.060 C 
ATOM     12  O   UNL     1     152.388 160.382 161.401  0.00  0.00    -0.393 OA
ATOM     13  N   UNL     1     151.460 158.045 162.423  0.00  0.00    -0.204 N 
ATOM     14  C   UNL     1     151.463 157.509 163.691  0.00  0.00    +0.221 C 
ATOM     15  N   UNL     1     151.866 158.392 164.662  0.00  0.00    -0.287 N 
ATOM     16  C   UNL     1     152.002 158.298 166.045  0.00  0.00    +0.008 C 
ATOM     17  C   UNL     1     151.565 157.004 166.696  0.00  0.00    -0.026 C 
ATOM     18  C   UNL     1     152.492 159.350 166.741  0.00  0.00    -0.044 C 
ATOM     19  C   UNL     1     152.741 159.434 168.167  0.00  0.00    -0.045 C 
ATOM     20  C   UNL     1     153.102 160.542 168.842  0.00  0.00    +0.033 C 
ATOM     21 CL   UNL     1     153.371 160.403 170.560  0.00  0.00    -0.087 Cl
ATOM     22  C   UNL     1     153.251 161.935 168.308  0.00  0.00    +0.058 C 
ATOM     23 CL   UNL     1     154.948 162.266 167.889  0.00  0.00    -0.119 Cl
ATOM     24  N   UNL     1     151.099 156.286 163.935  0.00  0.00    -0.219 N 
ATOM     25  H   UNL     1     147.145 151.305 162.155  0.00  0.00    +0.000 HD
ATOM     26  H   UNL     1     151.623 157.110 159.380  0.00  0.00    +0.000 HD
ATOM     27  H   UNL     1     151.585 160.835 161.701  0.00  0.00    +0.000 HD
ATOM     28  H   UNL     1     151.500 159.020 162.292  0.00  0.00    +0.000 HD
ATOM     29  H   UNL     1     152.111 159.277 164.306  0.00  0.00    +0.000 HD
ATOM     30  H   UNL     1     151.095 155.940 164.856  0.00  0.00    +0.000 HD
ENDROOT
TORSDOF 0
ENDMDL
