MODEL 1
REMARK VINA RESULT:    -8.913      0.000      0.000
REMARK INTER + INTRA:          -8.913
REMARK INTER:                  -8.913
REMARK INTRA:                   0.000
REMARK UNBOUND:                 0.000
REMARK  Name = /home/vital/Documents/PhD_2021/Malaria_codes/scripts/../data/pdbqt_ligands/ligand_429_temp.pdb
REMARK                            x       y       z     vdW  Elec       q    Type
REMARK                         _______ _______ _______ _____ _____    ______ ____
ROOT
ATOM      1  C1  UNL     1     151.723 163.166 157.792  0.00  0.00    +0.079 C 
ATOM      2  O1  UNL     1     151.474 162.254 158.848  0.00  0.00    -0.491 OA
ATOM      3  C2  UNL     1     151.526 160.920 158.546  0.00  0.00    +0.169 A 
ATOM      4  C3  UNL     1     151.771 160.388 157.292  0.00  0.00    +0.027 A 
ATOM      5  C4  UNL     1     151.797 158.998 157.114  0.00  0.00    +0.147 A 
ATOM      6  O2  UNL     1     152.051 158.610 155.817  0.00  0.00    -0.454 OA
ATOM      7  C5  UNL     1     152.116 157.265 155.528  0.00  0.00    +0.139 A 
ATOM      8  C6  UNL     1     152.394 156.961 154.112  0.00  0.00    +0.017 A 
ATOM      9  C7  UNL     1     153.310 155.964 153.742  0.00  0.00    -0.051 A 
ATOM     10  C8  UNL     1     153.569 155.697 152.394  0.00  0.00    -0.061 A 
ATOM     11  C9  UNL     1     152.919 156.426 151.400  0.00  0.00    -0.062 A 
ATOM     12  C10 UNL     1     152.014 157.423 151.752  0.00  0.00    -0.061 A 
ATOM     13  C11 UNL     1     151.756 157.693 153.099  0.00  0.00    -0.051 A 
ATOM     14  C12 UNL     1     151.923 156.302 156.432  0.00  0.00    +0.029 A 
ATOM     15  C13 UNL     1     151.638 156.637 157.842  0.00  0.00    +0.197 A 
ATOM     16  O3  UNL     1     151.480 155.679 158.592  0.00  0.00    -0.287 OA
ATOM     17  C14 UNL     1     151.580 158.101 158.183  0.00  0.00    +0.114 A 
ATOM     18  C15 UNL     1     151.323 158.593 159.494  0.00  0.00    +0.238 A 
ATOM     19  O4  UNL     1     151.109 157.892 160.547  0.00  0.00    -0.283 OA
ATOM     20  C16 UNL     1     151.310 160.017 159.595  0.00  0.00    +0.207 A 
ATOM     21  O5  UNL     1     151.060 160.503 160.870  0.00  0.00    -0.501 OA
ATOM     22  H   UNL     1     151.034 161.427 161.023  0.00  0.00    +0.000 HD
ENDROOT
TORSDOF 0
ENDMDL
MODEL 2
REMARK VINA RESULT:    -8.739      1.675      2.107
REMARK INTER + INTRA:          -8.739
REMARK INTER:                  -8.739
REMARK INTRA:                   0.000
REMARK UNBOUND:                 0.000
REMARK  Name = /home/vital/Documents/PhD_2021/Malaria_codes/scripts/../data/pdbqt_ligands/ligand_429_temp.pdb
REMARK                            x       y       z     vdW  Elec       q    Type
REMARK                         _______ _______ _______ _____ _____    ______ ____
ROOT
ATOM      1  C1  UNL     1     152.369 161.671 160.736  0.00  0.00    +0.079 C 
ATOM      2  O1  UNL     1     151.703 160.641 161.445  0.00  0.00    -0.491 OA
ATOM      3  C2  UNL     1     151.428 159.487 160.760  0.00  0.00    +0.169 A 
ATOM      4  C3  UNL     1     151.720 159.255 159.428  0.00  0.00    +0.027 A 
ATOM      5  C4  UNL     1     151.385 158.027 158.841  0.00  0.00    +0.147 A 
ATOM      6  O2  UNL     1     151.732 157.934 157.512  0.00  0.00    -0.454 OA
ATOM      7  C5  UNL     1     151.465 156.764 156.837  0.00  0.00    +0.139 A 
ATOM      8  C6  UNL     1     151.878 156.771 155.421  0.00  0.00    +0.017 A 
ATOM      9  C7  UNL     1     152.527 155.670 154.841  0.00  0.00    -0.051 A 
ATOM     10  C8  UNL     1     152.921 155.699 153.500  0.00  0.00    -0.061 A 
ATOM     11  C9  UNL     1     152.676 156.830 152.724  0.00  0.00    -0.062 A 
ATOM     12  C10 UNL     1     152.041 157.933 153.288  0.00  0.00    -0.061 A 
ATOM     13  C11 UNL     1     151.648 157.906 154.629  0.00  0.00    -0.051 A 
ATOM     14  C12 UNL     1     150.862 155.709 157.391  0.00  0.00    +0.029 A 
ATOM     15  C13 UNL     1     150.452 155.733 158.810  0.00  0.00    +0.197 A 
ATOM     16  O3  UNL     1     149.910 154.713 159.221  0.00  0.00    -0.287 OA
ATOM     17  C14 UNL     1     150.751 156.997 159.571  0.00  0.00    +0.114 A 
ATOM     18  C15 UNL     1     150.427 157.181 160.944  0.00  0.00    +0.238 A 
ATOM     19  O4  UNL     1     149.854 156.334 161.717  0.00  0.00    -0.283 OA
ATOM     20  C16 UNL     1     150.797 158.457 161.469  0.00  0.00    +0.207 A 
ATOM     21  O5  UNL     1     150.484 158.644 162.807  0.00  0.00    -0.501 OA
ATOM     22  H   UNL     1     150.693 159.454 163.229  0.00  0.00    +0.000 HD
ENDROOT
TORSDOF 0
ENDMDL
MODEL 3
REMARK VINA RESULT:    -8.492      1.547      3.824
REMARK INTER + INTRA:          -8.492
REMARK INTER:                  -8.492
REMARK INTRA:                   0.000
REMARK UNBOUND:                 0.000
REMARK  Name = /home/vital/Documents/PhD_2021/Malaria_codes/scripts/../data/pdbqt_ligands/ligand_429_temp.pdb
REMARK                            x       y       z     vdW  Elec       q    Type
REMARK                         _______ _______ _______ _____ _____    ______ ____
ROOT
ATOM      1  C1  UNL     1     151.320 153.598 160.528  0.00  0.00    +0.079 C 
ATOM      2  O1  UNL     1     151.107 154.902 161.042  0.00  0.00    -0.491 OA
ATOM      3  C2  UNL     1     151.206 155.944 160.160  0.00  0.00    +0.169 A 
ATOM      4  C3  UNL     1     151.526 155.835 158.819  0.00  0.00    +0.027 A 
ATOM      5  C4  UNL     1     151.596 156.984 158.019  0.00  0.00    +0.147 A 
ATOM      6  O2  UNL     1     151.924 156.728 156.707  0.00  0.00    -0.454 OA
ATOM      7  C5  UNL     1     152.006 157.783 155.826  0.00  0.00    +0.139 A 
ATOM      8  C6  UNL     1     152.362 157.397 154.447  0.00  0.00    +0.017 A 
ATOM      9  C7  UNL     1     151.704 157.949 153.338  0.00  0.00    -0.051 A 
ATOM     10  C8  UNL     1     152.048 157.563 152.039  0.00  0.00    -0.061 A 
ATOM     11  C9  UNL     1     153.050 156.617 151.833  0.00  0.00    -0.062 A 
ATOM     12  C10 UNL     1     153.706 156.054 152.924  0.00  0.00    -0.061 A 
ATOM     13  C11 UNL     1     153.362 156.438 154.223  0.00  0.00    -0.051 A 
ATOM     14  C12 UNL     1     151.808 159.057 156.173  0.00  0.00    +0.029 A 
ATOM     15  C13 UNL     1     151.460 159.415 157.563  0.00  0.00    +0.197 A 
ATOM     16  O3  UNL     1     151.296 160.611 157.776  0.00  0.00    -0.287 OA
ATOM     17  C14 UNL     1     151.348 158.274 158.539  0.00  0.00    +0.114 A 
ATOM     18  C15 UNL     1     151.016 158.446 159.912  0.00  0.00    +0.238 A 
ATOM     19  O4  UNL     1     150.769 159.554 160.508  0.00  0.00    -0.283 OA
ATOM     20  C16 UNL     1     150.965 157.230 160.660  0.00  0.00    +0.207 A 
ATOM     21  O5  UNL     1     150.642 157.390 162.000  0.00  0.00    -0.501 OA
ATOM     22  H   UNL     1     150.588 156.643 162.562  0.00  0.00    +0.000 HD
ENDROOT
TORSDOF 0
ENDMDL
MODEL 4
REMARK VINA RESULT:    -8.042      3.148      6.981
REMARK INTER + INTRA:          -8.042
REMARK INTER:                  -8.042
REMARK INTRA:                   0.000
REMARK UNBOUND:                 0.000
REMARK  Name = /home/vital/Documents/PhD_2021/Malaria_codes/scripts/../data/pdbqt_ligands/ligand_429_temp.pdb
REMARK                            x       y       z     vdW  Elec       q    Type
REMARK                         _______ _______ _______ _____ _____    ______ ____
ROOT
ATOM      1  C1  UNL     1     151.582 154.651 154.101  0.00  0.00    +0.079 C 
ATOM      2  O1  UNL     1     151.822 156.037 154.273  0.00  0.00    -0.491 OA
ATOM      3  C2  UNL     1     151.617 156.558 155.522  0.00  0.00    +0.169 A 
ATOM      4  C3  UNL     1     151.166 155.851 156.623  0.00  0.00    +0.027 A 
ATOM      5  C4  UNL     1     150.996 156.503 157.852  0.00  0.00    +0.147 A 
ATOM      6  O2  UNL     1     150.542 155.679 158.858  0.00  0.00    -0.454 OA
ATOM      7  C5  UNL     1     150.354 156.210 160.115  0.00  0.00    +0.139 A 
ATOM      8  C6  UNL     1     149.868 155.242 161.116  0.00  0.00    +0.017 A 
ATOM      9  C7  UNL     1     150.402 155.199 162.413  0.00  0.00    -0.051 A 
ATOM     10  C8  UNL     1     149.937 154.268 163.347  0.00  0.00    -0.061 A 
ATOM     11  C9  UNL     1     148.936 153.365 162.993  0.00  0.00    -0.062 A 
ATOM     12  C10 UNL     1     148.403 153.390 161.707  0.00  0.00    -0.061 A 
ATOM     13  C11 UNL     1     148.868 154.319 160.773  0.00  0.00    -0.051 A 
ATOM     14  C12 UNL     1     150.563 157.493 160.417  0.00  0.00    +0.029 A 
ATOM     15  C13 UNL     1     151.042 158.442 159.391  0.00  0.00    +0.197 A 
ATOM     16  O3  UNL     1     151.205 159.596 159.773  0.00  0.00    -0.287 OA
ATOM     17  C14 UNL     1     151.272 157.878 158.015  0.00  0.00    +0.114 A 
ATOM     18  C15 UNL     1     151.736 158.654 156.916  0.00  0.00    +0.238 A 
ATOM     19  O4  UNL     1     152.022 159.905 156.927  0.00  0.00    -0.283 OA
ATOM     20  C16 UNL     1     151.883 157.921 155.699  0.00  0.00    +0.207 A 
ATOM     21  O5  UNL     1     152.336 158.672 154.624  0.00  0.00    -0.501 OA
ATOM     22  H   UNL     1     152.460 158.267 153.789  0.00  0.00    +0.000 HD
ENDROOT
TORSDOF 0
ENDMDL
MODEL 5
REMARK VINA RESULT:    -7.699      5.035      7.457
REMARK INTER + INTRA:          -7.699
REMARK INTER:                  -7.699
REMARK INTRA:                   0.000
REMARK UNBOUND:                 0.000
REMARK  Name = /home/vital/Documents/PhD_2021/Malaria_codes/scripts/../data/pdbqt_ligands/ligand_429_temp.pdb
REMARK                            x       y       z     vdW  Elec       q    Type
REMARK                         _______ _______ _______ _____ _____    ______ ____
ROOT
ATOM      1  C1  UNL     1     146.740 151.521 162.846  0.00  0.00    +0.079 C 
ATOM      2  O1  UNL     1     147.593 152.002 163.871  0.00  0.00    -0.491 OA
ATOM      3  C2  UNL     1     148.472 152.997 163.538  0.00  0.00    +0.169 A 
ATOM      4  C3  UNL     1     148.619 153.551 162.279  0.00  0.00    +0.027 A 
ATOM      5  C4  UNL     1     149.560 154.568 162.067  0.00  0.00    +0.147 A 
ATOM      6  O2  UNL     1     149.599 155.026 160.768  0.00  0.00    -0.454 OA
ATOM      7  C5  UNL     1     150.477 156.037 160.449  0.00  0.00    +0.139 A 
ATOM      8  C6  UNL     1     150.435 156.451 159.034  0.00  0.00    +0.017 A 
ATOM      9  C7  UNL     1     150.457 157.806 158.665  0.00  0.00    -0.051 A 
ATOM     10  C8  UNL     1     150.407 158.180 157.319  0.00  0.00    -0.061 A 
ATOM     11  C9  UNL     1     150.330 157.206 156.325  0.00  0.00    -0.062 A 
ATOM     12  C10 UNL     1     150.299 155.859 156.676  0.00  0.00    -0.061 A 
ATOM     13  C11 UNL     1     150.347 155.484 158.021  0.00  0.00    -0.051 A 
ATOM     14  C12 UNL     1     151.319 156.593 161.322  0.00  0.00    +0.029 A 
ATOM     15  C13 UNL     1     151.343 156.152 162.732  0.00  0.00    +0.197 A 
ATOM     16  O3  UNL     1     152.150 156.729 163.453  0.00  0.00    -0.287 OA
ATOM     17  C14 UNL     1     150.379 155.059 163.108  0.00  0.00    +0.114 A 
ATOM     18  C15 UNL     1     150.271 154.525 164.422  0.00  0.00    +0.238 A 
ATOM     19  O4  UNL     1     150.951 154.878 165.451  0.00  0.00    -0.283 OA
ATOM     20  C16 UNL     1     149.293 153.493 164.558  0.00  0.00    +0.207 A 
ATOM     21  O5  UNL     1     149.183 152.968 165.838  0.00  0.00    -0.501 OA
ATOM     22  H   UNL     1     148.565 152.286 166.013  0.00  0.00    +0.000 HD
ENDROOT
TORSDOF 0
ENDMDL
MODEL 6
REMARK VINA RESULT:    -7.633      3.691      6.664
REMARK INTER + INTRA:          -7.633
REMARK INTER:                  -7.633
REMARK INTRA:                   0.000
REMARK UNBOUND:                 0.000
REMARK  Name = /home/vital/Documents/PhD_2021/Malaria_codes/scripts/../data/pdbqt_ligands/ligand_429_temp.pdb
REMARK                            x       y       z     vdW  Elec       q    Type
REMARK                         _______ _______ _______ _____ _____    ______ ____
ROOT
ATOM      1  C1  UNL     1     151.510 161.510 162.230  0.00  0.00    +0.079 C 
ATOM      2  O1  UNL     1     151.844 161.287 160.871  0.00  0.00    -0.491 OA
ATOM      3  C2  UNL     1     151.590 160.041 160.362  0.00  0.00    +0.169 A 
ATOM      4  C3  UNL     1     151.064 158.975 161.069  0.00  0.00    +0.027 A 
ATOM      5  C4  UNL     1     150.852 157.747 160.430  0.00  0.00    +0.147 A 
ATOM      6  O2  UNL     1     150.325 156.776 161.254  0.00  0.00    -0.454 OA
ATOM      7  C5  UNL     1     150.060 155.532 160.727  0.00  0.00    +0.139 A 
ATOM      8  C6  UNL     1     149.497 154.571 161.694  0.00  0.00    +0.017 A 
ATOM      9  C7  UNL     1     148.424 153.732 161.354  0.00  0.00    -0.051 A 
ATOM     10  C8  UNL     1     147.897 152.834 162.287  0.00  0.00    -0.061 A 
ATOM     11  C9  UNL     1     148.433 152.766 163.572  0.00  0.00    -0.062 A 
ATOM     12  C10 UNL     1     149.492 153.598 163.926  0.00  0.00    -0.061 A 
ATOM     13  C11 UNL     1     150.018 154.497 162.995  0.00  0.00    -0.051 A 
ATOM     14  C12 UNL     1     150.306 155.195 159.459  0.00  0.00    +0.029 A 
ATOM     15  C13 UNL     1     150.878 156.177 158.514  0.00  0.00    +0.197 A 
ATOM     16  O3  UNL     1     151.062 155.769 157.373  0.00  0.00    -0.287 OA
ATOM     17  C14 UNL     1     151.158 157.550 159.065  0.00  0.00    +0.114 A 
ATOM     18  C15 UNL     1     151.703 158.611 158.289  0.00  0.00    +0.238 A 
ATOM     19  O4  UNL     1     152.025 158.566 157.048  0.00  0.00    -0.283 OA
ATOM     20  C16 UNL     1     151.891 159.829 159.010  0.00  0.00    +0.207 A 
ATOM     21  O5  UNL     1     152.421 160.868 158.259  0.00  0.00    -0.501 OA
ATOM     22  H   UNL     1     152.577 161.702 158.657  0.00  0.00    +0.000 HD
ENDROOT
TORSDOF 0
ENDMDL
MODEL 7
REMARK VINA RESULT:    -7.566      3.322      7.068
REMARK INTER + INTRA:          -7.566
REMARK INTER:                  -7.566
REMARK INTRA:                   0.000
REMARK UNBOUND:                 0.000
REMARK  Name = /home/vital/Documents/PhD_2021/Malaria_codes/scripts/../data/pdbqt_ligands/ligand_429_temp.pdb
REMARK                            x       y       z     vdW  Elec       q    Type
REMARK                         _______ _______ _______ _____ _____    ______ ____
ROOT
ATOM      1  C1  UNL     1     151.613 162.168 158.528  0.00  0.00    +0.079 C 
ATOM      2  O1  UNL     1     151.507 161.105 157.596  0.00  0.00    -0.491 OA
ATOM      3  C2  UNL     1     151.469 159.833 158.101  0.00  0.00    +0.169 A 
ATOM      4  C3  UNL     1     151.557 159.496 159.440  0.00  0.00    +0.027 A 
ATOM      5  C4  UNL     1     151.506 158.151 159.829  0.00  0.00    +0.147 A 
ATOM      6  O2  UNL     1     151.605 157.963 161.190  0.00  0.00    -0.454 OA
ATOM      7  C5  UNL     1     151.551 156.680 161.687  0.00  0.00    +0.139 A 
ATOM      8  C6  UNL     1     151.665 156.593 163.156  0.00  0.00    +0.017 A 
ATOM      9  C7  UNL     1     150.836 155.744 163.906  0.00  0.00    -0.051 A 
ATOM     10  C8  UNL     1     150.951 155.682 165.298  0.00  0.00    -0.061 A 
ATOM     11  C9  UNL     1     151.892 156.471 165.957  0.00  0.00    -0.062 A 
ATOM     12  C10 UNL     1     152.715 157.324 165.227  0.00  0.00    -0.061 A 
ATOM     13  C11 UNL     1     152.600 157.388 163.836  0.00  0.00    -0.051 A 
ATOM     14  C12 UNL     1     151.431 155.592 160.923  0.00  0.00    +0.029 A 
ATOM     15  C13 UNL     1     151.328 155.709 159.454  0.00  0.00    +0.197 A 
ATOM     16  O3  UNL     1     151.217 154.651 158.846  0.00  0.00    -0.287 OA
ATOM     17  C14 UNL     1     151.367 157.105 158.891  0.00  0.00    +0.114 A 
ATOM     18  C15 UNL     1     151.273 157.392 157.500  0.00  0.00    +0.238 A 
ATOM     19  O4  UNL     1     151.145 156.542 156.548  0.00  0.00    -0.283 OA
ATOM     20  C16 UNL     1     151.334 158.784 157.183  0.00  0.00    +0.207 A 
ATOM     21  O5  UNL     1     151.243 159.071 155.829  0.00  0.00    -0.501 OA
ATOM     22  H   UNL     1     151.275 159.960 155.535  0.00  0.00    +0.000 HD
ENDROOT
TORSDOF 0
ENDMDL
MODEL 8
REMARK VINA RESULT:    -7.489      5.009      7.642
REMARK INTER + INTRA:          -7.489
REMARK INTER:                  -7.489
REMARK INTRA:                   0.000
REMARK UNBOUND:                 0.000
REMARK  Name = /home/vital/Documents/PhD_2021/Malaria_codes/scripts/../data/pdbqt_ligands/ligand_429_temp.pdb
REMARK                            x       y       z     vdW  Elec       q    Type
REMARK                         _______ _______ _______ _____ _____    ______ ____
ROOT
ATOM      1  C1  UNL     1     148.482 152.588 165.324  0.00  0.00    +0.079 C 
ATOM      2  O1  UNL     1     149.334 153.450 166.059  0.00  0.00    -0.491 OA
ATOM      3  C2  UNL     1     149.969 154.444 165.364  0.00  0.00    +0.169 A 
ATOM      4  C3  UNL     1     149.872 154.659 164.001  0.00  0.00    +0.027 A 
ATOM      5  C4  UNL     1     150.575 155.715 163.406  0.00  0.00    +0.147 A 
ATOM      6  O2  UNL     1     150.387 155.811 162.045  0.00  0.00    -0.454 OA
ATOM      7  C5  UNL     1     151.018 156.824 161.358  0.00  0.00    +0.139 A 
ATOM      8  C6  UNL     1     150.747 156.835 159.909  0.00  0.00    +0.017 A 
ATOM      9  C7  UNL     1     150.473 158.028 159.223  0.00  0.00    -0.051 A 
ATOM     10  C8  UNL     1     150.208 158.018 157.850  0.00  0.00    -0.061 A 
ATOM     11  C9  UNL     1     150.209 156.815 157.147  0.00  0.00    -0.062 A 
ATOM     12  C10 UNL     1     150.472 155.622 157.815  0.00  0.00    -0.061 A 
ATOM     13  C11 UNL     1     150.735 155.631 159.188  0.00  0.00    -0.051 A 
ATOM     14  C12 UNL     1     151.829 157.716 161.931  0.00  0.00    +0.029 A 
ATOM     15  C13 UNL     1     152.089 157.675 163.385  0.00  0.00    +0.197 A 
ATOM     16  O3  UNL     1     152.845 158.541 163.812  0.00  0.00    -0.287 OA
ATOM     17  C14 UNL     1     151.394 156.586 164.158  0.00  0.00    +0.114 A 
ATOM     18  C15 UNL     1     151.532 156.411 165.563  0.00  0.00    +0.238 A 
ATOM     19  O4  UNL     1     152.239 157.126 166.360  0.00  0.00    -0.283 OA
ATOM     20  C16 UNL     1     150.787 155.315 166.095  0.00  0.00    +0.207 A 
ATOM     21  O5  UNL     1     150.916 155.138 167.464  0.00  0.00    -0.501 OA
ATOM     22  H   UNL     1     150.460 154.441 167.893  0.00  0.00    +0.000 HD
ENDROOT
TORSDOF 0
ENDMDL
MODEL 9
REMARK VINA RESULT:    -7.172      4.197      8.878
REMARK INTER + INTRA:          -7.172
REMARK INTER:                  -7.172
REMARK INTRA:                   0.000
REMARK UNBOUND:                 0.000
REMARK  Name = /home/vital/Documents/PhD_2021/Malaria_codes/scripts/../data/pdbqt_ligands/ligand_429_temp.pdb
REMARK                            x       y       z     vdW  Elec       q    Type
REMARK                         _______ _______ _______ _____ _____    ______ ____
ROOT
ATOM      1  C1  UNL     1     150.102 154.686 162.344  0.00  0.00    +0.079 C 
ATOM      2  O1  UNL     1     150.414 155.146 161.040  0.00  0.00    -0.491 OA
ATOM      3  C2  UNL     1     150.606 156.492 160.881  0.00  0.00    +0.169 A 
ATOM      4  C3  UNL     1     150.491 157.444 161.879  0.00  0.00    +0.027 A 
ATOM      5  C4  UNL     1     150.713 158.796 161.586  0.00  0.00    +0.147 A 
ATOM      6  O2  UNL     1     150.565 159.630 162.672  0.00  0.00    -0.454 OA
ATOM      7  C5  UNL     1     150.775 160.980 162.504  0.00  0.00    +0.139 A 
ATOM      8  C6  UNL     1     150.591 161.780 163.730  0.00  0.00    +0.017 A 
ATOM      9  C7  UNL     1     151.490 162.800 164.081  0.00  0.00    -0.051 A 
ATOM     10  C8  UNL     1     151.306 163.542 165.252  0.00  0.00    -0.061 A 
ATOM     11  C9  UNL     1     150.225 163.270 166.088  0.00  0.00    -0.062 A 
ATOM     12  C10 UNL     1     149.330 162.256 165.757  0.00  0.00    -0.061 A 
ATOM     13  C11 UNL     1     149.514 161.513 164.588  0.00  0.00    -0.051 A 
ATOM     14  C12 UNL     1     151.094 161.542 161.336  0.00  0.00    +0.029 A 
ATOM     15  C13 UNL     1     151.264 160.716 160.123  0.00  0.00    +0.197 A 
ATOM     16  O3  UNL     1     151.560 161.329 159.103  0.00  0.00    -0.287 OA
ATOM     17  C14 UNL     1     151.056 159.235 160.288  0.00  0.00    +0.114 A 
ATOM     18  C15 UNL     1     151.186 158.300 159.223  0.00  0.00    +0.238 A 
ATOM     19  O4  UNL     1     151.490 158.563 158.005  0.00  0.00    -0.283 OA
ATOM     20  C16 UNL     1     150.944 156.944 159.599  0.00  0.00    +0.207 A 
ATOM     21  O5  UNL     1     151.069 156.027 158.566  0.00  0.00    -0.501 OA
ATOM     22  H   UNL     1     150.926 155.115 158.727  0.00  0.00    +0.000 HD
ENDROOT
TORSDOF 0
ENDMDL
