MODEL 1
REMARK VINA RESULT:    -7.101      0.000      0.000
REMARK INTER + INTRA:          -7.101
REMARK INTER:                  -7.101
REMARK INTRA:                   0.000
REMARK UNBOUND:                 0.000
REMARK  Name = /home/vital/Documents/PhD_2021/Malaria_codes/scripts/../data/pdbqt_ligands/ligand_64_temp.pdb
REMARK                            x       y       z     vdW  Elec       q    Type
REMARK                         _______ _______ _______ _____ _____    ______ ____
ROOT
ATOM      1  C   UNL     1     150.988 160.384 169.277  0.00  0.00    -0.061 C 
ATOM      2  C   UNL     1     151.150 160.186 167.772  0.00  0.00    -0.028 C 
ATOM      3  C   UNL     1     152.049 161.276 167.169  0.00  0.00    -0.045 C 
ATOM      4  C   UNL     1     152.521 160.955 165.737  0.00  0.00    -0.028 C 
ATOM      5  C   UNL     1     154.042 160.767 165.695  0.00  0.00    -0.061 C 
ATOM      6  C   UNL     1     151.806 159.734 165.145  0.00  0.00    +0.018 C 
ATOM      7  N   UNL     1     151.878 158.567 166.020  0.00  0.00    -0.297 N 
ATOM      8  C   UNL     1     151.871 157.309 165.429  0.00  0.00    +0.249 C 
ATOM      9  O   UNL     1     151.795 157.098 164.223  0.00  0.00    -0.270 OA
ATOM     10  C   UNL     1     151.999 156.122 166.290  0.00  0.00    +0.068 A 
ATOM     11  C   UNL     1     153.204 155.907 166.970  0.00  0.00    -0.029 A 
ATOM     12  C   UNL     1     153.373 154.738 167.712  0.00  0.00    +0.042 A 
ATOM     13 CL   UNL     1     154.847 154.476 168.559  0.00  0.00    -0.084 Cl
ATOM     14  C   UNL     1     152.362 153.773 167.769  0.00  0.00    -0.041 A 
ATOM     15  C   UNL     1     151.164 153.976 167.080  0.00  0.00    -0.029 A 
ATOM     16  C   UNL     1     150.994 155.155 166.341  0.00  0.00    +0.138 A 
ATOM     17  N   UNL     1     149.722 155.377 165.680  0.00  0.00    +0.057 N 
ATOM     18  O   UNL     1     149.295 154.466 164.959  0.00  0.00    -0.126 OA
ATOM     19  O   UNL     1     149.121 156.424 165.955  0.00  0.00    -0.126 OA
ATOM     20  C   UNL     1     151.703 158.792 167.458  0.00  0.00    +0.018 C 
ENDROOT
TORSDOF 0
ENDMDL
MODEL 2
REMARK VINA RESULT:    -6.734      2.134      2.391
REMARK INTER + INTRA:          -6.734
REMARK INTER:                  -6.734
REMARK INTRA:                   0.000
REMARK UNBOUND:                 0.000
REMARK  Name = /home/vital/Documents/PhD_2021/Malaria_codes/scripts/../data/pdbqt_ligands/ligand_64_temp.pdb
REMARK                            x       y       z     vdW  Elec       q    Type
REMARK                         _______ _______ _______ _____ _____    ______ ____
ROOT
ATOM      1  C   UNL     1     149.245 161.167 167.118  0.00  0.00    -0.061 C 
ATOM      2  C   UNL     1     150.548 161.059 166.330  0.00  0.00    -0.028 C 
ATOM      3  C   UNL     1     151.637 161.949 166.947  0.00  0.00    -0.045 C 
ATOM      4  C   UNL     1     153.051 161.643 166.414  0.00  0.00    -0.028 C 
ATOM      5  C   UNL     1     153.950 161.102 167.533  0.00  0.00    -0.061 C 
ATOM      6  C   UNL     1     153.030 160.680 165.221  0.00  0.00    +0.018 C 
ATOM      7  N   UNL     1     152.274 159.462 165.500  0.00  0.00    -0.297 N 
ATOM      8  C   UNL     1     152.659 158.293 164.852  0.00  0.00    +0.249 C 
ATOM      9  O   UNL     1     153.580 158.206 164.048  0.00  0.00    -0.270 OA
ATOM     10  C   UNL     1     151.945 157.044 165.163  0.00  0.00    +0.068 A 
ATOM     11  C   UNL     1     152.072 156.494 166.444  0.00  0.00    -0.029 A 
ATOM     12  C   UNL     1     151.480 155.262 166.723  0.00  0.00    +0.042 A 
ATOM     13 CL   UNL     1     151.623 154.589 168.298  0.00  0.00    -0.084 Cl
ATOM     14  C   UNL     1     150.779 154.564 165.733  0.00  0.00    -0.041 A 
ATOM     15  C   UNL     1     150.664 155.101 164.449  0.00  0.00    -0.029 A 
ATOM     16  C   UNL     1     151.253 156.343 164.174  0.00  0.00    +0.138 A 
ATOM     17  N   UNL     1     151.073 156.915 162.853  0.00  0.00    +0.057 N 
ATOM     18  O   UNL     1     151.345 156.194 161.885  0.00  0.00    -0.126 OA
ATOM     19  O   UNL     1     150.579 158.049 162.794  0.00  0.00    -0.126 OA
ATOM     20  C   UNL     1     151.020 159.604 166.246  0.00  0.00    +0.018 C 
ENDROOT
TORSDOF 0
ENDMDL
MODEL 3
REMARK VINA RESULT:    -6.548      2.760      5.685
REMARK INTER + INTRA:          -6.548
REMARK INTER:                  -6.548
REMARK INTRA:                   0.000
REMARK UNBOUND:                 0.000
REMARK  Name = /home/vital/Documents/PhD_2021/Malaria_codes/scripts/../data/pdbqt_ligands/ligand_64_temp.pdb
REMARK                            x       y       z     vdW  Elec       q    Type
REMARK                         _______ _______ _______ _____ _____    ______ ____
ROOT
ATOM      1  C   UNL     1     152.564 157.275 163.552  0.00  0.00    -0.061 C 
ATOM      2  C   UNL     1     151.493 157.051 164.616  0.00  0.00    -0.028 C 
ATOM      3  C   UNL     1     151.378 155.562 164.973  0.00  0.00    -0.045 C 
ATOM      4  C   UNL     1     150.565 155.302 166.257  0.00  0.00    -0.028 C 
ATOM      5  C   UNL     1     151.454 154.698 167.351  0.00  0.00    -0.061 C 
ATOM      6  C   UNL     1     149.857 156.564 166.766  0.00  0.00    +0.018 C 
ATOM      7  N   UNL     1     150.770 157.694 166.915  0.00  0.00    -0.297 N 
ATOM      8  C   UNL     1     150.486 158.636 167.896  0.00  0.00    +0.249 C 
ATOM      9  O   UNL     1     149.514 158.602 168.643  0.00  0.00    -0.270 OA
ATOM     10  C   UNL     1     151.424 159.752 168.098  0.00  0.00    +0.068 A 
ATOM     11  C   UNL     1     152.704 159.478 168.593  0.00  0.00    -0.029 A 
ATOM     12  C   UNL     1     153.570 160.533 168.881  0.00  0.00    +0.042 A 
ATOM     13 CL   UNL     1     155.148 160.200 169.476  0.00  0.00    -0.084 Cl
ATOM     14  C   UNL     1     153.165 161.860 168.698  0.00  0.00    -0.041 A 
ATOM     15  C   UNL     1     151.883 162.140 168.221  0.00  0.00    -0.029 A 
ATOM     16  C   UNL     1     151.018 161.077 167.925  0.00  0.00    +0.138 A 
ATOM     17  N   UNL     1     149.712 161.383 167.374  0.00  0.00    +0.057 N 
ATOM     18  O   UNL     1     149.025 162.214 167.981  0.00  0.00    -0.126 OA
ATOM     19  O   UNL     1     149.421 160.853 166.292  0.00  0.00    -0.126 OA
ATOM     20  C   UNL     1     151.777 157.888 165.867  0.00  0.00    +0.018 C 
ENDROOT
TORSDOF 0
ENDMDL
MODEL 4
REMARK VINA RESULT:    -6.252      3.002      3.787
REMARK INTER + INTRA:          -6.252
REMARK INTER:                  -6.252
REMARK INTRA:                   0.000
REMARK UNBOUND:                 0.000
REMARK  Name = /home/vital/Documents/PhD_2021/Malaria_codes/scripts/../data/pdbqt_ligands/ligand_64_temp.pdb
REMARK                            x       y       z     vdW  Elec       q    Type
REMARK                         _______ _______ _______ _____ _____    ______ ____
ROOT
ATOM      1  C   UNL     1     148.429 161.962 167.445  0.00  0.00    -0.061 C 
ATOM      2  C   UNL     1     149.751 162.356 166.790  0.00  0.00    -0.028 C 
ATOM      3  C   UNL     1     150.519 163.357 167.666  0.00  0.00    -0.045 C 
ATOM      4  C   UNL     1     151.989 163.541 167.236  0.00  0.00    -0.028 C 
ATOM      5  C   UNL     1     152.942 163.040 168.328  0.00  0.00    -0.061 C 
ATOM      6  C   UNL     1     152.295 162.865 165.895  0.00  0.00    +0.018 C 
ATOM      7  N   UNL     1     151.890 161.462 165.872  0.00  0.00    -0.297 N 
ATOM      8  C   UNL     1     152.614 160.588 165.069  0.00  0.00    +0.249 C 
ATOM      9  O   UNL     1     153.564 160.906 164.362  0.00  0.00    -0.270 OA
ATOM     10  C   UNL     1     152.256 159.160 165.076  0.00  0.00    +0.068 A 
ATOM     11  C   UNL     1     152.463 158.417 166.244  0.00  0.00    -0.029 A 
ATOM     12  C   UNL     1     152.219 157.043 166.235  0.00  0.00    +0.042 A 
ATOM     13 CL   UNL     1     152.459 156.129 167.671  0.00  0.00    -0.084 Cl
ATOM     14  C   UNL     1     151.790 156.400 165.069  0.00  0.00    -0.041 A 
ATOM     15  C   UNL     1     151.598 157.135 163.897  0.00  0.00    -0.029 A 
ATOM     16  C   UNL     1     151.836 158.516 163.911  0.00  0.00    +0.138 A 
ATOM     17  N   UNL     1     151.574 159.274 162.702  0.00  0.00    +0.057 N 
ATOM     18  O   UNL     1     152.085 158.857 161.654  0.00  0.00    -0.126 OA
ATOM     19  O   UNL     1     150.791 160.229 162.796  0.00  0.00    -0.126 OA
ATOM     20  C   UNL     1     150.608 161.122 166.497  0.00  0.00    +0.018 C 
ENDROOT
TORSDOF 0
ENDMDL
MODEL 5
REMARK VINA RESULT:    -6.142      3.068      4.283
REMARK INTER + INTRA:          -6.142
REMARK INTER:                  -6.142
REMARK INTRA:                   0.000
REMARK UNBOUND:                 0.000
REMARK  Name = /home/vital/Documents/PhD_2021/Malaria_codes/scripts/../data/pdbqt_ligands/ligand_64_temp.pdb
REMARK                            x       y       z     vdW  Elec       q    Type
REMARK                         _______ _______ _______ _____ _____    ______ ____
ROOT
ATOM      1  C   UNL     1     155.477 161.678 167.925  0.00  0.00    -0.061 C 
ATOM      2  C   UNL     1     154.140 161.301 168.557  0.00  0.00    -0.028 C 
ATOM      3  C   UNL     1     153.435 162.541 169.129  0.00  0.00    -0.045 C 
ATOM      4  C   UNL     1     151.954 162.295 169.480  0.00  0.00    -0.028 C 
ATOM      5  C   UNL     1     151.036 163.142 168.590  0.00  0.00    -0.061 C 
ATOM      6  C   UNL     1     151.573 160.812 169.399  0.00  0.00    +0.018 C 
ATOM      7  N   UNL     1     151.940 160.211 168.119  0.00  0.00    -0.297 N 
ATOM      8  C   UNL     1     151.160 159.163 167.644  0.00  0.00    +0.249 C 
ATOM      9  O   UNL     1     150.189 158.690 168.225  0.00  0.00    -0.270 OA
ATOM     10  C   UNL     1     151.480 158.581 166.331  0.00  0.00    +0.068 A 
ATOM     11  C   UNL     1     151.304 159.364 165.183  0.00  0.00    -0.029 A 
ATOM     12  C   UNL     1     151.512 158.796 163.926  0.00  0.00    +0.042 A 
ATOM     13 CL   UNL     1     151.310 159.758 162.516  0.00  0.00    -0.084 Cl
ATOM     14  C   UNL     1     151.874 157.451 163.800  0.00  0.00    -0.041 A 
ATOM     15  C   UNL     1     152.035 156.661 164.941  0.00  0.00    -0.029 A 
ATOM     16  C   UNL     1     151.834 157.237 166.203  0.00  0.00    +0.138 A 
ATOM     17  N   UNL     1     152.063 156.419 167.380  0.00  0.00    +0.057 N 
ATOM     18  O   UNL     1     151.497 155.320 167.420  0.00  0.00    -0.126 OA
ATOM     19  O   UNL     1     152.873 156.848 168.212  0.00  0.00    -0.126 OA
ATOM     20  C   UNL     1     153.238 160.583 167.549  0.00  0.00    +0.018 C 
ENDROOT
TORSDOF 0
ENDMDL
MODEL 6
REMARK VINA RESULT:    -6.047     12.710     15.193
REMARK INTER + INTRA:          -6.047
REMARK INTER:                  -6.047
REMARK INTRA:                   0.000
REMARK UNBOUND:                 0.000
REMARK  Name = /home/vital/Documents/PhD_2021/Malaria_codes/scripts/../data/pdbqt_ligands/ligand_64_temp.pdb
REMARK                            x       y       z     vdW  Elec       q    Type
REMARK                         _______ _______ _______ _____ _____    ______ ____
ROOT
ATOM      1  C   UNL     1     145.674 148.453 164.314  0.00  0.00    -0.061 C 
ATOM      2  C   UNL     1     144.769 148.184 165.514  0.00  0.00    -0.028 C 
ATOM      3  C   UNL     1     144.028 149.461 165.938  0.00  0.00    -0.045 C 
ATOM      4  C   UNL     1     142.865 149.196 166.914  0.00  0.00    -0.028 C 
ATOM      5  C   UNL     1     141.521 149.561 166.271  0.00  0.00    -0.061 C 
ATOM      6  C   UNL     1     142.848 147.751 167.427  0.00  0.00    +0.018 C 
ATOM      7  N   UNL     1     142.885 146.775 166.341  0.00  0.00    -0.297 N 
ATOM      8  C   UNL     1     142.266 145.547 166.548  0.00  0.00    +0.249 C 
ATOM      9  O   UNL     1     141.699 145.211 167.582  0.00  0.00    -0.270 OA
ATOM     10  C   UNL     1     142.245 144.571 165.447  0.00  0.00    +0.068 A 
ATOM     11  C   UNL     1     141.501 144.865 164.297  0.00  0.00    -0.029 A 
ATOM     12  C   UNL     1     141.393 143.909 163.287  0.00  0.00    +0.042 A 
ATOM     13 CL   UNL     1     140.492 144.271 161.868  0.00  0.00    -0.084 Cl
ATOM     14  C   UNL     1     142.003 142.657 163.418  0.00  0.00    -0.041 A 
ATOM     15  C   UNL     1     142.732 142.352 164.570  0.00  0.00    -0.029 A 
ATOM     16  C   UNL     1     142.846 143.318 165.580  0.00  0.00    +0.138 A 
ATOM     17  N   UNL     1     143.656 143.008 166.743  0.00  0.00    +0.057 N 
ATOM     18  O   UNL     1     143.422 141.942 167.325  0.00  0.00    -0.126 OA
ATOM     19  O   UNL     1     144.575 143.793 167.012  0.00  0.00    -0.126 OA
ATOM     20  C   UNL     1     143.777 147.057 165.212  0.00  0.00    +0.018 C 
ENDROOT
TORSDOF 0
ENDMDL
MODEL 7
REMARK VINA RESULT:    -5.877     13.830     16.035
REMARK INTER + INTRA:          -5.877
REMARK INTER:                  -5.877
REMARK INTRA:                   0.000
REMARK UNBOUND:                 0.000
REMARK  Name = /home/vital/Documents/PhD_2021/Malaria_codes/scripts/../data/pdbqt_ligands/ligand_64_temp.pdb
REMARK                            x       y       z     vdW  Elec       q    Type
REMARK                         _______ _______ _______ _____ _____    ______ ____
ROOT
ATOM      1  C   UNL     1     141.370 146.853 163.005  0.00  0.00    -0.061 C 
ATOM      2  C   UNL     1     142.647 146.763 163.838  0.00  0.00    -0.028 C 
ATOM      3  C   UNL     1     142.677 147.858 164.915  0.00  0.00    -0.045 C 
ATOM      4  C   UNL     1     143.757 147.627 165.990  0.00  0.00    -0.028 C 
ATOM      5  C   UNL     1     143.116 147.381 167.362  0.00  0.00    -0.061 C 
ATOM      6  C   UNL     1     144.713 146.486 165.624  0.00  0.00    +0.018 C 
ATOM      7  N   UNL     1     144.005 145.254 165.285  0.00  0.00    -0.297 N 
ATOM      8  C   UNL     1     144.640 144.045 165.548  0.00  0.00    +0.249 C 
ATOM      9  O   UNL     1     145.761 143.930 166.033  0.00  0.00    -0.270 OA
ATOM     10  C   UNL     1     143.921 142.792 165.265  0.00  0.00    +0.068 A 
ATOM     11  C   UNL     1     142.788 142.477 166.025  0.00  0.00    -0.029 A 
ATOM     12  C   UNL     1     142.154 141.249 165.834  0.00  0.00    +0.042 A 
ATOM     13 CL   UNL     1     140.754 140.864 166.755  0.00  0.00    -0.084 Cl
ATOM     14  C   UNL     1     142.648 140.325 164.907  0.00  0.00    -0.041 A 
ATOM     15  C   UNL     1     143.787 140.628 164.159  0.00  0.00    -0.029 A 
ATOM     16  C   UNL     1     144.418 141.865 164.347  0.00  0.00    +0.138 A 
ATOM     17  N   UNL     1     145.565 142.189 163.520  0.00  0.00    +0.057 N 
ATOM     18  O   UNL     1     146.476 141.353 163.469  0.00  0.00    -0.126 OA
ATOM     19  O   UNL     1     145.505 143.236 162.861  0.00  0.00    -0.126 OA
ATOM     20  C   UNL     1     142.792 145.376 164.471  0.00  0.00    +0.018 C 
ENDROOT
TORSDOF 0
ENDMDL
MODEL 8
REMARK VINA RESULT:    -5.709     11.808     15.122
REMARK INTER + INTRA:          -5.709
REMARK INTER:                  -5.709
REMARK INTRA:                   0.000
REMARK UNBOUND:                 0.000
REMARK  Name = /home/vital/Documents/PhD_2021/Malaria_codes/scripts/../data/pdbqt_ligands/ligand_64_temp.pdb
REMARK                            x       y       z     vdW  Elec       q    Type
REMARK                         _______ _______ _______ _____ _____    ______ ____
ROOT
ATOM      1  C   UNL     1     141.490 143.542 162.879  0.00  0.00    -0.061 C 
ATOM      2  C   UNL     1     142.150 143.395 164.248  0.00  0.00    -0.028 C 
ATOM      3  C   UNL     1     142.948 142.085 164.333  0.00  0.00    -0.045 C 
ATOM      4  C   UNL     1     143.898 142.027 165.546  0.00  0.00    -0.028 C 
ATOM      5  C   UNL     1     145.362 141.981 165.088  0.00  0.00    -0.061 C 
ATOM      6  C   UNL     1     143.670 143.185 166.524  0.00  0.00    +0.018 C 
ATOM      7  N   UNL     1     143.704 144.487 165.863  0.00  0.00    -0.297 N 
ATOM      8  C   UNL     1     144.141 145.581 166.602  0.00  0.00    +0.249 C 
ATOM      9  O   UNL     1     144.490 145.542 167.777  0.00  0.00    -0.270 OA
ATOM     10  C   UNL     1     144.235 146.891 165.938  0.00  0.00    +0.068 A 
ATOM     11  C   UNL     1     145.186 147.069 164.925  0.00  0.00    -0.029 A 
ATOM     12  C   UNL     1     145.352 148.331 164.354  0.00  0.00    +0.042 A 
ATOM     13 CL   UNL     1     146.508 148.551 163.101  0.00  0.00    -0.084 Cl
ATOM     14  C   UNL     1     144.594 149.421 164.794  0.00  0.00    -0.041 A 
ATOM     15  C   UNL     1     143.656 149.253 165.816  0.00  0.00    -0.029 A 
ATOM     16  C   UNL     1     143.486 147.982 166.382  0.00  0.00    +0.138 A 
ATOM     17  N   UNL     1     142.466 147.811 167.400  0.00  0.00    +0.057 N 
ATOM     18  O   UNL     1     142.482 148.602 168.352  0.00  0.00    -0.126 OA
ATOM     19  O   UNL     1     141.608 146.942 167.194  0.00  0.00    -0.126 OA
ATOM     20  C   UNL     1     143.047 144.597 164.557  0.00  0.00    +0.018 C 
ENDROOT
TORSDOF 0
ENDMDL
MODEL 9
REMARK VINA RESULT:    -5.541     14.311     16.424
REMARK INTER + INTRA:          -5.541
REMARK INTER:                  -5.541
REMARK INTRA:                   0.000
REMARK UNBOUND:                 0.000
REMARK  Name = /home/vital/Documents/PhD_2021/Malaria_codes/scripts/../data/pdbqt_ligands/ligand_64_temp.pdb
REMARK                            x       y       z     vdW  Elec       q    Type
REMARK                         _______ _______ _______ _____ _____    ______ ____
ROOT
ATOM      1  C   UNL     1     141.796 140.751 165.670  0.00  0.00    -0.061 C 
ATOM      2  C   UNL     1     143.143 141.458 165.540  0.00  0.00    -0.028 C 
ATOM      3  C   UNL     1     144.120 140.625 164.697  0.00  0.00    -0.045 C 
ATOM      4  C   UNL     1     145.367 141.413 164.250  0.00  0.00    -0.028 C 
ATOM      5  C   UNL     1     145.397 141.567 162.724  0.00  0.00    -0.061 C 
ATOM      6  C   UNL     1     145.471 142.780 164.937  0.00  0.00    +0.018 C 
ATOM      7  N   UNL     1     144.248 143.567 164.800  0.00  0.00    -0.297 N 
ATOM      8  C   UNL     1     144.363 144.952 164.777  0.00  0.00    +0.249 C 
ATOM      9  O   UNL     1     145.418 145.572 164.877  0.00  0.00    -0.270 OA
ATOM     10  C   UNL     1     143.149 145.761 164.585  0.00  0.00    +0.068 A 
ATOM     11  C   UNL     1     142.481 145.696 163.356  0.00  0.00    -0.029 A 
ATOM     12  C   UNL     1     141.385 146.528 163.126  0.00  0.00    +0.042 A 
ATOM     13 CL   UNL     1     140.555 146.442 161.623  0.00  0.00    -0.084 Cl
ATOM     14  C   UNL     1     140.960 147.437 164.100  0.00  0.00    -0.041 A 
ATOM     15  C   UNL     1     141.632 147.517 165.322  0.00  0.00    -0.029 A 
ATOM     16  C   UNL     1     142.728 146.674 165.553  0.00  0.00    +0.138 A 
ATOM     17  N   UNL     1     143.379 146.727 166.849  0.00  0.00    +0.057 N 
ATOM     18  O   UNL     1     143.721 147.842 167.262  0.00  0.00    -0.126 OA
ATOM     19  O   UNL     1     143.463 145.664 167.479  0.00  0.00    -0.126 OA
ATOM     20  C   UNL     1     142.972 142.859 164.946  0.00  0.00    +0.018 C 
ENDROOT
TORSDOF 0
ENDMDL
