MODEL 1
REMARK VINA RESULT:    -7.093      0.000      0.000
REMARK INTER + INTRA:          -7.093
REMARK INTER:                  -7.093
REMARK INTRA:                   0.000
REMARK UNBOUND:                 0.000
REMARK  Name = /home/vital/Documents/PhD_2021/Malaria_codes/scripts/../data/pdbqt_ligands/ligand_326_temp.pdb
REMARK                            x       y       z     vdW  Elec       q    Type
REMARK                         _______ _______ _______ _____ _____    ______ ____
ROOT
ATOM      1  C1  UNL     1     152.362 154.585 160.649  0.00  0.00    -0.047 C 
ATOM      2  C2  UNL     1     151.166 155.480 160.425  0.00  0.00    +0.100 C 
ATOM      3  C3  UNL     1     150.448 155.267 159.138  0.00  0.00    +0.316 C 
ATOM      4  O1  UNL     1     149.390 154.659 159.076  0.00  0.00    -0.250 OA
ATOM      5  O2  UNL     1     151.132 155.799 158.095  0.00  0.00    -0.459 OA
ATOM      6  C4  UNL     1     150.474 155.636 156.835  0.00  0.00    +0.120 C 
ATOM      7  C5  UNL     1     151.232 156.422 155.799  0.00  0.00    +0.028 A 
ATOM      8  C6  UNL     1     151.521 157.784 155.996  0.00  0.00    -0.050 A 
ATOM      9  C7  UNL     1     152.210 158.511 155.022  0.00  0.00    -0.023 A 
ATOM     10  C8  UNL     1     152.608 157.881 153.847  0.00  0.00    +0.161 A 
ATOM     11  F1  UNL     1     153.269 158.585 152.918  0.00  0.00    -0.202 F 
ATOM     12  C9  UNL     1     152.323 156.540 153.633  0.00  0.00    +0.194 A 
ATOM     13  F2  UNL     1     152.704 155.942 152.496  0.00  0.00    -0.199 F 
ATOM     14  C10 UNL     1     151.636 155.819 154.604  0.00  0.00    +0.168 A 
ATOM     15  F3  UNL     1     151.358 154.525 154.385  0.00  0.00    -0.202 F 
ATOM     16  C11 UNL     1     150.337 155.821 161.654  0.00  0.00    -0.001 C 
ATOM     17  C12 UNL     1     151.155 156.892 160.992  0.00  0.00    +0.135 C 
ATOM     18 CL1  UNL     1     152.561 157.502 161.866  0.00  0.00    -0.100 Cl
ATOM     19 CL2  UNL     1     150.262 158.185 160.186  0.00  0.00    -0.100 Cl
ENDROOT
TORSDOF 0
ENDMDL
MODEL 2
REMARK VINA RESULT:    -6.659      1.873      2.087
REMARK INTER + INTRA:          -6.659
REMARK INTER:                  -6.659
REMARK INTRA:                   0.000
REMARK UNBOUND:                 0.000
REMARK  Name = /home/vital/Documents/PhD_2021/Malaria_codes/scripts/../data/pdbqt_ligands/ligand_326_temp.pdb
REMARK                            x       y       z     vdW  Elec       q    Type
REMARK                         _______ _______ _______ _____ _____    ______ ____
ROOT
ATOM      1  C1  UNL     1     152.557 157.837 161.461  0.00  0.00    -0.047 C 
ATOM      2  C2  UNL     1     151.278 158.334 160.829  0.00  0.00    +0.100 C 
ATOM      3  C3  UNL     1     150.687 157.432 159.803  0.00  0.00    +0.316 C 
ATOM      4  O1  UNL     1     149.719 156.724 160.039  0.00  0.00    -0.250 OA
ATOM      5  O2  UNL     1     151.372 157.492 158.635  0.00  0.00    -0.459 OA
ATOM      6  C4  UNL     1     150.832 156.654 157.609  0.00  0.00    +0.120 C 
ATOM      7  C5  UNL     1     151.559 156.949 156.324  0.00  0.00    +0.028 A 
ATOM      8  C6  UNL     1     151.662 158.265 155.839  0.00  0.00    -0.050 A 
ATOM      9  C7  UNL     1     152.325 158.527 154.637  0.00  0.00    -0.023 A 
ATOM     10  C8  UNL     1     152.881 157.477 153.914  0.00  0.00    +0.161 A 
ATOM     11  F1  UNL     1     153.514 157.737 152.762  0.00  0.00    -0.202 F 
ATOM     12  C9  UNL     1     152.779 156.171 154.375  0.00  0.00    +0.194 A 
ATOM     13  F2  UNL     1     153.312 155.164 153.669  0.00  0.00    -0.199 F 
ATOM     14  C10 UNL     1     152.119 155.912 155.571  0.00  0.00    +0.168 A 
ATOM     15  F3  UNL     1     152.019 154.647 156.004  0.00  0.00    -0.202 F 
ATOM     16  C11 UNL     1     150.327 159.100 161.738  0.00  0.00    -0.001 C 
ATOM     17  C12 UNL     1     151.052 159.828 160.643  0.00  0.00    +0.135 C 
ATOM     18 CL1  UNL     1     152.305 160.975 161.117  0.00  0.00    -0.100 Cl
ATOM     19 CL2  UNL     1     150.066 160.435 159.309  0.00  0.00    -0.100 Cl
ENDROOT
TORSDOF 0
ENDMDL
MODEL 3
REMARK VINA RESULT:    -6.658      3.569      4.482
REMARK INTER + INTRA:          -6.658
REMARK INTER:                  -6.658
REMARK INTRA:                   0.000
REMARK UNBOUND:                 0.000
REMARK  Name = /home/vital/Documents/PhD_2021/Malaria_codes/scripts/../data/pdbqt_ligands/ligand_326_temp.pdb
REMARK                            x       y       z     vdW  Elec       q    Type
REMARK                         _______ _______ _______ _____ _____    ______ ____
ROOT
ATOM      1  C1  UNL     1     153.617 157.515 164.464  0.00  0.00    -0.047 C 
ATOM      2  C2  UNL     1     152.234 158.121 164.411  0.00  0.00    +0.100 C 
ATOM      3  C3  UNL     1     151.280 157.444 163.490  0.00  0.00    +0.316 C 
ATOM      4  O1  UNL     1     150.404 156.695 163.895  0.00  0.00    -0.250 OA
ATOM      5  O2  UNL     1     151.541 157.749 162.194  0.00  0.00    -0.459 OA
ATOM      6  C4  UNL     1     150.639 157.136 161.268  0.00  0.00    +0.120 C 
ATOM      7  C5  UNL     1     150.915 157.695 159.898  0.00  0.00    +0.028 A 
ATOM      8  C6  UNL     1     150.932 159.084 159.676  0.00  0.00    -0.050 A 
ATOM      9  C7  UNL     1     151.172 159.593 158.397  0.00  0.00    -0.023 A 
ATOM     10  C8  UNL     1     151.390 158.718 157.337  0.00  0.00    +0.161 A 
ATOM     11  F1  UNL     1     151.619 159.215 156.114  0.00  0.00    -0.202 F 
ATOM     12  C9  UNL     1     151.366 157.345 157.539  0.00  0.00    +0.194 A 
ATOM     13  F2  UNL     1     151.571 156.509 156.511  0.00  0.00    -0.199 F 
ATOM     14  C10 UNL     1     151.127 156.840 158.812  0.00  0.00    +0.168 A 
ATOM     15  F3  UNL     1     151.099 155.512 158.996  0.00  0.00    -0.202 F 
ATOM     16  C11 UNL     1     151.689 158.675 165.720  0.00  0.00    -0.001 C 
ATOM     17  C12 UNL     1     152.052 159.619 164.610  0.00  0.00    +0.135 C 
ATOM     18 CL1  UNL     1     153.460 160.654 164.848  0.00  0.00    -0.100 Cl
ATOM     19 CL2  UNL     1     150.718 160.480 163.835  0.00  0.00    -0.100 Cl
ENDROOT
TORSDOF 0
ENDMDL
MODEL 4
REMARK VINA RESULT:    -6.521     11.767     13.829
REMARK INTER + INTRA:          -6.521
REMARK INTER:                  -6.521
REMARK INTRA:                   0.000
REMARK UNBOUND:                 0.000
REMARK  Name = /home/vital/Documents/PhD_2021/Malaria_codes/scripts/../data/pdbqt_ligands/ligand_326_temp.pdb
REMARK                            x       y       z     vdW  Elec       q    Type
REMARK                         _______ _______ _______ _____ _____    ______ ____
ROOT
ATOM      1  C1  UNL     1     145.128 144.343 163.872  0.00  0.00    -0.047 C 
ATOM      2  C2  UNL     1     143.955 145.092 164.459  0.00  0.00    +0.100 C 
ATOM      3  C3  UNL     1     143.790 146.490 163.975  0.00  0.00    +0.316 C 
ATOM      4  O1  UNL     1     142.945 146.796 163.148  0.00  0.00    -0.250 OA
ATOM      5  O2  UNL     1     144.697 147.322 164.543  0.00  0.00    -0.459 OA
ATOM      6  C4  UNL     1     144.569 148.684 164.123  0.00  0.00    +0.120 C 
ATOM      7  C5  UNL     1     145.498 149.526 164.955  0.00  0.00    +0.028 A 
ATOM      8  C6  UNL     1     145.459 149.471 166.360  0.00  0.00    -0.050 A 
ATOM      9  C7  UNL     1     146.314 150.269 167.124  0.00  0.00    -0.023 A 
ATOM     10  C8  UNL     1     147.206 151.128 166.489  0.00  0.00    +0.161 A 
ATOM     11  F1  UNL     1     148.022 151.890 167.230  0.00  0.00    -0.202 F 
ATOM     12  C9  UNL     1     147.250 151.200 165.103  0.00  0.00    +0.194 A 
ATOM     13  F2  UNL     1     148.107 152.035 164.499  0.00  0.00    -0.199 F 
ATOM     14  C10 UNL     1     146.398 150.406 164.344  0.00  0.00    +0.168 A 
ATOM     15  F3  UNL     1     146.443 150.489 163.007  0.00  0.00    -0.202 F 
ATOM     16  C11 UNL     1     142.698 144.277 164.726  0.00  0.00    -0.001 C 
ATOM     17  C12 UNL     1     143.501 144.799 165.882  0.00  0.00    +0.135 C 
ATOM     18 CL1  UNL     1     144.377 143.624 166.863  0.00  0.00    -0.100 Cl
ATOM     19 CL2  UNL     1     142.744 146.055 166.868  0.00  0.00    -0.100 Cl
ENDROOT
TORSDOF 0
ENDMDL
MODEL 5
REMARK VINA RESULT:    -6.355      9.539     11.152
REMARK INTER + INTRA:          -6.355
REMARK INTER:                  -6.355
REMARK INTRA:                   0.000
REMARK UNBOUND:                 0.000
REMARK  Name = /home/vital/Documents/PhD_2021/Malaria_codes/scripts/../data/pdbqt_ligands/ligand_326_temp.pdb
REMARK                            x       y       z     vdW  Elec       q    Type
REMARK                         _______ _______ _______ _____ _____    ______ ____
ROOT
ATOM      1  C1  UNL     1     149.662 161.438 167.859  0.00  0.00    -0.047 C 
ATOM      2  C2  UNL     1     150.898 161.324 166.998  0.00  0.00    +0.100 C 
ATOM      3  C3  UNL     1     150.888 160.200 166.022  0.00  0.00    +0.316 C 
ATOM      4  O1  UNL     1     150.671 160.373 164.832  0.00  0.00    -0.250 OA
ATOM      5  O2  UNL     1     151.117 159.011 166.633  0.00  0.00    -0.459 OA
ATOM      6  C4  UNL     1     151.134 157.898 165.733  0.00  0.00    +0.120 C 
ATOM      7  C5  UNL     1     151.578 156.679 166.497  0.00  0.00    +0.028 A 
ATOM      8  C6  UNL     1     152.770 156.689 167.243  0.00  0.00    -0.050 A 
ATOM      9  C7  UNL     1     153.182 155.547 167.935  0.00  0.00    -0.023 A 
ATOM     10  C8  UNL     1     152.408 154.392 167.879  0.00  0.00    +0.161 A 
ATOM     11  F1  UNL     1     152.811 153.301 168.546  0.00  0.00    -0.202 F 
ATOM     12  C9  UNL     1     151.234 154.364 167.139  0.00  0.00    +0.194 A 
ATOM     13  F2  UNL     1     150.499 153.245 167.085  0.00  0.00    -0.199 F 
ATOM     14  C10 UNL     1     150.826 155.501 166.451  0.00  0.00    +0.168 A 
ATOM     15  F3  UNL     1     149.695 155.461 165.733  0.00  0.00    -0.202 F 
ATOM     16  C11 UNL     1     151.548 162.633 166.571  0.00  0.00    -0.001 C 
ATOM     17  C12 UNL     1     152.253 161.741 167.553  0.00  0.00    +0.135 C 
ATOM     18 CL1  UNL     1     152.387 162.308 169.217  0.00  0.00    -0.100 Cl
ATOM     19 CL2  UNL     1     153.738 160.967 166.993  0.00  0.00    -0.100 Cl
ENDROOT
TORSDOF 0
ENDMDL
MODEL 6
REMARK VINA RESULT:    -6.235      9.695     11.591
REMARK INTER + INTRA:          -6.235
REMARK INTER:                  -6.235
REMARK INTRA:                   0.000
REMARK UNBOUND:                 0.000
REMARK  Name = /home/vital/Documents/PhD_2021/Malaria_codes/scripts/../data/pdbqt_ligands/ligand_326_temp.pdb
REMARK                            x       y       z     vdW  Elec       q    Type
REMARK                         _______ _______ _______ _____ _____    ______ ____
ROOT
ATOM      1  C1  UNL     1     146.611 146.528 163.802  0.00  0.00    -0.047 C 
ATOM      2  C2  UNL     1     145.549 147.430 164.385  0.00  0.00    +0.100 C 
ATOM      3  C3  UNL     1     145.534 148.819 163.849  0.00  0.00    +0.316 C 
ATOM      4  O1  UNL     1     144.708 149.192 163.030  0.00  0.00    -0.250 OA
ATOM      5  O2  UNL     1     146.546 149.560 164.365  0.00  0.00    -0.459 OA
ATOM      6  C4  UNL     1     146.566 150.911 163.894  0.00  0.00    +0.120 C 
ATOM      7  C5  UNL     1     147.608 151.669 164.672  0.00  0.00    +0.028 A 
ATOM      8  C6  UNL     1     147.599 151.670 166.078  0.00  0.00    -0.050 A 
ATOM      9  C7  UNL     1     148.560 152.390 166.792  0.00  0.00    -0.023 A 
ATOM     10  C8  UNL     1     149.528 153.115 166.104  0.00  0.00    +0.161 A 
ATOM     11  F1  UNL     1     150.446 153.803 166.797  0.00  0.00    -0.202 F 
ATOM     12  C9  UNL     1     149.544 153.131 164.716  0.00  0.00    +0.194 A 
ATOM     13  F2  UNL     1     150.477 153.837 164.062  0.00  0.00    -0.199 F 
ATOM     14  C10 UNL     1     148.587 152.414 164.008  0.00  0.00    +0.168 A 
ATOM     15  F3  UNL     1     148.606 152.442 162.667  0.00  0.00    -0.202 F 
ATOM     16  C11 UNL     1     144.212 146.778 164.710  0.00  0.00    -0.001 C 
ATOM     17  C12 UNL     1     145.100 147.244 165.827  0.00  0.00    +0.135 C 
ATOM     18 CL1  UNL     1     145.859 146.012 166.835  0.00  0.00    -0.100 Cl
ATOM     19 CL2  UNL     1     144.521 148.615 166.779  0.00  0.00    -0.100 Cl
ENDROOT
TORSDOF 0
ENDMDL
MODEL 7
REMARK VINA RESULT:    -6.198     14.366     16.355
REMARK INTER + INTRA:          -6.198
REMARK INTER:                  -6.198
REMARK INTRA:                   0.000
REMARK UNBOUND:                 0.000
REMARK  Name = /home/vital/Documents/PhD_2021/Malaria_codes/scripts/../data/pdbqt_ligands/ligand_326_temp.pdb
REMARK                            x       y       z     vdW  Elec       q    Type
REMARK                         _______ _______ _______ _____ _____    ______ ____
ROOT
ATOM      1  C1  UNL     1     142.647 148.306 163.894  0.00  0.00    -0.047 C 
ATOM      2  C2  UNL     1     143.369 148.038 165.193  0.00  0.00    +0.100 C 
ATOM      3  C3  UNL     1     144.635 147.265 165.067  0.00  0.00    +0.316 C 
ATOM      4  O1  UNL     1     145.732 147.798 165.133  0.00  0.00    -0.250 OA
ATOM      5  O2  UNL     1     144.392 145.949 164.848  0.00  0.00    -0.459 OA
ATOM      6  C4  UNL     1     145.579 145.158 164.736  0.00  0.00    +0.120 C 
ATOM      7  C5  UNL     1     145.178 143.707 164.683  0.00  0.00    +0.028 A 
ATOM      8  C6  UNL     1     144.344 143.153 165.670  0.00  0.00    -0.050 A 
ATOM      9  C7  UNL     1     143.991 141.802 165.622  0.00  0.00    -0.023 A 
ATOM     10  C8  UNL     1     144.474 141.000 164.592  0.00  0.00    +0.161 A 
ATOM     11  F1  UNL     1     144.130 139.706 164.553  0.00  0.00    -0.202 F 
ATOM     12  C9  UNL     1     145.305 141.531 163.615  0.00  0.00    +0.194 A 
ATOM     13  F2  UNL     1     145.771 140.751 162.630  0.00  0.00    -0.199 F 
ATOM     14  C10 UNL     1     145.655 142.876 163.665  0.00  0.00    +0.168 A 
ATOM     15  F3  UNL     1     146.466 143.377 162.722  0.00  0.00    -0.202 F 
ATOM     16  C11 UNL     1     143.311 149.143 166.239  0.00  0.00    -0.001 C 
ATOM     17  C12 UNL     1     142.577 147.855 166.480  0.00  0.00    +0.135 C 
ATOM     18 CL1  UNL     1     140.814 147.902 166.444  0.00  0.00    -0.100 Cl
ATOM     19 CL2  UNL     1     143.188 146.828 167.781  0.00  0.00    -0.100 Cl
ENDROOT
TORSDOF 0
ENDMDL
MODEL 8
REMARK VINA RESULT:    -6.000      8.459     10.316
REMARK INTER + INTRA:          -6.000
REMARK INTER:                  -6.000
REMARK INTRA:                   0.000
REMARK UNBOUND:                 0.000
REMARK  Name = /home/vital/Documents/PhD_2021/Malaria_codes/scripts/../data/pdbqt_ligands/ligand_326_temp.pdb
REMARK                            x       y       z     vdW  Elec       q    Type
REMARK                         _______ _______ _______ _____ _____    ______ ____
ROOT
ATOM      1  C1  UNL     1     150.849 161.728 166.312  0.00  0.00    -0.047 C 
ATOM      2  C2  UNL     1     152.140 161.047 166.702  0.00  0.00    +0.100 C 
ATOM      3  C3  UNL     1     152.584 159.959 165.787  0.00  0.00    +0.316 C 
ATOM      4  O1  UNL     1     153.483 160.118 164.975  0.00  0.00    -0.250 OA
ATOM      5  O2  UNL     1     151.852 158.832 165.965  0.00  0.00    -0.459 OA
ATOM      6  C4  UNL     1     152.251 157.749 165.119  0.00  0.00    +0.120 C 
ATOM      7  C5  UNL     1     151.497 156.516 165.540  0.00  0.00    +0.028 A 
ATOM      8  C6  UNL     1     151.509 156.085 166.879  0.00  0.00    -0.050 A 
ATOM      9  C7  UNL     1     150.819 154.930 167.257  0.00  0.00    -0.023 A 
ATOM     10  C8  UNL     1     150.122 154.200 166.300  0.00  0.00    +0.161 A 
ATOM     11  F1  UNL     1     149.464 153.093 166.672  0.00  0.00    -0.202 F 
ATOM     12  C9  UNL     1     150.109 154.607 164.973  0.00  0.00    +0.194 A 
ATOM     13  F2  UNL     1     149.440 153.894 164.056  0.00  0.00    -0.199 F 
ATOM     14  C10 UNL     1     150.796 155.756 164.599  0.00  0.00    +0.168 A 
ATOM     15  F3  UNL     1     150.784 156.138 163.313  0.00  0.00    -0.202 F 
ATOM     16  C11 UNL     1     153.210 161.931 167.327  0.00  0.00    -0.001 C 
ATOM     17  C12 UNL     1     152.512 160.903 168.171  0.00  0.00    +0.135 C 
ATOM     18 CL1  UNL     1     151.410 161.484 169.420  0.00  0.00    -0.100 Cl
ATOM     19 CL2  UNL     1     153.490 159.542 168.729  0.00  0.00    -0.100 Cl
ENDROOT
TORSDOF 0
ENDMDL
MODEL 9
REMARK VINA RESULT:    -5.985      5.925      7.726
REMARK INTER + INTRA:          -5.985
REMARK INTER:                  -5.985
REMARK INTRA:                   0.000
REMARK UNBOUND:                 0.000
REMARK  Name = /home/vital/Documents/PhD_2021/Malaria_codes/scripts/../data/pdbqt_ligands/ligand_326_temp.pdb
REMARK                            x       y       z     vdW  Elec       q    Type
REMARK                         _______ _______ _______ _____ _____    ______ ____
ROOT
ATOM      1  C1  UNL     1     148.442 162.596 165.243  0.00  0.00    -0.047 C 
ATOM      2  C2  UNL     1     149.926 162.349 165.385  0.00  0.00    +0.100 C 
ATOM      3  C3  UNL     1     150.699 162.387 164.114  0.00  0.00    +0.316 C 
ATOM      4  O1  UNL     1     151.386 163.347 163.798  0.00  0.00    -0.250 OA
ATOM      5  O2  UNL     1     150.509 161.260 163.384  0.00  0.00    -0.459 OA
ATOM      6  C4  UNL     1     151.246 161.239 162.158  0.00  0.00    +0.120 C 
ATOM      7  C5  UNL     1     151.099 159.875 161.539  0.00  0.00    +0.028 A 
ATOM      8  C6  UNL     1     151.394 158.713 162.275  0.00  0.00    -0.050 A 
ATOM      9  C7  UNL     1     151.270 157.452 161.687  0.00  0.00    -0.023 A 
ATOM     10  C8  UNL     1     150.857 157.347 160.362  0.00  0.00    +0.161 A 
ATOM     11  F1  UNL     1     150.741 156.133 159.807  0.00  0.00    -0.202 F 
ATOM     12  C9  UNL     1     150.571 158.485 159.620  0.00  0.00    +0.194 A 
ATOM     13  F2  UNL     1     150.180 158.375 158.343  0.00  0.00    -0.199 F 
ATOM     14  C10 UNL     1     150.695 159.739 160.207  0.00  0.00    +0.168 A 
ATOM     15  F3  UNL     1     150.425 160.833 159.480  0.00  0.00    -0.202 F 
ATOM     16  C11 UNL     1     150.587 162.907 166.638  0.00  0.00    -0.001 C 
ATOM     17  C12 UNL     1     150.441 161.421 166.476  0.00  0.00    +0.135 C 
ATOM     18 CL1  UNL     1     149.303 160.593 167.539  0.00  0.00    -0.100 Cl
ATOM     19 CL2  UNL     1     151.932 160.500 166.252  0.00  0.00    -0.100 Cl
ENDROOT
TORSDOF 0
ENDMDL
