MODEL 1
REMARK VINA RESULT:    -8.929      0.000      0.000
REMARK INTER + INTRA:          -8.929
REMARK INTER:                  -8.929
REMARK INTRA:                   0.000
REMARK UNBOUND:                 0.000
REMARK  Name = /home/vital/Documents/PhD_2021/Malaria_codes/scripts/../data/pdbqt_ligands/ligand_388_temp.pdb
REMARK                            x       y       z     vdW  Elec       q    Type
REMARK                         _______ _______ _______ _____ _____    ______ ____
ROOT
ATOM      1  C1  UNL     1     150.486 155.865 158.424  0.00  0.00    -0.077 C 
ATOM      2  C2  UNL     1     151.136 156.894 158.999  0.00  0.00    +0.044 C 
ATOM      3  N1  UNL     1     152.068 157.638 158.301  0.00  0.00    -0.268 N 
ATOM      4  O1  UNL     1     152.303 158.980 158.617  0.00  0.00    -0.257 OA
ATOM      5  C3  UNL     1     151.660 159.820 157.641  0.00  0.00    +0.148 C 
ATOM      6  N2  UNL     1     150.526 160.552 158.201  0.00  0.00    -0.173 NA
ATOM      7  O2  UNL     1     149.621 159.525 158.717  0.00  0.00    -0.297 OA
ATOM      8  C4  UNL     1     149.626 159.485 160.149  0.00  0.00    +0.070 C 
ATOM      9  C5  UNL     1     149.530 158.044 160.636  0.00  0.00    -0.011 C 
ATOM     10  C6  UNL     1     150.844 157.241 160.467  0.00  0.00    +0.054 C 
ATOM     11  C7  UNL     1     150.823 155.960 161.362  0.00  0.00    -0.072 C 
ATOM     12  C8  UNL     1     151.870 156.335 162.115  0.00  0.00    -0.066 C 
ATOM     13  C9  UNL     1     152.151 157.581 161.318  0.00  0.00    +0.053 C 
ATOM     14  N3  UNL     1     152.114 158.795 162.091  0.00  0.00    -0.342 N 
ATOM     15  C10 UNL     1     151.543 159.048 163.311  0.00  0.00    -0.010 C 
ATOM     16  C11 UNL     1     151.643 160.189 164.005  0.00  0.00    -0.047 C 
ATOM     17  C12 UNL     1     151.024 160.381 165.302  0.00  0.00    -0.044 C 
ATOM     18  C13 UNL     1     151.116 161.465 166.096  0.00  0.00    +0.043 C 
ATOM     19 CL1  UNL     1     152.026 162.873 165.600  0.00  0.00    -0.086 Cl
ATOM     20  C14 UNL     1     150.455 161.631 167.460  0.00  0.00    +0.089 C 
ATOM     21  C15 UNL     1     149.319 160.652 167.782  0.00  0.00    -0.037 C 
ATOM     22  N4  UNL     1     151.480 161.579 168.526  0.00  0.00    -0.250 N 
ATOM     23  C16 UNL     1     152.295 160.487 168.785  0.00  0.00    +0.047 C 
ATOM     24  C17 UNL     1     153.134 160.242 169.803  0.00  0.00    +0.045 C 
ATOM     25  N5  UNL     1     153.452 160.989 170.905  0.00  0.00    -0.264 NA
ATOM     26  C18 UNL     1     153.093 162.233 171.006  0.00  0.00    +0.033 C 
ATOM     27  C19 UNL     1     152.322 163.077 170.021  0.00  0.00    +0.111 C 
ATOM     28  O3  UNL     1     151.140 162.417 169.599  0.00  0.00    -0.266 OA
ATOM     29  H   UNL     1     152.575 157.216 157.569  0.00  0.00    +0.000 HD
ATOM     30  H   UNL     1     150.066 161.104 157.477  0.00  0.00    +0.000 HD
ATOM     31  H   UNL     1     152.570 159.564 161.679  0.00  0.00    +0.000 HD
ENDROOT
TORSDOF 0
ENDMDL
MODEL 2
REMARK VINA RESULT:    -8.203      2.499      9.697
REMARK INTER + INTRA:          -8.203
REMARK INTER:                  -8.203
REMARK INTRA:                   0.000
REMARK UNBOUND:                 0.000
REMARK  Name = /home/vital/Documents/PhD_2021/Malaria_codes/scripts/../data/pdbqt_ligands/ligand_388_temp.pdb
REMARK                            x       y       z     vdW  Elec       q    Type
REMARK                         _______ _______ _______ _____ _____    ______ ____
ROOT
ATOM      1  C1  UNL     1     152.753 161.857 168.881  0.00  0.00    -0.077 C 
ATOM      2  C2  UNL     1     151.815 161.352 168.057  0.00  0.00    +0.044 C 
ATOM      3  N1  UNL     1     150.527 161.109 168.495  0.00  0.00    -0.268 N 
ATOM      4  O1  UNL     1     149.445 161.163 167.611  0.00  0.00    -0.257 OA
ATOM      5  C3  UNL     1     148.729 162.396 167.807  0.00  0.00    +0.148 C 
ATOM      6  N2  UNL     1     148.874 163.307 166.674  0.00  0.00    -0.173 NA
ATOM      7  O2  UNL     1     150.313 163.527 166.538  0.00  0.00    -0.297 OA
ATOM      8  C4  UNL     1     150.847 162.855 165.389  0.00  0.00    +0.070 C 
ATOM      9  C5  UNL     1     152.225 162.288 165.704  0.00  0.00    -0.011 C 
ATOM     10  C6  UNL     1     152.189 161.026 166.603  0.00  0.00    +0.054 C 
ATOM     11  C7  UNL     1     153.548 160.257 166.522  0.00  0.00    -0.072 C 
ATOM     12  C8  UNL     1     153.012 159.145 165.993  0.00  0.00    -0.066 C 
ATOM     13  C9  UNL     1     151.593 159.641 166.081  0.00  0.00    +0.053 C 
ATOM     14  N3  UNL     1     150.903 159.676 164.818  0.00  0.00    -0.342 N 
ATOM     15  C10 UNL     1     151.398 159.671 163.541  0.00  0.00    -0.010 C 
ATOM     16  C11 UNL     1     150.674 159.605 162.416  0.00  0.00    -0.047 C 
ATOM     17  C12 UNL     1     151.269 159.587 161.093  0.00  0.00    -0.044 C 
ATOM     18  C13 UNL     1     150.628 159.466 159.915  0.00  0.00    +0.043 C 
ATOM     19 CL1  UNL     1     148.887 159.345 159.841  0.00  0.00    -0.086 Cl
ATOM     20  C14 UNL     1     151.288 159.445 158.540  0.00  0.00    +0.089 C 
ATOM     21  C15 UNL     1     152.731 159.962 158.476  0.00  0.00    -0.037 C 
ATOM     22  N4  UNL     1     151.217 158.082 157.968  0.00  0.00    -0.250 N 
ATOM     23  C16 UNL     1     151.802 156.958 158.533  0.00  0.00    +0.047 C 
ATOM     24  C17 UNL     1     151.958 155.716 158.050  0.00  0.00    +0.045 C 
ATOM     25  N5  UNL     1     151.591 155.165 156.852  0.00  0.00    -0.264 NA
ATOM     26  C18 UNL     1     150.794 155.787 156.037  0.00  0.00    +0.033 C 
ATOM     27  C19 UNL     1     150.133 157.133 156.205  0.00  0.00    +0.111 C 
ATOM     28  O3  UNL     1     151.079 158.123 156.573  0.00  0.00    -0.266 OA
ATOM     29  H   UNL     1     150.370 160.894 169.443  0.00  0.00    +0.000 HD
ATOM     30  H   UNL     1     148.393 164.188 166.860  0.00  0.00    +0.000 HD
ATOM     31  H   UNL     1     149.921 159.709 164.882  0.00  0.00    +0.000 HD
ENDROOT
TORSDOF 0
ENDMDL
MODEL 3
REMARK VINA RESULT:    -7.845      2.526      9.858
REMARK INTER + INTRA:          -7.845
REMARK INTER:                  -7.845
REMARK INTRA:                   0.000
REMARK UNBOUND:                 0.000
REMARK  Name = /home/vital/Documents/PhD_2021/Malaria_codes/scripts/../data/pdbqt_ligands/ligand_388_temp.pdb
REMARK                            x       y       z     vdW  Elec       q    Type
REMARK                         _______ _______ _______ _____ _____    ______ ____
ROOT
ATOM      1  C1  UNL     1     150.666 163.171 169.873  0.00  0.00    -0.077 C 
ATOM      2  C2  UNL     1     151.543 162.678 168.977  0.00  0.00    +0.044 C 
ATOM      3  N1  UNL     1     152.873 163.051 168.990  0.00  0.00    -0.268 N 
ATOM      4  O1  UNL     1     153.868 162.185 168.524  0.00  0.00    -0.257 OA
ATOM      5  C3  UNL     1     154.553 161.598 169.645  0.00  0.00    +0.148 C 
ATOM      6  N2  UNL     1     154.273 160.170 169.780  0.00  0.00    -0.173 NA
ATOM      7  O2  UNL     1     152.820 160.074 169.918  0.00  0.00    -0.297 OA
ATOM      8  C4  UNL     1     152.208 159.546 168.734  0.00  0.00    +0.070 C 
ATOM      9  C5  UNL     1     150.885 160.252 168.464  0.00  0.00    -0.011 C 
ATOM     10  C6  UNL     1     151.049 161.689 167.910  0.00  0.00    +0.054 C 
ATOM     11  C7  UNL     1     149.717 162.178 167.253  0.00  0.00    -0.072 C 
ATOM     12  C8  UNL     1     150.242 162.303 166.023  0.00  0.00    -0.066 C 
ATOM     13  C9  UNL     1     151.644 161.965 166.455  0.00  0.00    +0.053 C 
ATOM     14  N3  UNL     1     152.214 160.833 165.772  0.00  0.00    -0.342 N 
ATOM     15  C10 UNL     1     151.604 159.826 165.071  0.00  0.00    -0.010 C 
ATOM     16  C11 UNL     1     152.225 158.861 164.379  0.00  0.00    -0.047 C 
ATOM     17  C12 UNL     1     151.512 157.833 163.645  0.00  0.00    -0.044 C 
ATOM     18  C13 UNL     1     152.046 156.863 162.879  0.00  0.00    +0.043 C 
ATOM     19 CL1  UNL     1     153.777 156.701 162.702  0.00  0.00    -0.086 Cl
ATOM     20  C14 UNL     1     151.264 155.799 162.115  0.00  0.00    +0.089 C 
ATOM     21  C15 UNL     1     149.804 155.599 162.540  0.00  0.00    -0.037 C 
ATOM     22  N4  UNL     1     151.332 156.071 160.662  0.00  0.00    -0.250 N 
ATOM     23  C16 UNL     1     150.842 157.216 160.050  0.00  0.00    +0.047 C 
ATOM     24  C17 UNL     1     150.687 157.517 158.752  0.00  0.00    +0.045 C 
ATOM     25  N5  UNL     1     150.962 156.794 157.623  0.00  0.00    -0.264 NA
ATOM     26  C18 UNL     1     151.659 155.699 157.673  0.00  0.00    +0.033 C 
ATOM     27  C19 UNL     1     152.283 155.031 158.874  0.00  0.00    +0.111 C 
ATOM     28  O3  UNL     1     151.340 154.880 159.922  0.00  0.00    -0.266 OA
ATOM     29  H   UNL     1     153.124 163.939 169.333  0.00  0.00    +0.000 HD
ATOM     30  H   UNL     1     154.737 159.791 170.606  0.00  0.00    +0.000 HD
ATOM     31  H   UNL     1     153.196 160.774 165.814  0.00  0.00    +0.000 HD
ENDROOT
TORSDOF 0
ENDMDL
MODEL 4
REMARK VINA RESULT:    -7.823      4.052     10.184
REMARK INTER + INTRA:          -7.823
REMARK INTER:                  -7.823
REMARK INTRA:                   0.000
REMARK UNBOUND:                 0.000
REMARK  Name = /home/vital/Documents/PhD_2021/Malaria_codes/scripts/../data/pdbqt_ligands/ligand_388_temp.pdb
REMARK                            x       y       z     vdW  Elec       q    Type
REMARK                         _______ _______ _______ _____ _____    ______ ____
ROOT
ATOM      1  C1  UNL     1     152.443 159.019 168.443  0.00  0.00    -0.077 C 
ATOM      2  C2  UNL     1     152.703 158.079 167.514  0.00  0.00    +0.044 C 
ATOM      3  N1  UNL     1     153.360 156.908 167.838  0.00  0.00    -0.268 N 
ATOM      4  O1  UNL     1     153.132 155.731 167.117  0.00  0.00    -0.257 OA
ATOM      5  C3  UNL     1     152.280 154.860 167.882  0.00  0.00    +0.148 C 
ATOM      6  N2  UNL     1     150.952 154.722 167.288  0.00  0.00    -0.173 NA
ATOM      7  O2  UNL     1     150.418 156.082 167.217  0.00  0.00    -0.297 OA
ATOM      8  C4  UNL     1     150.392 156.571 165.870  0.00  0.00    +0.070 C 
ATOM      9  C5  UNL     1     150.759 158.050 165.839  0.00  0.00    -0.011 C 
ATOM     10  C6  UNL     1     152.269 158.321 166.060  0.00  0.00    +0.054 C 
ATOM     11  C7  UNL     1     152.641 159.764 165.587  0.00  0.00    -0.072 C 
ATOM     12  C8  UNL     1     153.483 159.349 164.626  0.00  0.00    -0.066 C 
ATOM     13  C9  UNL     1     153.365 157.892 164.983  0.00  0.00    +0.053 C 
ATOM     14  N3  UNL     1     152.908 157.057 163.903  0.00  0.00    -0.342 N 
ATOM     15  C10 UNL     1     152.249 157.389 162.748  0.00  0.00    -0.010 C 
ATOM     16  C11 UNL     1     151.949 156.553 161.745  0.00  0.00    -0.047 C 
ATOM     17  C12 UNL     1     151.262 156.979 160.542  0.00  0.00    -0.044 C 
ATOM     18  C13 UNL     1     150.969 156.228 159.463  0.00  0.00    +0.043 C 
ATOM     19 CL1  UNL     1     151.382 154.531 159.404  0.00  0.00    -0.086 Cl
ATOM     20  C14 UNL     1     150.249 156.712 158.208  0.00  0.00    +0.089 C 
ATOM     21  C15 UNL     1     149.487 158.037 158.336  0.00  0.00    -0.037 C 
ATOM     22  N4  UNL     1     151.201 156.787 157.078  0.00  0.00    -0.250 N 
ATOM     23  C16 UNL     1     152.321 157.605 157.042  0.00  0.00    +0.047 C 
ATOM     24  C17 UNL     1     153.163 157.895 156.039  0.00  0.00    +0.045 C 
ATOM     25  N5  UNL     1     153.184 157.478 154.736  0.00  0.00    -0.264 NA
ATOM     26  C18 UNL     1     152.434 156.500 154.326  0.00  0.00    +0.033 C 
ATOM     27  C19 UNL     1     151.460 155.661 155.116  0.00  0.00    +0.111 C 
ATOM     28  O3  UNL     1     150.574 156.477 155.863  0.00  0.00    -0.266 OA
ATOM     29  H   UNL     1     153.999 156.902 168.587  0.00  0.00    +0.000 HD
ATOM     30  H   UNL     1     150.358 154.135 167.874  0.00  0.00    +0.000 HD
ATOM     31  H   UNL     1     153.099 156.097 164.010  0.00  0.00    +0.000 HD
ENDROOT
TORSDOF 0
ENDMDL
MODEL 5
REMARK VINA RESULT:    -7.790     13.445     15.490
REMARK INTER + INTRA:          -7.790
REMARK INTER:                  -7.790
REMARK INTRA:                   0.000
REMARK UNBOUND:                 0.000
REMARK  Name = /home/vital/Documents/PhD_2021/Malaria_codes/scripts/../data/pdbqt_ligands/ligand_388_temp.pdb
REMARK                            x       y       z     vdW  Elec       q    Type
REMARK                         _______ _______ _______ _____ _____    ______ ____
ROOT
ATOM      1  C1  UNL     1     141.595 141.598 166.034  0.00  0.00    -0.077 C 
ATOM      2  C2  UNL     1     142.864 142.047 166.083  0.00  0.00    +0.044 C 
ATOM      3  N1  UNL     1     143.908 141.220 166.450  0.00  0.00    -0.268 N 
ATOM      4  O1  UNL     1     145.202 141.436 165.967  0.00  0.00    -0.257 OA
ATOM      5  C3  UNL     1     145.490 140.482 164.928  0.00  0.00    +0.148 C 
ATOM      6  N2  UNL     1     145.584 141.109 163.611  0.00  0.00    -0.173 NA
ATOM      7  O2  UNL     1     144.295 141.768 163.405  0.00  0.00    -0.297 OA
ATOM      8  C4  UNL     1     144.405 143.193 163.509  0.00  0.00    +0.070 C 
ATOM      9  C5  UNL     1     143.178 143.767 164.205  0.00  0.00    -0.011 C 
ATOM     10  C6  UNL     1     143.154 143.515 165.734  0.00  0.00    +0.054 C 
ATOM     11  C7  UNL     1     142.141 144.478 166.433  0.00  0.00    -0.072 C 
ATOM     12  C8  UNL     1     143.075 145.103 167.170  0.00  0.00    -0.066 C 
ATOM     13  C9  UNL     1     144.201 144.213 166.715  0.00  0.00    +0.053 C 
ATOM     14  N3  UNL     1     145.292 144.917 166.093  0.00  0.00    -0.342 N 
ATOM     15  C10 UNL     1     145.334 146.170 165.542  0.00  0.00    -0.010 C 
ATOM     16  C11 UNL     1     146.427 146.786 165.070  0.00  0.00    -0.047 C 
ATOM     17  C12 UNL     1     146.399 148.125 164.514  0.00  0.00    -0.044 C 
ATOM     18  C13 UNL     1     147.449 148.843 164.070  0.00  0.00    +0.043 C 
ATOM     19 CL1  UNL     1     149.066 148.182 164.083  0.00  0.00    -0.086 Cl
ATOM     20  C14 UNL     1     147.384 150.255 163.496  0.00  0.00    +0.089 C 
ATOM     21  C15 UNL     1     145.998 150.742 163.056  0.00  0.00    -0.037 C 
ATOM     22  N4  UNL     1     147.974 151.216 164.454  0.00  0.00    -0.250 N 
ATOM     23  C16 UNL     1     147.490 151.455 165.732  0.00  0.00    +0.047 C 
ATOM     24  C17 UNL     1     147.815 152.397 166.630  0.00  0.00    +0.045 C 
ATOM     25  N5  UNL     1     148.724 153.418 166.571  0.00  0.00    -0.264 NA
ATOM     26  C18 UNL     1     149.608 153.485 165.621  0.00  0.00    +0.033 C 
ATOM     27  C19 UNL     1     149.832 152.534 164.471  0.00  0.00    +0.111 C 
ATOM     28  O3  UNL     1     148.618 152.268 163.787  0.00  0.00    -0.266 OA
ATOM     29  H   UNL     1     143.737 140.467 167.061  0.00  0.00    +0.000 HD
ATOM     30  H   UNL     1     145.745 140.404 162.891  0.00  0.00    +0.000 HD
ATOM     31  H   UNL     1     146.141 144.419 166.057  0.00  0.00    +0.000 HD
ENDROOT
TORSDOF 0
ENDMDL
MODEL 6
REMARK VINA RESULT:    -7.615      9.617     12.322
REMARK INTER + INTRA:          -7.615
REMARK INTER:                  -7.615
REMARK INTRA:                   0.000
REMARK UNBOUND:                 0.000
REMARK  Name = /home/vital/Documents/PhD_2021/Malaria_codes/scripts/../data/pdbqt_ligands/ligand_388_temp.pdb
REMARK                            x       y       z     vdW  Elec       q    Type
REMARK                         _______ _______ _______ _____ _____    ______ ____
ROOT
ATOM      1  C1  UNL     1     144.089 145.452 166.490  0.00  0.00    -0.077 C 
ATOM      2  C2  UNL     1     143.976 146.384 165.526  0.00  0.00    +0.044 C 
ATOM      3  N1  UNL     1     142.898 146.400 164.661  0.00  0.00    -0.268 N 
ATOM      4  O1  UNL     1     142.450 147.596 164.091  0.00  0.00    -0.257 OA
ATOM      5  C3  UNL     1     141.256 148.029 164.768  0.00  0.00    +0.148 C 
ATOM      6  N2  UNL     1     141.476 149.238 165.560  0.00  0.00    -0.173 NA
ATOM      7  O2  UNL     1     142.542 148.893 166.501  0.00  0.00    -0.297 OA
ATOM      8  C4  UNL     1     143.780 149.528 166.156  0.00  0.00    +0.070 C 
ATOM      9  C5  UNL     1     144.947 148.585 166.420  0.00  0.00    -0.011 C 
ATOM     10  C6  UNL     1     145.076 147.447 165.376  0.00  0.00    +0.054 C 
ATOM     11  C7  UNL     1     146.500 146.805 165.438  0.00  0.00    -0.072 C 
ATOM     12  C8  UNL     1     146.834 147.159 164.186  0.00  0.00    -0.066 C 
ATOM     13  C9  UNL     1     145.483 147.740 163.861  0.00  0.00    +0.053 C 
ATOM     14  N3  UNL     1     145.518 149.123 163.464  0.00  0.00    -0.342 N 
ATOM     15  C10 UNL     1     146.486 150.074 163.659  0.00  0.00    -0.010 C 
ATOM     16  C11 UNL     1     146.476 151.319 163.164  0.00  0.00    -0.047 C 
ATOM     17  C12 UNL     1     147.546 152.269 163.398  0.00  0.00    -0.044 C 
ATOM     18  C13 UNL     1     147.651 153.516 162.899  0.00  0.00    +0.043 C 
ATOM     19 CL1  UNL     1     146.406 154.186 161.873  0.00  0.00    -0.086 Cl
ATOM     20  C14 UNL     1     148.796 154.488 163.162  0.00  0.00    +0.089 C 
ATOM     21  C15 UNL     1     149.697 154.161 164.360  0.00  0.00    -0.037 C 
ATOM     22  N4  UNL     1     149.618 154.640 161.941  0.00  0.00    -0.250 N 
ATOM     23  C16 UNL     1     150.315 153.610 161.325  0.00  0.00    +0.047 C 
ATOM     24  C17 UNL     1     151.215 153.633 160.332  0.00  0.00    +0.045 C 
ATOM     25  N5  UNL     1     151.732 154.676 159.612  0.00  0.00    -0.264 NA
ATOM     26  C18 UNL     1     151.215 155.866 159.677  0.00  0.00    +0.033 C 
ATOM     27  C19 UNL     1     150.025 156.336 160.477  0.00  0.00    +0.111 C 
ATOM     28  O3  UNL     1     150.134 155.939 161.834  0.00  0.00    -0.266 OA
ATOM     29  H   UNL     1     142.440 145.557 164.443  0.00  0.00    +0.000 HD
ATOM     30  H   UNL     1     140.626 149.495 166.062  0.00  0.00    +0.000 HD
ATOM     31  H   UNL     1     144.722 149.436 162.976  0.00  0.00    +0.000 HD
ENDROOT
TORSDOF 0
ENDMDL
MODEL 7
REMARK VINA RESULT:    -7.559     10.885     13.724
REMARK INTER + INTRA:          -7.559
REMARK INTER:                  -7.559
REMARK INTRA:                   0.000
REMARK UNBOUND:                 0.000
REMARK  Name = /home/vital/Documents/PhD_2021/Malaria_codes/scripts/../data/pdbqt_ligands/ligand_388_temp.pdb
REMARK                            x       y       z     vdW  Elec       q    Type
REMARK                         _______ _______ _______ _____ _____    ______ ____
ROOT
ATOM      1  C1  UNL     1     150.176 154.950 163.590  0.00  0.00    -0.077 C 
ATOM      2  C2  UNL     1     150.023 153.643 163.875  0.00  0.00    +0.044 C 
ATOM      3  N1  UNL     1     151.112 152.811 164.048  0.00  0.00    -0.268 N 
ATOM      4  O1  UNL     1     151.036 151.688 164.880  0.00  0.00    -0.257 OA
ATOM      5  C3  UNL     1     151.702 151.970 166.124  0.00  0.00    +0.148 C 
ATOM      6  N2  UNL     1     150.768 152.065 167.244  0.00  0.00    -0.173 NA
ATOM      7  O2  UNL     1     149.832 153.127 166.874  0.00  0.00    -0.297 OA
ATOM      8  C4  UNL     1     148.544 152.601 166.529  0.00  0.00    +0.070 C 
ATOM      9  C5  UNL     1     147.950 153.385 165.365  0.00  0.00    -0.011 C 
ATOM     10  C6  UNL     1     148.605 153.062 163.998  0.00  0.00    +0.054 C 
ATOM     11  C7  UNL     1     147.690 153.539 162.825  0.00  0.00    -0.072 C 
ATOM     12  C8  UNL     1     147.496 152.306 162.330  0.00  0.00    -0.066 C 
ATOM     13  C9  UNL     1     148.432 151.637 163.300  0.00  0.00    +0.053 C 
ATOM     14  N3  UNL     1     147.819 150.606 164.095  0.00  0.00    -0.342 N 
ATOM     15  C10 UNL     1     146.497 150.368 164.365  0.00  0.00    -0.010 C 
ATOM     16  C11 UNL     1     146.008 149.318 165.038  0.00  0.00    -0.047 C 
ATOM     17  C12 UNL     1     144.590 149.123 165.274  0.00  0.00    -0.044 C 
ATOM     18  C13 UNL     1     144.004 148.076 165.886  0.00  0.00    +0.043 C 
ATOM     19 CL1  UNL     1     144.954 146.765 166.543  0.00  0.00    -0.086 Cl
ATOM     20  C14 UNL     1     142.505 147.900 166.111  0.00  0.00    +0.089 C 
ATOM     21  C15 UNL     1     141.647 149.162 165.959  0.00  0.00    -0.037 C 
ATOM     22  N4  UNL     1     141.987 146.829 165.231  0.00  0.00    -0.250 N 
ATOM     23  C16 UNL     1     142.019 146.863 163.844  0.00  0.00    +0.047 C 
ATOM     24  C17 UNL     1     141.447 146.059 162.935  0.00  0.00    +0.045 C 
ATOM     25  N5  UNL     1     140.654 144.954 163.085  0.00  0.00    -0.264 NA
ATOM     26  C18 UNL     1     140.508 144.378 164.240  0.00  0.00    +0.033 C 
ATOM     27  C19 UNL     1     141.128 144.747 165.565  0.00  0.00    +0.111 C 
ATOM     28  O3  UNL     1     140.943 146.125 165.848  0.00  0.00    -0.266 OA
ATOM     29  H   UNL     1     151.954 153.011 163.580  0.00  0.00    +0.000 HD
ATOM     30  H   UNL     1     151.264 152.308 168.102  0.00  0.00    +0.000 HD
ATOM     31  H   UNL     1     148.447 149.971 164.509  0.00  0.00    +0.000 HD
ENDROOT
TORSDOF 0
ENDMDL
MODEL 8
REMARK VINA RESULT:    -7.017      7.937     10.804
REMARK INTER + INTRA:          -7.017
REMARK INTER:                  -7.017
REMARK INTRA:                   0.000
REMARK UNBOUND:                 0.000
REMARK  Name = /home/vital/Documents/PhD_2021/Malaria_codes/scripts/../data/pdbqt_ligands/ligand_388_temp.pdb
REMARK                            x       y       z     vdW  Elec       q    Type
REMARK                         _______ _______ _______ _____ _____    ______ ____
ROOT
ATOM      1  C1  UNL     1     152.927 156.868 162.860  0.00  0.00    -0.077 C 
ATOM      2  C2  UNL     1     151.658 156.532 162.560  0.00  0.00    +0.044 C 
ATOM      3  N1  UNL     1     150.834 157.388 161.854  0.00  0.00    -0.268 N 
ATOM      4  O1  UNL     1     149.804 156.893 161.048  0.00  0.00    -0.257 OA
ATOM      5  C3  UNL     1     150.202 156.964 159.667  0.00  0.00    +0.148 C 
ATOM      6  N2  UNL     1     150.423 155.641 159.085  0.00  0.00    -0.173 NA
ATOM      7  O2  UNL     1     151.453 155.022 159.919  0.00  0.00    -0.297 OA
ATOM      8  C4  UNL     1     150.911 153.986 160.750  0.00  0.00    +0.070 C 
ATOM      9  C5  UNL     1     151.579 154.006 162.119  0.00  0.00    -0.011 C 
ATOM     10  C6  UNL     1     151.111 155.173 163.024  0.00  0.00    +0.054 C 
ATOM     11  C7  UNL     1     151.478 154.891 164.517  0.00  0.00    -0.072 C 
ATOM     12  C8  UNL     1     150.203 154.863 164.938  0.00  0.00    -0.066 C 
ATOM     13  C9  UNL     1     149.625 155.243 163.601  0.00  0.00    +0.053 C 
ATOM     14  N3  UNL     1     148.687 154.287 163.073  0.00  0.00    -0.342 N 
ATOM     15  C10 UNL     1     148.496 152.968 163.393  0.00  0.00    -0.010 C 
ATOM     16  C11 UNL     1     147.526 152.176 162.916  0.00  0.00    -0.047 C 
ATOM     17  C12 UNL     1     147.373 150.790 163.313  0.00  0.00    -0.044 C 
ATOM     18  C13 UNL     1     146.403 149.937 162.934  0.00  0.00    +0.043 C 
ATOM     19 CL1  UNL     1     145.153 150.430 161.816  0.00  0.00    -0.086 Cl
ATOM     20  C14 UNL     1     146.269 148.483 163.377  0.00  0.00    +0.089 C 
ATOM     21  C15 UNL     1     147.520 147.850 163.999  0.00  0.00    -0.037 C 
ATOM     22  N4  UNL     1     145.121 148.342 164.301  0.00  0.00    -0.250 N 
ATOM     23  C16 UNL     1     145.013 148.979 165.529  0.00  0.00    +0.047 C 
ATOM     24  C17 UNL     1     144.128 148.818 166.524  0.00  0.00    +0.045 C 
ATOM     25  N5  UNL     1     143.054 147.978 166.643  0.00  0.00    -0.264 NA
ATOM     26  C18 UNL     1     142.601 147.309 165.626  0.00  0.00    +0.033 C 
ATOM     27  C19 UNL     1     143.095 147.308 164.201  0.00  0.00    +0.111 C 
ATOM     28  O3  UNL     1     144.496 147.096 164.147  0.00  0.00    -0.266 OA
ATOM     29  H   UNL     1     150.975 158.360 161.919  0.00  0.00    +0.000 HD
ATOM     30  H   UNL     1     150.745 155.724 158.121  0.00  0.00    +0.000 HD
ATOM     31  H   UNL     1     148.090 154.634 162.372  0.00  0.00    +0.000 HD
ENDROOT
TORSDOF 0
ENDMDL
MODEL 9
REMARK VINA RESULT:    -6.504      2.400      9.860
REMARK INTER + INTRA:          -6.504
REMARK INTER:                  -6.504
REMARK INTRA:                   0.000
REMARK UNBOUND:                 0.000
REMARK  Name = /home/vital/Documents/PhD_2021/Malaria_codes/scripts/../data/pdbqt_ligands/ligand_388_temp.pdb
REMARK                            x       y       z     vdW  Elec       q    Type
REMARK                         _______ _______ _______ _____ _____    ______ ____
ROOT
ATOM      1  C1  UNL     1     150.958 162.992 168.978  0.00  0.00    -0.077 C 
ATOM      2  C2  UNL     1     151.758 162.225 168.213  0.00  0.00    +0.044 C 
ATOM      3  N1  UNL     1     153.016 161.845 168.640  0.00  0.00    -0.268 N 
ATOM      4  O1  UNL     1     153.595 160.650 168.201  0.00  0.00    -0.257 OA
ATOM      5  C3  UNL     1     153.504 159.664 169.244  0.00  0.00    +0.148 C 
ATOM      6  N2  UNL     1     152.574 158.587 168.910  0.00  0.00    -0.173 NA
ATOM      7  O2  UNL     1     151.291 159.247 168.671  0.00  0.00    -0.297 OA
ATOM      8  C4  UNL     1     150.953 159.260 167.278  0.00  0.00    +0.070 C 
ATOM      9  C5  UNL     1     150.283 160.578 166.911  0.00  0.00    -0.011 C 
ATOM     10  C6  UNL     1     151.266 161.774 166.829  0.00  0.00    +0.054 C 
ATOM     11  C7  UNL     1     150.622 162.959 166.039  0.00  0.00    -0.072 C 
ATOM     12  C8  UNL     1     151.531 162.937 165.050  0.00  0.00    -0.066 C 
ATOM     13  C9  UNL     1     152.378 161.869 165.689  0.00  0.00    +0.053 C 
ATOM     14  N3  UNL     1     152.562 160.697 164.874  0.00  0.00    -0.342 N 
ATOM     15  C10 UNL     1     151.840 160.247 163.800  0.00  0.00    -0.010 C 
ATOM     16  C11 UNL     1     152.144 159.190 163.034  0.00  0.00    -0.047 C 
ATOM     17  C12 UNL     1     151.340 158.780 161.899  0.00  0.00    -0.044 C 
ATOM     18  C13 UNL     1     151.596 157.773 161.043  0.00  0.00    +0.043 C 
ATOM     19 CL1  UNL     1     153.002 156.754 161.239  0.00  0.00    -0.086 Cl
ATOM     20  C14 UNL     1     150.729 157.372 159.853  0.00  0.00    +0.089 C 
ATOM     21  C15 UNL     1     149.294 157.914 159.851  0.00  0.00    -0.037 C 
ATOM     22  N4  UNL     1     151.407 157.740 158.590  0.00  0.00    -0.250 N 
ATOM     23  C16 UNL     1     151.739 159.035 158.220  0.00  0.00    +0.047 C 
ATOM     24  C17 UNL     1     152.194 159.524 157.057  0.00  0.00    +0.045 C 
ATOM     25  N5  UNL     1     152.475 158.904 155.870  0.00  0.00    -0.264 NA
ATOM     26  C18 UNL     1     152.528 157.609 155.779  0.00  0.00    +0.033 C 
ATOM     27  C19 UNL     1     152.323 156.577 156.860  0.00  0.00    +0.111 C 
ATOM     28  O3  UNL     1     151.121 156.817 157.573  0.00  0.00    -0.266 OA
ATOM     29  H   UNL     1     153.511 162.424 169.263  0.00  0.00    +0.000 HD
ATOM     30  H   UNL     1     152.498 157.927 169.685  0.00  0.00    +0.000 HD
ATOM     31  H   UNL     1     153.325 160.130 165.128  0.00  0.00    +0.000 HD
ENDROOT
TORSDOF 0
ENDMDL
