MODEL 1
REMARK VINA RESULT:    -8.382      0.000      0.000
REMARK INTER + INTRA:          -8.382
REMARK INTER:                  -8.382
REMARK INTRA:                   0.000
REMARK UNBOUND:                 0.000
REMARK  Name = /home/vital/Documents/PhD_2021/Malaria_codes/scripts/../data/pdbqt_ligands/ligand_327_temp.pdb
REMARK                            x       y       z     vdW  Elec       q    Type
REMARK                         _______ _______ _______ _____ _____    ______ ____
ROOT
ATOM      1  C1  UNL     1     150.049 154.540 160.263  0.00  0.00    -0.088 C 
ATOM      2  C2  UNL     1     151.021 155.446 160.478  0.00  0.00    +0.033 C 
ATOM      3  C3  UNL     1     151.880 155.535 161.706  0.00  0.00    +0.074 C 
ATOM      4  O1  UNL     1     151.716 154.386 162.532  0.00  0.00    -0.390 OA
ATOM      5  C4  UNL     1     151.292 156.524 159.477  0.00  0.00    +0.246 C 
ATOM      6  O2  UNL     1     151.545 157.660 159.863  0.00  0.00    -0.270 OA
ATOM      7  N1  UNL     1     151.305 156.091 158.175  0.00  0.00    -0.279 N 
ATOM      8  C5  UNL     1     151.510 156.823 156.978  0.00  0.00    +0.077 A 
ATOM      9  C6  UNL     1     151.521 156.044 155.809  0.00  0.00    -0.011 A 
ATOM     10  C7  UNL     1     151.704 156.633 154.551  0.00  0.00    +0.107 A 
ATOM     11  S1  UNL     1     151.687 155.607 153.105  0.00  0.00    +0.058 S 
ATOM     12  O3  UNL     1     150.780 154.510 153.364  0.00  0.00    -0.153 OA
ATOM     13  O4  UNL     1     151.561 156.442 151.932  0.00  0.00    -0.153 OA
ATOM     14  N2  UNL     1     153.231 154.951 153.126  0.00  0.00    -0.193 NA
ATOM     15  C8  UNL     1     154.323 155.723 152.545  0.00  0.00    +0.006 C 
ATOM     16  C9  UNL     1     151.857 158.010 154.426  0.00  0.00    -0.032 A 
ATOM     17  C10 UNL     1     151.851 158.793 155.576  0.00  0.00    -0.016 A 
ATOM     18  C11 UNL     1     151.684 158.211 156.841  0.00  0.00    +0.138 A 
ATOM     19  O5  UNL     1     151.698 159.118 157.858  0.00  0.00    -0.505 OA
ATOM     20  H   UNL     1     150.791 154.322 162.817  0.00  0.00    +0.000 HD
ATOM     21  H   UNL     1     151.147 155.127 158.053  0.00  0.00    +0.000 HD
ATOM     22  H   UNL     1     153.189 154.065 152.623  0.00  0.00    +0.000 HD
ATOM     23  H   UNL     1     151.594 158.831 158.744  0.00  0.00    +0.000 HD
ENDROOT
TORSDOF 0
ENDMDL
MODEL 2
REMARK VINA RESULT:    -8.206      3.538      7.943
REMARK INTER + INTRA:          -8.206
REMARK INTER:                  -8.206
REMARK INTRA:                   0.000
REMARK UNBOUND:                 0.000
REMARK  Name = /home/vital/Documents/PhD_2021/Malaria_codes/scripts/../data/pdbqt_ligands/ligand_327_temp.pdb
REMARK                            x       y       z     vdW  Elec       q    Type
REMARK                         _______ _______ _______ _____ _____    ______ ____
ROOT
ATOM      1  C1  UNL     1     157.490 154.186 151.197  0.00  0.00    -0.088 C 
ATOM      2  C2  UNL     1     156.445 153.618 150.567  0.00  0.00    +0.033 C 
ATOM      3  C3  UNL     1     156.465 152.293 149.860  0.00  0.00    +0.074 C 
ATOM      4  O1  UNL     1     157.665 151.579 150.141  0.00  0.00    -0.390 OA
ATOM      5  C4  UNL     1     155.132 154.329 150.472  0.00  0.00    +0.246 C 
ATOM      6  O2  UNL     1     154.490 154.278 149.429  0.00  0.00    -0.270 OA
ATOM      7  N1  UNL     1     154.733 154.928 151.640  0.00  0.00    -0.279 N 
ATOM      8  C5  UNL     1     153.571 155.692 151.915  0.00  0.00    +0.077 A 
ATOM      9  C6  UNL     1     153.445 156.106 153.251  0.00  0.00    -0.011 A 
ATOM     10  C7  UNL     1     152.351 156.876 153.668  0.00  0.00    +0.107 A 
ATOM     11  S1  UNL     1     152.252 157.392 155.361  0.00  0.00    +0.058 S 
ATOM     12  O3  UNL     1     153.605 157.580 155.837  0.00  0.00    -0.153 OA
ATOM     13  O4  UNL     1     151.247 158.425 155.485  0.00  0.00    -0.153 OA
ATOM     14  N2  UNL     1     151.681 156.005 156.115  0.00  0.00    -0.193 NA
ATOM     15  C8  UNL     1     150.244 155.759 156.122  0.00  0.00    +0.006 C 
ATOM     16  C9  UNL     1     151.372 157.269 152.762  0.00  0.00    -0.032 A 
ATOM     17  C10 UNL     1     151.483 156.864 151.436  0.00  0.00    -0.016 A 
ATOM     18  C11 UNL     1     152.566 156.080 151.012  0.00  0.00    +0.138 A 
ATOM     19  O5  UNL     1     152.524 155.774 149.684  0.00  0.00    -0.505 OA
ATOM     20  H   UNL     1     158.426 152.094 149.833  0.00  0.00    +0.000 HD
ATOM     21  H   UNL     1     155.346 154.810 152.401  0.00  0.00    +0.000 HD
ATOM     22  H   UNL     1     151.984 156.044 157.088  0.00  0.00    +0.000 HD
ATOM     23  H   UNL     1     153.203 155.254 149.301  0.00  0.00    +0.000 HD
ENDROOT
TORSDOF 0
ENDMDL
MODEL 3
REMARK VINA RESULT:    -7.877      3.112      6.928
REMARK INTER + INTRA:          -7.877
REMARK INTER:                  -7.877
REMARK INTRA:                   0.000
REMARK UNBOUND:                 0.000
REMARK  Name = /home/vital/Documents/PhD_2021/Malaria_codes/scripts/../data/pdbqt_ligands/ligand_327_temp.pdb
REMARK                            x       y       z     vdW  Elec       q    Type
REMARK                         _______ _______ _______ _____ _____    ______ ____
ROOT
ATOM      1  C1  UNL     1     153.735 157.926 152.322  0.00  0.00    -0.088 C 
ATOM      2  C2  UNL     1     153.618 156.678 152.813  0.00  0.00    +0.033 C 
ATOM      3  C3  UNL     1     154.410 155.484 152.366  0.00  0.00    +0.074 C 
ATOM      4  O1  UNL     1     155.488 155.870 151.518  0.00  0.00    -0.390 OA
ATOM      5  C4  UNL     1     152.595 156.363 153.858  0.00  0.00    +0.246 C 
ATOM      6  O2  UNL     1     151.972 155.310 153.797  0.00  0.00    -0.270 OA
ATOM      7  N1  UNL     1     152.513 157.295 154.862  0.00  0.00    -0.279 N 
ATOM      8  C5  UNL     1     151.661 157.334 155.994  0.00  0.00    +0.077 A 
ATOM      9  C6  UNL     1     151.891 158.414 156.864  0.00  0.00    -0.011 A 
ATOM     10  C7  UNL     1     151.118 158.587 158.019  0.00  0.00    +0.107 A 
ATOM     11  S1  UNL     1     151.435 159.978 159.071  0.00  0.00    +0.058 S 
ATOM     12  O3  UNL     1     151.890 161.063 158.229  0.00  0.00    -0.153 OA
ATOM     13  O4  UNL     1     150.333 160.137 159.993  0.00  0.00    -0.153 OA
ATOM     14  N2  UNL     1     152.779 159.463 159.935  0.00  0.00    -0.193 NA
ATOM     15  C8  UNL     1     152.570 158.637 161.118  0.00  0.00    +0.006 C 
ATOM     16  C9  UNL     1     150.086 157.705 158.323  0.00  0.00    -0.032 A 
ATOM     17  C10 UNL     1     149.849 156.630 157.472  0.00  0.00    -0.016 A 
ATOM     18  C11 UNL     1     150.627 156.440 156.321  0.00  0.00    +0.138 A 
ATOM     19  O5  UNL     1     150.261 155.344 155.597  0.00  0.00    -0.505 OA
ATOM     20  H   UNL     1     155.137 156.309 150.729  0.00  0.00    +0.000 HD
ATOM     21  H   UNL     1     153.141 158.050 154.784  0.00  0.00    +0.000 HD
ATOM     22  H   UNL     1     153.282 160.298 160.236  0.00  0.00    +0.000 HD
ATOM     23  H   UNL     1     150.719 155.129 154.809  0.00  0.00    +0.000 HD
ENDROOT
TORSDOF 0
ENDMDL
MODEL 4
REMARK VINA RESULT:    -7.439      2.461      6.640
REMARK INTER + INTRA:          -7.439
REMARK INTER:                  -7.439
REMARK INTRA:                   0.000
REMARK UNBOUND:                 0.000
REMARK  Name = /home/vital/Documents/PhD_2021/Malaria_codes/scripts/../data/pdbqt_ligands/ligand_327_temp.pdb
REMARK                            x       y       z     vdW  Elec       q    Type
REMARK                         _______ _______ _______ _____ _____    ______ ____
ROOT
ATOM      1  C1  UNL     1     153.502 155.842 153.632  0.00  0.00    -0.088 C 
ATOM      2  C2  UNL     1     152.537 156.780 153.670  0.00  0.00    +0.033 C 
ATOM      3  C3  UNL     1     151.775 157.301 152.487  0.00  0.00    +0.074 C 
ATOM      4  O1  UNL     1     152.018 156.507 151.329  0.00  0.00    -0.390 OA
ATOM      5  C4  UNL     1     152.174 157.448 154.959  0.00  0.00    +0.246 C 
ATOM      6  O2  UNL     1     151.936 158.650 154.973  0.00  0.00    -0.270 OA
ATOM      7  N1  UNL     1     152.067 156.590 156.025  0.00  0.00    -0.279 N 
ATOM      8  C5  UNL     1     151.759 156.865 157.381  0.00  0.00    +0.077 A 
ATOM      9  C6  UNL     1     151.669 155.729 158.203  0.00  0.00    -0.011 A 
ATOM     10  C7  UNL     1     151.381 155.847 159.569  0.00  0.00    +0.107 A 
ATOM     11  S1  UNL     1     151.301 154.384 160.566  0.00  0.00    +0.058 S 
ATOM     12  O3  UNL     1     152.240 153.432 160.015  0.00  0.00    -0.153 OA
ATOM     13  O4  UNL     1     151.323 154.758 161.962  0.00  0.00    -0.153 OA
ATOM     14  N2  UNL     1     149.772 153.796 160.200  0.00  0.00    -0.193 NA
ATOM     15  C8  UNL     1     148.628 154.335 160.926  0.00  0.00    +0.006 C 
ATOM     16  C9  UNL     1     151.199 157.097 160.152  0.00  0.00    -0.032 A 
ATOM     17  C10 UNL     1     151.284 158.231 159.349  0.00  0.00    -0.016 A 
ATOM     18  C11 UNL     1     151.556 158.121 157.978  0.00  0.00    +0.138 A 
ATOM     19  O5  UNL     1     151.608 159.325 157.340  0.00  0.00    -0.505 OA
ATOM     20  H   UNL     1     152.963 156.534 151.112  0.00  0.00    +0.000 HD
ATOM     21  H   UNL     1     152.228 155.641 155.816  0.00  0.00    +0.000 HD
ATOM     22  H   UNL     1     149.787 152.790 160.366  0.00  0.00    +0.000 HD
ATOM     23  H   UNL     1     151.785 159.361 156.421  0.00  0.00    +0.000 HD
ENDROOT
TORSDOF 0
ENDMDL
MODEL 5
REMARK VINA RESULT:    -7.301      5.413      9.986
REMARK INTER + INTRA:          -7.301
REMARK INTER:                  -7.301
REMARK INTRA:                   0.000
REMARK UNBOUND:                 0.000
REMARK  Name = /home/vital/Documents/PhD_2021/Malaria_codes/scripts/../data/pdbqt_ligands/ligand_327_temp.pdb
REMARK                            x       y       z     vdW  Elec       q    Type
REMARK                         _______ _______ _______ _____ _____    ______ ____
ROOT
ATOM      1  C1  UNL     1     151.392 157.048 160.138  0.00  0.00    -0.088 C 
ATOM      2  C2  UNL     1     151.120 155.742 159.961  0.00  0.00    +0.033 C 
ATOM      3  C3  UNL     1     151.480 154.929 158.751  0.00  0.00    +0.074 C 
ATOM      4  O1  UNL     1     152.371 155.643 157.899  0.00  0.00    -0.390 OA
ATOM      5  C4  UNL     1     150.346 154.977 160.989  0.00  0.00    +0.246 C 
ATOM      6  O2  UNL     1     149.504 154.163 160.631  0.00  0.00    -0.270 OA
ATOM      7  N1  UNL     1     150.733 155.227 162.282  0.00  0.00    -0.279 N 
ATOM      8  C5  UNL     1     150.223 154.704 163.496  0.00  0.00    +0.077 A 
ATOM      9  C6  UNL     1     150.903 155.130 164.649  0.00  0.00    -0.011 A 
ATOM     10  C7  UNL     1     150.504 154.702 165.922  0.00  0.00    +0.107 A 
ATOM     11  S1  UNL     1     151.383 155.287 167.346  0.00  0.00    +0.058 S 
ATOM     12  O3  UNL     1     151.848 156.624 167.049  0.00  0.00    -0.153 OA
ATOM     13  O4  UNL     1     150.613 154.993 168.534  0.00  0.00    -0.153 OA
ATOM     14  N2  UNL     1     152.745 154.307 167.342  0.00  0.00    -0.193 NA
ATOM     15  C8  UNL     1     152.656 152.989 167.959  0.00  0.00    +0.006 C 
ATOM     16  C9  UNL     1     149.408 153.860 166.078  0.00  0.00    -0.032 A 
ATOM     17  C10 UNL     1     148.726 153.429 164.944  0.00  0.00    -0.016 A 
ATOM     18  C11 UNL     1     149.128 153.840 163.665  0.00  0.00    +0.138 A 
ATOM     19  O5  UNL     1     148.351 153.329 162.667  0.00  0.00    -0.505 OA
ATOM     20  H   UNL     1     151.943 156.458 157.596  0.00  0.00    +0.000 HD
ATOM     21  H   UNL     1     151.477 155.865 162.380  0.00  0.00    +0.000 HD
ATOM     22  H   UNL     1     153.485 154.816 167.826  0.00  0.00    +0.000 HD
ATOM     23  H   UNL     1     148.536 153.544 161.774  0.00  0.00    +0.000 HD
ENDROOT
TORSDOF 0
ENDMDL
MODEL 6
REMARK VINA RESULT:    -6.598      2.932      3.911
REMARK INTER + INTRA:          -6.598
REMARK INTER:                  -6.598
REMARK INTRA:                   0.000
REMARK UNBOUND:                 0.000
REMARK  Name = /home/vital/Documents/PhD_2021/Malaria_codes/scripts/../data/pdbqt_ligands/ligand_327_temp.pdb
REMARK                            x       y       z     vdW  Elec       q    Type
REMARK                         _______ _______ _______ _____ _____    ______ ____
ROOT
ATOM      1  C1  UNL     1     150.478 155.722 164.270  0.00  0.00    -0.088 C 
ATOM      2  C2  UNL     1     151.501 156.597 164.274  0.00  0.00    +0.033 C 
ATOM      3  C3  UNL     1     152.577 156.681 165.318  0.00  0.00    +0.074 C 
ATOM      4  O1  UNL     1     152.534 155.557 166.192  0.00  0.00    -0.390 OA
ATOM      5  C4  UNL     1     151.615 157.642 163.210  0.00  0.00    +0.246 C 
ATOM      6  O2  UNL     1     151.971 158.776 163.509  0.00  0.00    -0.270 OA
ATOM      7  N1  UNL     1     151.369 157.180 161.941  0.00  0.00    -0.279 N 
ATOM      8  C5  UNL     1     151.370 157.878 160.707  0.00  0.00    +0.077 A 
ATOM      9  C6  UNL     1     151.137 157.073 159.579  0.00  0.00    -0.011 A 
ATOM     10  C7  UNL     1     151.100 157.627 158.293  0.00  0.00    +0.107 A 
ATOM     11  S1  UNL     1     150.780 156.571 156.905  0.00  0.00    +0.058 S 
ATOM     12  O3  UNL     1     149.903 155.514 157.359  0.00  0.00    -0.153 OA
ATOM     13  O4  UNL     1     150.464 157.385 155.752  0.00  0.00    -0.153 OA
ATOM     14  N2  UNL     1     152.280 155.859 156.656  0.00  0.00    -0.193 NA
ATOM     15  C8  UNL     1     153.267 156.579 155.861  0.00  0.00    +0.006 C 
ATOM     16  C9  UNL     1     151.271 158.994 158.102  0.00  0.00    -0.032 A 
ATOM     17  C10 UNL     1     151.505 159.803 159.210  0.00  0.00    -0.016 A 
ATOM     18  C11 UNL     1     151.559 159.255 160.500  0.00  0.00    +0.138 A 
ATOM     19  O5  UNL     1     151.793 160.183 161.471  0.00  0.00    -0.505 OA
ATOM     20  H   UNL     1     151.677 155.534 166.646  0.00  0.00    +0.000 HD
ATOM     21  H   UNL     1     151.161 156.220 161.879  0.00  0.00    +0.000 HD
ATOM     22  H   UNL     1     152.115 154.965 156.195  0.00  0.00    +0.000 HD
ATOM     23  H   UNL     1     151.847 159.920 162.368  0.00  0.00    +0.000 HD
ENDROOT
TORSDOF 0
ENDMDL
MODEL 7
REMARK VINA RESULT:    -6.591     11.618     14.837
REMARK INTER + INTRA:          -6.591
REMARK INTER:                  -6.591
REMARK INTRA:                   0.000
REMARK UNBOUND:                 0.000
REMARK  Name = /home/vital/Documents/PhD_2021/Malaria_codes/scripts/../data/pdbqt_ligands/ligand_327_temp.pdb
REMARK                            x       y       z     vdW  Elec       q    Type
REMARK                         _______ _______ _______ _____ _____    ______ ____
ROOT
ATOM      1  C1  UNL     1     145.409 142.057 163.137  0.00  0.00    -0.088 C 
ATOM      2  C2  UNL     1     145.230 142.314 164.446  0.00  0.00    +0.033 C 
ATOM      3  C3  UNL     1     145.563 141.382 165.575  0.00  0.00    +0.074 C 
ATOM      4  O1  UNL     1     146.327 140.271 165.116  0.00  0.00    -0.390 OA
ATOM      5  C4  UNL     1     144.600 143.596 164.893  0.00  0.00    +0.246 C 
ATOM      6  O2  UNL     1     143.801 143.587 165.822  0.00  0.00    -0.270 OA
ATOM      7  N1  UNL     1     145.061 144.707 164.233  0.00  0.00    -0.279 N 
ATOM      8  C5  UNL     1     144.687 146.067 164.379  0.00  0.00    +0.077 A 
ATOM      9  C6  UNL     1     145.415 146.964 163.579  0.00  0.00    -0.011 A 
ATOM     10  C7  UNL     1     145.149 148.338 163.610  0.00  0.00    +0.107 A 
ATOM     11  S1  UNL     1     146.082 149.424 162.564  0.00  0.00    +0.058 S 
ATOM     12  O3  UNL     1     146.415 148.689 161.364  0.00  0.00    -0.153 OA
ATOM     13  O4  UNL     1     145.429 150.713 162.515  0.00  0.00    -0.153 OA
ATOM     14  N2  UNL     1     147.514 149.588 163.423  0.00  0.00    -0.193 NA
ATOM     15  C8  UNL     1     147.577 150.584 164.487  0.00  0.00    +0.006 C 
ATOM     16  C9  UNL     1     144.138 148.849 164.418  0.00  0.00    -0.032 A 
ATOM     17  C10 UNL     1     143.410 147.972 165.217  0.00  0.00    -0.016 A 
ATOM     18  C11 UNL     1     143.680 146.596 165.204  0.00  0.00    +0.138 A 
ATOM     19  O5  UNL     1     142.875 145.881 166.040  0.00  0.00    -0.505 OA
ATOM     20  H   UNL     1     145.814 139.775 164.459  0.00  0.00    +0.000 HD
ATOM     21  H   UNL     1     145.756 144.534 163.558  0.00  0.00    +0.000 HD
ATOM     22  H   UNL     1     148.245 149.821 162.750  0.00  0.00    +0.000 HD
ATOM     23  H   UNL     1     142.975 144.951 166.105  0.00  0.00    +0.000 HD
ENDROOT
TORSDOF 0
ENDMDL
MODEL 8
REMARK VINA RESULT:    -6.210     10.307     12.515
REMARK INTER + INTRA:          -6.210
REMARK INTER:                  -6.210
REMARK INTRA:                   0.000
REMARK UNBOUND:                 0.000
REMARK  Name = /home/vital/Documents/PhD_2021/Malaria_codes/scripts/../data/pdbqt_ligands/ligand_327_temp.pdb
REMARK                            x       y       z     vdW  Elec       q    Type
REMARK                         _______ _______ _______ _____ _____    ______ ____
ROOT
ATOM      1  C1  UNL     1     152.357 154.680 167.894  0.00  0.00    -0.088 C 
ATOM      2  C2  UNL     1     151.592 155.166 166.899  0.00  0.00    +0.033 C 
ATOM      3  C3  UNL     1     150.480 154.430 166.210  0.00  0.00    +0.074 C 
ATOM      4  O1  UNL     1     150.157 153.226 166.899  0.00  0.00    -0.390 OA
ATOM      5  C4  UNL     1     151.846 156.530 166.340  0.00  0.00    +0.246 C 
ATOM      6  O2  UNL     1     151.761 156.715 165.132  0.00  0.00    -0.270 OA
ATOM      7  N1  UNL     1     152.084 157.491 167.291  0.00  0.00    -0.279 N 
ATOM      8  C5  UNL     1     152.374 158.870 167.132  0.00  0.00    +0.077 A 
ATOM      9  C6  UNL     1     152.500 159.584 168.336  0.00  0.00    -0.011 A 
ATOM     10  C7  UNL     1     152.795 160.953 168.334  0.00  0.00    +0.107 A 
ATOM     11  S1  UNL     1     152.967 161.802 169.881  0.00  0.00    +0.058 S 
ATOM     12  O3  UNL     1     153.503 160.858 170.837  0.00  0.00    -0.153 OA
ATOM     13  O4  UNL     1     153.584 163.089 169.651  0.00  0.00    -0.153 OA
ATOM     14  N2  UNL     1     151.366 162.053 170.320  0.00  0.00    -0.193 NA
ATOM     15  C8  UNL     1     150.670 163.214 169.778  0.00  0.00    +0.006 C 
ATOM     16  C9  UNL     1     152.993 161.637 167.139  0.00  0.00    -0.032 A 
ATOM     17  C10 UNL     1     152.869 160.943 165.940  0.00  0.00    -0.016 A 
ATOM     18  C11 UNL     1     152.558 159.575 165.931  0.00  0.00    +0.138 A 
ATOM     19  O5  UNL     1     152.477 159.049 164.675  0.00  0.00    -0.505 OA
ATOM     20  H   UNL     1     150.934 152.646 166.917  0.00  0.00    +0.000 HD
ATOM     21  H   UNL     1     152.048 157.175 168.222  0.00  0.00    +0.000 HD
ATOM     22  H   UNL     1     151.342 162.135 171.336  0.00  0.00    +0.000 HD
ATOM     23  H   UNL     1     152.275 158.142 164.560  0.00  0.00    +0.000 HD
ENDROOT
TORSDOF 0
ENDMDL
MODEL 9
REMARK VINA RESULT:    -6.206      2.587      3.735
REMARK INTER + INTRA:          -6.206
REMARK INTER:                  -6.206
REMARK INTRA:                   0.000
REMARK UNBOUND:                 0.000
REMARK  Name = /home/vital/Documents/PhD_2021/Malaria_codes/scripts/../data/pdbqt_ligands/ligand_327_temp.pdb
REMARK                            x       y       z     vdW  Elec       q    Type
REMARK                         _______ _______ _______ _____ _____    ______ ____
ROOT
ATOM      1  C1  UNL     1     149.000 153.543 163.162  0.00  0.00    -0.088 C 
ATOM      2  C2  UNL     1     150.103 154.204 163.558  0.00  0.00    +0.033 C 
ATOM      3  C3  UNL     1     151.001 153.807 164.694  0.00  0.00    +0.074 C 
ATOM      4  O1  UNL     1     150.689 152.499 165.162  0.00  0.00    -0.390 OA
ATOM      5  C4  UNL     1     150.506 155.483 162.894  0.00  0.00    +0.246 C 
ATOM      6  O2  UNL     1     150.938 156.408 163.571  0.00  0.00    -0.270 OA
ATOM      7  N1  UNL     1     150.414 155.457 161.525  0.00  0.00    -0.279 N 
ATOM      8  C5  UNL     1     150.693 156.476 160.579  0.00  0.00    +0.077 A 
ATOM      9  C6  UNL     1     150.551 156.084 159.237  0.00  0.00    -0.011 A 
ATOM     10  C7  UNL     1     150.784 156.988 158.193  0.00  0.00    +0.107 A 
ATOM     11  S1  UNL     1     150.569 156.449 156.518  0.00  0.00    +0.058 S 
ATOM     12  O3  UNL     1     149.515 155.459 156.513  0.00  0.00    -0.153 OA
ATOM     13  O4  UNL     1     150.538 157.603 155.648  0.00  0.00    -0.153 OA
ATOM     14  N2  UNL     1     151.997 155.612 156.236  0.00  0.00    -0.193 NA
ATOM     15  C8  UNL     1     153.175 156.366 155.825  0.00  0.00    +0.006 C 
ATOM     16  C9  UNL     1     151.140 158.306 158.460  0.00  0.00    -0.032 A 
ATOM     17  C10 UNL     1     151.287 158.707 159.784  0.00  0.00    -0.016 A 
ATOM     18  C11 UNL     1     151.070 157.805 160.836  0.00  0.00    +0.138 A 
ATOM     19  O5  UNL     1     151.252 158.359 162.068  0.00  0.00    -0.505 OA
ATOM     20  H   UNL     1     149.774 152.480 165.483  0.00  0.00    +0.000 HD
ATOM     21  H   UNL     1     150.109 154.603 161.142  0.00  0.00    +0.000 HD
ATOM     22  H   UNL     1     151.806 154.929 155.503  0.00  0.00    +0.000 HD
ATOM     23  H   UNL     1     151.131 157.840 162.838  0.00  0.00    +0.000 HD
ENDROOT
TORSDOF 0
ENDMDL
