MODEL 1
REMARK VINA RESULT:    -7.040      0.000      0.000
REMARK INTER + INTRA:          -7.040
REMARK INTER:                  -7.040
REMARK INTRA:                   0.000
REMARK UNBOUND:                 0.000
REMARK  Name = /home/vital/Documents/PhD_2021/Malaria_codes/scripts/../data/pdbqt_ligands/ligand_413_temp.pdb
REMARK                            x       y       z     vdW  Elec       q    Type
REMARK                         _______ _______ _______ _____ _____    ______ ____
ROOT
ATOM      1  C1  UNL     1     151.629 158.254 160.473  0.00  0.00    -0.061 C 
ATOM      2  C2  UNL     1     151.231 159.153 159.301  0.00  0.00    -0.031 C 
ATOM      3  C3  UNL     1     152.478 159.749 158.649  0.00  0.00    -0.061 C 
ATOM      4  C4  UNL     1     150.286 158.453 158.301  0.00  0.00    +0.014 C 
ATOM      5  N1  UNL     1     150.874 157.264 157.664  0.00  0.00    -0.333 N 
ATOM      6  C5  UNL     1     150.597 155.979 158.307  0.00  0.00    +0.001 C 
ATOM      7  C6  UNL     1     151.485 157.282 156.409  0.00  0.00    +0.031 A 
ATOM      8  C7  UNL     1     151.545 158.439 155.613  0.00  0.00    -0.040 A 
ATOM      9  C8  UNL     1     152.161 158.478 154.347  0.00  0.00    -0.051 A 
ATOM     10  C9  UNL     1     152.753 157.316 153.836  0.00  0.00    -0.000 A 
ATOM     11  C10 UNL     1     153.444 156.993 152.637  0.00  0.00    -0.037 A 
ATOM     12  C11 UNL     1     153.803 155.665 152.706  0.00  0.00    +0.003 A 
ATOM     13  N2  UNL     1     153.355 155.175 153.904  0.00  0.00    -0.361 N 
ATOM     14  C12 UNL     1     152.709 156.163 154.611  0.00  0.00    +0.048 A 
ATOM     15  C13 UNL     1     152.093 156.126 155.875  0.00  0.00    -0.017 A 
ATOM     16  H   UNL     1     153.479 154.249 154.215  0.00  0.00    +0.000 HD
ENDROOT
TORSDOF 0
ENDMDL
MODEL 2
REMARK VINA RESULT:    -6.460      1.033      1.191
REMARK INTER + INTRA:          -6.460
REMARK INTER:                  -6.460
REMARK INTRA:                   0.000
REMARK UNBOUND:                 0.000
REMARK  Name = /home/vital/Documents/PhD_2021/Malaria_codes/scripts/../data/pdbqt_ligands/ligand_413_temp.pdb
REMARK                            x       y       z     vdW  Elec       q    Type
REMARK                         _______ _______ _______ _____ _____    ______ ____
ROOT
ATOM      1  C1  UNL     1     151.869 158.005 161.664  0.00  0.00    -0.061 C 
ATOM      2  C2  UNL     1     151.377 158.995 160.606  0.00  0.00    -0.031 C 
ATOM      3  C3  UNL     1     152.567 159.618 159.877  0.00  0.00    -0.061 C 
ATOM      4  C4  UNL     1     150.324 158.385 159.657  0.00  0.00    +0.014 C 
ATOM      5  N1  UNL     1     150.818 157.238 158.881  0.00  0.00    -0.333 N 
ATOM      6  C5  UNL     1     150.577 155.913 159.453  0.00  0.00    +0.001 C 
ATOM      7  C6  UNL     1     151.303 157.340 157.575  0.00  0.00    +0.031 A 
ATOM      8  C7  UNL     1     151.311 158.551 156.863  0.00  0.00    -0.040 A 
ATOM      9  C8  UNL     1     151.799 158.675 155.548  0.00  0.00    -0.051 A 
ATOM     10  C9  UNL     1     152.312 157.545 154.898  0.00  0.00    -0.000 A 
ATOM     11  C10 UNL     1     152.873 157.301 153.615  0.00  0.00    -0.037 A 
ATOM     12  C11 UNL     1     153.207 155.967 153.552  0.00  0.00    +0.003 A 
ATOM     13  N2  UNL     1     152.869 155.396 154.750  0.00  0.00    -0.361 N 
ATOM     14  C12 UNL     1     152.318 156.339 155.588  0.00  0.00    +0.048 A 
ATOM     15  C13 UNL     1     151.830 156.217 156.901  0.00  0.00    -0.017 A 
ATOM     16  H   UNL     1     153.002 154.448 154.980  0.00  0.00    +0.000 HD
ENDROOT
TORSDOF 0
ENDMDL
MODEL 3
REMARK VINA RESULT:    -6.382      1.445      5.564
REMARK INTER + INTRA:          -6.382
REMARK INTER:                  -6.382
REMARK INTRA:                   0.000
REMARK UNBOUND:                 0.000
REMARK  Name = /home/vital/Documents/PhD_2021/Malaria_codes/scripts/../data/pdbqt_ligands/ligand_413_temp.pdb
REMARK                            x       y       z     vdW  Elec       q    Type
REMARK                         _______ _______ _______ _____ _____    ______ ____
ROOT
ATOM      1  C1  UNL     1     151.711 155.093 151.422  0.00  0.00    -0.061 C 
ATOM      2  C2  UNL     1     152.576 156.293 151.813  0.00  0.00    -0.031 C 
ATOM      3  C3  UNL     1     151.751 157.578 151.754  0.00  0.00    -0.061 C 
ATOM      4  C4  UNL     1     153.308 156.093 153.158  0.00  0.00    +0.014 C 
ATOM      5  N1  UNL     1     152.405 155.907 154.303  0.00  0.00    -0.333 N 
ATOM      6  C5  UNL     1     152.082 154.525 154.659  0.00  0.00    +0.001 C 
ATOM      7  C6  UNL     1     152.021 156.940 155.161  0.00  0.00    +0.031 A 
ATOM      8  C7  UNL     1     152.514 158.250 155.035  0.00  0.00    -0.040 A 
ATOM      9  C8  UNL     1     152.137 159.305 155.888  0.00  0.00    -0.051 A 
ATOM     10  C9  UNL     1     151.220 159.060 156.919  0.00  0.00    -0.000 A 
ATOM     11  C10 UNL     1     150.628 159.856 157.936  0.00  0.00    -0.037 A 
ATOM     12  C11 UNL     1     149.785 159.045 158.662  0.00  0.00    +0.003 A 
ATOM     13  N2  UNL     1     149.845 157.788 158.120  0.00  0.00    -0.361 N 
ATOM     14  C12 UNL     1     150.718 157.772 157.056  0.00  0.00    +0.048 A 
ATOM     15  C13 UNL     1     151.096 156.719 156.204  0.00  0.00    -0.017 A 
ATOM     16  H   UNL     1     149.338 157.009 158.445  0.00  0.00    +0.000 HD
ENDROOT
TORSDOF 0
ENDMDL
MODEL 4
REMARK VINA RESULT:    -6.340      2.271      6.218
REMARK INTER + INTRA:          -6.340
REMARK INTER:                  -6.340
REMARK INTRA:                   0.000
REMARK UNBOUND:                 0.000
REMARK  Name = /home/vital/Documents/PhD_2021/Malaria_codes/scripts/../data/pdbqt_ligands/ligand_413_temp.pdb
REMARK                            x       y       z     vdW  Elec       q    Type
REMARK                         _______ _______ _______ _____ _____    ______ ____
ROOT
ATOM      1  C1  UNL     1     152.096 155.520 156.064  0.00  0.00    -0.061 C 
ATOM      2  C2  UNL     1     150.933 155.715 157.038  0.00  0.00    -0.031 C 
ATOM      3  C3  UNL     1     151.409 155.502 158.475  0.00  0.00    -0.061 C 
ATOM      4  C4  UNL     1     150.190 157.051 156.827  0.00  0.00    +0.014 C 
ATOM      5  N1  UNL     1     151.035 158.238 157.028  0.00  0.00    -0.333 N 
ATOM      6  C5  UNL     1     151.673 158.792 155.834  0.00  0.00    +0.001 C 
ATOM      7  C6  UNL     1     151.089 158.955 158.226  0.00  0.00    +0.031 A 
ATOM      8  C7  UNL     1     150.290 158.634 159.336  0.00  0.00    -0.040 A 
ATOM      9  C8  UNL     1     150.333 159.342 160.553  0.00  0.00    -0.051 A 
ATOM     10  C9  UNL     1     151.212 160.424 160.686  0.00  0.00    -0.000 A 
ATOM     11  C10 UNL     1     151.518 161.338 161.731  0.00  0.00    -0.037 A 
ATOM     12  C11 UNL     1     152.490 162.195 161.264  0.00  0.00    +0.003 A 
ATOM     13  N2  UNL     1     152.784 161.831 159.977  0.00  0.00    -0.361 N 
ATOM     14  C12 UNL     1     152.014 160.754 159.600  0.00  0.00    +0.048 A 
ATOM     15  C13 UNL     1     151.970 160.046 158.386  0.00  0.00    -0.017 A 
ATOM     16  H   UNL     1     153.449 162.276 159.404  0.00  0.00    +0.000 HD
ENDROOT
TORSDOF 0
ENDMDL
MODEL 5
REMARK VINA RESULT:    -6.289      1.776      2.605
REMARK INTER + INTRA:          -6.289
REMARK INTER:                  -6.289
REMARK INTRA:                   0.000
REMARK UNBOUND:                 0.000
REMARK  Name = /home/vital/Documents/PhD_2021/Malaria_codes/scripts/../data/pdbqt_ligands/ligand_413_temp.pdb
REMARK                            x       y       z     vdW  Elec       q    Type
REMARK                         _______ _______ _______ _____ _____    ______ ____
ROOT
ATOM      1  C1  UNL     1     151.403 159.350 162.593  0.00  0.00    -0.061 C 
ATOM      2  C2  UNL     1     150.571 159.959 161.462  0.00  0.00    -0.031 C 
ATOM      3  C3  UNL     1     151.484 160.662 160.458  0.00  0.00    -0.061 C 
ATOM      4  C4  UNL     1     149.606 158.944 160.812  0.00  0.00    +0.014 C 
ATOM      5  N1  UNL     1     150.284 157.797 160.189  0.00  0.00    -0.333 N 
ATOM      6  C5  UNL     1     150.441 156.604 161.021  0.00  0.00    +0.001 C 
ATOM      7  C6  UNL     1     150.586 157.725 158.827  0.00  0.00    +0.031 A 
ATOM      8  C7  UNL     1     150.217 158.729 157.916  0.00  0.00    -0.040 A 
ATOM      9  C8  UNL     1     150.516 158.676 156.541  0.00  0.00    -0.051 A 
ATOM     10  C9  UNL     1     151.221 157.576 156.034  0.00  0.00    -0.000 A 
ATOM     11  C10 UNL     1     151.685 157.197 154.745  0.00  0.00    -0.037 A 
ATOM     12  C11 UNL     1     152.331 155.988 154.873  0.00  0.00    +0.003 A 
ATOM     13  N2  UNL     1     152.275 155.623 156.193  0.00  0.00    -0.361 N 
ATOM     14  C12 UNL     1     151.599 156.576 156.921  0.00  0.00    +0.048 A 
ATOM     15  C13 UNL     1     151.299 156.630 158.294  0.00  0.00    -0.017 A 
ATOM     16  H   UNL     1     152.662 154.798 156.566  0.00  0.00    +0.000 HD
ENDROOT
TORSDOF 0
ENDMDL
MODEL 6
REMARK VINA RESULT:    -5.846     14.891     17.354
REMARK INTER + INTRA:          -5.846
REMARK INTER:                  -5.846
REMARK INTRA:                   0.000
REMARK UNBOUND:                 0.000
REMARK  Name = /home/vital/Documents/PhD_2021/Malaria_codes/scripts/../data/pdbqt_ligands/ligand_413_temp.pdb
REMARK                            x       y       z     vdW  Elec       q    Type
REMARK                         _______ _______ _______ _____ _____    ______ ____
ROOT
ATOM      1  C1  UNL     1     143.295 148.295 165.754  0.00  0.00    -0.061 C 
ATOM      2  C2  UNL     1     143.914 147.295 166.733  0.00  0.00    -0.031 C 
ATOM      3  C3  UNL     1     142.970 146.112 166.943  0.00  0.00    -0.061 C 
ATOM      4  C4  UNL     1     145.348 146.878 166.339  0.00  0.00    +0.014 C 
ATOM      5  N1  UNL     1     145.432 146.208 165.032  0.00  0.00    -0.333 N 
ATOM      6  C5  UNL     1     145.726 147.062 163.881  0.00  0.00    +0.001 C 
ATOM      7  C6  UNL     1     145.449 144.820 164.875  0.00  0.00    +0.031 A 
ATOM      8  C7  UNL     1     145.442 143.935 165.966  0.00  0.00    -0.040 A 
ATOM      9  C8  UNL     1     145.455 142.534 165.828  0.00  0.00    -0.051 A 
ATOM     10  C9  UNL     1     145.472 141.971 164.544  0.00  0.00    -0.000 A 
ATOM     11  C10 UNL     1     145.487 140.644 164.038  0.00  0.00    -0.037 A 
ATOM     12  C11 UNL     1     145.495 140.722 162.663  0.00  0.00    +0.003 A 
ATOM     13  N2  UNL     1     145.485 142.048 162.321  0.00  0.00    -0.361 N 
ATOM     14  C12 UNL     1     145.474 142.831 163.453  0.00  0.00    +0.048 A 
ATOM     15  C13 UNL     1     145.461 144.230 163.593  0.00  0.00    -0.017 A 
ATOM     16  H   UNL     1     145.486 142.392 161.398  0.00  0.00    +0.000 HD
ENDROOT
TORSDOF 0
ENDMDL
MODEL 7
REMARK VINA RESULT:    -5.759      2.059      6.069
REMARK INTER + INTRA:          -5.759
REMARK INTER:                  -5.759
REMARK INTRA:                   0.000
REMARK UNBOUND:                 0.000
REMARK  Name = /home/vital/Documents/PhD_2021/Malaria_codes/scripts/../data/pdbqt_ligands/ligand_413_temp.pdb
REMARK                            x       y       z     vdW  Elec       q    Type
REMARK                         _______ _______ _______ _____ _____    ______ ____
ROOT
ATOM      1  C1  UNL     1     152.449 157.884 154.516  0.00  0.00    -0.061 C 
ATOM      2  C2  UNL     1     151.498 156.775 154.971  0.00  0.00    -0.031 C 
ATOM      3  C3  UNL     1     152.294 155.591 155.516  0.00  0.00    -0.061 C 
ATOM      4  C4  UNL     1     150.405 157.281 155.937  0.00  0.00    +0.014 C 
ATOM      5  N1  UNL     1     150.934 157.843 157.189  0.00  0.00    -0.333 N 
ATOM      6  C5  UNL     1     151.150 159.290 157.212  0.00  0.00    +0.001 C 
ATOM      7  C6  UNL     1     151.040 157.117 158.378  0.00  0.00    +0.031 A 
ATOM      8  C7  UNL     1     150.596 155.790 158.496  0.00  0.00    -0.040 A 
ATOM      9  C8  UNL     1     150.698 155.041 159.685  0.00  0.00    -0.051 A 
ATOM     10  C9  UNL     1     151.273 155.629 160.819  0.00  0.00    -0.000 A 
ATOM     11  C10 UNL     1     151.534 155.191 162.145  0.00  0.00    -0.037 A 
ATOM     12  C11 UNL     1     152.134 156.232 162.818  0.00  0.00    +0.003 A 
ATOM     13  N2  UNL     1     152.245 157.283 161.946  0.00  0.00    -0.361 N 
ATOM     14  C12 UNL     1     151.723 156.940 160.719  0.00  0.00    +0.048 A 
ATOM     15  C13 UNL     1     151.620 157.686 159.532  0.00  0.00    -0.017 A 
ATOM     16  H   UNL     1     152.641 158.157 162.165  0.00  0.00    +0.000 HD
ENDROOT
TORSDOF 0
ENDMDL
MODEL 8
REMARK VINA RESULT:    -5.650      2.805      5.053
REMARK INTER + INTRA:          -5.650
REMARK INTER:                  -5.650
REMARK INTRA:                   0.000
REMARK UNBOUND:                 0.000
REMARK  Name = /home/vital/Documents/PhD_2021/Malaria_codes/scripts/../data/pdbqt_ligands/ligand_413_temp.pdb
REMARK                            x       y       z     vdW  Elec       q    Type
REMARK                         _______ _______ _______ _____ _____    ______ ____
ROOT
ATOM      1  C1  UNL     1     149.543 154.540 163.479  0.00  0.00    -0.061 C 
ATOM      2  C2  UNL     1     150.078 153.782 162.262  0.00  0.00    -0.031 C 
ATOM      3  C3  UNL     1     149.039 153.788 161.141  0.00  0.00    -0.061 C 
ATOM      4  C4  UNL     1     151.472 154.271 161.815  0.00  0.00    +0.014 C 
ATOM      5  N1  UNL     1     151.500 155.683 161.404  0.00  0.00    -0.333 N 
ATOM      6  C5  UNL     1     151.863 156.654 162.438  0.00  0.00    +0.001 C 
ATOM      7  C6  UNL     1     151.403 156.105 160.076  0.00  0.00    +0.031 A 
ATOM      8  C7  UNL     1     151.323 155.204 159.001  0.00  0.00    -0.040 A 
ATOM      9  C8  UNL     1     151.221 155.609 157.656  0.00  0.00    -0.051 A 
ATOM     10  C9  UNL     1     151.192 156.976 157.352  0.00  0.00    -0.000 A 
ATOM     11  C10 UNL     1     151.097 157.729 156.150  0.00  0.00    -0.037 A 
ATOM     12  C11 UNL     1     151.112 159.063 156.490  0.00  0.00    +0.003 A 
ATOM     13  N2  UNL     1     151.211 159.144 157.854  0.00  0.00    -0.361 N 
ATOM     14  C12 UNL     1     151.265 157.883 158.402  0.00  0.00    +0.048 A 
ATOM     15  C13 UNL     1     151.367 157.476 159.745  0.00  0.00    -0.017 A 
ATOM     16  H   UNL     1     151.240 159.983 158.368  0.00  0.00    +0.000 HD
ENDROOT
TORSDOF 0
ENDMDL
MODEL 9
REMARK VINA RESULT:    -5.594     11.712     14.500
REMARK INTER + INTRA:          -5.594
REMARK INTER:                  -5.594
REMARK INTRA:                   0.000
REMARK UNBOUND:                 0.000
REMARK  Name = /home/vital/Documents/PhD_2021/Malaria_codes/scripts/../data/pdbqt_ligands/ligand_413_temp.pdb
REMARK                            x       y       z     vdW  Elec       q    Type
REMARK                         _______ _______ _______ _____ _____    ______ ____
ROOT
ATOM      1  C1  UNL     1     144.959 144.095 165.688  0.00  0.00    -0.061 C 
ATOM      2  C2  UNL     1     145.113 145.228 166.704  0.00  0.00    -0.031 C 
ATOM      3  C3  UNL     1     146.581 145.635 166.819  0.00  0.00    -0.061 C 
ATOM      4  C4  UNL     1     144.164 146.415 166.429  0.00  0.00    +0.014 C 
ATOM      5  N1  UNL     1     144.386 147.061 165.126  0.00  0.00    -0.333 N 
ATOM      6  C5  UNL     1     143.564 146.583 164.015  0.00  0.00    +0.001 C 
ATOM      7  C6  UNL     1     145.167 148.207 164.955  0.00  0.00    +0.031 A 
ATOM      8  C7  UNL     1     145.770 148.879 166.031  0.00  0.00    -0.040 A 
ATOM      9  C8  UNL     1     146.563 150.033 165.878  0.00  0.00    -0.051 A 
ATOM     10  C9  UNL     1     146.779 150.552 164.595  0.00  0.00    -0.000 A 
ATOM     11  C10 UNL     1     147.501 151.661 164.076  0.00  0.00    -0.037 A 
ATOM     12  C11 UNL     1     147.344 151.657 162.708  0.00  0.00    +0.003 A 
ATOM     13  N2  UNL     1     146.555 150.586 162.381  0.00  0.00    -0.361 N 
ATOM     14  C12 UNL     1     146.195 149.897 163.517  0.00  0.00    +0.048 A 
ATOM     15  C13 UNL     1     145.403 148.746 163.672  0.00  0.00    -0.017 A 
ATOM     16  H   UNL     1     146.285 150.343 161.466  0.00  0.00    +0.000 HD
ENDROOT
TORSDOF 0
ENDMDL
