MODEL 1
REMARK VINA RESULT:    -7.480      0.000      0.000
REMARK INTER + INTRA:          -7.480
REMARK INTER:                  -7.480
REMARK INTRA:                   0.000
REMARK UNBOUND:                 0.000
REMARK  Name = /home/vital/Documents/PhD_2021/Malaria_codes/scripts/../data/pdbqt_ligands/ligand_289_temp.pdb
REMARK                            x       y       z     vdW  Elec       q    Type
REMARK                         _______ _______ _______ _____ _____    ______ ____
ROOT
ATOM      1  C1  UNL     1     151.226 158.154 167.100  0.00  0.00    -0.065 C 
ATOM      2  C2  UNL     1     151.292 156.647 166.883  0.00  0.00    -0.049 C 
ATOM      3  C3  UNL     1     150.715 156.206 165.523  0.00  0.00    -0.019 C 
ATOM      4  C4  UNL     1     150.659 154.675 165.438  0.00  0.00    -0.058 C 
ATOM      5  C5  UNL     1     151.474 156.779 164.337  0.00  0.00    -0.043 A 
ATOM      6  C6  UNL     1     152.835 156.509 164.131  0.00  0.00    -0.058 A 
ATOM      7  C7  UNL     1     153.513 157.056 163.040  0.00  0.00    -0.060 A 
ATOM      8  C8  UNL     1     152.842 157.882 162.141  0.00  0.00    -0.039 A 
ATOM      9  C9  UNL     1     151.491 158.158 162.332  0.00  0.00    +0.048 A 
ATOM     10  N1  UNL     1     150.795 159.041 161.458  0.00  0.00    -0.216 N 
ATOM     11  S1  UNL     1     151.230 160.673 161.425  0.00  0.00    +0.072 S 
ATOM     12  O1  UNL     1     152.595 160.799 160.962  0.00  0.00    -0.150 OA
ATOM     13  O2  UNL     1     150.144 161.366 160.762  0.00  0.00    -0.150 OA
ATOM     14  C10 UNL     1     151.181 161.137 163.146  0.00  0.00    +0.109 A 
ATOM     15  C11 UNL     1     152.385 161.212 163.872  0.00  0.00    -0.030 A 
ATOM     16  C12 UNL     1     152.305 161.545 165.210  0.00  0.00    -0.022 A 
ATOM     17  C13 UNL     1     151.068 161.822 165.770  0.00  0.00    +0.043 A 
ATOM     18  C14 UNL     1     149.869 161.763 165.089  0.00  0.00    -0.023 A 
ATOM     19  C15 UNL     1     149.927 161.414 163.742  0.00  0.00    -0.030 A 
ATOM     20  C16 UNL     1     148.610 161.954 165.877  0.00  0.00    -0.018 C 
ATOM     21  C17 UNL     1     148.839 162.810 167.128  0.00  0.00    +0.029 C 
ATOM     22  C18 UNL     1     150.113 162.473 167.899  0.00  0.00    +0.220 C 
ATOM     23  O3  UNL     1     150.190 162.615 169.117  0.00  0.00    -0.275 OA
ATOM     24  N2  UNL     1     151.178 162.115 167.117  0.00  0.00    -0.271 N 
ATOM     25  C19 UNL     1     152.564 161.911 167.539  0.00  0.00    +0.024 C 
ATOM     26  C20 UNL     1     153.381 161.677 166.245  0.00  0.00    -0.010 C 
ATOM     27  C21 UNL     1     150.809 157.608 163.420  0.00  0.00    -0.036 A 
ATOM     28  H   UNL     1     150.071 158.705 160.882  0.00  0.00    +0.000 HD
ENDROOT
TORSDOF 0
ENDMDL
MODEL 2
REMARK VINA RESULT:    -7.469     11.540     15.039
REMARK INTER + INTRA:          -7.469
REMARK INTER:                  -7.469
REMARK INTRA:                   0.000
REMARK UNBOUND:                 0.000
REMARK  Name = /home/vital/Documents/PhD_2021/Malaria_codes/scripts/../data/pdbqt_ligands/ligand_289_temp.pdb
REMARK                            x       y       z     vdW  Elec       q    Type
REMARK                         _______ _______ _______ _____ _____    ______ ____
ROOT
ATOM      1  C1  UNL     1     145.824 145.861 163.869  0.00  0.00    -0.065 C 
ATOM      2  C2  UNL     1     145.788 144.365 164.155  0.00  0.00    -0.049 C 
ATOM      3  C3  UNL     1     145.369 144.036 165.602  0.00  0.00    -0.019 C 
ATOM      4  C4  UNL     1     145.513 142.532 165.870  0.00  0.00    -0.058 C 
ATOM      5  C5  UNL     1     143.963 144.506 165.939  0.00  0.00    -0.043 A 
ATOM      6  C6  UNL     1     142.840 144.037 165.241  0.00  0.00    -0.058 A 
ATOM      7  C7  UNL     1     141.560 144.492 165.562  0.00  0.00    -0.060 A 
ATOM      8  C8  UNL     1     141.383 145.424 166.584  0.00  0.00    -0.039 A 
ATOM      9  C9  UNL     1     142.488 145.896 167.287  0.00  0.00    +0.048 A 
ATOM     10  N1  UNL     1     142.341 146.886 168.299  0.00  0.00    -0.216 N 
ATOM     11  S1  UNL     1     141.826 148.435 167.862  0.00  0.00    +0.072 S 
ATOM     12  O1  UNL     1     140.490 148.361 167.311  0.00  0.00    -0.150 OA
ATOM     13  O2  UNL     1     142.128 149.292 168.990  0.00  0.00    -0.150 OA
ATOM     14  C10 UNL     1     142.947 148.875 166.547  0.00  0.00    +0.109 A 
ATOM     15  C11 UNL     1     142.519 148.758 165.212  0.00  0.00    -0.030 A 
ATOM     16  C12 UNL     1     143.425 149.080 164.219  0.00  0.00    -0.022 A 
ATOM     17  C13 UNL     1     144.688 149.531 164.571  0.00  0.00    +0.043 A 
ATOM     18  C14 UNL     1     145.140 149.663 165.868  0.00  0.00    -0.023 A 
ATOM     19  C15 UNL     1     144.246 149.329 166.883  0.00  0.00    -0.030 A 
ATOM     20  C16 UNL     1     146.577 150.029 166.071  0.00  0.00    -0.018 C 
ATOM     21  C17 UNL     1     147.142 150.822 164.886  0.00  0.00    +0.029 C 
ATOM     22  C18 UNL     1     146.734 150.286 163.516  0.00  0.00    +0.220 C 
ATOM     23  O3  UNL     1     147.463 150.397 162.534  0.00  0.00    -0.275 OA
ATOM     24  N2  UNL     1     145.461 149.784 163.453  0.00  0.00    -0.271 N 
ATOM     25  C19 UNL     1     144.727 149.368 162.258  0.00  0.00    +0.024 C 
ATOM     26  C20 UNL     1     143.290 149.033 162.727  0.00  0.00    -0.010 C 
ATOM     27  C21 UNL     1     143.770 145.439 166.970  0.00  0.00    -0.036 A 
ATOM     28  H   UNL     1     142.536 146.671 169.240  0.00  0.00    +0.000 HD
ENDROOT
TORSDOF 0
ENDMDL
MODEL 3
REMARK VINA RESULT:    -7.370      0.994      1.151
REMARK INTER + INTRA:          -7.370
REMARK INTER:                  -7.370
REMARK INTRA:                   0.000
REMARK UNBOUND:                 0.000
REMARK  Name = /home/vital/Documents/PhD_2021/Malaria_codes/scripts/../data/pdbqt_ligands/ligand_289_temp.pdb
REMARK                            x       y       z     vdW  Elec       q    Type
REMARK                         _______ _______ _______ _____ _____    ______ ____
ROOT
ATOM      1  C1  UNL     1     152.205 157.899 167.700  0.00  0.00    -0.065 C 
ATOM      2  C2  UNL     1     152.137 156.409 167.388  0.00  0.00    -0.049 C 
ATOM      3  C3  UNL     1     151.255 156.088 166.165  0.00  0.00    -0.019 C 
ATOM      4  C4  UNL     1     151.094 154.570 166.007  0.00  0.00    -0.058 C 
ATOM      5  C5  UNL     1     151.771 156.707 164.876  0.00  0.00    -0.043 A 
ATOM      6  C6  UNL     1     153.038 156.392 164.361  0.00  0.00    -0.058 A 
ATOM      7  C7  UNL     1     153.494 156.982 163.181  0.00  0.00    -0.060 A 
ATOM      8  C8  UNL     1     152.693 157.896 162.500  0.00  0.00    -0.039 A 
ATOM      9  C9  UNL     1     151.433 158.217 162.998  0.00  0.00    +0.048 A 
ATOM     10  N1  UNL     1     150.617 159.186 162.349  0.00  0.00    -0.216 N 
ATOM     11  S1  UNL     1     151.127 160.797 162.315  0.00  0.00    +0.072 S 
ATOM     12  O1  UNL     1     152.365 160.894 161.571  0.00  0.00    -0.150 OA
ATOM     13  O2  UNL     1     149.966 161.580 161.947  0.00  0.00    -0.150 OA
ATOM     14  C10 UNL     1     151.478 161.144 164.028  0.00  0.00    +0.109 A 
ATOM     15  C11 UNL     1     152.812 161.117 164.475  0.00  0.00    -0.030 A 
ATOM     16  C12 UNL     1     153.043 161.361 165.815  0.00  0.00    -0.022 A 
ATOM     17  C13 UNL     1     151.974 161.653 166.648  0.00  0.00    +0.043 A 
ATOM     18  C14 UNL     1     150.655 161.693 166.244  0.00  0.00    -0.023 A 
ATOM     19  C15 UNL     1     150.400 161.434 164.899  0.00  0.00    -0.030 A 
ATOM     20  C16 UNL     1     149.609 161.885 167.299  0.00  0.00    -0.018 C 
ATOM     21  C17 UNL     1     150.152 162.643 168.516  0.00  0.00    +0.029 C 
ATOM     22  C18 UNL     1     151.540 162.199 168.968  0.00  0.00    +0.220 C 
ATOM     23  O3  UNL     1     151.887 162.254 170.146  0.00  0.00    -0.275 OA
ATOM     24  N2  UNL     1     152.390 161.849 167.952  0.00  0.00    -0.271 N 
ATOM     25  C19 UNL     1     153.820 161.556 168.048  0.00  0.00    +0.024 C 
ATOM     26  C20 UNL     1     154.323 161.375 166.595  0.00  0.00    -0.010 C 
ATOM     27  C21 UNL     1     150.972 157.625 164.176  0.00  0.00    -0.036 A 
ATOM     28  H   UNL     1     149.767 158.922 161.927  0.00  0.00    +0.000 HD
ENDROOT
TORSDOF 0
ENDMDL
MODEL 4
REMARK VINA RESULT:    -6.899      3.110      4.839
REMARK INTER + INTRA:          -6.899
REMARK INTER:                  -6.899
REMARK INTRA:                   0.000
REMARK UNBOUND:                 0.000
REMARK  Name = /home/vital/Documents/PhD_2021/Malaria_codes/scripts/../data/pdbqt_ligands/ligand_289_temp.pdb
REMARK                            x       y       z     vdW  Elec       q    Type
REMARK                         _______ _______ _______ _____ _____    ______ ____
ROOT
ATOM      1  C1  UNL     1     150.506 161.452 164.125  0.00  0.00    -0.065 C 
ATOM      2  C2  UNL     1     150.833 161.287 162.645  0.00  0.00    -0.049 C 
ATOM      3  C3  UNL     1     152.022 160.338 162.391  0.00  0.00    -0.019 C 
ATOM      4  C4  UNL     1     152.403 160.347 160.905  0.00  0.00    -0.058 C 
ATOM      5  C5  UNL     1     151.766 158.918 162.869  0.00  0.00    -0.043 A 
ATOM      6  C6  UNL     1     150.714 158.144 162.355  0.00  0.00    -0.058 A 
ATOM      7  C7  UNL     1     150.493 156.846 162.818  0.00  0.00    -0.060 A 
ATOM      8  C8  UNL     1     151.318 156.302 163.801  0.00  0.00    -0.039 A 
ATOM      9  C9  UNL     1     152.367 157.058 164.318  0.00  0.00    +0.048 A 
ATOM     10  N1  UNL     1     153.191 156.545 165.359  0.00  0.00    -0.216 N 
ATOM     11  S1  UNL     1     152.510 156.260 166.879  0.00  0.00    +0.072 S 
ATOM     12  O1  UNL     1     151.491 155.239 166.767  0.00  0.00    -0.150 OA
ATOM     13  O2  UNL     1     153.621 156.116 167.798  0.00  0.00    -0.150 OA
ATOM     14  C10 UNL     1     151.708 157.807 167.257  0.00  0.00    +0.109 A 
ATOM     15  C11 UNL     1     150.319 157.926 167.066  0.00  0.00    -0.030 A 
ATOM     16  C12 UNL     1     149.737 159.148 167.340  0.00  0.00    -0.022 A 
ATOM     17  C13 UNL     1     150.524 160.184 167.819  0.00  0.00    +0.043 A 
ATOM     18  C14 UNL     1     151.886 160.104 168.022  0.00  0.00    -0.023 A 
ATOM     19  C15 UNL     1     152.494 158.883 167.737  0.00  0.00    -0.030 A 
ATOM     20  C16 UNL     1     152.608 161.357 168.409  0.00  0.00    -0.018 C 
ATOM     21  C17 UNL     1     151.693 162.345 169.142  0.00  0.00    +0.029 C 
ATOM     22  C18 UNL     1     150.302 162.489 168.531  0.00  0.00    +0.220 C 
ATOM     23  O3  UNL     1     149.672 163.542 168.594  0.00  0.00    -0.275 OA
ATOM     24  N2  UNL     1     149.779 161.332 168.017  0.00  0.00    -0.271 N 
ATOM     25  C19 UNL     1     148.417 161.109 167.533  0.00  0.00    +0.024 C 
ATOM     26  C20 UNL     1     148.313 159.597 167.213  0.00  0.00    -0.010 C 
ATOM     27  C21 UNL     1     152.593 158.355 163.854  0.00  0.00    -0.036 A 
ATOM     28  H   UNL     1     154.144 156.360 165.196  0.00  0.00    +0.000 HD
ENDROOT
TORSDOF 0
ENDMDL
MODEL 5
REMARK VINA RESULT:    -5.981     12.440     16.212
REMARK INTER + INTRA:          -5.981
REMARK INTER:                  -5.981
REMARK INTRA:                   0.000
REMARK UNBOUND:                 0.000
REMARK  Name = /home/vital/Documents/PhD_2021/Malaria_codes/scripts/../data/pdbqt_ligands/ligand_289_temp.pdb
REMARK                            x       y       z     vdW  Elec       q    Type
REMARK                         _______ _______ _______ _____ _____    ______ ____
ROOT
ATOM      1  C1  UNL     1     146.122 146.450 163.341  0.00  0.00    -0.065 C 
ATOM      2  C2  UNL     1     146.773 147.734 162.841  0.00  0.00    -0.049 C 
ATOM      3  C3  UNL     1     145.861 148.970 162.982  0.00  0.00    -0.019 C 
ATOM      4  C4  UNL     1     146.507 150.189 162.314  0.00  0.00    -0.058 C 
ATOM      5  C5  UNL     1     145.496 149.282 164.425  0.00  0.00    -0.043 A 
ATOM      6  C6  UNL     1     146.474 149.582 165.385  0.00  0.00    -0.058 A 
ATOM      7  C7  UNL     1     146.116 149.855 166.706  0.00  0.00    -0.060 A 
ATOM      8  C8  UNL     1     144.776 149.830 167.088  0.00  0.00    -0.039 A 
ATOM      9  C9  UNL     1     143.794 149.536 166.145  0.00  0.00    +0.048 A 
ATOM     10  N1  UNL     1     142.424 149.453 166.520  0.00  0.00    -0.216 N 
ATOM     11  S1  UNL     1     141.933 148.222 167.568  0.00  0.00    +0.072 S 
ATOM     12  O1  UNL     1     142.589 148.387 168.847  0.00  0.00    -0.150 OA
ATOM     13  O2  UNL     1     140.490 148.157 167.467  0.00  0.00    -0.150 OA
ATOM     14  C10 UNL     1     142.584 146.753 166.795  0.00  0.00    +0.109 A 
ATOM     15  C11 UNL     1     143.777 146.189 167.284  0.00  0.00    -0.030 A 
ATOM     16  C12 UNL     1     144.268 145.069 166.641  0.00  0.00    -0.022 A 
ATOM     17  C13 UNL     1     143.560 144.531 165.578  0.00  0.00    +0.043 A 
ATOM     18  C14 UNL     1     142.386 145.053 165.073  0.00  0.00    -0.023 A 
ATOM     19  C15 UNL     1     141.883 146.192 165.700  0.00  0.00    -0.030 A 
ATOM     20  C16 UNL     1     141.824 144.432 163.832  0.00  0.00    -0.018 C 
ATOM     21  C17 UNL     1     142.236 142.963 163.687  0.00  0.00    +0.029 C 
ATOM     22  C18 UNL     1     143.699 142.682 164.019  0.00  0.00    +0.220 C 
ATOM     23  O3  UNL     1     144.328 141.781 163.469  0.00  0.00    -0.275 OA
ATOM     24  N2  UNL     1     144.207 143.431 165.047  0.00  0.00    -0.271 N 
ATOM     25  C19 UNL     1     145.502 143.271 165.709  0.00  0.00    +0.024 C 
ATOM     26  C20 UNL     1     145.507 144.266 166.896  0.00  0.00    -0.010 C 
ATOM     27  C21 UNL     1     144.150 149.267 164.822  0.00  0.00    -0.036 A 
ATOM     28  H   UNL     1     141.771 150.104 166.174  0.00  0.00    +0.000 HD
ENDROOT
TORSDOF 0
ENDMDL
MODEL 6
REMARK VINA RESULT:    -5.929      3.296      5.605
REMARK INTER + INTRA:          -5.929
REMARK INTER:                  -5.929
REMARK INTRA:                   0.000
REMARK UNBOUND:                 0.000
REMARK  Name = /home/vital/Documents/PhD_2021/Malaria_codes/scripts/../data/pdbqt_ligands/ligand_289_temp.pdb
REMARK                            x       y       z     vdW  Elec       q    Type
REMARK                         _______ _______ _______ _____ _____    ______ ____
ROOT
ATOM      1  C1  UNL     1     152.417 158.880 164.011  0.00  0.00    -0.065 C 
ATOM      2  C2  UNL     1     152.391 159.498 162.619  0.00  0.00    -0.049 C 
ATOM      3  C3  UNL     1     151.059 160.205 162.296  0.00  0.00    -0.019 C 
ATOM      4  C4  UNL     1     151.037 160.657 160.830  0.00  0.00    -0.058 C 
ATOM      5  C5  UNL     1     150.763 161.375 163.220  0.00  0.00    -0.043 A 
ATOM      6  C6  UNL     1     151.620 162.483 163.306  0.00  0.00    -0.058 A 
ATOM      7  C7  UNL     1     151.333 163.540 164.170  0.00  0.00    -0.060 A 
ATOM      8  C8  UNL     1     150.187 163.506 164.963  0.00  0.00    -0.039 A 
ATOM      9  C9  UNL     1     149.327 162.414 164.886  0.00  0.00    +0.048 A 
ATOM     10  N1  UNL     1     148.178 162.330 165.723  0.00  0.00    -0.216 N 
ATOM     11  S1  UNL     1     148.388 162.180 167.392  0.00  0.00    +0.072 S 
ATOM     12  O1  UNL     1     149.051 163.360 167.903  0.00  0.00    -0.150 OA
ATOM     13  O2  UNL     1     147.112 161.746 167.922  0.00  0.00    -0.150 OA
ATOM     14  C10 UNL     1     149.514 160.804 167.533  0.00  0.00    +0.109 A 
ATOM     15  C11 UNL     1     150.881 161.055 167.756  0.00  0.00    -0.030 A 
ATOM     16  C12 UNL     1     151.728 159.966 167.830  0.00  0.00    -0.022 A 
ATOM     17  C13 UNL     1     151.204 158.688 167.718  0.00  0.00    +0.043 A 
ATOM     18  C14 UNL     1     149.870 158.403 167.504  0.00  0.00    -0.023 A 
ATOM     19  C15 UNL     1     149.002 159.489 167.412  0.00  0.00    -0.030 A 
ATOM     20  C16 UNL     1     149.492 156.974 167.267  0.00  0.00    -0.018 C 
ATOM     21  C17 UNL     1     150.476 156.001 167.927  0.00  0.00    +0.029 C 
ATOM     22  C18 UNL     1     151.945 156.381 167.762  0.00  0.00    +0.220 C 
ATOM     23  O3  UNL     1     152.833 155.533 167.709  0.00  0.00    -0.275 OA
ATOM     24  N2  UNL     1     152.196 157.728 167.795  0.00  0.00    -0.271 N 
ATOM     25  C19 UNL     1     153.500 158.389 167.843  0.00  0.00    +0.024 C 
ATOM     26  C20 UNL     1     153.212 159.900 168.026  0.00  0.00    -0.010 C 
ATOM     27  C21 UNL     1     149.609 161.356 164.019  0.00  0.00    -0.036 A 
ATOM     28  H   UNL     1     147.274 162.359 165.334  0.00  0.00    +0.000 HD
ENDROOT
TORSDOF 0
ENDMDL
MODEL 7
REMARK VINA RESULT:    -5.867      3.207      5.083
REMARK INTER + INTRA:          -5.867
REMARK INTER:                  -5.867
REMARK INTRA:                   0.000
REMARK UNBOUND:                 0.000
REMARK  Name = /home/vital/Documents/PhD_2021/Malaria_codes/scripts/../data/pdbqt_ligands/ligand_289_temp.pdb
REMARK                            x       y       z     vdW  Elec       q    Type
REMARK                         _______ _______ _______ _____ _____    ______ ____
ROOT
ATOM      1  C1  UNL     1     151.218 160.098 163.647  0.00  0.00    -0.065 C 
ATOM      2  C2  UNL     1     151.364 159.423 162.289  0.00  0.00    -0.049 C 
ATOM      3  C3  UNL     1     152.204 158.131 162.344  0.00  0.00    -0.019 C 
ATOM      4  C4  UNL     1     152.451 157.595 160.928  0.00  0.00    -0.058 C 
ATOM      5  C5  UNL     1     151.589 157.054 163.223  0.00  0.00    -0.043 A 
ATOM      6  C6  UNL     1     150.320 156.517 162.954  0.00  0.00    -0.058 A 
ATOM      7  C7  UNL     1     149.771 155.537 163.782  0.00  0.00    -0.060 A 
ATOM      8  C8  UNL     1     150.480 155.080 164.892  0.00  0.00    -0.039 A 
ATOM      9  C9  UNL     1     151.740 155.602 165.170  0.00  0.00    +0.048 A 
ATOM     10  N1  UNL     1     152.462 155.191 166.326  0.00  0.00    -0.216 N 
ATOM     11  S1  UNL     1     151.851 155.575 167.854  0.00  0.00    +0.072 S 
ATOM     12  O1  UNL     1     150.576 154.919 168.042  0.00  0.00    -0.150 OA
ATOM     13  O2  UNL     1     152.943 155.378 168.785  0.00  0.00    -0.150 OA
ATOM     14  C10 UNL     1     151.563 157.331 167.741  0.00  0.00    +0.109 A 
ATOM     15  C11 UNL     1     150.257 157.799 167.509  0.00  0.00    -0.030 A 
ATOM     16  C12 UNL     1     150.076 159.164 167.397  0.00  0.00    -0.022 A 
ATOM     17  C13 UNL     1     151.164 160.009 167.551  0.00  0.00    +0.043 A 
ATOM     18  C14 UNL     1     152.457 159.587 167.785  0.00  0.00    -0.023 A 
ATOM     19  C15 UNL     1     152.662 158.212 167.885  0.00  0.00    -0.030 A 
ATOM     20  C16 UNL     1     153.539 160.622 167.786  0.00  0.00    -0.018 C 
ATOM     21  C17 UNL     1     153.010 162.007 168.179  0.00  0.00    +0.029 C 
ATOM     22  C18 UNL     1     151.675 162.378 167.537  0.00  0.00    +0.220 C 
ATOM     23  O3  UNL     1     151.383 163.542 167.275  0.00  0.00    -0.275 OA
ATOM     24  N2  UNL     1     150.801 161.334 167.389  0.00  0.00    -0.271 N 
ATOM     25  C19 UNL     1     149.398 161.399 166.979  0.00  0.00    +0.024 C 
ATOM     26  C20 UNL     1     148.837 159.963 167.126  0.00  0.00    -0.010 C 
ATOM     27  C21 UNL     1     152.294 156.580 164.340  0.00  0.00    -0.036 A 
ATOM     28  H   UNL     1     153.305 154.690 166.236  0.00  0.00    +0.000 HD
ENDROOT
TORSDOF 0
ENDMDL
MODEL 8
REMARK VINA RESULT:    -5.841     13.440     17.035
REMARK INTER + INTRA:          -5.841
REMARK INTER:                  -5.841
REMARK INTRA:                   0.000
REMARK UNBOUND:                 0.000
REMARK  Name = /home/vital/Documents/PhD_2021/Malaria_codes/scripts/../data/pdbqt_ligands/ligand_289_temp.pdb
REMARK                            x       y       z     vdW  Elec       q    Type
REMARK                         _______ _______ _______ _____ _____    ______ ____
ROOT
ATOM      1  C1  UNL     1     140.919 145.983 166.451  0.00  0.00    -0.065 C 
ATOM      2  C2  UNL     1     140.491 147.347 166.979  0.00  0.00    -0.049 C 
ATOM      3  C3  UNL     1     141.683 148.255 167.344  0.00  0.00    -0.019 C 
ATOM      4  C4  UNL     1     141.187 149.540 168.020  0.00  0.00    -0.058 C 
ATOM      5  C5  UNL     1     142.569 148.586 166.153  0.00  0.00    -0.043 A 
ATOM      6  C6  UNL     1     142.073 149.263 165.029  0.00  0.00    -0.058 A 
ATOM      7  C7  UNL     1     142.904 149.546 163.944  0.00  0.00    -0.060 A 
ATOM      8  C8  UNL     1     144.241 149.155 163.965  0.00  0.00    -0.039 A 
ATOM      9  C9  UNL     1     144.748 148.484 165.074  0.00  0.00    +0.048 A 
ATOM     10  N1  UNL     1     146.096 148.027 165.099  0.00  0.00    -0.216 N 
ATOM     11  S1  UNL     1     146.572 146.817 164.020  0.00  0.00    +0.072 S 
ATOM     12  O1  UNL     1     146.439 147.301 162.663  0.00  0.00    -0.150 OA
ATOM     13  O2  UNL     1     147.833 146.308 164.517  0.00  0.00    -0.150 OA
ATOM     14  C10 UNL     1     145.349 145.544 164.280  0.00  0.00    +0.109 A 
ATOM     15  C11 UNL     1     144.282 145.421 163.370  0.00  0.00    -0.030 A 
ATOM     16  C12 UNL     1     143.338 144.444 163.620  0.00  0.00    -0.022 A 
ATOM     17  C13 UNL     1     143.494 143.613 164.718  0.00  0.00    +0.043 A 
ATOM     18  C14 UNL     1     144.528 143.701 165.627  0.00  0.00    -0.023 A 
ATOM     19  C15 UNL     1     145.483 144.691 165.401  0.00  0.00    -0.030 A 
ATOM     20  C16 UNL     1     144.471 142.818 166.835  0.00  0.00    -0.018 C 
ATOM     21  C17 UNL     1     143.673 141.535 166.573  0.00  0.00    +0.029 C 
ATOM     22  C18 UNL     1     142.381 141.745 165.788  0.00  0.00    +0.220 C 
ATOM     23  O3  UNL     1     141.398 141.027 165.952  0.00  0.00    -0.275 OA
ATOM     24  N2  UNL     1     142.449 142.713 164.820  0.00  0.00    -0.271 N 
ATOM     25  C19 UNL     1     141.450 143.021 163.798  0.00  0.00    +0.024 C 
ATOM     26  C20 UNL     1     142.091 144.084 162.872  0.00  0.00    -0.010 C 
ATOM     27  C21 UNL     1     143.920 148.204 166.164  0.00  0.00    -0.036 A 
ATOM     28  H   UNL     1     146.741 148.411 165.735  0.00  0.00    +0.000 HD
ENDROOT
TORSDOF 0
ENDMDL
MODEL 9
REMARK VINA RESULT:    -5.811      2.854      6.358
REMARK INTER + INTRA:          -5.811
REMARK INTER:                  -5.811
REMARK INTRA:                   0.000
REMARK UNBOUND:                 0.000
REMARK  Name = /home/vital/Documents/PhD_2021/Malaria_codes/scripts/../data/pdbqt_ligands/ligand_289_temp.pdb
REMARK                            x       y       z     vdW  Elec       q    Type
REMARK                         _______ _______ _______ _____ _____    ______ ____
ROOT
ATOM      1  C1  UNL     1     153.123 159.847 169.471  0.00  0.00    -0.065 C 
ATOM      2  C2  UNL     1     153.489 160.985 170.416  0.00  0.00    -0.049 C 
ATOM      3  C3  UNL     1     153.533 162.360 169.719  0.00  0.00    -0.019 C 
ATOM      4  C4  UNL     1     154.067 163.429 170.681  0.00  0.00    -0.058 C 
ATOM      5  C5  UNL     1     152.191 162.782 169.143  0.00  0.00    -0.043 A 
ATOM      6  C6  UNL     1     151.059 162.949 169.955  0.00  0.00    -0.058 A 
ATOM      7  C7  UNL     1     149.835 163.327 169.401  0.00  0.00    -0.060 A 
ATOM      8  C8  UNL     1     149.723 163.541 168.029  0.00  0.00    -0.039 A 
ATOM      9  C9  UNL     1     150.839 163.381 167.211  0.00  0.00    +0.048 A 
ATOM     10  N1  UNL     1     150.739 163.542 165.801  0.00  0.00    -0.216 N 
ATOM     11  S1  UNL     1     149.803 162.450 164.914  0.00  0.00    +0.072 S 
ATOM     12  O1  UNL     1     148.421 162.550 165.330  0.00  0.00    -0.150 OA
ATOM     13  O2  UNL     1     150.185 162.624 163.528  0.00  0.00    -0.150 OA
ATOM     14  C10 UNL     1     150.430 160.865 165.440  0.00  0.00    +0.109 A 
ATOM     15  C11 UNL     1     149.714 160.128 166.402  0.00  0.00    -0.030 A 
ATOM     16  C12 UNL     1     150.245 158.919 166.807  0.00  0.00    -0.022 A 
ATOM     17  C13 UNL     1     151.424 158.468 166.236  0.00  0.00    +0.043 A 
ATOM     18  C14 UNL     1     152.150 159.160 165.288  0.00  0.00    -0.023 A 
ATOM     19  C15 UNL     1     151.639 160.389 164.877  0.00  0.00    -0.030 A 
ATOM     20  C16 UNL     1     153.476 158.597 164.878  0.00  0.00    -0.018 C 
ATOM     21  C17 UNL     1     153.533 157.075 165.052  0.00  0.00    +0.029 C 
ATOM     22  C18 UNL     1     152.919 156.565 166.353  0.00  0.00    +0.220 C 
ATOM     23  O3  UNL     1     153.333 155.552 166.912  0.00  0.00    -0.275 OA
ATOM     24  N2  UNL     1     151.814 157.256 166.775  0.00  0.00    -0.271 N 
ATOM     25  C19 UNL     1     150.911 156.906 167.871  0.00  0.00    +0.024 C 
ATOM     26  C20 UNL     1     149.749 157.929 167.818  0.00  0.00    -0.010 C 
ATOM     27  C21 UNL     1     152.066 163.007 167.763  0.00  0.00    -0.036 A 
ATOM     28  H   UNL     1     151.209 164.280 165.348  0.00  0.00    +0.000 HD
ENDROOT
TORSDOF 0
ENDMDL
