MODEL 1
REMARK VINA RESULT:    -7.302      0.000      0.000
REMARK INTER + INTRA:          -7.302
REMARK INTER:                  -7.302
REMARK INTRA:                   0.000
REMARK UNBOUND:                 0.000
REMARK  Name = /home/vital/Documents/PhD_2021/Malaria_codes/scripts/../data/pdbqt_ligands/ligand_159_temp.pdb
REMARK                            x       y       z     vdW  Elec       q    Type
REMARK                         _______ _______ _______ _____ _____    ______ ____
ROOT
ATOM      1  C   UNL     1     148.406 152.221 166.974  0.00  0.00    -0.047 C 
ATOM      2  C   UNL     1     148.947 152.967 165.796  0.00  0.00    -0.087 C 
ATOM      3  C   UNL     1     149.709 154.068 165.897  0.00  0.00    -0.066 C 
ATOM      4  C   UNL     1     150.232 154.758 164.737  0.00  0.00    -0.054 C 
ATOM      5  C   UNL     1     150.922 155.920 164.628  0.00  0.00    +0.007 C 
ATOM      6  C   UNL     1     151.412 156.308 163.274  0.00  0.00    -0.009 C 
ATOM      7  C   UNL     1     151.896 155.294 162.329  0.00  0.00    -0.038 C 
ATOM      8  C   UNL     1     151.371 154.968 161.133  0.00  0.00    +0.034 C 
ATOM      9 CL   UNL     1     152.155 153.706 160.219  0.00  0.00    -0.087 Cl
ATOM     10  C   UNL     1     150.176 155.569 160.456  0.00  0.00    +0.058 C 
ATOM     11 CL   UNL     1     148.747 154.532 160.698  0.00  0.00    -0.119 Cl
ATOM     12  C   UNL     1     151.519 157.566 162.875  0.00  0.00    +0.013 C 
ATOM     13  C   UNL     1     151.843 158.433 161.829  0.00  0.00    +0.070 C 
ATOM     14  N   UNL     1     152.203 158.728 160.673  0.00  0.00    -0.289 NA
ATOM     15  C   UNL     1     152.274 160.164 160.419  0.00  0.00    +0.029 C 
ATOM     16  C   UNL     1     151.392 159.003 163.099  0.00  0.00    +0.119 C 
ATOM     17  N   UNL     1     152.404 159.713 163.889  0.00  0.00    -0.282 NA
ATOM     18  C   UNL     1     152.251 159.928 165.157  0.00  0.00    +0.001 C 
ATOM     19  C   UNL     1     151.118 159.527 166.058  0.00  0.00    -0.009 C 
ATOM     20  C   UNL     1     150.451 158.186 165.789  0.00  0.00    +0.034 C 
ATOM     21  C   UNL     1     149.717 157.624 167.008  0.00  0.00    +0.058 C 
ATOM     22  O   UNL     1     150.634 156.522 167.104  0.00  0.00    -0.354 OA
ATOM     23  C   UNL     1     151.229 156.819 165.818  0.00  0.00    +0.152 C 
ATOM     24  N   UNL     1     152.666 157.089 165.976  0.00  0.00    -0.283 N 
ATOM     25  C   UNL     1     153.410 155.915 166.451  0.00  0.00    +0.022 C 
ATOM     26  C   UNL     1     153.365 155.688 167.968  0.00  0.00    +0.057 C 
ATOM     27  O   UNL     1     154.265 154.639 168.328  0.00  0.00    -0.394 OA
ATOM     28  H   UNL     1     152.784 157.846 166.649  0.00  0.00    +0.000 HD
ATOM     29  H   UNL     1     153.037 157.341 165.059  0.00  0.00    +0.000 HD
ATOM     30  H   UNL     1     154.007 153.821 167.875  0.00  0.00    +0.000 HD
ENDROOT
TORSDOF 0
ENDMDL
MODEL 2
REMARK VINA RESULT:    -7.261      3.672      6.600
REMARK INTER + INTRA:          -7.261
REMARK INTER:                  -7.261
REMARK INTRA:                   0.000
REMARK UNBOUND:                 0.000
REMARK  Name = /home/vital/Documents/PhD_2021/Malaria_codes/scripts/../data/pdbqt_ligands/ligand_159_temp.pdb
REMARK                            x       y       z     vdW  Elec       q    Type
REMARK                         _______ _______ _______ _____ _____    ______ ____
ROOT
ATOM      1  C   UNL     1     149.845 158.719 157.910  0.00  0.00    -0.047 C 
ATOM      2  C   UNL     1     150.203 158.597 159.357  0.00  0.00    -0.087 C 
ATOM      3  C   UNL     1     150.280 157.426 160.009  0.00  0.00    -0.066 C 
ATOM      4  C   UNL     1     150.646 157.339 161.407  0.00  0.00    -0.054 C 
ATOM      5  C   UNL     1     150.680 156.282 162.255  0.00  0.00    +0.007 C 
ATOM      6  C   UNL     1     151.211 156.515 163.629  0.00  0.00    -0.009 C 
ATOM      7  C   UNL     1     152.332 157.435 163.857  0.00  0.00    -0.038 C 
ATOM      8  C   UNL     1     152.325 158.580 164.565  0.00  0.00    +0.034 C 
ATOM      9 CL   UNL     1     153.812 159.486 164.660  0.00  0.00    -0.087 Cl
ATOM     10  C   UNL     1     151.179 159.193 165.314  0.00  0.00    +0.058 C 
ATOM     11 CL   UNL     1     150.432 160.486 164.342  0.00  0.00    -0.119 Cl
ATOM     12  C   UNL     1     150.774 155.862 164.695  0.00  0.00    +0.013 C 
ATOM     13  C   UNL     1     150.860 155.703 166.079  0.00  0.00    +0.070 C 
ATOM     14  N   UNL     1     151.282 155.956 167.224  0.00  0.00    -0.289 NA
ATOM     15  C   UNL     1     150.694 155.128 168.273  0.00  0.00    +0.029 C 
ATOM     16  C   UNL     1     149.910 154.875 165.336  0.00  0.00    +0.119 C 
ATOM     17  N   UNL     1     150.232 153.447 165.237  0.00  0.00    -0.282 NA
ATOM     18  C   UNL     1     149.708 152.692 164.324  0.00  0.00    +0.001 C 
ATOM     19  C   UNL     1     148.747 153.056 163.229  0.00  0.00    -0.009 C 
ATOM     20  C   UNL     1     148.906 154.425 162.583  0.00  0.00    +0.034 C 
ATOM     21  C   UNL     1     148.286 154.506 161.187  0.00  0.00    +0.058 C 
ATOM     22  O   UNL     1     149.576 154.684 160.579  0.00  0.00    -0.354 OA
ATOM     23  C   UNL     1     150.225 154.884 161.858  0.00  0.00    +0.152 C 
ATOM     24  N   UNL     1     151.264 153.863 162.064  0.00  0.00    -0.283 N 
ATOM     25  C   UNL     1     152.357 153.971 161.088  0.00  0.00    +0.022 C 
ATOM     26  C   UNL     1     152.084 153.309 159.731  0.00  0.00    +0.057 C 
ATOM     27  O   UNL     1     153.274 153.316 158.940  0.00  0.00    -0.394 OA
ATOM     28  H   UNL     1     150.837 152.941 161.977  0.00  0.00    +0.000 HD
ATOM     29  H   UNL     1     151.661 154.007 162.992  0.00  0.00    +0.000 HD
ATOM     30  H   UNL     1     153.561 154.231 158.797  0.00  0.00    +0.000 HD
ENDROOT
TORSDOF 0
ENDMDL
MODEL 3
REMARK VINA RESULT:    -6.590      3.776      6.081
REMARK INTER + INTRA:          -6.590
REMARK INTER:                  -6.590
REMARK INTRA:                   0.000
REMARK UNBOUND:                 0.000
REMARK  Name = /home/vital/Documents/PhD_2021/Malaria_codes/scripts/../data/pdbqt_ligands/ligand_159_temp.pdb
REMARK                            x       y       z     vdW  Elec       q    Type
REMARK                         _______ _______ _______ _____ _____    ______ ____
ROOT
ATOM      1  C   UNL     1     151.637 156.311 166.580  0.00  0.00    -0.047 C 
ATOM      2  C   UNL     1     151.433 157.066 165.306  0.00  0.00    -0.087 C 
ATOM      3  C   UNL     1     151.148 156.483 164.131  0.00  0.00    -0.066 C 
ATOM      4  C   UNL     1     150.939 157.245 162.917  0.00  0.00    -0.054 C 
ATOM      5  C   UNL     1     150.746 156.844 161.637  0.00  0.00    +0.007 C 
ATOM      6  C   UNL     1     150.455 157.896 160.620  0.00  0.00    -0.009 C 
ATOM      7  C   UNL     1     149.629 159.062 160.959  0.00  0.00    -0.038 C 
ATOM      8  C   UNL     1     150.002 160.356 160.975  0.00  0.00    +0.034 C 
ATOM      9 CL   UNL     1     148.805 161.540 161.430  0.00  0.00    -0.087 Cl
ATOM     10  C   UNL     1     151.343 160.933 160.632  0.00  0.00    +0.058 C 
ATOM     11 CL   UNL     1     152.265 161.266 162.121  0.00  0.00    -0.119 Cl
ATOM     12  C   UNL     1     150.840 157.808 159.356  0.00  0.00    +0.013 C 
ATOM     13  C   UNL     1     150.881 158.429 158.106  0.00  0.00    +0.070 C 
ATOM     14  N   UNL     1     150.673 159.347 157.290  0.00  0.00    -0.289 NA
ATOM     15  C   UNL     1     151.157 159.068 155.942  0.00  0.00    +0.029 C 
ATOM     16  C   UNL     1     151.503 157.113 158.258  0.00  0.00    +0.119 C 
ATOM     17  N   UNL     1     150.831 155.995 157.587  0.00  0.00    -0.282 NA
ATOM     18  C   UNL     1     151.041 154.765 157.935  0.00  0.00    +0.001 C 
ATOM     19  C   UNL     1     151.927 154.225 159.021  0.00  0.00    -0.009 C 
ATOM     20  C   UNL     1     152.035 155.036 160.305  0.00  0.00    +0.034 C 
ATOM     21  C   UNL     1     152.486 154.203 161.506  0.00  0.00    +0.058 C 
ATOM     22  O   UNL     1     151.217 154.377 162.157  0.00  0.00    -0.354 OA
ATOM     23  C   UNL     1     150.793 155.384 161.207  0.00  0.00    +0.152 C 
ATOM     24  N   UNL     1     149.567 154.949 160.522  0.00  0.00    -0.283 N 
ATOM     25  C   UNL     1     148.426 154.820 161.439  0.00  0.00    +0.022 C 
ATOM     26  C   UNL     1     148.367 153.501 162.221  0.00  0.00    +0.057 C 
ATOM     27  O   UNL     1     147.130 153.415 162.931  0.00  0.00    -0.394 OA
ATOM     28  H   UNL     1     149.740 154.043 160.086  0.00  0.00    +0.000 HD
ATOM     29  H   UNL     1     149.329 155.659 159.829  0.00  0.00    +0.000 HD
ATOM     30  H   UNL     1     147.062 154.157 163.553  0.00  0.00    +0.000 HD
ENDROOT
TORSDOF 0
ENDMDL
MODEL 4
REMARK VINA RESULT:    -6.521     12.549     16.313
REMARK INTER + INTRA:          -6.521
REMARK INTER:                  -6.521
REMARK INTRA:                   0.000
REMARK UNBOUND:                 0.000
REMARK  Name = /home/vital/Documents/PhD_2021/Malaria_codes/scripts/../data/pdbqt_ligands/ligand_159_temp.pdb
REMARK                            x       y       z     vdW  Elec       q    Type
REMARK                         _______ _______ _______ _____ _____    ______ ____
ROOT
ATOM      1  C   UNL     1     140.591 140.063 169.346  0.00  0.00    -0.047 C 
ATOM      2  C   UNL     1     141.066 141.301 168.655  0.00  0.00    -0.087 C 
ATOM      3  C   UNL     1     141.775 141.293 167.515  0.00  0.00    -0.066 C 
ATOM      4  C   UNL     1     142.205 142.511 166.860  0.00  0.00    -0.054 C 
ATOM      5  C   UNL     1     142.999 142.708 165.779  0.00  0.00    +0.007 C 
ATOM      6  C   UNL     1     143.166 144.106 165.290  0.00  0.00    -0.009 C 
ATOM      7  C   UNL     1     142.045 145.055 165.325  0.00  0.00    -0.038 C 
ATOM      8  C   UNL     1     141.956 146.196 166.033  0.00  0.00    +0.034 C 
ATOM      9 CL   UNL     1     140.490 147.129 165.889  0.00  0.00    -0.087 Cl
ATOM     10  C   UNL     1     142.984 146.797 166.946  0.00  0.00    +0.058 C 
ATOM     11 CL   UNL     1     142.595 146.414 168.643  0.00  0.00    -0.119 Cl
ATOM     12  C   UNL     1     144.280 144.550 164.729  0.00  0.00    +0.013 C 
ATOM     13  C   UNL     1     144.951 145.644 164.177  0.00  0.00    +0.070 C 
ATOM     14  N   UNL     1     145.083 146.832 163.827  0.00  0.00    -0.289 NA
ATOM     15  C   UNL     1     146.374 147.134 163.217  0.00  0.00    +0.029 C 
ATOM     16  C   UNL     1     145.650 144.361 164.260  0.00  0.00    +0.119 C 
ATOM     17  N   UNL     1     145.898 143.673 162.988  0.00  0.00    -0.282 NA
ATOM     18  C   UNL     1     146.153 142.404 162.938  0.00  0.00    +0.001 C 
ATOM     19  C   UNL     1     146.231 141.407 164.059  0.00  0.00    -0.009 C 
ATOM     20  C   UNL     1     145.264 141.583 165.221  0.00  0.00    +0.034 C 
ATOM     21  C   UNL     1     145.035 140.294 166.012  0.00  0.00    +0.058 C 
ATOM     22  O   UNL     1     143.659 140.236 165.600  0.00  0.00    -0.354 OA
ATOM     23  C   UNL     1     143.700 141.573 165.045  0.00  0.00    +0.152 C 
ATOM     24  N   UNL     1     143.380 141.534 163.610  0.00  0.00    -0.283 N 
ATOM     25  C   UNL     1     142.006 141.082 163.353  0.00  0.00    +0.022 C 
ATOM     26  C   UNL     1     141.811 139.560 163.359  0.00  0.00    +0.057 C 
ATOM     27  O   UNL     1     140.490 139.240 162.918  0.00  0.00    -0.394 OA
ATOM     28  H   UNL     1     144.027 140.895 163.148  0.00  0.00    +0.000 HD
ATOM     29  H   UNL     1     143.467 142.484 163.247  0.00  0.00    +0.000 HD
ATOM     30  H   UNL     1     139.843 139.646 163.515  0.00  0.00    +0.000 HD
ENDROOT
TORSDOF 0
ENDMDL
MODEL 5
REMARK VINA RESULT:    -5.739      3.552      5.361
REMARK INTER + INTRA:          -5.739
REMARK INTER:                  -5.739
REMARK INTRA:                   0.000
REMARK UNBOUND:                 0.000
REMARK  Name = /home/vital/Documents/PhD_2021/Malaria_codes/scripts/../data/pdbqt_ligands/ligand_159_temp.pdb
REMARK                            x       y       z     vdW  Elec       q    Type
REMARK                         _______ _______ _______ _____ _____    ______ ____
ROOT
ATOM      1  C   UNL     1     150.705 160.772 171.551  0.00  0.00    -0.047 C 
ATOM      2  C   UNL     1     150.918 159.767 170.466  0.00  0.00    -0.087 C 
ATOM      3  C   UNL     1     151.330 160.082 169.228  0.00  0.00    -0.066 C 
ATOM      4  C   UNL     1     151.545 159.082 168.202  0.00  0.00    -0.054 C 
ATOM      5  C   UNL     1     151.855 159.206 166.889  0.00  0.00    +0.007 C 
ATOM      6  C   UNL     1     152.111 157.955 166.119  0.00  0.00    -0.009 C 
ATOM      7  C   UNL     1     152.801 156.817 166.738  0.00  0.00    -0.038 C 
ATOM      8  C   UNL     1     152.310 155.586 166.971  0.00  0.00    +0.034 C 
ATOM      9 CL   UNL     1     153.360 154.424 167.739  0.00  0.00    -0.087 Cl
ATOM     10  C   UNL     1     150.945 155.060 166.638  0.00  0.00    +0.058 C 
ATOM     11 CL   UNL     1     149.903 155.100 168.084  0.00  0.00    -0.119 Cl
ATOM     12  C   UNL     1     151.817 157.822 164.834  0.00  0.00    +0.013 C 
ATOM     13  C   UNL     1     151.798 156.973 163.726  0.00  0.00    +0.070 C 
ATOM     14  N   UNL     1     151.971 155.898 163.120  0.00  0.00    -0.289 NA
ATOM     15  C   UNL     1     151.601 155.943 161.709  0.00  0.00    +0.029 C 
ATOM     16  C   UNL     1     151.292 158.337 163.573  0.00  0.00    +0.119 C 
ATOM     17  N   UNL     1     152.107 159.244 162.758  0.00  0.00    -0.282 NA
ATOM     18  C   UNL     1     151.990 160.532 162.847  0.00  0.00    +0.001 C 
ATOM     19  C   UNL     1     151.092 161.344 163.735  0.00  0.00    -0.009 C 
ATOM     20  C   UNL     1     150.827 160.813 165.137  0.00  0.00    +0.034 C 
ATOM     21  C   UNL     1     150.380 161.899 166.117  0.00  0.00    +0.058 C 
ATOM     22  O   UNL     1     151.583 161.757 166.889  0.00  0.00    -0.354 OA
ATOM     23  C   UNL     1     151.971 160.552 166.186  0.00  0.00    +0.152 C 
ATOM     24  N   UNL     1     153.274 160.746 165.532  0.00  0.00    -0.283 N 
ATOM     25  C   UNL     1     154.360 160.962 166.496  0.00  0.00    +0.022 C 
ATOM     26  C   UNL     1     154.493 162.400 167.014  0.00  0.00    +0.057 C 
ATOM     27  O   UNL     1     155.684 162.528 167.792  0.00  0.00    -0.394 OA
ATOM     28  H   UNL     1     153.214 161.559 164.918  0.00  0.00    +0.000 HD
ATOM     29  H   UNL     1     153.488 159.896 165.008  0.00  0.00    +0.000 HD
ATOM     30  H   UNL     1     155.644 161.920 168.547  0.00  0.00    +0.000 HD
ENDROOT
TORSDOF 0
ENDMDL
MODEL 6
REMARK VINA RESULT:    -5.455      2.982      5.907
REMARK INTER + INTRA:          -5.455
REMARK INTER:                  -5.455
REMARK INTRA:                   0.000
REMARK UNBOUND:                 0.000
REMARK  Name = /home/vital/Documents/PhD_2021/Malaria_codes/scripts/../data/pdbqt_ligands/ligand_159_temp.pdb
REMARK                            x       y       z     vdW  Elec       q    Type
REMARK                         _______ _______ _______ _____ _____    ______ ____
ROOT
ATOM      1  C   UNL     1     151.579 161.525 159.742  0.00  0.00    -0.047 C 
ATOM      2  C   UNL     1     151.529 160.301 160.599  0.00  0.00    -0.087 C 
ATOM      3  C   UNL     1     151.512 160.331 161.941  0.00  0.00    -0.066 C 
ATOM      4  C   UNL     1     151.445 159.127 162.743  0.00  0.00    -0.054 C 
ATOM      5  C   UNL     1     151.519 158.946 164.084  0.00  0.00    +0.007 C 
ATOM      6  C   UNL     1     151.310 157.565 164.607  0.00  0.00    -0.009 C 
ATOM      7  C   UNL     1     150.329 156.665 163.987  0.00  0.00    -0.038 C 
ATOM      8  C   UNL     1     150.565 155.498 163.361  0.00  0.00    +0.034 C 
ATOM      9 CL   UNL     1     149.198 154.637 162.704  0.00  0.00    -0.087 Cl
ATOM     10  C   UNL     1     151.883 154.812 163.157  0.00  0.00    +0.058 C 
ATOM     11 CL   UNL     1     152.494 155.133 161.514  0.00  0.00    -0.119 Cl
ATOM     12  C   UNL     1     151.917 157.100 165.688  0.00  0.00    +0.013 C 
ATOM     13  C   UNL     1     152.116 156.005 166.532  0.00  0.00    +0.070 C 
ATOM     14  N   UNL     1     151.965 154.829 166.916  0.00  0.00    -0.289 NA
ATOM     15  C   UNL     1     152.703 154.500 168.131  0.00  0.00    +0.029 C 
ATOM     16  C   UNL     1     152.827 157.251 166.820  0.00  0.00    +0.119 C 
ATOM     17  N   UNL     1     152.393 157.985 168.014  0.00  0.00    -0.282 NA
ATOM     18  C   UNL     1     152.658 159.243 168.174  0.00  0.00    +0.001 C 
ATOM     19  C   UNL     1     153.388 160.183 167.258  0.00  0.00    -0.009 C 
ATOM     20  C   UNL     1     153.190 159.996 165.760  0.00  0.00    +0.034 C 
ATOM     21  C   UNL     1     153.503 161.256 164.951  0.00  0.00    +0.058 C 
ATOM     22  O   UNL     1     152.129 161.392 164.554  0.00  0.00    -0.354 OA
ATOM     23  C   UNL     1     151.783 160.082 165.063  0.00  0.00    +0.152 C 
ATOM     24  N   UNL     1     150.743 160.200 166.097  0.00  0.00    -0.283 N 
ATOM     25  C   UNL     1     149.478 160.723 165.564  0.00  0.00    +0.022 C 
ATOM     26  C   UNL     1     149.410 162.250 165.430  0.00  0.00    +0.057 C 
ATOM     27  O   UNL     1     148.083 162.648 165.083  0.00  0.00    -0.394 OA
ATOM     28  H   UNL     1     151.077 160.831 166.825  0.00  0.00    +0.000 HD
ATOM     29  H   UNL     1     150.563 159.265 166.464  0.00  0.00    +0.000 HD
ATOM     30  H   UNL     1     147.835 162.243 164.237  0.00  0.00    +0.000 HD
ENDROOT
TORSDOF 0
ENDMDL
MODEL 7
REMARK VINA RESULT:    -5.118      2.207      2.905
REMARK INTER + INTRA:          -5.118
REMARK INTER:                  -5.118
REMARK INTRA:                   0.000
REMARK UNBOUND:                 0.000
REMARK  Name = /home/vital/Documents/PhD_2021/Malaria_codes/scripts/../data/pdbqt_ligands/ligand_159_temp.pdb
REMARK                            x       y       z     vdW  Elec       q    Type
REMARK                         _______ _______ _______ _____ _____    ______ ____
ROOT
ATOM      1  C   UNL     1     149.438 152.722 164.563  0.00  0.00    -0.047 C 
ATOM      2  C   UNL     1     149.805 154.101 164.114  0.00  0.00    -0.087 C 
ATOM      3  C   UNL     1     150.300 155.044 164.932  0.00  0.00    -0.066 C 
ATOM      4  C   UNL     1     150.662 156.365 164.463  0.00  0.00    -0.054 C 
ATOM      5  C   UNL     1     151.074 157.467 165.136  0.00  0.00    +0.007 C 
ATOM      6  C   UNL     1     151.472 158.658 164.333  0.00  0.00    -0.009 C 
ATOM      7  C   UNL     1     152.178 158.504 163.055  0.00  0.00    -0.038 C 
ATOM      8  C   UNL     1     151.747 158.859 161.830  0.00  0.00    +0.034 C 
ATOM      9 CL   UNL     1     152.800 158.543 160.476  0.00  0.00    -0.087 Cl
ATOM     10  C   UNL     1     150.451 159.519 161.465  0.00  0.00    +0.058 C 
ATOM     11 CL   UNL     1     149.291 158.305 160.869  0.00  0.00    -0.119 Cl
ATOM     12  C   UNL     1     151.296 159.904 164.748  0.00  0.00    +0.013 C 
ATOM     13  C   UNL     1     151.424 161.261 164.445  0.00  0.00    +0.070 C 
ATOM     14  N   UNL     1     151.716 162.239 163.731  0.00  0.00    -0.289 NA
ATOM     15  C   UNL     1     151.464 163.532 164.359  0.00  0.00    +0.029 C 
ATOM     16  C   UNL     1     150.848 160.881 165.736  0.00  0.00    +0.119 C 
ATOM     17  N   UNL     1     151.671 161.153 166.919  0.00  0.00    -0.282 NA
ATOM     18  C   UNL     1     151.465 160.548 168.046  0.00  0.00    +0.001 C 
ATOM     19  C   UNL     1     150.446 159.499 168.388  0.00  0.00    -0.009 C 
ATOM     20  C   UNL     1     150.098 158.483 167.309  0.00  0.00    +0.034 C 
ATOM     21  C   UNL     1     149.502 157.190 167.871  0.00  0.00    +0.058 C 
ATOM     22  O   UNL     1     150.643 156.429 167.442  0.00  0.00    -0.354 OA
ATOM     23  C   UNL     1     151.164 157.527 166.655  0.00  0.00    +0.152 C 
ATOM     24  N   UNL     1     152.502 157.903 167.135  0.00  0.00    -0.283 N 
ATOM     25  C   UNL     1     153.488 156.829 166.948  0.00  0.00    +0.022 C 
ATOM     26  C   UNL     1     153.485 155.747 168.035  0.00  0.00    +0.057 C 
ATOM     27  O   UNL     1     154.596 154.869 167.848  0.00  0.00    -0.394 OA
ATOM     28  H   UNL     1     152.443 158.123 168.130  0.00  0.00    +0.000 HD
ATOM     29  H   UNL     1     152.813 158.708 166.591  0.00  0.00    +0.000 HD
ATOM     30  H   UNL     1     154.531 154.446 166.978  0.00  0.00    +0.000 HD
ENDROOT
TORSDOF 0
ENDMDL
MODEL 8
REMARK VINA RESULT:    -4.807      9.674     13.009
REMARK INTER + INTRA:          -4.807
REMARK INTER:                  -4.807
REMARK INTRA:                   0.000
REMARK UNBOUND:                 0.000
REMARK  Name = /home/vital/Documents/PhD_2021/Malaria_codes/scripts/../data/pdbqt_ligands/ligand_159_temp.pdb
REMARK                            x       y       z     vdW  Elec       q    Type
REMARK                         _______ _______ _______ _____ _____    ______ ____
ROOT
ATOM      1  C   UNL     1     140.494 142.883 167.638  0.00  0.00    -0.047 C 
ATOM      2  C   UNL     1     140.902 144.082 166.845  0.00  0.00    -0.087 C 
ATOM      3  C   UNL     1     142.130 144.252 166.329  0.00  0.00    -0.066 C 
ATOM      4  C   UNL     1     142.490 145.418 165.550  0.00  0.00    -0.054 C 
ATOM      5  C   UNL     1     143.681 145.815 165.039  0.00  0.00    +0.007 C 
ATOM      6  C   UNL     1     143.694 147.035 164.182  0.00  0.00    -0.009 C 
ATOM      7  C   UNL     1     142.583 147.324 163.266  0.00  0.00    -0.038 C 
ATOM      8  C   UNL     1     141.737 148.371 163.304  0.00  0.00    +0.034 C 
ATOM      9 CL   UNL     1     140.493 148.455 162.085  0.00  0.00    -0.087 Cl
ATOM     10  C   UNL     1     141.730 149.514 164.274  0.00  0.00    +0.058 C 
ATOM     11 CL   UNL     1     140.500 149.240 165.535  0.00  0.00    -0.119 Cl
ATOM     12  C   UNL     1     144.718 147.874 164.129  0.00  0.00    +0.013 C 
ATOM     13  C   UNL     1     145.223 149.062 163.600  0.00  0.00    +0.070 C 
ATOM     14  N   UNL     1     145.186 150.104 162.918  0.00  0.00    -0.289 NA
ATOM     15  C   UNL     1     146.410 150.898 162.973  0.00  0.00    +0.029 C 
ATOM     16  C   UNL     1     146.055 148.299 164.530  0.00  0.00    +0.119 C 
ATOM     17  N   UNL     1     147.234 147.641 163.958  0.00  0.00    -0.282 NA
ATOM     18  C   UNL     1     147.825 146.657 164.559  0.00  0.00    +0.001 C 
ATOM     19  C   UNL     1     147.475 145.992 165.859  0.00  0.00    -0.009 C 
ATOM     20  C   UNL     1     145.998 145.847 166.196  0.00  0.00    +0.034 C 
ATOM     21  C   UNL     1     145.718 144.735 167.209  0.00  0.00    +0.058 C 
ATOM     22  O   UNL     1     145.002 143.966 166.229  0.00  0.00    -0.354 OA
ATOM     23  C   UNL     1     144.982 145.063 165.284  0.00  0.00    +0.152 C 
ATOM     24  N   UNL     1     145.661 144.670 164.040  0.00  0.00    -0.283 N 
ATOM     25  C   UNL     1     144.964 143.583 163.339  0.00  0.00    +0.022 C 
ATOM     26  C   UNL     1     145.270 142.173 163.861  0.00  0.00    +0.057 C 
ATOM     27  O   UNL     1     144.688 141.199 162.993  0.00  0.00    -0.394 OA
ATOM     28  H   UNL     1     146.606 144.361 164.267  0.00  0.00    +0.000 HD
ATOM     29  H   UNL     1     145.670 145.482 163.422  0.00  0.00    +0.000 HD
ATOM     30  H   UNL     1     143.727 141.326 162.963  0.00  0.00    +0.000 HD
ENDROOT
TORSDOF 0
ENDMDL
MODEL 9
REMARK VINA RESULT:    -4.359      2.499      3.091
REMARK INTER + INTRA:          -4.359
REMARK INTER:                  -4.359
REMARK INTRA:                   0.000
REMARK UNBOUND:                 0.000
REMARK  Name = /home/vital/Documents/PhD_2021/Malaria_codes/scripts/../data/pdbqt_ligands/ligand_159_temp.pdb
REMARK                            x       y       z     vdW  Elec       q    Type
REMARK                         _______ _______ _______ _____ _____    ______ ____
ROOT
ATOM      1  C   UNL     1     150.672 154.556 169.128  0.00  0.00    -0.047 C 
ATOM      2  C   UNL     1     150.842 155.197 167.788  0.00  0.00    -0.087 C 
ATOM      3  C   UNL     1     151.009 156.517 167.609  0.00  0.00    -0.066 C 
ATOM      4  C   UNL     1     151.189 157.106 166.298  0.00  0.00    -0.054 C 
ATOM      5  C   UNL     1     151.269 158.402 165.907  0.00  0.00    +0.007 C 
ATOM      6  C   UNL     1     151.564 158.672 164.471  0.00  0.00    -0.009 C 
ATOM      7  C   UNL     1     152.488 157.816 163.717  0.00  0.00    -0.038 C 
ATOM      8  C   UNL     1     152.208 157.040 162.653  0.00  0.00    +0.034 C 
ATOM      9 CL   UNL     1     153.511 156.113 161.959  0.00  0.00    -0.087 Cl
ATOM     10  C   UNL     1     150.890 156.872 161.958  0.00  0.00    +0.058 C 
ATOM     11 CL   UNL     1     150.093 155.375 162.508  0.00  0.00    -0.119 Cl
ATOM     12  C   UNL     1     151.091 159.724 163.820  0.00  0.00    +0.013 C 
ATOM     13  C   UNL     1     151.010 160.399 162.600  0.00  0.00    +0.070 C 
ATOM     14  N   UNL     1     151.227 160.572 161.385  0.00  0.00    -0.289 NA
ATOM     15  C   UNL     1     150.636 161.791 160.842  0.00  0.00    +0.029 C 
ATOM     16  C   UNL     1     150.310 160.956 163.758  0.00  0.00    +0.119 C 
ATOM     17  N   UNL     1     150.858 162.198 164.312  0.00  0.00    -0.282 NA
ATOM     18  C   UNL     1     150.586 162.584 165.519  0.00  0.00    +0.001 C 
ATOM     19  C   UNL     1     149.740 161.913 166.562  0.00  0.00    -0.009 C 
ATOM     20  C   UNL     1     149.773 160.392 166.618  0.00  0.00    +0.034 C 
ATOM     21  C   UNL     1     149.346 159.831 167.976  0.00  0.00    +0.058 C 
ATOM     22  O   UNL     1     150.664 159.317 168.226  0.00  0.00    -0.354 OA
ATOM     23  C   UNL     1     151.092 159.571 166.866  0.00  0.00    +0.152 C 
ATOM     24  N   UNL     1     152.238 160.493 166.861  0.00  0.00    -0.283 N 
ATOM     25  C   UNL     1     153.425 159.918 167.509  0.00  0.00    +0.022 C 
ATOM     26  C   UNL     1     153.445 160.023 169.039  0.00  0.00    +0.057 C 
ATOM     27  O   UNL     1     154.717 159.604 169.537  0.00  0.00    -0.394 OA
ATOM     28  H   UNL     1     151.975 161.345 167.358  0.00  0.00    +0.000 HD
ATOM     29  H   UNL     1     152.478 160.685 165.888  0.00  0.00    +0.000 HD
ATOM     30  H   UNL     1     154.877 158.683 169.278  0.00  0.00    +0.000 HD
ENDROOT
TORSDOF 0
ENDMDL
