MODEL 1
REMARK VINA RESULT:    -8.638      0.000      0.000
REMARK INTER + INTRA:          -8.638
REMARK INTER:                  -8.638
REMARK INTRA:                   0.000
REMARK UNBOUND:                 0.000
REMARK  Name = /home/vital/Documents/PhD_2021/Malaria_codes/scripts/../data/pdbqt_ligands/ligand_69_temp.pdb
REMARK                            x       y       z     vdW  Elec       q    Type
REMARK                         _______ _______ _______ _____ _____    ______ ____
ROOT
ATOM      1  C1  UNL     1     151.927 158.740 161.717  0.00  0.00    -0.036 C 
ATOM      2  C2  UNL     1     151.253 159.724 160.760  0.00  0.00    +0.108 C 
ATOM      3 CL1  UNL     1     149.466 159.550 160.838  0.00  0.00    -0.107 Cl
ATOM      4  C3  UNL     1     151.602 161.181 161.146  0.00  0.00    +0.027 C 
ATOM      5  N1  UNL     1     151.288 161.739 162.367  0.00  0.00    -0.360 N 
ATOM      6  C4  UNL     1     152.210 161.776 160.108  0.00  0.00    -0.043 C 
ATOM      7  C5  UNL     1     152.300 160.860 159.002  0.00  0.00    -0.052 C 
ATOM      8  C6  UNL     1     151.751 159.675 159.334  0.00  0.00    +0.023 C 
ATOM      9  C7  UNL     1     151.635 158.519 158.453  0.00  0.00    +0.160 A 
ATOM     10  N2  UNL     1     151.182 157.372 158.970  0.00  0.00    -0.212 NA
ATOM     11  C8  UNL     1     151.022 156.332 158.133  0.00  0.00    +0.130 A 
ATOM     12  N3  UNL     1     150.500 155.118 158.638  0.00  0.00    -0.326 N 
ATOM     13  C9  UNL     1     150.264 155.067 160.080  0.00  0.00    +0.034 C 
ATOM     14  C10 UNL     1     151.552 154.757 160.854  0.00  0.00    +0.060 C 
ATOM     15  O1  UNL     1     151.278 154.551 162.240  0.00  0.00    -0.393 OA
ATOM     16  C11 UNL     1     151.352 156.416 156.769  0.00  0.00    +0.040 A 
ATOM     17  C12 UNL     1     151.242 155.354 155.835  0.00  0.00    -0.049 A 
ATOM     18  C13 UNL     1     151.595 155.534 154.500  0.00  0.00    -0.061 A 
ATOM     19  C14 UNL     1     152.064 156.773 154.083  0.00  0.00    -0.060 A 
ATOM     20  C15 UNL     1     152.180 157.816 155.005  0.00  0.00    -0.036 A 
ATOM     21  C16 UNL     1     151.835 157.658 156.342  0.00  0.00    +0.077 A 
ATOM     22  N4  UNL     1     151.974 158.698 157.167  0.00  0.00    -0.227 NA
ATOM     23  H   UNL     1     150.838 161.197 163.055  0.00  0.00    +0.000 HD
ATOM     24  H   UNL     1     151.514 162.679 162.552  0.00  0.00    +0.000 HD
ATOM     25  H   UNL     1     150.305 154.352 158.052  0.00  0.00    +0.000 HD
ATOM     26  H   UNL     1     150.885 155.355 162.615  0.00  0.00    +0.000 HD
ENDROOT
TORSDOF 0
ENDMDL
MODEL 2
REMARK VINA RESULT:    -8.115      2.536      4.498
REMARK INTER + INTRA:          -8.115
REMARK INTER:                  -8.115
REMARK INTRA:                   0.000
REMARK UNBOUND:                 0.000
REMARK  Name = /home/vital/Documents/PhD_2021/Malaria_codes/scripts/../data/pdbqt_ligands/ligand_69_temp.pdb
REMARK                            x       y       z     vdW  Elec       q    Type
REMARK                         _______ _______ _______ _____ _____    ______ ____
ROOT
ATOM      1  C1  UNL     1     150.581 157.820 162.443  0.00  0.00    -0.036 C 
ATOM      2  C2  UNL     1     151.320 156.522 162.110  0.00  0.00    +0.108 C 
ATOM      3 CL1  UNL     1     153.092 156.742 162.306  0.00  0.00    -0.107 Cl
ATOM      4  C3  UNL     1     150.878 155.387 163.064  0.00  0.00    +0.027 C 
ATOM      5  N1  UNL     1     151.036 155.440 164.432  0.00  0.00    -0.360 N 
ATOM      6  C4  UNL     1     150.366 154.381 162.339  0.00  0.00    -0.043 C 
ATOM      7  C5  UNL     1     150.431 154.703 160.938  0.00  0.00    -0.052 C 
ATOM      8  C6  UNL     1     150.983 155.919 160.766  0.00  0.00    +0.023 C 
ATOM      9  C7  UNL     1     151.237 156.560 159.481  0.00  0.00    +0.160 A 
ATOM     10  N2  UNL     1     151.672 157.825 159.479  0.00  0.00    -0.212 NA
ATOM     11  C8  UNL     1     151.960 158.382 158.291  0.00  0.00    +0.130 A 
ATOM     12  N3  UNL     1     152.468 159.702 158.255  0.00  0.00    -0.326 N 
ATOM     13  C9  UNL     1     152.545 160.398 159.540  0.00  0.00    +0.034 C 
ATOM     14  C10 UNL     1     151.193 161.000 159.941  0.00  0.00    +0.060 C 
ATOM     15  O1  UNL     1     151.321 161.809 161.110  0.00  0.00    -0.393 OA
ATOM     16  C11 UNL     1     151.779 157.691 157.080  0.00  0.00    +0.040 A 
ATOM     17  C12 UNL     1     152.028 158.224 155.789  0.00  0.00    -0.049 A 
ATOM     18  C13 UNL     1     151.817 157.459 154.644  0.00  0.00    -0.061 A 
ATOM     19  C14 UNL     1     151.352 156.157 154.774  0.00  0.00    -0.060 A 
ATOM     20  C15 UNL     1     151.099 155.636 156.045  0.00  0.00    -0.036 A 
ATOM     21  C16 UNL     1     151.301 156.381 157.200  0.00  0.00    +0.077 A 
ATOM     22  N4  UNL     1     151.034 155.818 158.381  0.00  0.00    -0.227 NA
ATOM     23  H   UNL     1     151.428 156.240 164.852  0.00  0.00    +0.000 HD
ATOM     24  H   UNL     1     150.757 154.679 164.990  0.00  0.00    +0.000 HD
ATOM     25  H   UNL     1     152.753 160.128 157.415  0.00  0.00    +0.000 HD
ATOM     26  H   UNL     1     151.641 161.265 161.847  0.00  0.00    +0.000 HD
ENDROOT
TORSDOF 0
ENDMDL
MODEL 3
REMARK VINA RESULT:    -7.923      2.520      6.046
REMARK INTER + INTRA:          -7.923
REMARK INTER:                  -7.923
REMARK INTRA:                   0.000
REMARK UNBOUND:                 0.000
REMARK  Name = /home/vital/Documents/PhD_2021/Malaria_codes/scripts/../data/pdbqt_ligands/ligand_69_temp.pdb
REMARK                            x       y       z     vdW  Elec       q    Type
REMARK                         _______ _______ _______ _____ _____    ______ ____
ROOT
ATOM      1  C1  UNL     1     152.340 159.266 157.161  0.00  0.00    -0.036 C 
ATOM      2  C2  UNL     1     151.337 158.147 156.877  0.00  0.00    +0.108 C 
ATOM      3 CL1  UNL     1     149.657 158.780 156.941  0.00  0.00    -0.107 Cl
ATOM      4  C3  UNL     1     151.566 157.560 155.464  0.00  0.00    +0.027 C 
ATOM      5  N1  UNL     1     151.469 158.304 154.308  0.00  0.00    -0.360 N 
ATOM      6  C4  UNL     1     151.833 156.250 155.572  0.00  0.00    -0.043 C 
ATOM      7  C5  UNL     1     151.789 155.852 156.954  0.00  0.00    -0.052 C 
ATOM      8  C6  UNL     1     151.496 156.912 157.733  0.00  0.00    +0.023 C 
ATOM      9  C7  UNL     1     151.337 156.879 159.183  0.00  0.00    +0.160 A 
ATOM     10  N2  UNL     1     151.174 158.040 159.827  0.00  0.00    -0.212 NA
ATOM     11  C8  UNL     1     150.968 157.990 161.154  0.00  0.00    +0.130 A 
ATOM     12  N3  UNL     1     150.744 159.196 161.861  0.00  0.00    -0.326 N 
ATOM     13  C9  UNL     1     150.856 160.429 161.083  0.00  0.00    +0.034 C 
ATOM     14  C10 UNL     1     152.316 160.870 160.926  0.00  0.00    +0.060 C 
ATOM     15  O1  UNL     1     152.399 162.154 160.308  0.00  0.00    -0.393 OA
ATOM     16  C11 UNL     1     150.960 156.775 161.863  0.00  0.00    +0.040 A 
ATOM     17  C12 UNL     1     150.783 156.648 163.265  0.00  0.00    -0.049 A 
ATOM     18  C13 UNL     1     150.792 155.397 163.878  0.00  0.00    -0.061 A 
ATOM     19  C14 UNL     1     150.980 154.262 163.101  0.00  0.00    -0.060 A 
ATOM     20  C15 UNL     1     151.163 154.389 161.722  0.00  0.00    -0.036 A 
ATOM     21  C16 UNL     1     151.160 155.627 161.090  0.00  0.00    +0.077 A 
ATOM     22  N4  UNL     1     151.343 155.672 159.768  0.00  0.00    -0.227 NA
ATOM     23  H   UNL     1     151.267 159.266 154.357  0.00  0.00    +0.000 HD
ATOM     24  H   UNL     1     151.603 157.874 153.433  0.00  0.00    +0.000 HD
ATOM     25  H   UNL     1     150.525 159.204 162.820  0.00  0.00    +0.000 HD
ATOM     26  H   UNL     1     151.999 162.114 159.425  0.00  0.00    +0.000 HD
ENDROOT
TORSDOF 0
ENDMDL
MODEL 4
REMARK VINA RESULT:    -7.782      2.854      6.822
REMARK INTER + INTRA:          -7.782
REMARK INTER:                  -7.782
REMARK INTRA:                   0.000
REMARK UNBOUND:                 0.000
REMARK  Name = /home/vital/Documents/PhD_2021/Malaria_codes/scripts/../data/pdbqt_ligands/ligand_69_temp.pdb
REMARK                            x       y       z     vdW  Elec       q    Type
REMARK                         _______ _______ _______ _____ _____    ______ ____
ROOT
ATOM      1  C1  UNL     1     152.006 159.176 157.872  0.00  0.00    -0.036 C 
ATOM      2  C2  UNL     1     150.975 158.091 158.186  0.00  0.00    +0.108 C 
ATOM      3 CL1  UNL     1     149.328 158.803 158.290  0.00  0.00    -0.107 Cl
ATOM      4  C3  UNL     1     150.955 157.022 157.068  0.00  0.00    +0.027 C 
ATOM      5  N1  UNL     1     150.653 157.304 155.753  0.00  0.00    -0.360 N 
ATOM      6  C4  UNL     1     151.243 155.825 157.601  0.00  0.00    -0.043 C 
ATOM      7  C5  UNL     1     151.443 155.956 159.020  0.00  0.00    -0.052 C 
ATOM      8  C6  UNL     1     151.287 157.240 159.395  0.00  0.00    +0.023 C 
ATOM      9  C7  UNL     1     151.384 157.742 160.761  0.00  0.00    +0.160 A 
ATOM     10  N2  UNL     1     151.331 159.064 160.955  0.00  0.00    -0.212 NA
ATOM     11  C8  UNL     1     151.360 159.508 162.223  0.00  0.00    +0.130 A 
ATOM     12  N3  UNL     1     151.258 160.898 162.467  0.00  0.00    -0.326 N 
ATOM     13  C9  UNL     1     151.226 161.760 161.285  0.00  0.00    +0.034 C 
ATOM     14  C10 UNL     1     152.634 162.027 160.740  0.00  0.00    +0.060 C 
ATOM     15  O1  UNL     1     152.601 162.994 159.691  0.00  0.00    -0.393 OA
ATOM     16  C11 UNL     1     151.483 158.633 163.317  0.00  0.00    +0.040 A 
ATOM     17  C12 UNL     1     151.554 159.031 164.677  0.00  0.00    -0.049 A 
ATOM     18  C13 UNL     1     151.676 158.086 165.694  0.00  0.00    -0.061 A 
ATOM     19  C14 UNL     1     151.731 156.739 165.366  0.00  0.00    -0.060 A 
ATOM     20  C15 UNL     1     151.669 156.349 164.026  0.00  0.00    -0.036 A 
ATOM     21  C16 UNL     1     151.549 157.274 162.995  0.00  0.00    +0.077 A 
ATOM     22  N4  UNL     1     151.499 156.828 161.737  0.00  0.00    -0.227 NA
ATOM     23  H   UNL     1     150.458 158.230 155.480  0.00  0.00    +0.000 HD
ATOM     24  H   UNL     1     150.634 156.580 155.086  0.00  0.00    +0.000 HD
ATOM     25  H   UNL     1     151.210 161.265 163.379  0.00  0.00    +0.000 HD
ATOM     26  H   UNL     1     152.053 162.663 158.962  0.00  0.00    +0.000 HD
ENDROOT
TORSDOF 0
ENDMDL
MODEL 5
REMARK VINA RESULT:    -7.563     12.563     16.059
REMARK INTER + INTRA:          -7.563
REMARK INTER:                  -7.563
REMARK INTRA:                   0.000
REMARK UNBOUND:                 0.000
REMARK  Name = /home/vital/Documents/PhD_2021/Malaria_codes/scripts/../data/pdbqt_ligands/ligand_69_temp.pdb
REMARK                            x       y       z     vdW  Elec       q    Type
REMARK                         _______ _______ _______ _____ _____    ______ ____
ROOT
ATOM      1  C1  UNL     1     143.121 143.240 164.353  0.00  0.00    -0.036 C 
ATOM      2  C2  UNL     1     144.644 143.103 164.400  0.00  0.00    +0.108 C 
ATOM      3 CL1  UNL     1     145.186 142.714 166.069  0.00  0.00    -0.107 Cl
ATOM      4  C3  UNL     1     145.114 141.956 163.474  0.00  0.00    +0.027 C 
ATOM      5  N1  UNL     1     144.722 140.644 163.631  0.00  0.00    -0.360 N 
ATOM      6  C4  UNL     1     145.955 142.454 162.555  0.00  0.00    -0.043 C 
ATOM      7  C5  UNL     1     146.140 143.864 162.771  0.00  0.00    -0.052 C 
ATOM      8  C6  UNL     1     145.412 144.272 163.828  0.00  0.00    +0.023 C 
ATOM      9  C7  UNL     1     145.376 145.629 164.360  0.00  0.00    +0.160 A 
ATOM     10  N2  UNL     1     144.504 145.904 165.336  0.00  0.00    -0.212 NA
ATOM     11  C8  UNL     1     144.524 147.142 165.858  0.00  0.00    +0.130 A 
ATOM     12  N3  UNL     1     143.648 147.453 166.925  0.00  0.00    -0.326 N 
ATOM     13  C9  UNL     1     142.706 146.404 167.311  0.00  0.00    +0.034 C 
ATOM     14  C10 UNL     1     141.476 146.381 166.396  0.00  0.00    +0.060 C 
ATOM     15  O1  UNL     1     140.494 145.465 166.881  0.00  0.00    -0.393 OA
ATOM     16  C11 UNL     1     145.395 148.138 165.381  0.00  0.00    +0.040 A 
ATOM     17  C12 UNL     1     145.450 149.473 165.859  0.00  0.00    -0.049 A 
ATOM     18  C13 UNL     1     146.350 150.390 165.320  0.00  0.00    -0.061 A 
ATOM     19  C14 UNL     1     147.201 149.988 164.300  0.00  0.00    -0.060 A 
ATOM     20  C15 UNL     1     147.141 148.675 163.825  0.00  0.00    -0.036 A 
ATOM     21  C16 UNL     1     146.250 147.744 164.346  0.00  0.00    +0.077 A 
ATOM     22  N4  UNL     1     146.246 146.508 163.840  0.00  0.00    -0.227 NA
ATOM     23  H   UNL     1     144.094 140.400 164.348  0.00  0.00    +0.000 HD
ATOM     24  H   UNL     1     145.070 139.951 163.024  0.00  0.00    +0.000 HD
ATOM     25  H   UNL     1     143.672 148.325 167.380  0.00  0.00    +0.000 HD
ATOM     26  H   UNL     1     140.870 144.571 166.904  0.00  0.00    +0.000 HD
ENDROOT
TORSDOF 0
ENDMDL
MODEL 6
REMARK VINA RESULT:    -7.490      3.816      7.279
REMARK INTER + INTRA:          -7.490
REMARK INTER:                  -7.490
REMARK INTRA:                   0.000
REMARK UNBOUND:                 0.000
REMARK  Name = /home/vital/Documents/PhD_2021/Malaria_codes/scripts/../data/pdbqt_ligands/ligand_69_temp.pdb
REMARK                            x       y       z     vdW  Elec       q    Type
REMARK                         _______ _______ _______ _____ _____    ______ ____
ROOT
ATOM      1  C1  UNL     1     152.359 158.068 160.887  0.00  0.00    -0.036 C 
ATOM      2  C2  UNL     1     151.037 157.409 160.491  0.00  0.00    +0.108 C 
ATOM      3 CL1  UNL     1     149.659 158.506 160.850  0.00  0.00    -0.107 Cl
ATOM      4  C3  UNL     1     151.014 157.107 158.974  0.00  0.00    +0.027 C 
ATOM      5  N1  UNL     1     151.129 158.080 158.004  0.00  0.00    -0.360 N 
ATOM      6  C4  UNL     1     150.841 155.789 158.793  0.00  0.00    -0.043 C 
ATOM      7  C5  UNL     1     150.714 155.132 160.067  0.00  0.00    -0.052 C 
ATOM      8  C6  UNL     1     150.809 156.030 161.065  0.00  0.00    +0.023 C 
ATOM      9  C7  UNL     1     150.695 155.731 162.488  0.00  0.00    +0.160 A 
ATOM     10  N2  UNL     1     150.943 156.712 163.363  0.00  0.00    -0.212 NA
ATOM     11  C8  UNL     1     150.774 156.439 164.668  0.00  0.00    +0.130 A 
ATOM     12  N3  UNL     1     150.980 157.467 165.618  0.00  0.00    -0.326 N 
ATOM     13  C9  UNL     1     151.465 158.743 165.092  0.00  0.00    +0.034 C 
ATOM     14  C10 UNL     1     152.983 158.728 164.877  0.00  0.00    +0.060 C 
ATOM     15  O1  UNL     1     153.462 160.025 164.520  0.00  0.00    -0.393 OA
ATOM     16  C11 UNL     1     150.392 155.163 165.119  0.00  0.00    +0.040 A 
ATOM     17  C12 UNL     1     150.228 154.793 166.479  0.00  0.00    -0.049 A 
ATOM     18  C13 UNL     1     149.847 153.499 166.828  0.00  0.00    -0.061 A 
ATOM     19  C14 UNL     1     149.628 152.562 165.827  0.00  0.00    -0.060 A 
ATOM     20  C15 UNL     1     149.798 152.926 164.489  0.00  0.00    -0.036 A 
ATOM     21  C16 UNL     1     150.179 154.210 164.118  0.00  0.00    +0.077 A 
ATOM     22  N4  UNL     1     150.325 154.485 162.819  0.00  0.00    -0.227 NA
ATOM     23  H   UNL     1     151.255 159.021 158.263  0.00  0.00    +0.000 HD
ATOM     24  H   UNL     1     151.087 157.833 157.052  0.00  0.00    +0.000 HD
ATOM     25  H   UNL     1     150.807 157.332 166.577  0.00  0.00    +0.000 HD
ATOM     26  H   UNL     1     153.042 160.307 163.692  0.00  0.00    +0.000 HD
ENDROOT
TORSDOF 0
ENDMDL
MODEL 7
REMARK VINA RESULT:    -7.248      4.741      6.401
REMARK INTER + INTRA:          -7.248
REMARK INTER:                  -7.248
REMARK INTRA:                   0.000
REMARK UNBOUND:                 0.000
REMARK  Name = /home/vital/Documents/PhD_2021/Malaria_codes/scripts/../data/pdbqt_ligands/ligand_69_temp.pdb
REMARK                            x       y       z     vdW  Elec       q    Type
REMARK                         _______ _______ _______ _____ _____    ______ ____
ROOT
ATOM      1  C1  UNL     1     152.495 158.640 167.878  0.00  0.00    -0.036 C 
ATOM      2  C2  UNL     1     151.695 159.552 166.946  0.00  0.00    +0.108 C 
ATOM      3 CL1  UNL     1     149.940 159.440 167.314  0.00  0.00    -0.107 Cl
ATOM      4  C3  UNL     1     152.122 161.027 167.134  0.00  0.00    +0.027 C 
ATOM      5  N1  UNL     1     152.011 161.703 168.331  0.00  0.00    -0.360 N 
ATOM      6  C4  UNL     1     152.570 161.506 165.964  0.00  0.00    -0.043 C 
ATOM      7  C5  UNL     1     152.473 160.490 164.949  0.00  0.00    -0.052 C 
ATOM      8  C6  UNL     1     151.965 159.358 165.472  0.00  0.00    +0.023 C 
ATOM      9  C7  UNL     1     151.694 158.130 164.733  0.00  0.00    +0.160 A 
ATOM     10  N2  UNL     1     151.310 157.049 165.420  0.00  0.00    -0.212 NA
ATOM     11  C8  UNL     1     151.006 155.943 164.720  0.00  0.00    +0.130 A 
ATOM     12  N3  UNL     1     150.549 154.796 165.412  0.00  0.00    -0.326 N 
ATOM     13  C9  UNL     1     150.541 154.884 166.872  0.00  0.00    +0.034 C 
ATOM     14  C10 UNL     1     151.928 154.608 167.465  0.00  0.00    +0.060 C 
ATOM     15  O1  UNL     1     151.869 154.537 168.889  0.00  0.00    -0.393 OA
ATOM     16  C11 UNL     1     151.120 155.892 163.320  0.00  0.00    +0.040 A 
ATOM     17  C12 UNL     1     150.850 154.752 162.519  0.00  0.00    -0.049 A 
ATOM     18  C13 UNL     1     150.994 154.800 161.134  0.00  0.00    -0.061 A 
ATOM     19  C14 UNL     1     151.411 155.980 160.534  0.00  0.00    -0.060 A 
ATOM     20  C15 UNL     1     151.685 157.099 161.325  0.00  0.00    -0.036 A 
ATOM     21  C16 UNL     1     151.550 157.074 162.708  0.00  0.00    +0.077 A 
ATOM     22  N4  UNL     1     151.832 158.181 163.399  0.00  0.00    -0.227 NA
ATOM     23  H   UNL     1     151.665 161.240 169.127  0.00  0.00    +0.000 HD
ATOM     24  H   UNL     1     152.278 162.649 168.388  0.00  0.00    +0.000 HD
ATOM     25  H   UNL     1     150.254 153.986 164.938  0.00  0.00    +0.000 HD
ATOM     26  H   UNL     1     151.553 155.384 169.242  0.00  0.00    +0.000 HD
ENDROOT
TORSDOF 0
ENDMDL
MODEL 8
REMARK VINA RESULT:    -7.169      4.144      7.452
REMARK INTER + INTRA:          -7.169
REMARK INTER:                  -7.169
REMARK INTRA:                   0.000
REMARK UNBOUND:                 0.000
REMARK  Name = /home/vital/Documents/PhD_2021/Malaria_codes/scripts/../data/pdbqt_ligands/ligand_69_temp.pdb
REMARK                            x       y       z     vdW  Elec       q    Type
REMARK                         _______ _______ _______ _____ _____    ______ ____
ROOT
ATOM      1  C1  UNL     1     149.448 155.008 160.896  0.00  0.00    -0.036 C 
ATOM      2  C2  UNL     1     150.891 155.480 160.706  0.00  0.00    +0.108 C 
ATOM      3 CL1  UNL     1     152.032 154.108 160.915  0.00  0.00    -0.107 Cl
ATOM      4  C3  UNL     1     151.093 156.046 159.280  0.00  0.00    +0.027 C 
ATOM      5  N1  UNL     1     150.902 155.304 158.134  0.00  0.00    -0.360 N 
ATOM      6  C4  UNL     1     151.497 157.322 159.369  0.00  0.00    -0.043 C 
ATOM      7  C5  UNL     1     151.622 157.702 160.752  0.00  0.00    -0.052 C 
ATOM      8  C6  UNL     1     151.293 156.668 161.549  0.00  0.00    +0.023 C 
ATOM      9  C7  UNL     1     151.333 156.676 163.007  0.00  0.00    +0.160 A 
ATOM     10  N2  UNL     1     150.852 155.611 163.659  0.00  0.00    -0.212 NA
ATOM     11  C8  UNL     1     150.951 155.607 164.999  0.00  0.00    +0.130 A 
ATOM     12  N3  UNL     1     150.497 154.476 165.718  0.00  0.00    -0.326 N 
ATOM     13  C9  UNL     1     149.854 153.426 164.928  0.00  0.00    +0.034 C 
ATOM     14  C10 UNL     1     148.383 153.752 164.641  0.00  0.00    +0.060 C 
ATOM     15  O1  UNL     1     147.729 152.650 164.013  0.00  0.00    -0.393 OA
ATOM     16  C11 UNL     1     151.499 156.689 165.710  0.00  0.00    +0.040 A 
ATOM     17  C12 UNL     1     151.605 156.769 167.123  0.00  0.00    -0.049 A 
ATOM     18  C13 UNL     1     152.165 157.887 167.737  0.00  0.00    -0.061 A 
ATOM     19  C14 UNL     1     152.621 158.936 166.952  0.00  0.00    -0.060 A 
ATOM     20  C15 UNL     1     152.509 158.861 165.561  0.00  0.00    -0.036 A 
ATOM     21  C16 UNL     1     151.953 157.756 164.927  0.00  0.00    +0.077 A 
ATOM     22  N4  UNL     1     151.875 157.754 163.594  0.00  0.00    -0.227 NA
ATOM     23  H   UNL     1     150.600 154.370 158.198  0.00  0.00    +0.000 HD
ATOM     24  H   UNL     1     151.066 155.710 157.252  0.00  0.00    +0.000 HD
ATOM     25  H   UNL     1     150.607 154.400 166.693  0.00  0.00    +0.000 HD
ATOM     26  H   UNL     1     148.165 152.453 163.169  0.00  0.00    +0.000 HD
ENDROOT
TORSDOF 0
ENDMDL
MODEL 9
REMARK VINA RESULT:    -7.088      5.158      8.872
REMARK INTER + INTRA:          -7.088
REMARK INTER:                  -7.088
REMARK INTRA:                   0.000
REMARK UNBOUND:                 0.000
REMARK  Name = /home/vital/Documents/PhD_2021/Malaria_codes/scripts/../data/pdbqt_ligands/ligand_69_temp.pdb
REMARK                            x       y       z     vdW  Elec       q    Type
REMARK                         _______ _______ _______ _____ _____    ______ ____
ROOT
ATOM      1  C1  UNL     1     150.963 156.404 163.453  0.00  0.00    -0.036 C 
ATOM      2  C2  UNL     1     151.862 157.557 163.004  0.00  0.00    +0.108 C 
ATOM      3 CL1  UNL     1     153.590 157.072 163.085  0.00  0.00    -0.107 Cl
ATOM      4  C3  UNL     1     151.552 157.948 161.539  0.00  0.00    +0.027 C 
ATOM      5  N1  UNL     1     151.682 157.078 160.478  0.00  0.00    -0.360 N 
ATOM      6  C4  UNL     1     151.180 159.236 161.499  0.00  0.00    -0.043 C 
ATOM      7  C5  UNL     1     151.224 159.801 162.822  0.00  0.00    -0.052 C 
ATOM      8  C6  UNL     1     151.622 158.871 163.711  0.00  0.00    +0.023 C 
ATOM      9  C7  UNL     1     151.813 159.092 165.140  0.00  0.00    +0.160 A 
ATOM     10  N2  UNL     1     152.087 158.035 165.913  0.00  0.00    -0.212 NA
ATOM     11  C8  UNL     1     152.320 158.262 167.216  0.00  0.00    +0.130 A 
ATOM     12  N3  UNL     1     152.661 157.174 168.054  0.00  0.00    -0.326 N 
ATOM     13  C9  UNL     1     152.632 155.850 167.433  0.00  0.00    +0.034 C 
ATOM     14  C10 UNL     1     151.210 155.279 167.380  0.00  0.00    +0.060 C 
ATOM     15  O1  UNL     1     151.220 153.926 166.922  0.00  0.00    -0.393 OA
ATOM     16  C11 UNL     1     152.244 159.551 167.774  0.00  0.00    +0.040 A 
ATOM     17  C12 UNL     1     152.444 159.862 169.144  0.00  0.00    -0.049 A 
ATOM     18  C13 UNL     1     152.347 161.174 169.603  0.00  0.00    -0.061 A 
ATOM     19  C14 UNL     1     152.046 162.187 168.703  0.00  0.00    -0.060 A 
ATOM     20  C15 UNL     1     151.841 161.879 167.356  0.00  0.00    -0.036 A 
ATOM     21  C16 UNL     1     151.932 160.578 166.876  0.00  0.00    +0.077 A 
ATOM     22  N4  UNL     1     151.721 160.357 165.577  0.00  0.00    -0.227 NA
ATOM     23  H   UNL     1     151.965 156.148 160.635  0.00  0.00    +0.000 HD
ATOM     24  H   UNL     1     151.492 157.386 159.562  0.00  0.00    +0.000 HD
ATOM     25  H   UNL     1     152.902 157.300 168.999  0.00  0.00    +0.000 HD
ATOM     26  H   UNL     1     151.593 153.890 166.028  0.00  0.00    +0.000 HD
ENDROOT
TORSDOF 0
ENDMDL
