MODEL 1
REMARK VINA RESULT:    -8.031      0.000      0.000
REMARK INTER + INTRA:          -8.031
REMARK INTER:                  -8.031
REMARK INTRA:                   0.000
REMARK UNBOUND:                 0.000
REMARK  Name = /home/vital/Documents/PhD_2021/Malaria_codes/scripts/../data/pdbqt_ligands/ligand_234_temp.pdb
REMARK                            x       y       z     vdW  Elec       q    Type
REMARK                         _______ _______ _______ _____ _____    ______ ____
ROOT
ATOM      1  C1  UNL     1     148.724 153.548 161.017  0.00  0.00    -0.022 C 
ATOM      2  C2  UNL     1     149.441 154.736 161.610  0.00  0.00    +0.045 A 
ATOM      3  C3  UNL     1     149.718 155.889 160.697  0.00  0.00    -0.000 A 
ATOM      4  C4  UNL     1     150.382 156.941 161.214  0.00  0.00    +0.130 A 
ATOM      5  N1  UNL     1     150.718 158.118 160.562  0.00  0.00    -0.297 N 
ATOM      6  C5  UNL     1     151.016 158.395 159.214  0.00  0.00    +0.069 A 
ATOM      7  C6  UNL     1     151.238 157.413 158.242  0.00  0.00    -0.026 A 
ATOM      8  C7  UNL     1     151.471 157.753 156.893  0.00  0.00    +0.057 A 
ATOM      9  C8  UNL     1     151.737 156.667 155.876  0.00  0.00    +0.417 C 
ATOM     10  F1  UNL     1     153.049 156.313 155.829  0.00  0.00    -0.166 F 
ATOM     11  F2  UNL     1     151.047 155.522 156.137  0.00  0.00    -0.166 F 
ATOM     12  F3  UNL     1     151.396 157.026 154.608  0.00  0.00    -0.166 F 
ATOM     13  C9  UNL     1     151.491 159.104 156.518  0.00  0.00    -0.047 A 
ATOM     14  C10 UNL     1     151.272 160.096 157.470  0.00  0.00    -0.024 A 
ATOM     15  C11 UNL     1     151.034 159.736 158.795  0.00  0.00    +0.144 A 
ATOM     16  F4  UNL     1     150.823 160.710 159.694  0.00  0.00    -0.204 F 
ATOM     17  N2  UNL     1     150.713 156.880 162.587  0.00  0.00    -0.182 N 
ATOM     18  N3  UNL     1     151.338 157.823 163.346  0.00  0.00    -0.151 NA
ATOM     19  C12 UNL     1     151.381 157.228 164.538  0.00  0.00    +0.141 A 
ATOM     20  N4  UNL     1     150.830 155.985 164.605  0.00  0.00    -0.197 NA
ATOM     21  C13 UNL     1     150.406 155.768 163.378  0.00  0.00    +0.255 A 
ATOM     22  N5  UNL     1     149.765 154.679 162.867  0.00  0.00    -0.216 NA
ATOM     23  H   UNL     1     150.756 158.906 161.152  0.00  0.00    +0.000 HD
ENDROOT
TORSDOF 0
ENDMDL
MODEL 2
REMARK VINA RESULT:    -7.938      1.559      1.923
REMARK INTER + INTRA:          -7.938
REMARK INTER:                  -7.938
REMARK INTRA:                   0.000
REMARK UNBOUND:                 0.000
REMARK  Name = /home/vital/Documents/PhD_2021/Malaria_codes/scripts/../data/pdbqt_ligands/ligand_234_temp.pdb
REMARK                            x       y       z     vdW  Elec       q    Type
REMARK                         _______ _______ _______ _____ _____    ______ ____
ROOT
ATOM      1  C1  UNL     1     149.997 154.280 163.655  0.00  0.00    -0.022 C 
ATOM      2  C2  UNL     1     150.639 155.645 163.617  0.00  0.00    +0.045 A 
ATOM      3  C3  UNL     1     150.407 156.472 162.390  0.00  0.00    -0.000 A 
ATOM      4  C4  UNL     1     150.999 157.680 162.338  0.00  0.00    +0.130 A 
ATOM      5  N1  UNL     1     150.899 158.615 161.319  0.00  0.00    -0.297 N 
ATOM      6  C5  UNL     1     150.708 158.477 159.931  0.00  0.00    +0.069 A 
ATOM      7  C6  UNL     1     150.787 157.260 159.245  0.00  0.00    -0.026 A 
ATOM      8  C7  UNL     1     150.524 157.176 157.862  0.00  0.00    +0.057 A 
ATOM      9  C8  UNL     1     150.650 155.850 157.148  0.00  0.00    +0.417 C 
ATOM     10  F1  UNL     1     151.924 155.601 156.741  0.00  0.00    -0.166 F 
ATOM     11  F2  UNL     1     150.292 154.796 157.932  0.00  0.00    -0.166 F 
ATOM     12  F3  UNL     1     149.873 155.766 156.034  0.00  0.00    -0.166 F 
ATOM     13  C9  UNL     1     150.184 158.339 157.155  0.00  0.00    -0.047 A 
ATOM     14  C10 UNL     1     150.098 159.560 157.820  0.00  0.00    -0.024 A 
ATOM     15  C11 UNL     1     150.354 159.616 159.187  0.00  0.00    +0.144 A 
ATOM     16  F4  UNL     1     150.263 160.804 159.807  0.00  0.00    -0.204 F 
ATOM     17  N2  UNL     1     151.746 158.079 163.470  0.00  0.00    -0.182 N 
ATOM     18  N3  UNL     1     152.398 159.257 163.678  0.00  0.00    -0.151 NA
ATOM     19  C12 UNL     1     152.915 159.071 164.892  0.00  0.00    +0.141 A 
ATOM     20  N4  UNL     1     152.644 157.874 165.479  0.00  0.00    -0.197 NA
ATOM     21  C13 UNL     1     151.905 157.251 164.586  0.00  0.00    +0.255 A 
ATOM     22  N5  UNL     1     151.343 156.010 164.646  0.00  0.00    -0.216 NA
ATOM     23  H   UNL     1     150.977 159.549 161.622  0.00  0.00    +0.000 HD
ENDROOT
TORSDOF 0
ENDMDL
MODEL 3
REMARK VINA RESULT:    -7.881      2.099      3.976
REMARK INTER + INTRA:          -7.881
REMARK INTER:                  -7.881
REMARK INTRA:                   0.000
REMARK UNBOUND:                 0.000
REMARK  Name = /home/vital/Documents/PhD_2021/Malaria_codes/scripts/../data/pdbqt_ligands/ligand_234_temp.pdb
REMARK                            x       y       z     vdW  Elec       q    Type
REMARK                         _______ _______ _______ _____ _____    ______ ____
ROOT
ATOM      1  C1  UNL     1     152.191 159.121 164.864  0.00  0.00    -0.022 C 
ATOM      2  C2  UNL     1     151.545 157.806 164.502  0.00  0.00    +0.045 A 
ATOM      3  C3  UNL     1     151.675 157.353 163.080  0.00  0.00    -0.000 A 
ATOM      4  C4  UNL     1     151.078 156.194 162.744  0.00  0.00    +0.130 A 
ATOM      5  N1  UNL     1     151.093 155.577 161.502  0.00  0.00    -0.297 N 
ATOM      6  C5  UNL     1     151.171 156.095 160.195  0.00  0.00    +0.069 A 
ATOM      7  C6  UNL     1     151.038 157.452 159.880  0.00  0.00    -0.026 A 
ATOM      8  C7  UNL     1     151.188 157.918 158.557  0.00  0.00    +0.057 A 
ATOM      9  C8  UNL     1     151.007 159.387 158.249  0.00  0.00    +0.417 C 
ATOM     10  F1  UNL     1     149.705 159.712 158.028  0.00  0.00    -0.166 F 
ATOM     11  F2  UNL     1     151.430 160.192 159.262  0.00  0.00    -0.166 F 
ATOM     12  F3  UNL     1     151.691 159.790 157.143  0.00  0.00    -0.166 F 
ATOM     13  C9  UNL     1     151.467 157.001 157.533  0.00  0.00    -0.047 A 
ATOM     14  C10 UNL     1     151.604 155.647 157.826  0.00  0.00    -0.024 A 
ATOM     15  C11 UNL     1     151.460 155.212 159.141  0.00  0.00    +0.144 A 
ATOM     16  F4  UNL     1     151.599 153.902 159.400  0.00  0.00    -0.204 F 
ATOM     17  N2  UNL     1     150.425 155.484 163.777  0.00  0.00    -0.182 N 
ATOM     18  N3  UNL     1     149.790 154.281 163.703  0.00  0.00    -0.151 NA
ATOM     19  C12 UNL     1     149.374 154.115 164.958  0.00  0.00    +0.141 A 
ATOM     20  N4  UNL     1     149.694 155.110 165.830  0.00  0.00    -0.197 NA
ATOM     21  C13 UNL     1     150.359 155.969 165.087  0.00  0.00    +0.255 A 
ATOM     22  N5  UNL     1     150.927 157.157 165.442  0.00  0.00    -0.216 NA
ATOM     23  H   UNL     1     151.038 154.595 161.542  0.00  0.00    +0.000 HD
ENDROOT
TORSDOF 0
ENDMDL
MODEL 4
REMARK VINA RESULT:    -7.798      2.608      4.902
REMARK INTER + INTRA:          -7.798
REMARK INTER:                  -7.798
REMARK INTRA:                   0.000
REMARK UNBOUND:                 0.000
REMARK  Name = /home/vital/Documents/PhD_2021/Malaria_codes/scripts/../data/pdbqt_ligands/ligand_234_temp.pdb
REMARK                            x       y       z     vdW  Elec       q    Type
REMARK                         _______ _______ _______ _____ _____    ______ ____
ROOT
ATOM      1  C1  UNL     1     153.212 160.284 164.919  0.00  0.00    -0.022 C 
ATOM      2  C2  UNL     1     152.578 158.944 165.204  0.00  0.00    +0.045 A 
ATOM      3  C3  UNL     1     152.508 157.969 164.070  0.00  0.00    -0.000 A 
ATOM      4  C4  UNL     1     151.919 156.782 164.310  0.00  0.00    +0.130 A 
ATOM      5  N1  UNL     1     151.770 155.729 163.420  0.00  0.00    -0.297 N 
ATOM      6  C5  UNL     1     151.623 155.693 162.021  0.00  0.00    +0.069 A 
ATOM      7  C6  UNL     1     151.382 156.821 161.228  0.00  0.00    -0.026 A 
ATOM      8  C7  UNL     1     151.306 156.731 159.823  0.00  0.00    +0.057 A 
ATOM      9  C8  UNL     1     151.013 157.965 159.001  0.00  0.00    +0.417 C 
ATOM     10  F1  UNL     1     149.679 158.202 158.881  0.00  0.00    -0.166 F 
ATOM     11  F2  UNL     1     151.550 159.094 159.540  0.00  0.00    -0.166 F 
ATOM     12  F3  UNL     1     151.500 157.891 157.732  0.00  0.00    -0.166 F 
ATOM     13  C9  UNL     1     151.465 155.481 159.205  0.00  0.00    -0.047 A 
ATOM     14  C10 UNL     1     151.706 154.347 159.976  0.00  0.00    -0.024 A 
ATOM     15  C11 UNL     1     151.787 154.463 161.361  0.00  0.00    +0.144 A 
ATOM     16  F4  UNL     1     152.022 153.356 162.083  0.00  0.00    -0.204 F 
ATOM     17  N2  UNL     1     151.465 156.545 165.627  0.00  0.00    -0.182 N 
ATOM     18  N3  UNL     1     150.882 155.421 166.129  0.00  0.00    -0.151 NA
ATOM     19  C12 UNL     1     150.672 155.767 167.398  0.00  0.00    +0.141 A 
ATOM     20  N4  UNL     1     151.077 157.017 167.752  0.00  0.00    -0.197 NA
ATOM     21  C13 UNL     1     151.580 157.505 166.638  0.00  0.00    +0.255 A 
ATOM     22  N5  UNL     1     152.142 158.726 166.408  0.00  0.00    -0.216 NA
ATOM     23  H   UNL     1     151.767 154.841 163.847  0.00  0.00    +0.000 HD
ENDROOT
TORSDOF 0
ENDMDL
MODEL 5
REMARK VINA RESULT:    -7.782      3.227      7.029
REMARK INTER + INTRA:          -7.782
REMARK INTER:                  -7.782
REMARK INTRA:                   0.000
REMARK UNBOUND:                 0.000
REMARK  Name = /home/vital/Documents/PhD_2021/Malaria_codes/scripts/../data/pdbqt_ligands/ligand_234_temp.pdb
REMARK                            x       y       z     vdW  Elec       q    Type
REMARK                         _______ _______ _______ _____ _____    ______ ____
ROOT
ATOM      1  C1  UNL     1     151.499 160.917 157.869  0.00  0.00    -0.022 C 
ATOM      2  C2  UNL     1     151.493 159.460 157.478  0.00  0.00    +0.045 A 
ATOM      3  C3  UNL     1     151.070 158.476 158.525  0.00  0.00    -0.000 A 
ATOM      4  C4  UNL     1     151.088 157.172 158.190  0.00  0.00    +0.130 A 
ATOM      5  N1  UNL     1     150.713 156.100 158.987  0.00  0.00    -0.297 N 
ATOM      6  C5  UNL     1     150.758 155.903 160.380  0.00  0.00    +0.069 A 
ATOM      7  C6  UNL     1     151.430 156.748 161.272  0.00  0.00    -0.026 A 
ATOM      8  C7  UNL     1     151.387 156.533 162.665  0.00  0.00    +0.057 A 
ATOM      9  C8  UNL     1     152.150 157.448 163.594  0.00  0.00    +0.417 C 
ATOM     10  F1  UNL     1     153.444 157.062 163.753  0.00  0.00    -0.166 F 
ATOM     11  F2  UNL     1     152.192 158.734 163.148  0.00  0.00    -0.166 F 
ATOM     12  F3  UNL     1     151.616 157.506 164.845  0.00  0.00    -0.166 F 
ATOM     13  C9  UNL     1     150.664 155.442 163.169  0.00  0.00    -0.047 A 
ATOM     14  C10 UNL     1     149.988 154.590 162.299  0.00  0.00    -0.024 A 
ATOM     15  C11 UNL     1     150.037 154.828 160.928  0.00  0.00    +0.144 A 
ATOM     16  F4  UNL     1     149.376 153.995 160.110  0.00  0.00    -0.204 F 
ATOM     17  N2  UNL     1     151.458 156.854 156.864  0.00  0.00    -0.182 N 
ATOM     18  N3  UNL     1     151.513 155.626 156.275  0.00  0.00    -0.151 NA
ATOM     19  C12 UNL     1     151.918 155.934 155.043  0.00  0.00    +0.141 A 
ATOM     20  N4  UNL     1     152.122 157.256 154.794  0.00  0.00    -0.197 NA
ATOM     21  C13 UNL     1     151.829 157.835 155.939  0.00  0.00    +0.255 A 
ATOM     22  N5  UNL     1     151.850 159.159 156.266  0.00  0.00    -0.216 NA
ATOM     23  H   UNL     1     150.348 155.336 158.485  0.00  0.00    +0.000 HD
ENDROOT
TORSDOF 0
ENDMDL
MODEL 6
REMARK VINA RESULT:    -7.598      2.850      4.021
REMARK INTER + INTRA:          -7.598
REMARK INTER:                  -7.598
REMARK INTRA:                   0.000
REMARK UNBOUND:                 0.000
REMARK  Name = /home/vital/Documents/PhD_2021/Malaria_codes/scripts/../data/pdbqt_ligands/ligand_234_temp.pdb
REMARK                            x       y       z     vdW  Elec       q    Type
REMARK                         _______ _______ _______ _____ _____    ______ ____
ROOT
ATOM      1  C1  UNL     1     147.369 151.865 163.204  0.00  0.00    -0.022 C 
ATOM      2  C2  UNL     1     148.484 152.488 164.009  0.00  0.00    +0.045 A 
ATOM      3  C3  UNL     1     149.063 153.768 163.492  0.00  0.00    -0.000 A 
ATOM      4  C4  UNL     1     150.076 154.314 164.191  0.00  0.00    +0.130 A 
ATOM      5  N1  UNL     1     150.738 155.501 163.913  0.00  0.00    -0.297 N 
ATOM      6  C5  UNL     1     151.012 156.163 162.701  0.00  0.00    +0.069 A 
ATOM      7  C6  UNL     1     150.822 155.596 161.436  0.00  0.00    -0.026 A 
ATOM      8  C7  UNL     1     151.055 156.332 160.256  0.00  0.00    +0.057 A 
ATOM      9  C8  UNL     1     150.868 155.677 158.907  0.00  0.00    +0.417 C 
ATOM     10  F1  UNL     1     151.980 155.007 158.499  0.00  0.00    -0.166 F 
ATOM     11  F2  UNL     1     149.856 154.766 158.902  0.00  0.00    -0.166 F 
ATOM     12  F3  UNL     1     150.576 156.564 157.917  0.00  0.00    -0.166 F 
ATOM     13  C9  UNL     1     151.499 157.659 160.351  0.00  0.00    -0.047 A 
ATOM     14  C10 UNL     1     151.694 158.242 161.600  0.00  0.00    -0.024 A 
ATOM     15  C11 UNL     1     151.447 157.499 162.751  0.00  0.00    +0.144 A 
ATOM     16  F4  UNL     1     151.640 158.083 163.944  0.00  0.00    -0.204 F 
ATOM     17  N2  UNL     1     150.467 153.654 165.379  0.00  0.00    -0.182 N 
ATOM     18  N3  UNL     1     151.425 154.025 166.273  0.00  0.00    -0.151 NA
ATOM     19  C12 UNL     1     151.353 153.043 167.171  0.00  0.00    +0.141 A 
ATOM     20  N4  UNL     1     150.425 152.079 166.928  0.00  0.00    -0.197 NA
ATOM     21  C13 UNL     1     149.864 152.466 165.802  0.00  0.00    +0.255 A 
ATOM     22  N5  UNL     1     148.860 151.877 165.092  0.00  0.00    -0.216 NA
ATOM     23  H   UNL     1     151.080 155.966 164.711  0.00  0.00    +0.000 HD
ENDROOT
TORSDOF 0
ENDMDL
MODEL 7
REMARK VINA RESULT:    -7.561      6.054      8.763
REMARK INTER + INTRA:          -7.561
REMARK INTER:                  -7.561
REMARK INTRA:                   0.000
REMARK UNBOUND:                 0.000
REMARK  Name = /home/vital/Documents/PhD_2021/Malaria_codes/scripts/../data/pdbqt_ligands/ligand_234_temp.pdb
REMARK                            x       y       z     vdW  Elec       q    Type
REMARK                         _______ _______ _______ _____ _____    ______ ____
ROOT
ATOM      1  C1  UNL     1     151.463 159.368 163.490  0.00  0.00    -0.022 C 
ATOM      2  C2  UNL     1     151.887 159.250 164.934  0.00  0.00    +0.045 A 
ATOM      3  C3  UNL     1     152.164 157.872 165.450  0.00  0.00    -0.000 A 
ATOM      4  C4  UNL     1     152.518 157.757 166.744  0.00  0.00    +0.130 A 
ATOM      5  N1  UNL     1     152.844 156.590 167.420  0.00  0.00    -0.297 N 
ATOM      6  C5  UNL     1     152.418 155.258 167.258  0.00  0.00    +0.069 A 
ATOM      7  C6  UNL     1     151.348 154.870 166.443  0.00  0.00    -0.026 A 
ATOM      8  C7  UNL     1     151.008 153.513 166.271  0.00  0.00    +0.057 A 
ATOM      9  C8  UNL     1     149.827 153.133 165.408  0.00  0.00    +0.417 C 
ATOM     10  F1  UNL     1     148.654 153.157 166.097  0.00  0.00    -0.166 F 
ATOM     11  F2  UNL     1     149.659 153.972 164.349  0.00  0.00    -0.166 F 
ATOM     12  F3  UNL     1     149.930 151.883 164.880  0.00  0.00    -0.166 F 
ATOM     13  C9  UNL     1     151.751 152.529 166.940  0.00  0.00    -0.047 A 
ATOM     14  C10 UNL     1     152.820 152.894 167.754  0.00  0.00    -0.024 A 
ATOM     15  C11 UNL     1     153.143 154.240 167.901  0.00  0.00    +0.144 A 
ATOM     16  F4  UNL     1     154.178 154.568 168.689  0.00  0.00    -0.204 F 
ATOM     17  N2  UNL     1     152.643 158.954 167.486  0.00  0.00    -0.182 N 
ATOM     18  N3  UNL     1     153.024 159.106 168.785  0.00  0.00    -0.151 NA
ATOM     19  C12 UNL     1     152.959 160.428 168.934  0.00  0.00    +0.141 A 
ATOM     20  N4  UNL     1     152.573 161.135 167.837  0.00  0.00    -0.197 NA
ATOM     21  C13 UNL     1     152.378 160.207 166.924  0.00  0.00    +0.255 A 
ATOM     22  N5  UNL     1     151.987 160.344 165.625  0.00  0.00    -0.216 NA
ATOM     23  H   UNL     1     153.494 156.718 168.149  0.00  0.00    +0.000 HD
ENDROOT
TORSDOF 0
ENDMDL
MODEL 8
REMARK VINA RESULT:    -7.471      2.321      4.816
REMARK INTER + INTRA:          -7.471
REMARK INTER:                  -7.471
REMARK INTRA:                   0.000
REMARK UNBOUND:                 0.000
REMARK  Name = /home/vital/Documents/PhD_2021/Malaria_codes/scripts/../data/pdbqt_ligands/ligand_234_temp.pdb
REMARK                            x       y       z     vdW  Elec       q    Type
REMARK                         _______ _______ _______ _____ _____    ______ ____
ROOT
ATOM      1  C1  UNL     1     150.741 155.367 166.055  0.00  0.00    -0.022 C 
ATOM      2  C2  UNL     1     150.031 154.743 164.878  0.00  0.00    +0.045 A 
ATOM      3  C3  UNL     1     150.348 155.295 163.522  0.00  0.00    -0.000 A 
ATOM      4  C4  UNL     1     149.699 154.761 162.471  0.00  0.00    +0.130 A 
ATOM      5  N1  UNL     1     149.855 155.098 161.134  0.00  0.00    -0.297 N 
ATOM      6  C5  UNL     1     150.202 156.308 160.503  0.00  0.00    +0.069 A 
ATOM      7  C6  UNL     1     150.265 157.544 161.156  0.00  0.00    -0.026 A 
ATOM      8  C7  UNL     1     150.679 158.712 160.484  0.00  0.00    +0.057 A 
ATOM      9  C8  UNL     1     150.705 160.035 161.213  0.00  0.00    +0.417 C 
ATOM     10  F1  UNL     1     149.499 160.663 161.189  0.00  0.00    -0.166 F 
ATOM     11  F2  UNL     1     151.035 159.904 162.528  0.00  0.00    -0.166 F 
ATOM     12  F3  UNL     1     151.601 160.917 160.691  0.00  0.00    -0.166 F 
ATOM     13  C9  UNL     1     151.028 158.636 159.127  0.00  0.00    -0.047 A 
ATOM     14  C10 UNL     1     150.973 157.416 158.459  0.00  0.00    -0.024 A 
ATOM     15  C11 UNL     1     150.570 156.274 159.147  0.00  0.00    +0.144 A 
ATOM     16  F4  UNL     1     150.527 155.108 158.483  0.00  0.00    -0.204 F 
ATOM     17  N2  UNL     1     148.813 153.693 162.737  0.00  0.00    -0.182 N 
ATOM     18  N3  UNL     1     148.078 152.965 161.851  0.00  0.00    -0.151 NA
ATOM     19  C12 UNL     1     147.445 152.114 162.656  0.00  0.00    +0.141 A 
ATOM     20  N4  UNL     1     147.717 152.233 163.984  0.00  0.00    -0.197 NA
ATOM     21  C13 UNL     1     148.581 153.224 164.035  0.00  0.00    +0.255 A 
ATOM     22  N5  UNL     1     149.202 153.773 165.117  0.00  0.00    -0.216 NA
ATOM     23  H   UNL     1     149.693 154.353 160.511  0.00  0.00    +0.000 HD
ENDROOT
TORSDOF 0
ENDMDL
