MODEL 1
REMARK VINA RESULT:    -8.673      0.000      0.000
REMARK INTER + INTRA:          -8.673
REMARK INTER:                  -8.673
REMARK INTRA:                   0.000
REMARK UNBOUND:                 0.000
REMARK  Name = /home/vital/Documents/PhD_2021/Malaria_codes/scripts/../data/pdbqt_ligands/ligand_381_temp.pdb
REMARK                            x       y       z     vdW  Elec       q    Type
REMARK                         _______ _______ _______ _____ _____    ______ ____
ROOT
ATOM      1  C1  UNL     1     149.765 152.760 166.904  0.00  0.00    -0.039 C 
ATOM      2  C2  UNL     1     148.996 152.940 165.599  0.00  0.00    +0.053 C 
ATOM      3  C3  UNL     1     147.594 152.353 165.723  0.00  0.00    -0.039 C 
ATOM      4  O1  UNL     1     149.658 152.235 164.543  0.00  0.00    -0.377 OA
ATOM      5  C4  UNL     1     150.691 152.984 163.902  0.00  0.00    +0.050 C 
ATOM      6  C5  UNL     1     150.100 153.819 162.767  0.00  0.00    -0.000 C 
ATOM      7  C6  UNL     1     151.182 154.527 161.957  0.00  0.00    +0.091 C 
ATOM      8  O2  UNL     1     151.906 155.417 162.812  0.00  0.00    -0.388 OA
ATOM      9  C7  UNL     1     150.572 155.320 160.793  0.00  0.00    +0.115 C 
ATOM     10  O3  UNL     1     151.648 156.022 160.131  0.00  0.00    -0.489 OA
ATOM     11  C8  UNL     1     151.320 156.278 158.823  0.00  0.00    +0.133 A 
ATOM     12  C9  UNL     1     151.714 155.322 157.880  0.00  0.00    -0.019 A 
ATOM     13  C10 UNL     1     151.422 155.509 156.530  0.00  0.00    -0.058 A 
ATOM     14  C11 UNL     1     150.747 156.655 156.118  0.00  0.00    -0.061 A 
ATOM     15  C12 UNL     1     150.374 157.621 157.057  0.00  0.00    -0.046 A 
ATOM     16  C13 UNL     1     150.671 157.455 158.420  0.00  0.00    +0.079 A 
ATOM     17  C14 UNL     1     150.258 158.558 159.347  0.00  0.00    +0.252 C 
ATOM     18  O4  UNL     1     149.383 159.331 158.972  0.00  0.00    -0.270 OA
ATOM     19  N1  UNL     1     150.926 158.611 160.555  0.00  0.00    -0.281 N 
ATOM     20  C15 UNL     1     150.726 159.514 161.619  0.00  0.00    +0.034 A 
ATOM     21  C16 UNL     1     149.826 160.579 161.582  0.00  0.00    -0.040 A 
ATOM     22  C17 UNL     1     149.686 161.429 162.684  0.00  0.00    -0.060 A 
ATOM     23  C18 UNL     1     150.443 161.218 163.835  0.00  0.00    -0.062 A 
ATOM     24  C19 UNL     1     151.343 160.158 163.883  0.00  0.00    -0.060 A 
ATOM     25  C20 UNL     1     151.485 159.311 162.780  0.00  0.00    -0.040 A 
ATOM     26  H   UNL     1     151.300 156.082 163.175  0.00  0.00    +0.000 HD
ATOM     27  H   UNL     1     151.630 157.935 160.689  0.00  0.00    +0.000 HD
ENDROOT
TORSDOF 0
ENDMDL
MODEL 2
REMARK VINA RESULT:    -8.668      0.805      0.999
REMARK INTER + INTRA:          -8.668
REMARK INTER:                  -8.668
REMARK INTRA:                   0.000
REMARK UNBOUND:                 0.000
REMARK  Name = /home/vital/Documents/PhD_2021/Malaria_codes/scripts/../data/pdbqt_ligands/ligand_381_temp.pdb
REMARK                            x       y       z     vdW  Elec       q    Type
REMARK                         _______ _______ _______ _____ _____    ______ ____
ROOT
ATOM      1  C1  UNL     1     150.442 152.344 166.926  0.00  0.00    -0.039 C 
ATOM      2  C2  UNL     1     149.479 152.750 165.815  0.00  0.00    +0.053 C 
ATOM      3  C3  UNL     1     148.081 152.213 166.102  0.00  0.00    -0.039 C 
ATOM      4  O1  UNL     1     149.903 152.181 164.572  0.00  0.00    -0.377 OA
ATOM      5  C4  UNL     1     150.863 152.972 163.868  0.00  0.00    +0.050 C 
ATOM      6  C5  UNL     1     150.148 153.992 162.983  0.00  0.00    -0.000 C 
ATOM      7  C6  UNL     1     151.124 154.764 162.100  0.00  0.00    +0.091 C 
ATOM      8  O2  UNL     1     152.042 155.484 162.930  0.00  0.00    -0.388 OA
ATOM      9  C7  UNL     1     150.383 155.747 161.184  0.00  0.00    +0.115 C 
ATOM     10  O3  UNL     1     151.378 156.492 160.447  0.00  0.00    -0.489 OA
ATOM     11  C8  UNL     1     150.853 156.955 159.266  0.00  0.00    +0.133 A 
ATOM     12  C9  UNL     1     151.016 156.133 158.144  0.00  0.00    -0.019 A 
ATOM     13  C10 UNL     1     150.514 156.531 156.907  0.00  0.00    -0.058 A 
ATOM     14  C11 UNL     1     149.860 157.754 156.784  0.00  0.00    -0.061 A 
ATOM     15  C12 UNL     1     149.718 158.586 157.898  0.00  0.00    -0.046 A 
ATOM     16  C13 UNL     1     150.228 158.206 159.151  0.00  0.00    +0.079 A 
ATOM     17  C14 UNL     1     150.054 159.175 160.281  0.00  0.00    +0.252 C 
ATOM     18  O4  UNL     1     149.184 160.033 160.178  0.00  0.00    -0.270 OA
ATOM     19  N1  UNL     1     150.918 159.019 161.347  0.00  0.00    -0.281 N 
ATOM     20  C15 UNL     1     150.963 159.761 162.545  0.00  0.00    +0.034 A 
ATOM     21  C16 UNL     1     150.145 160.858 162.816  0.00  0.00    -0.040 A 
ATOM     22  C17 UNL     1     150.252 161.540 164.033  0.00  0.00    -0.060 A 
ATOM     23  C18 UNL     1     151.175 161.127 164.990  0.00  0.00    -0.062 A 
ATOM     24  C19 UNL     1     151.996 160.033 164.732  0.00  0.00    -0.060 A 
ATOM     25  C20 UNL     1     151.891 159.354 163.514  0.00  0.00    -0.040 A 
ATOM     26  H   UNL     1     151.553 156.114 163.482  0.00  0.00    +0.000 HD
ATOM     27  H   UNL     1     151.586 158.300 161.259  0.00  0.00    +0.000 HD
ENDROOT
TORSDOF 0
ENDMDL
MODEL 3
REMARK VINA RESULT:    -8.453      2.862      7.309
REMARK INTER + INTRA:          -8.453
REMARK INTER:                  -8.453
REMARK INTRA:                   0.000
REMARK UNBOUND:                 0.000
REMARK  Name = /home/vital/Documents/PhD_2021/Malaria_codes/scripts/../data/pdbqt_ligands/ligand_381_temp.pdb
REMARK                            x       y       z     vdW  Elec       q    Type
REMARK                         _______ _______ _______ _____ _____    ______ ____
ROOT
ATOM      1  C1  UNL     1     152.405 156.625 151.648  0.00  0.00    -0.039 C 
ATOM      2  C2  UNL     1     153.077 156.052 152.892  0.00  0.00    +0.053 C 
ATOM      3  C3  UNL     1     154.459 155.507 152.545  0.00  0.00    -0.039 C 
ATOM      4  O1  UNL     1     152.307 154.958 153.400  0.00  0.00    -0.377 OA
ATOM      5  C4  UNL     1     151.259 155.349 154.290  0.00  0.00    +0.050 C 
ATOM      6  C5  UNL     1     151.795 155.437 155.718  0.00  0.00    -0.000 C 
ATOM      7  C6  UNL     1     150.685 155.709 156.728  0.00  0.00    +0.091 C 
ATOM      8  O2  UNL     1     150.066 156.964 156.423  0.00  0.00    -0.388 OA
ATOM      9  C7  UNL     1     151.235 155.745 158.160  0.00  0.00    +0.115 C 
ATOM     10  O3  UNL     1     150.142 156.088 159.040  0.00  0.00    -0.489 OA
ATOM     11  C8  UNL     1     150.377 155.612 160.306  0.00  0.00    +0.133 A 
ATOM     12  C9  UNL     1     149.872 154.340 160.601  0.00  0.00    -0.019 A 
ATOM     13  C10 UNL     1     150.066 153.786 161.865  0.00  0.00    -0.058 A 
ATOM     14  C11 UNL     1     150.755 154.504 162.839  0.00  0.00    -0.061 A 
ATOM     15  C12 UNL     1     151.239 155.784 162.552  0.00  0.00    -0.046 A 
ATOM     16  C13 UNL     1     151.042 156.363 161.287  0.00  0.00    +0.079 A 
ATOM     17  C14 UNL     1     151.571 157.750 161.082  0.00  0.00    +0.252 C 
ATOM     18  O4  UNL     1     152.446 158.152 161.841  0.00  0.00    -0.270 OA
ATOM     19  N1  UNL     1     151.002 158.465 160.047  0.00  0.00    -0.281 N 
ATOM     20  C15 UNL     1     151.321 159.767 159.612  0.00  0.00    +0.034 A 
ATOM     21  C16 UNL     1     152.260 160.591 160.234  0.00  0.00    -0.040 A 
ATOM     22  C17 UNL     1     152.520 161.872 159.736  0.00  0.00    -0.060 A 
ATOM     23  C18 UNL     1     151.846 162.338 158.610  0.00  0.00    -0.062 A 
ATOM     24  C19 UNL     1     150.909 161.525 157.980  0.00  0.00    -0.060 A 
ATOM     25  C20 UNL     1     150.647 160.246 158.480  0.00  0.00    -0.040 A 
ATOM     26  H   UNL     1     150.726 157.673 156.484  0.00  0.00    +0.000 HD
ATOM     27  H   UNL     1     150.283 158.008 159.552  0.00  0.00    +0.000 HD
ENDROOT
TORSDOF 0
ENDMDL
MODEL 4
REMARK VINA RESULT:    -8.209      2.770      5.974
REMARK INTER + INTRA:          -8.209
REMARK INTER:                  -8.209
REMARK INTRA:                   0.000
REMARK UNBOUND:                 0.000
REMARK  Name = /home/vital/Documents/PhD_2021/Malaria_codes/scripts/../data/pdbqt_ligands/ligand_381_temp.pdb
REMARK                            x       y       z     vdW  Elec       q    Type
REMARK                         _______ _______ _______ _____ _____    ______ ____
ROOT
ATOM      1  C1  UNL     1     152.181 152.108 168.253  0.00  0.00    -0.039 C 
ATOM      2  C2  UNL     1     153.054 153.291 167.849  0.00  0.00    +0.053 C 
ATOM      3  C3  UNL     1     154.507 153.037 168.237  0.00  0.00    -0.039 C 
ATOM      4  O1  UNL     1     152.631 154.468 168.545  0.00  0.00    -0.377 OA
ATOM      5  C4  UNL     1     151.572 155.177 167.898  0.00  0.00    +0.050 C 
ATOM      6  C5  UNL     1     152.151 156.167 166.889  0.00  0.00    -0.000 C 
ATOM      7  C6  UNL     1     151.071 157.053 166.274  0.00  0.00    +0.091 C 
ATOM      8  O2  UNL     1     150.128 156.232 165.578  0.00  0.00    -0.388 OA
ATOM      9  C7  UNL     1     151.678 158.072 165.301  0.00  0.00    +0.115 C 
ATOM     10  O3  UNL     1     150.588 158.810 164.705  0.00  0.00    -0.489 OA
ATOM     11  C8  UNL     1     151.016 160.046 164.289  0.00  0.00    +0.133 A 
ATOM     12  C9  UNL     1     150.881 161.097 165.203  0.00  0.00    -0.019 A 
ATOM     13  C10 UNL     1     151.289 162.383 164.857  0.00  0.00    -0.058 A 
ATOM     14  C11 UNL     1     151.823 162.625 163.594  0.00  0.00    -0.061 A 
ATOM     15  C12 UNL     1     151.936 161.581 162.671  0.00  0.00    -0.046 A 
ATOM     16  C13 UNL     1     151.518 160.280 162.999  0.00  0.00    +0.079 A 
ATOM     17  C14 UNL     1     151.651 159.233 161.936  0.00  0.00    +0.252 C 
ATOM     18  O4  UNL     1     152.434 159.440 161.015  0.00  0.00    -0.270 OA
ATOM     19  N1  UNL     1     150.852 158.116 162.087  0.00  0.00    -0.281 N 
ATOM     20  C15 UNL     1     150.792 156.974 161.264  0.00  0.00    +0.034 A 
ATOM     21  C16 UNL     1     151.517 156.823 160.081  0.00  0.00    -0.040 A 
ATOM     22  C17 UNL     1     151.401 155.654 159.322  0.00  0.00    -0.060 A 
ATOM     23  C18 UNL     1     150.562 154.624 159.741  0.00  0.00    -0.062 A 
ATOM     24  C19 UNL     1     149.835 154.763 160.920  0.00  0.00    -0.060 A 
ATOM     25  C20 UNL     1     149.948 155.933 161.676  0.00  0.00    -0.040 A 
ATOM     26  H   UNL     1     150.580 155.751 164.867  0.00  0.00    +0.000 HD
ATOM     27  H   UNL     1     150.250 158.119 162.866  0.00  0.00    +0.000 HD
ENDROOT
TORSDOF 0
ENDMDL
MODEL 5
REMARK VINA RESULT:    -8.086      3.173      7.279
REMARK INTER + INTRA:          -8.086
REMARK INTER:                  -8.086
REMARK INTRA:                   0.000
REMARK UNBOUND:                 0.000
REMARK  Name = /home/vital/Documents/PhD_2021/Malaria_codes/scripts/../data/pdbqt_ligands/ligand_381_temp.pdb
REMARK                            x       y       z     vdW  Elec       q    Type
REMARK                         _______ _______ _______ _____ _____    ______ ____
ROOT
ATOM      1  C1  UNL     1     151.076 163.541 167.171  0.00  0.00    -0.039 C 
ATOM      2  C2  UNL     1     150.060 162.405 167.243  0.00  0.00    +0.053 C 
ATOM      3  C3  UNL     1     148.704 162.933 167.698  0.00  0.00    -0.039 C 
ATOM      4  O1  UNL     1     150.482 161.435 168.207  0.00  0.00    -0.377 OA
ATOM      5  C4  UNL     1     151.374 160.448 167.688  0.00  0.00    +0.050 C 
ATOM      6  C5  UNL     1     150.577 159.287 167.094  0.00  0.00    -0.000 C 
ATOM      7  C6  UNL     1     151.481 158.139 166.656  0.00  0.00    +0.091 C 
ATOM      8  O2  UNL     1     152.379 158.606 165.643  0.00  0.00    -0.388 OA
ATOM      9  C7  UNL     1     150.659 156.964 166.110  0.00  0.00    +0.115 C 
ATOM     10  O3  UNL     1     151.588 155.961 165.643  0.00  0.00    -0.489 OA
ATOM     11  C8  UNL     1     151.005 154.718 165.669  0.00  0.00    +0.133 A 
ATOM     12  C9  UNL     1     151.184 153.966 166.835  0.00  0.00    -0.019 A 
ATOM     13  C10 UNL     1     150.625 152.693 166.940  0.00  0.00    -0.058 A 
ATOM     14  C11 UNL     1     149.898 152.166 165.877  0.00  0.00    -0.061 A 
ATOM     15  C12 UNL     1     149.739 152.907 164.702  0.00  0.00    -0.046 A 
ATOM     16  C13 UNL     1     150.305 154.186 164.575  0.00  0.00    +0.079 A 
ATOM     17  C14 UNL     1     150.107 154.893 163.268  0.00  0.00    +0.252 C 
ATOM     18  O4  UNL     1     149.186 154.526 162.547  0.00  0.00    -0.270 OA
ATOM     19  N1  UNL     1     151.008 155.901 162.986  0.00  0.00    -0.281 N 
ATOM     20  C15 UNL     1     151.043 156.743 161.856  0.00  0.00    +0.034 A 
ATOM     21  C16 UNL     1     150.171 156.634 160.772  0.00  0.00    -0.040 A 
ATOM     22  C17 UNL     1     150.272 157.514 159.689  0.00  0.00    -0.060 A 
ATOM     23  C18 UNL     1     151.244 158.511 159.682  0.00  0.00    -0.062 A 
ATOM     24  C19 UNL     1     152.119 158.630 160.757  0.00  0.00    -0.060 A 
ATOM     25  C20 UNL     1     152.019 157.749 161.838  0.00  0.00    -0.040 A 
ATOM     26  H   UNL     1     151.870 158.914 164.877  0.00  0.00    +0.000 HD
ATOM     27  H   UNL     1     151.714 156.049 163.656  0.00  0.00    +0.000 HD
ENDROOT
TORSDOF 0
ENDMDL
MODEL 6
REMARK VINA RESULT:    -8.036      3.266      6.722
REMARK INTER + INTRA:          -8.036
REMARK INTER:                  -8.036
REMARK INTRA:                   0.000
REMARK UNBOUND:                 0.000
REMARK  Name = /home/vital/Documents/PhD_2021/Malaria_codes/scripts/../data/pdbqt_ligands/ligand_381_temp.pdb
REMARK                            x       y       z     vdW  Elec       q    Type
REMARK                         _______ _______ _______ _____ _____    ______ ____
ROOT
ATOM      1  C1  UNL     1     153.124 160.709 170.002  0.00  0.00    -0.039 C 
ATOM      2  C2  UNL     1     153.846 160.360 168.705  0.00  0.00    +0.053 C 
ATOM      3  C3  UNL     1     155.352 160.525 168.874  0.00  0.00    -0.039 C 
ATOM      4  O1  UNL     1     153.437 161.255 167.665  0.00  0.00    -0.377 OA
ATOM      5  C4  UNL     1     152.252 160.846 166.979  0.00  0.00    +0.050 C 
ATOM      6  C5  UNL     1     152.615 159.913 165.824  0.00  0.00    -0.000 C 
ATOM      7  C6  UNL     1     151.401 159.563 164.970  0.00  0.00    +0.091 C 
ATOM      8  O2  UNL     1     150.433 158.887 165.780  0.00  0.00    -0.388 OA
ATOM      9  C7  UNL     1     151.795 158.667 163.788  0.00  0.00    +0.115 C 
ATOM     10  O3  UNL     1     150.583 158.316 163.083  0.00  0.00    -0.489 OA
ATOM     11  C8  UNL     1     150.861 158.018 161.772  0.00  0.00    +0.133 A 
ATOM     12  C9  UNL     1     150.775 159.074 160.858  0.00  0.00    -0.019 A 
ATOM     13  C10 UNL     1     151.039 158.854 159.508  0.00  0.00    -0.058 A 
ATOM     14  C11 UNL     1     151.377 157.578 159.066  0.00  0.00    -0.061 A 
ATOM     15  C12 UNL     1     151.439 156.518 159.974  0.00  0.00    -0.046 A 
ATOM     16  C13 UNL     1     151.164 156.719 161.337  0.00  0.00    +0.079 A 
ATOM     17  C14 UNL     1     151.227 155.517 162.230  0.00  0.00    +0.252 C 
ATOM     18  O4  UNL     1     151.860 154.541 161.842  0.00  0.00    -0.270 OA
ATOM     19  N1  UNL     1     150.539 155.617 163.423  0.00  0.00    -0.281 N 
ATOM     20  C15 UNL     1     150.449 154.662 164.457  0.00  0.00    +0.034 A 
ATOM     21  C16 UNL     1     151.015 153.388 164.396  0.00  0.00    -0.040 A 
ATOM     22  C17 UNL     1     150.882 152.500 165.469  0.00  0.00    -0.060 A 
ATOM     23  C18 UNL     1     150.184 152.880 166.613  0.00  0.00    -0.062 A 
ATOM     24  C19 UNL     1     149.616 154.149 166.685  0.00  0.00    -0.060 A 
ATOM     25  C20 UNL     1     149.747 155.035 165.612  0.00  0.00    -0.040 A 
ATOM     26  H   UNL     1     150.819 158.067 166.128  0.00  0.00    +0.000 HD
ATOM     27  H   UNL     1     150.049 156.459 163.570  0.00  0.00    +0.000 HD
ENDROOT
TORSDOF 0
ENDMDL
MODEL 7
REMARK VINA RESULT:    -7.939      2.274      6.915
REMARK INTER + INTRA:          -7.939
REMARK INTER:                  -7.939
REMARK INTRA:                   0.000
REMARK UNBOUND:                 0.000
REMARK  Name = /home/vital/Documents/PhD_2021/Malaria_codes/scripts/../data/pdbqt_ligands/ligand_381_temp.pdb
REMARK                            x       y       z     vdW  Elec       q    Type
REMARK                         _______ _______ _______ _____ _____    ______ ____
ROOT
ATOM      1  C1  UNL     1     150.602 157.559 156.432  0.00  0.00    -0.039 C 
ATOM      2  C2  UNL     1     151.422 156.644 157.336  0.00  0.00    +0.053 C 
ATOM      3  C3  UNL     1     152.573 156.018 156.556  0.00  0.00    -0.039 C 
ATOM      4  O1  UNL     1     150.604 155.572 157.815  0.00  0.00    -0.377 OA
ATOM      5  C4  UNL     1     149.866 155.887 158.997  0.00  0.00    +0.050 C 
ATOM      6  C5  UNL     1     150.713 155.589 160.233  0.00  0.00    -0.000 C 
ATOM      7  C6  UNL     1     149.922 155.770 161.525  0.00  0.00    +0.091 C 
ATOM      8  O2  UNL     1     149.483 157.129 161.623  0.00  0.00    -0.388 OA
ATOM      9  C7  UNL     1     150.774 155.418 162.751  0.00  0.00    +0.115 C 
ATOM     10  O3  UNL     1     149.983 155.695 163.928  0.00  0.00    -0.489 OA
ATOM     11  C8  UNL     1     150.406 154.925 164.983  0.00  0.00    +0.133 A 
ATOM     12  C9  UNL     1     149.762 153.695 165.159  0.00  0.00    -0.019 A 
ATOM     13  C10 UNL     1     150.132 152.855 166.208  0.00  0.00    -0.058 A 
ATOM     14  C11 UNL     1     151.136 153.247 167.089  0.00  0.00    -0.061 A 
ATOM     15  C12 UNL     1     151.763 154.486 166.928  0.00  0.00    -0.046 A 
ATOM     16  C13 UNL     1     151.395 155.350 165.883  0.00  0.00    +0.079 A 
ATOM     17  C14 UNL     1     152.102 156.669 165.808  0.00  0.00    +0.252 C 
ATOM     18  O4  UNL     1     153.181 156.780 166.380  0.00  0.00    -0.270 OA
ATOM     19  N1  UNL     1     151.452 157.662 165.101  0.00  0.00    -0.281 N 
ATOM     20  C15 UNL     1     151.892 158.976 164.845  0.00  0.00    +0.034 A 
ATOM     21  C16 UNL     1     153.076 159.517 165.349  0.00  0.00    -0.040 A 
ATOM     22  C17 UNL     1     153.441 160.832 165.044  0.00  0.00    -0.060 A 
ATOM     23  C18 UNL     1     152.627 161.617 164.232  0.00  0.00    -0.062 A 
ATOM     24  C19 UNL     1     151.444 161.089 163.723  0.00  0.00    -0.060 A 
ATOM     25  C20 UNL     1     151.078 159.775 164.030  0.00  0.00    -0.040 A 
ATOM     26  H   UNL     1     150.254 157.717 161.643  0.00  0.00    +0.000 HD
ATOM     27  H   UNL     1     150.572 157.421 164.730  0.00  0.00    +0.000 HD
ENDROOT
TORSDOF 0
ENDMDL
MODEL 8
REMARK VINA RESULT:    -7.757      3.302      7.458
REMARK INTER + INTRA:          -7.757
REMARK INTER:                  -7.757
REMARK INTRA:                   0.000
REMARK UNBOUND:                 0.000
REMARK  Name = /home/vital/Documents/PhD_2021/Malaria_codes/scripts/../data/pdbqt_ligands/ligand_381_temp.pdb
REMARK                            x       y       z     vdW  Elec       q    Type
REMARK                         _______ _______ _______ _____ _____    ______ ____
ROOT
ATOM      1  C1  UNL     1     152.570 161.374 166.924  0.00  0.00    -0.039 C 
ATOM      2  C2  UNL     1     151.192 160.719 166.935  0.00  0.00    +0.053 C 
ATOM      3  C3  UNL     1     150.115 161.753 167.244  0.00  0.00    -0.039 C 
ATOM      4  O1  UNL     1     151.133 159.726 167.964  0.00  0.00    -0.377 OA
ATOM      5  C4  UNL     1     151.612 158.442 167.561  0.00  0.00    +0.050 C 
ATOM      6  C5  UNL     1     150.476 157.637 166.931  0.00  0.00    -0.000 C 
ATOM      7  C6  UNL     1     150.897 156.206 166.615  0.00  0.00    +0.091 C 
ATOM      8  O2  UNL     1     151.979 156.228 165.678  0.00  0.00    -0.388 OA
ATOM      9  C7  UNL     1     149.729 155.401 166.031  0.00  0.00    +0.115 C 
ATOM     10  O3  UNL     1     150.231 154.091 165.684  0.00  0.00    -0.489 OA
ATOM     11  C8  UNL     1     149.214 153.169 165.693  0.00  0.00    +0.133 A 
ATOM     12  C9  UNL     1     149.000 152.483 166.894  0.00  0.00    -0.019 A 
ATOM     13  C10 UNL     1     147.988 151.529 166.984  0.00  0.00    -0.058 A 
ATOM     14  C11 UNL     1     147.195 151.251 165.874  0.00  0.00    -0.061 A 
ATOM     15  C12 UNL     1     147.423 151.919 164.668  0.00  0.00    -0.046 A 
ATOM     16  C13 UNL     1     148.447 152.875 164.555  0.00  0.00    +0.079 A 
ATOM     17  C14 UNL     1     148.635 153.518 163.214  0.00  0.00    +0.252 C 
ATOM     18  O4  UNL     1     147.701 153.484 162.421  0.00  0.00    -0.270 OA
ATOM     19  N1  UNL     1     149.874 154.085 162.987  0.00  0.00    -0.281 N 
ATOM     20  C15 UNL     1     150.315 154.776 161.840  0.00  0.00    +0.034 A 
ATOM     21  C16 UNL     1     149.553 154.938 160.683  0.00  0.00    -0.040 A 
ATOM     22  C17 UNL     1     150.066 155.641 159.588  0.00  0.00    -0.060 A 
ATOM     23  C18 UNL     1     151.345 156.189 159.642  0.00  0.00    -0.062 A 
ATOM     24  C19 UNL     1     152.115 156.034 160.791  0.00  0.00    -0.060 A 
ATOM     25  C20 UNL     1     151.603 155.329 161.884  0.00  0.00    -0.040 A 
ATOM     26  H   UNL     1     151.687 156.657 164.858  0.00  0.00    +0.000 HD
ATOM     27  H   UNL     1     150.529 153.996 163.716  0.00  0.00    +0.000 HD
ENDROOT
TORSDOF 0
ENDMDL
MODEL 9
REMARK VINA RESULT:    -7.134      2.535      3.545
REMARK INTER + INTRA:          -7.134
REMARK INTER:                  -7.134
REMARK INTRA:                   0.000
REMARK UNBOUND:                 0.000
REMARK  Name = /home/vital/Documents/PhD_2021/Malaria_codes/scripts/../data/pdbqt_ligands/ligand_381_temp.pdb
REMARK                            x       y       z     vdW  Elec       q    Type
REMARK                         _______ _______ _______ _____ _____    ______ ____
ROOT
ATOM      1  C1  UNL     1     148.455 151.748 163.910  0.00  0.00    -0.039 C 
ATOM      2  C2  UNL     1     147.954 152.948 163.113  0.00  0.00    +0.053 C 
ATOM      3  C3  UNL     1     146.458 152.821 162.843  0.00  0.00    -0.039 C 
ATOM      4  O1  UNL     1     148.610 152.996 161.841  0.00  0.00    -0.377 OA
ATOM      5  C4  UNL     1     149.865 153.679 161.860  0.00  0.00    +0.050 C 
ATOM      6  C5  UNL     1     149.646 155.174 161.632  0.00  0.00    -0.000 C 
ATOM      7  C6  UNL     1     150.964 155.930 161.498  0.00  0.00    +0.091 C 
ATOM      8  O2  UNL     1     151.716 155.786 162.707  0.00  0.00    -0.388 OA
ATOM      9  C7  UNL     1     150.723 157.420 161.220  0.00  0.00    +0.115 C 
ATOM     10  O3  UNL     1     152.011 158.073 161.190  0.00  0.00    -0.489 OA
ATOM     11  C8  UNL     1     151.953 159.214 160.429  0.00  0.00    +0.133 A 
ATOM     12  C9  UNL     1     152.281 159.082 159.075  0.00  0.00    -0.019 A 
ATOM     13  C10 UNL     1     152.249 160.193 158.235  0.00  0.00    -0.058 A 
ATOM     14  C11 UNL     1     151.900 161.440 158.747  0.00  0.00    -0.061 A 
ATOM     15  C12 UNL     1     151.596 161.578 160.104  0.00  0.00    -0.046 A 
ATOM     16  C13 UNL     1     151.635 160.470 160.968  0.00  0.00    +0.079 A 
ATOM     17  C14 UNL     1     151.322 160.720 162.412  0.00  0.00    +0.252 C 
ATOM     18  O4  UNL     1     150.697 161.735 162.700  0.00  0.00    -0.270 OA
ATOM     19  N1  UNL     1     151.789 159.774 163.302  0.00  0.00    -0.281 N 
ATOM     20  C15 UNL     1     151.618 159.738 164.701  0.00  0.00    +0.034 A 
ATOM     21  C16 UNL     1     150.978 160.736 165.437  0.00  0.00    -0.040 A 
ATOM     22  C17 UNL     1     150.848 160.621 166.825  0.00  0.00    -0.060 A 
ATOM     23  C18 UNL     1     151.355 159.507 167.488  0.00  0.00    -0.062 A 
ATOM     24  C19 UNL     1     151.995 158.505 166.765  0.00  0.00    -0.060 A 
ATOM     25  C20 UNL     1     152.127 158.621 165.379  0.00  0.00    -0.040 A 
ATOM     26  H   UNL     1     151.213 156.162 163.447  0.00  0.00    +0.000 HD
ATOM     27  H   UNL     1     152.306 159.032 162.912  0.00  0.00    +0.000 HD
ENDROOT
TORSDOF 0
ENDMDL
