MODEL 1
REMARK VINA RESULT:    -8.392      0.000      0.000
REMARK INTER + INTRA:          -8.392
REMARK INTER:                  -8.392
REMARK INTRA:                   0.000
REMARK UNBOUND:                 0.000
REMARK  Name = /home/vital/Documents/PhD_2021/Malaria_codes/scripts/../data/pdbqt_ligands/ligand_417_temp.pdb
REMARK                            x       y       z     vdW  Elec       q    Type
REMARK                         _______ _______ _______ _____ _____    ______ ____
ROOT
ATOM      1  C   UNL     1     151.892 160.381 168.781  0.00  0.00    -0.050 C 
ATOM      2  C   UNL     1     151.648 161.396 167.657  0.00  0.00    +0.004 C 
ATOM      3  C   UNL     1     152.732 162.477 167.701  0.00  0.00    -0.050 C 
ATOM      4  N   UNL     1     151.540 160.668 166.391  0.00  0.00    -0.303 N 
ATOM      5  C   UNL     1     152.782 160.324 165.715  0.00  0.00    -0.013 C 
ATOM      6  C   UNL     1     150.444 161.092 165.510  0.00  0.00    +0.000 C 
ATOM      7  C   UNL     1     150.427 162.533 164.963  0.00  0.00    -0.028 C 
ATOM      8  C   UNL     1     151.421 162.822 163.830  0.00  0.00    -0.003 C 
ATOM      9  N   UNL     1     151.104 162.023 162.648  0.00  0.00    -0.309 N 
ATOM     10  C   UNL     1     152.257 161.891 161.760  0.00  0.00    +0.055 C 
ATOM     11  C   UNL     1     151.869 161.248 160.473  0.00  0.00    +0.119 A 
ATOM     12  C   UNL     1     151.601 161.740 159.215  0.00  0.00    -0.019 A 
ATOM     13  C   UNL     1     151.291 160.618 158.409  0.00  0.00    -0.016 A 
ATOM     14  C   UNL     1     151.373 159.504 159.220  0.00  0.00    +0.135 A 
ATOM     15  C   UNL     1     151.153 158.074 159.022  0.00  0.00    +0.019 A 
ATOM     16  C   UNL     1     151.243 157.168 160.093  0.00  0.00    -0.051 A 
ATOM     17  C   UNL     1     151.009 155.805 159.906  0.00  0.00    -0.060 A 
ATOM     18  C   UNL     1     150.684 155.321 158.642  0.00  0.00    -0.043 A 
ATOM     19  C   UNL     1     150.599 156.208 157.572  0.00  0.00    +0.042 A 
ATOM     20 CL   UNL     1     150.196 155.616 156.008  0.00  0.00    -0.084 Cl
ATOM     21  C   UNL     1     150.830 157.572 157.754  0.00  0.00    -0.033 A 
ATOM     22  O   UNL     1     151.738 159.892 160.478  0.00  0.00    -0.458 OA
ATOM     23  H   UNL     1     151.238 159.753 166.725  0.00  0.00    +0.000 HD
ATOM     24  H   UNL     1     150.344 162.473 162.138  0.00  0.00    +0.000 HD
ATOM     25  H   UNL     1     150.834 161.089 162.958  0.00  0.00    +0.000 HD
ENDROOT
TORSDOF 0
ENDMDL
MODEL 2
REMARK VINA RESULT:    -7.752      3.940      8.531
REMARK INTER + INTRA:          -7.752
REMARK INTER:                  -7.752
REMARK INTRA:                   0.000
REMARK UNBOUND:                 0.000
REMARK  Name = /home/vital/Documents/PhD_2021/Malaria_codes/scripts/../data/pdbqt_ligands/ligand_417_temp.pdb
REMARK                            x       y       z     vdW  Elec       q    Type
REMARK                         _______ _______ _______ _____ _____    ______ ____
ROOT
ATOM      1  C   UNL     1     151.334 155.587 158.609  0.00  0.00    -0.050 C 
ATOM      2  C   UNL     1     151.351 157.121 158.630  0.00  0.00    +0.004 C 
ATOM      3  C   UNL     1     150.086 157.653 157.949  0.00  0.00    -0.050 C 
ATOM      4  N   UNL     1     151.553 157.563 160.010  0.00  0.00    -0.303 N 
ATOM      5  C   UNL     1     150.376 157.634 160.865  0.00  0.00    -0.013 C 
ATOM      6  C   UNL     1     152.522 158.651 160.190  0.00  0.00    +0.000 C 
ATOM      7  C   UNL     1     152.254 160.020 159.534  0.00  0.00    -0.028 C 
ATOM      8  C   UNL     1     151.189 160.885 160.221  0.00  0.00    -0.003 C 
ATOM      9  N   UNL     1     151.612 161.251 161.572  0.00  0.00    -0.309 N 
ATOM     10  C   UNL     1     150.478 161.631 162.410  0.00  0.00    +0.055 C 
ATOM     11  C   UNL     1     150.938 162.188 163.711  0.00  0.00    +0.119 A 
ATOM     12  C   UNL     1     151.071 163.470 164.196  0.00  0.00    -0.019 A 
ATOM     13  C   UNL     1     151.559 163.345 165.520  0.00  0.00    -0.016 A 
ATOM     14  C   UNL     1     151.711 161.996 165.766  0.00  0.00    +0.135 A 
ATOM     15  C   UNL     1     152.188 161.210 166.902  0.00  0.00    +0.019 A 
ATOM     16  C   UNL     1     152.301 159.811 166.822  0.00  0.00    -0.051 A 
ATOM     17  C   UNL     1     152.779 159.064 167.900  0.00  0.00    -0.060 A 
ATOM     18  C   UNL     1     153.148 159.702 169.080  0.00  0.00    -0.043 A 
ATOM     19  C   UNL     1     153.034 161.086 169.173  0.00  0.00    +0.042 A 
ATOM     20 CL   UNL     1     153.492 161.880 170.629  0.00  0.00    -0.084 Cl
ATOM     21  C   UNL     1     152.559 161.838 168.098  0.00  0.00    -0.033 A 
ATOM     22  O   UNL     1     151.319 161.292 164.664  0.00  0.00    -0.458 OA
ATOM     23  H   UNL     1     152.030 156.751 160.401  0.00  0.00    +0.000 HD
ATOM     24  H   UNL     1     152.259 162.037 161.515  0.00  0.00    +0.000 HD
ATOM     25  H   UNL     1     152.061 160.438 161.995  0.00  0.00    +0.000 HD
ENDROOT
TORSDOF 0
ENDMDL
MODEL 3
REMARK VINA RESULT:    -7.699      6.238      8.713
REMARK INTER + INTRA:          -7.699
REMARK INTER:                  -7.699
REMARK INTRA:                   0.000
REMARK UNBOUND:                 0.000
REMARK  Name = /home/vital/Documents/PhD_2021/Malaria_codes/scripts/../data/pdbqt_ligands/ligand_417_temp.pdb
REMARK                            x       y       z     vdW  Elec       q    Type
REMARK                         _______ _______ _______ _____ _____    ______ ____
ROOT
ATOM      1  C   UNL     1     150.998 158.942 158.254  0.00  0.00    -0.050 C 
ATOM      2  C   UNL     1     151.649 158.554 159.587  0.00  0.00    +0.004 C 
ATOM      3  C   UNL     1     151.736 159.788 160.490  0.00  0.00    -0.050 C 
ATOM      4  N   UNL     1     150.915 157.418 160.148  0.00  0.00    -0.303 N 
ATOM      5  C   UNL     1     149.707 157.716 160.904  0.00  0.00    -0.013 C 
ATOM      6  C   UNL     1     151.745 156.338 160.694  0.00  0.00    +0.000 C 
ATOM      7  C   UNL     1     152.683 156.630 161.883  0.00  0.00    -0.028 C 
ATOM      8  C   UNL     1     151.997 156.764 163.249  0.00  0.00    -0.003 C 
ATOM      9  N   UNL     1     151.366 155.505 163.637  0.00  0.00    -0.309 N 
ATOM     10  C   UNL     1     150.325 155.708 164.641  0.00  0.00    +0.055 C 
ATOM     11  C   UNL     1     149.831 154.407 165.170  0.00  0.00    +0.119 A 
ATOM     12  C   UNL     1     150.088 153.697 166.322  0.00  0.00    -0.019 A 
ATOM     13  C   UNL     1     149.300 152.523 166.248  0.00  0.00    -0.016 A 
ATOM     14  C   UNL     1     148.615 152.573 165.051  0.00  0.00    +0.135 A 
ATOM     15  C   UNL     1     147.677 151.684 164.370  0.00  0.00    +0.019 A 
ATOM     16  C   UNL     1     147.194 151.983 163.083  0.00  0.00    -0.051 A 
ATOM     17  C   UNL     1     146.316 151.120 162.425  0.00  0.00    -0.060 A 
ATOM     18  C   UNL     1     145.901 149.944 163.042  0.00  0.00    -0.043 A 
ATOM     19  C   UNL     1     146.367 149.641 164.319  0.00  0.00    +0.042 A 
ATOM     20 CL   UNL     1     145.859 148.187 165.085  0.00  0.00    -0.084 Cl
ATOM     21  C   UNL     1     147.247 150.498 164.981  0.00  0.00    -0.033 A 
ATOM     22  O   UNL     1     148.933 153.731 164.401  0.00  0.00    -0.458 OA
ATOM     23  H   UNL     1     150.520 157.011 159.300  0.00  0.00    +0.000 HD
ATOM     24  H   UNL     1     152.077 154.882 164.020  0.00  0.00    +0.000 HD
ATOM     25  H   UNL     1     150.932 155.098 162.808  0.00  0.00    +0.000 HD
ENDROOT
TORSDOF 0
ENDMDL
MODEL 4
REMARK VINA RESULT:    -7.560      2.271      4.122
REMARK INTER + INTRA:          -7.560
REMARK INTER:                  -7.560
REMARK INTRA:                   0.000
REMARK UNBOUND:                 0.000
REMARK  Name = /home/vital/Documents/PhD_2021/Malaria_codes/scripts/../data/pdbqt_ligands/ligand_417_temp.pdb
REMARK                            x       y       z     vdW  Elec       q    Type
REMARK                         _______ _______ _______ _____ _____    ______ ____
ROOT
ATOM      1  C   UNL     1     151.170 163.542 164.877  0.00  0.00    -0.050 C 
ATOM      2  C   UNL     1     151.418 162.046 165.107  0.00  0.00    +0.004 C 
ATOM      3  C   UNL     1     150.375 161.501 166.087  0.00  0.00    -0.050 C 
ATOM      4  N   UNL     1     151.464 161.378 163.805  0.00  0.00    -0.303 N 
ATOM      5  C   UNL     1     150.192 161.003 163.205  0.00  0.00    -0.013 C 
ATOM      6  C   UNL     1     152.548 160.403 163.633  0.00  0.00    +0.000 C 
ATOM      7  C   UNL     1     152.600 159.160 164.544  0.00  0.00    -0.028 C 
ATOM      8  C   UNL     1     151.585 158.057 164.217  0.00  0.00    -0.003 C 
ATOM      9  N   UNL     1     151.840 157.497 162.891  0.00  0.00    -0.309 N 
ATOM     10  C   UNL     1     150.658 156.828 162.351  0.00  0.00    +0.055 C 
ATOM     11  C   UNL     1     150.987 156.096 161.097  0.00  0.00    +0.119 A 
ATOM     12  C   UNL     1     151.236 154.771 160.814  0.00  0.00    -0.019 A 
ATOM     13  C   UNL     1     151.483 154.702 159.422  0.00  0.00    -0.016 A 
ATOM     14  C   UNL     1     151.384 155.989 158.931  0.00  0.00    +0.135 A 
ATOM     15  C   UNL     1     151.549 156.598 157.614  0.00  0.00    +0.019 A 
ATOM     16  C   UNL     1     151.457 157.990 157.439  0.00  0.00    -0.051 A 
ATOM     17  C   UNL     1     151.637 158.572 156.183  0.00  0.00    -0.060 A 
ATOM     18  C   UNL     1     151.908 157.772 155.078  0.00  0.00    -0.043 A 
ATOM     19  C   UNL     1     151.995 156.391 155.237  0.00  0.00    +0.042 A 
ATOM     20 CL   UNL     1     152.332 155.398 153.873  0.00  0.00    -0.084 Cl
ATOM     21  C   UNL     1     151.817 155.804 156.490  0.00  0.00    -0.033 A 
ATOM     22  O   UNL     1     151.070 156.835 159.955  0.00  0.00    -0.458 OA
ATOM     23  H   UNL     1     151.743 162.154 163.205  0.00  0.00    +0.000 HD
ATOM     24  H   UNL     1     152.600 156.821 162.958  0.00  0.00    +0.000 HD
ATOM     25  H   UNL     1     152.086 158.263 162.264  0.00  0.00    +0.000 HD
ENDROOT
TORSDOF 0
ENDMDL
MODEL 5
REMARK VINA RESULT:    -7.472      7.101      9.812
REMARK INTER + INTRA:          -7.472
REMARK INTER:                  -7.472
REMARK INTRA:                   0.000
REMARK UNBOUND:                 0.000
REMARK  Name = /home/vital/Documents/PhD_2021/Malaria_codes/scripts/../data/pdbqt_ligands/ligand_417_temp.pdb
REMARK                            x       y       z     vdW  Elec       q    Type
REMARK                         _______ _______ _______ _____ _____    ______ ____
ROOT
ATOM      1  C   UNL     1     151.017 156.749 157.746  0.00  0.00    -0.050 C 
ATOM      2  C   UNL     1     151.517 156.620 159.190  0.00  0.00    +0.004 C 
ATOM      3  C   UNL     1     151.549 158.004 159.844  0.00  0.00    -0.050 C 
ATOM      4  N   UNL     1     150.697 155.621 159.877  0.00  0.00    -0.303 N 
ATOM      5  C   UNL     1     149.428 156.070 160.431  0.00  0.00    -0.013 C 
ATOM      6  C   UNL     1     151.436 154.658 160.704  0.00  0.00    +0.000 C 
ATOM      7  C   UNL     1     152.256 155.165 161.907  0.00  0.00    -0.028 C 
ATOM      8  C   UNL     1     151.440 155.568 163.142  0.00  0.00    -0.003 C 
ATOM      9  N   UNL     1     150.735 154.412 163.695  0.00  0.00    -0.309 N 
ATOM     10  C   UNL     1     149.604 154.816 164.527  0.00  0.00    +0.055 C 
ATOM     11  C   UNL     1     149.022 153.646 165.240  0.00  0.00    +0.119 A 
ATOM     12  C   UNL     1     149.140 153.169 166.526  0.00  0.00    -0.019 A 
ATOM     13  C   UNL     1     148.329 152.010 166.596  0.00  0.00    -0.016 A 
ATOM     14  C   UNL     1     147.770 151.835 165.345  0.00  0.00    +0.135 A 
ATOM     15  C   UNL     1     146.881 150.840 164.752  0.00  0.00    +0.019 A 
ATOM     16  C   UNL     1     146.540 150.889 163.389  0.00  0.00    -0.051 A 
ATOM     17  C   UNL     1     145.708 149.924 162.819  0.00  0.00    -0.060 A 
ATOM     18  C   UNL     1     145.198 148.893 163.602  0.00  0.00    -0.043 A 
ATOM     19  C   UNL     1     145.523 148.837 164.955  0.00  0.00    +0.042 A 
ATOM     20 CL   UNL     1     144.898 147.564 165.927  0.00  0.00    -0.084 Cl
ATOM     21  C   UNL     1     146.356 149.799 165.530  0.00  0.00    -0.033 A 
ATOM     22  O   UNL     1     148.186 152.843 164.523  0.00  0.00    -0.458 OA
ATOM     23  H   UNL     1     150.379 155.061 159.086  0.00  0.00    +0.000 HD
ATOM     24  H   UNL     1     151.386 153.869 164.263  0.00  0.00    +0.000 HD
ATOM     25  H   UNL     1     150.377 153.857 162.918  0.00  0.00    +0.000 HD
ENDROOT
TORSDOF 0
ENDMDL
MODEL 6
REMARK VINA RESULT:    -7.137      2.244      4.130
REMARK INTER + INTRA:          -7.137
REMARK INTER:                  -7.137
REMARK INTRA:                   0.000
REMARK UNBOUND:                 0.000
REMARK  Name = /home/vital/Documents/PhD_2021/Malaria_codes/scripts/../data/pdbqt_ligands/ligand_417_temp.pdb
REMARK                            x       y       z     vdW  Elec       q    Type
REMARK                         _______ _______ _______ _____ _____    ______ ____
ROOT
ATOM      1  C   UNL     1     151.292 162.979 167.525  0.00  0.00    -0.050 C 
ATOM      2  C   UNL     1     151.623 161.483 167.600  0.00  0.00    +0.004 C 
ATOM      3  C   UNL     1     150.810 160.838 168.727  0.00  0.00    -0.050 C 
ATOM      4  N   UNL     1     151.428 160.897 166.273  0.00  0.00    -0.303 N 
ATOM      5  C   UNL     1     150.072 160.508 165.911  0.00  0.00    -0.013 C 
ATOM      6  C   UNL     1     152.482 159.979 165.826  0.00  0.00    +0.000 C 
ATOM      7  C   UNL     1     152.749 158.687 166.623  0.00  0.00    -0.028 C 
ATOM      8  C   UNL     1     151.720 157.565 166.428  0.00  0.00    -0.003 C 
ATOM      9  N   UNL     1     151.722 157.097 165.043  0.00  0.00    -0.309 N 
ATOM     10  C   UNL     1     150.476 156.415 164.702  0.00  0.00    +0.055 C 
ATOM     11  C   UNL     1     150.569 155.774 163.361  0.00  0.00    +0.119 A 
ATOM     12  C   UNL     1     150.793 154.480 162.947  0.00  0.00    -0.019 A 
ATOM     13  C   UNL     1     150.761 154.505 161.532  0.00  0.00    -0.016 A 
ATOM     14  C   UNL     1     150.531 155.814 161.158  0.00  0.00    +0.135 A 
ATOM     15  C   UNL     1     150.413 156.508 159.878  0.00  0.00    +0.019 A 
ATOM     16  C   UNL     1     150.250 157.903 159.819  0.00  0.00    -0.051 A 
ATOM     17  C   UNL     1     150.161 158.567 158.594  0.00  0.00    -0.060 A 
ATOM     18  C   UNL     1     150.229 157.847 157.405  0.00  0.00    -0.043 A 
ATOM     19  C   UNL     1     150.384 156.464 157.451  0.00  0.00    +0.042 A 
ATOM     20 CL   UNL     1     150.471 155.569 155.984  0.00  0.00    -0.084 Cl
ATOM     21  C   UNL     1     150.475 155.795 158.673  0.00  0.00    -0.033 A 
ATOM     22  O   UNL     1     150.403 156.584 162.279  0.00  0.00    -0.458 OA
ATOM     23  H   UNL     1     151.560 161.719 165.683  0.00  0.00    +0.000 HD
ATOM     24  H   UNL     1     152.499 156.450 164.914  0.00  0.00    +0.000 HD
ATOM     25  H   UNL     1     151.817 157.909 164.434  0.00  0.00    +0.000 HD
ENDROOT
TORSDOF 0
ENDMDL
MODEL 7
REMARK VINA RESULT:    -7.025      4.544      5.653
REMARK INTER + INTRA:          -7.025
REMARK INTER:                  -7.025
REMARK INTRA:                   0.000
REMARK UNBOUND:                 0.000
REMARK  Name = /home/vital/Documents/PhD_2021/Malaria_codes/scripts/../data/pdbqt_ligands/ligand_417_temp.pdb
REMARK                            x       y       z     vdW  Elec       q    Type
REMARK                         _______ _______ _______ _____ _____    ______ ____
ROOT
ATOM      1  C   UNL     1     153.049 161.713 170.884  0.00  0.00    -0.050 C 
ATOM      2  C   UNL     1     152.893 161.847 169.363  0.00  0.00    +0.004 C 
ATOM      3  C   UNL     1     154.226 162.284 168.751  0.00  0.00    -0.050 C 
ATOM      4  N   UNL     1     152.344 160.594 168.842  0.00  0.00    -0.303 N 
ATOM      5  C   UNL     1     153.286 159.515 168.580  0.00  0.00    -0.013 C 
ATOM      6  C   UNL     1     151.267 160.738 167.854  0.00  0.00    +0.000 C 
ATOM      7  C   UNL     1     151.556 161.451 166.518  0.00  0.00    -0.028 C 
ATOM      8  C   UNL     1     152.356 160.636 165.494  0.00  0.00    -0.003 C 
ATOM      9  N   UNL     1     151.607 159.453 165.074  0.00  0.00    -0.309 N 
ATOM     10  C   UNL     1     152.484 158.430 164.511  0.00  0.00    +0.055 C 
ATOM     11  C   UNL     1     151.693 157.321 163.910  0.00  0.00    +0.119 A 
ATOM     12  C   UNL     1     151.341 157.005 162.616  0.00  0.00    -0.019 A 
ATOM     13  C   UNL     1     150.579 155.814 162.692  0.00  0.00    -0.016 A 
ATOM     14  C   UNL     1     150.495 155.475 164.028  0.00  0.00    +0.135 A 
ATOM     15  C   UNL     1     149.844 154.399 164.772  0.00  0.00    +0.019 A 
ATOM     16  C   UNL     1     149.876 154.364 166.177  0.00  0.00    -0.051 A 
ATOM     17  C   UNL     1     149.234 153.348 166.887  0.00  0.00    -0.060 A 
ATOM     18  C   UNL     1     148.552 152.346 166.205  0.00  0.00    -0.043 A 
ATOM     19  C   UNL     1     148.519 152.366 164.813  0.00  0.00    +0.042 A 
ATOM     20 CL   UNL     1     147.675 151.130 163.965  0.00  0.00    -0.084 Cl
ATOM     21  C   UNL     1     149.158 153.380 164.098  0.00  0.00    -0.033 A 
ATOM     22  O   UNL     1     151.187 156.391 164.767  0.00  0.00    -0.458 OA
ATOM     23  H   UNL     1     151.865 160.239 169.669  0.00  0.00    +0.000 HD
ATOM     24  H   UNL     1     150.924 159.727 164.369  0.00  0.00    +0.000 HD
ATOM     25  H   UNL     1     151.148 159.061 165.896  0.00  0.00    +0.000 HD
ENDROOT
TORSDOF 0
ENDMDL
MODEL 8
REMARK VINA RESULT:    -6.800      2.163      4.103
REMARK INTER + INTRA:          -6.800
REMARK INTER:                  -6.800
REMARK INTRA:                   0.000
REMARK UNBOUND:                 0.000
REMARK  Name = /home/vital/Documents/PhD_2021/Malaria_codes/scripts/../data/pdbqt_ligands/ligand_417_temp.pdb
REMARK                            x       y       z     vdW  Elec       q    Type
REMARK                         _______ _______ _______ _____ _____    ______ ____
ROOT
ATOM      1  C   UNL     1     151.350 161.865 167.728  0.00  0.00    -0.050 C 
ATOM      2  C   UNL     1     151.588 160.365 167.512  0.00  0.00    +0.004 C 
ATOM      3  C   UNL     1     150.591 159.564 168.354  0.00  0.00    -0.050 C 
ATOM      4  N   UNL     1     151.555 160.092 166.074  0.00  0.00    -0.303 N 
ATOM      5  C   UNL     1     150.246 159.901 165.464  0.00  0.00    -0.013 C 
ATOM      6  C   UNL     1     152.613 159.207 165.574  0.00  0.00    +0.000 C 
ATOM      7  C   UNL     1     152.696 157.757 166.093  0.00  0.00    -0.028 C 
ATOM      8  C   UNL     1     151.649 156.791 165.524  0.00  0.00    -0.003 C 
ATOM      9  N   UNL     1     151.824 156.629 164.082  0.00  0.00    -0.309 N 
ATOM     10  C   UNL     1     150.606 156.139 163.441  0.00  0.00    +0.055 C 
ATOM     11  C   UNL     1     150.856 155.791 162.015  0.00  0.00    +0.119 A 
ATOM     12  C   UNL     1     151.070 154.600 161.357  0.00  0.00    -0.019 A 
ATOM     13  C   UNL     1     151.241 154.928 159.990  0.00  0.00    -0.016 A 
ATOM     14  C   UNL     1     151.135 156.301 159.889  0.00  0.00    +0.135 A 
ATOM     15  C   UNL     1     151.237 157.257 158.790  0.00  0.00    +0.019 A 
ATOM     16  C   UNL     1     151.157 158.642 159.021  0.00  0.00    -0.051 A 
ATOM     17  C   UNL     1     151.278 159.555 157.972  0.00  0.00    -0.060 A 
ATOM     18  C   UNL     1     151.478 159.101 156.673  0.00  0.00    -0.043 A 
ATOM     19  C   UNL     1     151.552 157.732 156.431  0.00  0.00    +0.042 A 
ATOM     20 CL   UNL     1     151.801 157.165 154.826  0.00  0.00    -0.084 Cl
ATOM     21  C   UNL     1     151.433 156.814 157.475  0.00  0.00    -0.033 A 
ATOM     22  O   UNL     1     150.888 156.823 161.127  0.00  0.00    -0.458 OA
ATOM     23  H   UNL     1     151.812 161.007 165.702  0.00  0.00    +0.000 HD
ATOM     24  H   UNL     1     152.577 155.962 163.912  0.00  0.00    +0.000 HD
ATOM     25  H   UNL     1     152.047 157.541 163.684  0.00  0.00    +0.000 HD
ENDROOT
TORSDOF 0
ENDMDL
MODEL 9
REMARK VINA RESULT:    -6.582      1.948      2.451
REMARK INTER + INTRA:          -6.582
REMARK INTER:                  -6.582
REMARK INTRA:                   0.000
REMARK UNBOUND:                 0.000
REMARK  Name = /home/vital/Documents/PhD_2021/Malaria_codes/scripts/../data/pdbqt_ligands/ligand_417_temp.pdb
REMARK                            x       y       z     vdW  Elec       q    Type
REMARK                         _______ _______ _______ _____ _____    ______ ____
ROOT
ATOM      1  C   UNL     1     152.077 161.445 170.907  0.00  0.00    -0.050 C 
ATOM      2  C   UNL     1     151.497 162.232 169.725  0.00  0.00    +0.004 C 
ATOM      3  C   UNL     1     152.284 163.533 169.544  0.00  0.00    -0.050 C 
ATOM      4  N   UNL     1     151.461 161.353 168.555  0.00  0.00    -0.303 N 
ATOM      5  C   UNL     1     152.687 161.229 167.780  0.00  0.00    -0.013 C 
ATOM      6  C   UNL     1     150.224 161.401 167.766  0.00  0.00    +0.000 C 
ATOM      7  C   UNL     1     149.810 162.722 167.088  0.00  0.00    -0.028 C 
ATOM      8  C   UNL     1     150.601 163.096 165.829  0.00  0.00    -0.003 C 
ATOM      9  N   UNL     1     150.389 162.109 164.772  0.00  0.00    -0.309 N 
ATOM     10  C   UNL     1     151.458 162.144 163.777  0.00  0.00    +0.055 C 
ATOM     11  C   UNL     1     151.129 161.279 162.610  0.00  0.00    +0.119 A 
ATOM     12  C   UNL     1     150.642 161.540 161.348  0.00  0.00    -0.019 A 
ATOM     13  C   UNL     1     150.547 160.289 160.693  0.00  0.00    -0.016 A 
ATOM     14  C   UNL     1     150.968 159.331 161.593  0.00  0.00    +0.135 A 
ATOM     15  C   UNL     1     151.087 157.875 161.558  0.00  0.00    +0.019 A 
ATOM     16  C   UNL     1     151.487 157.150 162.695  0.00  0.00    -0.051 A 
ATOM     17  C   UNL     1     151.578 155.758 162.666  0.00  0.00    -0.060 A 
ATOM     18  C   UNL     1     151.274 155.064 161.499  0.00  0.00    -0.043 A 
ATOM     19  C   UNL     1     150.883 155.771 160.365  0.00  0.00    +0.042 A 
ATOM     20 CL   UNL     1     150.503 154.918 158.920  0.00  0.00    -0.084 Cl
ATOM     21  C   UNL     1     150.789 157.163 160.388  0.00  0.00    -0.033 A 
ATOM     22  O   UNL     1     151.334 159.941 162.759  0.00  0.00    -0.458 OA
ATOM     23  H   UNL     1     151.422 160.439 169.007  0.00  0.00    +0.000 HD
ATOM     24  H   UNL     1     149.501 162.305 164.310  0.00  0.00    +0.000 HD
ATOM     25  H   UNL     1     150.382 161.183 165.199  0.00  0.00    +0.000 HD
ENDROOT
TORSDOF 0
ENDMDL
