MODEL 1
REMARK VINA RESULT:    -8.658      0.000      0.000
REMARK INTER + INTRA:          -8.658
REMARK INTER:                  -8.658
REMARK INTRA:                   0.000
REMARK UNBOUND:                 0.000
REMARK  Name = /home/vital/Documents/PhD_2021/Malaria_codes/scripts/../data/pdbqt_ligands/ligand_161_temp.pdb
REMARK                            x       y       z     vdW  Elec       q    Type
REMARK                         _______ _______ _______ _____ _____    ______ ____
ROOT
ATOM      1  C1  UNL     1     150.508 157.172 159.964  0.00  0.00    -0.038 C 
ATOM      2  C2  UNL     1     150.883 158.156 158.882  0.00  0.00    -0.024 A 
ATOM      3  C3  UNL     1     151.084 157.627 157.508  0.00  0.00    +0.002 A 
ATOM      4  C4  UNL     1     150.932 156.273 157.174  0.00  0.00    -0.052 A 
ATOM      5  C5  UNL     1     151.137 155.822 155.865  0.00  0.00    -0.061 A 
ATOM      6  C6  UNL     1     151.500 156.720 154.865  0.00  0.00    -0.060 A 
ATOM      7  C7  UNL     1     151.656 158.070 155.173  0.00  0.00    -0.038 A 
ATOM      8  C8  UNL     1     151.448 158.513 156.484  0.00  0.00    +0.049 A 
ATOM      9  N1  UNL     1     151.604 159.869 156.765  0.00  0.00    -0.321 N 
ATOM     10  C9  UNL     1     151.416 160.421 158.007  0.00  0.00    +0.262 A 
ATOM     11  O1  UNL     1     151.540 161.638 158.133  0.00  0.00    -0.267 OA
ATOM     12  C10 UNL     1     151.055 159.482 159.111  0.00  0.00    +0.108 A 
ATOM     13  C11 UNL     1     150.845 160.004 160.492  0.00  0.00    +0.294 C 
ATOM     14  O2  UNL     1     149.700 160.191 160.902  0.00  0.00    -0.266 OA
ATOM     15  N2  UNL     1     152.022 160.155 161.116  0.00  0.00    -0.058 NA
ATOM     16  O3  UNL     1     151.887 160.378 162.536  0.00  0.00    -0.257 OA
ATOM     17  C12 UNL     1     151.862 161.788 162.769  0.00  0.00    +0.078 C 
ATOM     18  C13 UNL     1     151.776 162.045 164.280  0.00  0.00    -0.021 C 
ATOM     19  C14 UNL     1     151.617 163.539 164.559  0.00  0.00    -0.061 C 
ATOM     20  C15 UNL     1     153.004 161.496 165.009  0.00  0.00    -0.061 C 
ATOM     21  H   UNL     1     151.865 160.467 156.028  0.00  0.00    +0.000 HD
ENDROOT
TORSDOF 0
ENDMDL
MODEL 2
REMARK VINA RESULT:    -8.163      4.245      5.713
REMARK INTER + INTRA:          -8.163
REMARK INTER:                  -8.163
REMARK INTRA:                   0.000
REMARK UNBOUND:                 0.000
REMARK  Name = /home/vital/Documents/PhD_2021/Malaria_codes/scripts/../data/pdbqt_ligands/ligand_161_temp.pdb
REMARK                            x       y       z     vdW  Elec       q    Type
REMARK                         _______ _______ _______ _____ _____    ______ ____
ROOT
ATOM      1  C1  UNL     1     150.325 157.929 160.160  0.00  0.00    -0.038 C 
ATOM      2  C2  UNL     1     150.954 156.816 159.358  0.00  0.00    -0.024 A 
ATOM      3  C3  UNL     1     151.135 157.035 157.899  0.00  0.00    +0.002 A 
ATOM      4  C4  UNL     1     150.761 158.219 157.245  0.00  0.00    -0.052 A 
ATOM      5  C5  UNL     1     150.947 158.376 155.867  0.00  0.00    -0.061 A 
ATOM      6  C6  UNL     1     151.511 157.348 155.117  0.00  0.00    -0.060 A 
ATOM      7  C7  UNL     1     151.891 156.164 155.744  0.00  0.00    -0.038 A 
ATOM      8  C8  UNL     1     151.702 156.014 157.122  0.00  0.00    +0.049 A 
ATOM      9  N1  UNL     1     152.097 154.823 157.727  0.00  0.00    -0.321 N 
ATOM     10  C9  UNL     1     151.974 154.566 159.069  0.00  0.00    +0.262 A 
ATOM     11  O1  UNL     1     152.393 153.496 159.503  0.00  0.00    -0.267 OA
ATOM     12  C10 UNL     1     151.344 155.636 159.901  0.00  0.00    +0.108 A 
ATOM     13  C11 UNL     1     151.165 155.428 161.367  0.00  0.00    +0.294 C 
ATOM     14  O2  UNL     1     151.965 155.933 162.153  0.00  0.00    -0.266 OA
ATOM     15  N2  UNL     1     150.058 154.708 161.602  0.00  0.00    -0.058 NA
ATOM     16  O3  UNL     1     149.664 154.712 162.992  0.00  0.00    -0.257 OA
ATOM     17  C12 UNL     1     150.245 153.570 163.626  0.00  0.00    +0.078 C 
ATOM     18  C13 UNL     1     149.790 153.526 165.091  0.00  0.00    -0.021 C 
ATOM     19  C14 UNL     1     150.494 152.391 165.834  0.00  0.00    -0.061 C 
ATOM     20  C15 UNL     1     148.272 153.369 165.199  0.00  0.00    -0.061 C 
ATOM     21  H   UNL     1     152.487 154.122 157.157  0.00  0.00    +0.000 HD
ENDROOT
TORSDOF 0
ENDMDL
MODEL 3
REMARK VINA RESULT:    -8.057      3.075      7.825
REMARK INTER + INTRA:          -8.057
REMARK INTER:                  -8.057
REMARK INTRA:                   0.000
REMARK UNBOUND:                 0.000
REMARK  Name = /home/vital/Documents/PhD_2021/Malaria_codes/scripts/../data/pdbqt_ligands/ligand_161_temp.pdb
REMARK                            x       y       z     vdW  Elec       q    Type
REMARK                         _______ _______ _______ _____ _____    ______ ____
ROOT
ATOM      1  C1  UNL     1     152.162 160.324 157.388  0.00  0.00    -0.038 C 
ATOM      2  C2  UNL     1     151.584 159.088 158.032  0.00  0.00    -0.024 A 
ATOM      3  C3  UNL     1     151.390 159.105 159.505  0.00  0.00    +0.002 A 
ATOM      4  C4  UNL     1     151.706 160.210 160.312  0.00  0.00    -0.052 A 
ATOM      5  C5  UNL     1     151.510 160.175 161.697  0.00  0.00    -0.061 A 
ATOM      6  C6  UNL     1     150.993 159.033 162.302  0.00  0.00    -0.060 A 
ATOM      7  C7  UNL     1     150.671 157.924 161.521  0.00  0.00    -0.038 A 
ATOM      8  C8  UNL     1     150.870 157.966 160.137  0.00  0.00    +0.049 A 
ATOM      9  N1  UNL     1     150.534 156.847 159.378  0.00  0.00    -0.321 N 
ATOM     10  C9  UNL     1     150.672 156.775 158.015  0.00  0.00    +0.262 A 
ATOM     11  O1  UNL     1     150.304 155.752 157.442  0.00  0.00    -0.267 OA
ATOM     12  C10 UNL     1     151.251 157.972 157.336  0.00  0.00    +0.108 A 
ATOM     13  C11 UNL     1     151.444 157.967 155.857  0.00  0.00    +0.294 C 
ATOM     14  O2  UNL     1     150.622 158.533 155.137  0.00  0.00    -0.266 OA
ATOM     15  N2  UNL     1     152.584 157.337 155.539  0.00  0.00    -0.058 NA
ATOM     16  O3  UNL     1     152.981 157.541 154.165  0.00  0.00    -0.257 OA
ATOM     17  C12 UNL     1     152.456 156.466 153.383  0.00  0.00    +0.078 C 
ATOM     18  C13 UNL     1     152.916 156.636 151.928  0.00  0.00    -0.021 C 
ATOM     19  C14 UNL     1     152.268 155.577 151.037  0.00  0.00    -0.061 C 
ATOM     20  C15 UNL     1     154.440 156.566 151.813  0.00  0.00    -0.061 C 
ATOM     21  H   UNL     1     150.175 156.060 159.849  0.00  0.00    +0.000 HD
ENDROOT
TORSDOF 0
ENDMDL
MODEL 4
REMARK VINA RESULT:    -7.986      3.365      4.349
REMARK INTER + INTRA:          -7.986
REMARK INTER:                  -7.986
REMARK INTRA:                   0.000
REMARK UNBOUND:                 0.000
REMARK  Name = /home/vital/Documents/PhD_2021/Malaria_codes/scripts/../data/pdbqt_ligands/ligand_161_temp.pdb
REMARK                            x       y       z     vdW  Elec       q    Type
REMARK                         _______ _______ _______ _____ _____    ______ ____
ROOT
ATOM      1  C1  UNL     1     151.677 159.266 160.395  0.00  0.00    -0.038 C 
ATOM      2  C2  UNL     1     151.445 157.794 160.158  0.00  0.00    -0.024 A 
ATOM      3  C3  UNL     1     150.972 157.378 158.812  0.00  0.00    +0.002 A 
ATOM      4  C4  UNL     1     150.744 158.282 157.762  0.00  0.00    -0.052 A 
ATOM      5  C5  UNL     1     150.293 157.842 156.512  0.00  0.00    -0.061 A 
ATOM      6  C6  UNL     1     150.061 156.487 156.290  0.00  0.00    -0.060 A 
ATOM      7  C7  UNL     1     150.280 155.572 157.318  0.00  0.00    -0.038 A 
ATOM      8  C8  UNL     1     150.732 156.019 158.564  0.00  0.00    +0.049 A 
ATOM      9  N1  UNL     1     150.950 155.083 159.572  0.00  0.00    -0.321 N 
ATOM     10  C9  UNL     1     151.403 155.400 160.828  0.00  0.00    +0.262 A 
ATOM     11  O1  UNL     1     151.600 154.488 161.628  0.00  0.00    -0.267 OA
ATOM     12  C10 UNL     1     151.635 156.848 161.111  0.00  0.00    +0.108 A 
ATOM     13  C11 UNL     1     152.115 157.274 162.457  0.00  0.00    +0.294 C 
ATOM     14  O2  UNL     1     153.308 157.528 162.622  0.00  0.00    -0.266 OA
ATOM     15  N2  UNL     1     151.088 157.356 163.314  0.00  0.00    -0.058 NA
ATOM     16  O3  UNL     1     151.427 158.033 164.544  0.00  0.00    -0.257 OA
ATOM     17  C12 UNL     1     151.828 157.050 165.501  0.00  0.00    +0.078 C 
ATOM     18  C13 UNL     1     152.137 157.746 166.834  0.00  0.00    -0.021 C 
ATOM     19  C14 UNL     1     152.693 156.743 167.844  0.00  0.00    -0.061 C 
ATOM     20  C15 UNL     1     150.897 158.440 167.402  0.00  0.00    -0.061 C 
ATOM     21  H   UNL     1     150.768 154.136 159.372  0.00  0.00    +0.000 HD
ENDROOT
TORSDOF 0
ENDMDL
MODEL 5
REMARK VINA RESULT:    -7.876      1.319      1.508
REMARK INTER + INTRA:          -7.876
REMARK INTER:                  -7.876
REMARK INTRA:                   0.000
REMARK UNBOUND:                 0.000
REMARK  Name = /home/vital/Documents/PhD_2021/Malaria_codes/scripts/../data/pdbqt_ligands/ligand_161_temp.pdb
REMARK                            x       y       z     vdW  Elec       q    Type
REMARK                         _______ _______ _______ _____ _____    ______ ____
ROOT
ATOM      1  C1  UNL     1     150.938 155.837 159.010  0.00  0.00    -0.038 C 
ATOM      2  C2  UNL     1     151.269 157.004 158.112  0.00  0.00    -0.024 A 
ATOM      3  C3  UNL     1     151.572 156.712 156.686  0.00  0.00    +0.002 A 
ATOM      4  C4  UNL     1     151.554 155.418 156.144  0.00  0.00    -0.052 A 
ATOM      5  C5  UNL     1     151.853 155.193 154.795  0.00  0.00    -0.061 A 
ATOM      6  C6  UNL     1     152.176 156.262 153.963  0.00  0.00    -0.060 A 
ATOM      7  C7  UNL     1     152.199 157.555 154.480  0.00  0.00    -0.038 A 
ATOM      8  C8  UNL     1     151.899 157.772 155.829  0.00  0.00    +0.049 A 
ATOM      9  N1  UNL     1     151.923 159.076 156.319  0.00  0.00    -0.321 N 
ATOM     10  C9  UNL     1     151.636 159.413 157.618  0.00  0.00    +0.262 A 
ATOM     11  O1  UNL     1     151.647 160.601 157.932  0.00  0.00    -0.267 OA
ATOM     12  C10 UNL     1     151.314 158.288 158.546  0.00  0.00    +0.108 A 
ATOM     13  C11 UNL     1     151.002 158.572 159.977  0.00  0.00    +0.294 C 
ATOM     14  O2  UNL     1     149.829 158.599 160.347  0.00  0.00    -0.266 OA
ATOM     15  N2  UNL     1     152.134 158.719 160.679  0.00  0.00    -0.058 NA
ATOM     16  O3  UNL     1     151.921 158.707 162.108  0.00  0.00    -0.257 OA
ATOM     17  C12 UNL     1     151.762 160.058 162.548  0.00  0.00    +0.078 C 
ATOM     18  C13 UNL     1     151.591 160.070 164.074  0.00  0.00    -0.021 C 
ATOM     19  C14 UNL     1     151.289 161.485 164.565  0.00  0.00    -0.061 C 
ATOM     20  C15 UNL     1     152.831 159.517 164.778  0.00  0.00    -0.061 C 
ATOM     21  H   UNL     1     152.161 159.800 155.696  0.00  0.00    +0.000 HD
ENDROOT
TORSDOF 0
ENDMDL
MODEL 6
REMARK VINA RESULT:    -7.647      1.793      2.786
REMARK INTER + INTRA:          -7.647
REMARK INTER:                  -7.647
REMARK INTRA:                   0.000
REMARK UNBOUND:                 0.000
REMARK  Name = /home/vital/Documents/PhD_2021/Malaria_codes/scripts/../data/pdbqt_ligands/ligand_161_temp.pdb
REMARK                            x       y       z     vdW  Elec       q    Type
REMARK                         _______ _______ _______ _____ _____    ______ ____
ROOT
ATOM      1  C1  UNL     1     150.779 160.500 158.432  0.00  0.00    -0.038 C 
ATOM      2  C2  UNL     1     151.152 159.140 158.971  0.00  0.00    -0.024 A 
ATOM      3  C3  UNL     1     151.095 157.987 158.035  0.00  0.00    +0.002 A 
ATOM      4  C4  UNL     1     150.724 158.108 156.686  0.00  0.00    -0.052 A 
ATOM      5  C5  UNL     1     150.679 156.990 155.845  0.00  0.00    -0.061 A 
ATOM      6  C6  UNL     1     151.005 155.730 156.338  0.00  0.00    -0.060 A 
ATOM      7  C7  UNL     1     151.377 155.587 157.673  0.00  0.00    -0.038 A 
ATOM      8  C8  UNL     1     151.420 156.708 158.508  0.00  0.00    +0.049 A 
ATOM      9  N1  UNL     1     151.802 156.539 159.837  0.00  0.00    -0.321 N 
ATOM     10  C9  UNL     1     151.892 157.564 160.746  0.00  0.00    +0.262 A 
ATOM     11  O1  UNL     1     152.280 157.306 161.883  0.00  0.00    -0.267 OA
ATOM     12  C10 UNL     1     151.520 158.926 160.259  0.00  0.00    +0.108 A 
ATOM     13  C11 UNL     1     151.581 160.090 161.189  0.00  0.00    +0.294 C 
ATOM     14  O2  UNL     1     152.550 160.847 161.150  0.00  0.00    -0.266 OA
ATOM     15  N2  UNL     1     150.471 160.145 161.939  0.00  0.00    -0.058 NA
ATOM     16  O3  UNL     1     150.328 161.393 162.650  0.00  0.00    -0.257 OA
ATOM     17  C12 UNL     1     150.902 161.237 163.950  0.00  0.00    +0.078 C 
ATOM     18  C13 UNL     1     150.708 162.537 164.743  0.00  0.00    -0.021 C 
ATOM     19  C14 UNL     1     151.423 162.452 166.090  0.00  0.00    -0.061 C 
ATOM     20  C15 UNL     1     149.225 162.850 164.947  0.00  0.00    -0.061 C 
ATOM     21  H   UNL     1     152.019 155.630 160.144  0.00  0.00    +0.000 HD
ENDROOT
TORSDOF 0
ENDMDL
MODEL 7
REMARK VINA RESULT:    -7.380      2.811      7.903
REMARK INTER + INTRA:          -7.380
REMARK INTER:                  -7.380
REMARK INTRA:                   0.000
REMARK UNBOUND:                 0.000
REMARK  Name = /home/vital/Documents/PhD_2021/Malaria_codes/scripts/../data/pdbqt_ligands/ligand_161_temp.pdb
REMARK                            x       y       z     vdW  Elec       q    Type
REMARK                         _______ _______ _______ _____ _____    ______ ____
ROOT
ATOM      1  C1  UNL     1     152.273 158.786 164.873  0.00  0.00    -0.038 C 
ATOM      2  C2  UNL     1     151.591 159.972 164.234  0.00  0.00    -0.024 A 
ATOM      3  C3  UNL     1     151.363 161.174 165.077  0.00  0.00    +0.002 A 
ATOM      4  C4  UNL     1     151.758 161.258 166.421  0.00  0.00    -0.052 A 
ATOM      5  C5  UNL     1     151.516 162.411 167.177  0.00  0.00    -0.061 A 
ATOM      6  C6  UNL     1     150.872 163.502 166.600  0.00  0.00    -0.060 A 
ATOM      7  C7  UNL     1     150.471 163.441 165.267  0.00  0.00    -0.038 A 
ATOM      8  C8  UNL     1     150.717 162.286 164.518  0.00  0.00    +0.049 A 
ATOM      9  N1  UNL     1     150.313 162.253 163.185  0.00  0.00    -0.321 N 
ATOM     10  C9  UNL     1     150.510 161.182 162.350  0.00  0.00    +0.262 A 
ATOM     11  O1  UNL     1     150.149 161.278 161.179  0.00  0.00    -0.267 OA
ATOM     12  C10 UNL     1     151.172 159.982 162.944  0.00  0.00    +0.108 A 
ATOM     13  C11 UNL     1     151.410 158.773 162.103  0.00  0.00    +0.294 C 
ATOM     14  O2  UNL     1     152.528 158.578 161.626  0.00  0.00    -0.266 OA
ATOM     15  N2  UNL     1     150.300 158.026 162.036  0.00  0.00    -0.058 NA
ATOM     16  O3  UNL     1     150.533 156.711 161.487  0.00  0.00    -0.257 OA
ATOM     17  C12 UNL     1     150.288 156.762 160.080  0.00  0.00    +0.078 C 
ATOM     18  C13 UNL     1     150.475 155.358 159.488  0.00  0.00    -0.021 C 
ATOM     19  C14 UNL     1     150.348 155.400 157.966  0.00  0.00    -0.061 C 
ATOM     20  C15 UNL     1     149.471 154.366 160.077  0.00  0.00    -0.061 C 
ATOM     21  H   UNL     1     149.858 163.046 162.820  0.00  0.00    +0.000 HD
ENDROOT
TORSDOF 0
ENDMDL
MODEL 8
REMARK VINA RESULT:    -7.226      1.968      2.833
REMARK INTER + INTRA:          -7.226
REMARK INTER:                  -7.226
REMARK INTRA:                   0.000
REMARK UNBOUND:                 0.000
REMARK  Name = /home/vital/Documents/PhD_2021/Malaria_codes/scripts/../data/pdbqt_ligands/ligand_161_temp.pdb
REMARK                            x       y       z     vdW  Elec       q    Type
REMARK                         _______ _______ _______ _____ _____    ______ ____
ROOT
ATOM      1  C1  UNL     1     151.947 156.877 162.211  0.00  0.00    -0.038 C 
ATOM      2  C2  UNL     1     151.397 158.009 161.378  0.00  0.00    -0.024 A 
ATOM      3  C3  UNL     1     151.102 157.733 159.948  0.00  0.00    +0.002 A 
ATOM      4  C4  UNL     1     151.301 156.479 159.348  0.00  0.00    -0.052 A 
ATOM      5  C5  UNL     1     151.013 156.270 157.995  0.00  0.00    -0.061 A 
ATOM      6  C6  UNL     1     150.521 157.313 157.215  0.00  0.00    -0.060 A 
ATOM      7  C7  UNL     1     150.316 158.566 157.789  0.00  0.00    -0.038 A 
ATOM      8  C8  UNL     1     150.605 158.768 159.143  0.00  0.00    +0.049 A 
ATOM      9  N1  UNL     1     150.384 160.028 159.695  0.00  0.00    -0.321 N 
ATOM     10  C9  UNL     1     150.619 160.342 161.010  0.00  0.00    +0.262 A 
ATOM     11  O1  UNL     1     150.349 161.475 161.399  0.00  0.00    -0.267 OA
ATOM     12  C10 UNL     1     151.175 159.254 161.869  0.00  0.00    +0.108 A 
ATOM     13  C11 UNL     1     151.468 159.520 163.307  0.00  0.00    +0.294 C 
ATOM     14  O2  UNL     1     150.667 159.154 164.166  0.00  0.00    -0.266 OA
ATOM     15  N2  UNL     1     152.660 160.119 163.436  0.00  0.00    -0.058 NA
ATOM     16  O3  UNL     1     153.138 160.146 164.798  0.00  0.00    -0.257 OA
ATOM     17  C12 UNL     1     152.728 161.380 165.393  0.00  0.00    +0.078 C 
ATOM     18  C13 UNL     1     153.276 161.452 166.825  0.00  0.00    -0.021 C 
ATOM     19  C14 UNL     1     152.751 162.699 167.535  0.00  0.00    -0.061 C 
ATOM     20  C15 UNL     1     154.806 161.438 166.838  0.00  0.00    -0.061 C 
ATOM     21  H   UNL     1     150.040 160.737 159.105  0.00  0.00    +0.000 HD
ENDROOT
TORSDOF 0
ENDMDL
