MODEL 1
REMARK VINA RESULT:    -8.409      0.000      0.000
REMARK INTER + INTRA:          -8.409
REMARK INTER:                  -8.409
REMARK INTRA:                   0.000
REMARK UNBOUND:                 0.000
REMARK  Name = /home/vital/Documents/PhD_2021/Malaria_codes/scripts/../data/pdbqt_ligands/ligand_377_temp.pdb
REMARK                            x       y       z     vdW  Elec       q    Type
REMARK                         _______ _______ _______ _____ _____    ______ ____
ROOT
ATOM      1  C1  UNL     1     155.660 154.188 147.532  0.00  0.00    -0.082 C 
ATOM      2  C2  UNL     1     155.989 153.264 148.456  0.00  0.00    +0.109 C 
ATOM      3  C3  UNL     1     156.202 153.637 149.873  0.00  0.00    +0.248 C 
ATOM      4  O1  UNL     1     157.064 153.097 150.552  0.00  0.00    -0.270 OA
ATOM      5  N1  UNL     1     155.330 154.582 150.357  0.00  0.00    -0.308 N 
ATOM      6  C4  UNL     1     155.315 154.908 151.761  0.00  0.00    +0.030 C 
ATOM      7  C5  UNL     1     154.513 156.159 151.925  0.00  0.00    -0.068 C 
ATOM      8  C6  UNL     1     153.220 156.261 152.300  0.00  0.00    -0.075 C 
ATOM      9  C7  UNL     1     152.326 155.074 152.544  0.00  0.00    -0.044 C 
ATOM     10  C8  UNL     1     152.570 157.627 152.447  0.00  0.00    -0.029 C 
ATOM     11  C9  UNL     1     152.426 158.109 153.899  0.00  0.00    -0.031 C 
ATOM     12  C10 UNL     1     151.261 157.494 154.628  0.00  0.00    -0.085 C 
ATOM     13  C11 UNL     1     151.283 156.726 155.735  0.00  0.00    -0.080 C 
ATOM     14  C12 UNL     1     152.522 156.285 156.464  0.00  0.00    -0.044 C 
ATOM     15  C13 UNL     1     149.999 156.221 156.342  0.00  0.00    -0.044 C 
ATOM     16  C14 UNL     1     156.206 151.813 148.195  0.00  0.00    +0.422 C 
ATOM     17  F1  UNL     1     157.502 151.432 148.315  0.00  0.00    -0.166 F 
ATOM     18  F2  UNL     1     155.835 151.478 146.925  0.00  0.00    -0.166 F 
ATOM     19  F3  UNL     1     155.465 151.023 149.014  0.00  0.00    -0.166 F 
ATOM     20  H   UNL     1     154.712 155.039 149.742  0.00  0.00    +0.000 HD
ENDROOT
TORSDOF 0
ENDMDL
MODEL 2
REMARK VINA RESULT:    -7.288     10.592     13.692
REMARK INTER + INTRA:          -7.288
REMARK INTER:                  -7.288
REMARK INTRA:                   0.000
REMARK UNBOUND:                 0.000
REMARK  Name = /home/vital/Documents/PhD_2021/Malaria_codes/scripts/../data/pdbqt_ligands/ligand_377_temp.pdb
REMARK                            x       y       z     vdW  Elec       q    Type
REMARK                         _______ _______ _______ _____ _____    ______ ____
ROOT
ATOM      1  C1  UNL     1     151.095 161.779 164.750  0.00  0.00    -0.082 C 
ATOM      2  C2  UNL     1     151.998 160.790 164.899  0.00  0.00    +0.109 C 
ATOM      3  C3  UNL     1     151.831 159.489 164.213  0.00  0.00    +0.248 C 
ATOM      4  O1  UNL     1     152.154 158.438 164.749  0.00  0.00    -0.270 OA
ATOM      5  N1  UNL     1     151.343 159.571 162.931  0.00  0.00    -0.308 N 
ATOM      6  C4  UNL     1     151.295 158.400 162.093  0.00  0.00    +0.030 C 
ATOM      7  C5  UNL     1     150.444 158.728 160.908  0.00  0.00    -0.068 C 
ATOM      8  C6  UNL     1     150.858 159.097 159.677  0.00  0.00    -0.075 C 
ATOM      9  C7  UNL     1     152.303 159.323 159.317  0.00  0.00    -0.044 C 
ATOM     10  C8  UNL     1     149.846 159.362 158.575  0.00  0.00    -0.029 C 
ATOM     11  C9  UNL     1     149.706 158.224 157.553  0.00  0.00    -0.031 C 
ATOM     12  C10 UNL     1     150.802 158.201 156.520  0.00  0.00    -0.085 C 
ATOM     13  C11 UNL     1     151.698 157.224 156.278  0.00  0.00    -0.080 C 
ATOM     14  C12 UNL     1     151.810 155.936 157.045  0.00  0.00    -0.044 C 
ATOM     15  C13 UNL     1     152.711 157.372 155.171  0.00  0.00    -0.044 C 
ATOM     16  C14 UNL     1     153.218 160.847 165.754  0.00  0.00    +0.422 C 
ATOM     17  F1  UNL     1     153.146 160.047 166.847  0.00  0.00    -0.166 F 
ATOM     18  F2  UNL     1     153.429 162.108 166.229  0.00  0.00    -0.166 F 
ATOM     19  F3  UNL     1     154.344 160.517 165.072  0.00  0.00    -0.166 F 
ATOM     20  H   UNL     1     151.024 160.435 162.583  0.00  0.00    +0.000 HD
ENDROOT
TORSDOF 0
ENDMDL
MODEL 3
REMARK VINA RESULT:    -7.271      7.391     10.405
REMARK INTER + INTRA:          -7.271
REMARK INTER:                  -7.271
REMARK INTRA:                   0.000
REMARK UNBOUND:                 0.000
REMARK  Name = /home/vital/Documents/PhD_2021/Malaria_codes/scripts/../data/pdbqt_ligands/ligand_377_temp.pdb
REMARK                            x       y       z     vdW  Elec       q    Type
REMARK                         _______ _______ _______ _____ _____    ______ ____
ROOT
ATOM      1  C1  UNL     1     151.298 158.284 161.455  0.00  0.00    -0.082 C 
ATOM      2  C2  UNL     1     151.150 156.951 161.326  0.00  0.00    +0.109 C 
ATOM      3  C3  UNL     1     150.554 156.359 160.108  0.00  0.00    +0.248 C 
ATOM      4  O1  UNL     1     149.829 155.376 160.165  0.00  0.00    -0.270 OA
ATOM      5  N1  UNL     1     150.923 156.966 158.932  0.00  0.00    -0.308 N 
ATOM      6  C4  UNL     1     150.555 156.386 157.666  0.00  0.00    +0.030 C 
ATOM      7  C5  UNL     1     150.813 157.411 156.608  0.00  0.00    -0.068 C 
ATOM      8  C6  UNL     1     151.888 157.501 155.797  0.00  0.00    -0.075 C 
ATOM      9  C7  UNL     1     153.082 156.588 155.891  0.00  0.00    -0.044 C 
ATOM     10  C8  UNL     1     151.968 158.598 154.748  0.00  0.00    -0.029 C 
ATOM     11  C9  UNL     1     151.653 158.136 153.318  0.00  0.00    -0.031 C 
ATOM     12  C10 UNL     1     152.800 157.430 152.644  0.00  0.00    -0.085 C 
ATOM     13  C11 UNL     1     152.843 156.164 152.181  0.00  0.00    -0.080 C 
ATOM     14  C12 UNL     1     151.728 155.161 152.286  0.00  0.00    -0.044 C 
ATOM     15  C13 UNL     1     154.082 155.639 151.503  0.00  0.00    -0.044 C 
ATOM     16  C14 UNL     1     151.518 155.933 162.351  0.00  0.00    +0.422 C 
ATOM     17  F1  UNL     1     150.445 155.330 162.920  0.00  0.00    -0.166 F 
ATOM     18  F2  UNL     1     152.218 156.495 163.379  0.00  0.00    -0.166 F 
ATOM     19  F3  UNL     1     152.322 154.960 161.849  0.00  0.00    -0.166 F 
ATOM     20  H   UNL     1     151.443 157.802 158.955  0.00  0.00    +0.000 HD
ENDROOT
TORSDOF 0
ENDMDL
MODEL 4
REMARK VINA RESULT:    -7.005      9.685     12.928
REMARK INTER + INTRA:          -7.005
REMARK INTER:                  -7.005
REMARK INTRA:                   0.000
REMARK UNBOUND:                 0.000
REMARK  Name = /home/vital/Documents/PhD_2021/Malaria_codes/scripts/../data/pdbqt_ligands/ligand_377_temp.pdb
REMARK                            x       y       z     vdW  Elec       q    Type
REMARK                         _______ _______ _______ _____ _____    ______ ____
ROOT
ATOM      1  C1  UNL     1     150.262 154.551 165.604  0.00  0.00    -0.082 C 
ATOM      2  C2  UNL     1     149.904 153.418 164.969  0.00  0.00    +0.109 C 
ATOM      3  C3  UNL     1     149.196 153.457 163.670  0.00  0.00    +0.248 C 
ATOM      4  O1  UNL     1     148.326 152.644 163.391  0.00  0.00    -0.270 OA
ATOM      5  N1  UNL     1     149.631 154.433 162.805  0.00  0.00    -0.308 N 
ATOM      6  C4  UNL     1     149.149 154.472 161.448  0.00  0.00    +0.030 C 
ATOM      7  C5  UNL     1     149.542 155.793 160.868  0.00  0.00    -0.068 C 
ATOM      8  C6  UNL     1     150.601 156.057 160.073  0.00  0.00    -0.075 C 
ATOM      9  C7  UNL     1     151.638 155.032 159.697  0.00  0.00    -0.044 C 
ATOM     10  C8  UNL     1     150.830 157.463 159.544  0.00  0.00    -0.029 C 
ATOM     11  C9  UNL     1     150.416 157.668 158.079  0.00  0.00    -0.031 C 
ATOM     12  C10 UNL     1     151.423 157.147 157.088  0.00  0.00    -0.085 C 
ATOM     13  C11 UNL     1     151.256 156.185 156.158  0.00  0.00    -0.080 C 
ATOM     14  C12 UNL     1     150.000 155.387 155.947  0.00  0.00    -0.044 C 
ATOM     15  C13 UNL     1     152.383 155.818 155.227  0.00  0.00    -0.044 C 
ATOM     16  C14 UNL     1     150.129 152.032 165.470  0.00  0.00    +0.422 C 
ATOM     17  F1  UNL     1     148.986 151.401 165.839  0.00  0.00    -0.166 F 
ATOM     18  F2  UNL     1     150.929 152.029 166.574  0.00  0.00    -0.166 F 
ATOM     19  F3  UNL     1     150.758 151.247 164.558  0.00  0.00    -0.166 F 
ATOM     20  H   UNL     1     150.276 155.109 163.115  0.00  0.00    +0.000 HD
ENDROOT
TORSDOF 0
ENDMDL
MODEL 5
REMARK VINA RESULT:    -6.978     11.686     14.770
REMARK INTER + INTRA:          -6.978
REMARK INTER:                  -6.978
REMARK INTRA:                   0.000
REMARK UNBOUND:                 0.000
REMARK  Name = /home/vital/Documents/PhD_2021/Malaria_codes/scripts/../data/pdbqt_ligands/ligand_377_temp.pdb
REMARK                            x       y       z     vdW  Elec       q    Type
REMARK                         _______ _______ _______ _____ _____    ______ ____
ROOT
ATOM      1  C1  UNL     1     153.408 161.479 166.182  0.00  0.00    -0.082 C 
ATOM      2  C2  UNL     1     152.438 160.553 166.317  0.00  0.00    +0.109 C 
ATOM      3  C3  UNL     1     151.306 160.483 165.366  0.00  0.00    +0.248 C 
ATOM      4  O1  UNL     1     150.177 160.197 165.738  0.00  0.00    -0.270 OA
ATOM      5  N1  UNL     1     151.641 160.711 164.053  0.00  0.00    -0.308 N 
ATOM      6  C4  UNL     1     150.672 160.504 163.008  0.00  0.00    +0.030 C 
ATOM      7  C5  UNL     1     151.215 161.124 161.760  0.00  0.00    -0.068 C 
ATOM      8  C6  UNL     1     151.848 160.501 160.743  0.00  0.00    -0.075 C 
ATOM      9  C7  UNL     1     152.188 159.034 160.746  0.00  0.00    -0.044 C 
ATOM     10  C8  UNL     1     152.307 161.290 159.528  0.00  0.00    -0.029 C 
ATOM     11  C9  UNL     1     151.406 161.139 158.293  0.00  0.00    -0.031 C 
ATOM     12  C10 UNL     1     151.635 159.861 157.530  0.00  0.00    -0.085 C 
ATOM     13  C11 UNL     1     150.758 158.864 157.293  0.00  0.00    -0.080 C 
ATOM     14  C12 UNL     1     149.341 158.813 157.793  0.00  0.00    -0.044 C 
ATOM     15  C13 UNL     1     151.166 157.665 156.476  0.00  0.00    -0.044 C 
ATOM     16  C14 UNL     1     152.352 159.536 167.404  0.00  0.00    +0.422 C 
ATOM     17  F1  UNL     1     151.338 159.765 168.275  0.00  0.00    -0.166 F 
ATOM     18  F2  UNL     1     153.491 159.517 168.155  0.00  0.00    -0.166 F 
ATOM     19  F3  UNL     1     152.208 158.275 166.923  0.00  0.00    -0.166 F 
ATOM     20  H   UNL     1     152.549 161.017 163.826  0.00  0.00    +0.000 HD
ENDROOT
TORSDOF 0
ENDMDL
MODEL 6
REMARK VINA RESULT:    -6.596     11.400     14.208
REMARK INTER + INTRA:          -6.596
REMARK INTER:                  -6.596
REMARK INTRA:                   0.000
REMARK UNBOUND:                 0.000
REMARK  Name = /home/vital/Documents/PhD_2021/Malaria_codes/scripts/../data/pdbqt_ligands/ligand_377_temp.pdb
REMARK                            x       y       z     vdW  Elec       q    Type
REMARK                         _______ _______ _______ _____ _____    ______ ____
ROOT
ATOM      1  C1  UNL     1     149.283 159.542 159.943  0.00  0.00    -0.082 C 
ATOM      2  C2  UNL     1     150.617 159.447 160.107  0.00  0.00    +0.109 C 
ATOM      3  C3  UNL     1     151.368 160.457 160.886  0.00  0.00    +0.248 C 
ATOM      4  O1  UNL     1     152.491 160.812 160.557  0.00  0.00    -0.270 OA
ATOM      5  N1  UNL     1     150.727 160.909 162.015  0.00  0.00    -0.308 N 
ATOM      6  C4  UNL     1     151.415 161.760 162.952  0.00  0.00    +0.030 C 
ATOM      7  C5  UNL     1     150.390 162.329 163.881  0.00  0.00    -0.068 C 
ATOM      8  C6  UNL     1     150.076 161.897 165.120  0.00  0.00    -0.075 C 
ATOM      9  C7  UNL     1     150.681 160.673 165.755  0.00  0.00    -0.044 C 
ATOM     10  C8  UNL     1     149.022 162.622 165.941  0.00  0.00    -0.029 C 
ATOM     11  C9  UNL     1     149.588 163.542 167.033  0.00  0.00    -0.031 C 
ATOM     12  C10 UNL     1     150.027 162.808 168.273  0.00  0.00    -0.085 C 
ATOM     13  C11 UNL     1     151.261 162.749 168.813  0.00  0.00    -0.080 C 
ATOM     14  C12 UNL     1     152.493 163.394 168.242  0.00  0.00    -0.044 C 
ATOM     15  C13 UNL     1     151.501 161.981 170.088  0.00  0.00    -0.044 C 
ATOM     16  C14 UNL     1     151.490 158.384 159.533  0.00  0.00    +0.422 C 
ATOM     17  F1  UNL     1     152.309 158.834 158.551  0.00  0.00    -0.166 F 
ATOM     18  F2  UNL     1     150.749 157.385 158.973  0.00  0.00    -0.166 F 
ATOM     19  F3  UNL     1     152.263 157.785 160.475  0.00  0.00    -0.166 F 
ATOM     20  H   UNL     1     149.793 160.649 162.184  0.00  0.00    +0.000 HD
ENDROOT
TORSDOF 0
ENDMDL
MODEL 7
REMARK VINA RESULT:    -6.581     12.422     15.582
REMARK INTER + INTRA:          -6.581
REMARK INTER:                  -6.581
REMARK INTRA:                   0.000
REMARK UNBOUND:                 0.000
REMARK  Name = /home/vital/Documents/PhD_2021/Malaria_codes/scripts/../data/pdbqt_ligands/ligand_377_temp.pdb
REMARK                            x       y       z     vdW  Elec       q    Type
REMARK                         _______ _______ _______ _____ _____    ______ ____
ROOT
ATOM      1  C1  UNL     1     151.704 162.804 166.222  0.00  0.00    -0.082 C 
ATOM      2  C2  UNL     1     150.471 162.264 166.182  0.00  0.00    +0.109 C 
ATOM      3  C3  UNL     1     149.704 162.192 164.918  0.00  0.00    +0.248 C 
ATOM      4  O1  UNL     1     148.491 162.351 164.897  0.00  0.00    -0.270 OA
ATOM      5  N1  UNL     1     150.452 161.885 163.807  0.00  0.00    -0.308 N 
ATOM      6  C4  UNL     1     149.807 161.614 162.547  0.00  0.00    +0.030 C 
ATOM      7  C5  UNL     1     150.863 161.629 161.488  0.00  0.00    -0.068 C 
ATOM      8  C6  UNL     1     151.488 160.566 160.938  0.00  0.00    -0.075 C 
ATOM      9  C7  UNL     1     151.263 159.145 161.382  0.00  0.00    -0.044 C 
ATOM     10  C8  UNL     1     152.520 160.767 159.841  0.00  0.00    -0.029 C 
ATOM     11  C9  UNL     1     152.010 160.468 158.424  0.00  0.00    -0.031 C 
ATOM     12  C10 UNL     1     151.968 159.000 158.094  0.00  0.00    -0.085 C 
ATOM     13  C11 UNL     1     150.896 158.249 157.767  0.00  0.00    -0.080 C 
ATOM     14  C12 UNL     1     149.476 158.740 157.705  0.00  0.00    -0.044 C 
ATOM     15  C13 UNL     1     151.058 156.788 157.437  0.00  0.00    -0.044 C 
ATOM     16  C14 UNL     1     149.724 161.715 167.350  0.00  0.00    +0.422 C 
ATOM     17  F1  UNL     1     148.659 162.474 167.713  0.00  0.00    -0.166 F 
ATOM     18  F2  UNL     1     150.520 161.640 168.456  0.00  0.00    -0.166 F 
ATOM     19  F3  UNL     1     149.277 160.452 167.133  0.00  0.00    -0.166 F 
ATOM     20  H   UNL     1     151.433 161.849 163.873  0.00  0.00    +0.000 HD
ENDROOT
TORSDOF 0
ENDMDL
MODEL 8
REMARK VINA RESULT:    -6.573      9.640     12.232
REMARK INTER + INTRA:          -6.573
REMARK INTER:                  -6.573
REMARK INTRA:                   0.000
REMARK UNBOUND:                 0.000
REMARK  Name = /home/vital/Documents/PhD_2021/Malaria_codes/scripts/../data/pdbqt_ligands/ligand_377_temp.pdb
REMARK                            x       y       z     vdW  Elec       q    Type
REMARK                         _______ _______ _______ _____ _____    ______ ____
ROOT
ATOM      1  C1  UNL     1     152.427 159.827 157.806  0.00  0.00    -0.082 C 
ATOM      2  C2  UNL     1     151.601 158.842 158.208  0.00  0.00    +0.109 C 
ATOM      3  C3  UNL     1     151.526 158.435 159.629  0.00  0.00    +0.248 C 
ATOM      4  O1  UNL     1     151.371 157.265 159.951  0.00  0.00    -0.270 OA
ATOM      5  N1  UNL     1     151.592 159.470 160.530  0.00  0.00    -0.308 N 
ATOM      6  C4  UNL     1     151.359 159.232 161.932  0.00  0.00    +0.030 C 
ATOM      7  C5  UNL     1     151.803 160.451 162.676  0.00  0.00    -0.068 C 
ATOM      8  C6  UNL     1     151.031 161.461 163.132  0.00  0.00    -0.075 C 
ATOM      9  C7  UNL     1     149.550 161.557 162.880  0.00  0.00    -0.044 C 
ATOM     10  C8  UNL     1     151.654 162.613 163.903  0.00  0.00    -0.029 C 
ATOM     11  C9  UNL     1     151.451 162.543 165.424  0.00  0.00    -0.031 C 
ATOM     12  C10 UNL     1     150.088 162.999 165.874  0.00  0.00    -0.085 C 
ATOM     13  C11 UNL     1     149.146 162.289 166.527  0.00  0.00    -0.080 C 
ATOM     14  C12 UNL     1     149.260 160.841 166.915  0.00  0.00    -0.044 C 
ATOM     15  C13 UNL     1     147.842 162.932 166.923  0.00  0.00    -0.044 C 
ATOM     16  C14 UNL     1     150.709 158.039 157.323  0.00  0.00    +0.422 C 
ATOM     17  F1  UNL     1     151.106 156.749 157.188  0.00  0.00    -0.166 F 
ATOM     18  F2  UNL     1     150.675 158.553 156.059  0.00  0.00    -0.166 F 
ATOM     19  F3  UNL     1     149.422 158.034 157.752  0.00  0.00    -0.166 F 
ATOM     20  H   UNL     1     151.799 160.380 160.216  0.00  0.00    +0.000 HD
ENDROOT
TORSDOF 0
ENDMDL
MODEL 9
REMARK VINA RESULT:    -6.522     14.439     15.939
REMARK INTER + INTRA:          -6.522
REMARK INTER:                  -6.522
REMARK INTRA:                   0.000
REMARK UNBOUND:                 0.000
REMARK  Name = /home/vital/Documents/PhD_2021/Malaria_codes/scripts/../data/pdbqt_ligands/ligand_377_temp.pdb
REMARK                            x       y       z     vdW  Elec       q    Type
REMARK                         _______ _______ _______ _____ _____    ______ ____
ROOT
ATOM      1  C1  UNL     1     150.343 153.729 164.002  0.00  0.00    -0.082 C 
ATOM      2  C2  UNL     1     150.382 153.604 165.343  0.00  0.00    +0.109 C 
ATOM      3  C3  UNL     1     151.369 154.351 166.155  0.00  0.00    +0.248 C 
ATOM      4  O1  UNL     1     151.888 153.855 167.145  0.00  0.00    -0.270 OA
ATOM      5  N1  UNL     1     151.604 155.639 165.736  0.00  0.00    -0.308 N 
ATOM      6  C4  UNL     1     152.408 156.529 166.534  0.00  0.00    +0.030 C 
ATOM      7  C5  UNL     1     152.739 157.717 165.689  0.00  0.00    -0.068 C 
ATOM      8  C6  UNL     1     152.127 158.920 165.689  0.00  0.00    -0.075 C 
ATOM      9  C7  UNL     1     150.912 159.238 166.521  0.00  0.00    -0.044 C 
ATOM     10  C8  UNL     1     152.622 160.032 164.779  0.00  0.00    -0.029 C 
ATOM     11  C9  UNL     1     153.461 161.107 165.486  0.00  0.00    -0.031 C 
ATOM     12  C10 UNL     1     152.638 162.115 166.244  0.00  0.00    -0.085 C 
ATOM     13  C11 UNL     1     152.655 162.380 167.566  0.00  0.00    -0.080 C 
ATOM     14  C12 UNL     1     153.501 161.669 168.585  0.00  0.00    -0.044 C 
ATOM     15  C13 UNL     1     151.771 163.455 168.142  0.00  0.00    -0.044 C 
ATOM     16  C14 UNL     1     149.503 152.720 166.160  0.00  0.00    +0.422 C 
ATOM     17  F1  UNL     1     150.159 151.666 166.705  0.00  0.00    -0.166 F 
ATOM     18  F2  UNL     1     148.501 152.184 165.405  0.00  0.00    -0.166 F 
ATOM     19  F3  UNL     1     148.886 153.389 167.167  0.00  0.00    -0.166 F 
ATOM     20  H   UNL     1     151.220 155.955 164.886  0.00  0.00    +0.000 HD
ENDROOT
TORSDOF 0
ENDMDL
