MODEL 1
REMARK VINA RESULT:    -5.049      0.000      0.000
REMARK INTER + INTRA:          -7.408
REMARK INTER:                  -6.230
REMARK INTRA:                  -1.179
REMARK UNBOUND:                -1.179
REMARK  Name = /home/vital/Documents/PhD_2021/Malaria_codes/data/pdb_ligands_mmv/ligand_248.pdb
REMARK  7 active torsions:
REMARK  status: ('A' for Active; 'I' for Inactive)
REMARK    1  A    between atoms: C1_1  and  C2_2
REMARK    2  A    between atoms: C2_2  and  C3_3
REMARK    3  A    between atoms: C2_2  and  C4_4
REMARK    4  A    between atoms: C2_2  and  C5_5
REMARK    5  A    between atoms: C8_8  and  C11_11
REMARK    6  A    between atoms: N1_13  and  C12_14
REMARK    7  A    between atoms: N3_21  and  C17_22
REMARK                            x       y       z     vdW  Elec       q    Type
REMARK                         _______ _______ _______ _____ _____    ______ ____
ROOT
ATOM      1  C12 UNL     1     143.080 127.422 102.337  0.00  0.00    +0.133 A 
ATOM      2  C13 UNL     1     144.280 127.784 102.905  0.00  0.00    +0.026 A 
ATOM      3  C14 UNL     1     145.116 127.339 104.030  0.00  0.00    +0.110 C 
ATOM      4  S1  UNL     1     146.666 128.348 103.885  0.00  0.00    -0.150 S 
ATOM      5  C15 UNL     1     146.173 129.261 102.336  0.00  0.00    +0.127 C 
ATOM      6  C16 UNL     1     144.819 128.746 102.051  0.00  0.00    +0.079 A 
ATOM      7  N2  UNL     1     144.029 129.047 101.027  0.00  0.00    -0.168 NA
ATOM      8  N3  UNL     1     142.872 128.348 101.290  0.00  0.00    -0.218 N 
ENDROOT
BRANCH   8   9
ATOM      9  C17 UNL     1     141.665 128.768 100.653  0.00  0.00    +0.069 A 
ATOM     10  C18 UNL     1     141.173 130.060 100.905  0.00  0.00    +0.028 A 
ATOM     11  C19 UNL     1     139.983 130.491 100.312  0.00  0.00    +0.003 A 
ATOM     12  C20 UNL     1     139.270 129.633  99.477  0.00  0.00    +0.020 A 
ATOM     13  C21 UNL     1     139.744 128.343  99.247  0.00  0.00    +0.043 A 
ATOM     14 CL1  UNL     1     138.849 127.273  98.237  0.00  0.00    -0.083 Cl
ATOM     15  C22 UNL     1     140.931 127.901  99.836  0.00  0.00    +0.047 A 
ENDBRANCH   8   9
BRANCH   1  18
ATOM     16  C11 UNL     1     141.431 126.459 103.826  0.00  0.00    +0.249 C 
ATOM     17  O1  UNL     1     141.305 127.448 104.540  0.00  0.00    -0.270 OA
ATOM     18  N1  UNL     1     142.272 126.359 102.726  0.00  0.00    -0.266 N 
ATOM     19  H14 UNL     1     141.981 125.714 102.001  0.00  0.00    +0.157 HD
BRANCH  16  23
ATOM     20  C5  UNL     1     138.898 123.039 104.607  0.00  0.00    -0.042 A 
ATOM     21  C6  UNL     1     140.066 122.910 103.830  0.00  0.00    +0.005 A 
ATOM     22  C7  UNL     1     140.899 124.005 103.568  0.00  0.00    +0.013 A 
ATOM     23  C8  UNL     1     140.575 125.265 104.075  0.00  0.00    +0.037 A 
ATOM     24  C9  UNL     1     139.432 125.411 104.864  0.00  0.00    +0.013 A 
ATOM     25  C10 UNL     1     138.603 124.313 105.121  0.00  0.00    +0.005 A 
BRANCH  20  27
ATOM     26  C1  UNL     1     137.202 121.465 103.607  0.00  0.00    +0.015 C 
ATOM     27  C2  UNL     1     138.010 121.810 104.875  0.00  0.00    -0.013 C 
ATOM     28  C3  UNL     1     136.993 122.011 106.022  0.00  0.00    +0.015 C 
ATOM     29  C4  UNL     1     138.896 120.605 105.256  0.00  0.00    +0.015 C 
ENDBRANCH  20  27
ENDBRANCH  16  23
ENDBRANCH   1  18
TORSDOF 4
ENDMDL
MODEL 2
REMARK VINA RESULT:    -5.049      4.307      5.753
REMARK INTER + INTRA:          -7.408
REMARK INTER:                  -6.187
REMARK INTRA:                  -1.222
REMARK UNBOUND:                -1.179
REMARK  Name = /home/vital/Documents/PhD_2021/Malaria_codes/data/pdb_ligands_mmv/ligand_248.pdb
REMARK  7 active torsions:
REMARK  status: ('A' for Active; 'I' for Inactive)
REMARK    1  A    between atoms: C1_1  and  C2_2
REMARK    2  A    between atoms: C2_2  and  C3_3
REMARK    3  A    between atoms: C2_2  and  C4_4
REMARK    4  A    between atoms: C2_2  and  C5_5
REMARK    5  A    between atoms: C8_8  and  C11_11
REMARK    6  A    between atoms: N1_13  and  C12_14
REMARK    7  A    between atoms: N3_21  and  C17_22
REMARK                            x       y       z     vdW  Elec       q    Type
REMARK                         _______ _______ _______ _____ _____    ______ ____
ROOT
ATOM      1  C12 UNL     1     143.375 130.206  99.437  0.00  0.00    +0.133 A 
ATOM      2  C13 UNL     1     144.058 131.254  98.863  0.00  0.00    +0.026 A 
ATOM      3  C14 UNL     1     145.346 131.936  99.064  0.00  0.00    +0.110 C 
ATOM      4  S1  UNL     1     145.460 133.136  97.653  0.00  0.00    -0.150 S 
ATOM      5  C15 UNL     1     143.853 132.652  96.841  0.00  0.00    +0.127 C 
ATOM      6  C16 UNL     1     143.314 131.612  97.739  0.00  0.00    +0.079 A 
ATOM      7  N2  UNL     1     142.199 130.905  97.597  0.00  0.00    -0.168 NA
ATOM      8  N3  UNL     1     142.146 130.142  98.742  0.00  0.00    -0.218 N 
ENDROOT
BRANCH   8   9
ATOM      9  C17 UNL     1     140.886 129.599  99.138  0.00  0.00    +0.069 A 
ATOM     10  C18 UNL     1     140.286 130.057 100.323  0.00  0.00    +0.028 A 
ATOM     11  C19 UNL     1     139.064 129.528 100.746  0.00  0.00    +0.003 A 
ATOM     12  C20 UNL     1     138.440 128.530  99.999  0.00  0.00    +0.020 A 
ATOM     13  C21 UNL     1     139.048 128.058  98.837  0.00  0.00    +0.043 A 
ATOM     14 CL1  UNL     1     138.291 126.805  97.929  0.00  0.00    -0.083 Cl
ATOM     15  C22 UNL     1     140.270 128.578  98.406  0.00  0.00    +0.047 A 
ENDBRANCH   8   9
BRANCH   1  18
ATOM     16  C11 UNL     1     143.683 129.772 101.799  0.00  0.00    +0.249 C 
ATOM     17  O1  UNL     1     143.160 130.809 102.192  0.00  0.00    -0.270 OA
ATOM     18  N1  UNL     1     143.828 129.394 100.470  0.00  0.00    -0.266 N 
ATOM     19  H14 UNL     1     143.857 128.397 100.293  0.00  0.00    +0.157 HD
BRANCH  16  23
ATOM     20  C5  UNL     1     145.125 126.866 104.662  0.00  0.00    -0.042 A 
ATOM     21  C6  UNL     1     143.743 127.063 104.465  0.00  0.00    +0.005 A 
ATOM     22  C7  UNL     1     143.258 127.997 103.542  0.00  0.00    +0.013 A 
ATOM     23  C8  UNL     1     144.151 128.768 102.794  0.00  0.00    +0.037 A 
ATOM     24  C9  UNL     1     145.523 128.575 102.960  0.00  0.00    +0.013 A 
ATOM     25  C10 UNL     1     146.003 127.640 103.885  0.00  0.00    +0.005 A 
BRANCH  20  27
ATOM     26  C1  UNL     1     146.530 126.510 106.724  0.00  0.00    +0.015 C 
ATOM     27  C2  UNL     1     145.618 125.826 105.684  0.00  0.00    -0.013 C 
ATOM     28  C3  UNL     1     146.431 124.670 105.057  0.00  0.00    +0.015 C 
ATOM     29  C4  UNL     1     144.408 125.195 106.406  0.00  0.00    +0.015 C 
ENDBRANCH  20  27
ENDBRANCH  16  23
ENDBRANCH   1  18
TORSDOF 4
ENDMDL
MODEL 3
REMARK VINA RESULT:    -4.908      1.188      1.492
REMARK INTER + INTRA:          -7.235
REMARK INTER:                  -5.989
REMARK INTRA:                  -1.246
REMARK UNBOUND:                -1.179
REMARK  Name = /home/vital/Documents/PhD_2021/Malaria_codes/data/pdb_ligands_mmv/ligand_248.pdb
REMARK  7 active torsions:
REMARK  status: ('A' for Active; 'I' for Inactive)
REMARK    1  A    between atoms: C1_1  and  C2_2
REMARK    2  A    between atoms: C2_2  and  C3_3
REMARK    3  A    between atoms: C2_2  and  C4_4
REMARK    4  A    between atoms: C2_2  and  C5_5
REMARK    5  A    between atoms: C8_8  and  C11_11
REMARK    6  A    between atoms: N1_13  and  C12_14
REMARK    7  A    between atoms: N3_21  and  C17_22
REMARK                            x       y       z     vdW  Elec       q    Type
REMARK                         _______ _______ _______ _____ _____    ______ ____
ROOT
ATOM      1  C12 UNL     1     142.810 126.987 101.847  0.00  0.00    +0.133 A 
ATOM      2  C13 UNL     1     144.101 127.426 102.030  0.00  0.00    +0.026 A 
ATOM      3  C14 UNL     1     145.200 127.174 102.975  0.00  0.00    +0.110 C 
ATOM      4  S1  UNL     1     146.638 128.117 102.278  0.00  0.00    -0.150 S 
ATOM      5  C15 UNL     1     145.754 128.748 100.762  0.00  0.00    +0.127 C 
ATOM      6  C16 UNL     1     144.387 128.212 100.913  0.00  0.00    +0.079 A 
ATOM      7  N2  UNL     1     143.362 128.338 100.079  0.00  0.00    -0.168 NA
ATOM      8  N3  UNL     1     142.325 127.715 100.738  0.00  0.00    -0.218 N 
ENDROOT
BRANCH   8   9
ATOM      9  C17 UNL     1     140.988 128.034 100.352  0.00  0.00    +0.069 A 
ATOM     10  C18 UNL     1     140.164 128.727 101.254  0.00  0.00    +0.028 A 
ATOM     11  C19 UNL     1     138.844 129.035 100.913  0.00  0.00    +0.003 A 
ATOM     12  C20 UNL     1     138.334 128.639  99.677  0.00  0.00    +0.020 A 
ATOM     13  C21 UNL     1     139.143 127.929  98.793  0.00  0.00    +0.043 A 
ATOM     14 CL1  UNL     1     138.505 127.417  97.278  0.00  0.00    -0.083 Cl
ATOM     15  C22 UNL     1     140.462 127.616  99.125  0.00  0.00    +0.047 A 
ENDBRANCH   8   9
BRANCH   1  18
ATOM     16  C11 UNL     1     141.508 126.353 103.788  0.00  0.00    +0.249 C 
ATOM     17  O1  UNL     1     141.443 127.476 104.275  0.00  0.00    -0.270 OA
ATOM     18  N1  UNL     1     142.153 126.023 102.603  0.00  0.00    -0.266 N 
ATOM     19  H14 UNL     1     141.784 125.221 102.106  0.00  0.00    +0.157 HD
BRANCH  16  23
ATOM     20  C5  UNL     1     139.404 123.138 105.777  0.00  0.00    -0.042 A 
ATOM     21  C6  UNL     1     140.090 122.912 104.567  0.00  0.00    +0.005 A 
ATOM     22  C7  UNL     1     140.778 123.940 103.910  0.00  0.00    +0.013 A 
ATOM     23  C8  UNL     1     140.789 125.228 104.449  0.00  0.00    +0.037 A 
ATOM     24  C9  UNL     1     140.132 125.469 105.657  0.00  0.00    +0.013 A 
ATOM     25  C10 UNL     1     139.444 124.438 106.309  0.00  0.00    +0.005 A 
BRANCH  20  27
ATOM     26  C1  UNL     1     139.661 120.856 106.817  0.00  0.00    +0.015 C 
ATOM     27  C2  UNL     1     138.662 121.980 106.471  0.00  0.00    -0.013 C 
ATOM     28  C3  UNL     1     137.547 121.348 105.608  0.00  0.00    +0.015 C 
ATOM     29  C4  UNL     1     138.002 122.492 107.769  0.00  0.00    +0.015 C 
ENDBRANCH  20  27
ENDBRANCH  16  23
ENDBRANCH   1  18
TORSDOF 4
ENDMDL
MODEL 4
REMARK VINA RESULT:    -4.900      2.979      3.555
REMARK INTER + INTRA:          -7.224
REMARK INTER:                  -6.137
REMARK INTRA:                  -1.087
REMARK UNBOUND:                -1.179
REMARK  Name = /home/vital/Documents/PhD_2021/Malaria_codes/data/pdb_ligands_mmv/ligand_248.pdb
REMARK  7 active torsions:
REMARK  status: ('A' for Active; 'I' for Inactive)
REMARK    1  A    between atoms: C1_1  and  C2_2
REMARK    2  A    between atoms: C2_2  and  C3_3
REMARK    3  A    between atoms: C2_2  and  C4_4
REMARK    4  A    between atoms: C2_2  and  C5_5
REMARK    5  A    between atoms: C8_8  and  C11_11
REMARK    6  A    between atoms: N1_13  and  C12_14
REMARK    7  A    between atoms: N3_21  and  C17_22
REMARK                            x       y       z     vdW  Elec       q    Type
REMARK                         _______ _______ _______ _____ _____    ______ ____
ROOT
ATOM      1  C12 UNL     1     143.414 128.730 101.599  0.00  0.00    +0.133 A 
ATOM      2  C13 UNL     1     144.585 129.375 101.275  0.00  0.00    +0.026 A 
ATOM      3  C14 UNL     1     145.848 129.715 101.949  0.00  0.00    +0.110 C 
ATOM      4  S1  UNL     1     146.908 130.441 100.609  0.00  0.00    -0.150 S 
ATOM      5  C15 UNL     1     145.676 130.215  99.228  0.00  0.00    +0.127 C 
ATOM      6  C16 UNL     1     144.507 129.621  99.904  0.00  0.00    +0.079 A 
ATOM      7  N2  UNL     1     143.361 129.227  99.362  0.00  0.00    -0.168 NA
ATOM      8  N3  UNL     1     142.608 128.823 100.443  0.00  0.00    -0.218 N 
ENDROOT
BRANCH   8   9
ATOM      9  C17 UNL     1     141.190 128.756 100.294  0.00  0.00    +0.069 A 
ATOM     10  C18 UNL     1     140.373 129.421 101.224  0.00  0.00    +0.028 A 
ATOM     11  C19 UNL     1     138.981 129.355 101.117  0.00  0.00    +0.003 A 
ATOM     12  C20 UNL     1     138.396 128.615 100.091  0.00  0.00    +0.020 A 
ATOM     13  C21 UNL     1     139.205 127.934  99.184  0.00  0.00    +0.043 A 
ATOM     14 CL1  UNL     1     138.482 126.996  97.934  0.00  0.00    -0.083 Cl
ATOM     15  C22 UNL     1     140.597 127.992  99.283  0.00  0.00    +0.047 A 
ENDBRANCH   8   9
BRANCH   1  18
ATOM     16  C11 UNL     1     143.025 126.735 102.915  0.00  0.00    +0.249 C 
ATOM     17  O1  UNL     1     143.188 125.939 101.998  0.00  0.00    -0.270 OA
ATOM     18  N1  UNL     1     143.119 128.117 102.812  0.00  0.00    -0.266 N 
ATOM     19  H14 UNL     1     143.395 128.608 103.655  0.00  0.00    +0.157 HD
BRANCH  16  23
ATOM     20  C5  UNL     1     142.374 125.200 106.908  0.00  0.00    -0.042 A 
ATOM     21  C6  UNL     1     141.371 125.936 106.245  0.00  0.00    +0.005 A 
ATOM     22  C7  UNL     1     141.563 126.439 104.952  0.00  0.00    +0.013 A 
ATOM     23  C8  UNL     1     142.774 126.222 104.291  0.00  0.00    +0.037 A 
ATOM     24  C9  UNL     1     143.773 125.479 104.923  0.00  0.00    +0.013 A 
ATOM     25  C10 UNL     1     143.577 124.979 106.216  0.00  0.00    +0.005 A 
BRANCH  20  27
ATOM     26  C1  UNL     1     142.199 123.119 108.321  0.00  0.00    +0.015 C 
ATOM     27  C2  UNL     1     142.123 124.660 108.328  0.00  0.00    -0.013 C 
ATOM     28  C3  UNL     1     140.742 125.044 108.907  0.00  0.00    +0.015 C 
ATOM     29  C4  UNL     1     143.193 125.218 109.290  0.00  0.00    +0.015 C 
ENDBRANCH  20  27
ENDBRANCH  16  23
ENDBRANCH   1  18
TORSDOF 4
ENDMDL
MODEL 5
REMARK VINA RESULT:    -4.797      1.661      2.196
REMARK INTER + INTRA:          -7.098
REMARK INTER:                  -5.849
REMARK INTRA:                  -1.248
REMARK UNBOUND:                -1.179
REMARK  Name = /home/vital/Documents/PhD_2021/Malaria_codes/data/pdb_ligands_mmv/ligand_248.pdb
REMARK  7 active torsions:
REMARK  status: ('A' for Active; 'I' for Inactive)
REMARK    1  A    between atoms: C1_1  and  C2_2
REMARK    2  A    between atoms: C2_2  and  C3_3
REMARK    3  A    between atoms: C2_2  and  C4_4
REMARK    4  A    between atoms: C2_2  and  C5_5
REMARK    5  A    between atoms: C8_8  and  C11_11
REMARK    6  A    between atoms: N1_13  and  C12_14
REMARK    7  A    between atoms: N3_21  and  C17_22
REMARK                            x       y       z     vdW  Elec       q    Type
REMARK                         _______ _______ _______ _____ _____    ______ ____
ROOT
ATOM      1  C12 UNL     1     143.350 126.745 102.669  0.00  0.00    +0.133 A 
ATOM      2  C13 UNL     1     144.579 127.290 102.959  0.00  0.00    +0.026 A 
ATOM      3  C14 UNL     1     145.511 127.298 104.098  0.00  0.00    +0.110 C 
ATOM      4  S1  UNL     1     147.018 128.172 103.458  0.00  0.00    -0.150 S 
ATOM      5  C15 UNL     1     146.383 128.436 101.726  0.00  0.00    +0.127 C 
ATOM      6  C16 UNL     1     145.025 127.857 101.765  0.00  0.00    +0.079 A 
ATOM      7  N2  UNL     1     144.151 127.753 100.772  0.00  0.00    -0.168 NA
ATOM      8  N3  UNL     1     143.037 127.209 101.372  0.00  0.00    -0.218 N 
ENDROOT
BRANCH   8   9
ATOM      9  C17 UNL     1     141.774 127.362 100.723  0.00  0.00    +0.069 A 
ATOM     10  C18 UNL     1     141.530 126.666  99.528  0.00  0.00    +0.028 A 
ATOM     11  C19 UNL     1     140.312 126.813  98.859  0.00  0.00    +0.003 A 
ATOM     12  C20 UNL     1     139.336 127.668  99.370  0.00  0.00    +0.020 A 
ATOM     13  C21 UNL     1     139.588 128.379 100.542  0.00  0.00    +0.043 A 
ATOM     14 CL1  UNL     1     138.393 129.456 101.158  0.00  0.00    -0.083 Cl
ATOM     15  C22 UNL     1     140.802 128.240 101.217  0.00  0.00    +0.047 A 
ENDBRANCH   8   9
BRANCH   1  18
ATOM     16  C11 UNL     1     141.779 126.426 104.484  0.00  0.00    +0.249 C 
ATOM     17  O1  UNL     1     141.618 127.616 104.729  0.00  0.00    -0.270 OA
ATOM     18  N1  UNL     1     142.604 125.910 103.493  0.00  0.00    -0.266 N 
ATOM     19  H14 UNL     1     142.331 125.011 103.111  0.00  0.00    +0.157 HD
BRANCH  16  23
ATOM     20  C5  UNL     1     139.520 123.510 106.746  0.00  0.00    -0.042 A 
ATOM     21  C6  UNL     1     139.526 123.484 105.337  0.00  0.00    +0.005 A 
ATOM     22  C7  UNL     1     140.252 124.418 104.588  0.00  0.00    +0.013 A 
ATOM     23  C8  UNL     1     140.989 125.412 105.237  0.00  0.00    +0.037 A 
ATOM     24  C9  UNL     1     141.012 125.444 106.632  0.00  0.00    +0.013 A 
ATOM     25  C10 UNL     1     140.283 124.508 107.376  0.00  0.00    +0.005 A 
BRANCH  20  27
ATOM     26  C1  UNL     1     139.490 121.132 107.581  0.00  0.00    +0.015 C 
ATOM     27  C2  UNL     1     138.711 122.463 107.533  0.00  0.00    -0.013 C 
ATOM     28  C3  UNL     1     137.324 122.157 106.923  0.00  0.00    +0.015 C 
ATOM     29  C4  UNL     1     138.475 122.967 108.973  0.00  0.00    +0.015 C 
ENDBRANCH  20  27
ENDBRANCH  16  23
ENDBRANCH   1  18
TORSDOF 4
ENDMDL
MODEL 6
REMARK VINA RESULT:    -4.705      6.038     10.382
REMARK INTER + INTRA:          -6.984
REMARK INTER:                  -5.704
REMARK INTRA:                  -1.280
REMARK UNBOUND:                -1.179
REMARK  Name = /home/vital/Documents/PhD_2021/Malaria_codes/data/pdb_ligands_mmv/ligand_248.pdb
REMARK  7 active torsions:
REMARK  status: ('A' for Active; 'I' for Inactive)
REMARK    1  A    between atoms: C1_1  and  C2_2
REMARK    2  A    between atoms: C2_2  and  C3_3
REMARK    3  A    between atoms: C2_2  and  C4_4
REMARK    4  A    between atoms: C2_2  and  C5_5
REMARK    5  A    between atoms: C8_8  and  C11_11
REMARK    6  A    between atoms: N1_13  and  C12_14
REMARK    7  A    between atoms: N3_21  and  C17_22
REMARK                            x       y       z     vdW  Elec       q    Type
REMARK                         _______ _______ _______ _____ _____    ______ ____
ROOT
ATOM      1  C12 UNL     1     143.682 131.322  98.171  0.00  0.00    +0.133 A 
ATOM      2  C13 UNL     1     144.900 131.449  98.799  0.00  0.00    +0.026 A 
ATOM      3  C14 UNL     1     146.274 131.813  98.419  0.00  0.00    +0.110 C 
ATOM      4  S1  UNL     1     147.198 131.879 100.027  0.00  0.00    -0.150 S 
ATOM      5  C15 UNL     1     145.740 131.484 101.119  0.00  0.00    +0.127 C 
ATOM      6  C16 UNL     1     144.634 131.292 100.159  0.00  0.00    +0.079 A 
ATOM      7  N2  UNL     1     143.360 131.028 100.422  0.00  0.00    -0.168 NA
ATOM      8  N3  UNL     1     142.793 130.880  99.175  0.00  0.00    -0.218 N 
ENDROOT
BRANCH   8   9
ATOM      9  C17 UNL     1     141.560 130.167  99.072  0.00  0.00    +0.069 A 
ATOM     10  C18 UNL     1     140.364 130.814  99.428  0.00  0.00    +0.028 A 
ATOM     11  C19 UNL     1     139.145 130.135  99.357  0.00  0.00    +0.003 A 
ATOM     12  C20 UNL     1     139.112 128.803  98.945  0.00  0.00    +0.020 A 
ATOM     13  C21 UNL     1     140.300 128.154  98.617  0.00  0.00    +0.043 A 
ATOM     14 CL1  UNL     1     140.263 126.501  98.135  0.00  0.00    -0.083 Cl
ATOM     15  C22 UNL     1     141.524 128.823  98.686  0.00  0.00    +0.047 A 
ENDBRANCH   8   9
BRANCH   1  18
ATOM     16  C11 UNL     1     143.598 130.624  95.854  0.00  0.00    +0.249 C 
ATOM     17  O1  UNL     1     143.993 129.480  96.047  0.00  0.00    -0.270 OA
ATOM     18  N1  UNL     1     143.413 131.591  96.834  0.00  0.00    -0.266 N 
ATOM     19  H14 UNL     1     142.708 132.292  96.638  0.00  0.00    +0.157 HD
BRANCH  16  23
ATOM     20  C5  UNL     1     142.462 131.740  91.831  0.00  0.00    -0.042 A 
ATOM     21  C6  UNL     1     142.495 132.698  92.865  0.00  0.00    +0.005 A 
ATOM     22  C7  UNL     1     142.861 132.356  94.172  0.00  0.00    +0.013 A 
ATOM     23  C8  UNL     1     143.199 131.036  94.479  0.00  0.00    +0.037 A 
ATOM     24  C9  UNL     1     143.192 130.075  93.466  0.00  0.00    +0.013 A 
ATOM     25  C10 UNL     1     142.823 130.423  92.161  0.00  0.00    +0.005 A 
BRANCH  20  27
ATOM     26  C1  UNL     1     142.285 133.673  90.222  0.00  0.00    +0.015 C 
ATOM     27  C2  UNL     1     142.057 132.157  90.405  0.00  0.00    -0.013 C 
ATOM     28  C3  UNL     1     140.575 131.877  90.070  0.00  0.00    +0.015 C 
ATOM     29  C4  UNL     1     142.912 131.387  89.377  0.00  0.00    +0.015 C 
ENDBRANCH  20  27
ENDBRANCH  16  23
ENDBRANCH   1  18
TORSDOF 4
ENDMDL
MODEL 7
REMARK VINA RESULT:    -4.612      3.361      4.995
REMARK INTER + INTRA:          -6.869
REMARK INTER:                  -5.631
REMARK INTRA:                  -1.238
REMARK UNBOUND:                -1.179
REMARK  Name = /home/vital/Documents/PhD_2021/Malaria_codes/data/pdb_ligands_mmv/ligand_248.pdb
REMARK  7 active torsions:
REMARK  status: ('A' for Active; 'I' for Inactive)
REMARK    1  A    between atoms: C1_1  and  C2_2
REMARK    2  A    between atoms: C2_2  and  C3_3
REMARK    3  A    between atoms: C2_2  and  C4_4
REMARK    4  A    between atoms: C2_2  and  C5_5
REMARK    5  A    between atoms: C8_8  and  C11_11
REMARK    6  A    between atoms: N1_13  and  C12_14
REMARK    7  A    between atoms: N3_21  and  C17_22
REMARK                            x       y       z     vdW  Elec       q    Type
REMARK                         _______ _______ _______ _____ _____    ______ ____
ROOT
ATOM      1  C12 UNL     1     141.832 128.239 102.107  0.00  0.00    +0.133 A 
ATOM      2  C13 UNL     1     141.004 128.653 101.090  0.00  0.00    +0.026 A 
ATOM      3  C14 UNL     1     139.585 128.505 100.729  0.00  0.00    +0.110 C 
ATOM      4  S1  UNL     1     139.367 129.598  99.246  0.00  0.00    -0.150 S 
ATOM      5  C15 UNL     1     141.117 130.237  99.201  0.00  0.00    +0.127 C 
ATOM      6  C16 UNL     1     141.769 129.532 100.323  0.00  0.00    +0.079 A 
ATOM      7  N2  UNL     1     143.019 129.657 100.752  0.00  0.00    -0.168 NA
ATOM      8  N3  UNL     1     143.112 128.727 101.764  0.00  0.00    -0.218 N 
ENDROOT
BRANCH   8   9
ATOM      9  C17 UNL     1     144.410 128.275 102.152  0.00  0.00    +0.069 A 
ATOM     10  C18 UNL     1     145.164 127.505 101.251  0.00  0.00    +0.028 A 
ATOM     11  C19 UNL     1     146.428 127.031 101.611  0.00  0.00    +0.003 A 
ATOM     12  C20 UNL     1     146.942 127.310 102.876  0.00  0.00    +0.020 A 
ATOM     13  C21 UNL     1     146.184 128.052 103.780  0.00  0.00    +0.043 A 
ATOM     14 CL1  UNL     1     146.807 128.373 105.353  0.00  0.00    -0.083 Cl
ATOM     15  C22 UNL     1     144.919 128.529 103.431  0.00  0.00    +0.047 A 
ENDBRANCH   8   9
BRANCH   1  18
ATOM     16  C11 UNL     1     141.413 126.119 103.200  0.00  0.00    +0.249 C 
ATOM     17  O1  UNL     1     141.691 125.417 102.235  0.00  0.00    -0.270 OA
ATOM     18  N1  UNL     1     141.457 127.507 103.228  0.00  0.00    -0.266 N 
ATOM     19  H14 UNL     1     141.636 127.927 104.133  0.00  0.00    +0.157 HD
BRANCH  16  23
ATOM     20  C5  UNL     1     140.449 124.303 107.007  0.00  0.00    -0.042 A 
ATOM     21  C6  UNL     1     140.076 123.685 105.797  0.00  0.00    +0.005 A 
ATOM     22  C7  UNL     1     140.381 124.257 104.555  0.00  0.00    +0.013 A 
ATOM     23  C8  UNL     1     141.064 125.473 104.496  0.00  0.00    +0.037 A 
ATOM     24  C9  UNL     1     141.459 126.093 105.683  0.00  0.00    +0.013 A 
ATOM     25  C10 UNL     1     141.151 125.518 106.921  0.00  0.00    +0.005 A 
BRANCH  20  27
ATOM     26  C1  UNL     1     138.592 123.301 108.387  0.00  0.00    +0.015 C 
ATOM     27  C2  UNL     1     140.097 123.641 108.352  0.00  0.00    -0.013 C 
ATOM     28  C3  UNL     1     140.391 124.529 109.582  0.00  0.00    +0.015 C 
ATOM     29  C4  UNL     1     140.916 122.343 108.519  0.00  0.00    +0.015 C 
ENDBRANCH  20  27
ENDBRANCH  16  23
ENDBRANCH   1  18
TORSDOF 4
ENDMDL
MODEL 8
REMARK VINA RESULT:    -4.452      4.950      9.453
REMARK INTER + INTRA:          -6.672
REMARK INTER:                  -5.514
REMARK INTRA:                  -1.158
REMARK UNBOUND:                -1.179
REMARK  Name = /home/vital/Documents/PhD_2021/Malaria_codes/data/pdb_ligands_mmv/ligand_248.pdb
REMARK  7 active torsions:
REMARK  status: ('A' for Active; 'I' for Inactive)
REMARK    1  A    between atoms: C1_1  and  C2_2
REMARK    2  A    between atoms: C2_2  and  C3_3
REMARK    3  A    between atoms: C2_2  and  C4_4
REMARK    4  A    between atoms: C2_2  and  C5_5
REMARK    5  A    between atoms: C8_8  and  C11_11
REMARK    6  A    between atoms: N1_13  and  C12_14
REMARK    7  A    between atoms: N3_21  and  C17_22
REMARK                            x       y       z     vdW  Elec       q    Type
REMARK                         _______ _______ _______ _____ _____    ______ ____
ROOT
ATOM      1  C12 UNL     1     143.846 129.405 100.100  0.00  0.00    +0.133 A 
ATOM      2  C13 UNL     1     144.877 128.960 100.895  0.00  0.00    +0.026 A 
ATOM      3  C14 UNL     1     146.339 128.839 100.793  0.00  0.00    +0.110 C 
ATOM      4  S1  UNL     1     146.878 128.286 102.480  0.00  0.00    -0.150 S 
ATOM      5  C15 UNL     1     145.180 128.292 103.251  0.00  0.00    +0.127 C 
ATOM      6  C16 UNL     1     144.299 128.691 102.136  0.00  0.00    +0.079 A 
ATOM      7  N2  UNL     1     142.986 128.885 102.161  0.00  0.00    -0.168 NA
ATOM      8  N3  UNL     1     142.672 129.170 100.850  0.00  0.00    -0.218 N 
ENDROOT
BRANCH   8   9
ATOM      9  C17 UNL     1     141.320 129.000 100.424  0.00  0.00    +0.069 A 
ATOM     10  C18 UNL     1     140.325 129.836 100.957  0.00  0.00    +0.028 A 
ATOM     11  C19 UNL     1     138.990 129.679 100.575  0.00  0.00    +0.003 A 
ATOM     12  C20 UNL     1     138.637 128.678  99.671  0.00  0.00    +0.020 A 
ATOM     13  C21 UNL     1     139.620 127.832  99.161  0.00  0.00    +0.043 A 
ATOM     14 CL1  UNL     1     139.181 126.578  98.066  0.00  0.00    -0.083 Cl
ATOM     15  C22 UNL     1     140.956 127.979  99.538  0.00  0.00    +0.047 A 
ENDBRANCH   8   9
BRANCH   1  18
ATOM     16  C11 UNL     1     143.774 131.334  98.637  0.00  0.00    +0.249 C 
ATOM     17  O1  UNL     1     143.497 132.149  99.509  0.00  0.00    -0.270 OA
ATOM     18  N1  UNL     1     143.966 129.973  98.836  0.00  0.00    -0.266 N 
ATOM     19  H14 UNL     1     144.588 129.511  98.182  0.00  0.00    +0.157 HD
BRANCH  16  23
ATOM     20  C5  UNL     1     144.396 132.641  94.559  0.00  0.00    -0.042 A 
ATOM     21  C6  UNL     1     145.168 133.170  95.614  0.00  0.00    +0.005 A 
ATOM     22  C7  UNL     1     144.982 132.758  96.939  0.00  0.00    +0.013 A 
ATOM     23  C8  UNL     1     144.007 131.805  97.243  0.00  0.00    +0.037 A 
ATOM     24  C9  UNL     1     143.245 131.254  96.212  0.00  0.00    +0.013 A 
ATOM     25  C10 UNL     1     143.434 131.671  94.888  0.00  0.00    +0.005 A 
BRANCH  20  27
ATOM     26  C1  UNL     1     145.190 134.557  93.127  0.00  0.00    +0.015 C 
ATOM     27  C2  UNL     1     144.634 133.118  93.115  0.00  0.00    -0.013 C 
ATOM     28  C3  UNL     1     143.357 133.132  92.244  0.00  0.00    +0.015 C 
ATOM     29  C4  UNL     1     145.650 132.185  92.422  0.00  0.00    +0.015 C 
ENDBRANCH  20  27
ENDBRANCH  16  23
ENDBRANCH   1  18
TORSDOF 4
ENDMDL
MODEL 9
REMARK VINA RESULT:    -4.399      3.064      3.913
REMARK INTER + INTRA:          -6.607
REMARK INTER:                  -5.437
REMARK INTRA:                  -1.170
REMARK UNBOUND:                -1.179
REMARK  Name = /home/vital/Documents/PhD_2021/Malaria_codes/data/pdb_ligands_mmv/ligand_248.pdb
REMARK  7 active torsions:
REMARK  status: ('A' for Active; 'I' for Inactive)
REMARK    1  A    between atoms: C1_1  and  C2_2
REMARK    2  A    between atoms: C2_2  and  C3_3
REMARK    3  A    between atoms: C2_2  and  C4_4
REMARK    4  A    between atoms: C2_2  and  C5_5
REMARK    5  A    between atoms: C8_8  and  C11_11
REMARK    6  A    between atoms: N1_13  and  C12_14
REMARK    7  A    between atoms: N3_21  and  C17_22
REMARK                            x       y       z     vdW  Elec       q    Type
REMARK                         _______ _______ _______ _____ _____    ______ ____
ROOT
ATOM      1  C12 UNL     1     142.414 125.519  99.638  0.00  0.00    +0.133 A 
ATOM      2  C13 UNL     1     143.660 125.425  99.062  0.00  0.00    +0.026 A 
ATOM      3  C14 UNL     1     145.000 124.970  99.465  0.00  0.00    +0.110 C 
ATOM      4  S1  UNL     1     146.008 125.063  97.910  0.00  0.00    -0.150 S 
ATOM      5  C15 UNL     1     144.624 125.636  96.801  0.00  0.00    +0.127 C 
ATOM      6  C16 UNL     1     143.474 125.751  97.719  0.00  0.00    +0.079 A 
ATOM      7  N2  UNL     1     142.224 126.090  97.425  0.00  0.00    -0.168 NA
ATOM      8  N3  UNL     1     141.594 126.109  98.650  0.00  0.00    -0.218 N 
ENDROOT
BRANCH   8   9
ATOM      9  C17 UNL     1     140.378 126.847  98.776  0.00  0.00    +0.069 A 
ATOM     10  C18 UNL     1     139.372 126.678  97.810  0.00  0.00    +0.028 A 
ATOM     11  C19 UNL     1     138.181 127.403  97.895  0.00  0.00    +0.003 A 
ATOM     12  C20 UNL     1     137.991 128.312  98.935  0.00  0.00    +0.020 A 
ATOM     13  C21 UNL     1     138.999 128.499  99.879  0.00  0.00    +0.043 A 
ATOM     14 CL1  UNL     1     138.777 129.642 101.148  0.00  0.00    -0.083 Cl
ATOM     15  C22 UNL     1     140.194 127.781  99.802  0.00  0.00    +0.047 A 
ENDBRANCH   8   9
BRANCH   1  18
ATOM     16  C11 UNL     1     142.314 125.901 102.027  0.00  0.00    +0.249 C 
ATOM     17  O1  UNL     1     142.839 127.008 102.005  0.00  0.00    -0.270 OA
ATOM     18  N1  UNL     1     142.064 125.103 100.918  0.00  0.00    -0.266 N 
ATOM     19  H14 UNL     1     141.280 124.467 100.996  0.00  0.00    +0.157 HD
BRANCH  16  23
ATOM     20  C5  UNL     1     140.895 124.388 105.825  0.00  0.00    -0.042 A 
ATOM     21  C6  UNL     1     141.001 123.541 104.703  0.00  0.00    +0.005 A 
ATOM     22  C7  UNL     1     141.460 124.012 103.467  0.00  0.00    +0.013 A 
ATOM     23  C8  UNL     1     141.818 125.354 103.321  0.00  0.00    +0.037 A 
ATOM     24  C9  UNL     1     141.739 126.206 104.424  0.00  0.00    +0.013 A 
ATOM     25  C10 UNL     1     141.279 125.730 105.657  0.00  0.00    +0.005 A 
BRANCH  20  27
ATOM     26  C1  UNL     1     140.805 124.777 108.314  0.00  0.00    +0.015 C 
ATOM     27  C2  UNL     1     140.389 123.830 107.168  0.00  0.00    -0.013 C 
ATOM     28  C3  UNL     1     140.945 122.430 107.511  0.00  0.00    +0.015 C 
ATOM     29  C4  UNL     1     138.851 123.717 107.134  0.00  0.00    +0.015 C 
ENDBRANCH  20  27
ENDBRANCH  16  23
ENDBRANCH   1  18
TORSDOF 4
ENDMDL
