MODEL 1
REMARK VINA RESULT:    -4.710      0.000      0.000
REMARK INTER + INTRA:          -9.495
REMARK INTER:                  -7.325
REMARK INTRA:                  -2.169
REMARK UNBOUND:                -2.169
REMARK  Name = /home/vital/Documents/PhD_2021/Malaria_codes/data/pdb_ligands_mmv/ligand_17.pdb
REMARK  13 active torsions:
REMARK  status: ('A' for Active; 'I' for Inactive)
REMARK    1  A    between atoms: C1_1  and  C2_2
REMARK    2  A    between atoms: C2_2  and  C3_3
REMARK    3  A    between atoms: C3_3  and  C4_4
REMARK    4  A    between atoms: C4_4  and  C5_5
REMARK    5  A    between atoms: C5_5  and  C6_6
REMARK    6  A    between atoms: C7_9  and  C28_34
REMARK    7  A    between atoms: C9_11  and  O2_12
REMARK    8  A    between atoms: C11_14  and  C20_24
REMARK    9  A    between atoms: C23_27  and  O3_28
REMARK   10  A    between atoms: O3_28  and  C24_29
REMARK   11  A    between atoms: C25_30  and  O4_31
REMARK   12  A    between atoms: O4_31  and  C26_32
REMARK   13  A    between atoms: C31_37  and  C34_40
REMARK                            x       y       z     vdW  Elec       q    Type
REMARK                         _______ _______ _______ _____ _____    ______ ____
ROOT
ATOM      1  C6  UNL     1     142.916 124.187 107.022  0.00  0.00    +0.221 C 
ATOM      2  O1  UNL     1     143.206 123.036 107.347  0.00  0.00    -0.275 OA
ATOM      3  N1  UNL     1     143.310 124.755 105.790  0.00  0.00    -0.258 N 
ATOM      4  C7  UNL     1     142.253 125.352 104.961  0.00  0.00    +0.147 C 
ATOM      5  C8  UNL     1     142.736 125.698 103.572  0.00  0.00    +0.036 C 
ATOM      6  C9  UNL     1     142.539 125.148 102.358  0.00  0.00    +0.102 C 
ATOM      7  C10 UNL     1     142.890 125.822 101.042  0.00  0.00    +0.082 C 
ATOM      8  C11 UNL     1     143.520 127.230 101.163  0.00  0.00    +0.032 C 
ATOM      9  C12 UNL     1     143.002 127.934 102.424  0.00  0.00    +0.064 C 
ATOM     10  C13 UNL     1     143.398 127.016 103.556  0.00  0.00    +0.051 C 
ATOM     11  N2  UNL     1     144.313 127.414 104.367  0.00  0.00    -0.250 NA
ATOM     12  C14 UNL     1     145.043 126.535 105.191  0.00  0.00    +0.086 A 
ATOM     13  C15 UNL     1     146.367 126.989 105.386  0.00  0.00    +0.029 A 
ATOM     14  C16 UNL     1     147.310 126.276 106.120  0.00  0.00    +0.002 A 
ATOM     15  C17 UNL     1     146.949 125.066 106.673  0.00  0.00    +0.002 A 
ATOM     16  C18 UNL     1     145.644 124.597 106.511  0.00  0.00    +0.026 A 
ATOM     17  C19 UNL     1     144.651 125.318 105.799  0.00  0.00    +0.063 A 
ENDROOT
BRANCH   8  18
ATOM     18  C20 UNL     1     143.339 128.013  99.873  0.00  0.00    -0.040 A 
ATOM     19  C21 UNL     1     144.051 127.716  98.706  0.00  0.00    +0.008 A 
ATOM     20  C22 UNL     1     143.875 128.477  97.547  0.00  0.00    +0.049 A 
ATOM     21  C23 UNL     1     142.987 129.557  97.532  0.00  0.00    +0.161 A 
ATOM     22  C25 UNL     1     142.276 129.882  98.702  0.00  0.00    +0.162 A 
ATOM     23  C27 UNL     1     142.456 129.108  99.857  0.00  0.00    +0.053 A 
BRANCH  21  24
ATOM     24  O3  UNL     1     142.761 130.358  96.440  0.00  0.00    -0.491 OA
ATOM     25  C24 UNL     1     143.609 130.191  95.315  0.00  0.00    +0.277 C 
ENDBRANCH  21  24
BRANCH  22  26
ATOM     26  O4  UNL     1     141.436 130.966  98.615  0.00  0.00    -0.491 OA
ATOM     27  C26 UNL     1     140.456 131.128  99.630  0.00  0.00    +0.277 C 
ENDBRANCH  22  26
ENDBRANCH   8  18
BRANCH   4  28
ATOM     28  C28 UNL     1     140.936 124.553 104.936  0.00  0.00    -0.022 A 
ATOM     29  C29 UNL     1     139.711 125.238 105.032  0.00  0.00    +0.006 A 
ATOM     30  C30 UNL     1     138.499 124.544 105.011  0.00  0.00    +0.013 A 
ATOM     31  C31 UNL     1     138.477 123.148 104.882  0.00  0.00    +0.055 A 
ATOM     32  C32 UNL     1     139.693 122.461 104.780  0.00  0.00    +0.013 A 
ATOM     33  C33 UNL     1     140.906 123.155 104.798  0.00  0.00    +0.006 A 
BRANCH  31  34
ATOM     34  C34 UNL     1     137.165 122.405 104.879  0.00  0.00    +0.417 C 
ATOM     35  F1  UNL     1     137.285 121.084 105.194  0.00  0.00    -0.166 F 
ATOM     36  F2  UNL     1     136.540 122.440 103.668  0.00  0.00    -0.166 F 
ATOM     37  F3  UNL     1     136.274 122.923 105.770  0.00  0.00    -0.166 F 
ENDBRANCH  31  34
ENDBRANCH   4  28
BRANCH   6  38
ATOM     38  O2  UNL     1     141.920 123.922 102.224  0.00  0.00    -0.511 OA
ATOM     39  H13 UNL     1     141.662 123.783 101.297  0.00  0.00    +0.292 HD
ENDBRANCH   6  38
BRANCH   1  40
ATOM     40  C5  UNL     1     142.115 125.113 107.935  0.00  0.00    +0.096 C 
BRANCH  40  41
ATOM     41  C4  UNL     1     141.671 124.433 109.233  0.00  0.00    +0.009 C 
BRANCH  41  42
ATOM     42  C3  UNL     1     140.154 124.211 109.280  0.00  0.00    +0.000 C 
BRANCH  42  44
ATOM     43  C1  UNL     1     138.190 122.782 108.491  0.00  0.00    +0.004 C 
ATOM     44  C2  UNL     1     139.685 123.049 108.401  0.00  0.00    -0.003 C 
ENDBRANCH  42  44
ENDBRANCH  41  42
ENDBRANCH  40  41
ENDBRANCH   1  40
TORSDOF 10
ENDMDL
MODEL 2
REMARK VINA RESULT:    -4.586     10.002     16.206
REMARK INTER + INTRA:          -9.303
REMARK INTER:                  -6.742
REMARK INTRA:                  -2.561
REMARK UNBOUND:                -2.169
REMARK  Name = /home/vital/Documents/PhD_2021/Malaria_codes/data/pdb_ligands_mmv/ligand_17.pdb
REMARK  13 active torsions:
REMARK  status: ('A' for Active; 'I' for Inactive)
REMARK    1  A    between atoms: C1_1  and  C2_2
REMARK    2  A    between atoms: C2_2  and  C3_3
REMARK    3  A    between atoms: C3_3  and  C4_4
REMARK    4  A    between atoms: C4_4  and  C5_5
REMARK    5  A    between atoms: C5_5  and  C6_6
REMARK    6  A    between atoms: C7_9  and  C28_34
REMARK    7  A    between atoms: C9_11  and  O2_12
REMARK    8  A    between atoms: C11_14  and  C20_24
REMARK    9  A    between atoms: C23_27  and  O3_28
REMARK   10  A    between atoms: O3_28  and  C24_29
REMARK   11  A    between atoms: C25_30  and  O4_31
REMARK   12  A    between atoms: O4_31  and  C26_32
REMARK   13  A    between atoms: C31_37  and  C34_40
REMARK                            x       y       z     vdW  Elec       q    Type
REMARK                         _______ _______ _______ _____ _____    ______ ____
ROOT
ATOM      1  C6  UNL     1     141.499 133.603  87.642  0.00  0.00    +0.221 C 
ATOM      2  O1  UNL     1     140.477 134.145  87.224  0.00  0.00    -0.275 OA
ATOM      3  N1  UNL     1     141.924 133.705  88.985  0.00  0.00    -0.258 N 
ATOM      4  C7  UNL     1     142.202 132.450  89.697  0.00  0.00    +0.147 C 
ATOM      5  C8  UNL     1     142.402 132.659  91.179  0.00  0.00    +0.036 C 
ATOM      6  C9  UNL     1     141.644 132.399  92.263  0.00  0.00    +0.102 C 
ATOM      7  C10 UNL     1     142.153 132.429  93.694  0.00  0.00    +0.082 C 
ATOM      8  C11 UNL     1     143.647 132.796  93.862  0.00  0.00    +0.032 C 
ATOM      9  C12 UNL     1     144.444 132.338  92.633  0.00  0.00    +0.064 C 
ATOM     10  C13 UNL     1     143.792 133.054  91.475  0.00  0.00    +0.051 C 
ATOM     11  N2  UNL     1     144.457 133.983  90.886  0.00  0.00    -0.250 NA
ATOM     12  C14 UNL     1     143.850 134.973  90.088  0.00  0.00    +0.086 A 
ATOM     13  C15 UNL     1     144.541 136.203  90.176  0.00  0.00    +0.029 A 
ATOM     14  C16 UNL     1     144.116 137.357  89.524  0.00  0.00    +0.002 A 
ATOM     15  C17 UNL     1     142.964 137.310  88.767  0.00  0.00    +0.002 A 
ATOM     16  C18 UNL     1     142.268 136.106  88.648  0.00  0.00    +0.026 A 
ATOM     17  C19 UNL     1     142.695 134.905  89.272  0.00  0.00    +0.063 A 
ENDROOT
BRANCH   8  18
ATOM     18  C20 UNL     1     144.178 132.291  95.194  0.00  0.00    -0.040 A 
ATOM     19  C21 UNL     1     145.509 131.900  95.375  0.00  0.00    +0.008 A 
ATOM     20  C22 UNL     1     145.951 131.415  96.609  0.00  0.00    +0.049 A 
ATOM     21  C23 UNL     1     145.070 131.304  97.688  0.00  0.00    +0.161 A 
ATOM     22  C25 UNL     1     143.722 131.675  97.519  0.00  0.00    +0.162 A 
ATOM     23  C27 UNL     1     143.290 132.166  96.278  0.00  0.00    +0.053 A 
BRANCH  21  24
ATOM     24  O3  UNL     1     145.419 130.833  98.929  0.00  0.00    -0.491 OA
ATOM     25  C24 UNL     1     146.248 131.657  99.734  0.00  0.00    +0.277 C 
ENDBRANCH  21  24
BRANCH  22  26
ATOM     26  O4  UNL     1     142.913 131.522  98.619  0.00  0.00    -0.491 OA
ATOM     27  C26 UNL     1     142.409 132.696  99.240  0.00  0.00    +0.277 C 
ENDBRANCH  22  26
ENDBRANCH   8  18
BRANCH   4  28
ATOM     28  C28 UNL     1     141.203 131.315  89.398  0.00  0.00    -0.022 A 
ATOM     29  C29 UNL     1     141.672 129.993  89.294  0.00  0.00    +0.006 A 
ATOM     30  C30 UNL     1     140.793 128.941  89.025  0.00  0.00    +0.013 A 
ATOM     31  C31 UNL     1     139.420 129.180  88.868  0.00  0.00    +0.055 A 
ATOM     32  C32 UNL     1     138.947 130.493  88.978  0.00  0.00    +0.013 A 
ATOM     33  C33 UNL     1     139.825 131.545  89.249  0.00  0.00    +0.006 A 
BRANCH  31  34
ATOM     34  C34 UNL     1     138.481 128.041  88.561  0.00  0.00    +0.417 C 
ATOM     35  F1  UNL     1     138.643 126.963  89.379  0.00  0.00    -0.166 F 
ATOM     36  F2  UNL     1     138.625 127.565  87.292  0.00  0.00    -0.166 F 
ATOM     37  F3  UNL     1     137.172 128.404  88.672  0.00  0.00    -0.166 F 
ENDBRANCH  31  34
ENDBRANCH   4  28
BRANCH   6  38
ATOM     38  O2  UNL     1     140.328 132.008  92.133  0.00  0.00    -0.511 OA
ATOM     39  H13 UNL     1     139.940 131.858  93.012  0.00  0.00    +0.292 HD
ENDBRANCH   6  38
BRANCH   1  40
ATOM     40  C5  UNL     1     142.411 132.779  86.735  0.00  0.00    +0.096 C 
BRANCH  40  41
ATOM     41  C4  UNL     1     141.675 132.178  85.535  0.00  0.00    +0.009 C 
BRANCH  41  42
ATOM     42  C3  UNL     1     141.460 130.667  85.686  0.00  0.00    +0.000 C 
BRANCH  42  44
ATOM     43  C1  UNL     1     139.017 131.366  85.442  0.00  0.00    +0.004 C 
ATOM     44  C2  UNL     1     140.024 130.227  85.393  0.00  0.00    -0.003 C 
ENDBRANCH  42  44
ENDBRANCH  41  42
ENDBRANCH  40  41
ENDBRANCH   1  40
TORSDOF 10
ENDMDL
MODEL 3
REMARK VINA RESULT:    -4.491      5.378      8.044
REMARK INTER + INTRA:          -9.154
REMARK INTER:                  -6.916
REMARK INTRA:                  -2.238
REMARK UNBOUND:                -2.169
REMARK  Name = /home/vital/Documents/PhD_2021/Malaria_codes/data/pdb_ligands_mmv/ligand_17.pdb
REMARK  13 active torsions:
REMARK  status: ('A' for Active; 'I' for Inactive)
REMARK    1  A    between atoms: C1_1  and  C2_2
REMARK    2  A    between atoms: C2_2  and  C3_3
REMARK    3  A    between atoms: C3_3  and  C4_4
REMARK    4  A    between atoms: C4_4  and  C5_5
REMARK    5  A    between atoms: C5_5  and  C6_6
REMARK    6  A    between atoms: C7_9  and  C28_34
REMARK    7  A    between atoms: C9_11  and  O2_12
REMARK    8  A    between atoms: C11_14  and  C20_24
REMARK    9  A    between atoms: C23_27  and  O3_28
REMARK   10  A    between atoms: O3_28  and  C24_29
REMARK   11  A    between atoms: C25_30  and  O4_31
REMARK   12  A    between atoms: O4_31  and  C26_32
REMARK   13  A    between atoms: C31_37  and  C34_40
REMARK                            x       y       z     vdW  Elec       q    Type
REMARK                         _______ _______ _______ _____ _____    ______ ____
ROOT
ATOM      1  C6  UNL     1     143.973 128.691 100.715  0.00  0.00    +0.221 C 
ATOM      2  O1  UNL     1     144.679 127.811 101.206  0.00  0.00    -0.275 OA
ATOM      3  N1  UNL     1     144.295 129.344  99.505  0.00  0.00    -0.258 N 
ATOM      4  C7  UNL     1     143.261 129.367  98.461  0.00  0.00    +0.147 C 
ATOM      5  C8  UNL     1     143.790 129.861  97.135  0.00  0.00    +0.036 C 
ATOM      6  C9  UNL     1     144.092 129.250  95.973  0.00  0.00    +0.102 C 
ATOM      7  C10 UNL     1     144.346 129.976  94.662  0.00  0.00    +0.082 C 
ATOM      8  C11 UNL     1     144.245 131.518  94.725  0.00  0.00    +0.032 C 
ATOM      9  C12 UNL     1     143.240 131.938  95.805  0.00  0.00    +0.064 C 
ATOM     10  C13 UNL     1     143.783 131.334  97.078  0.00  0.00    +0.051 C 
ATOM     11  N2  UNL     1     144.252 132.130  97.973  0.00  0.00    -0.250 NA
ATOM     12  C14 UNL     1     145.128 131.706  98.992  0.00  0.00    +0.086 A 
ATOM     13  C15 UNL     1     146.046 132.723  99.340  0.00  0.00    +0.029 A 
ATOM     14  C16 UNL     1     147.051 132.542 100.285  0.00  0.00    +0.002 A 
ATOM     15  C17 UNL     1     147.172 131.315 100.905  0.00  0.00    +0.002 A 
ATOM     16  C18 UNL     1     146.271 130.296 100.594  0.00  0.00    +0.026 A 
ATOM     17  C19 UNL     1     145.215 130.461  99.661  0.00  0.00    +0.063 A 
ENDROOT
BRANCH   8  18
ATOM     18  C20 UNL     1     143.980 132.096  93.344  0.00  0.00    -0.040 A 
ATOM     19  C21 UNL     1     144.510 133.321  92.926  0.00  0.00    +0.008 A 
ATOM     20  C22 UNL     1     144.219 133.832  91.657  0.00  0.00    +0.049 A 
ATOM     21  C23 UNL     1     143.387 133.130  90.781  0.00  0.00    +0.161 A 
ATOM     22  C25 UNL     1     142.829 131.904  91.192  0.00  0.00    +0.162 A 
ATOM     23  C27 UNL     1     143.132 131.399  92.464  0.00  0.00    +0.053 A 
BRANCH  21  24
ATOM     24  O3  UNL     1     143.046 133.561  89.523  0.00  0.00    -0.491 OA
ATOM     25  C24 UNL     1     142.229 134.717  89.425  0.00  0.00    +0.277 C 
ENDBRANCH  21  24
BRANCH  22  26
ATOM     26  O4  UNL     1     142.008 131.281  90.283  0.00  0.00    -0.491 OA
ATOM     27  C26 UNL     1     140.621 131.216  90.578  0.00  0.00    +0.277 C 
ENDBRANCH  22  26
ENDBRANCH   8  18
BRANCH   4  28
ATOM     28  C28 UNL     1     142.470 128.052  98.320  0.00  0.00    -0.022 A 
ATOM     29  C29 UNL     1     141.143 128.092  97.858  0.00  0.00    +0.006 A 
ATOM     30  C30 UNL     1     140.399 126.917  97.717  0.00  0.00    +0.013 A 
ATOM     31  C31 UNL     1     140.966 125.672  98.021  0.00  0.00    +0.055 A 
ATOM     32  C32 UNL     1     142.290 125.626  98.475  0.00  0.00    +0.013 A 
ATOM     33  C33 UNL     1     143.035 126.799  98.614  0.00  0.00    +0.006 A 
BRANCH  31  34
ATOM     34  C34 UNL     1     140.150 124.411  97.883  0.00  0.00    +0.417 C 
ATOM     35  F1  UNL     1     138.805 124.630  97.862  0.00  0.00    -0.166 F 
ATOM     36  F2  UNL     1     140.363 123.530  98.901  0.00  0.00    -0.166 F 
ATOM     37  F3  UNL     1     140.437 123.730  96.739  0.00  0.00    -0.166 F 
ENDBRANCH  31  34
ENDBRANCH   4  28
BRANCH   6  38
ATOM     38  O2  UNL     1     144.125 127.874  95.879  0.00  0.00    -0.511 OA
ATOM     39  H13 UNL     1     143.391 127.492  96.391  0.00  0.00    +0.292 HD
ENDBRANCH   6  38
BRANCH   1  40
ATOM     40  C5  UNL     1     142.686 129.169 101.386  0.00  0.00    +0.096 C 
BRANCH  40  41
ATOM     41  C4  UNL     1     141.965 128.058 102.153  0.00  0.00    +0.009 C 
BRANCH  41  42
ATOM     42  C3  UNL     1     140.615 127.700 101.520  0.00  0.00    +0.000 C 
BRANCH  42  44
ATOM     43  C1  UNL     1     138.463 128.577 100.461  0.00  0.00    +0.004 C 
ATOM     44  C2  UNL     1     139.797 128.926 101.103  0.00  0.00    -0.003 C 
ENDBRANCH  42  44
ENDBRANCH  41  42
ENDBRANCH  40  41
ENDBRANCH   1  40
TORSDOF 10
ENDMDL
MODEL 4
REMARK VINA RESULT:    -4.383      4.282      7.866
REMARK INTER + INTRA:          -8.986
REMARK INTER:                  -7.118
REMARK INTRA:                  -1.868
REMARK UNBOUND:                -2.169
REMARK  Name = /home/vital/Documents/PhD_2021/Malaria_codes/data/pdb_ligands_mmv/ligand_17.pdb
REMARK  13 active torsions:
REMARK  status: ('A' for Active; 'I' for Inactive)
REMARK    1  A    between atoms: C1_1  and  C2_2
REMARK    2  A    between atoms: C2_2  and  C3_3
REMARK    3  A    between atoms: C3_3  and  C4_4
REMARK    4  A    between atoms: C4_4  and  C5_5
REMARK    5  A    between atoms: C5_5  and  C6_6
REMARK    6  A    between atoms: C7_9  and  C28_34
REMARK    7  A    between atoms: C9_11  and  O2_12
REMARK    8  A    between atoms: C11_14  and  C20_24
REMARK    9  A    between atoms: C23_27  and  O3_28
REMARK   10  A    between atoms: O3_28  and  C24_29
REMARK   11  A    between atoms: C25_30  and  O4_31
REMARK   12  A    between atoms: O4_31  and  C26_32
REMARK   13  A    between atoms: C31_37  and  C34_40
REMARK                            x       y       z     vdW  Elec       q    Type
REMARK                         _______ _______ _______ _____ _____    ______ ____
ROOT
ATOM      1  C6  UNL     1     142.478 130.728 101.114  0.00  0.00    +0.221 C 
ATOM      2  O1  UNL     1     143.171 131.385 101.890  0.00  0.00    -0.275 OA
ATOM      3  N1  UNL     1     143.027 129.841 100.162  0.00  0.00    -0.258 N 
ATOM      4  C7  UNL     1     142.514 128.463 100.158  0.00  0.00    +0.147 C 
ATOM      5  C8  UNL     1     143.336 127.544  99.285  0.00  0.00    +0.036 C 
ATOM      6  C9  UNL     1     144.227 126.568  99.548  0.00  0.00    +0.102 C 
ATOM      7  C10 UNL     1     144.732 125.567  98.521  0.00  0.00    +0.082 C 
ATOM      8  C11 UNL     1     144.158 125.731  97.094  0.00  0.00    +0.032 C 
ATOM      9  C12 UNL     1     142.741 126.315  97.158  0.00  0.00    +0.064 C 
ATOM     10  C13 UNL     1     142.911 127.633  97.876  0.00  0.00    +0.051 C 
ATOM     11  N2  UNL     1     142.741 128.715  97.203  0.00  0.00    -0.250 NA
ATOM     12  C14 UNL     1     143.244 129.964  97.618  0.00  0.00    +0.086 A 
ATOM     13  C15 UNL     1     143.609 130.767  96.514  0.00  0.00    +0.029 A 
ATOM     14  C16 UNL     1     144.181 132.028  96.653  0.00  0.00    +0.002 A 
ATOM     15  C17 UNL     1     144.417 132.517  97.921  0.00  0.00    +0.002 A 
ATOM     16  C18 UNL     1     144.053 131.754  99.032  0.00  0.00    +0.026 A 
ATOM     17  C19 UNL     1     143.437 130.481  98.922  0.00  0.00    +0.063 A 
ENDROOT
BRANCH   8  18
ATOM     18  C20 UNL     1     144.281 124.433  96.314  0.00  0.00    -0.040 A 
ATOM     19  C21 UNL     1     145.110 123.384  96.724  0.00  0.00    +0.008 A 
ATOM     20  C22 UNL     1     145.217 122.215  95.963  0.00  0.00    +0.049 A 
ATOM     21  C23 UNL     1     144.500 122.074  94.772  0.00  0.00    +0.161 A 
ATOM     22  C25 UNL     1     143.674 123.127  94.333  0.00  0.00    +0.162 A 
ATOM     23  C27 UNL     1     143.571 124.292  95.107  0.00  0.00    +0.053 A 
BRANCH  21  24
ATOM     24  O3  UNL     1     144.551 120.965  93.964  0.00  0.00    -0.491 OA
ATOM     25  C24 UNL     1     145.810 120.614  93.411  0.00  0.00    +0.277 C 
ENDBRANCH  21  24
BRANCH  22  26
ATOM     26  O4  UNL     1     143.015 122.921  93.146  0.00  0.00    -0.491 OA
ATOM     27  C26 UNL     1     141.595 122.923  93.166  0.00  0.00    +0.277 C 
ENDBRANCH  22  26
ENDBRANCH   8  18
BRANCH   4  28
ATOM     28  C28 UNL     1     142.271 127.871 101.560  0.00  0.00    -0.022 A 
ATOM     29  C29 UNL     1     141.214 126.963 101.752  0.00  0.00    +0.006 A 
ATOM     30  C30 UNL     1     140.967 126.407 103.009  0.00  0.00    +0.013 A 
ATOM     31  C31 UNL     1     141.778 126.733 104.106  0.00  0.00    +0.055 A 
ATOM     32  C32 UNL     1     142.836 127.631 103.919  0.00  0.00    +0.013 A 
ATOM     33  C33 UNL     1     143.085 128.185 102.661  0.00  0.00    +0.006 A 
BRANCH  31  34
ATOM     34  C34 UNL     1     141.493 126.142 105.464  0.00  0.00    +0.417 C 
ATOM     35  F1  UNL     1     142.617 125.838 106.173  0.00  0.00    -0.166 F 
ATOM     36  F2  UNL     1     140.775 124.985 105.397  0.00  0.00    -0.166 F 
ATOM     37  F3  UNL     1     140.768 126.983 106.253  0.00  0.00    -0.166 F 
ENDBRANCH  31  34
ENDBRANCH   4  28
BRANCH   6  38
ATOM     38  O2  UNL     1     144.703 126.364 100.826  0.00  0.00    -0.511 OA
ATOM     39  H13 UNL     1     144.728 127.209 101.308  0.00  0.00    +0.292 HD
ENDBRANCH   6  38
BRANCH   1  40
ATOM     40  C5  UNL     1     140.953 130.829 101.102  0.00  0.00    +0.096 C 
BRANCH  40  41
ATOM     41  C4  UNL     1     140.405 131.413  99.798  0.00  0.00    +0.009 C 
BRANCH  41  42
ATOM     42  C3  UNL     1     139.457 130.442  99.083  0.00  0.00    +0.000 C 
BRANCH  42  44
ATOM     43  C1  UNL     1     138.910 127.951  99.199  0.00  0.00    +0.004 C 
ATOM     44  C2  UNL     1     139.023 129.264  99.958  0.00  0.00    -0.003 C 
ENDBRANCH  42  44
ENDBRANCH  41  42
ENDBRANCH  40  41
ENDBRANCH   1  40
TORSDOF 10
ENDMDL
MODEL 5
REMARK VINA RESULT:    -4.316      3.839      9.142
REMARK INTER + INTRA:          -8.883
REMARK INTER:                  -6.520
REMARK INTRA:                  -2.363
REMARK UNBOUND:                -2.169
REMARK  Name = /home/vital/Documents/PhD_2021/Malaria_codes/data/pdb_ligands_mmv/ligand_17.pdb
REMARK  13 active torsions:
REMARK  status: ('A' for Active; 'I' for Inactive)
REMARK    1  A    between atoms: C1_1  and  C2_2
REMARK    2  A    between atoms: C2_2  and  C3_3
REMARK    3  A    between atoms: C3_3  and  C4_4
REMARK    4  A    between atoms: C4_4  and  C5_5
REMARK    5  A    between atoms: C5_5  and  C6_6
REMARK    6  A    between atoms: C7_9  and  C28_34
REMARK    7  A    between atoms: C9_11  and  O2_12
REMARK    8  A    between atoms: C11_14  and  C20_24
REMARK    9  A    between atoms: C23_27  and  O3_28
REMARK   10  A    between atoms: O3_28  and  C24_29
REMARK   11  A    between atoms: C25_30  and  O4_31
REMARK   12  A    between atoms: O4_31  and  C26_32
REMARK   13  A    between atoms: C31_37  and  C34_40
REMARK                            x       y       z     vdW  Elec       q    Type
REMARK                         _______ _______ _______ _____ _____    ______ ____
ROOT
ATOM      1  C6  UNL     1     144.731 126.097 100.077  0.00  0.00    +0.221 C 
ATOM      2  O1  UNL     1     145.664 126.890  99.958  0.00  0.00    -0.275 OA
ATOM      3  N1  UNL     1     144.287 125.621 101.329  0.00  0.00    -0.258 N 
ATOM      4  C7  UNL     1     142.854 125.758 101.628  0.00  0.00    +0.147 C 
ATOM      5  C8  UNL     1     142.533 125.454 103.072  0.00  0.00    +0.036 C 
ATOM      6  C9  UNL     1     142.208 126.222 104.130  0.00  0.00    +0.102 C 
ATOM      7  C10 UNL     1     141.644 125.689 105.438  0.00  0.00    +0.082 C 
ATOM      8  C11 UNL     1     141.461 124.154 105.506  0.00  0.00    +0.032 C 
ATOM      9  C12 UNL     1     141.171 123.594 104.108  0.00  0.00    +0.064 C 
ATOM     10  C13 UNL     1     142.368 124.005 103.284  0.00  0.00    +0.051 C 
ATOM     11  N2  UNL     1     143.177 123.084 102.892  0.00  0.00    -0.250 NA
ATOM     12  C14 UNL     1     144.499 123.349 102.482  0.00  0.00    +0.086 A 
ATOM     13  C15 UNL     1     145.366 122.284 102.815  0.00  0.00    +0.029 A 
ATOM     14  C16 UNL     1     146.734 122.318 102.565  0.00  0.00    +0.002 A 
ATOM     15  C17 UNL     1     147.278 123.441 101.978  0.00  0.00    +0.002 A 
ATOM     16  C18 UNL     1     146.445 124.504 101.624  0.00  0.00    +0.026 A 
ATOM     17  C19 UNL     1     145.042 124.484 101.833  0.00  0.00    +0.063 A 
ENDROOT
BRANCH   8  18
ATOM     18  C20 UNL     1     140.439 123.783 106.569  0.00  0.00    -0.040 A 
ATOM     19  C21 UNL     1     140.680 123.953 107.936  0.00  0.00    +0.008 A 
ATOM     20  C22 UNL     1     139.725 123.573 108.884  0.00  0.00    +0.049 A 
ATOM     21  C23 UNL     1     138.510 123.009 108.484  0.00  0.00    +0.161 A 
ATOM     22  C25 UNL     1     138.258 122.814 107.113  0.00  0.00    +0.162 A 
ATOM     23  C27 UNL     1     139.221 123.204 106.171  0.00  0.00    +0.053 A 
BRANCH  21  24
ATOM     24  O3  UNL     1     137.523 122.604 109.348  0.00  0.00    -0.491 OA
ATOM     25  C24 UNL     1     137.769 121.446 110.130  0.00  0.00    +0.277 C 
ENDBRANCH  21  24
BRANCH  22  26
ATOM     26  O4  UNL     1     137.050 122.240 106.798  0.00  0.00    -0.491 OA
ATOM     27  C26 UNL     1     137.060 120.927 106.258  0.00  0.00    +0.277 C 
ENDBRANCH  22  26
ENDBRANCH   8  18
BRANCH   4  28
ATOM     28  C28 UNL     1     142.231 127.087 101.160  0.00  0.00    -0.022 A 
ATOM     29  C29 UNL     1     140.867 127.129 100.822  0.00  0.00    +0.006 A 
ATOM     30  C30 UNL     1     140.271 128.319 100.395  0.00  0.00    +0.013 A 
ATOM     31  C31 UNL     1     141.019 129.501 100.308  0.00  0.00    +0.055 A 
ATOM     32  C32 UNL     1     142.377 129.467 100.650  0.00  0.00    +0.013 A 
ATOM     33  C33 UNL     1     142.972 128.279 101.079  0.00  0.00    +0.006 A 
BRANCH  31  34
ATOM     34  C34 UNL     1     140.373 130.777  99.830  0.00  0.00    +0.417 C 
ATOM     35  F1  UNL     1     141.159 131.505  98.988  0.00  0.00    -0.166 F 
ATOM     36  F2  UNL     1     140.046 131.619 100.851  0.00  0.00    -0.166 F 
ATOM     37  F3  UNL     1     139.212 130.548  99.154  0.00  0.00    -0.166 F 
ENDBRANCH  31  34
ENDBRANCH   4  28
BRANCH   6  38
ATOM     38  O2  UNL     1     142.303 127.597 104.068  0.00  0.00    -0.511 OA
ATOM     39  H13 UNL     1     142.520 127.952 104.948  0.00  0.00    +0.292 HD
ENDBRANCH   6  38
BRANCH   1  40
ATOM     40  C5  UNL     1     143.979 125.540  98.869  0.00  0.00    +0.096 C 
BRANCH  40  41
ATOM     41  C4  UNL     1     143.794 126.573  97.754  0.00  0.00    +0.009 C 
BRANCH  41  42
ATOM     42  C3  UNL     1     142.326 126.711  97.331  0.00  0.00    +0.000 C 
BRANCH  42  44
ATOM     43  C1  UNL     1     143.011 129.092  96.715  0.00  0.00    +0.004 C 
ATOM     44  C2  UNL     1     141.885 128.165  97.143  0.00  0.00    -0.003 C 
ENDBRANCH  42  44
ENDBRANCH  41  42
ENDBRANCH  40  41
ENDBRANCH   1  40
TORSDOF 10
ENDMDL
MODEL 6
REMARK VINA RESULT:    -4.241      5.370      9.359
REMARK INTER + INTRA:          -8.765
REMARK INTER:                  -6.220
REMARK INTRA:                  -2.545
REMARK UNBOUND:                -2.169
REMARK  Name = /home/vital/Documents/PhD_2021/Malaria_codes/data/pdb_ligands_mmv/ligand_17.pdb
REMARK  13 active torsions:
REMARK  status: ('A' for Active; 'I' for Inactive)
REMARK    1  A    between atoms: C1_1  and  C2_2
REMARK    2  A    between atoms: C2_2  and  C3_3
REMARK    3  A    between atoms: C3_3  and  C4_4
REMARK    4  A    between atoms: C4_4  and  C5_5
REMARK    5  A    between atoms: C5_5  and  C6_6
REMARK    6  A    between atoms: C7_9  and  C28_34
REMARK    7  A    between atoms: C9_11  and  O2_12
REMARK    8  A    between atoms: C11_14  and  C20_24
REMARK    9  A    between atoms: C23_27  and  O3_28
REMARK   10  A    between atoms: O3_28  and  C24_29
REMARK   11  A    between atoms: C25_30  and  O4_31
REMARK   12  A    between atoms: O4_31  and  C26_32
REMARK   13  A    between atoms: C31_37  and  C34_40
REMARK                            x       y       z     vdW  Elec       q    Type
REMARK                         _______ _______ _______ _____ _____    ______ ____
ROOT
ATOM      1  C6  UNL     1     143.701 125.292  97.732  0.00  0.00    +0.221 C 
ATOM      2  O1  UNL     1     143.197 124.264  98.184  0.00  0.00    -0.275 OA
ATOM      3  N1  UNL     1     143.412 125.781  96.440  0.00  0.00    -0.258 N 
ATOM      4  C7  UNL     1     142.973 127.180  96.336  0.00  0.00    +0.147 C 
ATOM      5  C8  UNL     1     142.455 127.522  94.959  0.00  0.00    +0.036 C 
ATOM      6  C9  UNL     1     141.221 127.732  94.459  0.00  0.00    +0.102 C 
ATOM      7  C10 UNL     1     140.939 128.346  93.098  0.00  0.00    +0.082 C 
ATOM      8  C11 UNL     1     142.188 128.729  92.269  0.00  0.00    +0.032 C 
ATOM      9  C12 UNL     1     143.346 129.105  93.203  0.00  0.00    +0.064 C 
ATOM     10  C13 UNL     1     143.560 127.874  94.049  0.00  0.00    +0.051 C 
ATOM     11  N2  UNL     1     144.640 127.197  93.871  0.00  0.00    -0.250 NA
ATOM     12  C14 UNL     1     144.781 125.857  94.282  0.00  0.00    +0.086 A 
ATOM     13  C15 UNL     1     145.620 125.133  93.404  0.00  0.00    +0.029 A 
ATOM     14  C16 UNL     1     145.882 123.776  93.557  0.00  0.00    +0.002 A 
ATOM     15  C17 UNL     1     145.290 123.095  94.601  0.00  0.00    +0.002 A 
ATOM     16  C18 UNL     1     144.469 123.785  95.494  0.00  0.00    +0.026 A 
ATOM     17  C19 UNL     1     144.211 125.176  95.385  0.00  0.00    +0.063 A 
ENDROOT
BRANCH   8  18
ATOM     18  C20 UNL     1     141.839 129.778  91.227  0.00  0.00    -0.040 A 
ATOM     19  C21 UNL     1     142.772 130.705  90.749  0.00  0.00    +0.008 A 
ATOM     20  C22 UNL     1     142.404 131.673  89.810  0.00  0.00    +0.049 A 
ATOM     21  C23 UNL     1     141.093 131.739  89.332  0.00  0.00    +0.161 A 
ATOM     22  C25 UNL     1     140.135 130.827  89.815  0.00  0.00    +0.162 A 
ATOM     23  C27 UNL     1     140.517 129.857  90.753  0.00  0.00    +0.053 A 
BRANCH  21  24
ATOM     24  O3  UNL     1     140.647 132.660  88.417  0.00  0.00    -0.491 OA
ATOM     25  C24 UNL     1     141.128 133.990  88.536  0.00  0.00    +0.277 C 
ENDBRANCH  21  24
BRANCH  22  26
ATOM     26  O4  UNL     1     138.864 130.965  89.312  0.00  0.00    -0.491 OA
ATOM     27  C26 UNL     1     138.340 129.900  88.533  0.00  0.00    +0.277 C 
ENDBRANCH  22  26
ENDBRANCH   8  18
BRANCH   4  28
ATOM     28  C28 UNL     1     142.007 127.628  97.450  0.00  0.00    -0.022 A 
ATOM     29  C29 UNL     1     142.087 128.941  97.946  0.00  0.00    +0.006 A 
ATOM     30  C30 UNL     1     141.225 129.379  98.954  0.00  0.00    +0.013 A 
ATOM     31  C31 UNL     1     140.252 128.521  99.485  0.00  0.00    +0.055 A 
ATOM     32  C32 UNL     1     140.163 127.213  98.990  0.00  0.00    +0.013 A 
ATOM     33  C33 UNL     1     141.023 126.776  97.980  0.00  0.00    +0.006 A 
BRANCH  31  34
ATOM     34  C34 UNL     1     139.338 128.996 100.586  0.00  0.00    +0.417 C 
ATOM     35  F1  UNL     1     139.013 130.316 100.495  0.00  0.00    -0.166 F 
ATOM     36  F2  UNL     1     139.878 128.834 101.827  0.00  0.00    -0.166 F 
ATOM     37  F3  UNL     1     138.155 128.320 100.606  0.00  0.00    -0.166 F 
ENDBRANCH  31  34
ENDBRANCH   4  28
BRANCH   6  38
ATOM     38  O2  UNL     1     140.094 127.457  95.206  0.00  0.00    -0.511 OA
ATOM     39  H13 UNL     1     140.247 126.668  95.754  0.00  0.00    +0.292 HD
ENDBRANCH   6  38
BRANCH   1  40
ATOM     40  C5  UNL     1     144.703 126.124  98.531  0.00  0.00    +0.096 C 
BRANCH  40  41
ATOM     41  C4  UNL     1     144.448 126.080 100.039  0.00  0.00    +0.009 C 
BRANCH  41  42
ATOM     42  C3  UNL     1     144.119 127.464 100.611  0.00  0.00    +0.000 C 
BRANCH  42  44
ATOM     43  C1  UNL     1     142.244 126.122 101.708  0.00  0.00    +0.004 C 
ATOM     44  C2  UNL     1     143.008 127.436 101.664  0.00  0.00    -0.003 C 
ENDBRANCH  42  44
ENDBRANCH  41  42
ENDBRANCH  40  41
ENDBRANCH   1  40
TORSDOF 10
ENDMDL
MODEL 7
REMARK VINA RESULT:    -4.181     11.127     16.675
REMARK INTER + INTRA:          -8.672
REMARK INTER:                  -6.152
REMARK INTRA:                  -2.521
REMARK UNBOUND:                -2.169
REMARK  Name = /home/vital/Documents/PhD_2021/Malaria_codes/data/pdb_ligands_mmv/ligand_17.pdb
REMARK  13 active torsions:
REMARK  status: ('A' for Active; 'I' for Inactive)
REMARK    1  A    between atoms: C1_1  and  C2_2
REMARK    2  A    between atoms: C2_2  and  C3_3
REMARK    3  A    between atoms: C3_3  and  C4_4
REMARK    4  A    between atoms: C4_4  and  C5_5
REMARK    5  A    between atoms: C5_5  and  C6_6
REMARK    6  A    between atoms: C7_9  and  C28_34
REMARK    7  A    between atoms: C9_11  and  O2_12
REMARK    8  A    between atoms: C11_14  and  C20_24
REMARK    9  A    between atoms: C23_27  and  O3_28
REMARK   10  A    between atoms: O3_28  and  C24_29
REMARK   11  A    between atoms: C25_30  and  O4_31
REMARK   12  A    between atoms: O4_31  and  C26_32
REMARK   13  A    between atoms: C31_37  and  C34_40
REMARK                            x       y       z     vdW  Elec       q    Type
REMARK                         _______ _______ _______ _____ _____    ______ ____
ROOT
ATOM      1  C6  UNL     1     141.191 129.231  89.744  0.00  0.00    +0.221 C 
ATOM      2  O1  UNL     1     142.339 129.448  89.357  0.00  0.00    -0.275 OA
ATOM      3  N1  UNL     1     140.202 128.653  88.918  0.00  0.00    -0.258 N 
ATOM      4  C7  UNL     1     139.501 127.472  89.441  0.00  0.00    +0.147 C 
ATOM      5  C8  UNL     1     138.655 126.791  88.390  0.00  0.00    +0.036 C 
ATOM      6  C9  UNL     1     138.791 125.649  87.688  0.00  0.00    +0.102 C 
ATOM      7  C10 UNL     1     137.680 125.000  86.880  0.00  0.00    +0.082 C 
ATOM      8  C11 UNL     1     136.325 125.747  86.892  0.00  0.00    +0.032 C 
ATOM      9  C12 UNL     1     136.151 126.503  88.216  0.00  0.00    +0.064 C 
ATOM     10  C13 UNL     1     137.335 127.437  88.273  0.00  0.00    +0.051 C 
ATOM     11  N2  UNL     1     137.117 128.699  88.151  0.00  0.00    -0.250 NA
ATOM     12  C14 UNL     1     138.121 129.619  87.790  0.00  0.00    +0.086 A 
ATOM     13  C15 UNL     1     137.596 130.683  87.023  0.00  0.00    +0.029 A 
ATOM     14  C16 UNL     1     138.388 131.699  86.498  0.00  0.00    +0.002 A 
ATOM     15  C17 UNL     1     139.749 131.667  86.721  0.00  0.00    +0.002 A 
ATOM     16  C18 UNL     1     140.296 130.638  87.488  0.00  0.00    +0.026 A 
ATOM     17  C19 UNL     1     139.510 129.608  88.066  0.00  0.00    +0.063 A 
ENDROOT
BRANCH   8  18
ATOM     18  C20 UNL     1     135.188 124.803  86.539  0.00  0.00    -0.040 A 
ATOM     19  C21 UNL     1     133.927 125.258  86.139  0.00  0.00    +0.008 A 
ATOM     20  C22 UNL     1     132.898 124.356  85.850  0.00  0.00    +0.049 A 
ATOM     21  C23 UNL     1     133.107 122.979  85.961  0.00  0.00    +0.161 A 
ATOM     22  C25 UNL     1     134.364 122.502  86.380  0.00  0.00    +0.162 A 
ATOM     23  C27 UNL     1     135.390 123.416  86.662  0.00  0.00    +0.053 A 
BRANCH  21  24
ATOM     24  O3  UNL     1     132.152 122.028  85.702  0.00  0.00    -0.491 OA
ATOM     25  C24 UNL     1     131.082 121.903  86.627  0.00  0.00    +0.277 C 
ENDBRANCH  21  24
BRANCH  22  26
ATOM     26  O4  UNL     1     134.488 121.138  86.481  0.00  0.00    -0.491 OA
ATOM     27  C26 UNL     1     134.905 120.600  87.727  0.00  0.00    +0.277 C 
ENDBRANCH  22  26
ENDBRANCH   8  18
BRANCH   4  28
ATOM     28  C28 UNL     1     140.404 126.477  90.195  0.00  0.00    -0.022 A 
ATOM     29  C29 UNL     1     139.872 125.737  91.266  0.00  0.00    +0.006 A 
ATOM     30  C30 UNL     1     140.665 124.827  91.970  0.00  0.00    +0.013 A 
ATOM     31  C31 UNL     1     142.005 124.622  91.614  0.00  0.00    +0.055 A 
ATOM     32  C32 UNL     1     142.538 125.351  90.544  0.00  0.00    +0.013 A 
ATOM     33  C33 UNL     1     141.746 126.260  89.839  0.00  0.00    +0.006 A 
BRANCH  31  34
ATOM     34  C34 UNL     1     142.858 123.650  92.391  0.00  0.00    +0.417 C 
ATOM     35  F1  UNL     1     143.986 124.210  92.911  0.00  0.00    -0.166 F 
ATOM     36  F2  UNL     1     143.282 122.599  91.635  0.00  0.00    -0.166 F 
ATOM     37  F3  UNL     1     142.191 123.102  93.445  0.00  0.00    -0.166 F 
ENDBRANCH  31  34
ENDBRANCH   4  28
BRANCH   6  38
ATOM     38  O2  UNL     1     139.970 124.933  87.715  0.00  0.00    -0.511 OA
ATOM     39  H13 UNL     1     139.780 123.990  87.856  0.00  0.00    +0.292 HD
ENDBRANCH   6  38
BRANCH   1  40
ATOM     40  C5  UNL     1     140.729 129.587  91.156  0.00  0.00    +0.096 C 
BRANCH  40  41
ATOM     41  C4  UNL     1     141.820 129.383  92.210  0.00  0.00    +0.009 C 
BRANCH  41  42
ATOM     42  C3  UNL     1     141.416 128.347  93.267  0.00  0.00    +0.000 C 
BRANCH  42  44
ATOM     43  C1  UNL     1     142.207 126.511  94.855  0.00  0.00    +0.004 C 
ATOM     44  C2  UNL     1     142.595 127.520  93.786  0.00  0.00    -0.003 C 
ENDBRANCH  42  44
ENDBRANCH  41  42
ENDBRANCH  40  41
ENDBRANCH   1  40
TORSDOF 10
ENDMDL
MODEL 8
REMARK VINA RESULT:    -4.116      5.404      9.207
REMARK INTER + INTRA:          -8.572
REMARK INTER:                  -6.054
REMARK INTRA:                  -2.518
REMARK UNBOUND:                -2.169
REMARK  Name = /home/vital/Documents/PhD_2021/Malaria_codes/data/pdb_ligands_mmv/ligand_17.pdb
REMARK  13 active torsions:
REMARK  status: ('A' for Active; 'I' for Inactive)
REMARK    1  A    between atoms: C1_1  and  C2_2
REMARK    2  A    between atoms: C2_2  and  C3_3
REMARK    3  A    between atoms: C3_3  and  C4_4
REMARK    4  A    between atoms: C4_4  and  C5_5
REMARK    5  A    between atoms: C5_5  and  C6_6
REMARK    6  A    between atoms: C7_9  and  C28_34
REMARK    7  A    between atoms: C9_11  and  O2_12
REMARK    8  A    between atoms: C11_14  and  C20_24
REMARK    9  A    between atoms: C23_27  and  O3_28
REMARK   10  A    between atoms: O3_28  and  C24_29
REMARK   11  A    between atoms: C25_30  and  O4_31
REMARK   12  A    between atoms: O4_31  and  C26_32
REMARK   13  A    between atoms: C31_37  and  C34_40
REMARK                            x       y       z     vdW  Elec       q    Type
REMARK                         _______ _______ _______ _____ _____    ______ ____
ROOT
ATOM      1  C6  UNL     1     144.209 126.006  98.090  0.00  0.00    +0.221 C 
ATOM      2  O1  UNL     1     143.926 124.953  98.661  0.00  0.00    -0.275 OA
ATOM      3  N1  UNL     1     143.774 126.306  96.781  0.00  0.00    -0.258 N 
ATOM      4  C7  UNL     1     143.079 127.586  96.583  0.00  0.00    +0.147 C 
ATOM      5  C8  UNL     1     142.442 127.693  95.218  0.00  0.00    +0.036 C 
ATOM      6  C9  UNL     1     141.168 127.628  94.782  0.00  0.00    +0.102 C 
ATOM      7  C10 UNL     1     140.714 128.045  93.393  0.00  0.00    +0.082 C 
ATOM      8  C11 UNL     1     141.830 128.563  92.455  0.00  0.00    +0.032 C 
ATOM      9  C12 UNL     1     142.940 129.231  93.276  0.00  0.00    +0.064 C 
ATOM     10  C13 UNL     1     143.419 128.147  94.212  0.00  0.00    +0.051 C 
ATOM     11  N2  UNL     1     144.595 127.662  94.025  0.00  0.00    -0.250 NA
ATOM     12  C14 UNL     1     145.002 126.416  94.541  0.00  0.00    +0.086 A 
ATOM     13  C15 UNL     1     145.918 125.773  93.678  0.00  0.00    +0.029 A 
ATOM     14  C16 UNL     1     146.433 124.506  93.932  0.00  0.00    +0.002 A 
ATOM     15  C17 UNL     1     146.028 123.835  95.067  0.00  0.00    +0.002 A 
ATOM     16  C18 UNL     1     145.136 124.450  95.947  0.00  0.00    +0.026 A 
ATOM     17  C19 UNL     1     144.621 125.755  95.734  0.00  0.00    +0.063 A 
ENDROOT
BRANCH   8  18
ATOM     18  C20 UNL     1     141.244 129.426  91.350  0.00  0.00    -0.040 A 
ATOM     19  C21 UNL     1     140.616 128.883  90.224  0.00  0.00    +0.008 A 
ATOM     20  C22 UNL     1     140.114 129.710  89.214  0.00  0.00    +0.049 A 
ATOM     21  C23 UNL     1     140.235 131.099  89.307  0.00  0.00    +0.161 A 
ATOM     22  C25 UNL     1     140.880 131.663  90.424  0.00  0.00    +0.162 A 
ATOM     23  C27 UNL     1     141.375 130.824  91.433  0.00  0.00    +0.053 A 
BRANCH  21  24
ATOM     24  O3  UNL     1     139.776 131.981  88.360  0.00  0.00    -0.491 OA
ATOM     25  C24 UNL     1     138.655 131.588  87.585  0.00  0.00    +0.277 C 
ENDBRANCH  21  24
BRANCH  22  26
ATOM     26  O4  UNL     1     140.976 133.034  90.436  0.00  0.00    -0.491 OA
ATOM     27  C26 UNL     1     142.256 133.612  90.227  0.00  0.00    +0.277 C 
ENDBRANCH  22  26
ENDBRANCH   8  18
BRANCH   4  28
ATOM     28  C28 UNL     1     142.100 127.960  97.714  0.00  0.00    -0.022 A 
ATOM     29  C29 UNL     1     141.964 129.308  98.091  0.00  0.00    +0.006 A 
ATOM     30  C30 UNL     1     141.085 129.680  99.111  0.00  0.00    +0.013 A 
ATOM     31  C31 UNL     1     140.309 128.717  99.771  0.00  0.00    +0.055 A 
ATOM     32  C32 UNL     1     140.435 127.374  99.395  0.00  0.00    +0.013 A 
ATOM     33  C33 UNL     1     141.312 127.002  98.374  0.00  0.00    +0.006 A 
BRANCH  31  34
ATOM     34  C34 UNL     1     139.375 129.125 100.884  0.00  0.00    +0.417 C 
ATOM     35  F1  UNL     1     139.127 130.465 100.924  0.00  0.00    -0.166 F 
ATOM     36  F2  UNL     1     139.852 128.801 102.119  0.00  0.00    -0.166 F 
ATOM     37  F3  UNL     1     138.158 128.521 100.787  0.00  0.00    -0.166 F 
ENDBRANCH  31  34
ENDBRANCH   4  28
BRANCH   6  38
ATOM     38  O2  UNL     1     140.148 127.229  95.621  0.00  0.00    -0.511 OA
ATOM     39  H13 UNL     1     140.508 127.014  96.499  0.00  0.00    +0.292 HD
ENDBRANCH   6  38
BRANCH   1  40
ATOM     40  C5  UNL     1     145.076 127.079  98.746  0.00  0.00    +0.096 C 
BRANCH  40  41
ATOM     41  C4  UNL     1     144.905 127.137 100.266  0.00  0.00    +0.009 C 
BRANCH  41  42
ATOM     42  C3  UNL     1     144.375 128.496 100.738  0.00  0.00    +0.000 C 
BRANCH  42  44
ATOM     43  C1  UNL     1     142.848 126.970 102.101  0.00  0.00    +0.004 C 
ATOM     44  C2  UNL     1     143.348 128.387 101.868  0.00  0.00    -0.003 C 
ENDBRANCH  42  44
ENDBRANCH  41  42
ENDBRANCH  40  41
ENDBRANCH   1  40
TORSDOF 10
ENDMDL
MODEL 9
REMARK VINA RESULT:    -4.012      7.907     14.758
REMARK INTER + INTRA:          -8.410
REMARK INTER:                  -5.881
REMARK INTRA:                  -2.530
REMARK UNBOUND:                -2.169
REMARK  Name = /home/vital/Documents/PhD_2021/Malaria_codes/data/pdb_ligands_mmv/ligand_17.pdb
REMARK  13 active torsions:
REMARK  status: ('A' for Active; 'I' for Inactive)
REMARK    1  A    between atoms: C1_1  and  C2_2
REMARK    2  A    between atoms: C2_2  and  C3_3
REMARK    3  A    between atoms: C3_3  and  C4_4
REMARK    4  A    between atoms: C4_4  and  C5_5
REMARK    5  A    between atoms: C5_5  and  C6_6
REMARK    6  A    between atoms: C7_9  and  C28_34
REMARK    7  A    between atoms: C9_11  and  O2_12
REMARK    8  A    between atoms: C11_14  and  C20_24
REMARK    9  A    between atoms: C23_27  and  O3_28
REMARK   10  A    between atoms: O3_28  and  C24_29
REMARK   11  A    between atoms: C25_30  and  O4_31
REMARK   12  A    between atoms: O4_31  and  C26_32
REMARK   13  A    between atoms: C31_37  and  C34_40
REMARK                            x       y       z     vdW  Elec       q    Type
REMARK                         _______ _______ _______ _____ _____    ______ ____
ROOT
ATOM      1  C6  UNL     1     141.961 127.888  88.973  0.00  0.00    +0.221 C 
ATOM      2  O1  UNL     1     142.948 127.768  88.248  0.00  0.00    -0.275 OA
ATOM      3  N1  UNL     1     141.965 127.520  90.336  0.00  0.00    -0.258 N 
ATOM      4  C7  UNL     1     141.520 128.532  91.304  0.00  0.00    +0.147 C 
ATOM      5  C8  UNL     1     141.800 128.128  92.733  0.00  0.00    +0.036 C 
ATOM      6  C9  UNL     1     142.705 128.527  93.648  0.00  0.00    +0.102 C 
ATOM      7  C10 UNL     1     142.635 128.191  95.128  0.00  0.00    +0.082 C 
ATOM      8  C11 UNL     1     141.428 127.323  95.557  0.00  0.00    +0.032 C 
ATOM      9  C12 UNL     1     140.229 127.595  94.639  0.00  0.00    +0.064 C 
ATOM     10  C13 UNL     1     140.732 127.258  93.256  0.00  0.00    +0.051 C 
ATOM     11  N2  UNL     1     140.249 126.217  92.674  0.00  0.00    -0.250 NA
ATOM     12  C14 UNL     1     140.891 125.573  91.597  0.00  0.00    +0.086 A 
ATOM     13  C15 UNL     1     140.659 124.179  91.617  0.00  0.00    +0.029 A 
ATOM     14  C16 UNL     1     141.223 123.307  90.692  0.00  0.00    +0.002 A 
ATOM     15  C17 UNL     1     142.057 123.815  89.717  0.00  0.00    +0.002 A 
ATOM     16  C18 UNL     1     142.294 125.189  89.663  0.00  0.00    +0.026 A 
ATOM     17  C19 UNL     1     141.705 126.108  90.570  0.00  0.00    +0.063 A 
ENDROOT
BRANCH   8  18
ATOM     18  C20 UNL     1     141.148 127.488  97.042  0.00  0.00    -0.040 A 
ATOM     19  C21 UNL     1     140.389 126.567  97.772  0.00  0.00    +0.008 A 
ATOM     20  C22 UNL     1     140.131 126.770  99.131  0.00  0.00    +0.049 A 
ATOM     21  C23 UNL     1     140.621 127.902  99.788  0.00  0.00    +0.161 A 
ATOM     22  C25 UNL     1     141.370 128.850  99.064  0.00  0.00    +0.162 A 
ATOM     23  C27 UNL     1     141.628 128.633  97.703  0.00  0.00    +0.053 A 
BRANCH  21  24
ATOM     24  O3  UNL     1     140.409 128.180 101.115  0.00  0.00    -0.491 OA
ATOM     25  C24 UNL     1     141.022 127.329 102.070  0.00  0.00    +0.277 C 
ENDBRANCH  21  24
BRANCH  22  26
ATOM     26  O4  UNL     1     141.803 129.944  99.773  0.00  0.00    -0.491 OA
ATOM     27  C26 UNL     1     141.234 131.206  99.458  0.00  0.00    +0.277 C 
ENDBRANCH  22  26
ENDBRANCH   8  18
BRANCH   4  28
ATOM     28  C28 UNL     1     142.005 129.963  90.998  0.00  0.00    -0.022 A 
ATOM     29  C29 UNL     1     141.186 131.056  91.332  0.00  0.00    +0.006 A 
ATOM     30  C30 UNL     1     141.597 132.365  91.069  0.00  0.00    +0.013 A 
ATOM     31  C31 UNL     1     142.843 132.617  90.477  0.00  0.00    +0.055 A 
ATOM     32  C32 UNL     1     143.666 131.533  90.148  0.00  0.00    +0.013 A 
ATOM     33  C33 UNL     1     143.257 130.224  90.414  0.00  0.00    +0.006 A 
BRANCH  31  34
ATOM     34  C34 UNL     1     143.271 134.032  90.180  0.00  0.00    +0.417 C 
ATOM     35  F1  UNL     1     144.059 134.143  89.074  0.00  0.00    -0.166 F 
ATOM     36  F2  UNL     1     143.983 134.594  91.198  0.00  0.00    -0.166 F 
ATOM     37  F3  UNL     1     142.210 134.861  89.970  0.00  0.00    -0.166 F 
ENDBRANCH  31  34
ENDBRANCH   4  28
BRANCH   6  38
ATOM     38  O2  UNL     1     143.753 129.354  93.300  0.00  0.00    -0.511 OA
ATOM     39  H13 UNL     1     144.098 129.801  94.092  0.00  0.00    +0.292 HD
ENDBRANCH   6  38
BRANCH   1  40
ATOM     40  C5  UNL     1     140.632 128.433  88.454  0.00  0.00    +0.096 C 
BRANCH  40  41
ATOM     41  C4  UNL     1     140.800 129.664  87.559  0.00  0.00    +0.009 C 
BRANCH  41  42
ATOM     42  C3  UNL     1     139.855 130.803  87.958  0.00  0.00    +0.000 C 
BRANCH  42  44
ATOM     43  C1  UNL     1     141.778 132.161  86.969  0.00  0.00    +0.004 C 
ATOM     44  C2  UNL     1     140.402 132.192  87.617  0.00  0.00    -0.003 C 
ENDBRANCH  42  44
ENDBRANCH  41  42
ENDBRANCH  40  41
ENDBRANCH   1  40
TORSDOF 10
ENDMDL
