MODEL 1
REMARK VINA RESULT:    -5.674      0.000      0.000
REMARK INTER + INTRA:          -9.552
REMARK INTER:                  -8.327
REMARK INTRA:                  -1.225
REMARK UNBOUND:                -1.225
REMARK  Name = /home/vital/Documents/PhD_2021/Malaria_codes/data/pdb_ligands_mmv/ligand_240.pdb
REMARK  12 active torsions:
REMARK  status: ('A' for Active; 'I' for Inactive)
REMARK    1  A    between atoms: C1_1  and  O1_2
REMARK    2  A    between atoms: O1_2  and  C2_3
REMARK    3  A    between atoms: C5_6  and  N1_9
REMARK    4  A    between atoms: N2_12  and  C12_15
REMARK    5  A    between atoms: C12_15  and  C13_16
REMARK    6  A    between atoms: C12_15  and  C20_25
REMARK    7  A    between atoms: C13_16  and  N3_17
REMARK    8  A    between atoms: C14_18  and  C15_20
REMARK    9  A    between atoms: C15_20  and  C16_21
REMARK   10  A    between atoms: C16_21  and  C17_22
REMARK   11  A    between atoms: C16_21  and  C18_23
REMARK   12  A    between atoms: C16_21  and  C19_24
REMARK                            x       y       z     vdW  Elec       q    Type
REMARK                         _______ _______ _______ _____ _____    ______ ____
ROOT
ATOM      1  C12 UNL     1     143.083 127.472 101.357  0.00  0.00    +0.104 C 
ENDROOT
BRANCH   1   2
ATOM      2  C20 UNL     1     141.689 127.664 100.743  0.00  0.00    -0.025 A 
ATOM      3  C21 UNL     1     140.729 128.422 101.462  0.00  0.00    +0.009 A 
ATOM      4  C22 UNL     1     139.447 128.657 100.950  0.00  0.00    +0.050 A 
ATOM      5  C23 UNL     1     139.149 128.129  99.715  0.00  0.00    +0.166 A 
ATOM      6  O3  UNL     1     137.965 128.261  99.057  0.00  0.00    -0.453 OA
ATOM      7  C24 UNL     1     138.246 127.526  97.846  0.00  0.00    +0.466 C 
ATOM      8  O4  UNL     1     139.580 126.979  97.803  0.00  0.00    -0.453 OA
ATOM      9  C25 UNL     1     140.069 127.401  99.000  0.00  0.00    +0.167 A 
ATOM     10  C26 UNL     1     141.340 127.157  99.477  0.00  0.00    +0.054 A 
ENDBRANCH   1   2
BRANCH   1  14
ATOM     11  N1  UNL     1     141.239 125.320 104.530  0.00  0.00    -0.327 N 
ATOM     12  C8  UNL     1     141.831 124.497 103.466  0.00  0.00    +0.120 C 
ATOM     13  C9  UNL     1     142.092 125.346 102.202  0.00  0.00    +0.104 C 
ATOM     14  N2  UNL     1     143.042 126.448 102.424  0.00  0.00    -0.291 NA
ATOM     15  C10 UNL     1     142.930 127.011 103.786  0.00  0.00    +0.104 C 
ATOM     16  C11 UNL     1     141.596 126.750 104.530  0.00  0.00    +0.120 C 
BRANCH  11  20
ATOM     17  C2  UNL     1     138.988 123.584 107.681  0.00  0.00    +0.120 A 
ATOM     18  C3  UNL     1     138.498 123.589 106.380  0.00  0.00    +0.047 A 
ATOM     19  C4  UNL     1     139.249 124.167 105.342  0.00  0.00    +0.027 A 
ATOM     20  C5  UNL     1     140.505 124.758 105.561  0.00  0.00    +0.030 A 
ATOM     21  C6  UNL     1     140.974 124.732 106.884  0.00  0.00    +0.027 A 
ATOM     22  C7  UNL     1     140.231 124.160 107.926  0.00  0.00    +0.047 A 
BRANCH  17  24
ATOM     23  C1  UNL     1     138.657 123.668 110.032  0.00  0.00    +0.277 C 
ATOM     24  O1  UNL     1     138.366 123.059 108.778  0.00  0.00    -0.495 OA
ENDBRANCH  17  24
ENDBRANCH  11  20
ENDBRANCH   1  14
BRANCH   1  25
ATOM     25  C13 UNL     1     143.794 128.811 101.735  0.00  0.00    +0.127 C 
BRANCH  25  26
ATOM     26  N3  UNL     1     143.811 129.778 100.644  0.00  0.00    -0.313 N 
ATOM     27  C14 UNL     1     143.411 131.085 100.844  0.00  0.00    +0.214 C 
ATOM     28  O2  UNL     1     142.927 131.472 101.902  0.00  0.00    -0.276 OA
ATOM     29  H19 UNL     1     144.395 129.574  99.842  0.00  0.00    +0.149 HD
BRANCH  27  30
ATOM     30  C15 UNL     1     143.649 131.956  99.618  0.00  0.00    +0.102 C 
BRANCH  30  31
ATOM     31  C16 UNL     1     142.428 132.284  98.726  0.00  0.00    -0.029 C 
ATOM     32  C17 UNL     1     142.867 132.118  97.254  0.00  0.00    +0.011 C 
ATOM     33  C18 UNL     1     141.954 133.733  98.921  0.00  0.00    +0.011 C 
ATOM     34  C19 UNL     1     141.266 131.311  98.988  0.00  0.00    +0.011 C 
ENDBRANCH  30  31
ENDBRANCH  27  30
ENDBRANCH  25  26
ENDBRANCH   1  25
TORSDOF 8
ENDMDL
MODEL 2
REMARK VINA RESULT:    -5.311      0.762      1.538
REMARK INTER + INTRA:          -9.020
REMARK INTER:                  -7.738
REMARK INTRA:                  -1.281
REMARK UNBOUND:                -1.225
REMARK  Name = /home/vital/Documents/PhD_2021/Malaria_codes/data/pdb_ligands_mmv/ligand_240.pdb
REMARK  12 active torsions:
REMARK  status: ('A' for Active; 'I' for Inactive)
REMARK    1  A    between atoms: C1_1  and  O1_2
REMARK    2  A    between atoms: O1_2  and  C2_3
REMARK    3  A    between atoms: C5_6  and  N1_9
REMARK    4  A    between atoms: N2_12  and  C12_15
REMARK    5  A    between atoms: C12_15  and  C13_16
REMARK    6  A    between atoms: C12_15  and  C20_25
REMARK    7  A    between atoms: C13_16  and  N3_17
REMARK    8  A    between atoms: C14_18  and  C15_20
REMARK    9  A    between atoms: C15_20  and  C16_21
REMARK   10  A    between atoms: C16_21  and  C17_22
REMARK   11  A    between atoms: C16_21  and  C18_23
REMARK   12  A    between atoms: C16_21  and  C19_24
REMARK                            x       y       z     vdW  Elec       q    Type
REMARK                         _______ _______ _______ _____ _____    ______ ____
ROOT
ATOM      1  C12 UNL     1     143.741 127.721 101.645  0.00  0.00    +0.104 C 
ENDROOT
BRANCH   1   2
ATOM      2  C20 UNL     1     142.407 127.770 100.886  0.00  0.00    -0.025 A 
ATOM      3  C21 UNL     1     142.347 127.220  99.580  0.00  0.00    +0.009 A 
ATOM      4  C22 UNL     1     141.156 127.211  98.843  0.00  0.00    +0.050 A 
ATOM      5  C23 UNL     1     140.038 127.751  99.433  0.00  0.00    +0.166 A 
ATOM      6  O3  UNL     1     138.798 127.821  98.876  0.00  0.00    -0.453 OA
ATOM      7  C24 UNL     1     138.060 128.461  99.940  0.00  0.00    +0.466 C 
ATOM      8  O4  UNL     1     138.864 128.754 101.101  0.00  0.00    -0.453 OA
ATOM      9  C25 UNL     1     140.075 128.281 100.700  0.00  0.00    +0.167 A 
ATOM     10  C26 UNL     1     141.231 128.300 101.452  0.00  0.00    +0.054 A 
ENDBRANCH   1   2
BRANCH   1  14
ATOM     11  N1  UNL     1     141.708 125.557 104.690  0.00  0.00    -0.327 N 
ATOM     12  C8  UNL     1     142.540 124.750 103.787  0.00  0.00    +0.120 C 
ATOM     13  C9  UNL     1     142.886 125.545 102.509  0.00  0.00    +0.104 C 
ATOM     14  N2  UNL     1     143.660 126.768 102.773  0.00  0.00    -0.291 NA
ATOM     15  C10 UNL     1     143.286 127.395 104.057  0.00  0.00    +0.104 C 
ATOM     16  C11 UNL     1     141.896 127.017 104.627  0.00  0.00    +0.120 C 
BRANCH  11  20
ATOM     17  C2  UNL     1     139.232 123.779 107.643  0.00  0.00    +0.120 A 
ATOM     18  C3  UNL     1     140.518 124.203 107.959  0.00  0.00    +0.047 A 
ATOM     19  C4  UNL     1     141.332 124.790 106.974  0.00  0.00    +0.027 A 
ATOM     20  C5  UNL     1     140.899 124.973 105.651  0.00  0.00    +0.030 A 
ATOM     21  C6  UNL     1     139.595 124.539 105.365  0.00  0.00    +0.027 A 
ATOM     22  C7  UNL     1     138.776 123.951 106.339  0.00  0.00    +0.047 A 
BRANCH  17  24
ATOM     23  C1  UNL     1     138.489 123.493 109.881  0.00  0.00    +0.277 C 
ATOM     24  O1  UNL     1     138.339 123.196 108.497  0.00  0.00    -0.495 OA
ENDBRANCH  17  24
ENDBRANCH  11  20
ENDBRANCH   1  14
BRANCH   1  25
ATOM     25  C13 UNL     1     144.319 129.130 101.992  0.00  0.00    +0.127 C 
BRANCH  25  26
ATOM     26  N3  UNL     1     144.370 130.028 100.845  0.00  0.00    -0.313 N 
ATOM     27  C14 UNL     1     143.741 131.258 100.874  0.00  0.00    +0.214 C 
ATOM     28  O2  UNL     1     143.029 131.612 101.807  0.00  0.00    -0.276 OA
ATOM     29  H19 UNL     1     145.107 129.884 100.165  0.00  0.00    +0.149 HD
BRANCH  27  30
ATOM     30  C15 UNL     1     144.044 132.091  99.637  0.00  0.00    +0.102 C 
BRANCH  30  31
ATOM     31  C16 UNL     1     142.902 132.293  98.612  0.00  0.00    -0.029 C 
ATOM     32  C17 UNL     1     143.543 132.383  97.210  0.00  0.00    +0.011 C 
ATOM     33  C18 UNL     1     142.132 133.598  98.869  0.00  0.00    +0.011 C 
ATOM     34  C19 UNL     1     141.931 131.100  98.615  0.00  0.00    +0.011 C 
ENDBRANCH  30  31
ENDBRANCH  27  30
ENDBRANCH  25  26
ENDBRANCH   1  25
TORSDOF 8
ENDMDL
MODEL 3
REMARK VINA RESULT:    -4.835      3.025      9.922
REMARK INTER + INTRA:          -8.321
REMARK INTER:                  -7.086
REMARK INTRA:                  -1.235
REMARK UNBOUND:                -1.225
REMARK  Name = /home/vital/Documents/PhD_2021/Malaria_codes/data/pdb_ligands_mmv/ligand_240.pdb
REMARK  12 active torsions:
REMARK  status: ('A' for Active; 'I' for Inactive)
REMARK    1  A    between atoms: C1_1  and  O1_2
REMARK    2  A    between atoms: O1_2  and  C2_3
REMARK    3  A    between atoms: C5_6  and  N1_9
REMARK    4  A    between atoms: N2_12  and  C12_15
REMARK    5  A    between atoms: C12_15  and  C13_16
REMARK    6  A    between atoms: C12_15  and  C20_25
REMARK    7  A    between atoms: C13_16  and  N3_17
REMARK    8  A    between atoms: C14_18  and  C15_20
REMARK    9  A    between atoms: C15_20  and  C16_21
REMARK   10  A    between atoms: C16_21  and  C17_22
REMARK   11  A    between atoms: C16_21  and  C18_23
REMARK   12  A    between atoms: C16_21  and  C19_24
REMARK                            x       y       z     vdW  Elec       q    Type
REMARK                         _______ _______ _______ _____ _____    ______ ____
ROOT
ATOM      1  C12 UNL     1     143.068 130.944 101.170  0.00  0.00    +0.104 C 
ENDROOT
BRANCH   1   2
ATOM      2  C20 UNL     1     141.851 130.162 100.657  0.00  0.00    -0.025 A 
ATOM      3  C21 UNL     1     140.555 130.593 101.041  0.00  0.00    +0.009 A 
ATOM      4  C22 UNL     1     139.401 129.940 100.590  0.00  0.00    +0.050 A 
ATOM      5  C23 UNL     1     139.567 128.863  99.751  0.00  0.00    +0.166 A 
ATOM      6  O3  UNL     1     138.568 128.116  99.207  0.00  0.00    -0.453 OA
ATOM      7  C24 UNL     1     139.332 127.166  98.432  0.00  0.00    +0.466 C 
ATOM      8  O4  UNL     1     140.758 127.365  98.524  0.00  0.00    -0.453 OA
ATOM      9  C25 UNL     1     140.813 128.437  99.361  0.00  0.00    +0.167 A 
ATOM     10  C26 UNL     1     141.967 129.063  99.785  0.00  0.00    +0.054 A 
ENDBRANCH   1   2
BRANCH   1  14
ATOM     11  N1  UNL     1     143.700 132.269  97.177  0.00  0.00    -0.327 N 
ATOM     12  C8  UNL     1     143.026 133.228  98.065  0.00  0.00    +0.120 C 
ATOM     13  C9  UNL     1     142.487 132.517  99.326  0.00  0.00    +0.104 C 
ATOM     14  N2  UNL     1     143.542 131.897 100.143  0.00  0.00    -0.291 NA
ATOM     15  C10 UNL     1     144.651 131.379  99.316  0.00  0.00    +0.104 C 
ATOM     16  C11 UNL     1     144.328 131.105  97.826  0.00  0.00    +0.120 C 
BRANCH  11  20
ATOM     17  C2  UNL     1     144.217 133.033  93.035  0.00  0.00    +0.120 A 
ATOM     18  C3  UNL     1     145.160 133.469  93.959  0.00  0.00    +0.047 A 
ATOM     19  C4  UNL     1     144.980 133.213  95.329  0.00  0.00    +0.027 A 
ATOM     20  C5  UNL     1     143.864 132.521  95.825  0.00  0.00    +0.030 A 
ATOM     21  C6  UNL     1     142.933 132.089  94.868  0.00  0.00    +0.027 A 
ATOM     22  C7  UNL     1     143.102 132.342  93.499  0.00  0.00    +0.047 A 
BRANCH  17  24
ATOM     23  C1  UNL     1     143.018 133.329  91.005  0.00  0.00    +0.277 C 
ATOM     24  O1  UNL     1     144.266 133.213  91.681  0.00  0.00    -0.495 OA
ENDBRANCH  17  24
ENDBRANCH  11  20
ENDBRANCH   1  14
BRANCH   1  25
ATOM     25  C13 UNL     1     144.171 130.041 101.812  0.00  0.00    +0.127 C 
BRANCH  25  26
ATOM     26  N3  UNL     1     143.663 129.189 102.880  0.00  0.00    -0.313 N 
ATOM     27  C14 UNL     1     143.908 127.829 102.884  0.00  0.00    +0.214 C 
ATOM     28  O2  UNL     1     144.463 127.257 101.954  0.00  0.00    -0.276 OA
ATOM     29  H19 UNL     1     143.405 129.631 103.754  0.00  0.00    +0.149 HD
BRANCH  27  30
ATOM     30  C15 UNL     1     143.418 127.159 104.160  0.00  0.00    +0.102 C 
BRANCH  30  31
ATOM     31  C16 UNL     1     142.122 126.318 104.075  0.00  0.00    -0.029 C 
ATOM     32  C17 UNL     1     141.305 126.587 105.358  0.00  0.00    +0.011 C 
ATOM     33  C18 UNL     1     142.424 124.812 104.009  0.00  0.00    +0.011 C 
ATOM     34  C19 UNL     1     141.264 126.735 102.868  0.00  0.00    +0.011 C 
ENDBRANCH  30  31
ENDBRANCH  27  30
ENDBRANCH  25  26
ENDBRANCH   1  25
TORSDOF 8
ENDMDL
MODEL 4
REMARK VINA RESULT:    -4.747      3.536     10.390
REMARK INTER + INTRA:          -8.192
REMARK INTER:                  -7.009
REMARK INTRA:                  -1.183
REMARK UNBOUND:                -1.225
REMARK  Name = /home/vital/Documents/PhD_2021/Malaria_codes/data/pdb_ligands_mmv/ligand_240.pdb
REMARK  12 active torsions:
REMARK  status: ('A' for Active; 'I' for Inactive)
REMARK    1  A    between atoms: C1_1  and  O1_2
REMARK    2  A    between atoms: O1_2  and  C2_3
REMARK    3  A    between atoms: C5_6  and  N1_9
REMARK    4  A    between atoms: N2_12  and  C12_15
REMARK    5  A    between atoms: C12_15  and  C13_16
REMARK    6  A    between atoms: C12_15  and  C20_25
REMARK    7  A    between atoms: C13_16  and  N3_17
REMARK    8  A    between atoms: C14_18  and  C15_20
REMARK    9  A    between atoms: C15_20  and  C16_21
REMARK   10  A    between atoms: C16_21  and  C17_22
REMARK   11  A    between atoms: C16_21  and  C18_23
REMARK   12  A    between atoms: C16_21  and  C19_24
REMARK                            x       y       z     vdW  Elec       q    Type
REMARK                         _______ _______ _______ _____ _____    ______ ____
ROOT
ATOM      1  C12 UNL     1     143.113 130.646 100.194  0.00  0.00    +0.104 C 
ENDROOT
BRANCH   1   2
ATOM      2  C20 UNL     1     141.762 130.007  99.842  0.00  0.00    -0.025 A 
ATOM      3  C21 UNL     1     140.606 130.431 100.546  0.00  0.00    +0.009 A 
ATOM      4  C22 UNL     1     139.339 129.908 100.259  0.00  0.00    +0.050 A 
ATOM      5  C23 UNL     1     139.252 128.966  99.260  0.00  0.00    +0.166 A 
ATOM      6  O3  UNL     1     138.111 128.356  98.838  0.00  0.00    -0.453 OA
ATOM      7  C24 UNL     1     138.630 127.504  97.794  0.00  0.00    +0.466 C 
ATOM      8  O4  UNL     1     140.057 127.623  97.613  0.00  0.00    -0.453 OA
ATOM      9  C25 UNL     1     140.359 128.550  98.562  0.00  0.00    +0.167 A 
ATOM     10  C26 UNL     1     141.618 129.051  98.819  0.00  0.00    +0.054 A 
ENDBRANCH   1   2
BRANCH   1  14
ATOM     11  N1  UNL     1     144.860 133.914  98.105  0.00  0.00    -0.327 N 
ATOM     12  C8  UNL     1     145.597 132.645  98.027  0.00  0.00    +0.120 C 
ATOM     13  C9  UNL     1     145.120 131.669  99.126  0.00  0.00    +0.104 C 
ATOM     14  N2  UNL     1     143.698 131.308  99.008  0.00  0.00    -0.291 NA
ATOM     15  C10 UNL     1     142.883 132.425  98.487  0.00  0.00    +0.104 C 
ATOM     16  C11 UNL     1     143.487 133.844  98.635  0.00  0.00    +0.120 C 
BRANCH  11  20
ATOM     17  C2  UNL     1     146.417 137.504  96.461  0.00  0.00    +0.120 A 
ATOM     18  C3  UNL     1     146.336 136.349  95.691  0.00  0.00    +0.047 A 
ATOM     19  C4  UNL     1     145.820 135.164  96.244  0.00  0.00    +0.027 A 
ATOM     20  C5  UNL     1     145.371 135.086  97.572  0.00  0.00    +0.030 A 
ATOM     21  C6  UNL     1     145.461 136.269  98.322  0.00  0.00    +0.027 A 
ATOM     22  C7  UNL     1     145.976 137.455  97.781  0.00  0.00    +0.047 A 
BRANCH  17  24
ATOM     23  C1  UNL     1     146.152 139.864  96.452  0.00  0.00    +0.277 C 
ATOM     24  O1  UNL     1     146.894 138.717  96.053  0.00  0.00    -0.495 OA
ENDBRANCH  17  24
ENDBRANCH  11  20
ENDBRANCH   1  14
BRANCH   1  25
ATOM     25  C13 UNL     1     144.074 129.694 100.977  0.00  0.00    +0.127 C 
BRANCH  25  26
ATOM     26  N3  UNL     1     143.469 129.128 102.176  0.00  0.00    -0.313 N 
ATOM     27  C14 UNL     1     143.776 127.848 102.594  0.00  0.00    +0.214 C 
ATOM     28  O2  UNL     1     144.479 127.091 101.934  0.00  0.00    -0.276 OA
ATOM     29  H19 UNL     1     143.074 129.770 102.853  0.00  0.00    +0.149 HD
BRANCH  27  30
ATOM     30  C15 UNL     1     143.151 127.514 103.941  0.00  0.00    +0.102 C 
BRANCH  30  31
ATOM     31  C16 UNL     1     142.030 126.449 103.966  0.00  0.00    -0.029 C 
ATOM     32  C17 UNL     1     141.226 126.646 105.270  0.00  0.00    +0.011 C 
ATOM     33  C18 UNL     1     142.600 125.022 103.969  0.00  0.00    +0.011 C 
ATOM     34  C19 UNL     1     141.064 126.626 102.782  0.00  0.00    +0.011 C 
ENDBRANCH  30  31
ENDBRANCH  27  30
ENDBRANCH  25  26
ENDBRANCH   1  25
TORSDOF 8
ENDMDL
MODEL 5
REMARK VINA RESULT:    -4.576      1.616      2.239
REMARK INTER + INTRA:          -7.941
REMARK INTER:                  -6.379
REMARK INTRA:                  -1.561
REMARK UNBOUND:                -1.225
REMARK  Name = /home/vital/Documents/PhD_2021/Malaria_codes/data/pdb_ligands_mmv/ligand_240.pdb
REMARK  12 active torsions:
REMARK  status: ('A' for Active; 'I' for Inactive)
REMARK    1  A    between atoms: C1_1  and  O1_2
REMARK    2  A    between atoms: O1_2  and  C2_3
REMARK    3  A    between atoms: C5_6  and  N1_9
REMARK    4  A    between atoms: N2_12  and  C12_15
REMARK    5  A    between atoms: C12_15  and  C13_16
REMARK    6  A    between atoms: C12_15  and  C20_25
REMARK    7  A    between atoms: C13_16  and  N3_17
REMARK    8  A    between atoms: C14_18  and  C15_20
REMARK    9  A    between atoms: C15_20  and  C16_21
REMARK   10  A    between atoms: C16_21  and  C17_22
REMARK   11  A    between atoms: C16_21  and  C18_23
REMARK   12  A    between atoms: C16_21  and  C19_24
REMARK                            x       y       z     vdW  Elec       q    Type
REMARK                         _______ _______ _______ _____ _____    ______ ____
ROOT
ATOM      1  C12 UNL     1     142.796 126.959 101.555  0.00  0.00    +0.104 C 
ENDROOT
BRANCH   1   2
ATOM      2  C20 UNL     1     142.032 127.118 100.233  0.00  0.00    -0.025 A 
ATOM      3  C21 UNL     1     140.690 127.575 100.274  0.00  0.00    +0.009 A 
ATOM      4  C22 UNL     1     139.944 127.766  99.105  0.00  0.00    +0.050 A 
ATOM      5  C23 UNL     1     140.562 127.499  97.905  0.00  0.00    +0.166 A 
ATOM      6  O3  UNL     1     140.002 127.634  96.673  0.00  0.00    -0.453 OA
ATOM      7  C24 UNL     1     141.102 127.230  95.829  0.00  0.00    +0.466 C 
ATOM      8  O4  UNL     1     142.288 126.868  96.567  0.00  0.00    -0.453 OA
ATOM      9  C25 UNL     1     141.864 127.064  97.845  0.00  0.00    +0.167 A 
ATOM     10  C26 UNL     1     142.625 126.872  98.980  0.00  0.00    +0.054 A 
ENDBRANCH   1   2
BRANCH   1  14
ATOM     11  N1  UNL     1     141.681 125.283 105.303  0.00  0.00    -0.327 N 
ATOM     12  C8  UNL     1     141.417 126.721 105.147  0.00  0.00    +0.120 C 
ATOM     13  C9  UNL     1     142.215 127.295 103.956  0.00  0.00    +0.104 C 
ATOM     14  N2  UNL     1     141.858 126.685 102.665  0.00  0.00    -0.291 NA
ATOM     15  C10 UNL     1     141.500 125.259 102.806  0.00  0.00    +0.104 C 
ATOM     16  C11 UNL     1     142.021 124.542 104.076  0.00  0.00    +0.120 C 
BRANCH  11  20
ATOM     17  C2  UNL     1     141.049 123.301 109.002  0.00  0.00    +0.120 A 
ATOM     18  C3  UNL     1     141.247 124.677 108.960  0.00  0.00    +0.047 A 
ATOM     19  C4  UNL     1     141.458 125.325 107.731  0.00  0.00    +0.027 A 
ATOM     20  C5  UNL     1     141.479 124.633 106.509  0.00  0.00    +0.030 A 
ATOM     21  C6  UNL     1     141.271 123.247 106.584  0.00  0.00    +0.027 A 
ATOM     22  C7  UNL     1     141.063 122.591 107.805  0.00  0.00    +0.047 A 
BRANCH  17  24
ATOM     23  C1  UNL     1     139.754 121.623 110.074  0.00  0.00    +0.277 C 
ATOM     24  O1  UNL     1     140.835 122.548 110.121  0.00  0.00    -0.495 OA
ENDBRANCH  17  24
ENDBRANCH  11  20
ENDBRANCH   1  14
BRANCH   1  25
ATOM     25  C13 UNL     1     143.840 128.091 101.819  0.00  0.00    +0.127 C 
BRANCH  25  26
ATOM     26  N3  UNL     1     143.284 129.430 101.668  0.00  0.00    -0.313 N 
ATOM     27  C14 UNL     1     143.894 130.368 100.858  0.00  0.00    +0.214 C 
ATOM     28  O2  UNL     1     144.973 130.167 100.314  0.00  0.00    -0.276 OA
ATOM     29  H19 UNL     1     142.309 129.565 101.906  0.00  0.00    +0.149 HD
BRANCH  27  30
ATOM     30  C15 UNL     1     143.070 131.641 100.728  0.00  0.00    +0.102 C 
BRANCH  30  31
ATOM     31  C16 UNL     1     141.975 131.677  99.635  0.00  0.00    -0.029 C 
ATOM     32  C17 UNL     1     141.851 133.137  99.145  0.00  0.00    +0.011 C 
ATOM     33  C18 UNL     1     140.608 131.242 100.185  0.00  0.00    +0.011 C 
ATOM     34  C19 UNL     1     142.360 130.802  98.430  0.00  0.00    +0.011 C 
ENDBRANCH  30  31
ENDBRANCH  27  30
ENDBRANCH  25  26
ENDBRANCH   1  25
TORSDOF 8
ENDMDL
MODEL 6
REMARK VINA RESULT:    -4.571      2.512      5.764
REMARK INTER + INTRA:          -7.933
REMARK INTER:                  -6.626
REMARK INTRA:                  -1.307
REMARK UNBOUND:                -1.225
REMARK  Name = /home/vital/Documents/PhD_2021/Malaria_codes/data/pdb_ligands_mmv/ligand_240.pdb
REMARK  12 active torsions:
REMARK  status: ('A' for Active; 'I' for Inactive)
REMARK    1  A    between atoms: C1_1  and  O1_2
REMARK    2  A    between atoms: O1_2  and  C2_3
REMARK    3  A    between atoms: C5_6  and  N1_9
REMARK    4  A    between atoms: N2_12  and  C12_15
REMARK    5  A    between atoms: C12_15  and  C13_16
REMARK    6  A    between atoms: C12_15  and  C20_25
REMARK    7  A    between atoms: C13_16  and  N3_17
REMARK    8  A    between atoms: C14_18  and  C15_20
REMARK    9  A    between atoms: C15_20  and  C16_21
REMARK   10  A    between atoms: C16_21  and  C17_22
REMARK   11  A    between atoms: C16_21  and  C18_23
REMARK   12  A    between atoms: C16_21  and  C19_24
REMARK                            x       y       z     vdW  Elec       q    Type
REMARK                         _______ _______ _______ _____ _____    ______ ____
ROOT
ATOM      1  C12 UNL     1     141.855 129.906  99.177  0.00  0.00    +0.104 C 
ENDROOT
BRANCH   1   2
ATOM      2  C20 UNL     1     142.442 131.298  98.903  0.00  0.00    -0.025 A 
ATOM      3  C21 UNL     1     141.679 132.439  99.260  0.00  0.00    +0.009 A 
ATOM      4  C22 UNL     1     142.164 133.737  99.061  0.00  0.00    +0.050 A 
ATOM      5  C23 UNL     1     143.417 133.871  98.507  0.00  0.00    +0.166 A 
ATOM      6  O3  UNL     1     144.052 135.046  98.250  0.00  0.00    -0.453 OA
ATOM      7  C24 UNL     1     145.297 134.564  97.699  0.00  0.00    +0.466 C 
ATOM      8  O4  UNL     1     145.381 133.125  97.643  0.00  0.00    -0.453 OA
ATOM      9  C25 UNL     1     144.174 132.778  98.163  0.00  0.00    +0.167 A 
ATOM     10  C26 UNL     1     143.724 131.487  98.352  0.00  0.00    +0.054 A 
ENDBRANCH   1   2
BRANCH   1  14
ATOM     11  N1  UNL     1     141.549 127.396 102.597  0.00  0.00    -0.327 N 
ATOM     12  C8  UNL     1     142.712 128.295 102.572  0.00  0.00    +0.120 C 
ATOM     13  C9  UNL     1     142.949 128.839 101.146  0.00  0.00    +0.104 C 
ATOM     14  N2  UNL     1     141.824 129.634 100.630  0.00  0.00    -0.291 NA
ATOM     15  C10 UNL     1     140.522 129.132 101.114  0.00  0.00    +0.104 C 
ATOM     16  C11 UNL     1     140.491 127.664 101.608  0.00  0.00    +0.120 C 
BRANCH  11  20
ATOM     17  C2  UNL     1     141.066 124.469 105.632  0.00  0.00    +0.120 A 
ATOM     18  C3  UNL     1     141.127 124.098 104.294  0.00  0.00    +0.047 A 
ATOM     19  C4  UNL     1     141.285 125.074 103.295  0.00  0.00    +0.027 A 
ATOM     20  C5  UNL     1     141.388 126.443 103.590  0.00  0.00    +0.030 A 
ATOM     21  C6  UNL     1     141.328 126.785 104.950  0.00  0.00    +0.027 A 
ATOM     22  C7  UNL     1     141.168 125.820 105.953  0.00  0.00    +0.047 A 
BRANCH  17  24
ATOM     23  C1  UNL     1     141.025 124.212 107.993  0.00  0.00    +0.277 C 
ATOM     24  O1  UNL     1     140.915 123.629 106.699  0.00  0.00    -0.495 OA
ENDBRANCH  17  24
ENDBRANCH  11  20
ENDBRANCH   1  14
BRANCH   1  25
ATOM     25  C13 UNL     1     142.478 128.777  98.293  0.00  0.00    +0.127 C 
BRANCH  25  26
ATOM     26  N3  UNL     1     141.506 127.771  97.880  0.00  0.00    -0.313 N 
ATOM     27  C14 UNL     1     141.909 126.599  97.270  0.00  0.00    +0.214 C 
ATOM     28  O2  UNL     1     143.073 126.389  96.951  0.00  0.00    -0.276 OA
ATOM     29  H19 UNL     1     140.590 127.795  98.311  0.00  0.00    +0.149 HD
BRANCH  27  30
ATOM     30  C15 UNL     1     140.753 125.631  97.059  0.00  0.00    +0.102 C 
BRANCH  30  31
ATOM     31  C16 UNL     1     140.762 124.318  97.877  0.00  0.00    -0.029 C 
ATOM     32  C17 UNL     1     139.321 123.762  97.885  0.00  0.00    +0.011 C 
ATOM     33  C18 UNL     1     141.187 124.558  99.335  0.00  0.00    +0.011 C 
ATOM     34  C19 UNL     1     141.675 123.262  97.231  0.00  0.00    +0.011 C 
ENDBRANCH  30  31
ENDBRANCH  27  30
ENDBRANCH  25  26
ENDBRANCH   1  25
TORSDOF 8
ENDMDL
MODEL 7
REMARK VINA RESULT:    -4.480      2.620      5.278
REMARK INTER + INTRA:          -7.800
REMARK INTER:                  -7.066
REMARK INTRA:                  -0.733
REMARK UNBOUND:                -1.225
REMARK  Name = /home/vital/Documents/PhD_2021/Malaria_codes/data/pdb_ligands_mmv/ligand_240.pdb
REMARK  12 active torsions:
REMARK  status: ('A' for Active; 'I' for Inactive)
REMARK    1  A    between atoms: C1_1  and  O1_2
REMARK    2  A    between atoms: O1_2  and  C2_3
REMARK    3  A    between atoms: C5_6  and  N1_9
REMARK    4  A    between atoms: N2_12  and  C12_15
REMARK    5  A    between atoms: C12_15  and  C13_16
REMARK    6  A    between atoms: C12_15  and  C20_25
REMARK    7  A    between atoms: C13_16  and  N3_17
REMARK    8  A    between atoms: C14_18  and  C15_20
REMARK    9  A    between atoms: C15_20  and  C16_21
REMARK   10  A    between atoms: C16_21  and  C17_22
REMARK   11  A    between atoms: C16_21  and  C18_23
REMARK   12  A    between atoms: C16_21  and  C19_24
REMARK                            x       y       z     vdW  Elec       q    Type
REMARK                         _______ _______ _______ _____ _____    ______ ____
ROOT
ATOM      1  C12 UNL     1     144.158 131.085  99.100  0.00  0.00    +0.104 C 
ENDROOT
BRANCH   1   2
ATOM      2  C20 UNL     1     144.327 130.818  97.597  0.00  0.00    -0.025 A 
ATOM      3  C21 UNL     1     145.562 130.295  97.136  0.00  0.00    +0.009 A 
ATOM      4  C22 UNL     1     145.776 130.005  95.782  0.00  0.00    +0.050 A 
ATOM      5  C23 UNL     1     144.739 130.241  94.910  0.00  0.00    +0.166 A 
ATOM      6  O3  UNL     1     144.759 130.013  93.569  0.00  0.00    -0.453 OA
ATOM      7  C24 UNL     1     143.425 130.430  93.204  0.00  0.00    +0.466 C 
ATOM      8  O4  UNL     1     142.641 130.891  94.324  0.00  0.00    -0.453 OA
ATOM      9  C25 UNL     1     143.533 130.739  95.340  0.00  0.00    +0.167 A 
ATOM     10  C26 UNL     1     143.292 131.029  96.667  0.00  0.00    +0.054 A 
ENDBRANCH   1   2
BRANCH   1  14
ATOM     11  N1  UNL     1     143.266 127.955 101.839  0.00  0.00    -0.327 N 
ATOM     12  C8  UNL     1     143.816 127.527 100.544  0.00  0.00    +0.120 C 
ATOM     13  C9  UNL     1     143.713 128.666  99.506  0.00  0.00    +0.104 C 
ATOM     14  N2  UNL     1     144.473 129.869  99.881  0.00  0.00    -0.291 NA
ATOM     15  C10 UNL     1     144.484 130.085 101.342  0.00  0.00    +0.104 C 
ATOM     16  C11 UNL     1     143.357 129.392 102.148  0.00  0.00    +0.120 C 
BRANCH  11  20
ATOM     17  C2  UNL     1     141.918 125.142 104.717  0.00  0.00    +0.120 A 
ATOM     18  C3  UNL     1     142.542 124.717 103.550  0.00  0.00    +0.047 A 
ATOM     19  C4  UNL     1     142.985 125.655 102.601  0.00  0.00    +0.027 A 
ATOM     20  C5  UNL     1     142.821 127.039 102.778  0.00  0.00    +0.030 A 
ATOM     21  C6  UNL     1     142.192 127.436 103.968  0.00  0.00    +0.027 A 
ATOM     22  C7  UNL     1     141.746 126.508 104.919  0.00  0.00    +0.047 A 
BRANCH  17  24
ATOM     23  C1  UNL     1     140.164 123.750 105.509  0.00  0.00    +0.277 C 
ATOM     24  O1  UNL     1     141.441 124.343 105.717  0.00  0.00    -0.495 OA
ENDBRANCH  17  24
ENDBRANCH  11  20
ENDBRANCH   1  14
BRANCH   1  25
ATOM     25  C13 UNL     1     142.812 131.790  99.465  0.00  0.00    +0.127 C 
BRANCH  25  26
ATOM     26  N3  UNL     1     141.637 131.044  99.031  0.00  0.00    -0.313 N 
ATOM     27  C14 UNL     1     140.617 130.743  99.913  0.00  0.00    +0.214 C 
ATOM     28  O2  UNL     1     140.689 130.990 101.111  0.00  0.00    -0.276 OA
ATOM     29  H19 UNL     1     141.434 131.019  98.038  0.00  0.00    +0.149 HD
BRANCH  27  30
ATOM     30  C15 UNL     1     139.428 130.094  99.220  0.00  0.00    +0.102 C 
BRANCH  30  31
ATOM     31  C16 UNL     1     138.988 128.695  99.714  0.00  0.00    -0.029 C 
ATOM     32  C17 UNL     1     138.061 128.089  98.638  0.00  0.00    +0.011 C 
ATOM     33  C18 UNL     1     138.199 128.779 101.031  0.00  0.00    +0.011 C 
ATOM     34  C19 UNL     1     140.196 127.757  99.884  0.00  0.00    +0.011 C 
ENDBRANCH  30  31
ENDBRANCH  27  30
ENDBRANCH  25  26
ENDBRANCH   1  25
TORSDOF 8
ENDMDL
MODEL 8
REMARK VINA RESULT:    -4.281      3.229      9.955
REMARK INTER + INTRA:          -7.507
REMARK INTER:                  -6.243
REMARK INTRA:                  -1.264
REMARK UNBOUND:                -1.225
REMARK  Name = /home/vital/Documents/PhD_2021/Malaria_codes/data/pdb_ligands_mmv/ligand_240.pdb
REMARK  12 active torsions:
REMARK  status: ('A' for Active; 'I' for Inactive)
REMARK    1  A    between atoms: C1_1  and  O1_2
REMARK    2  A    between atoms: O1_2  and  C2_3
REMARK    3  A    between atoms: C5_6  and  N1_9
REMARK    4  A    between atoms: N2_12  and  C12_15
REMARK    5  A    between atoms: C12_15  and  C13_16
REMARK    6  A    between atoms: C12_15  and  C20_25
REMARK    7  A    between atoms: C13_16  and  N3_17
REMARK    8  A    between atoms: C14_18  and  C15_20
REMARK    9  A    between atoms: C15_20  and  C16_21
REMARK   10  A    between atoms: C16_21  and  C17_22
REMARK   11  A    between atoms: C16_21  and  C18_23
REMARK   12  A    between atoms: C16_21  and  C19_24
REMARK                            x       y       z     vdW  Elec       q    Type
REMARK                         _______ _______ _______ _____ _____    ______ ____
ROOT
ATOM      1  C12 UNL     1     143.550 130.709 100.275  0.00  0.00    +0.104 C 
ENDROOT
BRANCH   1   2
ATOM      2  C20 UNL     1     142.135 130.131 100.130  0.00  0.00    -0.025 A 
ATOM      3  C21 UNL     1     141.096 130.667 100.934  0.00  0.00    +0.009 A 
ATOM      4  C22 UNL     1     139.779 130.203 100.835  0.00  0.00    +0.050 A 
ATOM      5  C23 UNL     1     139.522 129.207  99.921  0.00  0.00    +0.166 A 
ATOM      6  O3  UNL     1     138.308 128.641  99.680  0.00  0.00    -0.453 OA
ATOM      7  C24 UNL     1     138.652 127.696  98.644  0.00  0.00    +0.466 C 
ATOM      8  O4  UNL     1     140.050 127.718  98.288  0.00  0.00    -0.453 OA
ATOM      9  C25 UNL     1     140.513 128.682  99.128  0.00  0.00    +0.167 A 
ATOM     10  C26 UNL     1     141.819 129.123  99.200  0.00  0.00    +0.054 A 
ENDBRANCH   1   2
BRANCH   1  14
ATOM     11  N1  UNL     1     143.430 131.447  96.087  0.00  0.00    -0.327 N 
ATOM     12  C8  UNL     1     143.254 132.628  96.945  0.00  0.00    +0.120 C 
ATOM     13  C9  UNL     1     142.904 132.206  98.389  0.00  0.00    +0.104 C 
ATOM     14  N2  UNL     1     143.956 131.403  99.033  0.00  0.00    -0.291 NA
ATOM     15  C10 UNL     1     144.660 130.533  98.068  0.00  0.00    +0.104 C 
ATOM     16  C11 UNL     1     143.909 130.221  96.750  0.00  0.00    +0.120 C 
BRANCH  11  20
ATOM     17  C2  UNL     1     143.014 131.658  91.869  0.00  0.00    +0.120 A 
ATOM     18  C3  UNL     1     143.835 130.700  92.453  0.00  0.00    +0.047 A 
ATOM     19  C4  UNL     1     143.968 130.638  93.851  0.00  0.00    +0.027 A 
ATOM     20  C5  UNL     1     143.295 131.521  94.711  0.00  0.00    +0.030 A 
ATOM     21  C6  UNL     1     142.471 132.474  94.092  0.00  0.00    +0.027 A 
ATOM     22  C7  UNL     1     142.333 132.545  92.699  0.00  0.00    +0.047 A 
BRANCH  17  24
ATOM     23  C1  UNL     1     143.060 133.124  90.001  0.00  0.00    +0.277 C 
ATOM     24  O1  UNL     1     142.795 131.831  90.532  0.00  0.00    -0.495 OA
ENDBRANCH  17  24
ENDBRANCH  11  20
ENDBRANCH   1  14
BRANCH   1  25
ATOM     25  C13 UNL     1     144.588 129.693 100.850  0.00  0.00    +0.127 C 
BRANCH  25  26
ATOM     26  N3  UNL     1     144.100 128.975 102.022  0.00  0.00    -0.313 N 
ATOM     27  C14 UNL     1     144.001 127.598 102.024  0.00  0.00    +0.214 C 
ATOM     28  O2  UNL     1     144.213 126.920 101.025  0.00  0.00    -0.276 OA
ATOM     29  H19 UNL     1     144.129 129.455 102.914  0.00  0.00    +0.149 HD
BRANCH  27  30
ATOM     30  C15 UNL     1     143.614 127.049 103.390  0.00  0.00    +0.102 C 
BRANCH  30  31
ATOM     31  C16 UNL     1     142.186 126.475 103.552  0.00  0.00    -0.029 C 
ATOM     32  C17 UNL     1     142.270 124.947 103.346  0.00  0.00    +0.011 C 
ATOM     33  C18 UNL     1     141.221 127.046 102.501  0.00  0.00    +0.011 C 
ATOM     34  C19 UNL     1     141.637 126.734 104.966  0.00  0.00    +0.011 C 
ENDBRANCH  30  31
ENDBRANCH  27  30
ENDBRANCH  25  26
ENDBRANCH   1  25
TORSDOF 8
ENDMDL
