MODEL 1
REMARK VINA RESULT:    -5.065      0.000      0.000
REMARK INTER + INTRA:          -6.969
REMARK INTER:                  -6.249
REMARK INTRA:                  -0.720
REMARK UNBOUND:                -0.720
REMARK  Name = /home/vital/Documents/PhD_2021/Malaria_codes/data/pdb_ligands_mmv/ligand_158.pdb
REMARK  7 active torsions:
REMARK  status: ('A' for Active; 'I' for Inactive)
REMARK    1  A    between atoms: C1_1  and  O1_2
REMARK    2  A    between atoms: O1_2  and  C2_3
REMARK    3  A    between atoms: C5_6  and  C9_11
REMARK    4  A    between atoms: C7_8  and  O2_9
REMARK    5  A    between atoms: O2_9  and  C8_10
REMARK    6  A    between atoms: C11_17  and  C12_19
REMARK    7  A    between atoms: C16_23  and  C17_24
REMARK                            x       y       z     vdW  Elec       q    Type
REMARK                         _______ _______ _______ _____ _____    ______ ____
ROOT
ATOM      1  C9  UNL     1     143.059 127.454 103.506  0.00  0.00    +0.156 A 
ATOM      2  N1  UNL     1     144.157 127.845 104.171  0.00  0.00    -0.047 NA
ATOM      3  O3  UNL     1     144.880 128.616 103.279  0.00  0.00    -0.240 OA
ATOM      4  N2  UNL     1     144.232 128.712 102.059  0.00  0.00    -0.033 NA
ATOM      5  C10 UNL     1     143.083 128.047 102.210  0.00  0.00    +0.197 A 
ATOM      6  N3  UNL     1     142.208 128.029 101.140  0.00  0.00    -0.262 N 
ATOM      7  C11 UNL     1     140.861 127.762 101.204  0.00  0.00    +0.249 C 
ATOM      8  O4  UNL     1     140.209 127.601 102.227  0.00  0.00    -0.270 OA
ATOM      9  H10 UNL     1     142.581 128.479 100.315  0.00  0.00    +0.157 HD
ENDROOT
BRANCH   7  10
ATOM     10  C12 UNL     1     140.156 127.745  99.889  0.00  0.00    +0.037 A 
ATOM     11  C13 UNL     1     138.839 128.215  99.833  0.00  0.00    +0.013 A 
ATOM     12  C14 UNL     1     138.142 128.201  98.627  0.00  0.00    +0.001 A 
ATOM     13  C15 UNL     1     138.754 127.714  97.472  0.00  0.00    +0.003 A 
ATOM     14  C16 UNL     1     140.070 127.237  97.510  0.00  0.00    -0.050 A 
ATOM     15  C17 UNL     1     140.702 126.664  96.276  0.00  0.00    +0.044 C 
ATOM     16  C18 UNL     1     140.762 127.240  98.730  0.00  0.00    +0.016 A 
ENDBRANCH   7  10
BRANCH   1  20
ATOM     17  C2  UNL     1     140.374 124.681 105.355  0.00  0.00    +0.162 A 
ATOM     18  C3  UNL     1     140.592 125.940 105.919  0.00  0.00    +0.050 A 
ATOM     19  C4  UNL     1     141.467 126.848 105.307  0.00  0.00    +0.014 A 
ATOM     20  C5  UNL     1     142.141 126.508 104.125  0.00  0.00    +0.011 A 
ATOM     21  C6  UNL     1     141.949 125.237 103.574  0.00  0.00    +0.059 A 
ATOM     22  C7  UNL     1     141.049 124.351 104.170  0.00  0.00    +0.162 A 
BRANCH  17  24
ATOM     23  C1  UNL     1     138.147 123.982 105.837  0.00  0.00    +0.277 C 
ATOM     24  O1  UNL     1     139.542 123.721 105.870  0.00  0.00    -0.491 OA
ENDBRANCH  17  24
BRANCH  22  25
ATOM     25  O2  UNL     1     140.885 123.123 103.575  0.00  0.00    -0.491 OA
ATOM     26  C8  UNL     1     141.208 123.222 102.187  0.00  0.00    +0.277 C 
ENDBRANCH  22  25
ENDBRANCH   1  20
TORSDOF 4
ENDMDL
MODEL 2
REMARK VINA RESULT:    -5.061      4.769      7.019
REMARK INTER + INTRA:          -6.964
REMARK INTER:                  -6.278
REMARK INTRA:                  -0.686
REMARK UNBOUND:                -0.720
REMARK  Name = /home/vital/Documents/PhD_2021/Malaria_codes/data/pdb_ligands_mmv/ligand_158.pdb
REMARK  7 active torsions:
REMARK  status: ('A' for Active; 'I' for Inactive)
REMARK    1  A    between atoms: C1_1  and  O1_2
REMARK    2  A    between atoms: O1_2  and  C2_3
REMARK    3  A    between atoms: C5_6  and  C9_11
REMARK    4  A    between atoms: C7_8  and  O2_9
REMARK    5  A    between atoms: O2_9  and  C8_10
REMARK    6  A    between atoms: C11_17  and  C12_19
REMARK    7  A    between atoms: C16_23  and  C17_24
REMARK                            x       y       z     vdW  Elec       q    Type
REMARK                         _______ _______ _______ _____ _____    ______ ____
ROOT
ATOM      1  C9  UNL     1     139.927 129.895 100.450  0.00  0.00    +0.156 A 
ATOM      2  N1  UNL     1     139.167 130.250 101.497  0.00  0.00    -0.047 NA
ATOM      3  O3  UNL     1     138.106 129.364 101.507  0.00  0.00    -0.240 OA
ATOM      4  N2  UNL     1     138.203 128.452 100.471  0.00  0.00    -0.033 NA
ATOM      5  C10 UNL     1     139.352 128.737  99.850  0.00  0.00    +0.197 A 
ATOM      6  N3  UNL     1     139.724 127.932  98.789  0.00  0.00    -0.262 N 
ATOM      7  C11 UNL     1     140.996 127.798  98.287  0.00  0.00    +0.249 C 
ATOM      8  O4  UNL     1     142.012 128.288  98.762  0.00  0.00    -0.270 OA
ATOM      9  H10 UNL     1     139.027 127.238  98.555  0.00  0.00    +0.157 HD
ENDROOT
BRANCH   7  10
ATOM     10  C12 UNL     1     141.115 126.909  97.094  0.00  0.00    +0.037 A 
ATOM     11  C13 UNL     1     141.530 125.586  97.287  0.00  0.00    +0.013 A 
ATOM     12  C14 UNL     1     141.667 124.730  96.197  0.00  0.00    +0.001 A 
ATOM     13  C15 UNL     1     141.396 125.190  94.909  0.00  0.00    +0.003 A 
ATOM     14  C16 UNL     1     140.985 126.511  94.697  0.00  0.00    -0.050 A 
ATOM     15  C17 UNL     1     140.750 127.015  93.303  0.00  0.00    +0.044 C 
ATOM     16  C18 UNL     1     140.862 127.373  95.796  0.00  0.00    +0.016 A 
ENDBRANCH   7  10
BRANCH   1  20
ATOM     17  C2  UNL     1     143.275 132.308  99.315  0.00  0.00    +0.162 A 
ATOM     18  C3  UNL     1     142.142 132.240  98.502  0.00  0.00    +0.050 A 
ATOM     19  C4  UNL     1     141.045 131.454  98.880  0.00  0.00    +0.014 A 
ATOM     20  C5  UNL     1     141.067 130.720 100.075  0.00  0.00    +0.011 A 
ATOM     21  C6  UNL     1     142.211 130.761 100.877  0.00  0.00    +0.059 A 
ATOM     22  C7  UNL     1     143.286 131.575 100.512  0.00  0.00    +0.162 A 
BRANCH  17  24
ATOM     23  C1  UNL     1     144.229 134.234  98.286  0.00  0.00    +0.277 C 
ATOM     24  O1  UNL     1     144.398 133.043  99.041  0.00  0.00    -0.491 OA
ENDBRANCH  17  24
BRANCH  22  25
ATOM     25  O2  UNL     1     144.378 131.591 101.347  0.00  0.00    -0.491 OA
ATOM     26  C8  UNL     1     144.999 130.305 101.339  0.00  0.00    +0.277 C 
ENDBRANCH  22  25
ENDBRANCH   1  20
TORSDOF 4
ENDMDL
MODEL 3
REMARK VINA RESULT:    -5.019      3.948      8.176
REMARK INTER + INTRA:          -6.913
REMARK INTER:                  -6.193
REMARK INTRA:                  -0.720
REMARK UNBOUND:                -0.720
REMARK  Name = /home/vital/Documents/PhD_2021/Malaria_codes/data/pdb_ligands_mmv/ligand_158.pdb
REMARK  7 active torsions:
REMARK  status: ('A' for Active; 'I' for Inactive)
REMARK    1  A    between atoms: C1_1  and  O1_2
REMARK    2  A    between atoms: O1_2  and  C2_3
REMARK    3  A    between atoms: C5_6  and  C9_11
REMARK    4  A    between atoms: C7_8  and  O2_9
REMARK    5  A    between atoms: O2_9  and  C8_10
REMARK    6  A    between atoms: C11_17  and  C12_19
REMARK    7  A    between atoms: C16_23  and  C17_24
REMARK                            x       y       z     vdW  Elec       q    Type
REMARK                         _______ _______ _______ _____ _____    ______ ____
ROOT
ATOM      1  C9  UNL     1     140.394 129.871 100.162  0.00  0.00    +0.156 A 
ATOM      2  N1  UNL     1     139.097 129.888  99.819  0.00  0.00    -0.047 NA
ATOM      3  O3  UNL     1     138.511 128.848 100.518  0.00  0.00    -0.240 OA
ATOM      4  N2  UNL     1     139.440 128.184 101.301  0.00  0.00    -0.033 NA
ATOM      5  C10 UNL     1     140.589 128.844 101.131  0.00  0.00    +0.197 A 
ATOM      6  N3  UNL     1     141.689 128.413 101.851  0.00  0.00    -0.262 N 
ATOM      7  C11 UNL     1     142.813 129.154 102.126  0.00  0.00    +0.249 C 
ATOM      8  O4  UNL     1     142.974 130.339 101.866  0.00  0.00    -0.270 OA
ATOM      9  H10 UNL     1     141.506 127.578 102.390  0.00  0.00    +0.157 HD
ENDROOT
BRANCH   7  10
ATOM     10  C12 UNL     1     143.883 128.428 102.871  0.00  0.00    +0.037 A 
ATOM     11  C13 UNL     1     145.218 128.756 102.609  0.00  0.00    +0.013 A 
ATOM     12  C14 UNL     1     146.245 128.090 103.274  0.00  0.00    +0.001 A 
ATOM     13  C15 UNL     1     145.945 127.089 104.198  0.00  0.00    +0.003 A 
ATOM     14  C16 UNL     1     144.616 126.745 104.469  0.00  0.00    -0.050 A 
ATOM     15  C17 UNL     1     144.304 125.630 105.423  0.00  0.00    +0.044 C 
ATOM     16  C18 UNL     1     143.586 127.408 103.787  0.00  0.00    +0.016 A 
ENDBRANCH   7  10
BRANCH   1  20
ATOM     17  C2  UNL     1     143.113 132.523  98.188  0.00  0.00    +0.162 A 
ATOM     18  C3  UNL     1     142.187 133.014  99.110  0.00  0.00    +0.050 A 
ATOM     19  C4  UNL     1     141.302 132.142  99.759  0.00  0.00    +0.014 A 
ATOM     20  C5  UNL     1     141.327 130.765  99.492  0.00  0.00    +0.011 A 
ATOM     21  C6  UNL     1     142.233 130.273  98.547  0.00  0.00    +0.059 A 
ATOM     22  C7  UNL     1     143.135 131.143  97.930  0.00  0.00    +0.162 A 
BRANCH  17  24
ATOM     23  C1  UNL     1     144.482 134.472  98.126  0.00  0.00    +0.277 C 
ATOM     24  O1  UNL     1     144.020 133.285  97.499  0.00  0.00    -0.491 OA
ENDBRANCH  17  24
BRANCH  22  25
ATOM     25  O2  UNL     1     144.014 130.602  97.023  0.00  0.00    -0.491 OA
ATOM     26  C8  UNL     1     143.357 129.570  96.284  0.00  0.00    +0.277 C 
ENDBRANCH  22  25
ENDBRANCH   1  20
TORSDOF 4
ENDMDL
MODEL 4
REMARK VINA RESULT:    -4.911      4.731      7.031
REMARK INTER + INTRA:          -6.779
REMARK INTER:                  -6.082
REMARK INTRA:                  -0.697
REMARK UNBOUND:                -0.720
REMARK  Name = /home/vital/Documents/PhD_2021/Malaria_codes/data/pdb_ligands_mmv/ligand_158.pdb
REMARK  7 active torsions:
REMARK  status: ('A' for Active; 'I' for Inactive)
REMARK    1  A    between atoms: C1_1  and  O1_2
REMARK    2  A    between atoms: O1_2  and  C2_3
REMARK    3  A    between atoms: C5_6  and  C9_11
REMARK    4  A    between atoms: C7_8  and  O2_9
REMARK    5  A    between atoms: O2_9  and  C8_10
REMARK    6  A    between atoms: C11_17  and  C12_19
REMARK    7  A    between atoms: C16_23  and  C17_24
REMARK                            x       y       z     vdW  Elec       q    Type
REMARK                         _______ _______ _______ _____ _____    ______ ____
ROOT
ATOM      1  C9  UNL     1     140.091 129.846 100.621  0.00  0.00    +0.156 A 
ATOM      2  N1  UNL     1     139.335 130.213 101.667  0.00  0.00    -0.047 NA
ATOM      3  O3  UNL     1     138.218 129.399 101.625  0.00  0.00    -0.240 OA
ATOM      4  N2  UNL     1     138.276 128.521 100.557  0.00  0.00    -0.033 NA
ATOM      5  C10 UNL     1     139.453 128.751  99.968  0.00  0.00    +0.197 A 
ATOM      6  N3  UNL     1     139.793 127.962  98.884  0.00  0.00    -0.262 N 
ATOM      7  C11 UNL     1     141.063 127.761  98.400  0.00  0.00    +0.249 C 
ATOM      8  O4  UNL     1     142.099 128.165  98.911  0.00  0.00    -0.270 OA
ATOM      9  H10 UNL     1     139.057 127.324  98.612  0.00  0.00    +0.157 HD
ENDROOT
BRANCH   7  10
ATOM     10  C12 UNL     1     141.147 126.910  97.177  0.00  0.00    +0.037 A 
ATOM     11  C13 UNL     1     141.601 125.593  97.312  0.00  0.00    +0.013 A 
ATOM     12  C14 UNL     1     141.707 124.772  96.192  0.00  0.00    +0.001 A 
ATOM     13  C15 UNL     1     141.367 125.262  94.932  0.00  0.00    +0.003 A 
ATOM     14  C16 UNL     1     140.915 126.578  94.777  0.00  0.00    -0.050 A 
ATOM     15  C17 UNL     1     140.604 127.115  93.411  0.00  0.00    +0.044 C 
ATOM     16  C18 UNL     1     140.823 127.405  95.906  0.00  0.00    +0.016 A 
ENDBRANCH   7  10
BRANCH   1  20
ATOM     17  C2  UNL     1     143.617 132.092  99.701  0.00  0.00    +0.162 A 
ATOM     18  C3  UNL     1     143.497 131.430 100.925  0.00  0.00    +0.050 A 
ATOM     19  C4  UNL     1     142.343 130.691 101.220  0.00  0.00    +0.014 A 
ATOM     20  C5  UNL     1     141.290 130.605 100.297  0.00  0.00    +0.011 A 
ATOM     21  C6  UNL     1     141.394 131.292  99.083  0.00  0.00    +0.059 A 
ATOM     22  C7  UNL     1     142.560 131.997  98.781  0.00  0.00    +0.162 A 
BRANCH  17  24
ATOM     23  C1  UNL     1     145.888 132.141  98.981  0.00  0.00    +0.277 C 
ATOM     24  O1  UNL     1     144.697 132.840  99.313  0.00  0.00    -0.491 OA
ENDBRANCH  17  24
BRANCH  22  25
ATOM     25  O2  UNL     1     142.615 132.638  97.566  0.00  0.00    -0.491 OA
ATOM     26  C8  UNL     1     143.073 131.723  96.570  0.00  0.00    +0.277 C 
ENDBRANCH  22  25
ENDBRANCH   1  20
TORSDOF 4
ENDMDL
MODEL 5
REMARK VINA RESULT:    -4.828      1.978      6.209
REMARK INTER + INTRA:          -6.676
REMARK INTER:                  -6.054
REMARK INTRA:                  -0.623
REMARK UNBOUND:                -0.720
REMARK  Name = /home/vital/Documents/PhD_2021/Malaria_codes/data/pdb_ligands_mmv/ligand_158.pdb
REMARK  7 active torsions:
REMARK  status: ('A' for Active; 'I' for Inactive)
REMARK    1  A    between atoms: C1_1  and  O1_2
REMARK    2  A    between atoms: O1_2  and  C2_3
REMARK    3  A    between atoms: C5_6  and  C9_11
REMARK    4  A    between atoms: C7_8  and  O2_9
REMARK    5  A    between atoms: O2_9  and  C8_10
REMARK    6  A    between atoms: C11_17  and  C12_19
REMARK    7  A    between atoms: C16_23  and  C17_24
REMARK                            x       y       z     vdW  Elec       q    Type
REMARK                         _______ _______ _______ _____ _____    ______ ____
ROOT
ATOM      1  C9  UNL     1     143.424 128.974 101.413  0.00  0.00    +0.156 A 
ATOM      2  N1  UNL     1     144.543 129.595 101.011  0.00  0.00    -0.047 NA
ATOM      3  O3  UNL     1     145.451 129.436 102.043  0.00  0.00    -0.240 OA
ATOM      4  N2  UNL     1     144.902 128.711 103.086  0.00  0.00    -0.033 NA
ATOM      5  C10 UNL     1     143.674 128.374 102.682  0.00  0.00    +0.197 A 
ATOM      6  N3  UNL     1     142.912 127.590 103.529  0.00  0.00    -0.262 N 
ATOM      7  C11 UNL     1     141.830 126.826 103.164  0.00  0.00    +0.249 C 
ATOM      8  O4  UNL     1     141.434 126.640 102.021  0.00  0.00    -0.270 OA
ATOM      9  H10 UNL     1     143.362 127.413 104.417  0.00  0.00    +0.157 HD
ENDROOT
BRANCH   7  10
ATOM     10  C12 UNL     1     141.145 126.122 104.288  0.00  0.00    +0.037 A 
ATOM     11  C13 UNL     1     141.809 126.022 105.515  0.00  0.00    +0.013 A 
ATOM     12  C14 UNL     1     141.209 125.360 106.583  0.00  0.00    +0.001 A 
ATOM     13  C15 UNL     1     139.946 124.789 106.431  0.00  0.00    +0.003 A 
ATOM     14  C16 UNL     1     139.268 124.876 105.209  0.00  0.00    -0.050 A 
ATOM     15  C17 UNL     1     137.934 124.211 105.036  0.00  0.00    +0.044 C 
ATOM     16  C18 UNL     1     139.882 125.531 104.132  0.00  0.00    +0.016 A 
ENDBRANCH   7  10
BRANCH   1  20
ATOM     17  C2  UNL     1     139.858 129.248  99.062  0.00  0.00    +0.162 A 
ATOM     18  C3  UNL     1     139.891 129.757 100.362  0.00  0.00    +0.050 A 
ATOM     19  C4  UNL     1     141.063 129.670 101.127  0.00  0.00    +0.014 A 
ATOM     20  C5  UNL     1     142.217 129.070 100.604  0.00  0.00    +0.011 A 
ATOM     21  C6  UNL     1     142.179 128.533  99.314  0.00  0.00    +0.059 A 
ATOM     22  C7  UNL     1     141.019 128.654  98.545  0.00  0.00    +0.162 A 
BRANCH  17  24
ATOM     23  C1  UNL     1     137.871 128.181  98.291  0.00  0.00    +0.277 C 
ATOM     24  O1  UNL     1     138.768 129.280  98.231  0.00  0.00    -0.491 OA
ENDBRANCH  17  24
BRANCH  22  25
ATOM     25  O2  UNL     1     141.044 128.123  97.277  0.00  0.00    -0.491 OA
ATOM     26  C8  UNL     1     141.534 126.783  97.334  0.00  0.00    +0.277 C 
ENDBRANCH  22  25
ENDBRANCH   1  20
TORSDOF 4
ENDMDL
MODEL 6
REMARK VINA RESULT:    -4.777      1.669      1.985
REMARK INTER + INTRA:          -6.614
REMARK INTER:                  -5.920
REMARK INTRA:                  -0.694
REMARK UNBOUND:                -0.720
REMARK  Name = /home/vital/Documents/PhD_2021/Malaria_codes/data/pdb_ligands_mmv/ligand_158.pdb
REMARK  7 active torsions:
REMARK  status: ('A' for Active; 'I' for Inactive)
REMARK    1  A    between atoms: C1_1  and  O1_2
REMARK    2  A    between atoms: O1_2  and  C2_3
REMARK    3  A    between atoms: C5_6  and  C9_11
REMARK    4  A    between atoms: C7_8  and  O2_9
REMARK    5  A    between atoms: O2_9  and  C8_10
REMARK    6  A    between atoms: C11_17  and  C12_19
REMARK    7  A    between atoms: C16_23  and  C17_24
REMARK                            x       y       z     vdW  Elec       q    Type
REMARK                         _______ _______ _______ _____ _____    ______ ____
ROOT
ATOM      1  C9  UNL     1     143.223 125.595 103.402  0.00  0.00    +0.156 A 
ATOM      2  N1  UNL     1     144.414 125.076 103.737  0.00  0.00    -0.047 NA
ATOM      3  O3  UNL     1     145.280 125.438 102.721  0.00  0.00    -0.240 OA
ATOM      4  N2  UNL     1     144.632 126.186 101.753  0.00  0.00    -0.033 NA
ATOM      5  C10 UNL     1     143.380 126.336 102.194  0.00  0.00    +0.197 A 
ATOM      6  N3  UNL     1     142.518 127.100 101.429  0.00  0.00    -0.262 N 
ATOM      7  C11 UNL     1     141.359 127.692 101.870  0.00  0.00    +0.249 C 
ATOM      8  O4  UNL     1     140.963 127.724 103.027  0.00  0.00    -0.270 OA
ATOM      9  H10 UNL     1     142.930 127.412 100.560  0.00  0.00    +0.157 HD
ENDROOT
BRANCH   7  10
ATOM     10  C12 UNL     1     140.578 128.412 100.821  0.00  0.00    +0.037 A 
ATOM     11  C13 UNL     1     140.576 129.811 100.834  0.00  0.00    +0.013 A 
ATOM     12  C14 UNL     1     139.847 130.519  99.881  0.00  0.00    +0.001 A 
ATOM     13  C15 UNL     1     139.113 129.834  98.914  0.00  0.00    +0.003 A 
ATOM     14  C16 UNL     1     139.099 128.434  98.888  0.00  0.00    -0.050 A 
ATOM     15  C17 UNL     1     138.261 127.705  97.880  0.00  0.00    +0.044 C 
ATOM     16  C18 UNL     1     139.823 127.727  99.858  0.00  0.00    +0.016 A 
ENDBRANCH   7  10
BRANCH   1  20
ATOM     17  C2  UNL     1     139.792 124.673 105.788  0.00  0.00    +0.162 A 
ATOM     18  C3  UNL     1     140.723 125.620 106.221  0.00  0.00    +0.050 A 
ATOM     19  C4  UNL     1     141.842 125.923 105.434  0.00  0.00    +0.014 A 
ATOM     20  C5  UNL     1     142.050 125.281 104.204  0.00  0.00    +0.011 A 
ATOM     21  C6  UNL     1     141.136 124.311 103.782  0.00  0.00    +0.059 A 
ATOM     22  C7  UNL     1     140.005 124.039 104.554  0.00  0.00    +0.162 A 
BRANCH  17  24
ATOM     23  C1  UNL     1     138.849 123.511 107.643  0.00  0.00    +0.277 C 
ATOM     24  O1  UNL     1     138.667 124.302 106.478  0.00  0.00    -0.491 OA
ENDBRANCH  17  24
BRANCH  22  25
ATOM     25  O2  UNL     1     139.131 123.088 104.082  0.00  0.00    -0.491 OA
ATOM     26  C8  UNL     1     139.748 121.802 104.152  0.00  0.00    +0.277 C 
ENDBRANCH  22  25
ENDBRANCH   1  20
TORSDOF 4
ENDMDL
MODEL 7
REMARK VINA RESULT:    -4.516      1.821      2.708
REMARK INTER + INTRA:          -6.292
REMARK INTER:                  -5.586
REMARK INTRA:                  -0.706
REMARK UNBOUND:                -0.720
REMARK  Name = /home/vital/Documents/PhD_2021/Malaria_codes/data/pdb_ligands_mmv/ligand_158.pdb
REMARK  7 active torsions:
REMARK  status: ('A' for Active; 'I' for Inactive)
REMARK    1  A    between atoms: C1_1  and  O1_2
REMARK    2  A    between atoms: O1_2  and  C2_3
REMARK    3  A    between atoms: C5_6  and  C9_11
REMARK    4  A    between atoms: C7_8  and  O2_9
REMARK    5  A    between atoms: O2_9  and  C8_10
REMARK    6  A    between atoms: C11_17  and  C12_19
REMARK    7  A    between atoms: C16_23  and  C17_24
REMARK                            x       y       z     vdW  Elec       q    Type
REMARK                         _______ _______ _______ _____ _____    ______ ____
ROOT
ATOM      1  C9  UNL     1     143.657 125.541 103.269  0.00  0.00    +0.156 A 
ATOM      2  N1  UNL     1     144.879 125.051 103.525  0.00  0.00    -0.047 NA
ATOM      3  O3  UNL     1     145.695 125.533 102.518  0.00  0.00    -0.240 OA
ATOM      4  N2  UNL     1     144.985 126.328 101.635  0.00  0.00    -0.033 NA
ATOM      5  C10 UNL     1     143.742 126.384 102.123  0.00  0.00    +0.197 A 
ATOM      6  N3  UNL     1     142.823 127.168 101.449  0.00  0.00    -0.262 N 
ATOM      7  C11 UNL     1     141.655 127.670 101.971  0.00  0.00    +0.249 C 
ATOM      8  O4  UNL     1     141.296 127.588 103.138  0.00  0.00    -0.270 OA
ATOM      9  H10 UNL     1     143.193 127.569 100.597  0.00  0.00    +0.157 HD
ENDROOT
BRANCH   7  10
ATOM     10  C12 UNL     1     140.811 128.437 101.009  0.00  0.00    +0.037 A 
ATOM     11  C13 UNL     1     140.909 129.832 101.001  0.00  0.00    +0.013 A 
ATOM     12  C14 UNL     1     140.126 130.584 100.128  0.00  0.00    +0.001 A 
ATOM     13  C15 UNL     1     139.237 129.947  99.263  0.00  0.00    +0.003 A 
ATOM     14  C16 UNL     1     139.122 128.552  99.260  0.00  0.00    -0.050 A 
ATOM     15  C17 UNL     1     138.123 127.878  98.367  0.00  0.00    +0.044 C 
ATOM     16  C18 UNL     1     139.902 127.801 100.151  0.00  0.00    +0.016 A 
ENDBRANCH   7  10
BRANCH   1  20
ATOM     17  C2  UNL     1     140.307 124.278 105.615  0.00  0.00    +0.162 A 
ATOM     18  C3  UNL     1     140.441 123.861 104.288  0.00  0.00    +0.050 A 
ATOM     19  C4  UNL     1     141.543 124.272 103.525  0.00  0.00    +0.014 A 
ATOM     20  C5  UNL     1     142.525 125.110 104.076  0.00  0.00    +0.011 A 
ATOM     21  C6  UNL     1     142.378 125.553 105.394  0.00  0.00    +0.059 A 
ATOM     22  C7  UNL     1     141.296 125.111 106.159  0.00  0.00    +0.162 A 
BRANCH  17  24
ATOM     23  C1  UNL     1     139.245 122.605 106.939  0.00  0.00    +0.277 C 
ATOM     24  O1  UNL     1     139.273 123.936 106.446  0.00  0.00    -0.491 OA
ENDBRANCH  17  24
BRANCH  22  25
ATOM     25  O2  UNL     1     141.212 125.565 107.454  0.00  0.00    -0.491 OA
ATOM     26  C8  UNL     1     142.159 124.865 108.263  0.00  0.00    +0.277 C 
ENDBRANCH  22  25
ENDBRANCH   1  20
TORSDOF 4
ENDMDL
MODEL 8
REMARK VINA RESULT:    -4.443     12.631     16.738
REMARK INTER + INTRA:          -6.202
REMARK INTER:                  -5.469
REMARK INTRA:                  -0.733
REMARK UNBOUND:                -0.720
REMARK  Name = /home/vital/Documents/PhD_2021/Malaria_codes/data/pdb_ligands_mmv/ligand_158.pdb
REMARK  7 active torsions:
REMARK  status: ('A' for Active; 'I' for Inactive)
REMARK    1  A    between atoms: C1_1  and  O1_2
REMARK    2  A    between atoms: O1_2  and  C2_3
REMARK    3  A    between atoms: C5_6  and  C9_11
REMARK    4  A    between atoms: C7_8  and  O2_9
REMARK    5  A    between atoms: O2_9  and  C8_10
REMARK    6  A    between atoms: C11_17  and  C12_19
REMARK    7  A    between atoms: C16_23  and  C17_24
REMARK                            x       y       z     vdW  Elec       q    Type
REMARK                         _______ _______ _______ _____ _____    ______ ____
ROOT
ATOM      1  C9  UNL     1     135.034 125.858  86.114  0.00  0.00    +0.156 A 
ATOM      2  N1  UNL     1     134.719 126.789  85.200  0.00  0.00    -0.047 NA
ATOM      3  O3  UNL     1     135.509 127.885  85.494  0.00  0.00    -0.240 OA
ATOM      4  N2  UNL     1     136.321 127.639  86.588  0.00  0.00    -0.033 NA
ATOM      5  C10 UNL     1     136.076 126.374  86.939  0.00  0.00    +0.197 A 
ATOM      6  N3  UNL     1     136.804 125.848  87.991  0.00  0.00    -0.262 N 
ATOM      7  C11 UNL     1     136.996 124.512  88.250  0.00  0.00    +0.249 C 
ATOM      8  O4  UNL     1     136.642 123.584  87.536  0.00  0.00    -0.270 OA
ATOM      9  H10 UNL     1     137.410 126.527  88.432  0.00  0.00    +0.157 HD
ENDROOT
BRANCH   7  10
ATOM     10  C12 UNL     1     137.772 124.213  89.489  0.00  0.00    +0.037 A 
ATOM     11  C13 UNL     1     137.631 122.950  90.075  0.00  0.00    +0.013 A 
ATOM     12  C14 UNL     1     138.328 122.639  91.240  0.00  0.00    +0.001 A 
ATOM     13  C15 UNL     1     139.164 123.587  91.829  0.00  0.00    +0.003 A 
ATOM     14  C16 UNL     1     139.313 124.856  91.259  0.00  0.00    -0.050 A 
ATOM     15  C17 UNL     1     140.171 125.889  91.929  0.00  0.00    +0.044 C 
ATOM     16  C18 UNL     1     138.599 125.170  90.094  0.00  0.00    +0.016 A 
ENDBRANCH   7  10
BRANCH   1  20
ATOM     17  C2  UNL     1     132.801 122.209  86.237  0.00  0.00    +0.162 A 
ATOM     18  C3  UNL     1     133.651 122.485  85.164  0.00  0.00    +0.050 A 
ATOM     19  C4  UNL     1     134.385 123.678  85.130  0.00  0.00    +0.014 A 
ATOM     20  C5  UNL     1     134.277 124.616  86.167  0.00  0.00    +0.011 A 
ATOM     21  C6  UNL     1     133.404 124.358  87.228  0.00  0.00    +0.059 A 
ATOM     22  C7  UNL     1     132.702 123.152  87.273  0.00  0.00    +0.162 A 
BRANCH  17  24
ATOM     23  C1  UNL     1     131.333 120.631  85.222  0.00  0.00    +0.277 C 
ATOM     24  O1  UNL     1     132.040 121.078  86.369  0.00  0.00    -0.491 OA
ENDBRANCH  17  24
BRANCH  22  25
ATOM     25  O2  UNL     1     131.872 122.944  88.349  0.00  0.00    -0.491 OA
ATOM     26  C8  UNL     1     130.804 123.892  88.313  0.00  0.00    +0.277 C 
ENDBRANCH  22  25
ENDBRANCH   1  20
TORSDOF 4
ENDMDL
MODEL 9
REMARK VINA RESULT:    -4.331     12.038     15.605
REMARK INTER + INTRA:          -6.064
REMARK INTER:                  -5.385
REMARK INTRA:                  -0.679
REMARK UNBOUND:                -0.720
REMARK  Name = /home/vital/Documents/PhD_2021/Malaria_codes/data/pdb_ligands_mmv/ligand_158.pdb
REMARK  7 active torsions:
REMARK  status: ('A' for Active; 'I' for Inactive)
REMARK    1  A    between atoms: C1_1  and  O1_2
REMARK    2  A    between atoms: O1_2  and  C2_3
REMARK    3  A    between atoms: C5_6  and  C9_11
REMARK    4  A    between atoms: C7_8  and  O2_9
REMARK    5  A    between atoms: O2_9  and  C8_10
REMARK    6  A    between atoms: C11_17  and  C12_19
REMARK    7  A    between atoms: C16_23  and  C17_24
REMARK                            x       y       z     vdW  Elec       q    Type
REMARK                         _______ _______ _______ _____ _____    ______ ____
ROOT
ATOM      1  C9  UNL     1     135.177 125.745  87.220  0.00  0.00    +0.156 A 
ATOM      2  N1  UNL     1     134.721 126.514  86.219  0.00  0.00    -0.047 NA
ATOM      3  O3  UNL     1     135.571 127.604  86.168  0.00  0.00    -0.240 OA
ATOM      4  N2  UNL     1     136.560 127.515  87.132  0.00  0.00    -0.033 NA
ATOM      5  C10 UNL     1     136.359 126.345  87.745  0.00  0.00    +0.197 A 
ATOM      6  N3  UNL     1     137.253 125.977  88.734  0.00  0.00    -0.262 N 
ATOM      7  C11 UNL     1     137.464 124.701  89.196  0.00  0.00    +0.249 C 
ATOM      8  O4  UNL     1     136.971 123.679  88.735  0.00  0.00    -0.270 OA
ATOM      9  H10 UNL     1     137.940 126.692  88.933  0.00  0.00    +0.157 HD
ENDROOT
BRANCH   7  10
ATOM     10  C12 UNL     1     138.443 124.586  90.316  0.00  0.00    +0.037 A 
ATOM     11  C13 UNL     1     139.303 125.662  90.562  0.00  0.00    +0.013 A 
ATOM     12  C14 UNL     1     140.241 125.588  91.589  0.00  0.00    +0.001 A 
ATOM     13  C15 UNL     1     140.329 124.438  92.372  0.00  0.00    +0.003 A 
ATOM     14  C16 UNL     1     139.479 123.350  92.138  0.00  0.00    -0.050 A 
ATOM     15  C17 UNL     1     139.618 122.095  92.949  0.00  0.00    +0.044 C 
ATOM     16  C18 UNL     1     138.547 123.424  91.094  0.00  0.00    +0.016 A 
ENDBRANCH   7  10
BRANCH   1  20
ATOM     17  C2  UNL     1     132.964 122.295  88.452  0.00  0.00    +0.162 A 
ATOM     18  C3  UNL     1     133.136 123.375  89.321  0.00  0.00    +0.050 A 
ATOM     19  C4  UNL     1     133.857 124.505  88.911  0.00  0.00    +0.014 A 
ATOM     20  C5  UNL     1     134.420 124.571  87.629  0.00  0.00    +0.011 A 
ATOM     21  C6  UNL     1     134.275 123.479  86.767  0.00  0.00    +0.059 A 
ATOM     22  C7  UNL     1     133.527 122.371  87.169  0.00  0.00    +0.162 A 
BRANCH  17  24
ATOM     23  C1  UNL     1     132.455 120.603  90.051  0.00  0.00    +0.277 C 
ATOM     24  O1  UNL     1     132.281 121.145  88.751  0.00  0.00    -0.491 OA
ENDBRANCH  17  24
BRANCH  22  25
ATOM     25  O2  UNL     1     133.402 121.335  86.274  0.00  0.00    -0.491 OA
ATOM     26  C8  UNL     1     132.605 121.758  85.167  0.00  0.00    +0.277 C 
ENDBRANCH  22  25
ENDBRANCH   1  20
TORSDOF 4
ENDMDL
