MODEL 1
REMARK VINA RESULT:    -4.219      0.000      0.000
REMARK INTER + INTRA:          -6.056
REMARK INTER:                  -5.453
REMARK INTRA:                  -0.603
REMARK UNBOUND:                -0.603
REMARK  Name = /home/vital/Documents/PhD_2021/Malaria_codes/data/pdb_ligands_mmv/ligand_186.pdb
REMARK  7 active torsions:
REMARK  status: ('A' for Active; 'I' for Inactive)
REMARK    1  A    between atoms: C1_1  and  C2_2
REMARK    2  A    between atoms: C2_2  and  C3_3
REMARK    3  A    between atoms: C3_3  and  C4_4
REMARK    4  A    between atoms: C4_4  and  O1_5
REMARK    5  A    between atoms: O1_5  and  C5_6
REMARK    6  A    between atoms: C8_9  and  C11_12
REMARK    7  A    between atoms: C14_17  and  C15_18
REMARK                            x       y       z     vdW  Elec       q    Type
REMARK                         _______ _______ _______ _____ _____    ______ ____
ROOT
ATOM      1  C5  UNL     1     127.570 131.602  86.812  0.00  0.00    +0.121 A 
ATOM      2  C6  UNL     1     128.375 131.042  87.804  0.00  0.00    +0.046 A 
ATOM      3  C7  UNL     1     129.707 130.713  87.523  0.00  0.00    +0.016 A 
ATOM      4  C8  UNL     1     130.238 130.932  86.247  0.00  0.00    +0.037 A 
ATOM      5  C9  UNL     1     129.437 131.512  85.258  0.00  0.00    +0.016 A 
ATOM      6  C10 UNL     1     128.108 131.838  85.543  0.00  0.00    +0.046 A 
ENDROOT
BRANCH   4   7
ATOM      7  C11 UNL     1     131.660 130.561  85.996  0.00  0.00    +0.249 C 
ATOM      8  O2  UNL     1     131.927 129.375  85.853  0.00  0.00    -0.270 OA
ATOM      9  N1  UNL     1     132.526 131.631  85.909  0.00  0.00    -0.264 N 
ATOM     10  C12 UNL     1     133.889 131.521  85.709  0.00  0.00    +0.168 A 
ATOM     11  C13 UNL     1     134.746 132.641  85.558  0.00  0.00    +0.091 A 
ATOM     12  C14 UNL     1     135.998 132.103  85.390  0.00  0.00    +0.136 A 
ATOM     13  C15 UNL     1     137.344 132.661  85.180  0.00  0.00    +0.089 C 
ATOM     14  O3  UNL     1     135.906 130.749  85.439  0.00  0.00    -0.358 OA
ATOM     15  N2  UNL     1     134.590 130.386  85.640  0.00  0.00    -0.063 NA
ATOM     16  H14 UNL     1     132.156 132.569  85.923  0.00  0.00    +0.157 HD
ENDBRANCH   4   7
BRANCH   1  17
ATOM     17  O1  UNL     1     126.260 131.968  86.951  0.00  0.00    -0.492 OA
BRANCH  17  18
ATOM     18  C4  UNL     1     125.587 132.439  85.781  0.00  0.00    +0.229 C 
BRANCH  18  19
ATOM     19  C3  UNL     1     124.829 133.709  86.162  0.00  0.00    +0.041 C 
BRANCH  19  21
ATOM     20  C1  UNL     1     126.759 135.375  86.201  0.00  0.00    +0.004 C 
ATOM     21  C2  UNL     1     125.432 134.983  85.570  0.00  0.00    -0.000 C 
ENDBRANCH  19  21
ENDBRANCH  18  19
ENDBRANCH  17  18
ENDBRANCH   1  17
TORSDOF 5
ENDMDL
MODEL 2
REMARK VINA RESULT:    -4.195      5.373      6.640
REMARK INTER + INTRA:          -6.025
REMARK INTER:                  -5.594
REMARK INTRA:                  -0.431
REMARK UNBOUND:                -0.603
REMARK  Name = /home/vital/Documents/PhD_2021/Malaria_codes/data/pdb_ligands_mmv/ligand_186.pdb
REMARK  7 active torsions:
REMARK  status: ('A' for Active; 'I' for Inactive)
REMARK    1  A    between atoms: C1_1  and  C2_2
REMARK    2  A    between atoms: C2_2  and  C3_3
REMARK    3  A    between atoms: C3_3  and  C4_4
REMARK    4  A    between atoms: C4_4  and  O1_5
REMARK    5  A    between atoms: O1_5  and  C5_6
REMARK    6  A    between atoms: C8_9  and  C11_12
REMARK    7  A    between atoms: C14_17  and  C15_18
REMARK                            x       y       z     vdW  Elec       q    Type
REMARK                         _______ _______ _______ _____ _____    ______ ____
ROOT
ATOM      1  C5  UNL     1     129.265 130.230  86.840  0.00  0.00    +0.121 A 
ATOM      2  C6  UNL     1     129.144 129.874  88.183  0.00  0.00    +0.046 A 
ATOM      3  C7  UNL     1     129.120 128.523  88.550  0.00  0.00    +0.016 A 
ATOM      4  C8  UNL     1     129.207 127.520  87.577  0.00  0.00    +0.037 A 
ATOM      5  C9  UNL     1     129.348 127.877  86.232  0.00  0.00    +0.016 A 
ATOM      6  C10 UNL     1     129.370 129.228  85.870  0.00  0.00    +0.046 A 
ENDROOT
BRANCH   4   7
ATOM      7  C11 UNL     1     129.173 126.097  88.018  0.00  0.00    +0.249 C 
ATOM      8  O2  UNL     1     128.150 125.457  87.814  0.00  0.00    -0.270 OA
ATOM      9  N1  UNL     1     130.347 125.643  88.582  0.00  0.00    -0.264 N 
ATOM     10  C12 UNL     1     130.533 124.368  89.085  0.00  0.00    +0.168 A 
ATOM     11  C13 UNL     1     131.771 123.908  89.599  0.00  0.00    +0.091 A 
ATOM     12  C14 UNL     1     131.527 122.616  89.993  0.00  0.00    +0.136 A 
ATOM     13  C15 UNL     1     132.339 121.549  90.602  0.00  0.00    +0.089 C 
ATOM     14  O3  UNL     1     130.228 122.314  89.737  0.00  0.00    -0.358 OA
ATOM     15  N2  UNL     1     129.606 123.409  89.172  0.00  0.00    -0.063 NA
ATOM     16  H14 UNL     1     131.160 126.238  88.580  0.00  0.00    +0.157 HD
ENDBRANCH   4   7
BRANCH   1  17
ATOM     17  O1  UNL     1     129.300 131.504  86.345  0.00  0.00    -0.492 OA
BRANCH  17  18
ATOM     18  C4  UNL     1     128.241 131.893  85.468  0.00  0.00    +0.229 C 
BRANCH  18  19
ATOM     19  C3  UNL     1     127.140 132.521  86.319  0.00  0.00    +0.041 C 
BRANCH  19  21
ATOM     20  C1  UNL     1     127.610 135.021  86.497  0.00  0.00    +0.004 C 
ATOM     21  C2  UNL     1     126.750 133.931  85.876  0.00  0.00    -0.000 C 
ENDBRANCH  19  21
ENDBRANCH  18  19
ENDBRANCH  17  18
ENDBRANCH   1  17
TORSDOF 5
ENDMDL
MODEL 3
REMARK VINA RESULT:    -4.157     18.896     21.022
REMARK INTER + INTRA:          -5.975
REMARK INTER:                  -5.536
REMARK INTRA:                  -0.439
REMARK UNBOUND:                -0.603
REMARK  Name = /home/vital/Documents/PhD_2021/Malaria_codes/data/pdb_ligands_mmv/ligand_186.pdb
REMARK  7 active torsions:
REMARK  status: ('A' for Active; 'I' for Inactive)
REMARK    1  A    between atoms: C1_1  and  C2_2
REMARK    2  A    between atoms: C2_2  and  C3_3
REMARK    3  A    between atoms: C3_3  and  C4_4
REMARK    4  A    between atoms: C4_4  and  O1_5
REMARK    5  A    between atoms: O1_5  and  C5_6
REMARK    6  A    between atoms: C8_9  and  C11_12
REMARK    7  A    between atoms: C14_17  and  C15_18
REMARK                            x       y       z     vdW  Elec       q    Type
REMARK                         _______ _______ _______ _____ _____    ______ ____
ROOT
ATOM      1  C5  UNL     1     141.198 125.328 104.059  0.00  0.00    +0.121 A 
ATOM      2  C6  UNL     1     141.610 126.388 104.868  0.00  0.00    +0.046 A 
ATOM      3  C7  UNL     1     142.164 127.536 104.290  0.00  0.00    +0.016 A 
ATOM      4  C8  UNL     1     142.320 127.628 102.902  0.00  0.00    +0.037 A 
ATOM      5  C9  UNL     1     141.891 126.574 102.089  0.00  0.00    +0.016 A 
ATOM      6  C10 UNL     1     141.338 125.430 102.671  0.00  0.00    +0.046 A 
ENDROOT
BRANCH   4   7
ATOM      7  C11 UNL     1     142.921 128.869 102.335  0.00  0.00    +0.249 C 
ATOM      8  O2  UNL     1     144.100 129.097 102.571  0.00  0.00    -0.270 OA
ATOM      9  N1  UNL     1     142.064 129.615 101.552  0.00  0.00    -0.264 N 
ATOM     10  C12 UNL     1     142.396 130.814 100.949  0.00  0.00    +0.168 A 
ATOM     11  C13 UNL     1     141.516 131.527 100.096  0.00  0.00    +0.091 A 
ATOM     12  C14 UNL     1     142.220 132.644  99.723  0.00  0.00    +0.136 A 
ATOM     13  C15 UNL     1     141.937 133.806  98.863  0.00  0.00    +0.089 C 
ATOM     14  O3  UNL     1     143.443 132.613 100.312  0.00  0.00    -0.358 OA
ATOM     15  N2  UNL     1     143.552 131.471 101.080  0.00  0.00    -0.063 NA
ATOM     16  H14 UNL     1     141.149 129.252 101.335  0.00  0.00    +0.157 HD
ENDBRANCH   4   7
BRANCH   1  17
ATOM     17  O1  UNL     1     140.644 124.155 104.490  0.00  0.00    -0.492 OA
BRANCH  17  18
ATOM     18  C4  UNL     1     139.751 124.226 105.604  0.00  0.00    +0.229 C 
BRANCH  18  19
ATOM     19  C3  UNL     1     138.332 124.350 105.053  0.00  0.00    +0.041 C 
BRANCH  19  21
ATOM     20  C1  UNL     1     137.202 122.223 105.890  0.00  0.00    +0.004 C 
ATOM     21  C2  UNL     1     137.697 123.009 104.686  0.00  0.00    -0.000 C 
ENDBRANCH  19  21
ENDBRANCH  18  19
ENDBRANCH  17  18
ENDBRANCH   1  17
TORSDOF 5
ENDMDL
MODEL 4
REMARK VINA RESULT:    -3.992     19.277     21.513
REMARK INTER + INTRA:          -5.762
REMARK INTER:                  -4.852
REMARK INTRA:                  -0.910
REMARK UNBOUND:                -0.603
REMARK  Name = /home/vital/Documents/PhD_2021/Malaria_codes/data/pdb_ligands_mmv/ligand_186.pdb
REMARK  7 active torsions:
REMARK  status: ('A' for Active; 'I' for Inactive)
REMARK    1  A    between atoms: C1_1  and  C2_2
REMARK    2  A    between atoms: C2_2  and  C3_3
REMARK    3  A    between atoms: C3_3  and  C4_4
REMARK    4  A    between atoms: C4_4  and  O1_5
REMARK    5  A    between atoms: O1_5  and  C5_6
REMARK    6  A    between atoms: C8_9  and  C11_12
REMARK    7  A    between atoms: C14_17  and  C15_18
REMARK                            x       y       z     vdW  Elec       q    Type
REMARK                         _______ _______ _______ _____ _____    ______ ____
ROOT
ATOM      1  C5  UNL     1     142.389 128.025 100.913  0.00  0.00    +0.121 A 
ATOM      2  C6  UNL     1     142.740 128.514 102.172  0.00  0.00    +0.046 A 
ATOM      3  C7  UNL     1     142.337 127.832 103.326  0.00  0.00    +0.016 A 
ATOM      4  C8  UNL     1     141.572 126.664 103.230  0.00  0.00    +0.037 A 
ATOM      5  C9  UNL     1     141.236 126.162 101.968  0.00  0.00    +0.016 A 
ATOM      6  C10 UNL     1     141.641 126.848 100.818  0.00  0.00    +0.046 A 
ENDROOT
BRANCH   4   7
ATOM      7  C11 UNL     1     141.163 125.977 104.487  0.00  0.00    +0.249 C 
ATOM      8  O2  UNL     1     141.783 126.233 105.511  0.00  0.00    -0.270 OA
ATOM      9  N1  UNL     1     140.074 125.139 104.356  0.00  0.00    -0.264 N 
ATOM     10  C12 UNL     1     139.540 124.382 105.382  0.00  0.00    +0.168 A 
ATOM     11  C13 UNL     1     138.380 123.580 105.234  0.00  0.00    +0.091 A 
ATOM     12  C14 UNL     1     138.197 123.000 106.464  0.00  0.00    +0.136 A 
ATOM     13  C15 UNL     1     137.208 122.068 107.032  0.00  0.00    +0.089 C 
ATOM     14  O3  UNL     1     139.181 123.419 107.300  0.00  0.00    -0.358 OA
ATOM     15  N2  UNL     1     140.021 124.280 106.623  0.00  0.00    -0.063 NA
ATOM     16  H14 UNL     1     139.575 125.111 103.481  0.00  0.00    +0.157 HD
ENDBRANCH   4   7
BRANCH   1  17
ATOM     17  O1  UNL     1     142.715 128.590  99.711  0.00  0.00    -0.492 OA
BRANCH  17  18
ATOM     18  C4  UNL     1     141.645 128.840  98.797  0.00  0.00    +0.229 C 
BRANCH  18  19
ATOM     19  C3  UNL     1     140.966 130.140  99.222  0.00  0.00    +0.041 C 
BRANCH  19  21
ATOM     20  C1  UNL     1     139.246 129.946 101.094  0.00  0.00    +0.004 C 
ATOM     21  C2  UNL     1     139.493 129.969  99.594  0.00  0.00    -0.000 C 
ENDBRANCH  19  21
ENDBRANCH  18  19
ENDBRANCH  17  18
ENDBRANCH   1  17
TORSDOF 5
ENDMDL
MODEL 5
REMARK VINA RESULT:    -3.960     15.258     16.768
REMARK INTER + INTRA:          -5.720
REMARK INTER:                  -5.030
REMARK INTRA:                  -0.690
REMARK UNBOUND:                -0.603
REMARK  Name = /home/vital/Documents/PhD_2021/Malaria_codes/data/pdb_ligands_mmv/ligand_186.pdb
REMARK  7 active torsions:
REMARK  status: ('A' for Active; 'I' for Inactive)
REMARK    1  A    between atoms: C1_1  and  C2_2
REMARK    2  A    between atoms: C2_2  and  C3_3
REMARK    3  A    between atoms: C3_3  and  C4_4
REMARK    4  A    between atoms: C4_4  and  O1_5
REMARK    5  A    between atoms: O1_5  and  C5_6
REMARK    6  A    between atoms: C8_9  and  C11_12
REMARK    7  A    between atoms: C14_17  and  C15_18
REMARK                            x       y       z     vdW  Elec       q    Type
REMARK                         _______ _______ _______ _____ _____    ______ ____
ROOT
ATOM      1  C5  UNL     1     141.185 130.248 100.081  0.00  0.00    +0.121 A 
ATOM      2  C6  UNL     1     141.166 131.626  99.864  0.00  0.00    +0.046 A 
ATOM      3  C7  UNL     1     141.968 132.188  98.863  0.00  0.00    +0.016 A 
ATOM      4  C8  UNL     1     142.801 131.379  98.082  0.00  0.00    +0.037 A 
ATOM      5  C9  UNL     1     142.805 129.995  98.286  0.00  0.00    +0.016 A 
ATOM      6  C10 UNL     1     142.003 129.439  99.287  0.00  0.00    +0.046 A 
ENDROOT
BRANCH   4   7
ATOM      7  C11 UNL     1     143.639 132.026  97.033  0.00  0.00    +0.249 C 
ATOM      8  O2  UNL     1     144.755 132.417  97.350  0.00  0.00    -0.270 OA
ATOM      9  N1  UNL     1     143.060 132.070  95.782  0.00  0.00    -0.264 N 
ATOM     10  C12 UNL     1     143.643 132.646  94.668  0.00  0.00    +0.168 A 
ATOM     11  C13 UNL     1     143.053 132.619  93.379  0.00  0.00    +0.091 A 
ATOM     12  C14 UNL     1     143.937 133.296  92.576  0.00  0.00    +0.136 A 
ATOM     13  C15 UNL     1     143.975 133.649  91.147  0.00  0.00    +0.089 C 
ATOM     14  O3  UNL     1     144.989 133.708  93.328  0.00  0.00    -0.358 OA
ATOM     15  N2  UNL     1     144.805 133.304  94.635  0.00  0.00    -0.063 NA
ATOM     16  H14 UNL     1     142.182 131.600  95.626  0.00  0.00    +0.157 HD
ENDBRANCH   4   7
BRANCH   1  17
ATOM     17  O1  UNL     1     140.456 129.572 101.020  0.00  0.00    -0.492 OA
BRANCH  17  18
ATOM     18  C4  UNL     1     139.869 128.331 100.620  0.00  0.00    +0.229 C 
BRANCH  18  19
ATOM     19  C3  UNL     1     138.465 128.629 100.097  0.00  0.00    +0.041 C 
BRANCH  19  21
ATOM     20  C1  UNL     1     139.205 127.110  98.189  0.00  0.00    +0.004 C 
ATOM     21  C2  UNL     1     138.245 128.196  98.648  0.00  0.00    -0.000 C 
ENDBRANCH  19  21
ENDBRANCH  18  19
ENDBRANCH  17  18
ENDBRANCH   1  17
TORSDOF 5
ENDMDL
MODEL 6
REMARK VINA RESULT:    -3.775     20.324     22.204
REMARK INTER + INTRA:          -5.482
REMARK INTER:                  -4.648
REMARK INTRA:                  -0.834
REMARK UNBOUND:                -0.603
REMARK  Name = /home/vital/Documents/PhD_2021/Malaria_codes/data/pdb_ligands_mmv/ligand_186.pdb
REMARK  7 active torsions:
REMARK  status: ('A' for Active; 'I' for Inactive)
REMARK    1  A    between atoms: C1_1  and  C2_2
REMARK    2  A    between atoms: C2_2  and  C3_3
REMARK    3  A    between atoms: C3_3  and  C4_4
REMARK    4  A    between atoms: C4_4  and  O1_5
REMARK    5  A    between atoms: O1_5  and  C5_6
REMARK    6  A    between atoms: C8_9  and  C11_12
REMARK    7  A    between atoms: C14_17  and  C15_18
REMARK                            x       y       z     vdW  Elec       q    Type
REMARK                         _______ _______ _______ _____ _____    ______ ____
ROOT
ATOM      1  C5  UNL     1     141.150 124.259 106.689  0.00  0.00    +0.121 A 
ATOM      2  C6  UNL     1     141.763 123.822 105.514  0.00  0.00    +0.046 A 
ATOM      3  C7  UNL     1     142.140 124.749 104.535  0.00  0.00    +0.016 A 
ATOM      4  C8  UNL     1     141.898 126.115 104.719  0.00  0.00    +0.037 A 
ATOM      5  C9  UNL     1     141.301 126.555 105.905  0.00  0.00    +0.016 A 
ATOM      6  C10 UNL     1     140.926 125.626 106.879  0.00  0.00    +0.046 A 
ENDROOT
BRANCH   4   7
ATOM      7  C11 UNL     1     142.313 127.062 103.645  0.00  0.00    +0.249 C 
ATOM      8  O2  UNL     1     143.511 127.249 103.475  0.00  0.00    -0.270 OA
ATOM      9  N1  UNL     1     141.270 127.599 102.918  0.00  0.00    -0.264 N 
ATOM     10  C12 UNL     1     141.418 128.517 101.895  0.00  0.00    +0.168 A 
ATOM     11  C13 UNL     1     140.334 129.002 101.122  0.00  0.00    +0.091 A 
ATOM     12  C14 UNL     1     140.903 129.883 100.236  0.00  0.00    +0.136 A 
ATOM     13  C15 UNL     1     140.389 130.740  99.155  0.00  0.00    +0.089 C 
ATOM     14  O3  UNL     1     142.241 129.931 100.460  0.00  0.00    -0.358 OA
ATOM     15  N2  UNL     1     142.563 129.080 101.498  0.00  0.00    -0.063 NA
ATOM     16  H14 UNL     1     140.332 127.266 103.079  0.00  0.00    +0.157 HD
ENDBRANCH   4   7
BRANCH   1  17
ATOM     17  O1  UNL     1     140.733 123.465 107.721  0.00  0.00    -0.492 OA
BRANCH  17  18
ATOM     18  C4  UNL     1     139.773 122.451 107.418  0.00  0.00    +0.229 C 
BRANCH  18  19
ATOM     19  C3  UNL     1     138.418 123.133 107.241  0.00  0.00    +0.041 C 
BRANCH  19  21
ATOM     20  C1  UNL     1     137.790 124.527 105.200  0.00  0.00    +0.004 C 
ATOM     21  C2  UNL     1     137.916 123.134 105.797  0.00  0.00    -0.000 C 
ENDBRANCH  19  21
ENDBRANCH  18  19
ENDBRANCH  17  18
ENDBRANCH   1  17
TORSDOF 5
ENDMDL
MODEL 7
REMARK VINA RESULT:    -3.752     17.512     19.899
REMARK INTER + INTRA:          -5.452
REMARK INTER:                  -4.639
REMARK INTRA:                  -0.813
REMARK UNBOUND:                -0.603
REMARK  Name = /home/vital/Documents/PhD_2021/Malaria_codes/data/pdb_ligands_mmv/ligand_186.pdb
REMARK  7 active torsions:
REMARK  status: ('A' for Active; 'I' for Inactive)
REMARK    1  A    between atoms: C1_1  and  C2_2
REMARK    2  A    between atoms: C2_2  and  C3_3
REMARK    3  A    between atoms: C3_3  and  C4_4
REMARK    4  A    between atoms: C4_4  and  O1_5
REMARK    5  A    between atoms: O1_5  and  C5_6
REMARK    6  A    between atoms: C8_9  and  C11_12
REMARK    7  A    between atoms: C14_17  and  C15_18
REMARK                            x       y       z     vdW  Elec       q    Type
REMARK                         _______ _______ _______ _____ _____    ______ ____
ROOT
ATOM      1  C5  UNL     1     142.683 132.011  98.932  0.00  0.00    +0.121 A 
ATOM      2  C6  UNL     1     141.313 131.834  99.129  0.00  0.00    +0.046 A 
ATOM      3  C7  UNL     1     140.848 130.754  99.889  0.00  0.00    +0.016 A 
ATOM      4  C8  UNL     1     141.749 129.838 100.446  0.00  0.00    +0.037 A 
ATOM      5  C9  UNL     1     143.123 130.026 100.264  0.00  0.00    +0.016 A 
ATOM      6  C10 UNL     1     143.581 131.106  99.505  0.00  0.00    +0.046 A 
ENDROOT
BRANCH   4   7
ATOM      7  C11 UNL     1     141.205 128.702 101.242  0.00  0.00    +0.249 C 
ATOM      8  O2  UNL     1     140.224 128.113 100.807  0.00  0.00    -0.270 OA
ATOM      9  N1  UNL     1     141.917 128.411 102.388  0.00  0.00    -0.264 N 
ATOM     10  C12 UNL     1     141.579 127.418 103.289  0.00  0.00    +0.168 A 
ATOM     11  C13 UNL     1     142.366 127.098 104.424  0.00  0.00    +0.091 A 
ATOM     12  C14 UNL     1     141.686 126.080 105.045  0.00  0.00    +0.136 A 
ATOM     13  C15 UNL     1     141.912 125.272 106.255  0.00  0.00    +0.089 C 
ATOM     14  O3  UNL     1     140.562 125.804 104.336  0.00  0.00    -0.358 OA
ATOM     15  N2  UNL     1     140.494 126.641 103.241  0.00  0.00    -0.063 NA
ATOM     16  H14 UNL     1     142.782 128.895 102.569  0.00  0.00    +0.157 HD
ENDBRANCH   4   7
BRANCH   1  17
ATOM     17  O1  UNL     1     143.269 133.017  98.215  0.00  0.00    -0.492 OA
BRANCH  17  18
ATOM     18  C4  UNL     1     144.306 132.650  97.303  0.00  0.00    +0.229 C 
BRANCH  18  19
ATOM     19  C3  UNL     1     143.642 132.201  96.003  0.00  0.00    +0.041 C 
BRANCH  19  21
ATOM     20  C1  UNL     1     143.412 129.666  96.162  0.00  0.00    +0.004 C 
ATOM     21  C2  UNL     1     144.126 130.838  95.506  0.00  0.00    -0.000 C 
ENDBRANCH  19  21
ENDBRANCH  18  19
ENDBRANCH  17  18
ENDBRANCH   1  17
TORSDOF 5
ENDMDL
MODEL 8
REMARK VINA RESULT:    -3.751     18.922     20.956
REMARK INTER + INTRA:          -5.451
REMARK INTER:                  -4.568
REMARK INTRA:                  -0.883
REMARK UNBOUND:                -0.603
REMARK  Name = /home/vital/Documents/PhD_2021/Malaria_codes/data/pdb_ligands_mmv/ligand_186.pdb
REMARK  7 active torsions:
REMARK  status: ('A' for Active; 'I' for Inactive)
REMARK    1  A    between atoms: C1_1  and  C2_2
REMARK    2  A    between atoms: C2_2  and  C3_3
REMARK    3  A    between atoms: C3_3  and  C4_4
REMARK    4  A    between atoms: C4_4  and  O1_5
REMARK    5  A    between atoms: O1_5  and  C5_6
REMARK    6  A    between atoms: C8_9  and  C11_12
REMARK    7  A    between atoms: C14_17  and  C15_18
REMARK                            x       y       z     vdW  Elec       q    Type
REMARK                         _______ _______ _______ _____ _____    ______ ____
ROOT
ATOM      1  C5  UNL     1     141.463 124.555 104.845  0.00  0.00    +0.121 A 
ATOM      2  C6  UNL     1     141.422 125.947 104.936  0.00  0.00    +0.046 A 
ATOM      3  C7  UNL     1     141.371 126.724 103.773  0.00  0.00    +0.016 A 
ATOM      4  C8  UNL     1     141.372 126.116 102.512  0.00  0.00    +0.037 A 
ATOM      5  C9  UNL     1     141.393 124.721 102.420  0.00  0.00    +0.016 A 
ATOM      6  C10 UNL     1     141.444 123.949 103.585  0.00  0.00    +0.046 A 
ENDROOT
BRANCH   4   7
ATOM      7  C11 UNL     1     141.322 126.987 101.304  0.00  0.00    +0.249 C 
ATOM      8  O2  UNL     1     141.238 126.446 100.209  0.00  0.00    -0.270 OA
ATOM      9  N1  UNL     1     141.333 128.341 101.571  0.00  0.00    -0.264 N 
ATOM     10  C12 UNL     1     141.321 129.330 100.605  0.00  0.00    +0.168 A 
ATOM     11  C13 UNL     1     141.267 130.714 100.910  0.00  0.00    +0.091 A 
ATOM     12  C14 UNL     1     141.279 131.341  99.689  0.00  0.00    +0.136 A 
ATOM     13  C15 UNL     1     141.243 132.745  99.247  0.00  0.00    +0.089 C 
ATOM     14  O3  UNL     1     141.340 130.401  98.711  0.00  0.00    -0.358 OA
ATOM     15  N2  UNL     1     141.369 129.146  99.283  0.00  0.00    -0.063 NA
ATOM     16  H14 UNL     1     141.279 128.657 102.526  0.00  0.00    +0.157 HD
ENDBRANCH   4   7
BRANCH   1  17
ATOM     17  O1  UNL     1     141.515 123.681 105.895  0.00  0.00    -0.492 OA
BRANCH  17  18
ATOM     18  C4  UNL     1     140.591 122.590 105.883  0.00  0.00    +0.229 C 
BRANCH  18  19
ATOM     19  C3  UNL     1     139.303 123.066 106.551  0.00  0.00    +0.041 C 
BRANCH  19  21
ATOM     20  C1  UNL     1     137.863 124.735 105.269  0.00  0.00    +0.004 C 
ATOM     21  C2  UNL     1     138.145 123.272 105.574  0.00  0.00    -0.000 C 
ENDBRANCH  19  21
ENDBRANCH  18  19
ENDBRANCH  17  18
ENDBRANCH   1  17
TORSDOF 5
ENDMDL
MODEL 9
REMARK VINA RESULT:    -3.394      8.211      9.214
REMARK INTER + INTRA:          -4.989
REMARK INTER:                  -4.090
REMARK INTRA:                  -0.898
REMARK UNBOUND:                -0.603
REMARK  Name = /home/vital/Documents/PhD_2021/Malaria_codes/data/pdb_ligands_mmv/ligand_186.pdb
REMARK  7 active torsions:
REMARK  status: ('A' for Active; 'I' for Inactive)
REMARK    1  A    between atoms: C1_1  and  C2_2
REMARK    2  A    between atoms: C2_2  and  C3_3
REMARK    3  A    between atoms: C3_3  and  C4_4
REMARK    4  A    between atoms: C4_4  and  O1_5
REMARK    5  A    between atoms: O1_5  and  C5_6
REMARK    6  A    between atoms: C8_9  and  C11_12
REMARK    7  A    between atoms: C14_17  and  C15_18
REMARK                            x       y       z     vdW  Elec       q    Type
REMARK                         _______ _______ _______ _____ _____    ______ ____
ROOT
ATOM      1  C5  UNL     1     134.201 122.804  85.631  0.00  0.00    +0.121 A 
ATOM      2  C6  UNL     1     133.944 124.097  85.176  0.00  0.00    +0.046 A 
ATOM      3  C7  UNL     1     134.569 125.192  85.785  0.00  0.00    +0.016 A 
ATOM      4  C8  UNL     1     135.446 125.002  86.858  0.00  0.00    +0.037 A 
ATOM      5  C9  UNL     1     135.720 123.705  87.303  0.00  0.00    +0.016 A 
ATOM      6  C10 UNL     1     135.093 122.615  86.692  0.00  0.00    +0.046 A 
ENDROOT
BRANCH   4   7
ATOM      7  C11 UNL     1     136.083 126.200  87.476  0.00  0.00    +0.249 C 
ATOM      8  O2  UNL     1     136.196 126.226  88.695  0.00  0.00    -0.270 OA
ATOM      9  N1  UNL     1     136.521 127.147  86.573  0.00  0.00    -0.264 N 
ATOM     10  C12 UNL     1     137.114 128.346  86.922  0.00  0.00    +0.168 A 
ATOM     11  C13 UNL     1     137.614 129.272  85.971  0.00  0.00    +0.091 A 
ATOM     12  C14 UNL     1     138.106 130.311  86.721  0.00  0.00    +0.136 A 
ATOM     13  C15 UNL     1     138.761 131.592  86.409  0.00  0.00    +0.089 C 
ATOM     14  O3  UNL     1     137.915 130.036  88.036  0.00  0.00    -0.358 OA
ATOM     15  N2  UNL     1     137.293 128.810  88.162  0.00  0.00    -0.063 NA
ATOM     16  H14 UNL     1     136.477 126.947  85.587  0.00  0.00    +0.157 HD
ENDBRANCH   4   7
BRANCH   1  17
ATOM     17  O1  UNL     1     133.661 121.652  85.131  0.00  0.00    -0.492 OA
BRANCH  17  18
ATOM     18  C4  UNL     1     132.949 120.814  86.044  0.00  0.00    +0.229 C 
BRANCH  18  19
ATOM     19  C3  UNL     1     131.556 121.411  86.231  0.00  0.00    +0.041 C 
BRANCH  19  21
ATOM     20  C1  UNL     1     131.507 123.308  87.933  0.00  0.00    +0.004 C 
ATOM     21  C2  UNL     1     131.257 121.832  87.670  0.00  0.00    -0.000 C 
ENDBRANCH  19  21
ENDBRANCH  18  19
ENDBRANCH  17  18
ENDBRANCH   1  17
TORSDOF 5
ENDMDL
