MODEL 1
REMARK VINA RESULT:    -5.960      0.000      0.000
REMARK INTER + INTRA:          -8.320
REMARK INTER:                  -7.527
REMARK INTRA:                  -0.793
REMARK UNBOUND:                -0.793
REMARK  Name = /home/vital/Documents/PhD_2021/Malaria_codes/data/pdb_ligands_mmv/ligand_127.pdb
REMARK  6 active torsions:
REMARK  status: ('A' for Active; 'I' for Inactive)
REMARK    1  A    between atoms: C1_1  and  C2_2
REMARK    2  A    between atoms: C2_2  and  N1_3
REMARK    3  A    between atoms: C2_2  and  C10_11
REMARK    4  A    between atoms: N1_3  and  C3_4
REMARK    5  A    between atoms: C3_4  and  C4_5
REMARK    6  A    between atoms: C15_17  and  O1_18
REMARK                            x       y       z     vdW  Elec       q    Type
REMARK                         _______ _______ _______ _____ _____    ______ ____
ROOT
ATOM      1  C1  UNL     1     126.337 131.758  85.131  0.00  0.00    +0.029 C 
ATOM      2  C2  UNL     1     127.249 132.972  85.346  0.00  0.00    +0.085 C 
ENDROOT
BRANCH   2   3
ATOM      3  C10 UNL     1     126.617 134.213  85.968  0.00  0.00    +0.012 A 
ATOM      4  C11 UNL     1     125.208 134.256  86.047  0.00  0.00    +0.028 A 
ATOM      5  C12 UNL     1     124.548 135.356  86.596  0.00  0.00    +0.042 A 
ATOM      6 CL1  UNL     1     122.830 135.371  86.678  0.00  0.00    -0.084 Cl
ATOM      7  C13 UNL     1     125.272 136.442  87.075  0.00  0.00    +0.023 A 
ATOM      8  C14 UNL     1     126.664 136.427  86.999  0.00  0.00    +0.047 A 
ATOM      9  C15 UNL     1     127.325 135.325  86.446  0.00  0.00    +0.122 A 
BRANCH   9  10
ATOM     10  O1  UNL     1     128.687 135.357  86.358  0.00  0.00    -0.506 OA
ATOM     11  H16 UNL     1     129.002 134.562  85.899  0.00  0.00    +0.292 HD
ENDBRANCH   9  10
ENDBRANCH   2   3
BRANCH   2  12
ATOM     12  N1  UNL     1     128.539 132.620  85.961  0.00  0.00    -0.305 NA
ATOM     13  H5  UNL     1     128.644 133.136  86.833  0.00  0.00    +0.123 HD
BRANCH  12  14
ATOM     14  C3  UNL     1     128.706 131.196  86.248  0.00  0.00    +0.117 C 
BRANCH  14  15
ATOM     15  C4  UNL     1     128.749 130.966  87.744  0.00  0.00    -0.034 A 
ATOM     16  C5  UNL     1     128.269 131.938  88.632  0.00  0.00    +0.005 A 
ATOM     17  C6  UNL     1     128.322 131.725  90.010  0.00  0.00    +0.000 A 
ATOM     18  C7  UNL     1     128.862 130.543  90.515  0.00  0.00    +0.000 A 
ATOM     19  C8  UNL     1     129.353 129.574  89.641  0.00  0.00    +0.000 A 
ATOM     20  C9  UNL     1     129.301 129.785  88.263  0.00  0.00    +0.005 A 
ENDBRANCH  14  15
ENDBRANCH  12  14
ENDBRANCH   2  12
TORSDOF 5
ENDMDL
MODEL 2
REMARK VINA RESULT:    -5.627      2.644      6.097
REMARK INTER + INTRA:          -7.899
REMARK INTER:                  -7.342
REMARK INTRA:                  -0.557
REMARK UNBOUND:                -0.793
REMARK  Name = /home/vital/Documents/PhD_2021/Malaria_codes/data/pdb_ligands_mmv/ligand_127.pdb
REMARK  6 active torsions:
REMARK  status: ('A' for Active; 'I' for Inactive)
REMARK    1  A    between atoms: C1_1  and  C2_2
REMARK    2  A    between atoms: C2_2  and  N1_3
REMARK    3  A    between atoms: C2_2  and  C10_11
REMARK    4  A    between atoms: N1_3  and  C3_4
REMARK    5  A    between atoms: C3_4  and  C4_5
REMARK    6  A    between atoms: C15_17  and  O1_18
REMARK                            x       y       z     vdW  Elec       q    Type
REMARK                         _______ _______ _______ _____ _____    ______ ____
ROOT
ATOM      1  C1  UNL     1     128.606 132.351  85.229  0.00  0.00    +0.029 C 
ATOM      2  C2  UNL     1     127.660 131.507  86.092  0.00  0.00    +0.085 C 
ENDROOT
BRANCH   2   3
ATOM      3  C10 UNL     1     128.220 130.959  87.401  0.00  0.00    +0.012 A 
ATOM      4  C11 UNL     1     128.240 131.827  88.514  0.00  0.00    +0.028 A 
ATOM      5  C12 UNL     1     128.740 131.408  89.748  0.00  0.00    +0.042 A 
ATOM      6 CL1  UNL     1     128.745 132.493  91.083  0.00  0.00    -0.084 Cl
ATOM      7  C13 UNL     1     129.236 130.119  89.904  0.00  0.00    +0.023 A 
ATOM      8  C14 UNL     1     129.237 129.247  88.816  0.00  0.00    +0.047 A 
ATOM      9  C15 UNL     1     128.737 129.668  87.578  0.00  0.00    +0.122 A 
BRANCH   9  10
ATOM     10  O1  UNL     1     128.782 128.799  86.527  0.00  0.00    -0.506 OA
ATOM     11  H16 UNL     1     129.615 128.916  86.044  0.00  0.00    +0.292 HD
ENDBRANCH   9  10
ENDBRANCH   2   3
BRANCH   2  12
ATOM     12  N1  UNL     1     126.331 132.117  86.252  0.00  0.00    -0.305 NA
ATOM     13  H5  UNL     1     126.269 132.545  87.174  0.00  0.00    +0.123 HD
BRANCH  12  14
ATOM     14  C3  UNL     1     126.004 133.133  85.252  0.00  0.00    +0.117 C 
BRANCH  14  15
ATOM     15  C4  UNL     1     125.276 134.290  85.902  0.00  0.00    -0.034 A 
ATOM     16  C5  UNL     1     123.903 134.209  86.177  0.00  0.00    +0.005 A 
ATOM     17  C6  UNL     1     123.235 135.284  86.765  0.00  0.00    +0.000 A 
ATOM     18  C7  UNL     1     123.928 136.452  87.077  0.00  0.00    +0.000 A 
ATOM     19  C8  UNL     1     125.290 136.549  86.797  0.00  0.00    +0.000 A 
ATOM     20  C9  UNL     1     125.961 135.476  86.210  0.00  0.00    +0.005 A 
ENDBRANCH  14  15
ENDBRANCH  12  14
ENDBRANCH   2  12
TORSDOF 5
ENDMDL
MODEL 3
REMARK VINA RESULT:    -5.404      2.819      6.279
REMARK INTER + INTRA:          -7.618
REMARK INTER:                  -6.952
REMARK INTRA:                  -0.666
REMARK UNBOUND:                -0.793
REMARK  Name = /home/vital/Documents/PhD_2021/Malaria_codes/data/pdb_ligands_mmv/ligand_127.pdb
REMARK  6 active torsions:
REMARK  status: ('A' for Active; 'I' for Inactive)
REMARK    1  A    between atoms: C1_1  and  C2_2
REMARK    2  A    between atoms: C2_2  and  N1_3
REMARK    3  A    between atoms: C2_2  and  C10_11
REMARK    4  A    between atoms: N1_3  and  C3_4
REMARK    5  A    between atoms: C3_4  and  C4_5
REMARK    6  A    between atoms: C15_17  and  O1_18
REMARK                            x       y       z     vdW  Elec       q    Type
REMARK                         _______ _______ _______ _____ _____    ______ ____
ROOT
ATOM      1  C1  UNL     1     128.727 132.686  85.578  0.00  0.00    +0.029 C 
ATOM      2  C2  UNL     1     127.739 131.843  86.394  0.00  0.00    +0.085 C 
ENDROOT
BRANCH   2   3
ATOM      3  C10 UNL     1     128.284 131.146  87.637  0.00  0.00    +0.012 A 
ATOM      4  C11 UNL     1     128.543 129.761  87.545  0.00  0.00    +0.028 A 
ATOM      5  C12 UNL     1     129.036 129.045  88.636  0.00  0.00    +0.042 A 
ATOM      6 CL1  UNL     1     129.344 127.359  88.485  0.00  0.00    -0.084 Cl
ATOM      7  C13 UNL     1     129.279 129.685  89.846  0.00  0.00    +0.023 A 
ATOM      8  C14 UNL     1     129.021 131.050  89.964  0.00  0.00    +0.047 A 
ATOM      9  C15 UNL     1     128.524 131.768  88.870  0.00  0.00    +0.122 A 
BRANCH   9  10
ATOM     10  O1  UNL     1     128.252 133.096  89.030  0.00  0.00    -0.506 OA
ATOM     11  H16 UNL     1     128.731 133.435  89.804  0.00  0.00    +0.292 HD
ENDBRANCH   9  10
ENDBRANCH   2   3
BRANCH   2  12
ATOM     12  N1  UNL     1     126.463 132.532  86.641  0.00  0.00    -0.305 NA
ATOM     13  H5  UNL     1     126.558 133.127  87.463  0.00  0.00    +0.123 HD
BRANCH  12  14
ATOM     14  C3  UNL     1     125.993 133.358  85.530  0.00  0.00    +0.117 C 
BRANCH  14  15
ATOM     15  C4  UNL     1     125.184 134.526  86.052  0.00  0.00    -0.034 A 
ATOM     16  C5  UNL     1     125.810 135.728  86.411  0.00  0.00    +0.005 A 
ATOM     17  C6  UNL     1     125.059 136.797  86.903  0.00  0.00    +0.000 A 
ATOM     18  C7  UNL     1     123.678 136.674  87.047  0.00  0.00    +0.000 A 
ATOM     19  C8  UNL     1     123.047 135.480  86.703  0.00  0.00    +0.000 A 
ATOM     20  C9  UNL     1     123.795 134.410  86.212  0.00  0.00    +0.005 A 
ENDBRANCH  14  15
ENDBRANCH  12  14
ENDBRANCH   2  12
TORSDOF 5
ENDMDL
MODEL 4
REMARK VINA RESULT:    -4.742     18.296     21.204
REMARK INTER + INTRA:          -6.782
REMARK INTER:                  -6.198
REMARK INTRA:                  -0.584
REMARK UNBOUND:                -0.793
REMARK  Name = /home/vital/Documents/PhD_2021/Malaria_codes/data/pdb_ligands_mmv/ligand_127.pdb
REMARK  6 active torsions:
REMARK  status: ('A' for Active; 'I' for Inactive)
REMARK    1  A    between atoms: C1_1  and  C2_2
REMARK    2  A    between atoms: C2_2  and  N1_3
REMARK    3  A    between atoms: C2_2  and  C10_11
REMARK    4  A    between atoms: N1_3  and  C3_4
REMARK    5  A    between atoms: C3_4  and  C4_5
REMARK    6  A    between atoms: C15_17  and  O1_18
REMARK                            x       y       z     vdW  Elec       q    Type
REMARK                         _______ _______ _______ _____ _____    ______ ____
ROOT
ATOM      1  C1  UNL     1     141.675 126.128 101.360  0.00  0.00    +0.029 C 
ATOM      2  C2  UNL     1     141.535 127.578 101.841  0.00  0.00    +0.085 C 
ENDROOT
BRANCH   2   3
ATOM      3  C10 UNL     1     140.779 128.541 100.931  0.00  0.00    +0.012 A 
ATOM      4  C11 UNL     1     139.752 128.004 100.126  0.00  0.00    +0.028 A 
ATOM      5  C12 UNL     1     139.015 128.813  99.260  0.00  0.00    +0.042 A 
ATOM      6 CL1  UNL     1     137.768 128.124  98.297  0.00  0.00    -0.084 Cl
ATOM      7  C13 UNL     1     139.284 130.174  99.171  0.00  0.00    +0.023 A 
ATOM      8  C14 UNL     1     140.300 130.726  99.949  0.00  0.00    +0.047 A 
ATOM      9  C15 UNL     1     141.041 129.913 100.815  0.00  0.00    +0.122 A 
BRANCH   9  10
ATOM     10  O1  UNL     1     142.050 130.480 101.538  0.00  0.00    -0.506 OA
ATOM     11  H16 UNL     1     142.229 129.942 102.326  0.00  0.00    +0.292 HD
ENDBRANCH   9  10
ENDBRANCH   2   3
BRANCH   2  12
ATOM     12  N1  UNL     1     141.118 127.678 103.249  0.00  0.00    -0.305 NA
ATOM     13  H5  UNL     1     140.191 127.268 103.352  0.00  0.00    +0.123 HD
BRANCH  12  14
ATOM     14  C3  UNL     1     142.017 127.022 104.197  0.00  0.00    +0.117 C 
BRANCH  14  15
ATOM     15  C4  UNL     1     141.248 126.038 105.051  0.00  0.00    -0.034 A 
ATOM     16  C5  UNL     1     140.043 125.483 104.597  0.00  0.00    +0.005 A 
ATOM     17  C6  UNL     1     139.333 124.584 105.394  0.00  0.00    +0.000 A 
ATOM     18  C7  UNL     1     139.814 124.237 106.655  0.00  0.00    +0.000 A 
ATOM     19  C8  UNL     1     141.005 124.790 107.122  0.00  0.00    +0.000 A 
ATOM     20  C9  UNL     1     141.717 125.688 106.327  0.00  0.00    +0.005 A 
ENDBRANCH  14  15
ENDBRANCH  12  14
ENDBRANCH   2  12
TORSDOF 5
ENDMDL
MODEL 5
REMARK VINA RESULT:    -4.715     17.547     20.378
REMARK INTER + INTRA:          -6.748
REMARK INTER:                  -5.765
REMARK INTRA:                  -0.982
REMARK UNBOUND:                -0.793
REMARK  Name = /home/vital/Documents/PhD_2021/Malaria_codes/data/pdb_ligands_mmv/ligand_127.pdb
REMARK  6 active torsions:
REMARK  status: ('A' for Active; 'I' for Inactive)
REMARK    1  A    between atoms: C1_1  and  C2_2
REMARK    2  A    between atoms: C2_2  and  N1_3
REMARK    3  A    between atoms: C2_2  and  C10_11
REMARK    4  A    between atoms: N1_3  and  C3_4
REMARK    5  A    between atoms: C3_4  and  C4_5
REMARK    6  A    between atoms: C15_17  and  O1_18
REMARK                            x       y       z     vdW  Elec       q    Type
REMARK                         _______ _______ _______ _____ _____    ______ ____
ROOT
ATOM      1  C1  UNL     1     141.312 132.023  99.559  0.00  0.00    +0.029 C 
ATOM      2  C2  UNL     1     141.515 130.577 100.028  0.00  0.00    +0.085 C 
ENDROOT
BRANCH   2   3
ATOM      3  C10 UNL     1     142.953 130.108 100.228  0.00  0.00    +0.012 A 
ATOM      4  C11 UNL     1     143.463 129.164  99.311  0.00  0.00    +0.028 A 
ATOM      5  C12 UNL     1     144.765 128.677  99.425  0.00  0.00    +0.042 A 
ATOM      6 CL1  UNL     1     145.353 127.529  98.286  0.00  0.00    -0.084 Cl
ATOM      7  C13 UNL     1     145.591 129.113 100.454  0.00  0.00    +0.023 A 
ATOM      8  C14 UNL     1     145.107 130.037 101.379  0.00  0.00    +0.047 A 
ATOM      9  C15 UNL     1     143.799 130.523 101.266  0.00  0.00    +0.122 A 
BRANCH   9  10
ATOM     10  O1  UNL     1     143.347 131.403 102.206  0.00  0.00    -0.506 OA
ATOM     11  H16 UNL     1     142.570 131.030 102.654  0.00  0.00    +0.292 HD
ENDBRANCH   9  10
ENDBRANCH   2   3
BRANCH   2  12
ATOM     12  N1  UNL     1     140.634 130.207 101.147  0.00  0.00    -0.305 NA
ATOM     13  H5  UNL     1     139.731 130.663 101.025  0.00  0.00    +0.123 HD
BRANCH  12  14
ATOM     14  C3  UNL     1     140.406 128.770 101.291  0.00  0.00    +0.117 C 
BRANCH  14  15
ATOM     15  C4  UNL     1     139.774 128.212 100.033  0.00  0.00    -0.034 A 
ATOM     16  C5  UNL     1     138.583 128.754  99.529  0.00  0.00    +0.005 A 
ATOM     17  C6  UNL     1     138.000 128.228  98.376  0.00  0.00    +0.000 A 
ATOM     18  C7  UNL     1     138.594 127.151  97.720  0.00  0.00    +0.000 A 
ATOM     19  C8  UNL     1     139.772 126.598  98.218  0.00  0.00    +0.000 A 
ATOM     20  C9  UNL     1     140.358 127.122  99.370  0.00  0.00    +0.005 A 
ENDBRANCH  14  15
ENDBRANCH  12  14
ENDBRANCH   2  12
TORSDOF 5
ENDMDL
MODEL 6
REMARK VINA RESULT:    -4.707     17.673     20.047
REMARK INTER + INTRA:          -6.738
REMARK INTER:                  -5.743
REMARK INTRA:                  -0.995
REMARK UNBOUND:                -0.793
REMARK  Name = /home/vital/Documents/PhD_2021/Malaria_codes/data/pdb_ligands_mmv/ligand_127.pdb
REMARK  6 active torsions:
REMARK  status: ('A' for Active; 'I' for Inactive)
REMARK    1  A    between atoms: C1_1  and  C2_2
REMARK    2  A    between atoms: C2_2  and  N1_3
REMARK    3  A    between atoms: C2_2  and  C10_11
REMARK    4  A    between atoms: N1_3  and  C3_4
REMARK    5  A    between atoms: C3_4  and  C4_5
REMARK    6  A    between atoms: C15_17  and  O1_18
REMARK                            x       y       z     vdW  Elec       q    Type
REMARK                         _______ _______ _______ _____ _____    ______ ____
ROOT
ATOM      1  C1  UNL     1     141.904 127.230 102.650  0.00  0.00    +0.029 C 
ATOM      2  C2  UNL     1     141.928 128.263 101.516  0.00  0.00    +0.085 C 
ENDROOT
BRANCH   2   3
ATOM      3  C10 UNL     1     140.769 128.233 100.525  0.00  0.00    +0.012 A 
ATOM      4  C11 UNL     1     140.975 127.555  99.304  0.00  0.00    +0.028 A 
ATOM      5  C12 UNL     1     139.969 127.485  98.339  0.00  0.00    +0.042 A 
ATOM      6 CL1  UNL     1     140.256 126.647  96.864  0.00  0.00    -0.084 Cl
ATOM      7  C13 UNL     1     138.738 128.089  98.562  0.00  0.00    +0.023 A 
ATOM      8  C14 UNL     1     138.514 128.773  99.755  0.00  0.00    +0.047 A 
ATOM      9  C15 UNL     1     139.523 128.846 100.723  0.00  0.00    +0.122 A 
BRANCH   9  10
ATOM     10  O1  UNL     1     139.282 129.550 101.866  0.00  0.00    -0.506 OA
ATOM     11  H16 UNL     1     139.660 129.078 102.625  0.00  0.00    +0.292 HD
ENDBRANCH   9  10
ENDBRANCH   2   3
BRANCH   2  12
ATOM     12  N1  UNL     1     142.242 129.622 101.984  0.00  0.00    -0.305 NA
ATOM     13  H5  UNL     1     142.302 129.619 103.001  0.00  0.00    +0.123 HD
BRANCH  12  14
ATOM     14  C3  UNL     1     143.487 130.175 101.454  0.00  0.00    +0.117 C 
BRANCH  14  15
ATOM     15  C4  UNL     1     143.189 131.281 100.465  0.00  0.00    -0.034 A 
ATOM     16  C5  UNL     1     144.227 131.921  99.771  0.00  0.00    +0.005 A 
ATOM     17  C6  UNL     1     143.946 132.948  98.869  0.00  0.00    +0.000 A 
ATOM     18  C7  UNL     1     142.629 133.352  98.656  0.00  0.00    +0.000 A 
ATOM     19  C8  UNL     1     141.591 132.730  99.348  0.00  0.00    +0.000 A 
ATOM     20  C9  UNL     1     141.868 131.704 100.250  0.00  0.00    +0.005 A 
ENDBRANCH  14  15
ENDBRANCH  12  14
ENDBRANCH   2  12
TORSDOF 5
ENDMDL
MODEL 7
REMARK VINA RESULT:    -4.670     17.201     19.400
REMARK INTER + INTRA:          -6.692
REMARK INTER:                  -5.644
REMARK INTRA:                  -1.048
REMARK UNBOUND:                -0.793
REMARK  Name = /home/vital/Documents/PhD_2021/Malaria_codes/data/pdb_ligands_mmv/ligand_127.pdb
REMARK  6 active torsions:
REMARK  status: ('A' for Active; 'I' for Inactive)
REMARK    1  A    between atoms: C1_1  and  C2_2
REMARK    2  A    between atoms: C2_2  and  N1_3
REMARK    3  A    between atoms: C2_2  and  C10_11
REMARK    4  A    between atoms: N1_3  and  C3_4
REMARK    5  A    between atoms: C3_4  and  C4_5
REMARK    6  A    between atoms: C15_17  and  O1_18
REMARK                            x       y       z     vdW  Elec       q    Type
REMARK                         _______ _______ _______ _____ _____    ______ ____
ROOT
ATOM      1  C1  UNL     1     143.151 129.644 101.788  0.00  0.00    +0.029 C 
ATOM      2  C2  UNL     1     142.215 130.625 101.073  0.00  0.00    +0.085 C 
ENDROOT
BRANCH   2   3
ATOM      3  C10 UNL     1     142.606 131.053  99.662  0.00  0.00    +0.012 A 
ATOM      4  C11 UNL     1     143.610 130.305  99.009  0.00  0.00    +0.028 A 
ATOM      5  C12 UNL     1     144.032 130.632  97.720  0.00  0.00    +0.042 A 
ATOM      6 CL1  UNL     1     145.255 129.694  96.956  0.00  0.00    -0.084 Cl
ATOM      7  C13 UNL     1     143.470 131.712  97.050  0.00  0.00    +0.023 A 
ATOM      8  C14 UNL     1     142.485 132.473  97.677  0.00  0.00    +0.047 A 
ATOM      9  C15 UNL     1     142.064 132.146  98.971  0.00  0.00    +0.122 A 
BRANCH   9  10
ATOM     10  O1  UNL     1     141.120 132.931  99.568  0.00  0.00    -0.506 OA
ATOM     11  H16 UNL     1     140.235 132.635  99.301  0.00  0.00    +0.292 HD
ENDBRANCH   9  10
ENDBRANCH   2   3
BRANCH   2  12
ATOM     12  N1  UNL     1     140.797 130.250 101.182  0.00  0.00    -0.305 NA
ATOM     13  H5  UNL     1     140.281 130.666 100.407  0.00  0.00    +0.123 HD
BRANCH  12  14
ATOM     14  C3  UNL     1     140.547 128.810 101.177  0.00  0.00    +0.117 C 
BRANCH  14  15
ATOM     15  C4  UNL     1     139.862 128.402  99.890  0.00  0.00    -0.034 A 
ATOM     16  C5  UNL     1     140.611 127.984  98.781  0.00  0.00    +0.005 A 
ATOM     17  C6  UNL     1     139.974 127.620  97.594  0.00  0.00    +0.000 A 
ATOM     18  C7  UNL     1     138.584 127.678  97.499  0.00  0.00    +0.000 A 
ATOM     19  C8  UNL     1     137.830 128.103  98.592  0.00  0.00    +0.000 A 
ATOM     20  C9  UNL     1     138.464 128.467  99.780  0.00  0.00    +0.005 A 
ENDBRANCH  14  15
ENDBRANCH  12  14
ENDBRANCH   2  12
TORSDOF 5
ENDMDL
MODEL 8
REMARK VINA RESULT:    -4.612     17.867     20.465
REMARK INTER + INTRA:          -6.618
REMARK INTER:                  -5.508
REMARK INTRA:                  -1.110
REMARK UNBOUND:                -0.793
REMARK  Name = /home/vital/Documents/PhD_2021/Malaria_codes/data/pdb_ligands_mmv/ligand_127.pdb
REMARK  6 active torsions:
REMARK  status: ('A' for Active; 'I' for Inactive)
REMARK    1  A    between atoms: C1_1  and  C2_2
REMARK    2  A    between atoms: C2_2  and  N1_3
REMARK    3  A    between atoms: C2_2  and  C10_11
REMARK    4  A    between atoms: N1_3  and  C3_4
REMARK    5  A    between atoms: C3_4  and  C4_5
REMARK    6  A    between atoms: C15_17  and  O1_18
REMARK                            x       y       z     vdW  Elec       q    Type
REMARK                         _______ _______ _______ _____ _____    ______ ____
ROOT
ATOM      1  C1  UNL     1     143.085 130.534  99.715  0.00  0.00    +0.029 C 
ATOM      2  C2  UNL     1     141.922 130.354 100.698  0.00  0.00    +0.085 C 
ENDROOT
BRANCH   2   3
ATOM      3  C10 UNL     1     140.713 129.566 100.205  0.00  0.00    +0.012 A 
ATOM      4  C11 UNL     1     140.842 128.874  98.982  0.00  0.00    +0.028 A 
ATOM      5  C12 UNL     1     139.783 128.134  98.455  0.00  0.00    +0.042 A 
ATOM      6 CL1  UNL     1     139.979 127.300  96.963  0.00  0.00    -0.084 Cl
ATOM      7  C13 UNL     1     138.569 128.067  99.129  0.00  0.00    +0.023 A 
ATOM      8  C14 UNL     1     138.413 128.751 100.334  0.00  0.00    +0.047 A 
ATOM      9  C15 UNL     1     139.475 129.495 100.861  0.00  0.00    +0.122 A 
BRANCH   9  10
ATOM     10  O1  UNL     1     139.279 130.178 102.026  0.00  0.00    -0.506 OA
ATOM     11  H16 UNL     1     138.364 130.502 102.063  0.00  0.00    +0.292 HD
ENDBRANCH   9  10
ENDBRANCH   2   3
BRANCH   2  12
ATOM     12  N1  UNL     1     142.363 129.942 102.041  0.00  0.00    -0.305 NA
ATOM     13  H5  UNL     1     141.544 129.745 102.614  0.00  0.00    +0.123 HD
BRANCH  12  14
ATOM     14  C3  UNL     1     143.230 128.765 102.061  0.00  0.00    +0.117 C 
BRANCH  14  15
ATOM     15  C4  UNL     1     142.528 127.610 102.742  0.00  0.00    -0.034 A 
ATOM     16  C5  UNL     1     141.981 126.560 101.989  0.00  0.00    +0.005 A 
ATOM     17  C6  UNL     1     141.325 125.504 102.622  0.00  0.00    +0.000 A 
ATOM     18  C7  UNL     1     141.202 125.488 104.010  0.00  0.00    +0.000 A 
ATOM     19  C8  UNL     1     141.731 126.531 104.767  0.00  0.00    +0.000 A 
ATOM     20  C9  UNL     1     142.388 127.589 104.138  0.00  0.00    +0.005 A 
ENDBRANCH  14  15
ENDBRANCH  12  14
ENDBRANCH   2  12
TORSDOF 5
ENDMDL
MODEL 9
REMARK VINA RESULT:    -4.588     17.818     20.215
REMARK INTER + INTRA:          -6.588
REMARK INTER:                  -5.521
REMARK INTRA:                  -1.067
REMARK UNBOUND:                -0.793
REMARK  Name = /home/vital/Documents/PhD_2021/Malaria_codes/data/pdb_ligands_mmv/ligand_127.pdb
REMARK  6 active torsions:
REMARK  status: ('A' for Active; 'I' for Inactive)
REMARK    1  A    between atoms: C1_1  and  C2_2
REMARK    2  A    between atoms: C2_2  and  N1_3
REMARK    3  A    between atoms: C2_2  and  C10_11
REMARK    4  A    between atoms: N1_3  and  C3_4
REMARK    5  A    between atoms: C3_4  and  C4_5
REMARK    6  A    between atoms: C15_17  and  O1_18
REMARK                            x       y       z     vdW  Elec       q    Type
REMARK                         _______ _______ _______ _____ _____    ______ ____
ROOT
ATOM      1  C1  UNL     1     143.913 127.424 100.835  0.00  0.00    +0.029 C 
ATOM      2  C2  UNL     1     143.357 128.753 101.362  0.00  0.00    +0.085 C 
ENDROOT
BRANCH   2   3
ATOM      3  C10 UNL     1     143.299 129.919 100.379  0.00  0.00    +0.012 A 
ATOM      4  C11 UNL     1     143.254 129.608  99.003  0.00  0.00    +0.028 A 
ATOM      5  C12 UNL     1     143.206 130.613  98.037  0.00  0.00    +0.042 A 
ATOM      6 CL1  UNL     1     143.148 130.196  96.369  0.00  0.00    -0.084 Cl
ATOM      7  C13 UNL     1     143.205 131.951  98.414  0.00  0.00    +0.023 A 
ATOM      8  C14 UNL     1     143.259 132.283  99.767  0.00  0.00    +0.047 A 
ATOM      9  C15 UNL     1     143.310 131.275 100.736  0.00  0.00    +0.122 A 
BRANCH   9  10
ATOM     10  O1  UNL     1     143.395 131.635 102.049  0.00  0.00    -0.506 OA
ATOM     11  H16 UNL     1     143.390 130.840 102.606  0.00  0.00    +0.292 HD
ENDBRANCH   9  10
ENDBRANCH   2   3
BRANCH   2  12
ATOM     12  N1  UNL     1     142.111 128.591 102.129  0.00  0.00    -0.305 NA
ATOM     13  H5  UNL     1     141.508 129.394 101.957  0.00  0.00    +0.123 HD
BRANCH  12  14
ATOM     14  C3  UNL     1     141.359 127.377 101.817  0.00  0.00    +0.117 C 
BRANCH  14  15
ATOM     15  C4  UNL     1     140.322 127.663 100.753  0.00  0.00    -0.034 A 
ATOM     16  C5  UNL     1     140.430 127.094  99.476  0.00  0.00    +0.005 A 
ATOM     17  C6  UNL     1     139.476 127.371  98.495  0.00  0.00    +0.000 A 
ATOM     18  C7  UNL     1     138.410 128.223  98.777  0.00  0.00    +0.000 A 
ATOM     19  C8  UNL     1     138.298 128.803 100.040  0.00  0.00    +0.000 A 
ATOM     20  C9  UNL     1     139.250 128.528 101.022  0.00  0.00    +0.005 A 
ENDBRANCH  14  15
ENDBRANCH  12  14
ENDBRANCH   2  12
TORSDOF 5
ENDMDL
