MODEL 1
REMARK VINA RESULT:    -5.075      0.000      0.000
REMARK INTER + INTRA:          -8.364
REMARK INTER:                  -7.003
REMARK INTRA:                  -1.360
REMARK UNBOUND:                -1.360
REMARK  Name = /home/vital/Documents/PhD_2021/Malaria_codes/data/pdb_ligands_mmv/ligand_182.pdb
REMARK  9 active torsions:
REMARK  status: ('A' for Active; 'I' for Inactive)
REMARK    1  A    between atoms: N1_1  and  C1_2
REMARK    2  A    between atoms: C1_2  and  C2_3
REMARK    3  A    between atoms: C2_3  and  C3_4
REMARK    4  A    between atoms: C17_21  and  C18_22
REMARK    5  A    between atoms: N4_24  and  C19_25
REMARK    6  A    between atoms: C19_25  and  C20_26
REMARK    7  A    between atoms: C20_26  and  C21_27
REMARK    8  A    between atoms: C20_26  and  C22_28
REMARK    9  A    between atoms: C23_29  and  N5_30
REMARK                            x       y       z     vdW  Elec       q    Type
REMARK                         _______ _______ _______ _____ _____    ______ ____
ROOT
ATOM      1  N1  UNL     1     142.662 126.672 103.469  0.00  0.00    -0.312 N 
ATOM      2  C9  UNL     1     142.206 127.624 102.597  0.00  0.00    +0.162 A 
ATOM      3  C10 UNL     1     143.261 128.483 102.325  0.00  0.00    +0.122 A 
ATOM      4  N2  UNL     1     143.116 129.544 101.484  0.00  0.00    -0.241 NA
ATOM      5  C11 UNL     1     141.884 129.668 100.960  0.00  0.00    +0.090 A 
ATOM      6  C12 UNL     1     140.822 128.769 101.255  0.00  0.00    +0.092 A 
ATOM      7  C13 UNL     1     139.583 128.977 100.664  0.00  0.00    +0.030 A 
ATOM      8  C14 UNL     1     139.358 130.043  99.792  0.00  0.00    +0.002 A 
ATOM      9  C15 UNL     1     140.394 130.920  99.503  0.00  0.00    +0.002 A 
ATOM     10  C16 UNL     1     141.646 130.723 100.090  0.00  0.00    +0.030 A 
ATOM     11  N3  UNL     1     140.962 127.720 102.084  0.00  0.00    -0.226 NA
ATOM     12  C17 UNL     1     144.401 128.030 103.044  0.00  0.00    +0.103 A 
ATOM     13  C23 UNL     1     143.994 126.895 103.741  0.00  0.00    +0.112 A 
ENDROOT
BRANCH  12  14
ATOM     14  C18 UNL     1     145.745 128.596 103.057  0.00  0.00    +0.250 C 
ATOM     15  O1  UNL     1     146.692 128.046 103.613  0.00  0.00    -0.270 OA
ATOM     16  N4  UNL     1     145.867 129.791 102.381  0.00  0.00    -0.311 N 
ATOM     17  H13 UNL     1     145.039 130.156 101.917  0.00  0.00    +0.149 HD
BRANCH  16  18
ATOM     18  C19 UNL     1     147.126 130.482 102.212  0.00  0.00    +0.107 C 
BRANCH  18  19
ATOM     19  C20 UNL     1     147.337 131.031 100.791  0.00  0.00    -0.000 C 
ATOM     20  C21 UNL     1     147.320 132.560 100.762  0.00  0.00    +0.009 C 
ATOM     21  C22 UNL     1     146.325 130.466  99.793  0.00  0.00    +0.009 C 
ENDBRANCH  18  19
ENDBRANCH  16  18
ENDBRANCH  12  14
BRANCH  13  22
ATOM     22  N5  UNL     1     144.700 126.094 104.567  0.00  0.00    -0.344 N 
ATOM     23  H23 UNL     1     144.346 125.146 104.731  0.00  0.00    +0.144 HD
ATOM     24  H24 UNL     1     145.262 126.439 105.342  0.00  0.00    +0.144 HD
ENDBRANCH  13  22
BRANCH   1  25
ATOM     25  C1  UNL     1     141.832 125.610 104.013  0.00  0.00    +0.130 C 
BRANCH  25  26
ATOM     26  C2  UNL     1     141.148 126.041 105.309  0.00  0.00    +0.059 C 
BRANCH  26  27
ATOM     27  C3  UNL     1     140.092 125.057 105.732  0.00  0.00    -0.011 A 
ATOM     28  C4  UNL     1     139.024 124.734 104.886  0.00  0.00    +0.006 A 
ATOM     29  C5  UNL     1     138.045 123.828 105.304  0.00  0.00    +0.000 A 
ATOM     30  C6  UNL     1     138.121 123.240 106.568  0.00  0.00    +0.003 A 
ATOM     31  C7  UNL     1     139.177 123.561 107.418  0.00  0.00    +0.038 A 
ATOM     32  C8  UNL     1     140.149 124.463 106.997  0.00  0.00    +0.127 A 
ATOM     33  F1  UNL     1     141.153 124.772 107.829  0.00  0.00    -0.205 F 
ENDBRANCH  26  27
ENDBRANCH  25  26
ENDBRANCH   1  25
TORSDOF 7
ENDMDL
MODEL 2
REMARK VINA RESULT:    -5.032      2.154      2.987
REMARK INTER + INTRA:          -8.304
REMARK INTER:                  -6.863
REMARK INTRA:                  -1.441
REMARK UNBOUND:                -1.360
REMARK  Name = /home/vital/Documents/PhD_2021/Malaria_codes/data/pdb_ligands_mmv/ligand_182.pdb
REMARK  9 active torsions:
REMARK  status: ('A' for Active; 'I' for Inactive)
REMARK    1  A    between atoms: N1_1  and  C1_2
REMARK    2  A    between atoms: C1_2  and  C2_3
REMARK    3  A    between atoms: C2_3  and  C3_4
REMARK    4  A    between atoms: C17_21  and  C18_22
REMARK    5  A    between atoms: N4_24  and  C19_25
REMARK    6  A    between atoms: C19_25  and  C20_26
REMARK    7  A    between atoms: C20_26  and  C21_27
REMARK    8  A    between atoms: C20_26  and  C22_28
REMARK    9  A    between atoms: C23_29  and  N5_30
REMARK                            x       y       z     vdW  Elec       q    Type
REMARK                         _______ _______ _______ _____ _____    ______ ____
ROOT
ATOM      1  N1  UNL     1     143.712 128.530 102.865  0.00  0.00    -0.312 N 
ATOM      2  C9  UNL     1     142.687 128.748 101.983  0.00  0.00    +0.162 A 
ATOM      3  C10 UNL     1     143.168 129.571 100.975  0.00  0.00    +0.122 A 
ATOM      4  N2  UNL     1     142.375 129.969  99.943  0.00  0.00    -0.241 NA
ATOM      5  C11 UNL     1     141.118 129.497  99.998  0.00  0.00    +0.090 A 
ATOM      6  C12 UNL     1     140.654 128.650 101.043  0.00  0.00    +0.092 A 
ATOM      7  C13 UNL     1     139.337 128.210 101.014  0.00  0.00    +0.030 A 
ATOM      8  C14 UNL     1     138.465 128.578  99.989  0.00  0.00    +0.002 A 
ATOM      9  C15 UNL     1     138.918 129.402  98.968  0.00  0.00    +0.002 A 
ATOM     10  C16 UNL     1     140.239 129.852  98.984  0.00  0.00    +0.030 A 
ATOM     11  N3  UNL     1     141.434 128.254 102.063  0.00  0.00    -0.226 NA
ATOM     12  C17 UNL     1     144.536 129.852 101.245  0.00  0.00    +0.103 A 
ATOM     13  C23 UNL     1     144.844 129.182 102.426  0.00  0.00    +0.112 A 
ENDROOT
BRANCH  12  14
ATOM     14  C18 UNL     1     145.466 130.654 100.458  0.00  0.00    +0.250 C 
ATOM     15  O1  UNL     1     146.645 130.346 100.308  0.00  0.00    -0.270 OA
ATOM     16  N4  UNL     1     144.908 131.777  99.885  0.00  0.00    -0.311 N 
ATOM     17  H13 UNL     1     143.914 131.935 100.031  0.00  0.00    +0.149 HD
BRANCH  16  18
ATOM     18  C19 UNL     1     145.636 132.667  99.009  0.00  0.00    +0.107 C 
BRANCH  18  19
ATOM     19  C20 UNL     1     144.757 133.320  97.931  0.00  0.00    -0.000 C 
ATOM     20  C21 UNL     1     144.388 134.760  98.291  0.00  0.00    +0.009 C 
ATOM     21  C22 UNL     1     143.498 132.504  97.634  0.00  0.00    +0.009 C 
ENDBRANCH  18  19
ENDBRANCH  16  18
ENDBRANCH  12  14
BRANCH  13  22
ATOM     22  N5  UNL     1     146.010 129.127 103.105  0.00  0.00    -0.344 N 
ATOM     23  H23 UNL     1     146.756 129.772 102.824  0.00  0.00    +0.144 HD
ATOM     24  H24 UNL     1     146.369 128.281 103.540  0.00  0.00    +0.144 HD
ENDBRANCH  13  22
BRANCH   1  25
ATOM     25  C1  UNL     1     143.582 127.737 104.075  0.00  0.00    +0.130 C 
BRANCH  25  26
ATOM     26  C2  UNL     1     143.301 126.270 103.756  0.00  0.00    +0.059 C 
BRANCH  26  27
ATOM     27  C3  UNL     1     142.089 125.765 104.492  0.00  0.00    -0.011 A 
ATOM     28  C4  UNL     1     141.998 125.861 105.886  0.00  0.00    +0.006 A 
ATOM     29  C5  UNL     1     140.870 125.374 106.552  0.00  0.00    +0.000 A 
ATOM     30  C6  UNL     1     139.828 124.783 105.835  0.00  0.00    +0.003 A 
ATOM     31  C7  UNL     1     139.914 124.678 104.449  0.00  0.00    +0.038 A 
ATOM     32  C8  UNL     1     141.038 125.166 103.790  0.00  0.00    +0.127 A 
ATOM     33  F1  UNL     1     141.114 125.047 102.457  0.00  0.00    -0.205 F 
ENDBRANCH  26  27
ENDBRANCH  25  26
ENDBRANCH   1  25
TORSDOF 7
ENDMDL
MODEL 3
REMARK VINA RESULT:    -4.945      5.301      7.517
REMARK INTER + INTRA:          -8.184
REMARK INTER:                  -6.478
REMARK INTRA:                  -1.706
REMARK UNBOUND:                -1.360
REMARK  Name = /home/vital/Documents/PhD_2021/Malaria_codes/data/pdb_ligands_mmv/ligand_182.pdb
REMARK  9 active torsions:
REMARK  status: ('A' for Active; 'I' for Inactive)
REMARK    1  A    between atoms: N1_1  and  C1_2
REMARK    2  A    between atoms: C1_2  and  C2_3
REMARK    3  A    between atoms: C2_3  and  C3_4
REMARK    4  A    between atoms: C17_21  and  C18_22
REMARK    5  A    between atoms: N4_24  and  C19_25
REMARK    6  A    between atoms: C19_25  and  C20_26
REMARK    7  A    between atoms: C20_26  and  C21_27
REMARK    8  A    between atoms: C20_26  and  C22_28
REMARK    9  A    between atoms: C23_29  and  N5_30
REMARK                            x       y       z     vdW  Elec       q    Type
REMARK                         _______ _______ _______ _____ _____    ______ ____
ROOT
ATOM      1  N1  UNL     1     143.677 130.045  98.810  0.00  0.00    -0.312 N 
ATOM      2  C9  UNL     1     143.173 129.218  97.841  0.00  0.00    +0.162 A 
ATOM      3  C10 UNL     1     143.274 129.884  96.628  0.00  0.00    +0.122 A 
ATOM      4  N2  UNL     1     142.848 129.314  95.467  0.00  0.00    -0.241 NA
ATOM      5  C11 UNL     1     142.338 128.079  95.613  0.00  0.00    +0.090 A 
ATOM      6  C12 UNL     1     142.250 127.421  96.870  0.00  0.00    +0.092 A 
ATOM      7  C13 UNL     1     141.707 126.143  96.922  0.00  0.00    +0.030 A 
ATOM      8  C14 UNL     1     141.249 125.496  95.774  0.00  0.00    +0.002 A 
ATOM      9  C15 UNL     1     141.336 126.137  94.547  0.00  0.00    +0.002 A 
ATOM     10  C16 UNL     1     141.879 127.422  94.479  0.00  0.00    +0.030 A 
ATOM     11  N3  UNL     1     142.670 127.979  98.018  0.00  0.00    -0.226 NA
ATOM     12  C17 UNL     1     143.874 131.152  96.864  0.00  0.00    +0.103 A 
ATOM     13  C23 UNL     1     144.119 131.216  98.233  0.00  0.00    +0.112 A 
ENDROOT
BRANCH  12  14
ATOM     14  C18 UNL     1     144.203 132.190  95.893  0.00  0.00    +0.250 C 
ATOM     15  O1  UNL     1     144.911 133.154  96.169  0.00  0.00    -0.270 OA
ATOM     16  N4  UNL     1     143.666 131.990  94.640  0.00  0.00    -0.311 N 
ATOM     17  H13 UNL     1     143.122 131.144  94.490  0.00  0.00    +0.149 HD
BRANCH  16  18
ATOM     18  C19 UNL     1     143.929 132.861  93.516  0.00  0.00    +0.107 C 
BRANCH  18  19
ATOM     19  C20 UNL     1     142.820 132.839  92.452  0.00  0.00    -0.000 C 
ATOM     20  C21 UNL     1     141.439 132.622  93.072  0.00  0.00    +0.009 C 
ATOM     21  C22 UNL     1     143.084 131.802  91.358  0.00  0.00    +0.009 C 
ENDBRANCH  18  19
ENDBRANCH  16  18
ENDBRANCH  12  14
BRANCH  13  22
ATOM     22  N5  UNL     1     144.675 132.208  98.961  0.00  0.00    -0.344 N 
ATOM     23  H23 UNL     1     144.189 133.110  98.987  0.00  0.00    +0.144 HD
ATOM     24  H24 UNL     1     145.676 132.300  99.117  0.00  0.00    +0.144 HD
ENDBRANCH  13  22
BRANCH   1  25
ATOM     25  C1  UNL     1     143.713 129.707 100.223  0.00  0.00    +0.130 C 
BRANCH  25  26
ATOM     26  C2  UNL     1     142.595 130.406 100.994  0.00  0.00    +0.059 C 
BRANCH  26  27
ATOM     27  C3  UNL     1     141.248 129.819 100.670  0.00  0.00    -0.011 A 
ATOM     28  C4  UNL     1     140.811 128.633 101.273  0.00  0.00    +0.006 A 
ATOM     29  C5  UNL     1     139.563 128.097 100.948  0.00  0.00    +0.000 A 
ATOM     30  C6  UNL     1     138.742 128.736 100.017  0.00  0.00    +0.003 A 
ATOM     31  C7  UNL     1     139.171 129.913  99.408  0.00  0.00    +0.038 A 
ATOM     32  C8  UNL     1     140.414 130.443  99.736  0.00  0.00    +0.127 A 
ATOM     33  F1  UNL     1     140.821 131.570  99.133  0.00  0.00    -0.205 F 
ENDBRANCH  26  27
ENDBRANCH  25  26
ENDBRANCH   1  25
TORSDOF 7
ENDMDL
MODEL 4
REMARK VINA RESULT:    -4.941      2.460      7.485
REMARK INTER + INTRA:          -8.179
REMARK INTER:                  -6.723
REMARK INTRA:                  -1.456
REMARK UNBOUND:                -1.360
REMARK  Name = /home/vital/Documents/PhD_2021/Malaria_codes/data/pdb_ligands_mmv/ligand_182.pdb
REMARK  9 active torsions:
REMARK  status: ('A' for Active; 'I' for Inactive)
REMARK    1  A    between atoms: N1_1  and  C1_2
REMARK    2  A    between atoms: C1_2  and  C2_3
REMARK    3  A    between atoms: C2_3  and  C3_4
REMARK    4  A    between atoms: C17_21  and  C18_22
REMARK    5  A    between atoms: N4_24  and  C19_25
REMARK    6  A    between atoms: C19_25  and  C20_26
REMARK    7  A    between atoms: C20_26  and  C21_27
REMARK    8  A    between atoms: C20_26  and  C22_28
REMARK    9  A    between atoms: C23_29  and  N5_30
REMARK                            x       y       z     vdW  Elec       q    Type
REMARK                         _______ _______ _______ _____ _____    ______ ____
ROOT
ATOM      1  N1  UNL     1     144.197 128.148 101.869  0.00  0.00    -0.312 N 
ATOM      2  C9  UNL     1     142.901 128.259 101.439  0.00  0.00    +0.162 A 
ATOM      3  C10 UNL     1     142.092 127.646 102.385  0.00  0.00    +0.122 A 
ATOM      4  N2  UNL     1     140.739 127.593 102.235  0.00  0.00    -0.241 NA
ATOM      5  C11 UNL     1     140.285 128.177 101.113  0.00  0.00    +0.090 A 
ATOM      6  C12 UNL     1     141.140 128.802 100.163  0.00  0.00    +0.092 A 
ATOM      7  C13 UNL     1     140.577 129.382  99.033  0.00  0.00    +0.030 A 
ATOM      8  C14 UNL     1     139.200 129.365  98.812  0.00  0.00    +0.002 A 
ATOM      9  C15 UNL     1     138.365 128.757  99.739  0.00  0.00    +0.002 A 
ATOM     10  C16 UNL     1     138.916 128.170 100.879  0.00  0.00    +0.030 A 
ATOM     11  N3  UNL     1     142.475 128.858 100.308  0.00  0.00    -0.226 NA
ATOM     12  C17 UNL     1     142.921 127.158 103.432  0.00  0.00    +0.103 A 
ATOM     13  C23 UNL     1     144.226 127.494 103.082  0.00  0.00    +0.112 A 
ENDROOT
BRANCH  12  14
ATOM     14  C18 UNL     1     142.521 126.463 104.650  0.00  0.00    +0.250 C 
ATOM     15  O1  UNL     1     143.290 125.751 105.290  0.00  0.00    -0.270 OA
ATOM     16  N4  UNL     1     141.216 126.684 105.032  0.00  0.00    -0.311 N 
ATOM     17  H13 UNL     1     140.660 127.319 104.464  0.00  0.00    +0.149 HD
BRANCH  16  18
ATOM     18  C19 UNL     1     140.642 126.150 106.246  0.00  0.00    +0.107 C 
BRANCH  18  19
ATOM     19  C20 UNL     1     139.976 124.777 106.057  0.00  0.00    -0.000 C 
ATOM     20  C21 UNL     1     138.594 124.897 105.415  0.00  0.00    +0.009 C 
ATOM     21  C22 UNL     1     139.892 123.986 107.363  0.00  0.00    +0.009 C 
ENDBRANCH  18  19
ENDBRANCH  16  18
ENDBRANCH  12  14
BRANCH  13  22
ATOM     22  N5  UNL     1     145.381 127.256 103.740  0.00  0.00    -0.344 N 
ATOM     23  H23 UNL     1     145.365 127.309 104.764  0.00  0.00    +0.144 HD
ATOM     24  H24 UNL     1     146.300 127.455 103.354  0.00  0.00    +0.144 HD
ENDBRANCH  13  22
BRANCH   1  25
ATOM     25  C1  UNL     1     145.342 128.645 101.125  0.00  0.00    +0.130 C 
BRANCH  25  26
ATOM     26  C2  UNL     1     145.591 130.126 101.404  0.00  0.00    +0.059 C 
BRANCH  26  27
ATOM     27  C3  UNL     1     145.178 130.987 100.242  0.00  0.00    -0.011 A 
ATOM     28  C4  UNL     1     145.995 131.117  99.112  0.00  0.00    +0.006 A 
ATOM     29  C5  UNL     1     145.599 131.933  98.048  0.00  0.00    +0.000 A 
ATOM     30  C6  UNL     1     144.389 132.627  98.104  0.00  0.00    +0.003 A 
ATOM     31  C7  UNL     1     143.573 132.508  99.227  0.00  0.00    +0.038 A 
ATOM     32  C8  UNL     1     143.971 131.693 100.283  0.00  0.00    +0.127 A 
ATOM     33  F1  UNL     1     143.183 131.597 101.363  0.00  0.00    -0.205 F 
ENDBRANCH  26  27
ENDBRANCH  25  26
ENDBRANCH   1  25
TORSDOF 7
ENDMDL
MODEL 5
REMARK VINA RESULT:    -4.920      5.771      7.995
REMARK INTER + INTRA:          -8.149
REMARK INTER:                  -6.536
REMARK INTRA:                  -1.613
REMARK UNBOUND:                -1.360
REMARK  Name = /home/vital/Documents/PhD_2021/Malaria_codes/data/pdb_ligands_mmv/ligand_182.pdb
REMARK  9 active torsions:
REMARK  status: ('A' for Active; 'I' for Inactive)
REMARK    1  A    between atoms: N1_1  and  C1_2
REMARK    2  A    between atoms: C1_2  and  C2_3
REMARK    3  A    between atoms: C2_3  and  C3_4
REMARK    4  A    between atoms: C17_21  and  C18_22
REMARK    5  A    between atoms: N4_24  and  C19_25
REMARK    6  A    between atoms: C19_25  and  C20_26
REMARK    7  A    between atoms: C20_26  and  C21_27
REMARK    8  A    between atoms: C20_26  and  C22_28
REMARK    9  A    between atoms: C23_29  and  N5_30
REMARK                            x       y       z     vdW  Elec       q    Type
REMARK                         _______ _______ _______ _____ _____    ______ ____
ROOT
ATOM      1  N1  UNL     1     142.400 127.275  96.657  0.00  0.00    -0.312 N 
ATOM      2  C9  UNL     1     142.669 128.567  97.026  0.00  0.00    +0.162 A 
ATOM      3  C10 UNL     1     142.803 129.315  95.864  0.00  0.00    +0.122 A 
ATOM      4  N2  UNL     1     143.077 130.648  95.905  0.00  0.00    -0.241 NA
ATOM      5  C11 UNL     1     143.200 131.149  97.147  0.00  0.00    +0.090 A 
ATOM      6  C12 UNL     1     143.054 130.357  98.320  0.00  0.00    +0.092 A 
ATOM      7  C13 UNL     1     143.197 130.964  99.561  0.00  0.00    +0.030 A 
ATOM      8  C14 UNL     1     143.479 132.325  99.681  0.00  0.00    +0.002 A 
ATOM      9  C15 UNL     1     143.620 133.098  98.537  0.00  0.00    +0.002 A 
ATOM     10  C16 UNL     1     143.479 132.502  97.283  0.00  0.00    +0.030 A 
ATOM     11  N3  UNL     1     142.781 129.041  98.283  0.00  0.00    -0.226 NA
ATOM     12  C17 UNL     1     142.593 128.453  94.753  0.00  0.00    +0.103 A 
ATOM     13  C23 UNL     1     142.338 127.191  95.283  0.00  0.00    +0.112 A 
ENDROOT
BRANCH  12  14
ATOM     14  C18 UNL     1     142.612 128.789  93.334  0.00  0.00    +0.250 C 
ATOM     15  O1  UNL     1     142.799 127.951  92.456  0.00  0.00    -0.270 OA
ATOM     16  N4  UNL     1     142.385 130.120  93.059  0.00  0.00    -0.311 N 
ATOM     17  H13 UNL     1     142.201 130.738  93.846  0.00  0.00    +0.149 HD
BRANCH  16  18
ATOM     18  C19 UNL     1     142.290 130.649  91.717  0.00  0.00    +0.107 C 
BRANCH  18  19
ATOM     19  C20 UNL     1     141.394 131.894  91.611  0.00  0.00    -0.000 C 
ATOM     20  C21 UNL     1     141.925 132.893  90.582  0.00  0.00    +0.009 C 
ATOM     21  C22 UNL     1     141.187 132.578  92.963  0.00  0.00    +0.009 C 
ENDBRANCH  18  19
ENDBRANCH  16  18
ENDBRANCH  12  14
BRANCH  13  22
ATOM     22  N5  UNL     1     142.075 126.029  94.648  0.00  0.00    -0.344 N 
ATOM     23  H23 UNL     1     141.154 125.922  94.211  0.00  0.00    +0.144 HD
ATOM     24  H24 UNL     1     142.487 125.137  94.912  0.00  0.00    +0.144 HD
ENDBRANCH  13  22
BRANCH   1  25
ATOM     25  C1  UNL     1     142.225 126.185  97.601  0.00  0.00    +0.130 C 
BRANCH  25  26
ATOM     26  C2  UNL     1     140.747 125.873  97.830  0.00  0.00    +0.059 C 
BRANCH  26  27
ATOM     27  C3  UNL     1     140.128 126.821  98.821  0.00  0.00    -0.011 A 
ATOM     28  C4  UNL     1     140.691 127.012 100.089  0.00  0.00    +0.006 A 
ATOM     29  C5  UNL     1     140.093 127.886 101.000  0.00  0.00    +0.000 A 
ATOM     30  C6  UNL     1     138.927 128.573 100.656  0.00  0.00    +0.003 A 
ATOM     31  C7  UNL     1     138.356 128.384  99.400  0.00  0.00    +0.038 A 
ATOM     32  C8  UNL     1     138.957 127.514  98.496  0.00  0.00    +0.127 A 
ATOM     33  F1  UNL     1     138.391 127.331  97.294  0.00  0.00    -0.205 F 
ENDBRANCH  26  27
ENDBRANCH  25  26
ENDBRANCH   1  25
TORSDOF 7
ENDMDL
MODEL 6
REMARK VINA RESULT:    -4.782      3.218      6.876
REMARK INTER + INTRA:          -7.960
REMARK INTER:                  -6.605
REMARK INTRA:                  -1.355
REMARK UNBOUND:                -1.360
REMARK  Name = /home/vital/Documents/PhD_2021/Malaria_codes/data/pdb_ligands_mmv/ligand_182.pdb
REMARK  9 active torsions:
REMARK  status: ('A' for Active; 'I' for Inactive)
REMARK    1  A    between atoms: N1_1  and  C1_2
REMARK    2  A    between atoms: C1_2  and  C2_3
REMARK    3  A    between atoms: C2_3  and  C3_4
REMARK    4  A    between atoms: C17_21  and  C18_22
REMARK    5  A    between atoms: N4_24  and  C19_25
REMARK    6  A    between atoms: C19_25  and  C20_26
REMARK    7  A    between atoms: C20_26  and  C21_27
REMARK    8  A    between atoms: C20_26  and  C22_28
REMARK    9  A    between atoms: C23_29  and  N5_30
REMARK                            x       y       z     vdW  Elec       q    Type
REMARK                         _______ _______ _______ _____ _____    ______ ____
ROOT
ATOM      1  N1  UNL     1     142.459 126.149 102.569  0.00  0.00    -0.312 N 
ATOM      2  C9  UNL     1     141.816 125.632 103.663  0.00  0.00    +0.162 A 
ATOM      3  C10 UNL     1     142.728 125.599 104.708  0.00  0.00    +0.122 A 
ATOM      4  N2  UNL     1     142.381 125.130 105.939  0.00  0.00    -0.241 NA
ATOM      5  C11 UNL     1     141.106 124.716 106.033  0.00  0.00    +0.090 A 
ATOM      6  C12 UNL     1     140.193 124.766 104.943  0.00  0.00    +0.092 A 
ATOM      7  C13 UNL     1     138.892 124.317 105.137  0.00  0.00    +0.030 A 
ATOM      8  C14 UNL     1     138.466 123.821 106.369  0.00  0.00    +0.002 A 
ATOM      9  C15 UNL     1     139.355 123.774 107.433  0.00  0.00    +0.002 A 
ATOM     10  C16 UNL     1     140.666 124.222 107.253  0.00  0.00    +0.030 A 
ATOM     11  N3  UNL     1     140.530 125.230 103.728  0.00  0.00    -0.226 NA
ATOM     12  C17 UNL     1     143.962 126.127 104.240  0.00  0.00    +0.103 A 
ATOM     13  C23 UNL     1     143.757 126.466 102.905  0.00  0.00    +0.112 A 
ENDROOT
BRANCH  12  14
ATOM     14  C18 UNL     1     145.204 126.312 104.981  0.00  0.00    +0.250 C 
ATOM     15  O1  UNL     1     146.131 127.000 104.561  0.00  0.00    -0.270 OA
ATOM     16  N4  UNL     1     145.246 125.665 106.197  0.00  0.00    -0.311 N 
ATOM     17  H13 UNL     1     144.418 125.147 106.483  0.00  0.00    +0.149 HD
BRANCH  16  18
ATOM     18  C19 UNL     1     146.354 125.777 107.119  0.00  0.00    +0.107 C 
BRANCH  18  19
ATOM     19  C20 UNL     1     145.972 125.469 108.576  0.00  0.00    -0.000 C 
ATOM     20  C21 UNL     1     144.530 124.974 108.695  0.00  0.00    +0.009 C 
ATOM     21  C22 UNL     1     146.205 126.663 109.503  0.00  0.00    +0.009 C 
ENDBRANCH  18  19
ENDBRANCH  16  18
ENDBRANCH  12  14
BRANCH  13  22
ATOM     22  N5  UNL     1     144.616 127.005 102.013  0.00  0.00    -0.344 N 
ATOM     23  H23 UNL     1     144.286 127.796 101.451  0.00  0.00    +0.144 HD
ATOM     24  H24 UNL     1     145.351 126.476 101.549  0.00  0.00    +0.144 HD
ENDBRANCH  13  22
BRANCH   1  25
ATOM     25  C1  UNL     1     141.836 126.311 101.267  0.00  0.00    +0.130 C 
BRANCH  25  26
ATOM     26  C2  UNL     1     140.990 127.580 101.204  0.00  0.00    +0.059 C 
BRANCH  26  27
ATOM     27  C3  UNL     1     140.039 127.556 100.038  0.00  0.00    -0.011 A 
ATOM     28  C4  UNL     1     140.296 126.764  98.912  0.00  0.00    +0.006 A 
ATOM     29  C5  UNL     1     139.408 126.766  97.833  0.00  0.00    +0.000 A 
ATOM     30  C6  UNL     1     138.259 127.559  97.867  0.00  0.00    +0.003 A 
ATOM     31  C7  UNL     1     137.999 128.355  98.980  0.00  0.00    +0.038 A 
ATOM     32  C8  UNL     1     138.886 128.348 100.052  0.00  0.00    +0.127 A 
ATOM     33  F1  UNL     1     138.631 129.127 101.113  0.00  0.00    -0.205 F 
ENDBRANCH  26  27
ENDBRANCH  25  26
ENDBRANCH   1  25
TORSDOF 7
ENDMDL
MODEL 7
REMARK VINA RESULT:    -4.735      5.705      7.606
REMARK INTER + INTRA:          -7.894
REMARK INTER:                  -6.264
REMARK INTRA:                  -1.630
REMARK UNBOUND:                -1.360
REMARK  Name = /home/vital/Documents/PhD_2021/Malaria_codes/data/pdb_ligands_mmv/ligand_182.pdb
REMARK  9 active torsions:
REMARK  status: ('A' for Active; 'I' for Inactive)
REMARK    1  A    between atoms: N1_1  and  C1_2
REMARK    2  A    between atoms: C1_2  and  C2_3
REMARK    3  A    between atoms: C2_3  and  C3_4
REMARK    4  A    between atoms: C17_21  and  C18_22
REMARK    5  A    between atoms: N4_24  and  C19_25
REMARK    6  A    between atoms: C19_25  and  C20_26
REMARK    7  A    between atoms: C20_26  and  C21_27
REMARK    8  A    between atoms: C20_26  and  C22_28
REMARK    9  A    between atoms: C23_29  and  N5_30
REMARK                            x       y       z     vdW  Elec       q    Type
REMARK                         _______ _______ _______ _____ _____    ______ ____
ROOT
ATOM      1  N1  UNL     1     143.359 129.939  98.190  0.00  0.00    -0.312 N 
ATOM      2  C9  UNL     1     143.212 129.884  96.829  0.00  0.00    +0.162 A 
ATOM      3  C10 UNL     1     143.704 131.071  96.305  0.00  0.00    +0.122 A 
ATOM      4  N2  UNL     1     143.693 131.315  94.966  0.00  0.00    -0.241 NA
ATOM      5  C11 UNL     1     143.174 130.320  94.227  0.00  0.00    +0.090 A 
ATOM      6  C12 UNL     1     142.679 129.112  94.793  0.00  0.00    +0.092 A 
ATOM      7  C13 UNL     1     142.162 128.138  93.948  0.00  0.00    +0.030 A 
ATOM      8  C14 UNL     1     142.117 128.319  92.566  0.00  0.00    +0.002 A 
ATOM      9  C15 UNL     1     142.600 129.496  92.013  0.00  0.00    +0.002 A 
ATOM     10  C16 UNL     1     143.123 130.484  92.850  0.00  0.00    +0.030 A 
ATOM     11  N3  UNL     1     142.690 128.866  96.114  0.00  0.00    -0.226 NA
ATOM     12  C17 UNL     1     144.180 131.869  97.382  0.00  0.00    +0.103 A 
ATOM     13  C23 UNL     1     143.957 131.131  98.541  0.00  0.00    +0.112 A 
ENDROOT
BRANCH  12  14
ATOM     14  C18 UNL     1     144.803 133.186  97.322  0.00  0.00    +0.250 C 
ATOM     15  O1  UNL     1     144.769 133.979  98.260  0.00  0.00    -0.270 OA
ATOM     16  N4  UNL     1     145.446 133.461  96.135  0.00  0.00    -0.311 N 
ATOM     17  H13 UNL     1     145.457 132.731  95.426  0.00  0.00    +0.149 HD
BRANCH  16  18
ATOM     18  C19 UNL     1     146.188 134.679  95.897  0.00  0.00    +0.107 C 
BRANCH  18  19
ATOM     19  C20 UNL     1     146.372 135.002  94.405  0.00  0.00    -0.000 C 
ATOM     20  C21 UNL     1     146.434 136.509  94.151  0.00  0.00    +0.009 C 
ATOM     21  C22 UNL     1     145.294 134.357  93.533  0.00  0.00    +0.009 C 
ENDBRANCH  18  19
ENDBRANCH  16  18
ENDBRANCH  12  14
BRANCH  13  22
ATOM     22  N5  UNL     1     144.230 131.443  99.826  0.00  0.00    -0.344 N 
ATOM     23  H23 UNL     1     144.175 130.692 100.521  0.00  0.00    +0.144 HD
ATOM     24  H24 UNL     1     144.064 132.362 100.230  0.00  0.00    +0.144 HD
ENDBRANCH  13  22
BRANCH   1  25
ATOM     25  C1  UNL     1     142.927 128.887  99.094  0.00  0.00    +0.130 C 
BRANCH  25  26
ATOM     26  C2  UNL     1     141.594 129.230  99.757  0.00  0.00    +0.059 C 
BRANCH  26  27
ATOM     27  C3  UNL     1     140.442 128.544  99.073  0.00  0.00    -0.011 A 
ATOM     28  C4  UNL     1     140.535 127.208  98.667  0.00  0.00    +0.006 A 
ATOM     29  C5  UNL     1     139.459 126.593  98.020  0.00  0.00    +0.000 A 
ATOM     30  C6  UNL     1     138.285 127.306  97.772  0.00  0.00    +0.003 A 
ATOM     31  C7  UNL     1     138.187 128.638  98.167  0.00  0.00    +0.038 A 
ATOM     32  C8  UNL     1     139.261 129.245  98.811  0.00  0.00    +0.127 A 
ATOM     33  F1  UNL     1     139.158 130.531  99.175  0.00  0.00    -0.205 F 
ENDBRANCH  26  27
ENDBRANCH  25  26
ENDBRANCH   1  25
TORSDOF 7
ENDMDL
MODEL 8
REMARK VINA RESULT:    -4.709      3.638      7.637
REMARK INTER + INTRA:          -7.859
REMARK INTER:                  -6.230
REMARK INTRA:                  -1.629
REMARK UNBOUND:                -1.360
REMARK  Name = /home/vital/Documents/PhD_2021/Malaria_codes/data/pdb_ligands_mmv/ligand_182.pdb
REMARK  9 active torsions:
REMARK  status: ('A' for Active; 'I' for Inactive)
REMARK    1  A    between atoms: N1_1  and  C1_2
REMARK    2  A    between atoms: C1_2  and  C2_3
REMARK    3  A    between atoms: C2_3  and  C3_4
REMARK    4  A    between atoms: C17_21  and  C18_22
REMARK    5  A    between atoms: N4_24  and  C19_25
REMARK    6  A    between atoms: C19_25  and  C20_26
REMARK    7  A    between atoms: C20_26  and  C21_27
REMARK    8  A    between atoms: C20_26  and  C22_28
REMARK    9  A    between atoms: C23_29  and  N5_30
REMARK                            x       y       z     vdW  Elec       q    Type
REMARK                         _______ _______ _______ _____ _____    ______ ____
ROOT
ATOM      1  N1  UNL     1     142.451 127.110 100.930  0.00  0.00    -0.312 N 
ATOM      2  C9  UNL     1     142.171 125.792 100.685  0.00  0.00    +0.162 A 
ATOM      3  C10 UNL     1     141.732 125.229 101.875  0.00  0.00    +0.122 A 
ATOM      4  N2  UNL     1     141.376 123.917 101.951  0.00  0.00    -0.241 NA
ATOM      5  C11 UNL     1     141.489 123.246 100.792  0.00  0.00    +0.090 A 
ATOM      6  C12 UNL     1     141.939 123.853  99.586  0.00  0.00    +0.092 A 
ATOM      7  C13 UNL     1     142.021 123.078  98.436  0.00  0.00    +0.030 A 
ATOM      8  C14 UNL     1     141.674 121.727  98.437  0.00  0.00    +0.002 A 
ATOM      9  C15 UNL     1     141.234 121.135  99.613  0.00  0.00    +0.002 A 
ATOM     10  C16 UNL     1     141.146 121.901 100.777  0.00  0.00    +0.030 A 
ATOM     11  N3  UNL     1     142.289 125.147  99.507  0.00  0.00    -0.226 NA
ATOM     12  C17 UNL     1     141.732 126.241 102.874  0.00  0.00    +0.103 A 
ATOM     13  C23 UNL     1     142.178 127.402 102.249  0.00  0.00    +0.112 A 
ENDROOT
BRANCH  12  14
ATOM     14  C18 UNL     1     141.331 126.130 104.271  0.00  0.00    +0.250 C 
ATOM     15  O1  UNL     1     141.279 127.098 105.026  0.00  0.00    -0.270 OA
ATOM     16  N4  UNL     1     140.999 124.854 104.671  0.00  0.00    -0.311 N 
ATOM     17  H13 UNL     1     141.034 124.117 103.970  0.00  0.00    +0.149 HD
BRANCH  16  18
ATOM     18  C19 UNL     1     140.506 124.538 105.993  0.00  0.00    +0.107 C 
BRANCH  18  19
ATOM     19  C20 UNL     1     139.144 123.826 105.985  0.00  0.00    -0.000 C 
ATOM     20  C21 UNL     1     138.073 124.654 105.273  0.00  0.00    +0.009 C 
ATOM     21  C22 UNL     1     138.678 123.446 107.392  0.00  0.00    +0.009 C 
ENDBRANCH  18  19
ENDBRANCH  16  18
ENDBRANCH  12  14
BRANCH  13  22
ATOM     22  N5  UNL     1     142.357 128.640 102.760  0.00  0.00    -0.344 N 
ATOM     23  H23 UNL     1     141.779 129.399 102.385  0.00  0.00    +0.144 HD
ATOM     24  H24 UNL     1     143.242 128.972 103.135  0.00  0.00    +0.144 HD
ENDBRANCH  13  22
BRANCH   1  25
ATOM     25  C1  UNL     1     142.969 128.027  99.929  0.00  0.00    +0.130 C 
BRANCH  25  26
ATOM     26  C2  UNL     1     141.978 129.152  99.634  0.00  0.00    +0.059 C 
BRANCH  26  27
ATOM     27  C3  UNL     1     140.682 128.620  99.085  0.00  0.00    -0.011 A 
ATOM     28  C4  UNL     1     140.638 127.951  97.856  0.00  0.00    +0.006 A 
ATOM     29  C5  UNL     1     139.423 127.476  97.356  0.00  0.00    +0.000 A 
ATOM     30  C6  UNL     1     138.242 127.668  98.076  0.00  0.00    +0.003 A 
ATOM     31  C7  UNL     1     138.275 128.338  99.296  0.00  0.00    +0.038 A 
ATOM     32  C8  UNL     1     139.489 128.808  99.789  0.00  0.00    +0.127 A 
ATOM     33  F1  UNL     1     139.506 129.462 100.960  0.00  0.00    -0.205 F 
ENDBRANCH  26  27
ENDBRANCH  25  26
ENDBRANCH   1  25
TORSDOF 7
ENDMDL
MODEL 9
REMARK VINA RESULT:    -4.671      5.247      8.271
REMARK INTER + INTRA:          -7.806
REMARK INTER:                  -6.107
REMARK INTRA:                  -1.699
REMARK UNBOUND:                -1.360
REMARK  Name = /home/vital/Documents/PhD_2021/Malaria_codes/data/pdb_ligands_mmv/ligand_182.pdb
REMARK  9 active torsions:
REMARK  status: ('A' for Active; 'I' for Inactive)
REMARK    1  A    between atoms: N1_1  and  C1_2
REMARK    2  A    between atoms: C1_2  and  C2_3
REMARK    3  A    between atoms: C2_3  and  C3_4
REMARK    4  A    between atoms: C17_21  and  C18_22
REMARK    5  A    between atoms: N4_24  and  C19_25
REMARK    6  A    between atoms: C19_25  and  C20_26
REMARK    7  A    between atoms: C20_26  and  C21_27
REMARK    8  A    between atoms: C20_26  and  C22_28
REMARK    9  A    between atoms: C23_29  and  N5_30
REMARK                            x       y       z     vdW  Elec       q    Type
REMARK                         _______ _______ _______ _____ _____    ______ ____
ROOT
ATOM      1  N1  UNL     1     143.920 130.659  98.417  0.00  0.00    -0.312 N 
ATOM      2  C9  UNL     1     144.458 131.803  97.889  0.00  0.00    +0.162 A 
ATOM      3  C10 UNL     1     144.373 131.707  96.507  0.00  0.00    +0.122 A 
ATOM      4  N2  UNL     1     144.833 132.700  95.697  0.00  0.00    -0.241 NA
ATOM      5  C11 UNL     1     145.359 133.749  96.352  0.00  0.00    +0.090 A 
ATOM      6  C12 UNL     1     145.429 133.820  97.771  0.00  0.00    +0.092 A 
ATOM      7  C13 UNL     1     145.990 134.946  98.359  0.00  0.00    +0.030 A 
ATOM      8  C14 UNL     1     146.482 136.003  97.593  0.00  0.00    +0.002 A 
ATOM      9  C15 UNL     1     146.413 135.935  96.208  0.00  0.00    +0.002 A 
ATOM     10  C16 UNL     1     145.852 134.809  95.603  0.00  0.00    +0.030 A 
ATOM     11  N3  UNL     1     144.976 132.843  98.574  0.00  0.00    -0.226 NA
ATOM     12  C17 UNL     1     143.749 130.471  96.184  0.00  0.00    +0.103 A 
ATOM     13  C23 UNL     1     143.474 129.846  97.397  0.00  0.00    +0.112 A 
ENDROOT
BRANCH  12  14
ATOM     14  C18 UNL     1     143.426 129.940  94.864  0.00  0.00    +0.250 C 
ATOM     15  O1  UNL     1     143.115 128.767  94.679  0.00  0.00    -0.270 OA
ATOM     16  N4  UNL     1     143.482 130.868  93.847  0.00  0.00    -0.311 N 
ATOM     17  H13 UNL     1     143.712 131.827  94.096  0.00  0.00    +0.149 HD
BRANCH  16  18
ATOM     18  C19 UNL     1     143.129 130.567  92.477  0.00  0.00    +0.107 C 
BRANCH  18  19
ATOM     19  C20 UNL     1     141.768 131.144  92.055  0.00  0.00    -0.000 C 
ATOM     20  C21 UNL     1     141.378 132.359  92.897  0.00  0.00    +0.009 C 
ATOM     21  C22 UNL     1     140.656 130.094  92.086  0.00  0.00    +0.009 C 
ENDBRANCH  18  19
ENDBRANCH  16  18
ENDBRANCH  12  14
BRANCH  13  22
ATOM     22  N5  UNL     1     142.887 128.653  97.637  0.00  0.00    -0.344 N 
ATOM     23  H23 UNL     1     142.793 128.356  98.613  0.00  0.00    +0.144 HD
ATOM     24  H24 UNL     1     142.925 127.868  96.992  0.00  0.00    +0.144 HD
ENDBRANCH  13  22
BRANCH   1  25
ATOM     25  C1  UNL     1     143.859 130.376  99.841  0.00  0.00    +0.130 C 
BRANCH  25  26
ATOM     26  C2  UNL     1     142.661 131.060 100.497  0.00  0.00    +0.059 C 
BRANCH  26  27
ATOM     27  C3  UNL     1     141.464 130.150 100.551  0.00  0.00    -0.011 A 
ATOM     28  C4  UNL     1     141.495 128.958 101.286  0.00  0.00    +0.006 A 
ATOM     29  C5  UNL     1     140.378 128.119 101.312  0.00  0.00    +0.000 A 
ATOM     30  C6  UNL     1     139.224 128.459 100.604  0.00  0.00    +0.003 A 
ATOM     31  C7  UNL     1     139.187 129.639  99.865  0.00  0.00    +0.038 A 
ATOM     32  C8  UNL     1     140.302 130.471  99.843  0.00  0.00    +0.127 A 
ATOM     33  F1  UNL     1     140.258 131.599  99.119  0.00  0.00    -0.205 F 
ENDBRANCH  26  27
ENDBRANCH  25  26
ENDBRANCH   1  25
TORSDOF 7
ENDMDL
