MODEL 1
REMARK VINA RESULT:    -4.915      0.000      0.000
REMARK INTER + INTRA:          -7.996
REMARK INTER:                  -6.352
REMARK INTRA:                  -1.644
REMARK UNBOUND:                -1.644
REMARK  Name = /home/vital/Documents/PhD_2021/Malaria_codes/data/pdb_ligands_mmv/ligand_222.pdb
REMARK  8 active torsions:
REMARK  status: ('A' for Active; 'I' for Inactive)
REMARK    1  A    between atoms: N1_5  and  C4_6
REMARK    2  A    between atoms: N2_9  and  C6_10
REMARK    3  A    between atoms: N3_11  and  C7_12
REMARK    4  A    between atoms: C7_12  and  C8_13
REMARK    5  A    between atoms: C12_17  and  O3_18
REMARK    6  A    between atoms: O3_18  and  C13_19
REMARK    7  A    between atoms: C15_21  and  O4_22
REMARK    8  A    between atoms: O4_22  and  C16_23
REMARK                            x       y       z     vdW  Elec       q    Type
REMARK                         _______ _______ _______ _____ _____    ______ ____
ROOT
ATOM      1  C1  UNL     1     144.766 129.953  98.829  0.00  0.00    +0.172 A 
ATOM      2  C2  UNL     1     143.665 130.708  98.554  0.00  0.00    +0.155 A 
ATOM      3  C3  UNL     1     143.435 131.298  97.280  0.00  0.00    +0.282 A 
ATOM      4  O1  UNL     1     142.424 131.942  97.014  0.00  0.00    -0.265 OA
ATOM      5  N1  UNL     1     144.468 131.053  96.370  0.00  0.00    -0.262 N 
ATOM      6  C4  UNL     1     144.347 131.608  95.035  0.00  0.00    +0.157 C 
ATOM      7  C5  UNL     1     145.608 130.262  96.614  0.00  0.00    +0.333 A 
ATOM      8  O2  UNL     1     146.446 130.065  95.729  0.00  0.00    -0.246 OA
ATOM      9  N2  UNL     1     145.740 129.714  97.889  0.00  0.00    -0.279 N 
ATOM     10  C6  UNL     1     146.892 128.898  98.228  0.00  0.00    +0.155 C 
ATOM     11  N3  UNL     1     142.950 130.724  99.723  0.00  0.00    -0.283 N 
ATOM     12  C15 UNL     1     143.647 129.951 100.626  0.00  0.00    +0.306 A 
ATOM     13  N4  UNL     1     144.761 129.479 100.101  0.00  0.00    -0.176 NA
ENDROOT
BRANCH  11  14
ATOM     14  C7  UNL     1     141.678 131.379  99.982  0.00  0.00    +0.162 C 
BRANCH  14  15
ATOM     15  C8  UNL     1     140.539 130.391  99.999  0.00  0.00    -0.024 A 
ATOM     16  C9  UNL     1     139.674 130.310 101.097  0.00  0.00    +0.005 A 
ATOM     17  C10 UNL     1     138.635 129.378 101.109  0.00  0.00    +0.004 A 
ATOM     18  C11 UNL     1     138.448 128.514 100.028  0.00  0.00    +0.045 A 
ATOM     19  C12 UNL     1     139.300 128.581  98.926  0.00  0.00    +0.120 A 
ATOM     20  C14 UNL     1     140.336 129.519  98.918  0.00  0.00    +0.051 A 
BRANCH  19  21
ATOM     21  O3  UNL     1     139.230 127.800  97.805  0.00  0.00    -0.495 OA
ATOM     22  C13 UNL     1     139.773 126.489  97.901  0.00  0.00    +0.277 C 
ENDBRANCH  19  21
ENDBRANCH  14  15
ENDBRANCH  11  14
BRANCH  12  23
ATOM     23  O4  UNL     1     143.207 129.767 101.870  0.00  0.00    -0.425 OA
BRANCH  23  24
ATOM     24  C16 UNL     1     142.872 128.524 102.345  0.00  0.00    +0.132 A 
ATOM     25  C17 UNL     1     143.391 128.169 103.592  0.00  0.00    +0.046 A 
ATOM     26  C18 UNL     1     143.054 126.942 104.165  0.00  0.00    +0.004 A 
ATOM     27  C19 UNL     1     142.189 126.075 103.499  0.00  0.00    +0.000 A 
ATOM     28  C20 UNL     1     141.654 126.437 102.261  0.00  0.00    +0.004 A 
ATOM     29  C21 UNL     1     141.990 127.665 101.687  0.00  0.00    +0.046 A 
ENDBRANCH  23  24
ENDBRANCH  12  23
TORSDOF 5
ENDMDL
MODEL 2
REMARK VINA RESULT:    -4.798      2.462      5.670
REMARK INTER + INTRA:          -7.844
REMARK INTER:                  -6.660
REMARK INTRA:                  -1.184
REMARK UNBOUND:                -1.644
REMARK  Name = /home/vital/Documents/PhD_2021/Malaria_codes/data/pdb_ligands_mmv/ligand_222.pdb
REMARK  8 active torsions:
REMARK  status: ('A' for Active; 'I' for Inactive)
REMARK    1  A    between atoms: N1_5  and  C4_6
REMARK    2  A    between atoms: N2_9  and  C6_10
REMARK    3  A    between atoms: N3_11  and  C7_12
REMARK    4  A    between atoms: C7_12  and  C8_13
REMARK    5  A    between atoms: C12_17  and  O3_18
REMARK    6  A    between atoms: O3_18  and  C13_19
REMARK    7  A    between atoms: C15_21  and  O4_22
REMARK    8  A    between atoms: O4_22  and  C16_23
REMARK                            x       y       z     vdW  Elec       q    Type
REMARK                         _______ _______ _______ _____ _____    ______ ____
ROOT
ATOM      1  C1  UNL     1     143.391 128.990 102.103  0.00  0.00    +0.172 A 
ATOM      2  C2  UNL     1     142.068 128.705 101.944  0.00  0.00    +0.155 A 
ATOM      3  C3  UNL     1     141.479 127.497 102.410  0.00  0.00    +0.282 A 
ATOM      4  O1  UNL     1     140.280 127.254 102.308  0.00  0.00    -0.265 OA
ATOM      5  N1  UNL     1     142.404 126.632 103.004  0.00  0.00    -0.262 N 
ATOM      6  C4  UNL     1     141.921 125.363 103.515  0.00  0.00    +0.157 C 
ATOM      7  C5  UNL     1     143.773 126.903 103.202  0.00  0.00    +0.333 A 
ATOM      8  O2  UNL     1     144.503 126.093 103.780  0.00  0.00    -0.246 OA
ATOM      9  N2  UNL     1     144.255 128.120 102.723  0.00  0.00    -0.279 N 
ATOM     10  C6  UNL     1     145.656 128.471 102.875  0.00  0.00    +0.155 C 
ATOM     11  N3  UNL     1     141.552 129.790 101.285  0.00  0.00    -0.283 N 
ATOM     12  C15 UNL     1     142.590 130.681 101.113  0.00  0.00    +0.306 A 
ATOM     13  N4  UNL     1     143.720 130.207 101.598  0.00  0.00    -0.176 NA
ENDROOT
BRANCH  11  14
ATOM     14  C7  UNL     1     140.176 130.013 100.873  0.00  0.00    +0.162 C 
BRANCH  14  15
ATOM     15  C8  UNL     1     139.810 129.169  99.679  0.00  0.00    -0.024 A 
ATOM     16  C9  UNL     1     138.477 128.831  99.418  0.00  0.00    +0.005 A 
ATOM     17  C10 UNL     1     138.154 128.032  98.321  0.00  0.00    +0.004 A 
ATOM     18  C11 UNL     1     139.156 127.557  97.472  0.00  0.00    +0.045 A 
ATOM     19  C12 UNL     1     140.489 127.885  97.715  0.00  0.00    +0.120 A 
ATOM     20  C14 UNL     1     140.807 128.689  98.814  0.00  0.00    +0.051 A 
BRANCH  19  21
ATOM     21  O3  UNL     1     141.565 127.492  96.967  0.00  0.00    -0.495 OA
ATOM     22  C13 UNL     1     142.774 128.217  97.151  0.00  0.00    +0.277 C 
ENDBRANCH  19  21
ENDBRANCH  14  15
ENDBRANCH  11  14
BRANCH  12  23
ATOM     23  O4  UNL     1     142.410 131.849 100.497  0.00  0.00    -0.425 OA
BRANCH  23  24
ATOM     24  C16 UNL     1     143.051 132.155  99.323  0.00  0.00    +0.132 A 
ATOM     25  C17 UNL     1     142.377 131.839  98.141  0.00  0.00    +0.046 A 
ATOM     26  C18 UNL     1     142.941 132.167  96.907  0.00  0.00    +0.004 A 
ATOM     27  C19 UNL     1     144.170 132.822  96.853  0.00  0.00    +0.000 A 
ATOM     28  C20 UNL     1     144.835 133.156  98.035  0.00  0.00    +0.004 A 
ATOM     29  C21 UNL     1     144.273 132.829  99.270  0.00  0.00    +0.046 A 
ENDBRANCH  23  24
ENDBRANCH  12  23
TORSDOF 5
ENDMDL
MODEL 3
REMARK VINA RESULT:    -4.716      1.629      4.139
REMARK INTER + INTRA:          -7.739
REMARK INTER:                  -5.956
REMARK INTRA:                  -1.783
REMARK UNBOUND:                -1.644
REMARK  Name = /home/vital/Documents/PhD_2021/Malaria_codes/data/pdb_ligands_mmv/ligand_222.pdb
REMARK  8 active torsions:
REMARK  status: ('A' for Active; 'I' for Inactive)
REMARK    1  A    between atoms: N1_5  and  C4_6
REMARK    2  A    between atoms: N2_9  and  C6_10
REMARK    3  A    between atoms: N3_11  and  C7_12
REMARK    4  A    between atoms: C7_12  and  C8_13
REMARK    5  A    between atoms: C12_17  and  O3_18
REMARK    6  A    between atoms: O3_18  and  C13_19
REMARK    7  A    between atoms: C15_21  and  O4_22
REMARK    8  A    between atoms: O4_22  and  C16_23
REMARK                            x       y       z     vdW  Elec       q    Type
REMARK                         _______ _______ _______ _____ _____    ______ ____
ROOT
ATOM      1  C1  UNL     1     143.598 130.864  96.823  0.00  0.00    +0.172 A 
ATOM      2  C2  UNL     1     144.297 130.334  97.866  0.00  0.00    +0.155 A 
ATOM      3  C3  UNL     1     145.589 129.758  97.714  0.00  0.00    +0.282 A 
ATOM      4  O1  UNL     1     146.240 129.318  98.657  0.00  0.00    -0.265 OA
ATOM      5  N1  UNL     1     146.035 129.759  96.389  0.00  0.00    -0.262 N 
ATOM      6  C4  UNL     1     147.340 129.192  96.109  0.00  0.00    +0.157 C 
ATOM      7  C5  UNL     1     145.348 130.315  95.292  0.00  0.00    +0.333 A 
ATOM      8  O2  UNL     1     145.847 130.310  94.162  0.00  0.00    -0.246 OA
ATOM      9  N2  UNL     1     144.095 130.871  95.541  0.00  0.00    -0.279 N 
ATOM     10  C6  UNL     1     143.316 131.453  94.464  0.00  0.00    +0.155 C 
ATOM     11  N3  UNL     1     143.482 130.502  98.955  0.00  0.00    -0.283 N 
ATOM     12  C15 UNL     1     142.352 131.153  98.509  0.00  0.00    +0.306 A 
ATOM     13  N4  UNL     1     142.401 131.374  97.210  0.00  0.00    -0.176 NA
ENDROOT
BRANCH  11  14
ATOM     14  C7  UNL     1     143.745 130.124 100.334  0.00  0.00    +0.162 C 
BRANCH  14  15
ATOM     15  C8  UNL     1     143.086 128.814 100.685  0.00  0.00    -0.024 A 
ATOM     16  C9  UNL     1     142.950 127.799  99.730  0.00  0.00    +0.005 A 
ATOM     17  C10 UNL     1     142.321 126.598 100.062  0.00  0.00    +0.004 A 
ATOM     18  C11 UNL     1     141.816 126.397 101.349  0.00  0.00    +0.045 A 
ATOM     19  C12 UNL     1     141.942 127.396 102.312  0.00  0.00    +0.120 A 
ATOM     20  C14 UNL     1     142.578 128.595 101.975  0.00  0.00    +0.051 A 
BRANCH  19  21
ATOM     21  O3  UNL     1     141.498 127.331 103.605  0.00  0.00    -0.495 OA
ATOM     22  C13 UNL     1     141.390 126.037 104.182  0.00  0.00    +0.277 C 
ENDBRANCH  19  21
ENDBRANCH  14  15
ENDBRANCH  11  14
BRANCH  12  23
ATOM     23  O4  UNL     1     141.355 131.465  99.337  0.00  0.00    -0.425 OA
BRANCH  23  24
ATOM     24  C16 UNL     1     140.383 130.558  99.676  0.00  0.00    +0.132 A 
ATOM     25  C17 UNL     1     140.101 129.562  98.737  0.00  0.00    +0.046 A 
ATOM     26  C18 UNL     1     139.161 128.573  99.030  0.00  0.00    +0.004 A 
ATOM     27  C19 UNL     1     138.513 128.570 100.264  0.00  0.00    +0.000 A 
ATOM     28  C20 UNL     1     138.808 129.553 101.210  0.00  0.00    +0.004 A 
ATOM     29  C21 UNL     1     139.749 130.543 100.920  0.00  0.00    +0.046 A 
ENDBRANCH  23  24
ENDBRANCH  12  23
TORSDOF 5
ENDMDL
MODEL 4
REMARK VINA RESULT:    -4.668      3.282      5.558
REMARK INTER + INTRA:          -7.676
REMARK INTER:                  -5.829
REMARK INTRA:                  -1.847
REMARK UNBOUND:                -1.644
REMARK  Name = /home/vital/Documents/PhD_2021/Malaria_codes/data/pdb_ligands_mmv/ligand_222.pdb
REMARK  8 active torsions:
REMARK  status: ('A' for Active; 'I' for Inactive)
REMARK    1  A    between atoms: N1_5  and  C4_6
REMARK    2  A    between atoms: N2_9  and  C6_10
REMARK    3  A    between atoms: N3_11  and  C7_12
REMARK    4  A    between atoms: C7_12  and  C8_13
REMARK    5  A    between atoms: C12_17  and  O3_18
REMARK    6  A    between atoms: O3_18  and  C13_19
REMARK    7  A    between atoms: C15_21  and  O4_22
REMARK    8  A    between atoms: O4_22  and  C16_23
REMARK                            x       y       z     vdW  Elec       q    Type
REMARK                         _______ _______ _______ _____ _____    ______ ____
ROOT
ATOM      1  C1  UNL     1     141.420 126.967  95.720  0.00  0.00    +0.172 A 
ATOM      2  C2  UNL     1     141.979 126.153  96.659  0.00  0.00    +0.155 A 
ATOM      3  C3  UNL     1     143.166 125.406  96.423  0.00  0.00    +0.282 A 
ATOM      4  O1  UNL     1     143.698 124.705  97.279  0.00  0.00    -0.265 OA
ATOM      5  N1  UNL     1     143.663 125.566  95.125  0.00  0.00    -0.262 N 
ATOM      6  C4  UNL     1     144.870 124.848  94.764  0.00  0.00    +0.157 C 
ATOM      7  C5  UNL     1     143.122 126.413  94.137  0.00  0.00    +0.333 A 
ATOM      8  O2  UNL     1     143.661 126.524  93.032  0.00  0.00    -0.246 OA
ATOM      9  N2  UNL     1     141.966 127.116  94.467  0.00  0.00    -0.279 N 
ATOM     10  C6  UNL     1     141.337 128.000  93.503  0.00  0.00    +0.155 C 
ATOM     11  N3  UNL     1     141.157 126.260  97.750  0.00  0.00    -0.283 N 
ATOM     12  C15 UNL     1     140.166 127.158  97.415  0.00  0.00    +0.306 A 
ATOM     13  N4  UNL     1     140.305 127.593  96.178  0.00  0.00    -0.176 NA
ENDROOT
BRANCH  11  14
ATOM     14  C7  UNL     1     141.296 125.606  99.041  0.00  0.00    +0.162 C 
BRANCH  14  15
ATOM     15  C8  UNL     1     141.846 126.547 100.083  0.00  0.00    -0.024 A 
ATOM     16  C9  UNL     1     142.929 127.385  99.795  0.00  0.00    +0.005 A 
ATOM     17  C10 UNL     1     143.442 128.237 100.774  0.00  0.00    +0.004 A 
ATOM     18  C11 UNL     1     142.883 128.260 102.054  0.00  0.00    +0.045 A 
ATOM     19  C12 UNL     1     141.804 127.432 102.359  0.00  0.00    +0.120 A 
ATOM     20  C14 UNL     1     141.292 126.584 101.372  0.00  0.00    +0.051 A 
BRANCH  19  21
ATOM     21  O3  UNL     1     141.162 127.355 103.565  0.00  0.00    -0.495 OA
ATOM     22  C13 UNL     1     141.366 126.171 104.326  0.00  0.00    +0.277 C 
ENDBRANCH  19  21
ENDBRANCH  14  15
ENDBRANCH  11  14
BRANCH  12  23
ATOM     23  O4  UNL     1     139.199 127.480  98.273  0.00  0.00    -0.425 OA
BRANCH  23  24
ATOM     24  C16 UNL     1     139.322 128.534  99.143  0.00  0.00    +0.132 A 
ATOM     25  C17 UNL     1     138.539 128.486 100.298  0.00  0.00    +0.046 A 
ATOM     26  C18 UNL     1     138.647 129.495 101.257  0.00  0.00    +0.004 A 
ATOM     27  C19 UNL     1     139.546 130.543 101.068  0.00  0.00    +0.000 A 
ATOM     28  C20 UNL     1     140.344 130.581  99.923  0.00  0.00    +0.004 A 
ATOM     29  C21 UNL     1     140.237 129.573  98.963  0.00  0.00    +0.046 A 
ENDBRANCH  23  24
ENDBRANCH  12  23
TORSDOF 5
ENDMDL
MODEL 5
REMARK VINA RESULT:    -4.659      3.582      7.041
REMARK INTER + INTRA:          -7.665
REMARK INTER:                  -5.741
REMARK INTRA:                  -1.924
REMARK UNBOUND:                -1.644
REMARK  Name = /home/vital/Documents/PhD_2021/Malaria_codes/data/pdb_ligands_mmv/ligand_222.pdb
REMARK  8 active torsions:
REMARK  status: ('A' for Active; 'I' for Inactive)
REMARK    1  A    between atoms: N1_5  and  C4_6
REMARK    2  A    between atoms: N2_9  and  C6_10
REMARK    3  A    between atoms: N3_11  and  C7_12
REMARK    4  A    between atoms: C7_12  and  C8_13
REMARK    5  A    between atoms: C12_17  and  O3_18
REMARK    6  A    between atoms: O3_18  and  C13_19
REMARK    7  A    between atoms: C15_21  and  O4_22
REMARK    8  A    between atoms: O4_22  and  C16_23
REMARK                            x       y       z     vdW  Elec       q    Type
REMARK                         _______ _______ _______ _____ _____    ______ ____
ROOT
ATOM      1  C1  UNL     1     141.468 125.780 103.651  0.00  0.00    +0.172 A 
ATOM      2  C2  UNL     1     142.103 125.268 102.560  0.00  0.00    +0.155 A 
ATOM      3  C3  UNL     1     142.322 123.873 102.380  0.00  0.00    +0.282 A 
ATOM      4  O1  UNL     1     142.855 123.403 101.379  0.00  0.00    -0.265 OA
ATOM      5  N1  UNL     1     141.856 123.105 103.451  0.00  0.00    -0.262 N 
ATOM      6  C4  UNL     1     142.028 121.666 103.384  0.00  0.00    +0.157 C 
ATOM      7  C5  UNL     1     141.178 123.599 104.583  0.00  0.00    +0.333 A 
ATOM      8  O2  UNL     1     140.762 122.834 105.458  0.00  0.00    -0.246 OA
ATOM      9  N2  UNL     1     140.998 124.978 104.664  0.00  0.00    -0.279 N 
ATOM     10  C6  UNL     1     140.322 125.571 105.804  0.00  0.00    +0.155 C 
ATOM     11  N3  UNL     1     142.424 126.359 101.796  0.00  0.00    -0.283 N 
ATOM     12  C15 UNL     1     141.934 127.465 102.458  0.00  0.00    +0.306 A 
ATOM     13  N4  UNL     1     141.356 127.132 103.595  0.00  0.00    -0.176 NA
ENDROOT
BRANCH  11  14
ATOM     14  C7  UNL     1     143.105 126.382 100.512  0.00  0.00    +0.162 C 
BRANCH  14  15
ATOM     15  C8  UNL     1     142.136 126.576  99.373  0.00  0.00    -0.024 A 
ATOM     16  C9  UNL     1     140.942 125.847  99.312  0.00  0.00    +0.005 A 
ATOM     17  C10 UNL     1     140.063 126.022  98.242  0.00  0.00    +0.004 A 
ATOM     18  C11 UNL     1     140.366 126.923  97.219  0.00  0.00    +0.045 A 
ATOM     19  C12 UNL     1     141.549 127.657  97.263  0.00  0.00    +0.120 A 
ATOM     20  C14 UNL     1     142.424 127.481  98.339  0.00  0.00    +0.051 A 
BRANCH  19  21
ATOM     21  O3  UNL     1     141.967 128.570  96.333  0.00  0.00    -0.495 OA
ATOM     22  C13 UNL     1     143.094 129.366  96.677  0.00  0.00    +0.277 C 
ENDBRANCH  19  21
ENDBRANCH  14  15
ENDBRANCH  11  14
BRANCH  12  23
ATOM     23  O4  UNL     1     142.088 128.694 101.967  0.00  0.00    -0.425 OA
BRANCH  23  24
ATOM     24  C16 UNL     1     141.172 129.253 101.111  0.00  0.00    +0.132 A 
ATOM     25  C17 UNL     1     141.644 130.250 100.254  0.00  0.00    +0.046 A 
ATOM     26  C18 UNL     1     140.786 130.830  99.319  0.00  0.00    +0.004 A 
ATOM     27  C19 UNL     1     139.461 130.405  99.230  0.00  0.00    +0.000 A 
ATOM     28  C20 UNL     1     138.994 129.394 100.072  0.00  0.00    +0.004 A 
ATOM     29  C21 UNL     1     139.851 128.813 101.008  0.00  0.00    +0.046 A 
ENDBRANCH  23  24
ENDBRANCH  12  23
TORSDOF 5
ENDMDL
MODEL 6
REMARK VINA RESULT:    -4.608      3.231      5.496
REMARK INTER + INTRA:          -7.599
REMARK INTER:                  -5.568
REMARK INTRA:                  -2.031
REMARK UNBOUND:                -1.644
REMARK  Name = /home/vital/Documents/PhD_2021/Malaria_codes/data/pdb_ligands_mmv/ligand_222.pdb
REMARK  8 active torsions:
REMARK  status: ('A' for Active; 'I' for Inactive)
REMARK    1  A    between atoms: N1_5  and  C4_6
REMARK    2  A    between atoms: N2_9  and  C6_10
REMARK    3  A    between atoms: N3_11  and  C7_12
REMARK    4  A    between atoms: C7_12  and  C8_13
REMARK    5  A    between atoms: C12_17  and  O3_18
REMARK    6  A    between atoms: O3_18  and  C13_19
REMARK    7  A    between atoms: C15_21  and  O4_22
REMARK    8  A    between atoms: O4_22  and  C16_23
REMARK                            x       y       z     vdW  Elec       q    Type
REMARK                         _______ _______ _______ _____ _____    ______ ____
ROOT
ATOM      1  C1  UNL     1     141.401 126.974  95.720  0.00  0.00    +0.172 A 
ATOM      2  C2  UNL     1     141.931 126.160  96.675  0.00  0.00    +0.155 A 
ATOM      3  C3  UNL     1     143.111 125.392  96.464  0.00  0.00    +0.282 A 
ATOM      4  O1  UNL     1     143.617 124.690  97.334  0.00  0.00    -0.265 OA
ATOM      5  N1  UNL     1     143.631 125.535  95.174  0.00  0.00    -0.262 N 
ATOM      6  C4  UNL     1     144.833 124.796  94.838  0.00  0.00    +0.157 C 
ATOM      7  C5  UNL     1     143.120 126.382  94.171  0.00  0.00    +0.333 A 
ATOM      8  O2  UNL     1     143.679 126.477  93.074  0.00  0.00    -0.246 OA
ATOM      9  N2  UNL     1     141.969 127.106  94.476  0.00  0.00    -0.279 N 
ATOM     10  C6  UNL     1     141.370 127.992  93.494  0.00  0.00    +0.155 C 
ATOM     11  N3  UNL     1     141.093 126.288  97.752  0.00  0.00    -0.283 N 
ATOM     12  C15 UNL     1     140.122 127.198  97.393  0.00  0.00    +0.306 A 
ATOM     13  N4  UNL     1     140.289 127.621  96.155  0.00  0.00    -0.176 NA
ENDROOT
BRANCH  11  14
ATOM     14  C7  UNL     1     141.201 125.642  99.049  0.00  0.00    +0.162 C 
BRANCH  14  15
ATOM     15  C8  UNL     1     141.806 126.562 100.079  0.00  0.00    -0.024 A 
ATOM     16  C9  UNL     1     141.270 126.650 101.369  0.00  0.00    +0.005 A 
ATOM     17  C10 UNL     1     141.828 127.521 102.306  0.00  0.00    +0.004 A 
ATOM     18  C11 UNL     1     142.924 128.317 101.968  0.00  0.00    +0.045 A 
ATOM     19  C12 UNL     1     143.472 128.242 100.688  0.00  0.00    +0.120 A 
ATOM     20  C14 UNL     1     142.912 127.365  99.754  0.00  0.00    +0.051 A 
BRANCH  19  21
ATOM     21  O3  UNL     1     144.541 128.960 100.225  0.00  0.00    -0.495 OA
ATOM     22  C13 UNL     1     144.309 130.326  99.910  0.00  0.00    +0.277 C 
ENDBRANCH  19  21
ENDBRANCH  14  15
ENDBRANCH  11  14
BRANCH  12  23
ATOM     23  O4  UNL     1     139.146 127.542  98.232  0.00  0.00    -0.425 OA
BRANCH  23  24
ATOM     24  C16 UNL     1     139.284 128.579  99.120  0.00  0.00    +0.132 A 
ATOM     25  C17 UNL     1     138.497 128.527 100.272  0.00  0.00    +0.046 A 
ATOM     26  C18 UNL     1     138.618 129.518 101.246  0.00  0.00    +0.004 A 
ATOM     27  C19 UNL     1     139.535 130.555 101.076  0.00  0.00    +0.000 A 
ATOM     28  C20 UNL     1     140.336 130.598  99.934  0.00  0.00    +0.004 A 
ATOM     29  C21 UNL     1     140.217 129.606  98.958  0.00  0.00    +0.046 A 
ENDBRANCH  23  24
ENDBRANCH  12  23
TORSDOF 5
ENDMDL
MODEL 7
REMARK VINA RESULT:    -4.398     13.519     16.790
REMARK INTER + INTRA:          -7.328
REMARK INTER:                  -5.423
REMARK INTRA:                  -1.905
REMARK UNBOUND:                -1.644
REMARK  Name = /home/vital/Documents/PhD_2021/Malaria_codes/data/pdb_ligands_mmv/ligand_222.pdb
REMARK  8 active torsions:
REMARK  status: ('A' for Active; 'I' for Inactive)
REMARK    1  A    between atoms: N1_5  and  C4_6
REMARK    2  A    between atoms: N2_9  and  C6_10
REMARK    3  A    between atoms: N3_11  and  C7_12
REMARK    4  A    between atoms: C7_12  and  C8_13
REMARK    5  A    between atoms: C12_17  and  O3_18
REMARK    6  A    between atoms: O3_18  and  C13_19
REMARK    7  A    between atoms: C15_21  and  O4_22
REMARK    8  A    between atoms: O4_22  and  C16_23
REMARK                            x       y       z     vdW  Elec       q    Type
REMARK                         _______ _______ _______ _____ _____    ______ ____
ROOT
ATOM      1  C1  UNL     1     132.236 122.492  88.480  0.00  0.00    +0.172 A 
ATOM      2  C2  UNL     1     132.344 123.347  87.424  0.00  0.00    +0.155 A 
ATOM      3  C3  UNL     1     131.438 124.423  87.209  0.00  0.00    +0.282 A 
ATOM      4  O1  UNL     1     131.554 125.221  86.284  0.00  0.00    -0.265 OA
ATOM      5  N1  UNL     1     130.419 124.477  88.165  0.00  0.00    -0.262 N 
ATOM      6  C4  UNL     1     129.429 125.531  88.047  0.00  0.00    +0.157 C 
ATOM      7  C5  UNL     1     130.290 123.623  89.278  0.00  0.00    +0.333 A 
ATOM      8  O2  UNL     1     129.379 123.780  90.097  0.00  0.00    -0.246 OA
ATOM      9  N2  UNL     1     131.234 122.607  89.412  0.00  0.00    -0.279 N 
ATOM     10  C6  UNL     1     131.166 121.676  90.524  0.00  0.00    +0.155 C 
ATOM     11  N3  UNL     1     133.440 122.909  86.727  0.00  0.00    -0.283 N 
ATOM     12  C15 UNL     1     133.949 121.833  87.423  0.00  0.00    +0.306 A 
ATOM     13  N4  UNL     1     133.223 121.559  88.490  0.00  0.00    -0.176 NA
ENDROOT
BRANCH  11  14
ATOM     14  C7  UNL     1     134.011 123.472  85.515  0.00  0.00    +0.162 C 
BRANCH  14  15
ATOM     15  C8  UNL     1     135.282 124.231  85.801  0.00  0.00    -0.024 A 
ATOM     16  C9  UNL     1     136.471 123.922  85.130  0.00  0.00    +0.005 A 
ATOM     17  C10 UNL     1     137.645 124.620  85.418  0.00  0.00    +0.004 A 
ATOM     18  C11 UNL     1     137.648 125.631  86.381  0.00  0.00    +0.045 A 
ATOM     19  C12 UNL     1     136.474 125.953  87.059  0.00  0.00    +0.120 A 
ATOM     20  C14 UNL     1     135.299 125.254  86.763  0.00  0.00    +0.051 A 
BRANCH  19  21
ATOM     21  O3  UNL     1     136.335 126.917  88.020  0.00  0.00    -0.495 OA
ATOM     22  C13 UNL     1     137.309 126.935  89.056  0.00  0.00    +0.277 C 
ENDBRANCH  19  21
ENDBRANCH  14  15
ENDBRANCH  11  14
BRANCH  12  23
ATOM     23  O4  UNL     1     135.028 121.177  86.999  0.00  0.00    -0.425 OA
BRANCH  23  24
ATOM     24  C16 UNL     1     136.282 121.453  87.483  0.00  0.00    +0.132 A 
ATOM     25  C17 UNL     1     137.359 120.908  86.779  0.00  0.00    +0.046 A 
ATOM     26  C18 UNL     1     138.666 121.185  87.180  0.00  0.00    +0.004 A 
ATOM     27  C19 UNL     1     138.899 122.017  88.274  0.00  0.00    +0.000 A 
ATOM     28  C20 UNL     1     137.824 122.578  88.966  0.00  0.00    +0.004 A 
ATOM     29  C21 UNL     1     136.515 122.302  88.566  0.00  0.00    +0.046 A 
ENDBRANCH  23  24
ENDBRANCH  12  23
TORSDOF 5
ENDMDL
MODEL 8
REMARK VINA RESULT:    -4.283      2.059      4.684
REMARK INTER + INTRA:          -7.179
REMARK INTER:                  -5.737
REMARK INTRA:                  -1.442
REMARK UNBOUND:                -1.644
REMARK  Name = /home/vital/Documents/PhD_2021/Malaria_codes/data/pdb_ligands_mmv/ligand_222.pdb
REMARK  8 active torsions:
REMARK  status: ('A' for Active; 'I' for Inactive)
REMARK    1  A    between atoms: N1_5  and  C4_6
REMARK    2  A    between atoms: N2_9  and  C6_10
REMARK    3  A    between atoms: N3_11  and  C7_12
REMARK    4  A    between atoms: C7_12  and  C8_13
REMARK    5  A    between atoms: C12_17  and  O3_18
REMARK    6  A    between atoms: O3_18  and  C13_19
REMARK    7  A    between atoms: C15_21  and  O4_22
REMARK    8  A    between atoms: O4_22  and  C16_23
REMARK                            x       y       z     vdW  Elec       q    Type
REMARK                         _______ _______ _______ _____ _____    ______ ____
ROOT
ATOM      1  C1  UNL     1     143.332 131.330  98.797  0.00  0.00    +0.172 A 
ATOM      2  C2  UNL     1     143.937 131.075  99.991  0.00  0.00    +0.155 A 
ATOM      3  C3  UNL     1     145.268 131.487 100.284  0.00  0.00    +0.282 A 
ATOM      4  O1  UNL     1     145.803 131.297 101.372  0.00  0.00    -0.265 OA
ATOM      5  N1  UNL     1     145.886 132.136  99.211  0.00  0.00    -0.262 N 
ATOM      6  C4  UNL     1     147.249 132.600  99.389  0.00  0.00    +0.157 C 
ATOM      7  C5  UNL     1     145.283 132.434  97.972  0.00  0.00    +0.333 A 
ATOM      8  O2  UNL     1     145.898 133.056  97.100  0.00  0.00    -0.246 OA
ATOM      9  N2  UNL     1     143.972 132.003  97.784  0.00  0.00    -0.279 N 
ATOM     10  C6  UNL     1     143.282 132.257  96.532  0.00  0.00    +0.155 C 
ATOM     11  N3  UNL     1     143.001 130.391 100.721  0.00  0.00    -0.283 N 
ATOM     12  C15 UNL     1     141.872 130.302  99.934  0.00  0.00    +0.306 A 
ATOM     13  N4  UNL     1     142.058 130.862  98.755  0.00  0.00    -0.176 NA
ENDROOT
BRANCH  11  14
ATOM     14  C7  UNL     1     143.121 129.884 102.077  0.00  0.00    +0.162 C 
BRANCH  14  15
ATOM     15  C8  UNL     1     143.181 128.378 102.104  0.00  0.00    -0.024 A 
ATOM     16  C9  UNL     1     143.984 127.674 101.198  0.00  0.00    +0.005 A 
ATOM     17  C10 UNL     1     144.015 126.279 101.220  0.00  0.00    +0.004 A 
ATOM     18  C11 UNL     1     143.245 125.568 102.143  0.00  0.00    +0.045 A 
ATOM     19  C12 UNL     1     142.440 126.253 103.053  0.00  0.00    +0.120 A 
ATOM     20  C14 UNL     1     142.415 127.650 103.029  0.00  0.00    +0.051 A 
BRANCH  19  21
ATOM     21  O3  UNL     1     141.640 125.685 104.007  0.00  0.00    -0.495 OA
ATOM     22  C13 UNL     1     141.463 126.417 105.214  0.00  0.00    +0.277 C 
ENDBRANCH  19  21
ENDBRANCH  14  15
ENDBRANCH  11  14
BRANCH  12  23
ATOM     23  O4  UNL     1     140.771 129.685 100.363  0.00  0.00    -0.425 OA
BRANCH  23  24
ATOM     24  C16 UNL     1     140.141 128.722  99.615  0.00  0.00    +0.132 A 
ATOM     25  C17 UNL     1     138.934 129.087  99.014  0.00  0.00    +0.046 A 
ATOM     26  C18 UNL     1     138.260 128.179  98.196  0.00  0.00    +0.004 A 
ATOM     27  C19 UNL     1     138.797 126.913  97.968  0.00  0.00    +0.000 A 
ATOM     28  C20 UNL     1     140.013 126.555  98.553  0.00  0.00    +0.004 A 
ATOM     29  C21 UNL     1     140.689 127.462  99.371  0.00  0.00    +0.046 A 
ENDBRANCH  23  24
ENDBRANCH  12  23
TORSDOF 5
ENDMDL
MODEL 9
REMARK VINA RESULT:    -4.202     12.466     15.941
REMARK INTER + INTRA:          -7.074
REMARK INTER:                  -5.172
REMARK INTRA:                  -1.903
REMARK UNBOUND:                -1.644
REMARK  Name = /home/vital/Documents/PhD_2021/Malaria_codes/data/pdb_ligands_mmv/ligand_222.pdb
REMARK  8 active torsions:
REMARK  status: ('A' for Active; 'I' for Inactive)
REMARK    1  A    between atoms: N1_5  and  C4_6
REMARK    2  A    between atoms: N2_9  and  C6_10
REMARK    3  A    between atoms: N3_11  and  C7_12
REMARK    4  A    between atoms: C7_12  and  C8_13
REMARK    5  A    between atoms: C12_17  and  O3_18
REMARK    6  A    between atoms: O3_18  and  C13_19
REMARK    7  A    between atoms: C15_21  and  O4_22
REMARK    8  A    between atoms: O4_22  and  C16_23
REMARK                            x       y       z     vdW  Elec       q    Type
REMARK                         _______ _______ _______ _____ _____    ______ ____
ROOT
ATOM      1  C1  UNL     1     133.266 123.238  86.878  0.00  0.00    +0.172 A 
ATOM      2  C2  UNL     1     133.507 123.965  88.005  0.00  0.00    +0.155 A 
ATOM      3  C3  UNL     1     132.670 123.905  89.154  0.00  0.00    +0.282 A 
ATOM      4  O1  UNL     1     132.905 124.525  90.187  0.00  0.00    -0.265 OA
ATOM      5  N1  UNL     1     131.569 123.060  88.984  0.00  0.00    -0.262 N 
ATOM      6  C4  UNL     1     130.640 122.920  90.088  0.00  0.00    +0.157 C 
ATOM      7  C5  UNL     1     131.301 122.279  87.842  0.00  0.00    +0.333 A 
ATOM      8  O2  UNL     1     130.325 121.524  87.803  0.00  0.00    -0.246 OA
ATOM      9  N2  UNL     1     132.186 122.394  86.772  0.00  0.00    -0.279 N 
ATOM     10  C6  UNL     1     131.976 121.635  85.552  0.00  0.00    +0.155 C 
ATOM     11  N3  UNL     1     134.644 124.677  87.727  0.00  0.00    -0.283 N 
ATOM     12  C15 UNL     1     135.041 124.313  86.458  0.00  0.00    +0.306 A 
ATOM     13  N4  UNL     1     134.208 123.442  85.922  0.00  0.00    -0.176 NA
ENDROOT
BRANCH  11  14
ATOM     14  C7  UNL     1     135.349 125.608  88.593  0.00  0.00    +0.162 C 
BRANCH  14  15
ATOM     15  C8  UNL     1     136.469 124.931  89.341  0.00  0.00    -0.024 A 
ATOM     16  C9  UNL     1     137.585 125.657  89.777  0.00  0.00    +0.005 A 
ATOM     17  C10 UNL     1     138.624 125.014  90.451  0.00  0.00    +0.004 A 
ATOM     18  C11 UNL     1     138.566 123.640  90.695  0.00  0.00    +0.045 A 
ATOM     19  C12 UNL     1     137.463 122.902  90.268  0.00  0.00    +0.120 A 
ATOM     20  C14 UNL     1     136.423 123.552  89.597  0.00  0.00    +0.051 A 
BRANCH  19  21
ATOM     21  O3  UNL     1     137.277 121.558  90.442  0.00  0.00    -0.495 OA
ATOM     22  C13 UNL     1     136.122 120.987  89.840  0.00  0.00    +0.277 C 
ENDBRANCH  19  21
ENDBRANCH  14  15
ENDBRANCH  11  14
BRANCH  12  23
ATOM     23  O4  UNL     1     136.127 124.836  85.891  0.00  0.00    -0.425 OA
BRANCH  23  24
ATOM     24  C16 UNL     1     137.385 124.349  86.145  0.00  0.00    +0.132 A 
ATOM     25  C17 UNL     1     138.415 125.288  86.227  0.00  0.00    +0.046 A 
ATOM     26  C18 UNL     1     139.713 124.876  86.533  0.00  0.00    +0.004 A 
ATOM     27  C19 UNL     1     139.979 123.528  86.770  0.00  0.00    +0.000 A 
ATOM     28  C20 UNL     1     138.946 122.591  86.707  0.00  0.00    +0.004 A 
ATOM     29  C21 UNL     1     137.647 123.002  86.401  0.00  0.00    +0.046 A 
ENDBRANCH  23  24
ENDBRANCH  12  23
TORSDOF 5
ENDMDL
