MODEL 1
REMARK VINA RESULT:    -5.644      0.000      0.000
REMARK INTER + INTRA:          -9.309
REMARK INTER:                  -7.623
REMARK INTRA:                  -1.686
REMARK UNBOUND:                -1.686
REMARK  Name = /home/vital/Documents/PhD_2021/Malaria_codes/data/pdb_ligands_mmv/ligand_140.pdb
REMARK  8 active torsions:
REMARK  status: ('A' for Active; 'I' for Inactive)
REMARK    1  A    between atoms: C1_1  and  C2_2
REMARK    2  A    between atoms: C4_4  and  C5_5
REMARK    3  A    between atoms: C12_15  and  C15_18
REMARK    4  A    between atoms: N3_20  and  C16_21
REMARK    5  A    between atoms: C16_21  and  C17_22
REMARK    6  A    between atoms: C17_22  and  C18_23
REMARK    7  A    between atoms: C18_23  and  N4_24
REMARK    8  A    between atoms: C21_27  and  N5_30
REMARK                            x       y       z     vdW  Elec       q    Type
REMARK                         _______ _______ _______ _____ _____    ______ ____
ROOT
ATOM      1  C15 UNL     1     141.051 125.523  97.823  0.00  0.00    +0.216 C 
ATOM      2  O1  UNL     1     140.774 124.335  97.977  0.00  0.00    -0.276 OA
ATOM      3  N3  UNL     1     141.555 126.311  98.832  0.00  0.00    -0.315 N 
ATOM      4  H18 UNL     1     141.846 127.259  98.640  0.00  0.00    +0.149 HD
ENDROOT
BRANCH   1  19
ATOM      5  C1  UNL     1     140.128 132.264  88.608  0.00  0.00    +0.044 C 
ATOM      6  C2  UNL     1     140.555 131.588  89.880  0.00  0.00    -0.049 A 
ATOM      7  C3  UNL     1     140.947 132.360  90.976  0.00  0.00    +0.009 A 
ATOM      8  C4  UNL     1     141.383 131.772  92.181  0.00  0.00    -0.024 A 
ATOM      9  C5  UNL     1     141.775 132.665  93.324  0.00  0.00    +0.046 C 
ATOM     10  C6  UNL     1     141.414 130.359  92.265  0.00  0.00    +0.083 A 
ATOM     11  N1  UNL     1     141.811 129.621  93.370  0.00  0.00    -0.224 NA
ATOM     12  C7  UNL     1     141.713 128.326  93.153  0.00  0.00    +0.162 A 
ATOM     13  S1  UNL     1     141.164 127.936  91.555  0.00  0.00    -0.052 S 
ATOM     14  C8  UNL     1     141.022 129.602  91.165  0.00  0.00    +0.041 A 
ATOM     15  C9  UNL     1     140.592 130.191  89.964  0.00  0.00    +0.020 A 
ATOM     16  N2  UNL     1     142.032 127.375  94.089  0.00  0.00    -0.310 N 
ATOM     17  C10 UNL     1     141.420 126.047  94.019  0.00  0.00    +0.108 C 
ATOM     18  C11 UNL     1     141.492 125.322  95.360  0.00  0.00    +0.032 C 
ATOM     19  C12 UNL     1     140.893 126.197  96.468  0.00  0.00    +0.078 C 
ATOM     20  C13 UNL     1     141.441 127.635  96.454  0.00  0.00    +0.032 C 
ATOM     21  C14 UNL     1     142.520 127.828  95.393  0.00  0.00    +0.108 C 
ENDBRANCH   1  19
BRANCH   3  22
ATOM     22  C16 UNL     1     141.820 125.764 100.152  0.00  0.00    +0.105 C 
BRANCH  22  23
ATOM     23  C17 UNL     1     141.344 126.709 101.254  0.00  0.00    +0.034 C 
BRANCH  23  24
ATOM     24  C18 UNL     1     140.247 127.664 100.772  0.00  0.00    +0.086 C 
BRANCH  24  25
ATOM     25  N4  UNL     1     140.415 129.048 101.245  0.00  0.00    -0.302 NA
ATOM     26  C19 UNL     1     139.482 129.987 100.603  0.00  0.00    +0.086 C 
ATOM     27  C20 UNL     1     140.111 130.770  99.451  0.00  0.00    +0.034 C 
ATOM     28  C21 UNL     1     141.262 131.677  99.953  0.00  0.00    +0.059 C 
ATOM     29  C22 UNL     1     141.989 130.978 101.126  0.00  0.00    +0.034 C 
ATOM     30  C23 UNL     1     141.822 129.461 101.082  0.00  0.00    +0.086 C 
BRANCH  28  31
ATOM     31  N5  UNL     1     142.207 132.083  98.876  0.00  0.00    -0.299 NA
ATOM     32  C24 UNL     1     142.601 130.952  98.021  0.00  0.00    +0.084 C 
ATOM     33  C25 UNL     1     143.267 131.459  96.734  0.00  0.00    +0.015 C 
ATOM     34  C26 UNL     1     144.120 132.709  96.948  0.00  0.00    +0.002 C 
ATOM     35  C27 UNL     1     144.595 132.785  98.391  0.00  0.00    +0.015 C 
ATOM     36  C28 UNL     1     143.415 132.774  99.376  0.00  0.00    +0.084 C 
ENDBRANCH  28  31
ENDBRANCH  24  25
ENDBRANCH  23  24
ENDBRANCH  22  23
ENDBRANCH   3  22
TORSDOF 6
ENDMDL
MODEL 2
REMARK VINA RESULT:    -5.370      2.440      5.161
REMARK INTER + INTRA:          -8.939
REMARK INTER:                  -7.615
REMARK INTRA:                  -1.325
REMARK UNBOUND:                -1.686
REMARK  Name = /home/vital/Documents/PhD_2021/Malaria_codes/data/pdb_ligands_mmv/ligand_140.pdb
REMARK  8 active torsions:
REMARK  status: ('A' for Active; 'I' for Inactive)
REMARK    1  A    between atoms: C1_1  and  C2_2
REMARK    2  A    between atoms: C4_4  and  C5_5
REMARK    3  A    between atoms: C12_15  and  C15_18
REMARK    4  A    between atoms: N3_20  and  C16_21
REMARK    5  A    between atoms: C16_21  and  C17_22
REMARK    6  A    between atoms: C17_22  and  C18_23
REMARK    7  A    between atoms: C18_23  and  N4_24
REMARK    8  A    between atoms: C21_27  and  N5_30
REMARK                            x       y       z     vdW  Elec       q    Type
REMARK                         _______ _______ _______ _____ _____    ______ ____
ROOT
ATOM      1  C15 UNL     1     144.549 131.803  95.818  0.00  0.00    +0.216 C 
ATOM      2  O1  UNL     1     145.412 131.071  96.301  0.00  0.00    -0.276 OA
ATOM      3  N3  UNL     1     144.433 133.136  96.139  0.00  0.00    -0.315 N 
ATOM      4  H18 UNL     1     143.763 133.718  95.657  0.00  0.00    +0.149 HD
ENDROOT
BRANCH   1  19
ATOM      5  C1  UNL     1     137.320 129.623  87.204  0.00  0.00    +0.044 C 
ATOM      6  C2  UNL     1     138.486 130.036  88.057  0.00  0.00    -0.049 A 
ATOM      7  C3  UNL     1     139.097 131.274  87.841  0.00  0.00    +0.009 A 
ATOM      8  C4  UNL     1     140.211 131.695  88.596  0.00  0.00    -0.024 A 
ATOM      9  C5  UNL     1     140.806 133.046  88.320  0.00  0.00    +0.046 C 
ATOM     10  C6  UNL     1     140.710 130.825  89.595  0.00  0.00    +0.083 A 
ATOM     11  N1  UNL     1     141.791 131.080  90.426  0.00  0.00    -0.224 NA
ATOM     12  C7  UNL     1     142.004 130.091  91.269  0.00  0.00    +0.162 A 
ATOM     13  S1  UNL     1     140.908 128.764  91.062  0.00  0.00    -0.052 S 
ATOM     14  C8  UNL     1     140.094 129.594  89.798  0.00  0.00    +0.041 A 
ATOM     15  C9  UNL     1     138.986 129.177  89.042  0.00  0.00    +0.020 A 
ATOM     16  N2  UNL     1     143.005 130.098  92.207  0.00  0.00    -0.310 N 
ATOM     17  C10 UNL     1     142.875 129.288  93.420  0.00  0.00    +0.108 C 
ATOM     18  C11 UNL     1     143.797 129.785  94.530  0.00  0.00    +0.032 C 
ATOM     19  C12 UNL     1     143.565 131.279  94.783  0.00  0.00    +0.078 C 
ATOM     20  C13 UNL     1     143.569 132.110  93.488  0.00  0.00    +0.032 C 
ATOM     21  C14 UNL     1     143.891 131.262  92.261  0.00  0.00    +0.108 C 
ENDBRANCH   1  19
BRANCH   3  22
ATOM     22  C16 UNL     1     145.360 133.771  97.060  0.00  0.00    +0.105 C 
BRANCH  22  23
ATOM     23  C17 UNL     1     144.697 134.067  98.404  0.00  0.00    +0.034 C 
BRANCH  23  24
ATOM     24  C18 UNL     1     143.206 133.715  98.410  0.00  0.00    +0.086 C 
BRANCH  24  25
ATOM     25  N4  UNL     1     142.822 132.773  99.474  0.00  0.00    -0.302 NA
ATOM     26  C19 UNL     1     143.573 131.509  99.414  0.00  0.00    +0.086 C 
ATOM     27  C20 UNL     1     142.798 130.378  98.738  0.00  0.00    +0.034 C 
ATOM     28  C21 UNL     1     141.525 130.014  99.540  0.00  0.00    +0.059 C 
ATOM     29  C22 UNL     1     140.949 131.293 100.193  0.00  0.00    +0.034 C 
ATOM     30  C23 UNL     1     141.363 132.557  99.443  0.00  0.00    +0.086 C 
BRANCH  28  31
ATOM     31  N5  UNL     1     140.501 129.294  98.731  0.00  0.00    -0.299 NA
ATOM     32  C24 UNL     1     139.175 129.305  99.369  0.00  0.00    +0.084 C 
ATOM     33  C25 UNL     1     138.093 128.886  98.364  0.00  0.00    +0.015 C 
ATOM     34  C26 UNL     1     138.564 127.812  97.383  0.00  0.00    +0.002 C 
ATOM     35  C27 UNL     1     139.703 127.005  97.988  0.00  0.00    +0.015 C 
ATOM     36  C28 UNL     1     140.881 127.906  98.393  0.00  0.00    +0.084 C 
ENDBRANCH  28  31
ENDBRANCH  24  25
ENDBRANCH  23  24
ENDBRANCH  22  23
ENDBRANCH   3  22
TORSDOF 6
ENDMDL
MODEL 3
REMARK VINA RESULT:    -5.359      5.530     10.827
REMARK INTER + INTRA:          -8.925
REMARK INTER:                  -7.147
REMARK INTRA:                  -1.778
REMARK UNBOUND:                -1.686
REMARK  Name = /home/vital/Documents/PhD_2021/Malaria_codes/data/pdb_ligands_mmv/ligand_140.pdb
REMARK  8 active torsions:
REMARK  status: ('A' for Active; 'I' for Inactive)
REMARK    1  A    between atoms: C1_1  and  C2_2
REMARK    2  A    between atoms: C4_4  and  C5_5
REMARK    3  A    between atoms: C12_15  and  C15_18
REMARK    4  A    between atoms: N3_20  and  C16_21
REMARK    5  A    between atoms: C16_21  and  C17_22
REMARK    6  A    between atoms: C17_22  and  C18_23
REMARK    7  A    between atoms: C18_23  and  N4_24
REMARK    8  A    between atoms: C21_27  and  N5_30
REMARK                            x       y       z     vdW  Elec       q    Type
REMARK                         _______ _______ _______ _____ _____    ______ ____
ROOT
ATOM      1  C15 UNL     1     145.040 127.971 101.440  0.00  0.00    +0.216 C 
ATOM      2  O1  UNL     1     145.836 128.677 102.056  0.00  0.00    -0.276 OA
ATOM      3  N3  UNL     1     144.935 127.983 100.067  0.00  0.00    -0.315 N 
ATOM      4  H18 UNL     1     144.326 127.328  99.598  0.00  0.00    +0.149 HD
ENDROOT
BRANCH   1  19
ATOM      5  C1  UNL     1     139.129 121.193 108.535  0.00  0.00    +0.044 C 
ATOM      6  C2  UNL     1     139.818 122.344 107.858  0.00  0.00    -0.049 A 
ATOM      7  C3  UNL     1     140.613 123.213 108.610  0.00  0.00    +0.009 A 
ATOM      8  C4  UNL     1     141.257 124.323 108.026  0.00  0.00    -0.024 A 
ATOM      9  C5  UNL     1     142.110 125.206 108.893  0.00  0.00    +0.046 C 
ATOM     10  C6  UNL     1     141.083 124.547 106.639  0.00  0.00    +0.083 A 
ATOM     11  N1  UNL     1     141.643 125.584 105.908  0.00  0.00    -0.224 NA
ATOM     12  C7  UNL     1     141.316 125.516 104.634  0.00  0.00    +0.162 A 
ATOM     13  S1  UNL     1     140.260 124.191 104.265  0.00  0.00    -0.052 S 
ATOM     14  C8  UNL     1     140.287 123.675 105.903  0.00  0.00    +0.041 A 
ATOM     15  C9  UNL     1     139.644 122.571 106.488  0.00  0.00    +0.020 A 
ATOM     16  N2  UNL     1     141.748 126.415 103.692  0.00  0.00    -0.310 N 
ATOM     17  C10 UNL     1     141.821 126.020 102.285  0.00  0.00    +0.108 C 
ATOM     18  C11 UNL     1     142.758 126.928 101.493  0.00  0.00    +0.032 C 
ATOM     19  C12 UNL     1     144.133 126.990 102.168  0.00  0.00    +0.078 C 
ATOM     20  C13 UNL     1     144.044 127.274 103.678  0.00  0.00    +0.032 C 
ATOM     21  C14 UNL     1     142.608 127.515 104.134  0.00  0.00    +0.108 C 
ENDBRANCH   1  19
BRANCH   3  22
ATOM     22  C16 UNL     1     145.798 128.824  99.255  0.00  0.00    +0.105 C 
BRANCH  22  23
ATOM     23  C17 UNL     1     145.055 130.056  98.742  0.00  0.00    +0.034 C 
BRANCH  23  24
ATOM     24  C18 UNL     1     145.314 131.295  99.606  0.00  0.00    +0.086 C 
BRANCH  24  25
ATOM     25  N4  UNL     1     144.086 131.979 100.046  0.00  0.00    -0.302 NA
ATOM     26  C19 UNL     1     143.609 131.507 101.355  0.00  0.00    +0.086 C 
ATOM     27  C20 UNL     1     142.477 130.484 101.252  0.00  0.00    +0.034 C 
ATOM     28  C21 UNL     1     141.218 131.106 100.601  0.00  0.00    +0.059 C 
ATOM     29  C22 UNL     1     141.650 132.144  99.538  0.00  0.00    +0.034 C 
ATOM     30  C23 UNL     1     143.052 131.863  99.000  0.00  0.00    +0.086 C 
BRANCH  28  31
ATOM     31  N5  UNL     1     140.280 130.094 100.040  0.00  0.00    -0.299 NA
ATOM     32  C24 UNL     1     139.539 129.375 101.088  0.00  0.00    +0.084 C 
ATOM     33  C25 UNL     1     138.348 128.621 100.481  0.00  0.00    +0.015 C 
ATOM     34  C26 UNL     1     138.639 128.050  99.093  0.00  0.00    +0.002 C 
ATOM     35  C27 UNL     1     140.133 127.826  98.915  0.00  0.00    +0.015 C 
ATOM     36  C28 UNL     1     140.929 129.123  99.133  0.00  0.00    +0.084 C 
ENDBRANCH  28  31
ENDBRANCH  24  25
ENDBRANCH  23  24
ENDBRANCH  22  23
ENDBRANCH   3  22
TORSDOF 6
ENDMDL
MODEL 4
REMARK VINA RESULT:    -5.345      1.954      4.087
REMARK INTER + INTRA:          -8.906
REMARK INTER:                  -7.297
REMARK INTRA:                  -1.609
REMARK UNBOUND:                -1.686
REMARK  Name = /home/vital/Documents/PhD_2021/Malaria_codes/data/pdb_ligands_mmv/ligand_140.pdb
REMARK  8 active torsions:
REMARK  status: ('A' for Active; 'I' for Inactive)
REMARK    1  A    between atoms: C1_1  and  C2_2
REMARK    2  A    between atoms: C4_4  and  C5_5
REMARK    3  A    between atoms: C12_15  and  C15_18
REMARK    4  A    between atoms: N3_20  and  C16_21
REMARK    5  A    between atoms: C16_21  and  C17_22
REMARK    6  A    between atoms: C17_22  and  C18_23
REMARK    7  A    between atoms: C18_23  and  N4_24
REMARK    8  A    between atoms: C21_27  and  N5_30
REMARK                            x       y       z     vdW  Elec       q    Type
REMARK                         _______ _______ _______ _____ _____    ______ ____
ROOT
ATOM      1  C15 UNL     1     144.221 129.406  97.327  0.00  0.00    +0.216 C 
ATOM      2  O1  UNL     1     144.584 128.375  97.889  0.00  0.00    -0.276 OA
ATOM      3  N3  UNL     1     144.601 130.661  97.744  0.00  0.00    -0.315 N 
ATOM      4  H18 UNL     1     144.346 131.476  97.204  0.00  0.00    +0.149 HD
ENDROOT
BRANCH   1  19
ATOM      5  C1  UNL     1     138.117 130.903  87.750  0.00  0.00    +0.044 C 
ATOM      6  C2  UNL     1     139.186 130.876  88.806  0.00  0.00    -0.049 A 
ATOM      7  C3  UNL     1     139.949 132.021  89.047  0.00  0.00    +0.009 A 
ATOM      8  C4  UNL     1     140.982 132.037  90.007  0.00  0.00    -0.024 A 
ATOM      9  C5  UNL     1     141.751 133.309  90.224  0.00  0.00    +0.046 C 
ATOM     10  C6  UNL     1     141.236 130.852  90.738  0.00  0.00    +0.083 A 
ATOM     11  N1  UNL     1     142.207 130.693  91.715  0.00  0.00    -0.224 NA
ATOM     12  C7  UNL     1     142.189 129.482  92.231  0.00  0.00    +0.162 A 
ATOM     13  S1  UNL     1     140.999 128.447  91.511  0.00  0.00    -0.052 S 
ATOM     14  C8  UNL     1     140.469 129.718  90.486  0.00  0.00    +0.041 A 
ATOM     15  C9  UNL     1     139.443 129.704  89.526  0.00  0.00    +0.020 A 
ATOM     16  N2  UNL     1     143.040 129.070  93.225  0.00  0.00    -0.310 N 
ATOM     17  C10 UNL     1     142.651 127.970  94.109  0.00  0.00    +0.108 C 
ATOM     18  C11 UNL     1     143.451 127.982  95.409  0.00  0.00    +0.032 C 
ATOM     19  C12 UNL     1     143.346 129.355  96.083  0.00  0.00    +0.078 C 
ATOM     20  C13 UNL     1     143.625 130.518  95.115  0.00  0.00    +0.032 C 
ATOM     21  C14 UNL     1     144.028 130.027  93.727  0.00  0.00    +0.108 C 
ENDBRANCH   1  19
BRANCH   3  22
ATOM     22  C16 UNL     1     145.494 130.838  98.877  0.00  0.00    +0.105 C 
BRANCH  22  23
ATOM     23  C17 UNL     1     144.872 131.735  99.945  0.00  0.00    +0.034 C 
BRANCH  23  24
ATOM     24  C18 UNL     1     143.474 132.224  99.555  0.00  0.00    +0.086 C 
BRANCH  24  25
ATOM     25  N4  UNL     1     142.414 131.791 100.480  0.00  0.00    -0.302 NA
ATOM     26  C19 UNL     1     142.807 130.629 101.293  0.00  0.00    +0.086 C 
ATOM     27  C20 UNL     1     142.268 129.305 100.752  0.00  0.00    +0.034 C 
ATOM     28  C21 UNL     1     140.720 129.273 100.786  0.00  0.00    +0.059 C 
ATOM     29  C22 UNL     1     140.174 130.695 100.514  0.00  0.00    +0.034 C 
ATOM     30  C23 UNL     1     141.167 131.550  99.729  0.00  0.00    +0.086 C 
BRANCH  28  31
ATOM     31  N5  UNL     1     140.128 128.265  99.864  0.00  0.00    -0.299 NA
ATOM     32  C24 UNL     1     140.910 128.111  98.627  0.00  0.00    +0.084 C 
ATOM     33  C25 UNL     1     140.490 126.834  97.883  0.00  0.00    +0.015 C 
ATOM     34  C26 UNL     1     138.995 126.535  97.996  0.00  0.00    +0.002 C 
ATOM     35  C27 UNL     1     138.217 127.815  98.259  0.00  0.00    +0.015 C 
ATOM     36  C28 UNL     1     138.711 128.526  99.530  0.00  0.00    +0.084 C 
ENDBRANCH  28  31
ENDBRANCH  24  25
ENDBRANCH  23  24
ENDBRANCH  22  23
ENDBRANCH   3  22
TORSDOF 6
ENDMDL
MODEL 5
REMARK VINA RESULT:    -5.290      3.018      6.031
REMARK INTER + INTRA:          -8.831
REMARK INTER:                  -7.331
REMARK INTRA:                  -1.500
REMARK UNBOUND:                -1.686
REMARK  Name = /home/vital/Documents/PhD_2021/Malaria_codes/data/pdb_ligands_mmv/ligand_140.pdb
REMARK  8 active torsions:
REMARK  status: ('A' for Active; 'I' for Inactive)
REMARK    1  A    between atoms: C1_1  and  C2_2
REMARK    2  A    between atoms: C4_4  and  C5_5
REMARK    3  A    between atoms: C12_15  and  C15_18
REMARK    4  A    between atoms: N3_20  and  C16_21
REMARK    5  A    between atoms: C16_21  and  C17_22
REMARK    6  A    between atoms: C17_22  and  C18_23
REMARK    7  A    between atoms: C18_23  and  N4_24
REMARK    8  A    between atoms: C21_27  and  N5_30
REMARK                            x       y       z     vdW  Elec       q    Type
REMARK                         _______ _______ _______ _____ _____    ______ ____
ROOT
ATOM      1  C15 UNL     1     145.454 133.677  94.824  0.00  0.00    +0.216 C 
ATOM      2  O1  UNL     1     146.124 134.623  94.415  0.00  0.00    -0.276 OA
ATOM      3  N3  UNL     1     145.251 133.426  96.162  0.00  0.00    -0.315 N 
ATOM      4  H18 UNL     1     144.627 132.686  96.451  0.00  0.00    +0.149 HD
ENDROOT
BRANCH   1  19
ATOM      5  C1  UNL     1     139.882 125.456  89.116  0.00  0.00    +0.044 C 
ATOM      6  C2  UNL     1     140.318 126.509  90.095  0.00  0.00    -0.049 A 
ATOM      7  C3  UNL     1     140.224 126.259  91.467  0.00  0.00    +0.009 A 
ATOM      8  C4  UNL     1     140.594 127.226  92.425  0.00  0.00    -0.024 A 
ATOM      9  C5  UNL     1     140.482 126.882  93.883  0.00  0.00    +0.046 C 
ATOM     10  C6  UNL     1     141.073 128.476  91.965  0.00  0.00    +0.083 A 
ATOM     11  N1  UNL     1     141.480 129.533  92.765  0.00  0.00    -0.224 NA
ATOM     12  C7  UNL     1     141.894 130.557  92.050  0.00  0.00    +0.162 A 
ATOM     13  S1  UNL     1     141.767 130.297  90.340  0.00  0.00    -0.052 S 
ATOM     14  C8  UNL     1     141.160 128.712  90.596  0.00  0.00    +0.041 A 
ATOM     15  C9  UNL     1     140.787 127.748  89.644  0.00  0.00    +0.020 A 
ATOM     16  N2  UNL     1     142.361 131.726  92.598  0.00  0.00    -0.310 N 
ATOM     17  C10 UNL     1     143.278 132.575  91.836  0.00  0.00    +0.108 C 
ATOM     18  C11 UNL     1     144.057 133.521  92.745  0.00  0.00    +0.032 C 
ATOM     19  C12 UNL     1     144.759 132.731  93.856  0.00  0.00    +0.078 C 
ATOM     20  C13 UNL     1     143.821 131.740  94.567  0.00  0.00    +0.032 C 
ATOM     21  C14 UNL     1     142.386 131.839  94.057  0.00  0.00    +0.108 C 
ENDBRANCH   1  19
BRANCH   3  22
ATOM     22  C16 UNL     1     145.803 134.300  97.183  0.00  0.00    +0.105 C 
BRANCH  22  23
ATOM     23  C17 UNL     1     144.826 134.492  98.341  0.00  0.00    +0.034 C 
BRANCH  23  24
ATOM     24  C18 UNL     1     143.515 133.727  98.133  0.00  0.00    +0.086 C 
BRANCH  24  25
ATOM     25  N4  UNL     1     143.204 132.777  99.214  0.00  0.00    -0.302 NA
ATOM     26  C19 UNL     1     143.912 131.495  99.067  0.00  0.00    +0.086 C 
ATOM     27  C20 UNL     1     143.047 130.397  98.449  0.00  0.00    +0.034 C 
ATOM     28  C21 UNL     1     141.843 130.053  99.359  0.00  0.00    +0.059 C 
ATOM     29  C22 UNL     1     141.364 131.335 100.081  0.00  0.00    +0.034 C 
ATOM     30  C23 UNL     1     141.743 132.600  99.314  0.00  0.00    +0.086 C 
BRANCH  28  31
ATOM     31  N5  UNL     1     140.730 129.373  98.638  0.00  0.00    -0.299 NA
ATOM     32  C24 UNL     1     139.497 129.315  99.439  0.00  0.00    +0.084 C 
ATOM     33  C25 UNL     1     138.299 128.949  98.551  0.00  0.00    +0.015 C 
ATOM     34  C26 UNL     1     138.650 127.956  97.444  0.00  0.00    +0.002 C 
ATOM     35  C27 UNL     1     139.864 127.129  97.838  0.00  0.00    +0.015 C 
ATOM     36  C28 UNL     1     141.076 128.020  98.154  0.00  0.00    +0.084 C 
ENDBRANCH  28  31
ENDBRANCH  24  25
ENDBRANCH  23  24
ENDBRANCH  22  23
ENDBRANCH   3  22
TORSDOF 6
ENDMDL
MODEL 6
REMARK VINA RESULT:    -5.289      3.326      5.922
REMARK INTER + INTRA:          -8.830
REMARK INTER:                  -7.839
REMARK INTRA:                  -0.991
REMARK UNBOUND:                -1.686
REMARK  Name = /home/vital/Documents/PhD_2021/Malaria_codes/data/pdb_ligands_mmv/ligand_140.pdb
REMARK  8 active torsions:
REMARK  status: ('A' for Active; 'I' for Inactive)
REMARK    1  A    between atoms: C1_1  and  C2_2
REMARK    2  A    between atoms: C4_4  and  C5_5
REMARK    3  A    between atoms: C12_15  and  C15_18
REMARK    4  A    between atoms: N3_20  and  C16_21
REMARK    5  A    between atoms: C16_21  and  C17_22
REMARK    6  A    between atoms: C17_22  and  C18_23
REMARK    7  A    between atoms: C18_23  and  N4_24
REMARK    8  A    between atoms: C21_27  and  N5_30
REMARK                            x       y       z     vdW  Elec       q    Type
REMARK                         _______ _______ _______ _____ _____    ______ ____
ROOT
ATOM      1  C15 UNL     1     143.275 131.682  94.875  0.00  0.00    +0.216 C 
ATOM      2  O1  UNL     1     143.675 130.532  95.043  0.00  0.00    -0.276 OA
ATOM      3  N3  UNL     1     143.374 132.658  95.841  0.00  0.00    -0.315 N 
ATOM      4  H18 UNL     1     143.107 133.609  95.632  0.00  0.00    +0.149 HD
ENDROOT
BRANCH   1  19
ATOM      5  C1  UNL     1     139.527 136.711  85.290  0.00  0.00    +0.044 C 
ATOM      6  C2  UNL     1     140.343 136.212  86.449  0.00  0.00    -0.049 A 
ATOM      7  C3  UNL     1     141.195 137.090  87.124  0.00  0.00    +0.009 A 
ATOM      8  C4  UNL     1     142.002 136.662  88.199  0.00  0.00    -0.024 A 
ATOM      9  C5  UNL     1     142.882 137.665  88.889  0.00  0.00    +0.046 C 
ATOM     10  C6  UNL     1     141.932 135.303  88.591  0.00  0.00    +0.083 A 
ATOM     11  N1  UNL     1     142.651 134.718  89.622  0.00  0.00    -0.224 NA
ATOM     12  C7  UNL     1     142.357 133.442  89.761  0.00  0.00    +0.162 A 
ATOM     13  S1  UNL     1     141.205 132.872  88.597  0.00  0.00    -0.052 S 
ATOM     14  C8  UNL     1     141.080 134.440  87.908  0.00  0.00    +0.041 A 
ATOM     15  C9  UNL     1     140.280 134.868  86.835  0.00  0.00    +0.020 A 
ATOM     16  N2  UNL     1     142.921 132.635  90.717  0.00  0.00    -0.310 N 
ATOM     17  C10 UNL     1     142.208 131.441  91.176  0.00  0.00    +0.108 C 
ATOM     18  C11 UNL     1     142.720 130.969  92.534  0.00  0.00    +0.032 C 
ATOM     19  C12 UNL     1     142.674 132.119  93.547  0.00  0.00    +0.078 C 
ATOM     20  C13 UNL     1     143.306 133.414  93.009  0.00  0.00    +0.032 C 
ATOM     21  C14 UNL     1     143.910 133.225  91.620  0.00  0.00    +0.108 C 
ENDBRANCH   1  19
BRANCH   3  22
ATOM     22  C16 UNL     1     143.995 132.384  97.126  0.00  0.00    +0.105 C 
BRANCH  22  23
ATOM     23  C17 UNL     1     143.025 132.631  98.280  0.00  0.00    +0.034 C 
BRANCH  23  24
ATOM     24  C18 UNL     1     143.646 132.309  99.643  0.00  0.00    +0.086 C 
BRANCH  24  25
ATOM     25  N4  UNL     1     142.678 131.805 100.632  0.00  0.00    -0.302 NA
ATOM     26  C19 UNL     1     143.095 130.532 101.240  0.00  0.00    +0.086 C 
ATOM     27  C20 UNL     1     142.420 129.314 100.610  0.00  0.00    +0.034 C 
ATOM     28  C21 UNL     1     140.888 129.345 100.831  0.00  0.00    +0.059 C 
ATOM     29  C22 UNL     1     140.398 130.812 100.806  0.00  0.00    +0.034 C 
ATOM     30  C23 UNL     1     141.340 131.718 100.016  0.00  0.00    +0.086 C 
BRANCH  28  31
ATOM     31  N5  UNL     1     140.135 128.490  99.871  0.00  0.00    -0.299 NA
ATOM     32  C24 UNL     1     140.934 128.142  98.686  0.00  0.00    +0.084 C 
ATOM     33  C25 UNL     1     140.274 126.990  97.915  0.00  0.00    +0.015 C 
ATOM     34  C26 UNL     1     138.746 127.049  97.932  0.00  0.00    +0.002 C 
ATOM     35  C27 UNL     1     138.274 128.479  98.149  0.00  0.00    +0.015 C 
ATOM     36  C28 UNL     1     138.842 129.071  99.449  0.00  0.00    +0.084 C 
ENDBRANCH  28  31
ENDBRANCH  24  25
ENDBRANCH  23  24
ENDBRANCH  22  23
ENDBRANCH   3  22
TORSDOF 6
ENDMDL
MODEL 7
REMARK VINA RESULT:    -5.231      5.748     11.015
REMARK INTER + INTRA:          -8.752
REMARK INTER:                  -7.252
REMARK INTRA:                  -1.499
REMARK UNBOUND:                -1.686
REMARK  Name = /home/vital/Documents/PhD_2021/Malaria_codes/data/pdb_ligands_mmv/ligand_140.pdb
REMARK  8 active torsions:
REMARK  status: ('A' for Active; 'I' for Inactive)
REMARK    1  A    between atoms: C1_1  and  C2_2
REMARK    2  A    between atoms: C4_4  and  C5_5
REMARK    3  A    between atoms: C12_15  and  C15_18
REMARK    4  A    between atoms: N3_20  and  C16_21
REMARK    5  A    between atoms: C16_21  and  C17_22
REMARK    6  A    between atoms: C17_22  and  C18_23
REMARK    7  A    between atoms: C18_23  and  N4_24
REMARK    8  A    between atoms: C21_27  and  N5_30
REMARK                            x       y       z     vdW  Elec       q    Type
REMARK                         _______ _______ _______ _____ _____    ______ ____
ROOT
ATOM      1  C15 UNL     1     144.866 127.716 101.689  0.00  0.00    +0.216 C 
ATOM      2  O1  UNL     1     144.525 127.410 100.549  0.00  0.00    -0.276 OA
ATOM      3  N3  UNL     1     145.835 128.658 101.954  0.00  0.00    -0.315 N 
ATOM      4  H18 UNL     1     146.025 128.937 102.905  0.00  0.00    +0.149 HD
ENDROOT
BRANCH   1  19
ATOM      5  C1  UNL     1     138.204 122.995 109.723  0.00  0.00    +0.044 C 
ATOM      6  C2  UNL     1     138.926 123.347 108.454  0.00  0.00    -0.049 A 
ATOM      7  C3  UNL     1     138.220 123.408 107.250  0.00  0.00    +0.009 A 
ATOM      8  C4  UNL     1     138.858 123.707 106.028  0.00  0.00    -0.024 A 
ATOM      9  C5  UNL     1     138.033 123.771 104.775  0.00  0.00    +0.046 C 
ATOM     10  C6  UNL     1     140.253 123.950 106.042  0.00  0.00    +0.083 A 
ATOM     11  N1  UNL     1     141.034 124.258 104.939  0.00  0.00    -0.224 NA
ATOM     12  C7  UNL     1     142.294 124.450 105.269  0.00  0.00    +0.162 A 
ATOM     13  S1  UNL     1     142.603 124.221 106.960  0.00  0.00    -0.052 S 
ATOM     14  C8  UNL     1     140.944 123.884 107.249  0.00  0.00    +0.041 A 
ATOM     15  C9  UNL     1     140.306 123.583 108.463  0.00  0.00    +0.020 A 
ATOM     16  N2  UNL     1     143.273 124.779 104.365  0.00  0.00    -0.310 N 
ATOM     17  C10 UNL     1     144.472 125.489 104.814  0.00  0.00    +0.108 C 
ATOM     18  C11 UNL     1     145.177 126.189 103.656  0.00  0.00    +0.032 C 
ATOM     19  C12 UNL     1     144.194 127.094 102.904  0.00  0.00    +0.078 C 
ATOM     20  C13 UNL     1     142.877 126.380 102.552  0.00  0.00    +0.032 C 
ATOM     21  C14 UNL     1     142.894 124.909 102.957  0.00  0.00    +0.108 C 
ENDBRANCH   1  19
BRANCH   3  22
ATOM     22  C16 UNL     1     146.499 129.376 100.879  0.00  0.00    +0.105 C 
BRANCH  22  23
ATOM     23  C17 UNL     1     146.229 130.877 100.959  0.00  0.00    +0.034 C 
BRANCH  23  24
ATOM     24  C18 UNL     1     145.387 131.383  99.784  0.00  0.00    +0.086 C 
BRANCH  24  25
ATOM     25  N4  UNL     1     144.110 131.994 100.188  0.00  0.00    -0.302 NA
ATOM     26  C19 UNL     1     143.616 131.483 101.477  0.00  0.00    +0.086 C 
ATOM     27  C20 UNL     1     142.547 130.401 101.328  0.00  0.00    +0.034 C 
ATOM     28  C21 UNL     1     141.277 130.959 100.640  0.00  0.00    +0.059 C 
ATOM     29  C22 UNL     1     141.686 132.029  99.601  0.00  0.00    +0.034 C 
ATOM     30  C23 UNL     1     143.118 131.831  99.107  0.00  0.00    +0.086 C 
BRANCH  28  31
ATOM     31  N5  UNL     1     140.416 129.902 100.040  0.00  0.00    -0.299 NA
ATOM     32  C24 UNL     1     139.384 129.424 100.973  0.00  0.00    +0.084 C 
ATOM     33  C25 UNL     1     138.311 128.623 100.222  0.00  0.00    +0.015 C 
ATOM     34  C26 UNL     1     138.876 127.792  99.070  0.00  0.00    +0.002 C 
ATOM     35  C27 UNL     1     140.343 127.472  99.316  0.00  0.00    +0.015 C 
ATOM     36  C28 UNL     1     141.176 128.751  99.505  0.00  0.00    +0.084 C 
ENDBRANCH  28  31
ENDBRANCH  24  25
ENDBRANCH  23  24
ENDBRANCH  22  23
ENDBRANCH   3  22
TORSDOF 6
ENDMDL
MODEL 8
REMARK VINA RESULT:    -5.180      3.039      5.637
REMARK INTER + INTRA:          -8.684
REMARK INTER:                  -7.330
REMARK INTRA:                  -1.354
REMARK UNBOUND:                -1.686
REMARK  Name = /home/vital/Documents/PhD_2021/Malaria_codes/data/pdb_ligands_mmv/ligand_140.pdb
REMARK  8 active torsions:
REMARK  status: ('A' for Active; 'I' for Inactive)
REMARK    1  A    between atoms: C1_1  and  C2_2
REMARK    2  A    between atoms: C4_4  and  C5_5
REMARK    3  A    between atoms: C12_15  and  C15_18
REMARK    4  A    between atoms: N3_20  and  C16_21
REMARK    5  A    between atoms: C16_21  and  C17_22
REMARK    6  A    between atoms: C17_22  and  C18_23
REMARK    7  A    between atoms: C18_23  and  N4_24
REMARK    8  A    between atoms: C21_27  and  N5_30
REMARK                            x       y       z     vdW  Elec       q    Type
REMARK                         _______ _______ _______ _____ _____    ______ ____
ROOT
ATOM      1  C15 UNL     1     144.007 132.264  94.785  0.00  0.00    +0.216 C 
ATOM      2  O1  UNL     1     144.321 133.145  93.987  0.00  0.00    -0.276 OA
ATOM      3  N3  UNL     1     144.324 132.319  96.124  0.00  0.00    -0.315 N 
ATOM      4  H18 UNL     1     143.976 131.614  96.758  0.00  0.00    +0.149 HD
ENDROOT
BRANCH   1  19
ATOM      5  C1  UNL     1     137.482 124.237  89.866  0.00  0.00    +0.044 C 
ATOM      6  C2  UNL     1     138.495 125.304  90.171  0.00  0.00    -0.049 A 
ATOM      7  C3  UNL     1     138.686 126.355  89.271  0.00  0.00    +0.009 A 
ATOM      8  C4  UNL     1     139.645 127.363  89.499  0.00  0.00    -0.024 A 
ATOM      9  C5  UNL     1     139.784 128.472  88.495  0.00  0.00    +0.046 C 
ATOM     10  C6  UNL     1     140.425 127.293  90.678  0.00  0.00    +0.083 A 
ATOM     11  N1  UNL     1     141.405 128.198  91.058  0.00  0.00    -0.224 NA
ATOM     12  C7  UNL     1     141.943 127.878  92.217  0.00  0.00    +0.162 A 
ATOM     13  S1  UNL     1     141.302 126.415  92.892  0.00  0.00    -0.052 S 
ATOM     14  C8  UNL     1     140.225 126.239  91.566  0.00  0.00    +0.041 A 
ATOM     15  C9  UNL     1     139.271 125.234  91.334  0.00  0.00    +0.020 A 
ATOM     16  N2  UNL     1     142.928 128.615  92.824  0.00  0.00    -0.310 N 
ATOM     17  C10 UNL     1     143.099 128.550  94.276  0.00  0.00    +0.108 C 
ATOM     18  C11 UNL     1     143.864 129.759  94.807  0.00  0.00    +0.032 C 
ATOM     19  C12 UNL     1     143.194 131.057  94.343  0.00  0.00    +0.078 C 
ATOM     20  C13 UNL     1     142.893 131.066  92.834  0.00  0.00    +0.032 C 
ATOM     21  C14 UNL     1     143.414 129.813  92.136  0.00  0.00    +0.108 C 
ENDBRANCH   1  19
BRANCH   3  22
ATOM     22  C16 UNL     1     145.036 133.456  96.682  0.00  0.00    +0.105 C 
BRANCH  22  23
ATOM     23  C17 UNL     1     144.757 133.611  98.176  0.00  0.00    +0.034 C 
BRANCH  23  24
ATOM     24  C18 UNL     1     143.258 133.602  98.494  0.00  0.00    +0.086 C 
BRANCH  24  25
ATOM     25  N4  UNL     1     142.874 132.608  99.510  0.00  0.00    -0.302 NA
ATOM     26  C19 UNL     1     143.612 131.342  99.377  0.00  0.00    +0.086 C 
ATOM     27  C20 UNL     1     142.820 130.256  98.648  0.00  0.00    +0.034 C 
ATOM     28  C21 UNL     1     141.549 129.862  99.440  0.00  0.00    +0.059 C 
ATOM     29  C22 UNL     1     140.991 131.110 100.165  0.00  0.00    +0.034 C 
ATOM     30  C23 UNL     1     141.412 132.408  99.479  0.00  0.00    +0.086 C 
BRANCH  28  31
ATOM     31  N5  UNL     1     140.513 129.196  98.603  0.00  0.00    -0.299 NA
ATOM     32  C24 UNL     1     139.263 128.959  99.344  0.00  0.00    +0.084 C 
ATOM     33  C25 UNL     1     138.123 128.616  98.374  0.00  0.00    +0.015 C 
ATOM     34  C26 UNL     1     138.580 127.786  97.175  0.00  0.00    +0.002 C 
ATOM     35  C27 UNL     1     139.839 127.005  97.520  0.00  0.00    +0.015 C 
ATOM     36  C28 UNL     1     140.972 127.935  97.982  0.00  0.00    +0.084 C 
ENDBRANCH  28  31
ENDBRANCH  24  25
ENDBRANCH  23  24
ENDBRANCH  22  23
ENDBRANCH   3  22
TORSDOF 6
ENDMDL
MODEL 9
REMARK VINA RESULT:    -5.075      2.074      3.827
REMARK INTER + INTRA:          -8.541
REMARK INTER:                  -6.944
REMARK INTRA:                  -1.596
REMARK UNBOUND:                -1.686
REMARK  Name = /home/vital/Documents/PhD_2021/Malaria_codes/data/pdb_ligands_mmv/ligand_140.pdb
REMARK  8 active torsions:
REMARK  status: ('A' for Active; 'I' for Inactive)
REMARK    1  A    between atoms: C1_1  and  C2_2
REMARK    2  A    between atoms: C4_4  and  C5_5
REMARK    3  A    between atoms: C12_15  and  C15_18
REMARK    4  A    between atoms: N3_20  and  C16_21
REMARK    5  A    between atoms: C16_21  and  C17_22
REMARK    6  A    between atoms: C17_22  and  C18_23
REMARK    7  A    between atoms: C18_23  and  N4_24
REMARK    8  A    between atoms: C21_27  and  N5_30
REMARK                            x       y       z     vdW  Elec       q    Type
REMARK                         _______ _______ _______ _____ _____    ______ ____
ROOT
ATOM      1  C15 UNL     1     144.440 128.577  98.248  0.00  0.00    +0.216 C 
ATOM      2  O1  UNL     1     144.706 127.488  98.753  0.00  0.00    -0.276 OA
ATOM      3  N3  UNL     1     144.866 129.772  98.781  0.00  0.00    -0.315 N 
ATOM      4  H18 UNL     1     144.694 130.638  98.290  0.00  0.00    +0.149 HD
ENDROOT
BRANCH   1  19
ATOM      5  C1  UNL     1     138.969 131.166  88.523  0.00  0.00    +0.044 C 
ATOM      6  C2  UNL     1     139.968 131.012  89.635  0.00  0.00    -0.049 A 
ATOM      7  C3  UNL     1     140.724 132.114  90.044  0.00  0.00    +0.009 A 
ATOM      8  C4  UNL     1     141.693 132.013  91.062  0.00  0.00    -0.024 A 
ATOM      9  C5  UNL     1     142.457 133.244  91.461  0.00  0.00    +0.046 C 
ATOM     10  C6  UNL     1     141.892 130.754  91.677  0.00  0.00    +0.083 A 
ATOM     11  N1  UNL     1     142.797 130.479  92.691  0.00  0.00    -0.224 NA
ATOM     12  C7  UNL     1     142.737 129.221  93.073  0.00  0.00    +0.162 A 
ATOM     13  S1  UNL     1     141.588 128.284  92.174  0.00  0.00    -0.052 S 
ATOM     14  C8  UNL     1     141.134 129.664  91.259  0.00  0.00    +0.041 A 
ATOM     15  C9  UNL     1     140.171 129.767  90.241  0.00  0.00    +0.020 A 
ATOM     16  N2  UNL     1     143.520 128.693  94.069  0.00  0.00    -0.310 N 
ATOM     17  C10 UNL     1     143.067 127.511  94.805  0.00  0.00    +0.108 C 
ATOM     18  C11 UNL     1     143.783 127.375  96.146  0.00  0.00    +0.032 C 
ATOM     19  C12 UNL     1     143.646 128.671  96.954  0.00  0.00    +0.078 C 
ATOM     20  C13 UNL     1     143.995 129.925  96.135  0.00  0.00    +0.032 C 
ATOM     21  C14 UNL     1     144.481 129.577  94.731  0.00  0.00    +0.108 C 
ENDBRANCH   1  19
BRANCH   3  22
ATOM     22  C16 UNL     1     145.693 129.812  99.975  0.00  0.00    +0.105 C 
BRANCH  22  23
ATOM     23  C17 UNL     1     145.121 130.766 101.021  0.00  0.00    +0.034 C 
BRANCH  23  24
ATOM     24  C18 UNL     1     144.069 131.712 100.435  0.00  0.00    +0.086 C 
BRANCH  24  25
ATOM     25  N4  UNL     1     142.733 131.560 101.035  0.00  0.00    -0.302 NA
ATOM     26  C19 UNL     1     142.564 130.274 101.730  0.00  0.00    +0.086 C 
ATOM     27  C20 UNL     1     141.825 129.229 100.894  0.00  0.00    +0.034 C 
ATOM     28  C21 UNL     1     140.375 129.678 100.589  0.00  0.00    +0.059 C 
ATOM     29  C22 UNL     1     140.341 131.216 100.421  0.00  0.00    +0.034 C 
ATOM     30  C23 UNL     1     141.698 131.778 100.005  0.00  0.00    +0.086 C 
BRANCH  28  31
ATOM     31  N5  UNL     1     139.772 128.978  99.421  0.00  0.00    -0.299 NA
ATOM     32  C24 UNL     1     138.385 128.559  99.675  0.00  0.00    +0.084 C 
ATOM     33  C25 UNL     1     137.690 128.179  98.359  0.00  0.00    +0.015 C 
ATOM     34  C26 UNL     1     138.623 127.496  97.360  0.00  0.00    +0.002 C 
ATOM     35  C27 UNL     1     139.776 126.821  98.087  0.00  0.00    +0.015 C 
ATOM     36  C28 UNL     1     140.564 127.823  98.948  0.00  0.00    +0.084 C 
ENDBRANCH  28  31
ENDBRANCH  24  25
ENDBRANCH  23  24
ENDBRANCH  22  23
ENDBRANCH   3  22
TORSDOF 6
ENDMDL
