MODEL 1
REMARK VINA RESULT:    -5.526      0.000      0.000
REMARK INTER + INTRA:          -6.510
REMARK INTER:                  -5.849
REMARK INTRA:                  -0.662
REMARK UNBOUND:                -0.662
REMARK  Name = /home/vital/Documents/PhD_2021/Malaria_codes/data/pdb_ligands_mmv/ligand_201.pdb
REMARK  2 active torsions:
REMARK  status: ('A' for Active; 'I' for Inactive)
REMARK    1  A    between atoms: C14_17  and  C15_18
REMARK    2  A    between atoms: C14_17  and  C16_19
REMARK                            x       y       z     vdW  Elec       q    Type
REMARK                         _______ _______ _______ _____ _____    ______ ____
ROOT
ATOM      1  N1  UNL     1     142.232 128.505 100.619  0.00  0.00    -0.298 N 
ATOM      2  C1  UNL     1     142.443 129.724 100.014  0.00  0.00    +0.071 A 
ATOM      3  C2  UNL     1     143.112 130.465 100.988  0.00  0.00    +0.090 A 
ATOM      4  C3  UNL     1     143.489 131.789 100.717  0.00  0.00    +0.030 A 
ATOM      5  C4  UNL     1     143.184 132.336  99.465  0.00  0.00    +0.002 A 
ATOM      6  C5  UNL     1     142.518 131.577  98.502  0.00  0.00    +0.002 A 
ATOM      7  C6  UNL     1     142.136 130.255  98.754  0.00  0.00    +0.028 A 
ATOM      8  N2  UNL     1     143.320 129.726 102.126  0.00  0.00    -0.227 NA
ATOM      9  C7  UNL     1     142.790 128.544 101.879  0.00  0.00    +0.146 A 
ATOM     10  C8  UNL     1     142.769 127.372 102.740  0.00  0.00    +0.038 A 
ATOM     11  C9  UNL     1     142.082 126.226 102.296  0.00  0.00    +0.040 A 
ATOM     12  C10 UNL     1     142.012 125.117 103.147  0.00  0.00    +0.024 A 
ATOM     13  C11 UNL     1     142.662 125.121 104.384  0.00  0.00    +0.002 A 
ATOM     14  C12 UNL     1     143.367 126.248 104.799  0.00  0.00    +0.001 A 
ATOM     15  C13 UNL     1     143.416 127.375 103.981  0.00  0.00    +0.013 A 
ATOM     16  N3  UNL     1     141.358 126.227 101.101  0.00  0.00    -0.317 N 
ATOM     17  C14 UNL     1     141.654 127.258 100.071  0.00  0.00    +0.135 C 
ATOM     18  C15 UNL     1     142.707 126.640  99.119  0.00  0.00    +0.062 C 
ATOM     19  H9  UNL     1     141.142 125.312 100.722  0.00  0.00    +0.149 HD
ENDROOT
BRANCH  17  20
ATOM     20  C16 UNL     1     140.292 127.548  99.407  0.00  0.00    -0.004 A 
ATOM     21  C17 UNL     1     139.280 128.186 100.157  0.00  0.00    +0.007 A 
ATOM     22  C18 UNL     1     138.031 128.465  99.601  0.00  0.00    +0.000 A 
ATOM     23  C19 UNL     1     137.758 128.105  98.286  0.00  0.00    +0.000 A 
ATOM     24  C20 UNL     1     138.733 127.461  97.528  0.00  0.00    +0.000 A 
ATOM     25  C21 UNL     1     139.987 127.181  98.083  0.00  0.00    +0.007 A 
ENDBRANCH  17  20
TORSDOF 1
ENDMDL
MODEL 2
REMARK VINA RESULT:    -5.463      1.519      5.030
REMARK INTER + INTRA:          -6.444
REMARK INTER:                  -5.752
REMARK INTRA:                  -0.691
REMARK UNBOUND:                -0.662
REMARK  Name = /home/vital/Documents/PhD_2021/Malaria_codes/data/pdb_ligands_mmv/ligand_201.pdb
REMARK  2 active torsions:
REMARK  status: ('A' for Active; 'I' for Inactive)
REMARK    1  A    between atoms: C14_17  and  C15_18
REMARK    2  A    between atoms: C14_17  and  C16_19
REMARK                            x       y       z     vdW  Elec       q    Type
REMARK                         _______ _______ _______ _____ _____    ______ ____
ROOT
ATOM      1  N1  UNL     1     142.213 129.528 100.604  0.00  0.00    -0.298 N 
ATOM      2  C1  UNL     1     142.102 128.521 101.536  0.00  0.00    +0.071 A 
ATOM      3  C2  UNL     1     143.394 128.397 102.045  0.00  0.00    +0.090 A 
ATOM      4  C3  UNL     1     143.661 127.439 103.034  0.00  0.00    +0.030 A 
ATOM      5  C4  UNL     1     142.617 126.628 103.491  0.00  0.00    +0.002 A 
ATOM      6  C5  UNL     1     141.329 126.770 102.972  0.00  0.00    +0.002 A 
ATOM      7  C6  UNL     1     141.043 127.721 101.987  0.00  0.00    +0.028 A 
ATOM      8  N2  UNL     1     144.249 129.301 101.467  0.00  0.00    -0.227 NA
ATOM      9  C7  UNL     1     143.515 129.981 100.609  0.00  0.00    +0.146 A 
ATOM     10  C8  UNL     1     143.923 131.087  99.756  0.00  0.00    +0.038 A 
ATOM     11  C9  UNL     1     142.982 131.623  98.858  0.00  0.00    +0.040 A 
ATOM     12  C10 UNL     1     143.388 132.651  97.998  0.00  0.00    +0.024 A 
ATOM     13  C11 UNL     1     144.681 133.175  98.070  0.00  0.00    +0.002 A 
ATOM     14  C12 UNL     1     145.595 132.660  98.986  0.00  0.00    +0.001 A 
ATOM     15  C13 UNL     1     145.218 131.612  99.825  0.00  0.00    +0.013 A 
ATOM     16  N3  UNL     1     141.711 131.062  98.712  0.00  0.00    -0.317 N 
ATOM     17  C14 UNL     1     141.171 130.191  99.789  0.00  0.00    +0.135 C 
ATOM     18  C15 UNL     1     140.360 131.111 100.734  0.00  0.00    +0.062 C 
ATOM     19  H9  UNL     1     141.018 131.660  98.275  0.00  0.00    +0.149 HD
ENDROOT
BRANCH  17  20
ATOM     20  C16 UNL     1     140.321 129.137  99.049  0.00  0.00    -0.004 A 
ATOM     21  C17 UNL     1     138.933 129.070  99.300  0.00  0.00    +0.007 A 
ATOM     22  C18 UNL     1     138.123 128.131  98.659  0.00  0.00    +0.000 A 
ATOM     23  C19 UNL     1     138.682 127.230  97.759  0.00  0.00    +0.000 A 
ATOM     24  C20 UNL     1     140.050 127.265  97.504  0.00  0.00    +0.000 A 
ATOM     25  C21 UNL     1     140.864 128.205  98.145  0.00  0.00    +0.007 A 
ENDBRANCH  17  20
TORSDOF 1
ENDMDL
MODEL 3
REMARK VINA RESULT:    -5.112      1.785      5.242
REMARK INTER + INTRA:          -6.072
REMARK INTER:                  -5.384
REMARK INTRA:                  -0.688
REMARK UNBOUND:                -0.662
REMARK  Name = /home/vital/Documents/PhD_2021/Malaria_codes/data/pdb_ligands_mmv/ligand_201.pdb
REMARK  2 active torsions:
REMARK  status: ('A' for Active; 'I' for Inactive)
REMARK    1  A    between atoms: C14_17  and  C15_18
REMARK    2  A    between atoms: C14_17  and  C16_19
REMARK                            x       y       z     vdW  Elec       q    Type
REMARK                         _______ _______ _______ _____ _____    ______ ____
ROOT
ATOM      1  N1  UNL     1     142.770 129.930 100.335  0.00  0.00    -0.298 N 
ATOM      2  C1  UNL     1     142.744 129.101 101.434  0.00  0.00    +0.071 A 
ATOM      3  C2  UNL     1     144.069 129.087 101.869  0.00  0.00    +0.090 A 
ATOM      4  C3  UNL     1     144.423 128.322 102.990  0.00  0.00    +0.030 A 
ATOM      5  C4  UNL     1     143.431 127.588 103.650  0.00  0.00    +0.002 A 
ATOM      6  C5  UNL     1     142.110 127.618 103.202  0.00  0.00    +0.002 A 
ATOM      7  C6  UNL     1     141.737 128.377 102.087  0.00  0.00    +0.028 A 
ATOM      8  N2  UNL     1     144.862 129.888 101.087  0.00  0.00    -0.227 NA
ATOM      9  C7  UNL     1     144.058 130.395 100.174  0.00  0.00    +0.146 A 
ATOM     10  C8  UNL     1     144.382 131.341  99.117  0.00  0.00    +0.038 A 
ATOM     11  C9  UNL     1     143.373 131.697  98.203  0.00  0.00    +0.040 A 
ATOM     12  C10 UNL     1     143.697 132.563  97.152  0.00  0.00    +0.024 A 
ATOM     13  C11 UNL     1     144.978 133.111  97.046  0.00  0.00    +0.002 A 
ATOM     14  C12 UNL     1     145.961 132.778  97.975  0.00  0.00    +0.001 A 
ATOM     15  C13 UNL     1     145.665 131.889  99.007  0.00  0.00    +0.013 A 
ATOM     16  N3  UNL     1     142.110 131.100  98.242  0.00  0.00    -0.317 N 
ATOM     17  C14 UNL     1     141.662 130.424  99.488  0.00  0.00    +0.135 C 
ATOM     18  C15 UNL     1     140.889 131.483 100.310  0.00  0.00    +0.062 C 
ATOM     19  H9  UNL     1     141.376 131.602  97.755  0.00  0.00    +0.149 HD
ENDROOT
BRANCH  17  20
ATOM     20  C16 UNL     1     140.795 129.244  99.001  0.00  0.00    -0.004 A 
ATOM     21  C17 UNL     1     139.447 129.163  99.414  0.00  0.00    +0.007 A 
ATOM     22  C18 UNL     1     138.624 128.112  99.003  0.00  0.00    +0.000 A 
ATOM     23  C19 UNL     1     139.131 127.112  98.181  0.00  0.00    +0.000 A 
ATOM     24  C20 UNL     1     140.461 127.160  97.772  0.00  0.00    +0.000 A 
ATOM     25  C21 UNL     1     141.287 128.213  98.180  0.00  0.00    +0.007 A 
ENDBRANCH  17  20
TORSDOF 1
ENDMDL
MODEL 4
REMARK VINA RESULT:    -5.061      2.590      6.520
REMARK INTER + INTRA:          -6.019
REMARK INTER:                  -5.331
REMARK INTRA:                  -0.688
REMARK UNBOUND:                -0.662
REMARK  Name = /home/vital/Documents/PhD_2021/Malaria_codes/data/pdb_ligands_mmv/ligand_201.pdb
REMARK  2 active torsions:
REMARK  status: ('A' for Active; 'I' for Inactive)
REMARK    1  A    between atoms: C14_17  and  C15_18
REMARK    2  A    between atoms: C14_17  and  C16_19
REMARK                            x       y       z     vdW  Elec       q    Type
REMARK                         _______ _______ _______ _____ _____    ______ ____
ROOT
ATOM      1  N1  UNL     1     142.510 130.339  99.819  0.00  0.00    -0.298 N 
ATOM      2  C1  UNL     1     141.468 129.544 100.242  0.00  0.00    +0.071 A 
ATOM      3  C2  UNL     1     140.400 130.433 100.361  0.00  0.00    +0.090 A 
ATOM      4  C3  UNL     1     139.149 129.962 100.786  0.00  0.00    +0.030 A 
ATOM      5  C4  UNL     1     139.002 128.602 101.081  0.00  0.00    +0.002 A 
ATOM      6  C5  UNL     1     140.081 127.728 100.951  0.00  0.00    +0.002 A 
ATOM      7  C6  UNL     1     141.336 128.178 100.526  0.00  0.00    +0.028 A 
ATOM      8  N2  UNL     1     140.767 131.707 100.006  0.00  0.00    -0.227 NA
ATOM      9  C7  UNL     1     142.040 131.627  99.673  0.00  0.00    +0.146 A 
ATOM     10  C8  UNL     1     142.909 132.687  99.183  0.00  0.00    +0.038 A 
ATOM     11  C9  UNL     1     144.265 132.388  98.954  0.00  0.00    +0.040 A 
ATOM     12  C10 UNL     1     145.115 133.420  98.537  0.00  0.00    +0.024 A 
ATOM     13  C11 UNL     1     144.618 134.703  98.294  0.00  0.00    +0.002 A 
ATOM     14  C12 UNL     1     143.267 134.979  98.493  0.00  0.00    +0.001 A 
ATOM     15  C13 UNL     1     142.413 133.973  98.943  0.00  0.00    +0.013 A 
ATOM     16  N3  UNL     1     144.800 131.136  99.266  0.00  0.00    -0.317 N 
ATOM     17  C14 UNL     1     143.887 129.973  99.422  0.00  0.00    +0.135 C 
ATOM     18  C15 UNL     1     143.802 129.291  98.035  0.00  0.00    +0.062 C 
ATOM     19  H9  UNL     1     145.681 130.915  98.817  0.00  0.00    +0.149 HD
ENDROOT
BRANCH  17  20
ATOM     20  C16 UNL     1     144.545 129.105 100.515  0.00  0.00    -0.004 A 
ATOM     21  C17 UNL     1     144.913 127.776 100.212  0.00  0.00    +0.007 A 
ATOM     22  C18 UNL     1     145.507 126.950 101.168  0.00  0.00    +0.000 A 
ATOM     23  C19 UNL     1     145.738 127.429 102.453  0.00  0.00    +0.000 A 
ATOM     24  C20 UNL     1     145.371 128.731 102.783  0.00  0.00    +0.000 A 
ATOM     25  C21 UNL     1     144.777 129.561 101.826  0.00  0.00    +0.007 A 
ENDBRANCH  17  20
TORSDOF 1
ENDMDL
MODEL 5
REMARK VINA RESULT:    -4.944      2.009      4.413
REMARK INTER + INTRA:          -5.894
REMARK INTER:                  -5.210
REMARK INTRA:                  -0.685
REMARK UNBOUND:                -0.662
REMARK  Name = /home/vital/Documents/PhD_2021/Malaria_codes/data/pdb_ligands_mmv/ligand_201.pdb
REMARK  2 active torsions:
REMARK  status: ('A' for Active; 'I' for Inactive)
REMARK    1  A    between atoms: C14_17  and  C15_18
REMARK    2  A    between atoms: C14_17  and  C16_19
REMARK                            x       y       z     vdW  Elec       q    Type
REMARK                         _______ _______ _______ _____ _____    ______ ____
ROOT
ATOM      1  N1  UNL     1     142.554 129.492 100.677  0.00  0.00    -0.298 N 
ATOM      2  C1  UNL     1     141.247 129.413 100.253  0.00  0.00    +0.071 A 
ATOM      3  C2  UNL     1     140.656 128.537 101.163  0.00  0.00    +0.090 A 
ATOM      4  C3  UNL     1     139.298 128.210 101.030  0.00  0.00    +0.030 A 
ATOM      5  C4  UNL     1     138.565 128.778  99.983  0.00  0.00    +0.002 A 
ATOM      6  C5  UNL     1     139.172 129.657  99.086  0.00  0.00    +0.002 A 
ATOM      7  C6  UNL     1     140.525 129.995  99.202  0.00  0.00    +0.028 A 
ATOM      8  N2  UNL     1     141.555 128.118 102.112  0.00  0.00    -0.227 NA
ATOM      9  C7  UNL     1     142.691 128.714 101.807  0.00  0.00    +0.146 A 
ATOM     10  C8  UNL     1     143.960 128.643 102.515  0.00  0.00    +0.038 A 
ATOM     11  C9  UNL     1     145.071 129.311 101.967  0.00  0.00    +0.040 A 
ATOM     12  C10 UNL     1     146.306 129.199 102.616  0.00  0.00    +0.024 A 
ATOM     13  C11 UNL     1     146.422 128.489 103.815  0.00  0.00    +0.002 A 
ATOM     14  C12 UNL     1     145.309 127.859 104.366  0.00  0.00    +0.001 A 
ATOM     15  C13 UNL     1     144.079 127.931 103.714  0.00  0.00    +0.013 A 
ATOM     16  N3  UNL     1     144.997 129.957 100.731  0.00  0.00    -0.317 N 
ATOM     17  C14 UNL     1     143.667 130.335 100.185  0.00  0.00    +0.135 C 
ATOM     18  C15 UNL     1     143.392 131.784 100.654  0.00  0.00    +0.062 C 
ATOM     19  H9  UNL     1     145.727 130.636 100.550  0.00  0.00    +0.149 HD
ENDROOT
BRANCH  17  20
ATOM     20  C16 UNL     1     143.815 130.182  98.656  0.00  0.00    -0.004 A 
ATOM     21  C17 UNL     1     143.575 131.298  97.825  0.00  0.00    +0.007 A 
ATOM     22  C18 UNL     1     143.692 131.208  96.437  0.00  0.00    +0.000 A 
ATOM     23  C19 UNL     1     144.042 129.999  95.845  0.00  0.00    +0.000 A 
ATOM     24  C20 UNL     1     144.270 128.879  96.641  0.00  0.00    +0.000 A 
ATOM     25  C21 UNL     1     144.154 128.967  98.032  0.00  0.00    +0.007 A 
ENDBRANCH  17  20
TORSDOF 1
ENDMDL
MODEL 6
REMARK VINA RESULT:    -4.892      1.471      4.102
REMARK INTER + INTRA:          -5.839
REMARK INTER:                  -5.168
REMARK INTRA:                  -0.671
REMARK UNBOUND:                -0.662
REMARK  Name = /home/vital/Documents/PhD_2021/Malaria_codes/data/pdb_ligands_mmv/ligand_201.pdb
REMARK  2 active torsions:
REMARK  status: ('A' for Active; 'I' for Inactive)
REMARK    1  A    between atoms: C14_17  and  C15_18
REMARK    2  A    between atoms: C14_17  and  C16_19
REMARK                            x       y       z     vdW  Elec       q    Type
REMARK                         _______ _______ _______ _____ _____    ______ ____
ROOT
ATOM      1  N1  UNL     1     141.415 127.392 100.198  0.00  0.00    -0.298 N 
ATOM      2  C1  UNL     1     141.336 127.187  98.839  0.00  0.00    +0.071 A 
ATOM      3  C2  UNL     1     141.817 125.889  98.673  0.00  0.00    +0.090 A 
ATOM      4  C3  UNL     1     141.888 125.335  97.386  0.00  0.00    +0.030 A 
ATOM      5  C4  UNL     1     141.470 126.103  96.294  0.00  0.00    +0.002 A 
ATOM      6  C5  UNL     1     140.988 127.399  96.481  0.00  0.00    +0.002 A 
ATOM      7  C6  UNL     1     140.908 127.968  97.757  0.00  0.00    +0.028 A 
ATOM      8  N2  UNL     1     142.152 125.320  99.876  0.00  0.00    -0.227 NA
ATOM      9  C7  UNL     1     141.892 126.239 100.784  0.00  0.00    +0.146 A 
ATOM     10  C8  UNL     1     142.033 126.140 102.229  0.00  0.00    +0.038 A 
ATOM     11  C9  UNL     1     141.761 127.279 103.009  0.00  0.00    +0.040 A 
ATOM     12  C10 UNL     1     141.950 127.203 104.394  0.00  0.00    +0.024 A 
ATOM     13  C11 UNL     1     142.340 126.004 104.997  0.00  0.00    +0.002 A 
ATOM     14  C12 UNL     1     142.574 124.872 104.219  0.00  0.00    +0.001 A 
ATOM     15  C13 UNL     1     142.427 124.941 102.835  0.00  0.00    +0.013 A 
ATOM     16  N3  UNL     1     141.449 128.508 102.421  0.00  0.00    -0.317 N 
ATOM     17  C14 UNL     1     140.965 128.541 101.016  0.00  0.00    +0.135 C 
ATOM     18  C15 UNL     1     139.420 128.485 101.080  0.00  0.00    +0.062 C 
ATOM     19  H9  UNL     1     140.998 129.180 103.031  0.00  0.00    +0.149 HD
ENDROOT
BRANCH  17  20
ATOM     20  C16 UNL     1     141.527 129.858 100.440  0.00  0.00    -0.004 A 
ATOM     21  C17 UNL     1     140.636 130.902 100.109  0.00  0.00    +0.007 A 
ATOM     22  C18 UNL     1     141.096 132.110  99.582  0.00  0.00    +0.000 A 
ATOM     23  C19 UNL     1     142.456 132.300  99.364  0.00  0.00    +0.000 A 
ATOM     24  C20 UNL     1     143.356 131.282  99.669  0.00  0.00    +0.000 A 
ATOM     25  C21 UNL     1     142.897 130.071 100.198  0.00  0.00    +0.007 A 
ENDBRANCH  17  20
TORSDOF 1
ENDMDL
MODEL 7
REMARK VINA RESULT:    -4.779      1.269      1.484
REMARK INTER + INTRA:          -5.720
REMARK INTER:                  -5.021
REMARK INTRA:                  -0.699
REMARK UNBOUND:                -0.662
REMARK  Name = /home/vital/Documents/PhD_2021/Malaria_codes/data/pdb_ligands_mmv/ligand_201.pdb
REMARK  2 active torsions:
REMARK  status: ('A' for Active; 'I' for Inactive)
REMARK    1  A    between atoms: C14_17  and  C15_18
REMARK    2  A    between atoms: C14_17  and  C16_19
REMARK                            x       y       z     vdW  Elec       q    Type
REMARK                         _______ _______ _______ _____ _____    ______ ____
ROOT
ATOM      1  N1  UNL     1     143.079 129.025 100.262  0.00  0.00    -0.298 N 
ATOM      2  C1  UNL     1     143.081 130.129  99.440  0.00  0.00    +0.071 A 
ATOM      3  C2  UNL     1     144.043 130.963 100.008  0.00  0.00    +0.090 A 
ATOM      4  C3  UNL     1     144.313 132.210  99.424  0.00  0.00    +0.030 A 
ATOM      5  C4  UNL     1     143.607 132.587  98.276  0.00  0.00    +0.002 A 
ATOM      6  C5  UNL     1     142.651 131.737  97.720  0.00  0.00    +0.002 A 
ATOM      7  C6  UNL     1     142.368 130.489  98.287  0.00  0.00    +0.028 A 
ATOM      8  N2  UNL     1     144.618 130.386 101.112  0.00  0.00    -0.227 NA
ATOM      9  C7  UNL     1     144.031 129.214 101.242  0.00  0.00    +0.146 A 
ATOM     10  C8  UNL     1     144.295 128.181 102.233  0.00  0.00    +0.038 A 
ATOM     11  C9  UNL     1     143.492 127.025 102.227  0.00  0.00    +0.040 A 
ATOM     12  C10 UNL     1     143.707 126.056 103.214  0.00  0.00    +0.024 A 
ATOM     13  C11 UNL     1     144.737 126.203 104.148  0.00  0.00    +0.002 A 
ATOM     14  C12 UNL     1     145.547 127.335 104.124  0.00  0.00    +0.001 A 
ATOM     15  C13 UNL     1     145.323 128.327 103.171  0.00  0.00    +0.013 A 
ATOM     16  N3  UNL     1     142.407 126.895 101.356  0.00  0.00    -0.317 N 
ATOM     17  C14 UNL     1     142.343 127.747 100.140  0.00  0.00    +0.135 C 
ATOM     18  C15 UNL     1     143.009 126.938  99.000  0.00  0.00    +0.062 C 
ATOM     19  H9  UNL     1     142.071 125.949 101.218  0.00  0.00    +0.149 HD
ENDROOT
BRANCH  17  20
ATOM     20  C16 UNL     1     140.838 128.016  99.930  0.00  0.00    -0.004 A 
ATOM     21  C17 UNL     1     140.109 128.680 100.940  0.00  0.00    +0.007 A 
ATOM     22  C18 UNL     1     138.745 128.941 100.798  0.00  0.00    +0.000 A 
ATOM     23  C19 UNL     1     138.075 128.537  99.649  0.00  0.00    +0.000 A 
ATOM     24  C20 UNL     1     138.767 127.868  98.643  0.00  0.00    +0.000 A 
ATOM     25  C21 UNL     1     140.135 127.605  98.783  0.00  0.00    +0.007 A 
ENDBRANCH  17  20
TORSDOF 1
ENDMDL
MODEL 8
REMARK VINA RESULT:    -4.584      2.994      6.079
REMARK INTER + INTRA:          -5.513
REMARK INTER:                  -4.812
REMARK INTRA:                  -0.701
REMARK UNBOUND:                -0.662
REMARK  Name = /home/vital/Documents/PhD_2021/Malaria_codes/data/pdb_ligands_mmv/ligand_201.pdb
REMARK  2 active torsions:
REMARK  status: ('A' for Active; 'I' for Inactive)
REMARK    1  A    between atoms: C14_17  and  C15_18
REMARK    2  A    between atoms: C14_17  and  C16_19
REMARK                            x       y       z     vdW  Elec       q    Type
REMARK                         _______ _______ _______ _____ _____    ______ ____
ROOT
ATOM      1  N1  UNL     1     141.570 128.584  98.459  0.00  0.00    -0.298 N 
ATOM      2  C1  UNL     1     140.663 129.002  99.407  0.00  0.00    +0.071 A 
ATOM      3  C2  UNL     1     139.497 128.313  99.075  0.00  0.00    +0.090 A 
ATOM      4  C3  UNL     1     138.337 128.503  99.840  0.00  0.00    +0.030 A 
ATOM      5  C4  UNL     1     138.379 129.385 100.926  0.00  0.00    +0.002 A 
ATOM      6  C5  UNL     1     139.556 130.062 101.244  0.00  0.00    +0.002 A 
ATOM      7  C6  UNL     1     140.724 129.884 100.494  0.00  0.00    +0.028 A 
ATOM      8  N2  UNL     1     139.690 127.494  97.991  0.00  0.00    -0.227 NA
ATOM      9  C7  UNL     1     140.949 127.665  97.641  0.00  0.00    +0.146 A 
ATOM     10  C8  UNL     1     141.681 127.005  96.570  0.00  0.00    +0.038 A 
ATOM     11  C9  UNL     1     143.012 127.395  96.329  0.00  0.00    +0.040 A 
ATOM     12  C10 UNL     1     143.700 126.801  95.264  0.00  0.00    +0.024 A 
ATOM     13  C11 UNL     1     143.102 125.799  94.496  0.00  0.00    +0.002 A 
ATOM     14  C12 UNL     1     141.795 125.397  94.765  0.00  0.00    +0.001 A 
ATOM     15  C13 UNL     1     141.083 126.003  95.797  0.00  0.00    +0.013 A 
ATOM     16  N3  UNL     1     143.601 128.449  97.031  0.00  0.00    -0.317 N 
ATOM     17  C14 UNL     1     143.014 128.881  98.326  0.00  0.00    +0.135 C 
ATOM     18  C15 UNL     1     143.752 128.088  99.431  0.00  0.00    +0.062 C 
ATOM     19  H9  UNL     1     144.614 128.476  97.005  0.00  0.00    +0.149 HD
ENDROOT
BRANCH  17  20
ATOM     20  C16 UNL     1     143.252 130.405  98.374  0.00  0.00    -0.004 A 
ATOM     21  C17 UNL     1     142.715 131.219  97.352  0.00  0.00    +0.007 A 
ATOM     22  C18 UNL     1     142.907 132.602  97.349  0.00  0.00    +0.000 A 
ATOM     23  C19 UNL     1     143.647 133.203  98.361  0.00  0.00    +0.000 A 
ATOM     24  C20 UNL     1     144.199 132.422  99.373  0.00  0.00    +0.000 A 
ATOM     25  C21 UNL     1     144.008 131.036  99.379  0.00  0.00    +0.007 A 
ENDBRANCH  17  20
TORSDOF 1
ENDMDL
MODEL 9
REMARK VINA RESULT:    -4.569      3.156      5.961
REMARK INTER + INTRA:          -5.498
REMARK INTER:                  -4.797
REMARK INTRA:                  -0.701
REMARK UNBOUND:                -0.662
REMARK  Name = /home/vital/Documents/PhD_2021/Malaria_codes/data/pdb_ligands_mmv/ligand_201.pdb
REMARK  2 active torsions:
REMARK  status: ('A' for Active; 'I' for Inactive)
REMARK    1  A    between atoms: C14_17  and  C15_18
REMARK    2  A    between atoms: C14_17  and  C16_19
REMARK                            x       y       z     vdW  Elec       q    Type
REMARK                         _______ _______ _______ _____ _____    ______ ____
ROOT
ATOM      1  N1  UNL     1     142.782 129.667  98.225  0.00  0.00    -0.298 N 
ATOM      2  C1  UNL     1     143.609 129.218  97.220  0.00  0.00    +0.071 A 
ATOM      3  C2  UNL     1     142.990 128.048  96.782  0.00  0.00    +0.090 A 
ATOM      4  C3  UNL     1     143.572 127.302  95.745  0.00  0.00    +0.030 A 
ATOM      5  C4  UNL     1     144.765 127.756  95.172  0.00  0.00    +0.002 A 
ATOM      6  C5  UNL     1     145.366 128.932  95.621  0.00  0.00    +0.002 A 
ATOM      7  C6  UNL     1     144.800 129.690  96.652  0.00  0.00    +0.028 A 
ATOM      8  N2  UNL     1     141.829 127.806  97.471  0.00  0.00    -0.227 NA
ATOM      9  C7  UNL     1     141.716 128.799  98.330  0.00  0.00    +0.146 A 
ATOM     10  C8  UNL     1     140.643 129.048  99.280  0.00  0.00    +0.038 A 
ATOM     11  C9  UNL     1     140.764 130.143 100.157  0.00  0.00    +0.040 A 
ATOM     12  C10 UNL     1     139.759 130.351 101.109  0.00  0.00    +0.024 A 
ATOM     13  C11 UNL     1     138.631 129.528 101.150  0.00  0.00    +0.002 A 
ATOM     14  C12 UNL     1     138.505 128.467 100.256  0.00  0.00    +0.001 A 
ATOM     15  C13 UNL     1     139.513 128.223  99.325  0.00  0.00    +0.013 A 
ATOM     16  N3  UNL     1     141.918 130.929 100.187  0.00  0.00    -0.317 N 
ATOM     17  C14 UNL     1     142.841 130.913  99.022  0.00  0.00    +0.135 C 
ATOM     18  C15 UNL     1     142.401 132.074  98.096  0.00  0.00    +0.062 C 
ATOM     19  H9  UNL     1     141.815 131.838 100.623  0.00  0.00    +0.149 HD
ENDROOT
BRANCH  17  20
ATOM     20  C16 UNL     1     144.247 131.090  99.634  0.00  0.00    -0.004 A 
ATOM     21  C17 UNL     1     144.713 130.144 100.573  0.00  0.00    +0.007 A 
ATOM     22  C18 UNL     1     145.975 130.263 101.157  0.00  0.00    +0.000 A 
ATOM     23  C19 UNL     1     146.797 131.334 100.826  0.00  0.00    +0.000 A 
ATOM     24  C20 UNL     1     146.356 132.289  99.914  0.00  0.00    +0.000 A 
ATOM     25  C21 UNL     1     145.091 132.172  99.326  0.00  0.00    +0.007 A 
ENDBRANCH  17  20
TORSDOF 1
ENDMDL
