MODEL 1
REMARK VINA RESULT:    -4.786      0.000      0.000
REMARK INTER + INTRA:          -5.797
REMARK INTER:                  -5.486
REMARK INTRA:                  -0.312
REMARK UNBOUND:                -0.312
REMARK  Name = /home/vital/Documents/PhD_2021/Malaria_codes/data/pdb_ligands_mmv/ligand_252.pdb
REMARK  4 active torsions:
REMARK  status: ('A' for Active; 'I' for Inactive)
REMARK    1  A    between atoms: C1_1  and  C2_2
REMARK    2  A    between atoms: C9_10  and  O1_11
REMARK    3  A    between atoms: C10_12  and  C11_13
REMARK    4  A    between atoms: C11_13  and  C12_14
REMARK                            x       y       z     vdW  Elec       q    Type
REMARK                         _______ _______ _______ _____ _____    ______ ____
ROOT
ATOM      1  C1  UNL     1     143.032 129.273 100.093  0.00  0.00    +0.066 C 
ATOM      2  C2  UNL     1     143.073 130.710  99.655  0.00  0.00    +0.046 A 
ATOM      3  N1  UNL     1     144.280 131.128  99.198  0.00  0.00    -0.251 NA
ATOM      4  C3  UNL     1     144.440 132.407  98.818  0.00  0.00    +0.075 A 
ATOM      5  C4  UNL     1     145.686 132.827  98.370  0.00  0.00    +0.028 A 
ATOM      6  C5  UNL     1     145.919 134.144  97.963  0.00  0.00    +0.002 A 
ATOM      7  C6  UNL     1     144.886 135.069  98.005  0.00  0.00    +0.001 A 
ATOM      8  C7  UNL     1     143.627 134.670  98.450  0.00  0.00    +0.013 A 
ATOM      9  C8  UNL     1     143.392 133.338  98.859  0.00  0.00    +0.042 A 
ATOM     10  C9  UNL     1     142.143 132.871  99.308  0.00  0.00    +0.131 A 
ATOM     11  C10 UNL     1     141.953 131.547  99.724  0.00  0.00    +0.019 A 
ENDROOT
BRANCH  10  12
ATOM     12  O1  UNL     1     141.101 133.767  99.348  0.00  0.00    -0.506 OA
ATOM     13  H8  UNL     1     140.313 133.318  98.996  0.00  0.00    +0.292 HD
ENDBRANCH  10  12
BRANCH  11  14
ATOM     14  C11 UNL     1     140.635 131.073 100.295  0.00  0.00    +0.070 C 
BRANCH  14  15
ATOM     15  C12 UNL     1     139.787 130.377  99.268  0.00  0.00    +0.010 C 
ATOM     16  C13 UNL     1     139.112 129.228  99.412  0.00  0.00    +0.103 C 
ATOM     17 CL1  UNL     1     139.116 128.307 100.870  0.00  0.00    -0.071 Cl
ATOM     18 CL2  UNL     1     138.194 128.600  98.088  0.00  0.00    -0.071 Cl
ENDBRANCH  14  15
ENDBRANCH  11  14
TORSDOF 3
ENDMDL
MODEL 2
REMARK VINA RESULT:    -4.605      6.067      6.956
REMARK INTER + INTRA:          -5.589
REMARK INTER:                  -5.274
REMARK INTRA:                  -0.315
REMARK UNBOUND:                -0.312
REMARK  Name = /home/vital/Documents/PhD_2021/Malaria_codes/data/pdb_ligands_mmv/ligand_252.pdb
REMARK  4 active torsions:
REMARK  status: ('A' for Active; 'I' for Inactive)
REMARK    1  A    between atoms: C1_1  and  C2_2
REMARK    2  A    between atoms: C9_10  and  O1_11
REMARK    3  A    between atoms: C10_12  and  C11_13
REMARK    4  A    between atoms: C11_13  and  C12_14
REMARK                            x       y       z     vdW  Elec       q    Type
REMARK                         _______ _______ _______ _____ _____    ______ ____
ROOT
ATOM      1  C1  UNL     1     142.928 125.189 100.955  0.00  0.00    +0.066 C 
ATOM      2  C2  UNL     1     141.822 126.170 100.689  0.00  0.00    +0.046 A 
ATOM      3  N1  UNL     1     141.120 125.938  99.551  0.00  0.00    -0.251 NA
ATOM      4  C3  UNL     1     140.135 126.778  99.195  0.00  0.00    +0.075 A 
ATOM      5  C4  UNL     1     139.436 126.538  98.019  0.00  0.00    +0.028 A 
ATOM      6  C5  UNL     1     138.402 127.376  97.590  0.00  0.00    +0.002 A 
ATOM      7  C6  UNL     1     138.055 128.483  98.350  0.00  0.00    +0.001 A 
ATOM      8  C7  UNL     1     138.741 128.743  99.535  0.00  0.00    +0.013 A 
ATOM      9  C8  UNL     1     139.784 127.894  99.969  0.00  0.00    +0.042 A 
ATOM     10  C9  UNL     1     140.507 128.096 101.159  0.00  0.00    +0.131 A 
ATOM     11  C10 UNL     1     141.550 127.243 101.545  0.00  0.00    +0.019 A 
ENDROOT
BRANCH  10  12
ATOM     12  O1  UNL     1     140.173 129.180 101.935  0.00  0.00    -0.506 OA
ATOM     13  H8  UNL     1     139.380 129.587 101.548  0.00  0.00    +0.292 HD
ENDBRANCH  10  12
BRANCH  11  14
ATOM     14  C11 UNL     1     142.387 127.516 102.775  0.00  0.00    +0.070 C 
BRANCH  14  15
ATOM     15  C12 UNL     1     141.701 127.080 104.040  0.00  0.00    +0.010 C 
ATOM     16  C13 UNL     1     142.196 126.294 105.005  0.00  0.00    +0.103 C 
ATOM     17 CL1  UNL     1     143.778 125.609 104.947  0.00  0.00    -0.071 Cl
ATOM     18 CL2  UNL     1     141.226 125.912 106.385  0.00  0.00    -0.071 Cl
ENDBRANCH  14  15
ENDBRANCH  11  14
TORSDOF 3
ENDMDL
MODEL 3
REMARK VINA RESULT:    -4.426      2.264      3.808
REMARK INTER + INTRA:          -5.385
REMARK INTER:                  -4.982
REMARK INTRA:                  -0.402
REMARK UNBOUND:                -0.312
REMARK  Name = /home/vital/Documents/PhD_2021/Malaria_codes/data/pdb_ligands_mmv/ligand_252.pdb
REMARK  4 active torsions:
REMARK  status: ('A' for Active; 'I' for Inactive)
REMARK    1  A    between atoms: C1_1  and  C2_2
REMARK    2  A    between atoms: C9_10  and  O1_11
REMARK    3  A    between atoms: C10_12  and  C11_13
REMARK    4  A    between atoms: C11_13  and  C12_14
REMARK                            x       y       z     vdW  Elec       q    Type
REMARK                         _______ _______ _______ _____ _____    ______ ____
ROOT
ATOM      1  C1  UNL     1     142.318 132.718  98.748  0.00  0.00    +0.066 C 
ATOM      2  C2  UNL     1     142.728 131.677  99.750  0.00  0.00    +0.046 A 
ATOM      3  N1  UNL     1     144.069 131.543  99.912  0.00  0.00    -0.251 NA
ATOM      4  C3  UNL     1     144.547 130.613 100.754  0.00  0.00    +0.075 A 
ATOM      5  C4  UNL     1     145.922 130.474 100.896  0.00  0.00    +0.028 A 
ATOM      6  C5  UNL     1     146.484 129.523 101.753  0.00  0.00    +0.002 A 
ATOM      7  C6  UNL     1     145.657 128.685 102.487  0.00  0.00    +0.001 A 
ATOM      8  C7  UNL     1     144.274 128.807 102.361  0.00  0.00    +0.013 A 
ATOM      9  C8  UNL     1     143.707 129.770 101.497  0.00  0.00    +0.042 A 
ATOM     10  C9  UNL     1     142.321 129.949 101.333  0.00  0.00    +0.131 A 
ATOM     11  C10 UNL     1     141.796 130.902 100.450  0.00  0.00    +0.019 A 
ENDROOT
BRANCH  10  12
ATOM     12  O1  UNL     1     141.481 129.138 102.059  0.00  0.00    -0.506 OA
ATOM     13  H8  UNL     1     141.846 129.065 102.957  0.00  0.00    +0.292 HD
ENDBRANCH  10  12
BRANCH  11  14
ATOM     14  C11 UNL     1     140.309 131.028 100.207  0.00  0.00    +0.070 C 
BRANCH  14  15
ATOM     15  C12 UNL     1     139.813 130.041  99.187  0.00  0.00    +0.010 C 
ATOM     16  C13 UNL     1     138.955 129.030  99.383  0.00  0.00    +0.103 C 
ATOM     17 CL1  UNL     1     138.254 128.669 100.916  0.00  0.00    -0.071 Cl
ATOM     18 CL2  UNL     1     138.520 128.006  98.059  0.00  0.00    -0.071 Cl
ENDBRANCH  14  15
ENDBRANCH  11  14
TORSDOF 3
ENDMDL
MODEL 4
REMARK VINA RESULT:    -4.168      3.371      5.950
REMARK INTER + INTRA:          -5.089
REMARK INTER:                  -4.725
REMARK INTRA:                  -0.364
REMARK UNBOUND:                -0.312
REMARK  Name = /home/vital/Documents/PhD_2021/Malaria_codes/data/pdb_ligands_mmv/ligand_252.pdb
REMARK  4 active torsions:
REMARK  status: ('A' for Active; 'I' for Inactive)
REMARK    1  A    between atoms: C1_1  and  C2_2
REMARK    2  A    between atoms: C9_10  and  O1_11
REMARK    3  A    between atoms: C10_12  and  C11_13
REMARK    4  A    between atoms: C11_13  and  C12_14
REMARK                            x       y       z     vdW  Elec       q    Type
REMARK                         _______ _______ _______ _____ _____    ______ ____
ROOT
ATOM      1  C1  UNL     1     143.398 132.671  99.550  0.00  0.00    +0.066 C 
ATOM      2  C2  UNL     1     142.448 131.530  99.316  0.00  0.00    +0.046 A 
ATOM      3  N1  UNL     1     141.437 131.441 100.217  0.00  0.00    -0.251 NA
ATOM      4  C3  UNL     1     140.553 130.434 100.126  0.00  0.00    +0.075 A 
ATOM      5  C4  UNL     1     139.534 130.343 101.065  0.00  0.00    +0.028 A 
ATOM      6  C5  UNL     1     138.584 129.318 101.028  0.00  0.00    +0.002 A 
ATOM      7  C6  UNL     1     138.650 128.355 100.032  0.00  0.00    +0.001 A 
ATOM      8  C7  UNL     1     139.663 128.426  99.077  0.00  0.00    +0.013 A 
ATOM      9  C8  UNL     1     140.622 129.464  99.114  0.00  0.00    +0.042 A 
ATOM     10  C9  UNL     1     141.661 129.597  98.176  0.00  0.00    +0.131 A 
ATOM     11  C10 UNL     1     142.605 130.629  98.257  0.00  0.00    +0.019 A 
ENDROOT
BRANCH  10  12
ATOM     12  O1  UNL     1     141.741 128.661  97.172  0.00  0.00    -0.506 OA
ATOM     13  H8  UNL     1     142.665 128.361  97.122  0.00  0.00    +0.292 HD
ENDBRANCH  10  12
BRANCH  11  14
ATOM     14  C11 UNL     1     143.776 130.714  97.303  0.00  0.00    +0.070 C 
BRANCH  14  15
ATOM     15  C12 UNL     1     143.509 131.648  96.155  0.00  0.00    +0.010 C 
ATOM     16  C13 UNL     1     143.313 131.322  94.870  0.00  0.00    +0.103 C 
ATOM     17 CL1  UNL     1     143.350 129.699  94.290  0.00  0.00    -0.071 Cl
ATOM     18 CL2  UNL     1     143.023 132.566  93.704  0.00  0.00    -0.071 Cl
ENDBRANCH  14  15
ENDBRANCH  11  14
TORSDOF 3
ENDMDL
MODEL 5
REMARK VINA RESULT:    -4.077      4.154      6.894
REMARK INTER + INTRA:          -4.985
REMARK INTER:                  -4.766
REMARK INTRA:                  -0.218
REMARK UNBOUND:                -0.312
REMARK  Name = /home/vital/Documents/PhD_2021/Malaria_codes/data/pdb_ligands_mmv/ligand_252.pdb
REMARK  4 active torsions:
REMARK  status: ('A' for Active; 'I' for Inactive)
REMARK    1  A    between atoms: C1_1  and  C2_2
REMARK    2  A    between atoms: C9_10  and  O1_11
REMARK    3  A    between atoms: C10_12  and  C11_13
REMARK    4  A    between atoms: C11_13  and  C12_14
REMARK                            x       y       z     vdW  Elec       q    Type
REMARK                         _______ _______ _______ _____ _____    ______ ____
ROOT
ATOM      1  C1  UNL     1     138.114 128.537  98.170  0.00  0.00    +0.066 C 
ATOM      2  C2  UNL     1     139.194 127.777  98.887  0.00  0.00    +0.046 A 
ATOM      3  N1  UNL     1     139.528 126.592  98.317  0.00  0.00    -0.251 NA
ATOM      4  C3  UNL     1     140.454 125.812  98.898  0.00  0.00    +0.075 A 
ATOM      5  C4  UNL     1     140.773 124.594  98.313  0.00  0.00    +0.028 A 
ATOM      6  C5  UNL     1     141.725 123.734  98.870  0.00  0.00    +0.002 A 
ATOM      7  C6  UNL     1     142.376 124.096 100.041  0.00  0.00    +0.001 A 
ATOM      8  C7  UNL     1     142.073 125.314 100.645  0.00  0.00    +0.013 A 
ATOM      9  C8  UNL     1     141.112 126.183 100.080  0.00  0.00    +0.042 A 
ATOM     10  C9  UNL     1     140.769 127.429 100.635  0.00  0.00    +0.131 A 
ATOM     11  C10 UNL     1     139.795 128.255 100.057  0.00  0.00    +0.019 A 
ENDROOT
BRANCH  10  12
ATOM     12  O1  UNL     1     141.408 127.815 101.789  0.00  0.00    -0.506 OA
ATOM     13  H8  UNL     1     142.010 128.545 101.563  0.00  0.00    +0.292 HD
ENDBRANCH  10  12
BRANCH  11  14
ATOM     14  C11 UNL     1     139.362 129.550 100.707  0.00  0.00    +0.070 C 
BRANCH  14  15
ATOM     15  C12 UNL     1     139.898 130.756  99.988  0.00  0.00    +0.010 C 
ATOM     16  C13 UNL     1     141.079 131.359 100.179  0.00  0.00    +0.103 C 
ATOM     17 CL1  UNL     1     142.232 130.831 101.347  0.00  0.00    -0.071 Cl
ATOM     18 CL2  UNL     1     141.497 132.747  99.236  0.00  0.00    -0.071 Cl
ENDBRANCH  14  15
ENDBRANCH  11  14
TORSDOF 3
ENDMDL
MODEL 6
REMARK VINA RESULT:    -4.063      1.447      1.857
REMARK INTER + INTRA:          -4.968
REMARK INTER:                  -4.610
REMARK INTRA:                  -0.359
REMARK UNBOUND:                -0.312
REMARK  Name = /home/vital/Documents/PhD_2021/Malaria_codes/data/pdb_ligands_mmv/ligand_252.pdb
REMARK  4 active torsions:
REMARK  status: ('A' for Active; 'I' for Inactive)
REMARK    1  A    between atoms: C1_1  and  C2_2
REMARK    2  A    between atoms: C9_10  and  O1_11
REMARK    3  A    between atoms: C10_12  and  C11_13
REMARK    4  A    between atoms: C11_13  and  C12_14
REMARK                            x       y       z     vdW  Elec       q    Type
REMARK                         _______ _______ _______ _____ _____    ______ ____
ROOT
ATOM      1  C1  UNL     1     142.263 128.742 101.963  0.00  0.00    +0.066 C 
ATOM      2  C2  UNL     1     142.856 129.866 101.163  0.00  0.00    +0.046 A 
ATOM      3  N1  UNL     1     144.213 129.882 101.126  0.00  0.00    -0.251 NA
ATOM      4  C3  UNL     1     144.849 130.868 100.473  0.00  0.00    +0.075 A 
ATOM      5  C4  UNL     1     146.238 130.881 100.458  0.00  0.00    +0.028 A 
ATOM      6  C5  UNL     1     146.960 131.881  99.799  0.00  0.00    +0.002 A 
ATOM      7  C6  UNL     1     146.283 132.896  99.138  0.00  0.00    +0.001 A 
ATOM      8  C7  UNL     1     144.889 132.902  99.138  0.00  0.00    +0.013 A 
ATOM      9  C8  UNL     1     144.160 131.889  99.802  0.00  0.00    +0.042 A 
ATOM     10  C9  UNL     1     142.755 131.834  99.830  0.00  0.00    +0.131 A 
ATOM     11  C10 UNL     1     142.067 130.825 100.518  0.00  0.00    +0.019 A 
ENDROOT
BRANCH  10  12
ATOM     12  O1  UNL     1     142.061 132.822  99.173  0.00  0.00    -0.506 OA
ATOM     13  H8  UNL     1     141.688 133.418  99.845  0.00  0.00    +0.292 HD
ENDBRANCH  10  12
BRANCH  11  14
ATOM     14  C11 UNL     1     140.558 130.821 100.625  0.00  0.00    +0.070 C 
BRANCH  14  15
ATOM     15  C12 UNL     1     139.907 130.100  99.478  0.00  0.00    +0.010 C 
ATOM     16  C13 UNL     1     138.953 129.161  99.542  0.00  0.00    +0.103 C 
ATOM     17 CL1  UNL     1     138.291 128.588 101.028  0.00  0.00    -0.071 Cl
ATOM     18 CL2  UNL     1     138.343 128.456  98.086  0.00  0.00    -0.071 Cl
ENDBRANCH  14  15
ENDBRANCH  11  14
TORSDOF 3
ENDMDL
MODEL 7
REMARK VINA RESULT:    -4.041      4.356      6.377
REMARK INTER + INTRA:          -4.944
REMARK INTER:                  -4.536
REMARK INTRA:                  -0.408
REMARK UNBOUND:                -0.312
REMARK  Name = /home/vital/Documents/PhD_2021/Malaria_codes/data/pdb_ligands_mmv/ligand_252.pdb
REMARK  4 active torsions:
REMARK  status: ('A' for Active; 'I' for Inactive)
REMARK    1  A    between atoms: C1_1  and  C2_2
REMARK    2  A    between atoms: C9_10  and  O1_11
REMARK    3  A    between atoms: C10_12  and  C11_13
REMARK    4  A    between atoms: C11_13  and  C12_14
REMARK                            x       y       z     vdW  Elec       q    Type
REMARK                         _______ _______ _______ _____ _____    ______ ____
ROOT
ATOM      1  C1  UNL     1     144.035 126.974 100.623  0.00  0.00    +0.066 C 
ATOM      2  C2  UNL     1     142.668 127.563 100.420  0.00  0.00    +0.046 A 
ATOM      3  N1  UNL     1     141.895 126.903  99.520  0.00  0.00    -0.251 NA
ATOM      4  C3  UNL     1     140.669 127.368  99.231  0.00  0.00    +0.075 A 
ATOM      5  C4  UNL     1     139.895 126.693  98.295  0.00  0.00    +0.028 A 
ATOM      6  C5  UNL     1     138.612 127.127  97.947  0.00  0.00    +0.002 A 
ATOM      7  C6  UNL     1     138.085 128.263  98.544  0.00  0.00    +0.001 A 
ATOM      8  C7  UNL     1     138.842 128.955  99.487  0.00  0.00    +0.013 A 
ATOM      9  C8  UNL     1     140.138 128.515  99.840  0.00  0.00    +0.042 A 
ATOM     10  C9  UNL     1     140.947 129.162 100.791  0.00  0.00    +0.131 A 
ATOM     11  C10 UNL     1     142.236 128.708 101.100  0.00  0.00    +0.019 A 
ENDROOT
BRANCH  10  12
ATOM     12  O1  UNL     1     140.442 130.284 101.405  0.00  0.00    -0.506 OA
ATOM     13  H8  UNL     1     139.657 130.565 100.905  0.00  0.00    +0.292 HD
ENDBRANCH  10  12
BRANCH  11  14
ATOM     14  C11 UNL     1     143.139 129.460 102.051  0.00  0.00    +0.070 C 
BRANCH  14  15
ATOM     15  C12 UNL     1     143.927 130.536 101.359  0.00  0.00    +0.010 C 
ATOM     16  C13 UNL     1     145.260 130.628 101.251  0.00  0.00    +0.103 C 
ATOM     17 CL1  UNL     1     146.345 129.474 101.934  0.00  0.00    -0.071 Cl
ATOM     18 CL2  UNL     1     145.963 131.963 100.406  0.00  0.00    -0.071 Cl
ENDBRANCH  14  15
ENDBRANCH  11  14
TORSDOF 3
ENDMDL
MODEL 8
REMARK VINA RESULT:    -4.006      3.190      5.888
REMARK INTER + INTRA:          -4.903
REMARK INTER:                  -4.708
REMARK INTRA:                  -0.195
REMARK UNBOUND:                -0.312
REMARK  Name = /home/vital/Documents/PhD_2021/Malaria_codes/data/pdb_ligands_mmv/ligand_252.pdb
REMARK  4 active torsions:
REMARK  status: ('A' for Active; 'I' for Inactive)
REMARK    1  A    between atoms: C1_1  and  C2_2
REMARK    2  A    between atoms: C9_10  and  O1_11
REMARK    3  A    between atoms: C10_12  and  C11_13
REMARK    4  A    between atoms: C11_13  and  C12_14
REMARK                            x       y       z     vdW  Elec       q    Type
REMARK                         _______ _______ _______ _____ _____    ______ ____
ROOT
ATOM      1  C1  UNL     1     143.416 128.912  97.012  0.00  0.00    +0.066 C 
ATOM      2  C2  UNL     1     142.509 129.238  98.165  0.00  0.00    +0.046 A 
ATOM      3  N1  UNL     1     141.274 128.680  98.089  0.00  0.00    -0.251 NA
ATOM      4  C3  UNL     1     140.368 128.940  99.046  0.00  0.00    +0.075 A 
ATOM      5  C4  UNL     1     139.102 128.377  98.948  0.00  0.00    +0.028 A 
ATOM      6  C5  UNL     1     138.113 128.610  99.908  0.00  0.00    +0.002 A 
ATOM      7  C6  UNL     1     138.390 129.427 100.996  0.00  0.00    +0.001 A 
ATOM      8  C7  UNL     1     139.654 130.001 101.116  0.00  0.00    +0.013 A 
ATOM      9  C8  UNL     1     140.653 129.763 100.146  0.00  0.00    +0.042 A 
ATOM     10  C9  UNL     1     141.950 130.305 100.215  0.00  0.00    +0.131 A 
ATOM     11  C10 UNL     1     142.908 130.063  99.223  0.00  0.00    +0.019 A 
ENDROOT
BRANCH  10  12
ATOM     12  O1  UNL     1     142.251 131.108 101.290  0.00  0.00    -0.506 OA
ATOM     13  H8  UNL     1     141.602 131.832 101.308  0.00  0.00    +0.292 HD
ENDBRANCH  10  12
BRANCH  11  14
ATOM     14  C11 UNL     1     144.269 130.722  99.252  0.00  0.00    +0.070 C 
BRANCH  14  15
ATOM     15  C12 UNL     1     144.176 132.222  99.263  0.00  0.00    +0.010 C 
ATOM     16  C13 UNL     1     143.853 133.025  98.241  0.00  0.00    +0.103 C 
ATOM     17 CL1  UNL     1     143.485 132.442  96.660  0.00  0.00    -0.071 Cl
ATOM     18 CL2  UNL     1     143.808 134.738  98.475  0.00  0.00    -0.071 Cl
ENDBRANCH  14  15
ENDBRANCH  11  14
TORSDOF 3
ENDMDL
MODEL 9
REMARK VINA RESULT:    -3.892      3.219      4.564
REMARK INTER + INTRA:          -4.772
REMARK INTER:                  -4.385
REMARK INTRA:                  -0.388
REMARK UNBOUND:                -0.312
REMARK  Name = /home/vital/Documents/PhD_2021/Malaria_codes/data/pdb_ligands_mmv/ligand_252.pdb
REMARK  4 active torsions:
REMARK  status: ('A' for Active; 'I' for Inactive)
REMARK    1  A    between atoms: C1_1  and  C2_2
REMARK    2  A    between atoms: C9_10  and  O1_11
REMARK    3  A    between atoms: C10_12  and  C11_13
REMARK    4  A    between atoms: C11_13  and  C12_14
REMARK                            x       y       z     vdW  Elec       q    Type
REMARK                         _______ _______ _______ _____ _____    ______ ____
ROOT
ATOM      1  C1  UNL     1     138.750 128.654 100.475  0.00  0.00    +0.066 C 
ATOM      2  C2  UNL     1     140.100 129.303 100.356  0.00  0.00    +0.046 A 
ATOM      3  N1  UNL     1     140.076 130.582  99.904  0.00  0.00    -0.251 NA
ATOM      4  C3  UNL     1     141.230 131.244  99.720  0.00  0.00    +0.075 A 
ATOM      5  C4  UNL     1     141.192 132.547  99.240  0.00  0.00    +0.028 A 
ATOM      6  C5  UNL     1     142.357 133.288  99.024  0.00  0.00    +0.002 A 
ATOM      7  C6  UNL     1     143.594 132.719  99.291  0.00  0.00    +0.001 A 
ATOM      8  C7  UNL     1     143.657 131.413  99.775  0.00  0.00    +0.013 A 
ATOM      9  C8  UNL     1     142.478 130.665  99.995  0.00  0.00    +0.042 A 
ATOM     10  C9  UNL     1     142.474 129.349 100.490  0.00  0.00    +0.131 A 
ATOM     11  C10 UNL     1     141.285 128.631 100.677  0.00  0.00    +0.019 A 
ENDROOT
BRANCH  10  12
ATOM     12  O1  UNL     1     143.687 128.767 100.773  0.00  0.00    -0.506 OA
ATOM     13  H8  UNL     1     143.684 128.522 101.714  0.00  0.00    +0.292 HD
ENDBRANCH  10  12
BRANCH  11  14
ATOM     14  C11 UNL     1     141.289 127.185 101.120  0.00  0.00    +0.070 C 
BRANCH  14  15
ATOM     15  C12 UNL     1     141.162 127.045 102.611  0.00  0.00    +0.010 C 
ATOM     16  C13 UNL     1     142.101 126.629 103.472  0.00  0.00    +0.103 C 
ATOM     17 CL1  UNL     1     143.684 126.149 102.985  0.00  0.00    -0.071 Cl
ATOM     18 CL2  UNL     1     141.738 126.540 105.160  0.00  0.00    -0.071 Cl
ENDBRANCH  14  15
ENDBRANCH  11  14
TORSDOF 3
ENDMDL
