MODEL 1
REMARK VINA RESULT:    -4.625      0.000      0.000
REMARK INTER + INTRA:          -8.032
REMARK INTER:                  -6.113
REMARK INTRA:                  -1.919
REMARK UNBOUND:                -1.919
REMARK  Name = /home/vital/Documents/PhD_2021/Malaria_codes/data/pdb_ligands_mmv/ligand_253.pdb
REMARK  6 active torsions:
REMARK  status: ('A' for Active; 'I' for Inactive)
REMARK    1  A    between atoms: O1_1  and  C1_2
REMARK    2  A    between atoms: C6_7  and  C7_8
REMARK    3  A    between atoms: C7_8  and  N1_14
REMARK    4  A    between atoms: N1_14  and  C13_15
REMARK    5  A    between atoms: C13_15  and  N2_17
REMARK    6  A    between atoms: N2_17  and  C14_18
REMARK                            x       y       z     vdW  Elec       q    Type
REMARK                         _______ _______ _______ _____ _____    ______ ____
ROOT
ATOM      1  C7  UNL     1     144.378 128.805 101.413  0.00  0.00    +0.039 C 
ATOM      2  C8  UNL     1     145.789 129.321 101.896  0.00  0.00    +0.026 C 
ATOM      3  C9  UNL     1     146.783 128.237 102.338  0.00  0.00    +0.002 C 
ATOM      4  C10 UNL     1     146.119 126.933 102.738  0.00  0.00    +0.000 C 
ATOM      5  C11 UNL     1     145.260 126.373 101.607  0.00  0.00    +0.002 C 
ATOM      6  C12 UNL     1     144.652 127.454 100.701  0.00  0.00    +0.026 C 
ENDROOT
BRANCH   1  12
ATOM      7  C1  UNL     1     142.819 130.964 101.091  0.00  0.00    +0.120 C 
ATOM      8  C2  UNL     1     142.295 132.002 100.090  0.00  0.00    +0.032 C 
ATOM      9  C3  UNL     1     141.713 131.374  98.837  0.00  0.00    +0.003 C 
ATOM     10  C4  UNL     1     142.731 130.457  98.180  0.00  0.00    +0.001 C 
ATOM     11  C5  UNL     1     143.196 129.376  99.151  0.00  0.00    +0.008 C 
ATOM     12  C6  UNL     1     143.800 129.952 100.455  0.00  0.00    +0.041 C 
BRANCH   7  13
ATOM     13  O1  UNL     1     143.495 131.713 102.105  0.00  0.00    -0.391 OA
ATOM     14  H1  UNL     1     142.870 132.390 102.418  0.00  0.00    +0.210 HD
ENDBRANCH   7  13
ENDBRANCH   1  12
BRANCH   1  15
ATOM     15  N1  UNL     1     143.564 128.659 102.662  0.00  0.00    -0.320 N 
ATOM     16  H22 UNL     1     143.396 129.572 103.072  0.00  0.00    +0.148 HD
BRANCH  15  17
ATOM     17  C13 UNL     1     142.516 127.816 103.042  0.00  0.00    +0.135 C 
ATOM     18  S1  UNL     1     142.616 126.494 104.056  0.00  0.00    -0.019 S 
BRANCH  17  19
ATOM     19  N2  UNL     1     141.349 128.329 102.473  0.00  0.00    -0.297 N 
ATOM     20  H23 UNL     1     140.824 128.897 103.125  0.00  0.00    +0.154 HD
BRANCH  19  21
ATOM     21  C14 UNL     1     140.672 128.031 101.270  0.00  0.00    +0.033 A 
ATOM     22  C15 UNL     1     139.656 128.917 100.881  0.00  0.00    +0.023 A 
ATOM     23  C16 UNL     1     138.949 128.721  99.692  0.00  0.00    +0.002 A 
ATOM     24  C17 UNL     1     139.260 127.644  98.869  0.00  0.00    +0.000 A 
ATOM     25  C18 UNL     1     140.283 126.772  99.231  0.00  0.00    +0.002 A 
ATOM     26  C19 UNL     1     140.991 126.971 100.423  0.00  0.00    +0.023 A 
ENDBRANCH  19  21
ENDBRANCH  17  19
ENDBRANCH  15  17
ENDBRANCH   1  15
TORSDOF 6
ENDMDL
MODEL 2
REMARK VINA RESULT:    -4.625      1.340      4.653
REMARK INTER + INTRA:          -8.032
REMARK INTER:                  -5.813
REMARK INTRA:                  -2.219
REMARK UNBOUND:                -1.919
REMARK  Name = /home/vital/Documents/PhD_2021/Malaria_codes/data/pdb_ligands_mmv/ligand_253.pdb
REMARK  6 active torsions:
REMARK  status: ('A' for Active; 'I' for Inactive)
REMARK    1  A    between atoms: O1_1  and  C1_2
REMARK    2  A    between atoms: C6_7  and  C7_8
REMARK    3  A    between atoms: C7_8  and  N1_14
REMARK    4  A    between atoms: N1_14  and  C13_15
REMARK    5  A    between atoms: C13_15  and  N2_17
REMARK    6  A    between atoms: N2_17  and  C14_18
REMARK                            x       y       z     vdW  Elec       q    Type
REMARK                         _______ _______ _______ _____ _____    ______ ____
ROOT
ATOM      1  C7  UNL     1     141.551 129.470 100.847  0.00  0.00    +0.039 C 
ATOM      2  C8  UNL     1     141.202 128.282  99.868  0.00  0.00    +0.026 C 
ATOM      3  C9  UNL     1     139.712 127.944  99.729  0.00  0.00    +0.002 C 
ATOM      4  C10 UNL     1     138.871 128.418 100.900  0.00  0.00    +0.000 C 
ATOM      5  C11 UNL     1     139.010 129.923 101.116  0.00  0.00    +0.002 C 
ATOM      6  C12 UNL     1     140.382 130.480 100.706  0.00  0.00    +0.026 C 
ENDROOT
BRANCH   1  12
ATOM      7  C1  UNL     1     143.332 131.475 100.784  0.00  0.00    +0.120 C 
ATOM      8  C2  UNL     1     144.694 131.935 100.248  0.00  0.00    +0.032 C 
ATOM      9  C3  UNL     1     144.836 131.739  98.749  0.00  0.00    +0.003 C 
ATOM     10  C4  UNL     1     144.569 130.290  98.375  0.00  0.00    +0.001 C 
ATOM     11  C5  UNL     1     143.183 129.855  98.840  0.00  0.00    +0.008 C 
ATOM     12  C6  UNL     1     142.971 130.031 100.363  0.00  0.00    +0.041 C 
BRANCH   7  13
ATOM     13  O1  UNL     1     143.434 131.546 102.209  0.00  0.00    -0.391 OA
ATOM     14  H1  UNL     1     144.380 131.637 102.419  0.00  0.00    +0.210 HD
ENDBRANCH   7  13
ENDBRANCH   1  12
BRANCH   1  15
ATOM     15  N1  UNL     1     141.631 128.848 102.208  0.00  0.00    -0.320 N 
ATOM     16  H22 UNL     1     140.788 129.060 102.732  0.00  0.00    +0.148 HD
BRANCH  15  17
ATOM     17  C13 UNL     1     142.153 127.647 102.694  0.00  0.00    +0.135 C 
ATOM     18  S1  UNL     1     141.348 126.191 102.828  0.00  0.00    -0.019 S 
BRANCH  17  19
ATOM     19  N2  UNL     1     143.501 127.871 102.982  0.00  0.00    -0.297 N 
ATOM     20  H23 UNL     1     143.638 128.209 103.925  0.00  0.00    +0.154 HD
BRANCH  19  21
ATOM     21  C14 UNL     1     144.648 127.924 102.161  0.00  0.00    +0.033 A 
ATOM     22  C15 UNL     1     144.699 127.023 101.087  0.00  0.00    +0.023 A 
ATOM     23  C16 UNL     1     145.781 127.019 100.204  0.00  0.00    +0.002 A 
ATOM     24  C17 UNL     1     146.820 127.928 100.375  0.00  0.00    +0.000 A 
ATOM     25  C18 UNL     1     146.769 128.844 101.421  0.00  0.00    +0.002 A 
ATOM     26  C19 UNL     1     145.683 128.846 102.306  0.00  0.00    +0.023 A 
ENDBRANCH  19  21
ENDBRANCH  17  19
ENDBRANCH  15  17
ENDBRANCH   1  15
TORSDOF 6
ENDMDL
MODEL 3
REMARK VINA RESULT:    -4.606      2.409      4.672
REMARK INTER + INTRA:          -8.005
REMARK INTER:                  -6.849
REMARK INTRA:                  -1.157
REMARK UNBOUND:                -1.919
REMARK  Name = /home/vital/Documents/PhD_2021/Malaria_codes/data/pdb_ligands_mmv/ligand_253.pdb
REMARK  6 active torsions:
REMARK  status: ('A' for Active; 'I' for Inactive)
REMARK    1  A    between atoms: O1_1  and  C1_2
REMARK    2  A    between atoms: C6_7  and  C7_8
REMARK    3  A    between atoms: C7_8  and  N1_14
REMARK    4  A    between atoms: N1_14  and  C13_15
REMARK    5  A    between atoms: C13_15  and  N2_17
REMARK    6  A    between atoms: N2_17  and  C14_18
REMARK                            x       y       z     vdW  Elec       q    Type
REMARK                         _______ _______ _______ _____ _____    ______ ____
ROOT
ATOM      1  C7  UNL     1     141.539 129.456 100.851  0.00  0.00    +0.039 C 
ATOM      2  C8  UNL     1     141.160 128.274  99.876  0.00  0.00    +0.026 C 
ATOM      3  C9  UNL     1     139.661 127.967  99.748  0.00  0.00    +0.002 C 
ATOM      4  C10 UNL     1     138.838 128.460 100.924  0.00  0.00    +0.000 C 
ATOM      5  C11 UNL     1     139.010 129.962 101.136  0.00  0.00    +0.002 C 
ATOM      6  C12 UNL     1     140.390 130.490 100.716  0.00  0.00    +0.026 C 
ENDROOT
BRANCH   1  12
ATOM      7  C1  UNL     1     143.357 131.427 100.764  0.00  0.00    +0.120 C 
ATOM      8  C2  UNL     1     144.725 131.857 100.219  0.00  0.00    +0.032 C 
ATOM      9  C3  UNL     1     144.857 131.646  98.722  0.00  0.00    +0.003 C 
ATOM     10  C4  UNL     1     144.563 130.199  98.361  0.00  0.00    +0.001 C 
ATOM     11  C5  UNL     1     143.171 129.793  98.835  0.00  0.00    +0.008 C 
ATOM     12  C6  UNL     1     142.968 129.987 100.357  0.00  0.00    +0.041 C 
BRANCH   7  13
ATOM     13  O1  UNL     1     143.465 131.509 102.188  0.00  0.00    -0.391 OA
ATOM     14  H1  UNL     1     143.366 130.602 102.530  0.00  0.00    +0.210 HD
ENDBRANCH   7  13
ENDBRANCH   1  12
BRANCH   1  15
ATOM     15  N1  UNL     1     141.616 128.834 102.213  0.00  0.00    -0.320 N 
ATOM     16  H22 UNL     1     140.703 128.865 102.656  0.00  0.00    +0.148 HD
BRANCH  15  17
ATOM     17  C13 UNL     1     142.317 127.750 102.744  0.00  0.00    +0.135 C 
ATOM     18  S1  UNL     1     143.958 127.673 103.044  0.00  0.00    -0.019 S 
BRANCH  17  19
ATOM     19  N2  UNL     1     141.379 126.762 103.048  0.00  0.00    -0.297 N 
ATOM     20  H23 UNL     1     140.620 126.737 102.380  0.00  0.00    +0.154 HD
BRANCH  19  21
ATOM     21  C14 UNL     1     141.181 125.966 104.197  0.00  0.00    +0.033 A 
ATOM     22  C15 UNL     1     141.212 126.625 105.435  0.00  0.00    +0.023 A 
ATOM     23  C16 UNL     1     140.999 125.926 106.626  0.00  0.00    +0.002 A 
ATOM     24  C17 UNL     1     140.737 124.560 106.592  0.00  0.00    +0.000 A 
ATOM     25  C18 UNL     1     140.678 123.900 105.369  0.00  0.00    +0.002 A 
ATOM     26  C19 UNL     1     140.891 124.602 104.176  0.00  0.00    +0.023 A 
ENDBRANCH  19  21
ENDBRANCH  17  19
ENDBRANCH  15  17
ENDBRANCH   1  15
TORSDOF 6
ENDMDL
MODEL 4
REMARK VINA RESULT:    -4.553      2.007      4.931
REMARK INTER + INTRA:          -7.935
REMARK INTER:                  -5.765
REMARK INTRA:                  -2.171
REMARK UNBOUND:                -1.919
REMARK  Name = /home/vital/Documents/PhD_2021/Malaria_codes/data/pdb_ligands_mmv/ligand_253.pdb
REMARK  6 active torsions:
REMARK  status: ('A' for Active; 'I' for Inactive)
REMARK    1  A    between atoms: O1_1  and  C1_2
REMARK    2  A    between atoms: C6_7  and  C7_8
REMARK    3  A    between atoms: C7_8  and  N1_14
REMARK    4  A    between atoms: N1_14  and  C13_15
REMARK    5  A    between atoms: C13_15  and  N2_17
REMARK    6  A    between atoms: N2_17  and  C14_18
REMARK                            x       y       z     vdW  Elec       q    Type
REMARK                         _______ _______ _______ _____ _____    ______ ____
ROOT
ATOM      1  C7  UNL     1     141.485 129.932  99.966  0.00  0.00    +0.039 C 
ATOM      2  C8  UNL     1     141.654 128.421  99.544  0.00  0.00    +0.026 C 
ATOM      3  C9  UNL     1     140.480 127.494  99.886  0.00  0.00    +0.002 C 
ATOM      4  C10 UNL     1     139.598 128.021 101.003  0.00  0.00    +0.000 C 
ATOM      5  C11 UNL     1     139.045 129.405 100.674  0.00  0.00    +0.002 C 
ATOM      6  C12 UNL     1     139.976 130.246  99.787  0.00  0.00    +0.026 C 
ENDROOT
BRANCH   1  12
ATOM      7  C1  UNL     1     142.075 132.244  98.739  0.00  0.00    +0.120 C 
ATOM      8  C2  UNL     1     143.040 132.949  97.777  0.00  0.00    +0.032 C 
ATOM      9  C3  UNL     1     143.241 132.189  96.478  0.00  0.00    +0.003 C 
ATOM     10  C4  UNL     1     143.703 130.769  96.760  0.00  0.00    +0.001 C 
ATOM     11  C5  UNL     1     142.705 130.040  97.655  0.00  0.00    +0.008 C 
ATOM     12  C6  UNL     1     142.452 130.766  98.998  0.00  0.00    +0.041 C 
BRANCH   7  13
ATOM     13  O1  UNL     1     142.147 132.977  99.965  0.00  0.00    -0.391 OA
ATOM     14  H1  UNL     1     142.298 133.909  99.725  0.00  0.00    +0.210 HD
ENDBRANCH   7  13
ENDBRANCH   1  12
BRANCH   1  15
ATOM     15  N1  UNL     1     141.935 129.995 101.394  0.00  0.00    -0.320 N 
ATOM     16  H22 UNL     1     141.128 130.069 102.005  0.00  0.00    +0.148 HD
BRANCH  15  17
ATOM     17  C13 UNL     1     142.967 129.386 102.111  0.00  0.00    +0.135 C 
ATOM     18  S1  UNL     1     142.917 127.894 102.860  0.00  0.00    -0.019 S 
BRANCH  17  19
ATOM     19  N2  UNL     1     144.079 130.225 102.026  0.00  0.00    -0.297 N 
ATOM     20  H23 UNL     1     144.120 130.884 102.792  0.00  0.00    +0.154 HD
BRANCH  19  21
ATOM     21  C14 UNL     1     145.005 130.467 100.988  0.00  0.00    +0.033 A 
ATOM     22  C15 UNL     1     145.389 129.363 100.213  0.00  0.00    +0.023 A 
ATOM     23  C16 UNL     1     146.279 129.510  99.146  0.00  0.00    +0.002 A 
ATOM     24  C17 UNL     1     146.786 130.766  98.832  0.00  0.00    +0.000 A 
ATOM     25  C18 UNL     1     146.393 131.874  99.578  0.00  0.00    +0.002 A 
ATOM     26  C19 UNL     1     145.500 131.725 100.646  0.00  0.00    +0.023 A 
ENDBRANCH  19  21
ENDBRANCH  17  19
ENDBRANCH  15  17
ENDBRANCH   1  15
TORSDOF 6
ENDMDL
MODEL 5
REMARK VINA RESULT:    -4.475      1.965      4.193
REMARK INTER + INTRA:          -7.833
REMARK INTER:                  -6.012
REMARK INTRA:                  -1.820
REMARK UNBOUND:                -1.919
REMARK  Name = /home/vital/Documents/PhD_2021/Malaria_codes/data/pdb_ligands_mmv/ligand_253.pdb
REMARK  6 active torsions:
REMARK  status: ('A' for Active; 'I' for Inactive)
REMARK    1  A    between atoms: O1_1  and  C1_2
REMARK    2  A    between atoms: C6_7  and  C7_8
REMARK    3  A    between atoms: C7_8  and  N1_14
REMARK    4  A    between atoms: N1_14  and  C13_15
REMARK    5  A    between atoms: C13_15  and  N2_17
REMARK    6  A    between atoms: N2_17  and  C14_18
REMARK                            x       y       z     vdW  Elec       q    Type
REMARK                         _______ _______ _______ _____ _____    ______ ____
ROOT
ATOM      1  C7  UNL     1     141.772 127.838 101.512  0.00  0.00    +0.039 C 
ATOM      2  C8  UNL     1     142.904 126.968 100.840  0.00  0.00    +0.026 C 
ATOM      3  C9  UNL     1     143.548 125.901 101.736  0.00  0.00    +0.002 C 
ATOM      4  C10 UNL     1     143.391 126.179 103.219  0.00  0.00    +0.000 C 
ATOM      5  C11 UNL     1     141.923 126.319 103.610  0.00  0.00    +0.002 C 
ATOM      6  C12 UNL     1     141.037 126.882 102.488  0.00  0.00    +0.026 C 
ENDROOT
BRANCH   1  12
ATOM      7  C1  UNL     1     139.606 129.193 100.691  0.00  0.00    +0.120 C 
ATOM      8  C2  UNL     1     138.785 129.638  99.474  0.00  0.00    +0.032 C 
ATOM      9  C3  UNL     1     138.444 128.492  98.539  0.00  0.00    +0.003 C 
ATOM     10  C4  UNL     1     139.707 127.768  98.102  0.00  0.00    +0.001 C 
ATOM     11  C5  UNL     1     140.486 127.257  99.310  0.00  0.00    +0.008 C 
ATOM     12  C6  UNL     1     140.864 128.378 100.307  0.00  0.00    +0.041 C 
BRANCH   7  13
ATOM     13  O1  UNL     1     140.000 130.397 101.353  0.00  0.00    -0.391 OA
ATOM     14  H1  UNL     1     139.882 131.121 100.713  0.00  0.00    +0.210 HD
ENDBRANCH   7  13
ENDBRANCH   1  12
BRANCH   1  15
ATOM     15  N1  UNL     1     142.493 128.952 102.210  0.00  0.00    -0.320 N 
ATOM     16  H22 UNL     1     142.563 128.747 103.201  0.00  0.00    +0.148 HD
BRANCH  15  17
ATOM     17  C13 UNL     1     143.562 129.780 101.862  0.00  0.00    +0.135 C 
ATOM     18  S1  UNL     1     145.187 129.411 101.972  0.00  0.00    -0.019 S 
BRANCH  17  19
ATOM     19  N2  UNL     1     143.020 130.953 101.334  0.00  0.00    -0.297 N 
ATOM     20  H23 UNL     1     142.449 131.446 102.008  0.00  0.00    +0.154 HD
BRANCH  19  21
ATOM     21  C14 UNL     1     142.939 131.449 100.015  0.00  0.00    +0.033 A 
ATOM     22  C15 UNL     1     143.291 130.564  98.985  0.00  0.00    +0.023 A 
ATOM     23  C16 UNL     1     143.217 130.956  97.646  0.00  0.00    +0.002 A 
ATOM     24  C17 UNL     1     142.775 132.233  97.319  0.00  0.00    +0.000 A 
ATOM     25  C18 UNL     1     142.398 133.112  98.331  0.00  0.00    +0.002 A 
ATOM     26  C19 UNL     1     142.473 132.717  99.672  0.00  0.00    +0.023 A 
ENDBRANCH  19  21
ENDBRANCH  17  19
ENDBRANCH  15  17
ENDBRANCH   1  15
TORSDOF 6
ENDMDL
MODEL 6
REMARK VINA RESULT:    -4.294      1.826      3.818
REMARK INTER + INTRA:          -7.593
REMARK INTER:                  -5.494
REMARK INTRA:                  -2.100
REMARK UNBOUND:                -1.919
REMARK  Name = /home/vital/Documents/PhD_2021/Malaria_codes/data/pdb_ligands_mmv/ligand_253.pdb
REMARK  6 active torsions:
REMARK  status: ('A' for Active; 'I' for Inactive)
REMARK    1  A    between atoms: O1_1  and  C1_2
REMARK    2  A    between atoms: C6_7  and  C7_8
REMARK    3  A    between atoms: C7_8  and  N1_14
REMARK    4  A    between atoms: N1_14  and  C13_15
REMARK    5  A    between atoms: C13_15  and  N2_17
REMARK    6  A    between atoms: N2_17  and  C14_18
REMARK                            x       y       z     vdW  Elec       q    Type
REMARK                         _______ _______ _______ _____ _____    ______ ____
ROOT
ATOM      1  C7  UNL     1     142.517 126.961 101.107  0.00  0.00    +0.039 C 
ATOM      2  C8  UNL     1     143.717 126.766 100.101  0.00  0.00    +0.026 C 
ATOM      3  C9  UNL     1     144.672 125.607 100.416  0.00  0.00    +0.002 C 
ATOM      4  C10 UNL     1     144.639 125.171 101.869  0.00  0.00    +0.000 C 
ATOM      5  C11 UNL     1     143.231 124.770 102.301  0.00  0.00    +0.002 C 
ATOM      6  C12 UNL     1     142.120 125.531 101.562  0.00  0.00    +0.026 C 
ENDROOT
BRANCH   1  12
ATOM      7  C1  UNL     1     140.028 127.959 101.004  0.00  0.00    +0.120 C 
ATOM      8  C2  UNL     1     138.993 128.675 100.127  0.00  0.00    +0.032 C 
ATOM      9  C3  UNL     1     138.801 128.009  98.776  0.00  0.00    +0.003 C 
ATOM     10  C4  UNL     1     140.131 127.885  98.050  0.00  0.00    +0.001 C 
ATOM     11  C5  UNL     1     141.138 127.106  98.890  0.00  0.00    +0.008 C 
ATOM     12  C6  UNL     1     141.379 127.732 100.284  0.00  0.00    +0.041 C 
BRANCH   7  13
ATOM     13  O1  UNL     1     140.227 128.807 102.138  0.00  0.00    -0.391 OA
ATOM     14  H1  UNL     1     140.716 128.284 102.798  0.00  0.00    +0.210 HD
ENDBRANCH   7  13
ENDBRANCH   1  12
BRANCH   1  15
ATOM     15  N1  UNL     1     143.067 127.801 102.220  0.00  0.00    -0.320 N 
ATOM     16  H22 UNL     1     143.204 127.229 103.046  0.00  0.00    +0.148 HD
BRANCH  15  17
ATOM     17  C13 UNL     1     143.972 128.863 102.274  0.00  0.00    +0.135 C 
ATOM     18  S1  UNL     1     145.626 128.756 102.472  0.00  0.00    -0.019 S 
BRANCH  17  19
ATOM     19  N2  UNL     1     143.245 130.035 102.056  0.00  0.00    -0.297 N 
ATOM     20  H23 UNL     1     142.792 130.365 102.898  0.00  0.00    +0.154 HD
BRANCH  19  21
ATOM     21  C14 UNL     1     142.854 130.701 100.875  0.00  0.00    +0.033 A 
ATOM     22  C15 UNL     1     143.722 130.604  99.777  0.00  0.00    +0.023 A 
ATOM     23  C16 UNL     1     143.408 131.208  98.558  0.00  0.00    +0.002 A 
ATOM     24  C17 UNL     1     142.212 131.903  98.415  0.00  0.00    +0.000 A 
ATOM     25  C18 UNL     1     141.330 131.985  99.488  0.00  0.00    +0.002 A 
ATOM     26  C19 UNL     1     141.647 131.380 100.710  0.00  0.00    +0.023 A 
ENDBRANCH  19  21
ENDBRANCH  17  19
ENDBRANCH  15  17
ENDBRANCH   1  15
TORSDOF 6
ENDMDL
MODEL 7
REMARK VINA RESULT:    -4.284      2.506      4.973
REMARK INTER + INTRA:          -7.580
REMARK INTER:                  -5.973
REMARK INTRA:                  -1.607
REMARK UNBOUND:                -1.919
REMARK  Name = /home/vital/Documents/PhD_2021/Malaria_codes/data/pdb_ligands_mmv/ligand_253.pdb
REMARK  6 active torsions:
REMARK  status: ('A' for Active; 'I' for Inactive)
REMARK    1  A    between atoms: O1_1  and  C1_2
REMARK    2  A    between atoms: C6_7  and  C7_8
REMARK    3  A    between atoms: C7_8  and  N1_14
REMARK    4  A    between atoms: N1_14  and  C13_15
REMARK    5  A    between atoms: C13_15  and  N2_17
REMARK    6  A    between atoms: N2_17  and  C14_18
REMARK                            x       y       z     vdW  Elec       q    Type
REMARK                         _______ _______ _______ _____ _____    ______ ____
ROOT
ATOM      1  C7  UNL     1     141.928 130.300  99.227  0.00  0.00    +0.039 C 
ATOM      2  C8  UNL     1     141.105 131.572  99.667  0.00  0.00    +0.026 C 
ATOM      3  C9  UNL     1     141.715 132.928  99.287  0.00  0.00    +0.002 C 
ATOM      4  C10 UNL     1     143.210 132.870  99.031  0.00  0.00    +0.000 C 
ATOM      5  C11 UNL     1     143.551 131.861  97.939  0.00  0.00    +0.002 C 
ATOM      6  C12 UNL     1     142.578 130.675  97.869  0.00  0.00    +0.026 C 
ENDROOT
BRANCH   1  12
ATOM      7  C1  UNL     1     141.092 128.046  98.036  0.00  0.00    +0.120 C 
ATOM      8  C2  UNL     1     140.009 126.959  98.015  0.00  0.00    +0.032 C 
ATOM      9  C3  UNL     1     138.602 127.526  97.969  0.00  0.00    +0.003 C 
ATOM     10  C4  UNL     1     138.378 128.488  99.124  0.00  0.00    +0.001 C 
ATOM     11  C5  UNL     1     139.408 129.614  99.101  0.00  0.00    +0.008 C 
ATOM     12  C6  UNL     1     140.867 129.102  99.144  0.00  0.00    +0.041 C 
BRANCH   7  13
ATOM     13  O1  UNL     1     142.324 127.360  98.272  0.00  0.00    -0.391 OA
ATOM     14  H1  UNL     1     142.763 127.817  99.012  0.00  0.00    +0.210 HD
ENDBRANCH   7  13
ENDBRANCH   1  12
BRANCH   1  15
ATOM     15  N1  UNL     1     142.931 130.082 100.320  0.00  0.00    -0.320 N 
ATOM     16  H22 UNL     1     142.462 130.077 101.220  0.00  0.00    +0.148 HD
BRANCH  15  17
ATOM     17  C13 UNL     1     144.089 129.309 100.431  0.00  0.00    +0.135 C 
ATOM     18  S1  UNL     1     145.664 129.845 100.292  0.00  0.00    -0.019 S 
BRANCH  17  19
ATOM     19  N2  UNL     1     143.688 128.011 100.755  0.00  0.00    -0.297 N 
ATOM     20  H23 UNL     1     143.820 127.368  99.985  0.00  0.00    +0.154 HD
BRANCH  19  21
ATOM     21  C14 UNL     1     142.951 127.491 101.840  0.00  0.00    +0.033 A 
ATOM     22  C15 UNL     1     143.345 127.896 103.124  0.00  0.00    +0.023 A 
ATOM     23  C16 UNL     1     142.659 127.455 104.258  0.00  0.00    +0.002 A 
ATOM     24  C17 UNL     1     141.559 126.615 104.122  0.00  0.00    +0.000 A 
ATOM     25  C18 UNL     1     141.143 126.226 102.852  0.00  0.00    +0.002 A 
ATOM     26  C19 UNL     1     141.832 126.669 101.716  0.00  0.00    +0.023 A 
ENDBRANCH  19  21
ENDBRANCH  17  19
ENDBRANCH  15  17
ENDBRANCH   1  15
TORSDOF 6
ENDMDL
MODEL 8
REMARK VINA RESULT:    -4.111      2.309      4.037
REMARK INTER + INTRA:          -7.352
REMARK INTER:                  -5.588
REMARK INTRA:                  -1.763
REMARK UNBOUND:                -1.919
REMARK  Name = /home/vital/Documents/PhD_2021/Malaria_codes/data/pdb_ligands_mmv/ligand_253.pdb
REMARK  6 active torsions:
REMARK  status: ('A' for Active; 'I' for Inactive)
REMARK    1  A    between atoms: O1_1  and  C1_2
REMARK    2  A    between atoms: C6_7  and  C7_8
REMARK    3  A    between atoms: C7_8  and  N1_14
REMARK    4  A    between atoms: N1_14  and  C13_15
REMARK    5  A    between atoms: C13_15  and  N2_17
REMARK    6  A    between atoms: N2_17  and  C14_18
REMARK                            x       y       z     vdW  Elec       q    Type
REMARK                         _______ _______ _______ _____ _____    ______ ____
ROOT
ATOM      1  C7  UNL     1     143.707 127.912 102.163  0.00  0.00    +0.039 C 
ATOM      2  C8  UNL     1     144.153 127.774 100.655  0.00  0.00    +0.026 C 
ATOM      3  C9  UNL     1     145.493 128.429 100.292  0.00  0.00    +0.002 C 
ATOM      4  C10 UNL     1     145.916 129.520 101.257  0.00  0.00    +0.000 C 
ATOM      5  C11 UNL     1     146.004 128.998 102.688  0.00  0.00    +0.002 C 
ATOM      6  C12 UNL     1     145.018 127.859 102.990  0.00  0.00    +0.026 C 
ENDROOT
BRANCH   1  12
ATOM      7  C1  UNL     1     142.116 126.575 103.859  0.00  0.00    +0.120 C 
ATOM      8  C2  UNL     1     141.195 125.359 104.031  0.00  0.00    +0.032 C 
ATOM      9  C3  UNL     1     141.841 124.060 103.585  0.00  0.00    +0.003 C 
ATOM     10  C4  UNL     1     142.325 124.173 102.149  0.00  0.00    +0.001 C 
ATOM     11  C5  UNL     1     143.302 125.334 101.993  0.00  0.00    +0.008 C 
ATOM     12  C6  UNL     1     142.704 126.692 102.434  0.00  0.00    +0.041 C 
BRANCH   7  13
ATOM     13  O1  UNL     1     141.303 127.718 104.137  0.00  0.00    -0.391 OA
ATOM     14  H1  UNL     1     141.689 128.154 104.917  0.00  0.00    +0.210 HD
ENDBRANCH   7  13
ENDBRANCH   1  12
BRANCH   1  15
ATOM     15  N1  UNL     1     143.009 129.236 102.248  0.00  0.00    -0.320 N 
ATOM     16  H22 UNL     1     143.597 129.903 102.737  0.00  0.00    +0.148 HD
BRANCH  15  17
ATOM     17  C13 UNL     1     142.176 129.948 101.383  0.00  0.00    +0.135 C 
ATOM     18  S1  UNL     1     142.590 131.284 100.471  0.00  0.00    -0.019 S 
BRANCH  17  19
ATOM     19  N2  UNL     1     140.944 129.291 101.363  0.00  0.00    -0.297 N 
ATOM     20  H23 UNL     1     140.571 129.152 102.294  0.00  0.00    +0.154 HD
BRANCH  19  21
ATOM     21  C14 UNL     1     140.251 128.609 100.341  0.00  0.00    +0.033 A 
ATOM     22  C15 UNL     1     138.914 128.978 100.128  0.00  0.00    +0.023 A 
ATOM     23  C16 UNL     1     138.155 128.377  99.121  0.00  0.00    +0.002 A 
ATOM     24  C17 UNL     1     138.729 127.411  98.301  0.00  0.00    +0.000 A 
ATOM     25  C18 UNL     1     140.062 127.054  98.485  0.00  0.00    +0.002 A 
ATOM     26  C19 UNL     1     140.821 127.657  99.496  0.00  0.00    +0.023 A 
ENDBRANCH  19  21
ENDBRANCH  17  19
ENDBRANCH  15  17
ENDBRANCH   1  15
TORSDOF 6
ENDMDL
MODEL 9
REMARK VINA RESULT:    -3.906      2.527      4.668
REMARK INTER + INTRA:          -7.081
REMARK INTER:                  -5.654
REMARK INTRA:                  -1.427
REMARK UNBOUND:                -1.919
REMARK  Name = /home/vital/Documents/PhD_2021/Malaria_codes/data/pdb_ligands_mmv/ligand_253.pdb
REMARK  6 active torsions:
REMARK  status: ('A' for Active; 'I' for Inactive)
REMARK    1  A    between atoms: O1_1  and  C1_2
REMARK    2  A    between atoms: C6_7  and  C7_8
REMARK    3  A    between atoms: C7_8  and  N1_14
REMARK    4  A    between atoms: N1_14  and  C13_15
REMARK    5  A    between atoms: C13_15  and  N2_17
REMARK    6  A    between atoms: N2_17  and  C14_18
REMARK                            x       y       z     vdW  Elec       q    Type
REMARK                         _______ _______ _______ _____ _____    ______ ____
ROOT
ATOM      1  C7  UNL     1     142.061 127.479 101.059  0.00  0.00    +0.039 C 
ATOM      2  C8  UNL     1     142.211 126.114 101.835  0.00  0.00    +0.026 C 
ATOM      3  C9  UNL     1     143.186 126.122 103.021  0.00  0.00    +0.002 C 
ATOM      4  C10 UNL     1     144.217 127.233 102.951  0.00  0.00    +0.000 C 
ATOM      5  C11 UNL     1     143.556 128.605 102.856  0.00  0.00    +0.002 C 
ATOM      6  C12 UNL     1     142.199 128.587 102.136  0.00  0.00    +0.026 C 
ENDROOT
BRANCH   1  12
ATOM      7  C1  UNL     1     140.612 127.272  98.810  0.00  0.00    +0.120 C 
ATOM      8  C2  UNL     1     139.196 127.259  98.220  0.00  0.00    +0.032 C 
ATOM      9  C3  UNL     1     138.356 128.439  98.673  0.00  0.00    +0.003 C 
ATOM     10  C4  UNL     1     138.308 128.506 100.191  0.00  0.00    +0.001 C 
ATOM     11  C5  UNL     1     139.714 128.597 100.776  0.00  0.00    +0.008 C 
ATOM     12  C6  UNL     1     140.625 127.422 100.350  0.00  0.00    +0.041 C 
BRANCH   7  13
ATOM     13  O1  UNL     1     141.194 126.017  98.447  0.00  0.00    -0.391 OA
ATOM     14  H1  UNL     1     141.148 125.957  97.476  0.00  0.00    +0.210 HD
ENDBRANCH   7  13
ENDBRANCH   1  12
BRANCH   1  15
ATOM     15  N1  UNL     1     143.177 127.488 100.059  0.00  0.00    -0.320 N 
ATOM     16  H22 UNL     1     142.978 126.825  99.316  0.00  0.00    +0.148 HD
BRANCH  15  17
ATOM     17  C13 UNL     1     144.001 128.488  99.536  0.00  0.00    +0.135 C 
ATOM     18  S1  UNL     1     145.650 128.635  99.750  0.00  0.00    -0.019 S 
BRANCH  17  19
ATOM     19  N2  UNL     1     143.199 129.305  98.737  0.00  0.00    -0.297 N 
ATOM     20  H23 UNL     1     142.971 128.869  97.853  0.00  0.00    +0.154 HD
BRANCH  19  21
ATOM     21  C14 UNL     1     142.845 130.668  98.832  0.00  0.00    +0.033 A 
ATOM     22  C15 UNL     1     141.513 130.952  99.170  0.00  0.00    +0.023 A 
ATOM     23  C16 UNL     1     141.075 132.271  99.314  0.00  0.00    +0.002 A 
ATOM     24  C17 UNL     1     141.968 133.323  99.139  0.00  0.00    +0.000 A 
ATOM     25  C18 UNL     1     143.297 133.053  98.829  0.00  0.00    +0.002 A 
ATOM     26  C19 UNL     1     143.735 131.731  98.684  0.00  0.00    +0.023 A 
ENDBRANCH  19  21
ENDBRANCH  17  19
ENDBRANCH  15  17
ENDBRANCH   1  15
TORSDOF 6
ENDMDL
