MODEL 1
REMARK VINA RESULT:    -4.189      0.000      0.000
REMARK INTER + INTRA:          -8.464
REMARK INTER:                  -6.270
REMARK INTRA:                  -2.194
REMARK UNBOUND:                -2.194
REMARK  Name = /home/vital/Documents/PhD_2021/Malaria_codes/data/pdb_ligands_mmv/ligand_138.pdb
REMARK  12 active torsions:
REMARK  status: ('A' for Active; 'I' for Inactive)
REMARK    1  A    between atoms: C1_1  and  C2_2
REMARK    2  A    between atoms: C2_2  and  O1_3
REMARK    3  A    between atoms: O1_3  and  C3_4
REMARK    4  A    between atoms: C6_8  and  C7_9
REMARK    5  A    between atoms: C7_9  and  N1_10
REMARK    6  A    between atoms: N1_10  and  C8_11
REMARK    7  A    between atoms: C8_11  and  C9_12
REMARK    8  A    between atoms: C8_11  and  C10_13
REMARK    9  A    between atoms: C10_13  and  O2_14
REMARK   10  A    between atoms: C10_13  and  C11_15
REMARK   11  A    between atoms: C18_22  and  O3_23
REMARK   12  A    between atoms: O3_23  and  C19_24
REMARK                            x       y       z     vdW  Elec       q    Type
REMARK                         _______ _______ _______ _____ _____    ______ ____
ROOT
ATOM      1  C7  UNL     1     144.460 128.042 101.196  0.00  0.00    +0.116 C 
ENDROOT
BRANCH   1   6
ATOM      2  C3  UNL     1     140.917 128.898  98.885  0.00  0.00    +0.180 A 
ATOM      3  C4  UNL     1     140.855 128.872 100.283  0.00  0.00    +0.086 A 
ATOM      4 CL1  UNL     1     139.387 129.203 101.131  0.00  0.00    -0.080 Cl
ATOM      5  C5  UNL     1     141.999 128.589 101.031  0.00  0.00    +0.028 A 
ATOM      6  C6  UNL     1     143.215 128.320 100.389  0.00  0.00    -0.029 A 
ATOM      7  C17 UNL     1     143.263 128.324  98.983  0.00  0.00    +0.054 A 
ATOM      8  C18 UNL     1     142.118 128.596  98.223  0.00  0.00    +0.163 A 
BRANCH   8   9
ATOM      9  O3  UNL     1     142.078 128.605  96.853  0.00  0.00    -0.491 OA
ATOM     10  C19 UNL     1     142.536 127.442  96.176  0.00  0.00    +0.277 C 
ENDBRANCH   8   9
BRANCH   2  11
ATOM     11  O1  UNL     1     139.770 129.141  98.166  0.00  0.00    -0.487 OA
BRANCH  11  13
ATOM     12  C1  UNL     1     137.664 128.023  98.257  0.00  0.00    +0.048 C 
ATOM     13  C2  UNL     1     139.116 127.912  97.830  0.00  0.00    +0.226 C 
ENDBRANCH  11  13
ENDBRANCH   2  11
ENDBRANCH   1   6
BRANCH   1  14
ATOM     14  N1  UNL     1     144.887 129.168 102.025  0.00  0.00    -0.307 NA
ATOM     15  H9  UNL     1     145.555 128.839 102.720  0.00  0.00    +0.123 HD
BRANCH  14  16
ATOM     16  C8  UNL     1     145.467 130.310 101.289  0.00  0.00    +0.084 C 
ATOM     17  C9  UNL     1     146.856 130.604 101.881  0.00  0.00    +0.027 C 
BRANCH  16  18
ATOM     18  C10 UNL     1     144.589 131.606 101.216  0.00  0.00    +0.161 C 
BRANCH  18  19
ATOM     19  C11 UNL     1     143.899 131.850  99.883  0.00  0.00    -0.018 A 
ATOM     20  C12 UNL     1     142.544 132.214  99.808  0.00  0.00    +0.006 A 
ATOM     21  C13 UNL     1     141.927 132.430  98.574  0.00  0.00    +0.000 A 
ATOM     22  C14 UNL     1     142.654 132.286  97.396  0.00  0.00    +0.000 A 
ATOM     23  C15 UNL     1     143.998 131.924  97.450  0.00  0.00    +0.000 A 
ATOM     24  C16 UNL     1     144.615 131.709  98.684  0.00  0.00    +0.006 A 
ENDBRANCH  18  19
BRANCH  18  25
ATOM     25  O2  UNL     1     143.618 131.574 102.273  0.00  0.00    -0.386 OA
ATOM     26  H15 UNL     1     144.032 131.982 103.052  0.00  0.00    +0.210 HD
ENDBRANCH  18  25
ENDBRANCH  16  18
ENDBRANCH  14  16
ENDBRANCH   1  14
TORSDOF 9
ENDMDL
MODEL 2
REMARK VINA RESULT:    -3.996      2.232      4.335
REMARK INTER + INTRA:          -8.176
REMARK INTER:                  -5.893
REMARK INTRA:                  -2.283
REMARK UNBOUND:                -2.194
REMARK  Name = /home/vital/Documents/PhD_2021/Malaria_codes/data/pdb_ligands_mmv/ligand_138.pdb
REMARK  12 active torsions:
REMARK  status: ('A' for Active; 'I' for Inactive)
REMARK    1  A    between atoms: C1_1  and  C2_2
REMARK    2  A    between atoms: C2_2  and  O1_3
REMARK    3  A    between atoms: O1_3  and  C3_4
REMARK    4  A    between atoms: C6_8  and  C7_9
REMARK    5  A    between atoms: C7_9  and  N1_10
REMARK    6  A    between atoms: N1_10  and  C8_11
REMARK    7  A    between atoms: C8_11  and  C9_12
REMARK    8  A    between atoms: C8_11  and  C10_13
REMARK    9  A    between atoms: C10_13  and  O2_14
REMARK   10  A    between atoms: C10_13  and  C11_15
REMARK   11  A    between atoms: C18_22  and  O3_23
REMARK   12  A    between atoms: O3_23  and  C19_24
REMARK                            x       y       z     vdW  Elec       q    Type
REMARK                         _______ _______ _______ _____ _____    ______ ____
ROOT
ATOM      1  C7  UNL     1     144.011 129.243 102.168  0.00  0.00    +0.116 C 
ENDROOT
BRANCH   1   6
ATOM      2  C3  UNL     1     142.754 130.672  98.294  0.00  0.00    +0.180 A 
ATOM      3  C4  UNL     1     142.381 131.362  99.453  0.00  0.00    +0.086 A 
ATOM      4 CL1  UNL     1     141.439 132.807  99.382  0.00  0.00    -0.080 Cl
ATOM      5  C5  UNL     1     142.781 130.897 100.706  0.00  0.00    +0.028 A 
ATOM      6  C6  UNL     1     143.553 129.732 100.815  0.00  0.00    -0.029 A 
ATOM      7  C17 UNL     1     143.903 129.031  99.647  0.00  0.00    +0.054 A 
ATOM      8  C18 UNL     1     143.497 129.484  98.385  0.00  0.00    +0.163 A 
BRANCH   8   9
ATOM      9  O3  UNL     1     143.785 128.852  97.204  0.00  0.00    -0.491 OA
ATOM     10  C19 UNL     1     143.135 127.615  96.946  0.00  0.00    +0.277 C 
ENDBRANCH   8   9
BRANCH   2  11
ATOM     11  O1  UNL     1     142.318 131.126  97.072  0.00  0.00    -0.487 OA
BRANCH  11  13
ATOM     12  C1  UNL     1     143.416 131.798  95.063  0.00  0.00    +0.048 C 
ATOM     13  C2  UNL     1     143.229 132.094  96.540  0.00  0.00    +0.226 C 
ENDBRANCH  11  13
ENDBRANCH   2  11
ENDBRANCH   1   6
BRANCH   1  14
ATOM     14  N1  UNL     1     143.552 127.893 102.491  0.00  0.00    -0.307 NA
ATOM     15  H9  UNL     1     144.133 127.510 103.235  0.00  0.00    +0.123 HD
BRANCH  14  16
ATOM     16  C8  UNL     1     142.129 127.785 102.876  0.00  0.00    +0.084 C 
ATOM     17  C9  UNL     1     142.062 127.206 104.299  0.00  0.00    +0.027 C 
BRANCH  16  18
ATOM     18  C10 UNL     1     141.203 126.995 101.890  0.00  0.00    +0.161 C 
BRANCH  18  19
ATOM     19  C11 UNL     1     140.474 127.844 100.860  0.00  0.00    -0.018 A 
ATOM     20  C12 UNL     1     139.810 129.029 101.216  0.00  0.00    +0.006 A 
ATOM     21  C13 UNL     1     139.143 129.794 100.255  0.00  0.00    +0.000 A 
ATOM     22  C14 UNL     1     139.129 129.384  98.925  0.00  0.00    +0.000 A 
ATOM     23  C15 UNL     1     139.781 128.212  98.554  0.00  0.00    +0.000 A 
ATOM     24  C16 UNL     1     140.449 127.448  99.514  0.00  0.00    +0.006 A 
ENDBRANCH  18  19
BRANCH  18  25
ATOM     25  O2  UNL     1     141.976 125.980 101.232  0.00  0.00    -0.386 OA
ATOM     26  H15 UNL     1     142.561 126.433 100.601  0.00  0.00    +0.210 HD
ENDBRANCH  18  25
ENDBRANCH  16  18
ENDBRANCH  14  16
ENDBRANCH   1  14
TORSDOF 9
ENDMDL
MODEL 3
REMARK VINA RESULT:    -3.897      1.788      3.628
REMARK INTER + INTRA:          -8.027
REMARK INTER:                  -5.822
REMARK INTRA:                  -2.205
REMARK UNBOUND:                -2.194
REMARK  Name = /home/vital/Documents/PhD_2021/Malaria_codes/data/pdb_ligands_mmv/ligand_138.pdb
REMARK  12 active torsions:
REMARK  status: ('A' for Active; 'I' for Inactive)
REMARK    1  A    between atoms: C1_1  and  C2_2
REMARK    2  A    between atoms: C2_2  and  O1_3
REMARK    3  A    between atoms: O1_3  and  C3_4
REMARK    4  A    between atoms: C6_8  and  C7_9
REMARK    5  A    between atoms: C7_9  and  N1_10
REMARK    6  A    between atoms: N1_10  and  C8_11
REMARK    7  A    between atoms: C8_11  and  C9_12
REMARK    8  A    between atoms: C8_11  and  C10_13
REMARK    9  A    between atoms: C10_13  and  O2_14
REMARK   10  A    between atoms: C10_13  and  C11_15
REMARK   11  A    between atoms: C18_22  and  O3_23
REMARK   12  A    between atoms: O3_23  and  C19_24
REMARK                            x       y       z     vdW  Elec       q    Type
REMARK                         _______ _______ _______ _____ _____    ______ ____
ROOT
ATOM      1  C7  UNL     1     144.330 131.347 101.233  0.00  0.00    +0.116 C 
ENDROOT
BRANCH   1   6
ATOM      2  C3  UNL     1     140.829 129.987  99.106  0.00  0.00    +0.180 A 
ATOM      3  C4  UNL     1     140.733 130.363 100.451  0.00  0.00    +0.086 A 
ATOM      4 CL1  UNL     1     139.227 130.325 101.296  0.00  0.00    -0.080 Cl
ATOM      5  C5  UNL     1     141.866 130.796 101.141  0.00  0.00    +0.028 A 
ATOM      6  C6  UNL     1     143.109 130.851 100.496  0.00  0.00    -0.029 A 
ATOM      7  C17 UNL     1     143.201 130.448  99.152  0.00  0.00    +0.054 A 
ATOM      8  C18 UNL     1     142.072 130.002  98.453  0.00  0.00    +0.163 A 
BRANCH   8   9
ATOM      9  O3  UNL     1     142.081 129.580  97.150  0.00  0.00    -0.491 OA
ATOM     10  C19 UNL     1     142.650 128.307  96.875  0.00  0.00    +0.277 C 
ENDBRANCH   8   9
BRANCH   2  11
ATOM     11  O1  UNL     1     139.708 129.527  98.456  0.00  0.00    -0.487 OA
BRANCH  11  13
ATOM     12  C1  UNL     1     138.204 127.718  98.061  0.00  0.00    +0.048 C 
ATOM     13  C2  UNL     1     139.490 128.142  98.747  0.00  0.00    +0.226 C 
ENDBRANCH  11  13
ENDBRANCH   2  11
ENDBRANCH   1   6
BRANCH   1  14
ATOM     14  N1  UNL     1     145.519 130.524 101.019  0.00  0.00    -0.307 NA
ATOM     15  H9  UNL     1     146.342 131.125 100.989  0.00  0.00    +0.123 HD
BRANCH  14  16
ATOM     16  C8  UNL     1     145.732 129.452 102.014  0.00  0.00    +0.084 C 
ATOM     17  C9  UNL     1     147.203 129.501 102.461  0.00  0.00    +0.027 C 
BRANCH  16  18
ATOM     18  C10 UNL     1     145.313 128.007 101.575  0.00  0.00    +0.161 C 
BRANCH  18  19
ATOM     19  C11 UNL     1     143.859 127.646 101.829  0.00  0.00    -0.018 A 
ATOM     20  C12 UNL     1     143.049 127.090 100.825  0.00  0.00    +0.006 A 
ATOM     21  C13 UNL     1     141.713 126.768 101.077  0.00  0.00    +0.000 A 
ATOM     22  C14 UNL     1     141.166 126.997 102.336  0.00  0.00    +0.000 A 
ATOM     23  C15 UNL     1     141.953 127.548 103.344  0.00  0.00    +0.000 A 
ATOM     24  C16 UNL     1     143.288 127.869 103.092  0.00  0.00    +0.006 A 
ENDBRANCH  18  19
BRANCH  18  25
ATOM     25  O2  UNL     1     145.628 127.830 100.186  0.00  0.00    -0.386 OA
ATOM     26  H15 UNL     1     145.432 126.903  99.965  0.00  0.00    +0.210 HD
ENDBRANCH  18  25
ENDBRANCH  16  18
ENDBRANCH  14  16
ENDBRANCH   1  14
TORSDOF 9
ENDMDL
MODEL 4
REMARK VINA RESULT:    -3.834      2.255      3.460
REMARK INTER + INTRA:          -7.933
REMARK INTER:                  -5.707
REMARK INTRA:                  -2.226
REMARK UNBOUND:                -2.194
REMARK  Name = /home/vital/Documents/PhD_2021/Malaria_codes/data/pdb_ligands_mmv/ligand_138.pdb
REMARK  12 active torsions:
REMARK  status: ('A' for Active; 'I' for Inactive)
REMARK    1  A    between atoms: C1_1  and  C2_2
REMARK    2  A    between atoms: C2_2  and  O1_3
REMARK    3  A    between atoms: O1_3  and  C3_4
REMARK    4  A    between atoms: C6_8  and  C7_9
REMARK    5  A    between atoms: C7_9  and  N1_10
REMARK    6  A    between atoms: N1_10  and  C8_11
REMARK    7  A    between atoms: C8_11  and  C9_12
REMARK    8  A    between atoms: C8_11  and  C10_13
REMARK    9  A    between atoms: C10_13  and  O2_14
REMARK   10  A    between atoms: C10_13  and  C11_15
REMARK   11  A    between atoms: C18_22  and  O3_23
REMARK   12  A    between atoms: O3_23  and  C19_24
REMARK                            x       y       z     vdW  Elec       q    Type
REMARK                         _______ _______ _______ _____ _____    ______ ____
ROOT
ATOM      1  C7  UNL     1     144.419 129.323  98.101  0.00  0.00    +0.116 C 
ENDROOT
BRANCH   1   6
ATOM      2  C3  UNL     1     140.995 126.694  98.090  0.00  0.00    +0.180 A 
ATOM      3  C4  UNL     1     141.929 126.630  99.131  0.00  0.00    +0.086 A 
ATOM      4 CL1  UNL     1     141.739 125.530 100.449  0.00  0.00    -0.080 Cl
ATOM      5  C5  UNL     1     143.039 127.474  99.131  0.00  0.00    +0.028 A 
ATOM      6  C6  UNL     1     143.233 128.388  98.087  0.00  0.00    -0.029 A 
ATOM      7  C17 UNL     1     142.304 128.430  97.032  0.00  0.00    +0.054 A 
ATOM      8  C18 UNL     1     141.192 127.579  97.017  0.00  0.00    +0.163 A 
BRANCH   8   9
ATOM      9  O3  UNL     1     140.251 127.548  96.021  0.00  0.00    -0.491 OA
ATOM     10  C19 UNL     1     140.695 127.236  94.707  0.00  0.00    +0.277 C 
ENDBRANCH   8   9
BRANCH   2  11
ATOM     11  O1  UNL     1     139.929 125.827  98.088  0.00  0.00    -0.487 OA
BRANCH  11  13
ATOM     12  C1  UNL     1     139.641 123.462  98.215  0.00  0.00    +0.048 C 
ATOM     13  C2  UNL     1     140.279 124.600  97.439  0.00  0.00    +0.226 C 
ENDBRANCH  11  13
ENDBRANCH   2  11
ENDBRANCH   1   6
BRANCH   1  14
ATOM     14  N1  UNL     1     144.436 130.234  99.244  0.00  0.00    -0.307 NA
ATOM     15  H9  UNL     1     145.395 130.528  99.424  0.00  0.00    +0.123 HD
BRANCH  14  16
ATOM     16  C8  UNL     1     143.573 131.426  99.116  0.00  0.00    +0.084 C 
ATOM     17  C9  UNL     1     144.479 132.655  98.933  0.00  0.00    +0.027 C 
BRANCH  16  18
ATOM     18  C10 UNL     1     142.526 131.651 100.260  0.00  0.00    +0.161 C 
BRANCH  18  19
ATOM     19  C11 UNL     1     141.339 130.701 100.251  0.00  0.00    -0.018 A 
ATOM     20  C12 UNL     1     140.344 130.770  99.262  0.00  0.00    +0.006 A 
ATOM     21  C13 UNL     1     139.259 129.890  99.274  0.00  0.00    +0.000 A 
ATOM     22  C14 UNL     1     139.151 128.929 100.275  0.00  0.00    +0.000 A 
ATOM     23  C15 UNL     1     140.127 128.846 101.264  0.00  0.00    +0.000 A 
ATOM     24  C16 UNL     1     141.212 129.725 101.252  0.00  0.00    +0.006 A 
ENDBRANCH  18  19
BRANCH  18  25
ATOM     25  O2  UNL     1     143.197 131.588 101.527  0.00  0.00    -0.386 OA
ATOM     26  H15 UNL     1     142.661 131.019 102.106  0.00  0.00    +0.210 HD
ENDBRANCH  18  25
ENDBRANCH  16  18
ENDBRANCH  14  16
ENDBRANCH   1  14
TORSDOF 9
ENDMDL
MODEL 5
REMARK VINA RESULT:    -3.807      6.535      8.217
REMARK INTER + INTRA:          -7.892
REMARK INTER:                  -7.079
REMARK INTRA:                  -0.814
REMARK UNBOUND:                -2.194
REMARK  Name = /home/vital/Documents/PhD_2021/Malaria_codes/data/pdb_ligands_mmv/ligand_138.pdb
REMARK  12 active torsions:
REMARK  status: ('A' for Active; 'I' for Inactive)
REMARK    1  A    between atoms: C1_1  and  C2_2
REMARK    2  A    between atoms: C2_2  and  O1_3
REMARK    3  A    between atoms: O1_3  and  C3_4
REMARK    4  A    between atoms: C6_8  and  C7_9
REMARK    5  A    between atoms: C7_9  and  N1_10
REMARK    6  A    between atoms: N1_10  and  C8_11
REMARK    7  A    between atoms: C8_11  and  C9_12
REMARK    8  A    between atoms: C8_11  and  C10_13
REMARK    9  A    between atoms: C10_13  and  O2_14
REMARK   10  A    between atoms: C10_13  and  C11_15
REMARK   11  A    between atoms: C18_22  and  O3_23
REMARK   12  A    between atoms: O3_23  and  C19_24
REMARK                            x       y       z     vdW  Elec       q    Type
REMARK                         _______ _______ _______ _____ _____    ______ ____
ROOT
ATOM      1  C7  UNL     1     141.348 126.582 104.576  0.00  0.00    +0.116 C 
ENDROOT
BRANCH   1   6
ATOM      2  C3  UNL     1     139.985 123.698 107.484  0.00  0.00    +0.180 A 
ATOM      3  C4  UNL     1     140.874 124.711 107.861  0.00  0.00    +0.086 A 
ATOM      4 CL1  UNL     1     141.433 124.864 109.488  0.00  0.00    -0.080 Cl
ATOM      5  C5  UNL     1     141.320 125.640 106.920  0.00  0.00    +0.028 A 
ATOM      6  C6  UNL     1     140.889 125.561 105.589  0.00  0.00    -0.029 A 
ATOM      7  C17 UNL     1     140.015 124.526 105.213  0.00  0.00    +0.054 A 
ATOM      8  C18 UNL     1     139.569 123.582 106.147  0.00  0.00    +0.163 A 
BRANCH   8   9
ATOM      9  O3  UNL     1     138.731 122.538 105.858  0.00  0.00    -0.491 OA
ATOM     10  C19 UNL     1     137.460 122.851 105.303  0.00  0.00    +0.277 C 
ENDBRANCH   8   9
BRANCH   2  11
ATOM     11  O1  UNL     1     139.587 122.771 108.418  0.00  0.00    -0.487 OA
BRANCH  11  13
ATOM     12  C1  UNL     1     137.448 121.998 109.139  0.00  0.00    +0.048 C 
ATOM     13  C2  UNL     1     138.381 123.193 109.064  0.00  0.00    +0.226 C 
ENDBRANCH  11  13
ENDBRANCH   2  11
ENDBRANCH   1   6
BRANCH   1  14
ATOM     14  N1  UNL     1     140.541 126.604 103.357  0.00  0.00    -0.307 NA
ATOM     15  H9  UNL     1     139.898 127.394 103.395  0.00  0.00    +0.123 HD
BRANCH  14  16
ATOM     16  C8  UNL     1     141.307 126.656 102.094  0.00  0.00    +0.084 C 
ATOM     17  C9  UNL     1     142.794 126.453 102.429  0.00  0.00    +0.027 C 
BRANCH  16  18
ATOM     18  C10 UNL     1     141.087 127.925 101.201  0.00  0.00    +0.161 C 
BRANCH  18  19
ATOM     19  C11 UNL     1     140.101 127.753 100.057  0.00  0.00    -0.018 A 
ATOM     20  C12 UNL     1     140.351 126.871  98.992  0.00  0.00    +0.006 A 
ATOM     21  C13 UNL     1     139.434 126.730  97.948  0.00  0.00    +0.000 A 
ATOM     22  C14 UNL     1     138.254 127.468  97.952  0.00  0.00    +0.000 A 
ATOM     23  C15 UNL     1     137.989 128.347  98.998  0.00  0.00    +0.000 A 
ATOM     24  C16 UNL     1     138.905 128.487 100.043  0.00  0.00    +0.006 A 
ENDBRANCH  18  19
BRANCH  18  25
ATOM     25  O2  UNL     1     140.684 129.021 102.037  0.00  0.00    -0.386 OA
ATOM     26  H15 UNL     1     140.941 128.795 102.947  0.00  0.00    +0.210 HD
ENDBRANCH  18  25
ENDBRANCH  16  18
ENDBRANCH  14  16
ENDBRANCH   1  14
TORSDOF 9
ENDMDL
MODEL 6
REMARK VINA RESULT:    -3.735      2.533      4.804
REMARK INTER + INTRA:          -7.785
REMARK INTER:                  -5.643
REMARK INTRA:                  -2.143
REMARK UNBOUND:                -2.194
REMARK  Name = /home/vital/Documents/PhD_2021/Malaria_codes/data/pdb_ligands_mmv/ligand_138.pdb
REMARK  12 active torsions:
REMARK  status: ('A' for Active; 'I' for Inactive)
REMARK    1  A    between atoms: C1_1  and  C2_2
REMARK    2  A    between atoms: C2_2  and  O1_3
REMARK    3  A    between atoms: O1_3  and  C3_4
REMARK    4  A    between atoms: C6_8  and  C7_9
REMARK    5  A    between atoms: C7_9  and  N1_10
REMARK    6  A    between atoms: N1_10  and  C8_11
REMARK    7  A    between atoms: C8_11  and  C9_12
REMARK    8  A    between atoms: C8_11  and  C10_13
REMARK    9  A    between atoms: C10_13  and  O2_14
REMARK   10  A    between atoms: C10_13  and  C11_15
REMARK   11  A    between atoms: C18_22  and  O3_23
REMARK   12  A    between atoms: O3_23  and  C19_24
REMARK                            x       y       z     vdW  Elec       q    Type
REMARK                         _______ _______ _______ _____ _____    ______ ____
ROOT
ATOM      1  C7  UNL     1     144.037 129.043 101.956  0.00  0.00    +0.116 C 
ENDROOT
BRANCH   1   6
ATOM      2  C3  UNL     1     142.854 130.369  98.023  0.00  0.00    +0.180 A 
ATOM      3  C4  UNL     1     143.682 129.250  98.169  0.00  0.00    +0.086 A 
ATOM      4 CL1  UNL     1     144.236 128.351  96.802  0.00  0.00    -0.080 Cl
ATOM      5  C5  UNL     1     144.071 128.825  99.439  0.00  0.00    +0.028 A 
ATOM      6  C6  UNL     1     143.641 129.519 100.579  0.00  0.00    -0.029 A 
ATOM      7  C17 UNL     1     142.829 130.656 100.423  0.00  0.00    +0.054 A 
ATOM      8  C18 UNL     1     142.442 131.097  99.151  0.00  0.00    +0.163 A 
BRANCH   8   9
ATOM      9  O3  UNL     1     141.666 132.201  98.914  0.00  0.00    -0.491 OA
ATOM     10  C19 UNL     1     142.277 133.477  99.059  0.00  0.00    +0.277 C 
ENDBRANCH   8   9
BRANCH   2  11
ATOM     11  O1  UNL     1     142.514 130.794  96.760  0.00  0.00    -0.487 OA
BRANCH  11  13
ATOM     12  C1  UNL     1     143.638 131.330  94.725  0.00  0.00    +0.048 C 
ATOM     13  C2  UNL     1     143.546 131.621  96.212  0.00  0.00    +0.226 C 
ENDBRANCH  11  13
ENDBRANCH   2  11
ENDBRANCH   1   6
BRANCH   1  14
ATOM     14  N1  UNL     1     143.478 127.740 102.312  0.00  0.00    -0.307 NA
ATOM     15  H9  UNL     1     144.111 127.267 102.954  0.00  0.00    +0.123 HD
BRANCH  14  16
ATOM     16  C8  UNL     1     142.121 127.774 102.897  0.00  0.00    +0.084 C 
ATOM     17  C9  UNL     1     142.214 127.274 104.348  0.00  0.00    +0.027 C 
BRANCH  16  18
ATOM     18  C10 UNL     1     141.004 127.017 102.100  0.00  0.00    +0.161 C 
BRANCH  18  19
ATOM     19  C11 UNL     1     140.383 127.795 100.951  0.00  0.00    -0.018 A 
ATOM     20  C12 UNL     1     139.623 128.956 101.170  0.00  0.00    +0.006 A 
ATOM     21  C13 UNL     1     139.057 129.655 100.101  0.00  0.00    +0.000 A 
ATOM     22  C14 UNL     1     139.242 129.204  98.797  0.00  0.00    +0.000 A 
ATOM     23  C15 UNL     1     139.992 128.055  98.560  0.00  0.00    +0.000 A 
ATOM     24  C16 UNL     1     140.558 127.357  99.629  0.00  0.00    +0.006 A 
ENDBRANCH  18  19
BRANCH  18  25
ATOM     25  O2  UNL     1     141.533 125.771 101.621  0.00  0.00    -0.386 OA
ATOM     26  H15 UNL     1     140.776 125.230 101.339  0.00  0.00    +0.210 HD
ENDBRANCH  18  25
ENDBRANCH  16  18
ENDBRANCH  14  16
ENDBRANCH   1  14
TORSDOF 9
ENDMDL
MODEL 7
REMARK VINA RESULT:    -3.624     14.697     16.940
REMARK INTER + INTRA:          -7.618
REMARK INTER:                  -5.583
REMARK INTRA:                  -2.035
REMARK UNBOUND:                -2.194
REMARK  Name = /home/vital/Documents/PhD_2021/Malaria_codes/data/pdb_ligands_mmv/ligand_138.pdb
REMARK  12 active torsions:
REMARK  status: ('A' for Active; 'I' for Inactive)
REMARK    1  A    between atoms: C1_1  and  C2_2
REMARK    2  A    between atoms: C2_2  and  O1_3
REMARK    3  A    between atoms: O1_3  and  C3_4
REMARK    4  A    between atoms: C6_8  and  C7_9
REMARK    5  A    between atoms: C7_9  and  N1_10
REMARK    6  A    between atoms: N1_10  and  C8_11
REMARK    7  A    between atoms: C8_11  and  C9_12
REMARK    8  A    between atoms: C8_11  and  C10_13
REMARK    9  A    between atoms: C10_13  and  O2_14
REMARK   10  A    between atoms: C10_13  and  C11_15
REMARK   11  A    between atoms: C18_22  and  O3_23
REMARK   12  A    between atoms: O3_23  and  C19_24
REMARK                            x       y       z     vdW  Elec       q    Type
REMARK                         _______ _______ _______ _____ _____    ______ ____
ROOT
ATOM      1  C7  UNL     1     133.546 124.569  90.107  0.00  0.00    +0.116 C 
ENDROOT
BRANCH   1   6
ATOM      2  C3  UNL     1     136.192 123.194  86.987  0.00  0.00    +0.180 A 
ATOM      3  C4  UNL     1     135.682 122.290  87.926  0.00  0.00    +0.086 A 
ATOM      4 CL1  UNL     1     136.063 120.607  87.861  0.00  0.00    -0.080 Cl
ATOM      5  C5  UNL     1     134.832 122.735  88.939  0.00  0.00    +0.028 A 
ATOM      6  C6  UNL     1     134.488 124.090  89.029  0.00  0.00    -0.029 A 
ATOM      7  C17 UNL     1     135.024 124.997  88.096  0.00  0.00    +0.054 A 
ATOM      8  C18 UNL     1     135.887 124.562  87.082  0.00  0.00    +0.163 A 
BRANCH   8   9
ATOM      9  O3  UNL     1     136.461 125.381  86.146  0.00  0.00    -0.491 OA
ATOM     10  C19 UNL     1     136.799 126.702  86.548  0.00  0.00    +0.277 C 
ENDBRANCH   8   9
BRANCH   2  11
ATOM     11  O1  UNL     1     137.058 122.741  86.020  0.00  0.00    -0.487 OA
BRANCH  11  13
ATOM     12  C1  UNL     1     139.150 121.901  86.801  0.00  0.00    +0.048 C 
ATOM     13  C2  UNL     1     138.402 123.133  86.324  0.00  0.00    +0.226 C 
ENDBRANCH  11  13
ENDBRANCH   2  11
ENDBRANCH   1   6
BRANCH   1  14
ATOM     14  N1  UNL     1     132.288 123.826  90.161  0.00  0.00    -0.307 NA
ATOM     15  H9  UNL     1     131.879 123.925  91.088  0.00  0.00    +0.123 HD
BRANCH  14  16
ATOM     16  C8  UNL     1     131.287 124.204  89.141  0.00  0.00    +0.084 C 
ATOM     17  C9  UNL     1     130.186 125.024  89.834  0.00  0.00    +0.027 C 
BRANCH  16  18
ATOM     18  C10 UNL     1     130.683 123.031  88.295  0.00  0.00    +0.161 C 
BRANCH  18  19
ATOM     19  C11 UNL     1     131.577 122.502  87.185  0.00  0.00    -0.018 A 
ATOM     20  C12 UNL     1     132.123 123.350  86.208  0.00  0.00    +0.006 A 
ATOM     21  C13 UNL     1     132.939 122.844  85.193  0.00  0.00    +0.000 A 
ATOM     22  C14 UNL     1     133.221 121.482  85.140  0.00  0.00    +0.000 A 
ATOM     23  C15 UNL     1     132.688 120.625  86.099  0.00  0.00    +0.000 A 
ATOM     24  C16 UNL     1     131.873 121.132  87.113  0.00  0.00    +0.006 A 
ENDBRANCH  18  19
BRANCH  18  25
ATOM     25  O2  UNL     1     130.309 121.962  89.177  0.00  0.00    -0.386 OA
ATOM     26  H15 UNL     1     129.527 122.260  89.671  0.00  0.00    +0.210 HD
ENDBRANCH  18  25
ENDBRANCH  16  18
ENDBRANCH  14  16
ENDBRANCH   1  14
TORSDOF 9
ENDMDL
MODEL 8
REMARK VINA RESULT:    -3.583      2.666      4.352
REMARK INTER + INTRA:          -7.557
REMARK INTER:                  -5.201
REMARK INTRA:                  -2.356
REMARK UNBOUND:                -2.194
REMARK  Name = /home/vital/Documents/PhD_2021/Malaria_codes/data/pdb_ligands_mmv/ligand_138.pdb
REMARK  12 active torsions:
REMARK  status: ('A' for Active; 'I' for Inactive)
REMARK    1  A    between atoms: C1_1  and  C2_2
REMARK    2  A    between atoms: C2_2  and  O1_3
REMARK    3  A    between atoms: O1_3  and  C3_4
REMARK    4  A    between atoms: C6_8  and  C7_9
REMARK    5  A    between atoms: C7_9  and  N1_10
REMARK    6  A    between atoms: N1_10  and  C8_11
REMARK    7  A    between atoms: C8_11  and  C9_12
REMARK    8  A    between atoms: C8_11  and  C10_13
REMARK    9  A    between atoms: C10_13  and  O2_14
REMARK   10  A    between atoms: C10_13  and  C11_15
REMARK   11  A    between atoms: C18_22  and  O3_23
REMARK   12  A    between atoms: O3_23  and  C19_24
REMARK                            x       y       z     vdW  Elec       q    Type
REMARK                         _______ _______ _______ _____ _____    ______ ____
ROOT
ATOM      1  C7  UNL     1     144.162 130.079  98.040  0.00  0.00    +0.116 C 
ENDROOT
BRANCH   1   6
ATOM      2  C3  UNL     1     142.001 126.605  99.416  0.00  0.00    +0.180 A 
ATOM      3  C4  UNL     1     141.614 127.253  98.237  0.00  0.00    +0.086 A 
ATOM      4 CL1  UNL     1     140.293 126.682  97.283  0.00  0.00    -0.080 Cl
ATOM      5  C5  UNL     1     142.308 128.380  97.795  0.00  0.00    +0.028 A 
ATOM      6  C6  UNL     1     143.392 128.877  98.531  0.00  0.00    -0.029 A 
ATOM      7  C17 UNL     1     143.758 128.235  99.728  0.00  0.00    +0.054 A 
ATOM      8  C18 UNL     1     143.062 127.110 100.186  0.00  0.00    +0.163 A 
BRANCH   8   9
ATOM      9  O3  UNL     1     143.347 126.438 101.346  0.00  0.00    -0.491 OA
ATOM     10  C19 UNL     1     142.952 127.044 102.569  0.00  0.00    +0.277 C 
ENDBRANCH   8   9
BRANCH   2  11
ATOM     11  O1  UNL     1     141.280 125.519  99.854  0.00  0.00    -0.487 OA
BRANCH  11  13
ATOM     12  C1  UNL     1     142.023 123.313 100.374  0.00  0.00    +0.048 C 
ATOM     13  C2  UNL     1     141.776 124.314  99.260  0.00  0.00    +0.226 C 
ENDBRANCH  11  13
ENDBRANCH   2  11
ENDBRANCH   1   6
BRANCH   1  14
ATOM     14  N1  UNL     1     143.953 131.281  98.846  0.00  0.00    -0.307 NA
ATOM     15  H9  UNL     1     144.605 132.004  98.546  0.00  0.00    +0.123 HD
BRANCH  14  16
ATOM     16  C8  UNL     1     142.579 131.822  98.829  0.00  0.00    +0.084 C 
ATOM     17  C9  UNL     1     142.644 133.274  98.327  0.00  0.00    +0.027 C 
BRANCH  16  18
ATOM     18  C10 UNL     1     141.774 131.713 100.169  0.00  0.00    +0.161 C 
BRANCH  18  19
ATOM     19  C11 UNL     1     140.710 130.629 100.203  0.00  0.00    -0.018 A 
ATOM     20  C12 UNL     1     140.642 129.692 101.248  0.00  0.00    +0.006 A 
ATOM     21  C13 UNL     1     139.658 128.700 101.260  0.00  0.00    +0.000 A 
ATOM     22  C14 UNL     1     138.727 128.630 100.227  0.00  0.00    +0.000 A 
ATOM     23  C15 UNL     1     138.779 129.548  99.182  0.00  0.00    +0.000 A 
ATOM     24  C16 UNL     1     139.762 130.540  99.172  0.00  0.00    +0.006 A 
ENDBRANCH  18  19
BRANCH  18  25
ATOM     25  O2  UNL     1     142.696 131.532 101.255  0.00  0.00    -0.386 OA
ATOM     26  H15 UNL     1     142.728 130.579 101.445  0.00  0.00    +0.210 HD
ENDBRANCH  18  25
ENDBRANCH  16  18
ENDBRANCH  14  16
ENDBRANCH   1  14
TORSDOF 9
ENDMDL
MODEL 9
REMARK VINA RESULT:    -3.418     14.381     16.594
REMARK INTER + INTRA:          -7.310
REMARK INTER:                  -5.017
REMARK INTRA:                  -2.293
REMARK UNBOUND:                -2.194
REMARK  Name = /home/vital/Documents/PhD_2021/Malaria_codes/data/pdb_ligands_mmv/ligand_138.pdb
REMARK  12 active torsions:
REMARK  status: ('A' for Active; 'I' for Inactive)
REMARK    1  A    between atoms: C1_1  and  C2_2
REMARK    2  A    between atoms: C2_2  and  O1_3
REMARK    3  A    between atoms: O1_3  and  C3_4
REMARK    4  A    between atoms: C6_8  and  C7_9
REMARK    5  A    between atoms: C7_9  and  N1_10
REMARK    6  A    between atoms: N1_10  and  C8_11
REMARK    7  A    between atoms: C8_11  and  C9_12
REMARK    8  A    between atoms: C8_11  and  C10_13
REMARK    9  A    between atoms: C10_13  and  O2_14
REMARK   10  A    between atoms: C10_13  and  C11_15
REMARK   11  A    between atoms: C18_22  and  O3_23
REMARK   12  A    between atoms: O3_23  and  C19_24
REMARK                            x       y       z     vdW  Elec       q    Type
REMARK                         _______ _______ _______ _____ _____    ______ ____
ROOT
ATOM      1  C7  UNL     1     132.623 123.272  85.821  0.00  0.00    +0.116 C 
ENDROOT
BRANCH   1   6
ATOM      2  C3  UNL     1     136.925 123.331  85.473  0.00  0.00    +0.180 A 
ATOM      3  C4  UNL     1     136.245 122.112  85.582  0.00  0.00    +0.086 A 
ATOM      4 CL1  UNL     1     137.083 120.602  85.556  0.00  0.00    -0.080 Cl
ATOM      5  C5  UNL     1     134.855 122.093  85.702  0.00  0.00    +0.028 A 
ATOM      6  C6  UNL     1     134.130 123.292  85.721  0.00  0.00    -0.029 A 
ATOM      7  C17 UNL     1     134.823 124.513  85.635  0.00  0.00    +0.054 A 
ATOM      8  C18 UNL     1     136.219 124.543  85.525  0.00  0.00    +0.163 A 
BRANCH   8   9
ATOM      9  O3  UNL     1     136.967 125.689  85.451  0.00  0.00    -0.491 OA
ATOM     10  C19 UNL     1     136.735 126.689  86.434  0.00  0.00    +0.277 C 
ENDBRANCH   8   9
BRANCH   2  11
ATOM     11  O1  UNL     1     138.298 123.329  85.394  0.00  0.00    -0.487 OA
BRANCH  11  13
ATOM     12  C1  UNL     1     139.702 124.315  87.052  0.00  0.00    +0.048 C 
ATOM     13  C2  UNL     1     138.875 123.096  86.684  0.00  0.00    +0.226 C 
ENDBRANCH  11  13
ENDBRANCH   2  11
ENDBRANCH   1   6
BRANCH   1  14
ATOM     14  N1  UNL     1     132.115 122.378  86.860  0.00  0.00    -0.307 NA
ATOM     15  H9  UNL     1     132.890 121.850  87.257  0.00  0.00    +0.123 HD
BRANCH  14  16
ATOM     16  C8  UNL     1     131.363 123.037  87.948  0.00  0.00    +0.084 C 
ATOM     17  C9  UNL     1     130.981 124.450  87.476  0.00  0.00    +0.027 C 
BRANCH  16  18
ATOM     18  C10 UNL     1     132.059 123.069  89.351  0.00  0.00    +0.161 C 
BRANCH  18  19
ATOM     19  C11 UNL     1     133.530 123.450  89.340  0.00  0.00    -0.018 A 
ATOM     20  C12 UNL     1     133.946 124.792  89.338  0.00  0.00    +0.006 A 
ATOM     21  C13 UNL     1     135.304 125.122  89.324  0.00  0.00    +0.000 A 
ATOM     22  C14 UNL     1     136.266 124.116  89.310  0.00  0.00    +0.000 A 
ATOM     23  C15 UNL     1     135.873 122.781  89.310  0.00  0.00    +0.000 A 
ATOM     24  C16 UNL     1     134.516 122.451  89.326  0.00  0.00    +0.006 A 
ENDBRANCH  18  19
BRANCH  18  25
ATOM     25  O2  UNL     1     131.329 123.952  90.216  0.00  0.00    -0.386 OA
ATOM     26  H15 UNL     1     130.439 124.049  89.839  0.00  0.00    +0.210 HD
ENDBRANCH  18  25
ENDBRANCH  16  18
ENDBRANCH  14  16
ENDBRANCH   1  14
TORSDOF 9
ENDMDL
