MODEL 1
REMARK VINA RESULT:    -4.958      0.000      0.000
REMARK INTER + INTRA:          -7.985
REMARK INTER:                  -6.118
REMARK INTRA:                  -1.867
REMARK UNBOUND:                -1.867
REMARK  Name = /home/vital/Documents/PhD_2021/Malaria_codes/data/pdb_ligands_mmv/ligand_256.pdb
REMARK  10 active torsions:
REMARK  status: ('A' for Active; 'I' for Inactive)
REMARK    1  A    between atoms: C1_1  and  O1_2
REMARK    2  A    between atoms: O1_2  and  C2_3
REMARK    3  A    between atoms: C5_6  and  O2_7
REMARK    4  A    between atoms: O2_7  and  C6_8
REMARK    5  A    between atoms: C7_9  and  C9_11
REMARK    6  A    between atoms: C13_15  and  C14_16
REMARK    7  A    between atoms: C13_15  and  C15_17
REMARK    8  A    between atoms: N1_21  and  C26_31
REMARK    9  A    between atoms: C22_27  and  C23_28
REMARK   10  A    between atoms: C22_27  and  C24_29
REMARK                            x       y       z     vdW  Elec       q    Type
REMARK                         _______ _______ _______ _____ _____    ______ ____
ROOT
ATOM      1  C9  UNL     1     142.038 125.909  98.435  0.00  0.00    +0.092 C 
ATOM      2  C10 UNL     1     143.140 125.388  99.346  0.00  0.00    +0.025 C 
ATOM      3  C11 UNL     1     143.095 125.530 100.691  0.00  0.00    +0.024 C 
ATOM      4  C12 UNL     1     144.193 124.954 101.581  0.00  0.00    +0.058 C 
ATOM      5  C13 UNL     1     145.532 124.667 100.871  0.00  0.00    -0.023 C 
ATOM      6  C14 UNL     1     146.297 125.980 100.602  0.00  0.00    +0.011 C 
ATOM      7  C15 UNL     1     146.406 123.782 101.777  0.00  0.00    +0.011 C 
ATOM      8  C16 UNL     1     145.253 123.927  99.561  0.00  0.00    +0.086 C 
ATOM      9  C17 UNL     1     144.286 124.693  98.690  0.00  0.00    +0.162 C 
ATOM     10  O3  UNL     1     144.438 124.722  97.471  0.00  0.00    -0.292 OA
ATOM     11  N1  UNL     1     142.026 126.234 101.306  0.00  0.00    -0.276 N 
ATOM     12  C18 UNL     1     141.099 126.970 100.521  0.00  0.00    +0.024 C 
ATOM     13  C19 UNL     1     141.105 126.861  99.171  0.00  0.00    +0.025 C 
ATOM     14  C20 UNL     1     140.168 127.671  98.336  0.00  0.00    +0.162 C 
ATOM     15  O4  UNL     1     140.286 127.726  97.114  0.00  0.00    -0.292 OA
ATOM     16  C21 UNL     1     139.044 128.407  99.027  0.00  0.00    +0.086 C 
ATOM     17  C22 UNL     1     139.504 129.006 100.357  0.00  0.00    -0.023 C 
ATOM     18  C23 UNL     1     138.292 129.617 101.083  0.00  0.00    +0.011 C 
ATOM     19  C24 UNL     1     140.537 130.129 100.121  0.00  0.00    +0.011 C 
ATOM     20  C25 UNL     1     140.109 127.888 101.230  0.00  0.00    +0.058 C 
ENDROOT
BRANCH  11  21
ATOM     21  C26 UNL     1     141.806 126.094 102.712  0.00  0.00    +0.040 A 
ATOM     22  C27 UNL     1     142.227 127.101 103.593  0.00  0.00    +0.025 A 
ATOM     23  C28 UNL     1     142.014 126.971 104.968  0.00  0.00    +0.023 A 
ATOM     24  C29 UNL     1     141.380 125.834 105.475  0.00  0.00    +0.059 A 
ATOM     25 CL1  UNL     1     141.150 125.737 107.184  0.00  0.00    -0.082 Cl
ATOM     26  C30 UNL     1     140.955 124.824 104.602  0.00  0.00    +0.061 A 
ATOM     27 CL2  UNL     1     140.165 123.392 105.157  0.00  0.00    -0.082 Cl
ATOM     28  C31 UNL     1     141.167 124.956 103.227  0.00  0.00    +0.045 A 
ENDBRANCH  11  21
BRANCH   1  33
ATOM     29  C2  UNL     1     139.741 122.824  98.156  0.00  0.00    +0.121 A 
ATOM     30  C3  UNL     1     139.746 122.593  96.783  0.00  0.00    +0.049 A 
ATOM     31  C4  UNL     1     140.482 123.427  95.936  0.00  0.00    +0.049 A 
ATOM     32  C5  UNL     1     141.208 124.505  96.453  0.00  0.00    +0.124 A 
ATOM     33  C7  UNL     1     141.237 124.742  97.835  0.00  0.00    +0.010 A 
ATOM     34  C8  UNL     1     140.486 123.889  98.671  0.00  0.00    +0.053 A 
BRANCH  29  36
ATOM     35  C1  UNL     1     137.714 121.771  98.806  0.00  0.00    +0.277 C 
ATOM     36  O1  UNL     1     139.068 122.091  99.095  0.00  0.00    -0.495 OA
ENDBRANCH  29  36
BRANCH  32  37
ATOM     37  O2  UNL     1     141.959 125.317  95.645  0.00  0.00    -0.495 OA
ATOM     38  C6  UNL     1     141.343 125.614  94.395  0.00  0.00    +0.277 C 
ENDBRANCH  32  37
ENDBRANCH   1  33
TORSDOF 4
ENDMDL
MODEL 2
REMARK VINA RESULT:    -4.755      3.519      5.539
REMARK INTER + INTRA:          -7.735
REMARK INTER:                  -5.796
REMARK INTRA:                  -1.938
REMARK UNBOUND:                -1.867
REMARK  Name = /home/vital/Documents/PhD_2021/Malaria_codes/data/pdb_ligands_mmv/ligand_256.pdb
REMARK  10 active torsions:
REMARK  status: ('A' for Active; 'I' for Inactive)
REMARK    1  A    between atoms: C1_1  and  O1_2
REMARK    2  A    between atoms: O1_2  and  C2_3
REMARK    3  A    between atoms: C5_6  and  O2_7
REMARK    4  A    between atoms: O2_7  and  C6_8
REMARK    5  A    between atoms: C7_9  and  C9_11
REMARK    6  A    between atoms: C13_15  and  C14_16
REMARK    7  A    between atoms: C13_15  and  C15_17
REMARK    8  A    between atoms: N1_21  and  C26_31
REMARK    9  A    between atoms: C22_27  and  C23_28
REMARK   10  A    between atoms: C22_27  and  C24_29
REMARK                            x       y       z     vdW  Elec       q    Type
REMARK                         _______ _______ _______ _____ _____    ______ ____
ROOT
ATOM      1  C9  UNL     1     143.611 130.063 100.243  0.00  0.00    +0.092 C 
ATOM      2  C10 UNL     1     144.395 129.132 101.156  0.00  0.00    +0.025 C 
ATOM      3  C11 UNL     1     143.953 127.893 101.478  0.00  0.00    +0.024 C 
ATOM      4  C12 UNL     1     144.785 126.965 102.358  0.00  0.00    +0.058 C 
ATOM      5  C13 UNL     1     145.852 127.663 103.227  0.00  0.00    -0.023 C 
ATOM      6  C14 UNL     1     145.193 128.377 104.426  0.00  0.00    +0.011 C 
ATOM      7  C15 UNL     1     146.827 126.607 103.778  0.00  0.00    +0.011 C 
ATOM      8  C16 UNL     1     146.624 128.661 102.362  0.00  0.00    +0.086 C 
ATOM      9  C17 UNL     1     145.695 129.639 101.685  0.00  0.00    +0.162 C 
ATOM     10  O3  UNL     1     146.017 130.818 101.562  0.00  0.00    -0.292 OA
ATOM     11  N1  UNL     1     142.694 127.433 101.011  0.00  0.00    -0.276 N 
ATOM     12  C18 UNL     1     141.790 128.325 100.374  0.00  0.00    +0.024 C 
ATOM     13  C19 UNL     1     142.185 129.574 100.033  0.00  0.00    +0.025 C 
ATOM     14  C20 UNL     1     141.225 130.535  99.409  0.00  0.00    +0.162 C 
ATOM     15  O4  UNL     1     141.510 131.721  99.268  0.00  0.00    -0.292 OA
ATOM     16  C21 UNL     1     139.895 130.008  98.927  0.00  0.00    +0.086 C 
ATOM     17  C22 UNL     1     139.326 128.963  99.888  0.00  0.00    -0.023 C 
ATOM     18  C23 UNL     1     138.048 128.357  99.280  0.00  0.00    +0.011 C 
ATOM     19  C24 UNL     1     138.952 129.611 101.239  0.00  0.00    +0.011 C 
ATOM     20  C25 UNL     1     140.369 127.847 100.093  0.00  0.00    +0.058 C 
ENDROOT
BRANCH  11  21
ATOM     21  C26 UNL     1     142.388 126.037 101.066  0.00  0.00    +0.040 A 
ATOM     22  C27 UNL     1     142.709 125.203  99.985  0.00  0.00    +0.025 A 
ATOM     23  C28 UNL     1     142.415 123.839 100.033  0.00  0.00    +0.023 A 
ATOM     24  C29 UNL     1     141.796 123.295 101.161  0.00  0.00    +0.059 A 
ATOM     25 CL1  UNL     1     141.458 121.601 101.154  0.00  0.00    -0.082 Cl
ATOM     26  C30 UNL     1     141.472 124.119 102.246  0.00  0.00    +0.061 A 
ATOM     27 CL2  UNL     1     140.706 123.517 103.672  0.00  0.00    -0.082 Cl
ATOM     28  C31 UNL     1     141.769 125.485 102.197  0.00  0.00    +0.045 A 
ENDBRANCH  11  21
BRANCH   1  33
ATOM     29  C2  UNL     1     145.194 129.191  96.836  0.00  0.00    +0.121 A 
ATOM     30  C3  UNL     1     145.619 130.441  96.395  0.00  0.00    +0.049 A 
ATOM     31  C4  UNL     1     145.397 131.574  97.184  0.00  0.00    +0.049 A 
ATOM     32  C5  UNL     1     144.738 131.468  98.414  0.00  0.00    +0.124 A 
ATOM     33  C7  UNL     1     144.324 130.215  98.889  0.00  0.00    +0.010 A 
ATOM     34  C8  UNL     1     144.557 129.086  98.075  0.00  0.00    +0.053 A 
BRANCH  29  36
ATOM     35  C1  UNL     1     144.704 126.869  96.733  0.00  0.00    +0.277 C 
ATOM     36  O1  UNL     1     145.344 128.006  96.169  0.00  0.00    -0.495 OA
ENDBRANCH  29  36
BRANCH  32  37
ATOM     37  O2  UNL     1     144.536 132.559  99.215  0.00  0.00    -0.495 OA
ATOM     38  C6  UNL     1     144.373 133.779  98.497  0.00  0.00    +0.277 C 
ENDBRANCH  32  37
ENDBRANCH   1  33
TORSDOF 4
ENDMDL
MODEL 3
REMARK VINA RESULT:    -4.728      3.468      7.030
REMARK INTER + INTRA:          -7.701
REMARK INTER:                  -5.735
REMARK INTRA:                  -1.966
REMARK UNBOUND:                -1.867
REMARK  Name = /home/vital/Documents/PhD_2021/Malaria_codes/data/pdb_ligands_mmv/ligand_256.pdb
REMARK  10 active torsions:
REMARK  status: ('A' for Active; 'I' for Inactive)
REMARK    1  A    between atoms: C1_1  and  O1_2
REMARK    2  A    between atoms: O1_2  and  C2_3
REMARK    3  A    between atoms: C5_6  and  O2_7
REMARK    4  A    between atoms: O2_7  and  C6_8
REMARK    5  A    between atoms: C7_9  and  C9_11
REMARK    6  A    between atoms: C13_15  and  C14_16
REMARK    7  A    between atoms: C13_15  and  C15_17
REMARK    8  A    between atoms: N1_21  and  C26_31
REMARK    9  A    between atoms: C22_27  and  C23_28
REMARK   10  A    between atoms: C22_27  and  C24_29
REMARK                            x       y       z     vdW  Elec       q    Type
REMARK                         _______ _______ _______ _____ _____    ______ ____
ROOT
ATOM      1  C9  UNL     1     143.239 129.313  98.144  0.00  0.00    +0.092 C 
ATOM      2  C10 UNL     1     141.912 129.071  98.849  0.00  0.00    +0.025 C 
ATOM      3  C11 UNL     1     141.527 127.841  99.264  0.00  0.00    +0.024 C 
ATOM      4  C12 UNL     1     140.212 127.639 100.011  0.00  0.00    +0.058 C 
ATOM      5  C13 UNL     1     139.170 128.762  99.825  0.00  0.00    -0.023 C 
ATOM      6  C14 UNL     1     138.512 128.668  98.432  0.00  0.00    +0.011 C 
ATOM      7  C15 UNL     1     138.066 128.609 100.886  0.00  0.00    +0.011 C 
ATOM      8  C16 UNL     1     139.859 130.116 100.006  0.00  0.00    +0.086 C 
ATOM      9  C17 UNL     1     141.042 130.261  99.079  0.00  0.00    +0.162 C 
ATOM     10  O3  UNL     1     141.284 131.341  98.546  0.00  0.00    -0.292 OA
ATOM     11  N1  UNL     1     142.337 126.705  99.001  0.00  0.00    -0.276 N 
ATOM     12  C18 UNL     1     143.455 126.801  98.130  0.00  0.00    +0.024 C 
ATOM     13  C19 UNL     1     143.878 128.008  97.687  0.00  0.00    +0.025 C 
ATOM     14  C20 UNL     1     145.021 128.113  96.730  0.00  0.00    +0.162 C 
ATOM     15  O4  UNL     1     145.295 129.175  96.177  0.00  0.00    -0.292 OA
ATOM     16  C21 UNL     1     145.857 126.883  96.475  0.00  0.00    +0.086 C 
ATOM     17  C22 UNL     1     144.992 125.623  96.408  0.00  0.00    -0.023 C 
ATOM     18  C23 UNL     1     145.903 124.388  96.291  0.00  0.00    +0.011 C 
ATOM     19  C24 UNL     1     144.072 125.658  95.168  0.00  0.00    +0.011 C 
ATOM     20  C25 UNL     1     144.157 125.517  97.699  0.00  0.00    +0.058 C 
ENDROOT
BRANCH  11  21
ATOM     21  C26 UNL     1     142.102 125.490  99.718  0.00  0.00    +0.040 A 
ATOM     22  C27 UNL     1     142.696 125.287 100.972  0.00  0.00    +0.025 A 
ATOM     23  C28 UNL     1     142.470 124.104 101.678  0.00  0.00    +0.023 A 
ATOM     24  C29 UNL     1     141.648 123.111 101.137  0.00  0.00    +0.059 A 
ATOM     25 CL1  UNL     1     141.412 121.672 102.063  0.00  0.00    -0.082 Cl
ATOM     26  C30 UNL     1     141.050 123.306  99.886  0.00  0.00    +0.061 A 
ATOM     27 CL2  UNL     1     140.023 122.124  99.156  0.00  0.00    -0.082 Cl
ATOM     28  C31 UNL     1     141.275 124.492  99.181  0.00  0.00    +0.045 A 
ENDBRANCH  11  21
BRANCH   1  33
ATOM     29  C2  UNL     1     145.533 130.178 101.121  0.00  0.00    +0.121 A 
ATOM     30  C3  UNL     1     145.979 131.450 100.772  0.00  0.00    +0.049 A 
ATOM     31  C4  UNL     1     145.552 132.037  99.578  0.00  0.00    +0.049 A 
ATOM     32  C5  UNL     1     144.685 131.354  98.717  0.00  0.00    +0.124 A 
ATOM     33  C7  UNL     1     144.204 130.082  99.060  0.00  0.00    +0.010 A 
ATOM     34  C8  UNL     1     144.650 129.508 100.270  0.00  0.00    +0.053 A 
BRANCH  29  36
ATOM     35  C1  UNL     1     145.209 128.246 102.464  0.00  0.00    +0.277 C 
ATOM     36  O1  UNL     1     145.870 129.487 102.252  0.00  0.00    -0.495 OA
ENDBRANCH  29  36
BRANCH  32  37
ATOM     37  O2  UNL     1     144.232 131.923  97.558  0.00  0.00    -0.495 OA
ATOM     38  C6  UNL     1     145.197 132.740  96.901  0.00  0.00    +0.277 C 
ENDBRANCH  32  37
ENDBRANCH   1  33
TORSDOF 4
ENDMDL
MODEL 4
REMARK VINA RESULT:    -4.711      3.384      7.018
REMARK INTER + INTRA:          -7.680
REMARK INTER:                  -5.700
REMARK INTRA:                  -1.980
REMARK UNBOUND:                -1.867
REMARK  Name = /home/vital/Documents/PhD_2021/Malaria_codes/data/pdb_ligands_mmv/ligand_256.pdb
REMARK  10 active torsions:
REMARK  status: ('A' for Active; 'I' for Inactive)
REMARK    1  A    between atoms: C1_1  and  O1_2
REMARK    2  A    between atoms: O1_2  and  C2_3
REMARK    3  A    between atoms: C5_6  and  O2_7
REMARK    4  A    between atoms: O2_7  and  C6_8
REMARK    5  A    between atoms: C7_9  and  C9_11
REMARK    6  A    between atoms: C13_15  and  C14_16
REMARK    7  A    between atoms: C13_15  and  C15_17
REMARK    8  A    between atoms: N1_21  and  C26_31
REMARK    9  A    between atoms: C22_27  and  C23_28
REMARK   10  A    between atoms: C22_27  and  C24_29
REMARK                            x       y       z     vdW  Elec       q    Type
REMARK                         _______ _______ _______ _____ _____    ______ ____
ROOT
ATOM      1  C9  UNL     1     143.251 129.322  98.124  0.00  0.00    +0.092 C 
ATOM      2  C10 UNL     1     141.927 129.088  98.837  0.00  0.00    +0.025 C 
ATOM      3  C11 UNL     1     141.542 127.863  99.266  0.00  0.00    +0.024 C 
ATOM      4  C12 UNL     1     140.230 127.670 100.020  0.00  0.00    +0.058 C 
ATOM      5  C13 UNL     1     139.188 128.791  99.826  0.00  0.00    -0.023 C 
ATOM      6  C14 UNL     1     138.525 128.682  98.436  0.00  0.00    +0.011 C 
ATOM      7  C15 UNL     1     138.088 128.650 100.893  0.00  0.00    +0.011 C 
ATOM      8  C16 UNL     1     139.878 130.146  99.990  0.00  0.00    +0.086 C 
ATOM      9  C17 UNL     1     141.058 130.281  99.057  0.00  0.00    +0.162 C 
ATOM     10  O3  UNL     1     141.298 131.356  98.511  0.00  0.00    -0.292 OA
ATOM     11  N1  UNL     1     142.351 126.724  99.012  0.00  0.00    -0.276 N 
ATOM     12  C18 UNL     1     143.466 126.810  98.136  0.00  0.00    +0.024 C 
ATOM     13  C19 UNL     1     143.888 128.012  97.679  0.00  0.00    +0.025 C 
ATOM     14  C20 UNL     1     145.027 128.106  96.717  0.00  0.00    +0.162 C 
ATOM     15  O4  UNL     1     145.300 129.162  96.151  0.00  0.00    -0.292 OA
ATOM     16  C21 UNL     1     145.862 126.872  96.472  0.00  0.00    +0.086 C 
ATOM     17  C22 UNL     1     144.996 125.613  96.421  0.00  0.00    -0.023 C 
ATOM     18  C23 UNL     1     145.906 124.376  96.314  0.00  0.00    +0.011 C 
ATOM     19  C24 UNL     1     144.072 125.635  95.185  0.00  0.00    +0.011 C 
ATOM     20  C25 UNL     1     144.165 125.521  97.717  0.00  0.00    +0.058 C 
ENDROOT
BRANCH  11  21
ATOM     21  C26 UNL     1     142.118 125.517  99.743  0.00  0.00    +0.040 A 
ATOM     22  C27 UNL     1     141.332 124.498  99.185  0.00  0.00    +0.025 A 
ATOM     23  C28 UNL     1     141.102 123.316  99.893  0.00  0.00    +0.023 A 
ATOM     24  C29 UNL     1     141.653 123.142 101.165  0.00  0.00    +0.059 A 
ATOM     25 CL1  UNL     1     141.327 121.657 101.985  0.00  0.00    -0.082 Cl
ATOM     26  C30 UNL     1     142.440 124.154 101.729  0.00  0.00    +0.061 A 
ATOM     27 CL2  UNL     1     143.153 124.009 103.296  0.00  0.00    -0.082 Cl
ATOM     28  C31 UNL     1     142.671 125.335 101.019  0.00  0.00    +0.045 A 
ENDBRANCH  11  21
BRANCH   1  33
ATOM     29  C2  UNL     1     145.559 130.216 101.082  0.00  0.00    +0.121 A 
ATOM     30  C3  UNL     1     146.002 131.485 100.719  0.00  0.00    +0.049 A 
ATOM     31  C4  UNL     1     145.568 132.061  99.522  0.00  0.00    +0.049 A 
ATOM     32  C5  UNL     1     144.698 131.370  98.672  0.00  0.00    +0.124 A 
ATOM     33  C7  UNL     1     144.219 130.100  99.029  0.00  0.00    +0.010 A 
ATOM     34  C8  UNL     1     144.672 129.538 100.242  0.00  0.00    +0.053 A 
BRANCH  29  36
ATOM     35  C1  UNL     1     145.223 128.310 102.459  0.00  0.00    +0.277 C 
ATOM     36  O1  UNL     1     145.901 129.536 102.218  0.00  0.00    -0.495 OA
ENDBRANCH  29  36
BRANCH  32  37
ATOM     37  O2  UNL     1     144.239 131.927  97.509  0.00  0.00    -0.495 OA
ATOM     38  C6  UNL     1     145.214 132.700  96.816  0.00  0.00    +0.277 C 
ENDBRANCH  32  37
ENDBRANCH   1  33
TORSDOF 4
ENDMDL
MODEL 5
REMARK VINA RESULT:    -4.668      4.726      8.352
REMARK INTER + INTRA:          -7.627
REMARK INTER:                  -5.685
REMARK INTRA:                  -1.942
REMARK UNBOUND:                -1.867
REMARK  Name = /home/vital/Documents/PhD_2021/Malaria_codes/data/pdb_ligands_mmv/ligand_256.pdb
REMARK  10 active torsions:
REMARK  status: ('A' for Active; 'I' for Inactive)
REMARK    1  A    between atoms: C1_1  and  O1_2
REMARK    2  A    between atoms: O1_2  and  C2_3
REMARK    3  A    between atoms: C5_6  and  O2_7
REMARK    4  A    between atoms: O2_7  and  C6_8
REMARK    5  A    between atoms: C7_9  and  C9_11
REMARK    6  A    between atoms: C13_15  and  C14_16
REMARK    7  A    between atoms: C13_15  and  C15_17
REMARK    8  A    between atoms: N1_21  and  C26_31
REMARK    9  A    between atoms: C22_27  and  C23_28
REMARK   10  A    between atoms: C22_27  and  C24_29
REMARK                            x       y       z     vdW  Elec       q    Type
REMARK                         _______ _______ _______ _____ _____    ______ ____
ROOT
ATOM      1  C9  UNL     1     143.325 131.316  97.549  0.00  0.00    +0.092 C 
ATOM      2  C10 UNL     1     142.356 130.506  98.400  0.00  0.00    +0.025 C 
ATOM      3  C11 UNL     1     142.040 129.222  98.111  0.00  0.00    +0.024 C 
ATOM      4  C12 UNL     1     141.103 128.421  99.011  0.00  0.00    +0.058 C 
ATOM      5  C13 UNL     1     140.189 129.264  99.925  0.00  0.00    -0.023 C 
ATOM      6  C14 UNL     1     139.038 129.893  99.111  0.00  0.00    +0.011 C 
ATOM      7  C15 UNL     1     139.571 128.354 101.001  0.00  0.00    +0.011 C 
ATOM      8  C16 UNL     1     141.026 130.350 100.602  0.00  0.00    +0.086 C 
ATOM      9  C17 UNL     1     141.767 131.189  99.588  0.00  0.00    +0.162 C 
ATOM     10  O3  UNL     1     141.891 132.399  99.756  0.00  0.00    -0.292 OA
ATOM     11  N1  UNL     1     142.566 128.592  96.952  0.00  0.00    -0.276 N 
ATOM     12  C18 UNL     1     143.264 129.349  95.973  0.00  0.00    +0.024 C 
ATOM     13  C19 UNL     1     143.602 130.637  96.214  0.00  0.00    +0.025 C 
ATOM     14  C20 UNL     1     144.291 131.454  95.170  0.00  0.00    +0.162 C 
ATOM     15  O4  UNL     1     144.435 132.667  95.301  0.00  0.00    -0.292 OA
ATOM     16  C21 UNL     1     144.835 130.749  93.951  0.00  0.00    +0.086 C 
ATOM     17  C22 UNL     1     143.889 129.645  93.476  0.00  0.00    -0.023 C 
ATOM     18  C23 UNL     1     144.555 128.867  92.326  0.00  0.00    +0.011 C 
ATOM     19  C24 UNL     1     142.571 130.247  92.945  0.00  0.00    +0.011 C 
ATOM     20  C25 UNL     1     143.612 128.681  94.647  0.00  0.00    +0.058 C 
ENDROOT
BRANCH  11  21
ATOM     21  C26 UNL     1     142.506 127.168  96.834  0.00  0.00    +0.040 A 
ATOM     22  C27 UNL     1     141.421 126.562  96.184  0.00  0.00    +0.025 A 
ATOM     23  C28 UNL     1     141.357 125.172  96.064  0.00  0.00    +0.023 A 
ATOM     24  C29 UNL     1     142.375 124.375  96.594  0.00  0.00    +0.059 A 
ATOM     25 CL1  UNL     1     142.231 122.663  96.412  0.00  0.00    -0.082 Cl
ATOM     26  C30 UNL     1     143.462 124.971  97.244  0.00  0.00    +0.061 A 
ATOM     27 CL2  UNL     1     144.756 124.050  97.923  0.00  0.00    -0.082 Cl
ATOM     28  C31 UNL     1     143.527 126.363  97.362  0.00  0.00    +0.045 A 
ENDBRANCH  11  21
BRANCH   1  33
ATOM     29  C2  UNL     1     146.662 130.641  99.359  0.00  0.00    +0.121 A 
ATOM     30  C3  UNL     1     147.067 131.931  99.692  0.00  0.00    +0.049 A 
ATOM     31  C4  UNL     1     146.276 133.027  99.335  0.00  0.00    +0.049 A 
ATOM     32  C5  UNL     1     145.080 132.843  98.632  0.00  0.00    +0.124 A 
ATOM     33  C7  UNL     1     144.640 131.551  98.307  0.00  0.00    +0.010 A 
ATOM     34  C8  UNL     1     145.456 130.460  98.677  0.00  0.00    +0.053 A 
BRANCH  29  36
ATOM     35  C1  UNL     1     147.071 128.885 100.905  0.00  0.00    +0.277 C 
ATOM     36  O1  UNL     1     147.336 129.485  99.644  0.00  0.00    -0.495 OA
ENDBRANCH  29  36
BRANCH  32  37
ATOM     37  O2  UNL     1     144.276 133.900  98.297  0.00  0.00    -0.495 OA
ATOM     38  C6  UNL     1     144.983 135.119  98.091  0.00  0.00    +0.277 C 
ENDBRANCH  32  37
ENDBRANCH   1  33
TORSDOF 4
ENDMDL
MODEL 6
REMARK VINA RESULT:    -4.638      2.472      5.447
REMARK INTER + INTRA:          -7.590
REMARK INTER:                  -5.677
REMARK INTRA:                  -1.913
REMARK UNBOUND:                -1.867
REMARK  Name = /home/vital/Documents/PhD_2021/Malaria_codes/data/pdb_ligands_mmv/ligand_256.pdb
REMARK  10 active torsions:
REMARK  status: ('A' for Active; 'I' for Inactive)
REMARK    1  A    between atoms: C1_1  and  O1_2
REMARK    2  A    between atoms: O1_2  and  C2_3
REMARK    3  A    between atoms: C5_6  and  O2_7
REMARK    4  A    between atoms: O2_7  and  C6_8
REMARK    5  A    between atoms: C7_9  and  C9_11
REMARK    6  A    between atoms: C13_15  and  C14_16
REMARK    7  A    between atoms: C13_15  and  C15_17
REMARK    8  A    between atoms: N1_21  and  C26_31
REMARK    9  A    between atoms: C22_27  and  C23_28
REMARK   10  A    between atoms: C22_27  and  C24_29
REMARK                            x       y       z     vdW  Elec       q    Type
REMARK                         _______ _______ _______ _____ _____    ______ ____
ROOT
ATOM      1  C9  UNL     1     143.389 127.987  99.446  0.00  0.00    +0.092 C 
ATOM      2  C10 UNL     1     142.573 126.752  99.088  0.00  0.00    +0.025 C 
ATOM      3  C11 UNL     1     142.290 125.784  99.991  0.00  0.00    +0.024 C 
ATOM      4  C12 UNL     1     141.429 124.583  99.613  0.00  0.00    +0.058 C 
ATOM      5  C13 UNL     1     141.334 124.291  98.101  0.00  0.00    -0.023 C 
ATOM      6  C14 UNL     1     142.640 123.647  97.589  0.00  0.00    +0.011 C 
ATOM      7  C15 UNL     1     140.182 123.302  97.847  0.00  0.00    +0.011 C 
ATOM      8  C16 UNL     1     141.050 125.598  97.358  0.00  0.00    +0.086 C 
ATOM      9  C17 UNL     1     142.081 126.653  97.683  0.00  0.00    +0.162 C 
ATOM     10  O3  UNL     1     142.484 127.416  96.809  0.00  0.00    -0.292 OA
ATOM     11  N1  UNL     1     142.801 125.861 101.314  0.00  0.00    -0.276 N 
ATOM     12  C18 UNL     1     143.775 126.836 101.656  0.00  0.00    +0.024 C 
ATOM     13  C19 UNL     1     144.093 127.823 100.787  0.00  0.00    +0.025 C 
ATOM     14  C20 UNL     1     145.154 128.822 101.119  0.00  0.00    +0.162 C 
ATOM     15  O4  UNL     1     145.584 129.603 100.274  0.00  0.00    -0.292 OA
ATOM     16  C21 UNL     1     145.674 128.871 102.536  0.00  0.00    +0.086 C 
ATOM     17  C22 UNL     1     145.812 127.468 103.129  0.00  0.00    -0.023 C 
ATOM     18  C23 UNL     1     146.205 127.581 104.613  0.00  0.00    +0.011 C 
ATOM     19  C24 UNL     1     146.918 126.674 102.401  0.00  0.00    +0.011 C 
ATOM     20  C25 UNL     1     144.458 126.738 103.017  0.00  0.00    +0.058 C 
ENDROOT
BRANCH  11  21
ATOM     21  C26 UNL     1     142.236 125.036 102.337  0.00  0.00    +0.040 A 
ATOM     22  C27 UNL     1     142.824 123.801 102.649  0.00  0.00    +0.025 A 
ATOM     23  C28 UNL     1     142.278 122.992 103.647  0.00  0.00    +0.023 A 
ATOM     24  C29 UNL     1     141.140 123.408 104.343  0.00  0.00    +0.059 A 
ATOM     25 CL1  UNL     1     140.516 122.357 105.564  0.00  0.00    -0.082 Cl
ATOM     26  C30 UNL     1     140.547 124.640 104.039  0.00  0.00    +0.061 A 
ATOM     27 CL2  UNL     1     139.140 125.218 104.856  0.00  0.00    -0.082 Cl
ATOM     28  C31 UNL     1     141.095 125.450 103.040  0.00  0.00    +0.045 A 
ENDBRANCH  11  21
BRANCH   1  33
ATOM     29  C2  UNL     1     140.543 130.420 100.369  0.00  0.00    +0.121 A 
ATOM     30  C3  UNL     1     140.828 131.509  99.548  0.00  0.00    +0.049 A 
ATOM     31  C4  UNL     1     141.936 131.472  98.697  0.00  0.00    +0.049 A 
ATOM     32  C5  UNL     1     142.775 130.353  98.667  0.00  0.00    +0.124 A 
ATOM     33  C7  UNL     1     142.494 129.236  99.467  0.00  0.00    +0.010 A 
ATOM     34  C8  UNL     1     141.372 129.296 100.320  0.00  0.00    +0.053 A 
BRANCH  29  36
ATOM     35  C1  UNL     1     138.643 129.197 101.097  0.00  0.00    +0.277 C 
ATOM     36  O1  UNL     1     139.498 130.322 101.246  0.00  0.00    -0.495 OA
ENDBRANCH  29  36
BRANCH  32  37
ATOM     37  O2  UNL     1     143.849 130.285  97.821  0.00  0.00    -0.495 OA
ATOM     38  C6  UNL     1     143.601 130.836  96.530  0.00  0.00    +0.277 C 
ENDBRANCH  32  37
ENDBRANCH   1  33
TORSDOF 4
ENDMDL
MODEL 7
REMARK VINA RESULT:    -4.566      4.075      6.611
REMARK INTER + INTRA:          -7.501
REMARK INTER:                  -5.575
REMARK INTRA:                  -1.926
REMARK UNBOUND:                -1.867
REMARK  Name = /home/vital/Documents/PhD_2021/Malaria_codes/data/pdb_ligands_mmv/ligand_256.pdb
REMARK  10 active torsions:
REMARK  status: ('A' for Active; 'I' for Inactive)
REMARK    1  A    between atoms: C1_1  and  O1_2
REMARK    2  A    between atoms: O1_2  and  C2_3
REMARK    3  A    between atoms: C5_6  and  O2_7
REMARK    4  A    between atoms: O2_7  and  C6_8
REMARK    5  A    between atoms: C7_9  and  C9_11
REMARK    6  A    between atoms: C13_15  and  C14_16
REMARK    7  A    between atoms: C13_15  and  C15_17
REMARK    8  A    between atoms: N1_21  and  C26_31
REMARK    9  A    between atoms: C22_27  and  C23_28
REMARK   10  A    between atoms: C22_27  and  C24_29
REMARK                            x       y       z     vdW  Elec       q    Type
REMARK                         _______ _______ _______ _____ _____    ______ ____
ROOT
ATOM      1  C9  UNL     1     143.291 129.696  98.878  0.00  0.00    +0.092 C 
ATOM      2  C10 UNL     1     144.181 128.461  98.848  0.00  0.00    +0.025 C 
ATOM      3  C11 UNL     1     143.693 127.223  98.596  0.00  0.00    +0.024 C 
ATOM      4  C12 UNL     1     144.619 126.012  98.525  0.00  0.00    +0.058 C 
ATOM      5  C13 UNL     1     145.984 126.186  99.223  0.00  0.00    -0.023 C 
ATOM      6  C14 UNL     1     145.826 126.105 100.756  0.00  0.00    +0.011 C 
ATOM      7  C15 UNL     1     146.927 125.053  98.779  0.00  0.00    +0.011 C 
ATOM      8  C16 UNL     1     146.585 127.532  98.813  0.00  0.00    +0.086 C 
ATOM      9  C17 UNL     1     145.636 128.671  99.101  0.00  0.00    +0.162 C 
ATOM     10  O3  UNL     1     146.064 129.745  99.516  0.00  0.00    -0.292 OA
ATOM     11  N1  UNL     1     142.301 127.022  98.403  0.00  0.00    -0.276 N 
ATOM     12  C18 UNL     1     141.377 128.068  98.668  0.00  0.00    +0.024 C 
ATOM     13  C19 UNL     1     141.815 129.322  98.926  0.00  0.00    +0.025 C 
ATOM     14  C20 UNL     1     140.852 130.416  99.257  0.00  0.00    +0.162 C 
ATOM     15  O4  UNL     1     141.240 131.504  99.675  0.00  0.00    -0.292 OA
ATOM     16  C21 UNL     1     139.379 130.163  99.040  0.00  0.00    +0.086 C 
ATOM     17  C22 UNL     1     138.993 128.736  99.435  0.00  0.00    -0.023 C 
ATOM     18  C23 UNL     1     137.521 128.488  99.060  0.00  0.00    +0.011 C 
ATOM     19  C24 UNL     1     139.141 128.532 100.957  0.00  0.00    +0.011 C 
ATOM     20  C25 UNL     1     139.887 127.743  98.666  0.00  0.00    +0.058 C 
ENDROOT
BRANCH  11  21
ATOM     21  C26 UNL     1     141.839 125.804  97.815  0.00  0.00    +0.040 A 
ATOM     22  C27 UNL     1     141.478 124.722  98.631  0.00  0.00    +0.025 A 
ATOM     23  C28 UNL     1     141.025 123.529  98.063  0.00  0.00    +0.023 A 
ATOM     24  C29 UNL     1     140.930 123.405  96.674  0.00  0.00    +0.059 A 
ATOM     25 CL1  UNL     1     140.364 121.902  96.038  0.00  0.00    -0.082 Cl
ATOM     26  C30 UNL     1     141.287 124.481  95.852  0.00  0.00    +0.061 A 
ATOM     27 CL2  UNL     1     141.195 124.400  94.129  0.00  0.00    -0.082 Cl
ATOM     28  C31 UNL     1     141.739 125.675  96.421  0.00  0.00    +0.045 A 
ENDBRANCH  11  21
BRANCH   1  33
ATOM     29  C2  UNL     1     143.561 130.907  95.226  0.00  0.00    +0.121 A 
ATOM     30  C3  UNL     1     144.060 132.196  95.395  0.00  0.00    +0.049 A 
ATOM     31  C4  UNL     1     144.309 132.688  96.679  0.00  0.00    +0.049 A 
ATOM     32  C5  UNL     1     144.050 131.901  97.806  0.00  0.00    +0.124 A 
ATOM     33  C7  UNL     1     143.571 130.590  97.660  0.00  0.00    +0.010 A 
ATOM     34  C8  UNL     1     143.325 130.116  96.354  0.00  0.00    +0.053 A 
BRANCH  29  36
ATOM     35  C1  UNL     1     142.520 131.062  93.098  0.00  0.00    +0.277 C 
ATOM     36  O1  UNL     1     143.273 130.303  94.034  0.00  0.00    -0.495 OA
ENDBRANCH  29  36
BRANCH  32  37
ATOM     37  O2  UNL     1     144.314 132.352  99.071  0.00  0.00    -0.495 OA
ATOM     38  C6  UNL     1     145.497 133.139  99.168  0.00  0.00    +0.277 C 
ENDBRANCH  32  37
ENDBRANCH   1  33
TORSDOF 4
ENDMDL
MODEL 8
REMARK VINA RESULT:    -4.500      3.278      7.100
REMARK INTER + INTRA:          -7.420
REMARK INTER:                  -5.473
REMARK INTRA:                  -1.947
REMARK UNBOUND:                -1.867
REMARK  Name = /home/vital/Documents/PhD_2021/Malaria_codes/data/pdb_ligands_mmv/ligand_256.pdb
REMARK  10 active torsions:
REMARK  status: ('A' for Active; 'I' for Inactive)
REMARK    1  A    between atoms: C1_1  and  O1_2
REMARK    2  A    between atoms: O1_2  and  C2_3
REMARK    3  A    between atoms: C5_6  and  O2_7
REMARK    4  A    between atoms: O2_7  and  C6_8
REMARK    5  A    between atoms: C7_9  and  C9_11
REMARK    6  A    between atoms: C13_15  and  C14_16
REMARK    7  A    between atoms: C13_15  and  C15_17
REMARK    8  A    between atoms: N1_21  and  C26_31
REMARK    9  A    between atoms: C22_27  and  C23_28
REMARK   10  A    between atoms: C22_27  and  C24_29
REMARK                            x       y       z     vdW  Elec       q    Type
REMARK                         _______ _______ _______ _____ _____    ______ ____
ROOT
ATOM      1  C9  UNL     1     143.695 128.893  99.350  0.00  0.00    +0.092 C 
ATOM      2  C10 UNL     1     142.230 128.814  99.757  0.00  0.00    +0.025 C 
ATOM      3  C11 UNL     1     141.462 127.732  99.486  0.00  0.00    +0.024 C 
ATOM      4  C12 UNL     1     140.010 127.663  99.950  0.00  0.00    +0.058 C 
ATOM      5  C13 UNL     1     139.357 129.024 100.274  0.00  0.00    -0.023 C 
ATOM      6  C14 UNL     1     139.014 129.785  98.975  0.00  0.00    +0.011 C 
ATOM      7  C15 UNL     1     138.048 128.786 101.048  0.00  0.00    +0.011 C 
ATOM      8  C16 UNL     1     140.315 129.842 101.142  0.00  0.00    +0.086 C 
ATOM      9  C17 UNL     1     141.667 129.987 100.485  0.00  0.00    +0.162 C 
ATOM     10  O3  UNL     1     142.287 131.044 100.570  0.00  0.00    -0.292 OA
ATOM     11  N1  UNL     1     141.990 126.638  98.751  0.00  0.00    -0.276 N 
ATOM     12  C18 UNL     1     143.256 126.739  98.115  0.00  0.00    +0.024 C 
ATOM     13  C19 UNL     1     144.060 127.802  98.352  0.00  0.00    +0.025 C 
ATOM     14  C20 UNL     1     145.370 127.941  97.648  0.00  0.00    +0.162 C 
ATOM     15  O4  UNL     1     146.021 128.981  97.708  0.00  0.00    -0.292 OA
ATOM     16  C21 UNL     1     145.898 126.755  96.874  0.00  0.00    +0.086 C 
ATOM     17  C22 UNL     1     144.773 126.023  96.140  0.00  0.00    -0.023 C 
ATOM     18  C23 UNL     1     145.340 124.748  95.490  0.00  0.00    +0.011 C 
ATOM     19  C24 UNL     1     144.184 126.909  95.022  0.00  0.00    +0.011 C 
ATOM     20  C25 UNL     1     143.680 125.633  97.155  0.00  0.00    +0.058 C 
ENDROOT
BRANCH  11  21
ATOM     21  C26 UNL     1     141.301 125.385  98.760  0.00  0.00    +0.040 A 
ATOM     22  C27 UNL     1     140.310 125.120  97.804  0.00  0.00    +0.025 A 
ATOM     23  C28 UNL     1     139.635 123.898  97.806  0.00  0.00    +0.023 A 
ATOM     24  C29 UNL     1     139.943 122.929  98.764  0.00  0.00    +0.059 A 
ATOM     25 CL1  UNL     1     139.069 121.440  98.711  0.00  0.00    -0.082 Cl
ATOM     26  C30 UNL     1     140.932 123.184  99.722  0.00  0.00    +0.061 A 
ATOM     27 CL2  UNL     1     141.365 122.034 100.936  0.00  0.00    -0.082 Cl
ATOM     28  C31 UNL     1     141.609 124.407  99.718  0.00  0.00    +0.045 A 
ENDBRANCH  11  21
BRANCH   1  33
ATOM     29  C2  UNL     1     145.421 127.533 102.519  0.00  0.00    +0.121 A 
ATOM     30  C3  UNL     1     146.256 128.593 102.861  0.00  0.00    +0.049 A 
ATOM     31  C4  UNL     1     146.276 129.749 102.076  0.00  0.00    +0.049 A 
ATOM     32  C5  UNL     1     145.470 129.851 100.936  0.00  0.00    +0.124 A 
ATOM     33  C7  UNL     1     144.603 128.805 100.586  0.00  0.00    +0.010 A 
ATOM     34  C8  UNL     1     144.601 127.647 101.393  0.00  0.00    +0.053 A 
BRANCH  29  36
ATOM     35  C1  UNL     1     144.069 125.655 103.056  0.00  0.00    +0.277 C 
ATOM     36  O1  UNL     1     145.302 126.348 103.193  0.00  0.00    -0.495 OA
ENDBRANCH  29  36
BRANCH  32  37
ATOM     37  O2  UNL     1     145.453 130.985 100.170  0.00  0.00    -0.495 OA
ATOM     38  C6  UNL     1     146.563 131.849 100.394  0.00  0.00    +0.277 C 
ENDBRANCH  32  37
ENDBRANCH   1  33
TORSDOF 4
ENDMDL
MODEL 9
REMARK VINA RESULT:    -4.232      2.719      4.050
REMARK INTER + INTRA:          -7.090
REMARK INTER:                  -5.126
REMARK INTRA:                  -1.964
REMARK UNBOUND:                -1.867
REMARK  Name = /home/vital/Documents/PhD_2021/Malaria_codes/data/pdb_ligands_mmv/ligand_256.pdb
REMARK  10 active torsions:
REMARK  status: ('A' for Active; 'I' for Inactive)
REMARK    1  A    between atoms: C1_1  and  O1_2
REMARK    2  A    between atoms: O1_2  and  C2_3
REMARK    3  A    between atoms: C5_6  and  O2_7
REMARK    4  A    between atoms: O2_7  and  C6_8
REMARK    5  A    between atoms: C7_9  and  C9_11
REMARK    6  A    between atoms: C13_15  and  C14_16
REMARK    7  A    between atoms: C13_15  and  C15_17
REMARK    8  A    between atoms: N1_21  and  C26_31
REMARK    9  A    between atoms: C22_27  and  C23_28
REMARK   10  A    between atoms: C22_27  and  C24_29
REMARK                            x       y       z     vdW  Elec       q    Type
REMARK                         _______ _______ _______ _____ _____    ______ ____
ROOT
ATOM      1  C9  UNL     1     144.232 128.577  99.849  0.00  0.00    +0.092 C 
ATOM      2  C10 UNL     1     144.904 127.973 101.075  0.00  0.00    +0.025 C 
ATOM      3  C11 UNL     1     144.218 127.254 101.995  0.00  0.00    +0.024 C 
ATOM      4  C12 UNL     1     144.929 126.621 103.187  0.00  0.00    +0.058 C 
ATOM      5  C13 UNL     1     146.298 127.238 103.541  0.00  0.00    -0.023 C 
ATOM      6  C14 UNL     1     146.115 128.600 104.243  0.00  0.00    +0.011 C 
ATOM      7  C15 UNL     1     147.042 126.299 104.508  0.00  0.00    +0.011 C 
ATOM      8  C16 UNL     1     147.119 127.396 102.260  0.00  0.00    +0.086 C 
ATOM      9  C17 UNL     1     146.371 128.198 101.221  0.00  0.00    +0.162 C 
ATOM     10  O3  UNL     1     146.969 128.999 100.507  0.00  0.00    -0.292 OA
ATOM     11  N1  UNL     1     142.813 127.083 101.876  0.00  0.00    -0.276 N 
ATOM     12  C18 UNL     1     142.075 127.823 100.914  0.00  0.00    +0.024 C 
ATOM     13  C19 UNL     1     142.715 128.557  99.974  0.00  0.00    +0.025 C 
ATOM     14  C20 UNL     1     141.945 129.379  98.992  0.00  0.00    +0.162 C 
ATOM     15  O4  UNL     1     142.505 130.191  98.260  0.00  0.00    -0.292 OA
ATOM     16  C21 UNL     1     140.452 129.170  98.896  0.00  0.00    +0.086 C 
ATOM     17  C22 UNL     1     139.830 128.950 100.276  0.00  0.00    -0.023 C 
ATOM     18  C23 UNL     1     138.340 128.600 100.109  0.00  0.00    +0.011 C 
ATOM     19  C24 UNL     1     139.928 130.231 101.130  0.00  0.00    +0.011 C 
ATOM     20  C25 UNL     1     140.552 127.778 100.972  0.00  0.00    +0.058 C 
ENDROOT
BRANCH  11  21
ATOM     21  C26 UNL     1     142.159 126.066 102.639  0.00  0.00    +0.040 A 
ATOM     22  C27 UNL     1     142.054 124.763 102.131  0.00  0.00    +0.025 A 
ATOM     23  C28 UNL     1     141.418 123.765 102.873  0.00  0.00    +0.023 A 
ATOM     24  C29 UNL     1     140.880 124.060 104.128  0.00  0.00    +0.059 A 
ATOM     25 CL1  UNL     1     140.105 122.779 104.991  0.00  0.00    -0.082 Cl
ATOM     26  C30 UNL     1     140.981 125.358 104.644  0.00  0.00    +0.061 A 
ATOM     27 CL2  UNL     1     140.340 125.795 106.187  0.00  0.00    -0.082 Cl
ATOM     28  C31 UNL     1     141.620 126.356 103.902  0.00  0.00    +0.045 A 
ENDBRANCH  11  21
BRANCH   1  33
ATOM     29  C2  UNL     1     144.744 125.766  97.259  0.00  0.00    +0.121 A 
ATOM     30  C3  UNL     1     145.440 126.433  96.255  0.00  0.00    +0.049 A 
ATOM     31  C4  UNL     1     145.746 127.789  96.398  0.00  0.00    +0.049 A 
ATOM     32  C5  UNL     1     145.349 128.493  97.540  0.00  0.00    +0.124 A 
ATOM     33  C7  UNL     1     144.668 127.835  98.576  0.00  0.00    +0.010 A 
ATOM     34  C8  UNL     1     144.368 126.467  98.409  0.00  0.00    +0.053 A 
BRANCH  29  36
ATOM     35  C1  UNL     1     143.543 124.008  98.313  0.00  0.00    +0.277 C 
ATOM     36  O1  UNL     1     144.379 124.447  97.250  0.00  0.00    -0.495 OA
ENDBRANCH  29  36
BRANCH  32  37
ATOM     37  O2  UNL     1     145.664 129.814  97.713  0.00  0.00    -0.495 OA
ATOM     38  C6  UNL     1     145.654 130.571  96.507  0.00  0.00    +0.277 C 
ENDBRANCH  32  37
ENDBRANCH   1  33
TORSDOF 4
ENDMDL
