MODEL 1
REMARK VINA RESULT:    -4.438      0.000      0.000
REMARK INTER + INTRA:          -6.644
REMARK INTER:                  -5.476
REMARK INTRA:                  -1.168
REMARK UNBOUND:                -1.168
REMARK  Name = /home/vital/Documents/PhD_2021/Malaria_codes/data/pdb_ligands_mmv/ligand_241.pdb
REMARK  5 active torsions:
REMARK  status: ('A' for Active; 'I' for Inactive)
REMARK    1  A    between atoms: C1_1  and  O1_2
REMARK    2  A    between atoms: O1_2  and  C2_3
REMARK    3  A    between atoms: C5_6  and  C8_9
REMARK    4  A    between atoms: C8_9  and  C9_11
REMARK    5  A    between atoms: C11_13  and  C12_14
REMARK                            x       y       z     vdW  Elec       q    Type
REMARK                         _______ _______ _______ _____ _____    ______ ____
ROOT
ATOM      1  C8  UNL     1     139.030 128.558  98.745  0.00  0.00    +0.167 C 
ATOM      2  O2  UNL     1     138.437 129.301  97.972  0.00  0.00    -0.292 OA
ENDROOT
BRANCH   1   6
ATOM      3  C2  UNL     1     141.868 125.662  97.309  0.00  0.00    +0.120 A 
ATOM      4  C3  UNL     1     140.568 125.289  97.656  0.00  0.00    +0.046 A 
ATOM      5  C4  UNL     1     139.652 126.239  98.116  0.00  0.00    +0.015 A 
ATOM      6  C5  UNL     1     140.033 127.579  98.241  0.00  0.00    +0.018 A 
ATOM      7  C6  UNL     1     141.335 127.956  97.890  0.00  0.00    +0.015 A 
ATOM      8  C7  UNL     1     142.248 126.999  97.426  0.00  0.00    +0.046 A 
BRANCH   3  10
ATOM      9  C1  UNL     1     142.045 123.646  96.060  0.00  0.00    +0.277 C 
ATOM     10  O1  UNL     1     142.659 124.636  96.873  0.00  0.00    -0.495 OA
ENDBRANCH   3  10
ENDBRANCH   1   6
BRANCH   1  11
ATOM     11  C9  UNL     1     138.764 128.640 100.211  0.00  0.00    +0.068 C 
ATOM     12  C10 UNL     1     139.767 128.055 101.175  0.00  0.00    +0.021 C 
ATOM     13  C11 UNL     1     139.576 129.549 101.123  0.00  0.00    +0.030 C 
BRANCH  13  14
ATOM     14  C12 UNL     1     140.634 130.473 100.557  0.00  0.00    -0.043 A 
ATOM     15  C13 UNL     1     140.319 131.652  99.860  0.00  0.00    +0.005 A 
ATOM     16  C14 UNL     1     141.315 132.489  99.345  0.00  0.00    +0.020 A 
ATOM     17  C15 UNL     1     142.654 132.152  99.510  0.00  0.00    +0.041 A 
ATOM     18 CL1  UNL     1     143.881 133.176  98.878  0.00  0.00    -0.084 Cl
ATOM     19  C16 UNL     1     143.001 130.984 100.179  0.00  0.00    +0.020 A 
ATOM     20  C17 UNL     1     141.998 130.153 100.689  0.00  0.00    +0.005 A 
ENDBRANCH  13  14
ENDBRANCH   1  11
TORSDOF 4
ENDMDL
MODEL 2
REMARK VINA RESULT:    -4.405      3.551      5.719
REMARK INTER + INTRA:          -6.603
REMARK INTER:                  -5.353
REMARK INTRA:                  -1.250
REMARK UNBOUND:                -1.168
REMARK  Name = /home/vital/Documents/PhD_2021/Malaria_codes/data/pdb_ligands_mmv/ligand_241.pdb
REMARK  5 active torsions:
REMARK  status: ('A' for Active; 'I' for Inactive)
REMARK    1  A    between atoms: C1_1  and  O1_2
REMARK    2  A    between atoms: O1_2  and  C2_3
REMARK    3  A    between atoms: C5_6  and  C8_9
REMARK    4  A    between atoms: C8_9  and  C9_11
REMARK    5  A    between atoms: C11_13  and  C12_14
REMARK                            x       y       z     vdW  Elec       q    Type
REMARK                         _______ _______ _______ _____ _____    ______ ____
ROOT
ATOM      1  C8  UNL     1     143.094 130.520 101.166  0.00  0.00    +0.167 C 
ATOM      2  O2  UNL     1     143.127 131.452 101.960  0.00  0.00    -0.292 OA
ENDROOT
BRANCH   1   6
ATOM      3  C2  UNL     1     139.508 129.501  99.019  0.00  0.00    +0.120 A 
ATOM      4  C3  UNL     1     140.770 129.279  98.465  0.00  0.00    +0.046 A 
ATOM      5  C4  UNL     1     141.929 129.609  99.172  0.00  0.00    +0.015 A 
ATOM      6  C5  UNL     1     141.835 130.174 100.448  0.00  0.00    +0.018 A 
ATOM      7  C6  UNL     1     140.571 130.394 101.008  0.00  0.00    +0.015 A 
ATOM      8  C7  UNL     1     139.412 130.058 100.294  0.00  0.00    +0.046 A 
BRANCH   3  10
ATOM      9  C1  UNL     1     138.476 127.808  97.705  0.00  0.00    +0.277 C 
ATOM     10  O1  UNL     1     138.461 129.132  98.222  0.00  0.00    -0.495 OA
ENDBRANCH   3  10
ENDBRANCH   1   6
BRANCH   1  11
ATOM     11  C9  UNL     1     144.328 129.728 100.892  0.00  0.00    +0.068 C 
ATOM     12  C10 UNL     1     145.288 129.444 102.022  0.00  0.00    +0.021 C 
ATOM     13  C11 UNL     1     144.503 128.309 101.416  0.00  0.00    +0.030 C 
BRANCH  13  14
ATOM     14  C12 UNL     1     143.387 127.616 102.169  0.00  0.00    -0.043 A 
ATOM     15  C13 UNL     1     143.144 127.833 103.536  0.00  0.00    +0.005 A 
ATOM     16  C14 UNL     1     142.106 127.180 104.210  0.00  0.00    +0.020 A 
ATOM     17  C15 UNL     1     141.295 126.282 103.525  0.00  0.00    +0.041 A 
ATOM     18 CL1  UNL     1     140.019 125.476 104.348  0.00  0.00    -0.084 Cl
ATOM     19  C16 UNL     1     141.518 126.031 102.176  0.00  0.00    +0.020 A 
ATOM     20  C17 UNL     1     142.559 126.688 101.512  0.00  0.00    +0.005 A 
ENDBRANCH  13  14
ENDBRANCH   1  11
TORSDOF 4
ENDMDL
MODEL 3
REMARK VINA RESULT:    -4.392      3.862      5.754
REMARK INTER + INTRA:          -6.587
REMARK INTER:                  -5.355
REMARK INTRA:                  -1.232
REMARK UNBOUND:                -1.168
REMARK  Name = /home/vital/Documents/PhD_2021/Malaria_codes/data/pdb_ligands_mmv/ligand_241.pdb
REMARK  5 active torsions:
REMARK  status: ('A' for Active; 'I' for Inactive)
REMARK    1  A    between atoms: C1_1  and  O1_2
REMARK    2  A    between atoms: O1_2  and  C2_3
REMARK    3  A    between atoms: C5_6  and  C8_9
REMARK    4  A    between atoms: C8_9  and  C9_11
REMARK    5  A    between atoms: C11_13  and  C12_14
REMARK                            x       y       z     vdW  Elec       q    Type
REMARK                         _______ _______ _______ _____ _____    ______ ____
ROOT
ATOM      1  C8  UNL     1     143.353 128.145 101.823  0.00  0.00    +0.167 C 
ATOM      2  O2  UNL     1     144.086 127.649 100.977  0.00  0.00    -0.292 OA
ENDROOT
BRANCH   1   6
ATOM      3  C2  UNL     1     140.994 125.608 104.372  0.00  0.00    +0.120 A 
ATOM      4  C3  UNL     1     141.148 125.325 103.013  0.00  0.00    +0.046 A 
ATOM      5  C4  UNL     1     141.920 126.153 102.195  0.00  0.00    +0.015 A 
ATOM      6  C5  UNL     1     142.546 127.284 102.731  0.00  0.00    +0.018 A 
ATOM      7  C6  UNL     1     142.397 127.566 104.094  0.00  0.00    +0.015 A 
ATOM      8  C7  UNL     1     141.623 126.731 104.910  0.00  0.00    +0.046 A 
BRANCH   3  10
ATOM      9  C1  UNL     1     138.827 125.012 105.151  0.00  0.00    +0.277 C 
ATOM     10  O1  UNL     1     140.214 124.717 105.056  0.00  0.00    -0.495 OA
ENDBRANCH   3  10
ENDBRANCH   1   6
BRANCH   1  11
ATOM     11  C9  UNL     1     143.275 129.628 101.968  0.00  0.00    +0.068 C 
ATOM     12  C10 UNL     1     143.603 130.503 100.782  0.00  0.00    +0.021 C 
ATOM     13  C11 UNL     1     142.184 130.444 101.287  0.00  0.00    +0.030 C 
BRANCH  13  14
ATOM     14  C12 UNL     1     141.083 129.765 100.502  0.00  0.00    -0.043 A 
ATOM     15  C13 UNL     1     141.218 129.420  99.146  0.00  0.00    +0.005 A 
ATOM     16  C14 UNL     1     140.185 128.794  98.441  0.00  0.00    +0.020 A 
ATOM     17  C15 UNL     1     138.984 128.510  99.082  0.00  0.00    +0.041 A 
ATOM     18 CL1  UNL     1     137.710 127.741  98.220  0.00  0.00    -0.084 Cl
ATOM     19  C16 UNL     1     138.810 128.853 100.417  0.00  0.00    +0.020 A 
ATOM     20  C17 UNL     1     139.848 129.480 101.114  0.00  0.00    +0.005 A 
ENDBRANCH  13  14
ENDBRANCH   1  11
TORSDOF 4
ENDMDL
MODEL 4
REMARK VINA RESULT:    -4.366      2.921      5.877
REMARK INTER + INTRA:          -6.554
REMARK INTER:                  -5.542
REMARK INTRA:                  -1.012
REMARK UNBOUND:                -1.168
REMARK  Name = /home/vital/Documents/PhD_2021/Malaria_codes/data/pdb_ligands_mmv/ligand_241.pdb
REMARK  5 active torsions:
REMARK  status: ('A' for Active; 'I' for Inactive)
REMARK    1  A    between atoms: C1_1  and  O1_2
REMARK    2  A    between atoms: O1_2  and  C2_3
REMARK    3  A    between atoms: C5_6  and  C8_9
REMARK    4  A    between atoms: C8_9  and  C9_11
REMARK    5  A    between atoms: C11_13  and  C12_14
REMARK                            x       y       z     vdW  Elec       q    Type
REMARK                         _______ _______ _______ _____ _____    ______ ____
ROOT
ATOM      1  C8  UNL     1     140.168 130.426  99.644  0.00  0.00    +0.167 C 
ATOM      2  O2  UNL     1     139.291 130.522  98.794  0.00  0.00    -0.292 OA
ENDROOT
BRANCH   1   6
ATOM      3  C2  UNL     1     143.886 132.526  99.123  0.00  0.00    +0.120 A 
ATOM      4  C3  UNL     1     142.663 133.143  98.851  0.00  0.00    +0.046 A 
ATOM      5  C4  UNL     1     141.461 132.454  99.028  0.00  0.00    +0.015 A 
ATOM      6  C5  UNL     1     141.471 131.129  99.476  0.00  0.00    +0.018 A 
ATOM      7  C6  UNL     1     142.695 130.510  99.754  0.00  0.00    +0.015 A 
ATOM      8  C7  UNL     1     143.898 131.207  99.576  0.00  0.00    +0.046 A 
BRANCH   3  10
ATOM      9  C1  UNL     1     144.778 134.530  98.202  0.00  0.00    +0.277 C 
ATOM     10  O1  UNL     1     144.983 133.313  98.908  0.00  0.00    -0.495 OA
ENDBRANCH   3  10
ENDBRANCH   1   6
BRANCH   1  11
ATOM     11  C9  UNL     1     139.932 129.614 100.873  0.00  0.00    +0.068 C 
ATOM     12  C10 UNL     1     138.673 128.789 100.981  0.00  0.00    +0.021 C 
ATOM     13  C11 UNL     1     140.004 128.093 100.856  0.00  0.00    +0.030 C 
BRANCH  13  14
ATOM     14  C12 UNL     1     140.403 127.349  99.599  0.00  0.00    -0.043 A 
ATOM     15  C13 UNL     1     139.471 126.942  98.628  0.00  0.00    +0.005 A 
ATOM     16  C14 UNL     1     139.865 126.254  97.475  0.00  0.00    +0.020 A 
ATOM     17  C15 UNL     1     141.207 125.949  97.277  0.00  0.00    +0.041 A 
ATOM     18 CL1  UNL     1     141.695 125.104  95.862  0.00  0.00    -0.084 Cl
ATOM     19  C16 UNL     1     142.153 126.321  98.224  0.00  0.00    +0.020 A 
ATOM     20  C17 UNL     1     141.750 127.008  99.374  0.00  0.00    +0.005 A 
ENDBRANCH  13  14
ENDBRANCH   1  11
TORSDOF 4
ENDMDL
MODEL 5
REMARK VINA RESULT:    -4.327      3.031      5.699
REMARK INTER + INTRA:          -6.506
REMARK INTER:                  -5.367
REMARK INTRA:                  -1.139
REMARK UNBOUND:                -1.168
REMARK  Name = /home/vital/Documents/PhD_2021/Malaria_codes/data/pdb_ligands_mmv/ligand_241.pdb
REMARK  5 active torsions:
REMARK  status: ('A' for Active; 'I' for Inactive)
REMARK    1  A    between atoms: C1_1  and  O1_2
REMARK    2  A    between atoms: O1_2  and  C2_3
REMARK    3  A    between atoms: C5_6  and  C8_9
REMARK    4  A    between atoms: C8_9  and  C9_11
REMARK    5  A    between atoms: C11_13  and  C12_14
REMARK                            x       y       z     vdW  Elec       q    Type
REMARK                         _______ _______ _______ _____ _____    ______ ____
ROOT
ATOM      1  C8  UNL     1     140.012 130.076  99.281  0.00  0.00    +0.167 C 
ATOM      2  O2  UNL     1     139.432 129.685  98.275  0.00  0.00    -0.292 OA
ENDROOT
BRANCH   1   6
ATOM      3  C2  UNL     1     143.499 132.578  98.982  0.00  0.00    +0.120 A 
ATOM      4  C3  UNL     1     142.239 133.122  99.240  0.00  0.00    +0.046 A 
ATOM      5  C4  UNL     1     141.114 132.299  99.340  0.00  0.00    +0.015 A 
ATOM      6  C5  UNL     1     141.238 130.916  99.175  0.00  0.00    +0.018 A 
ATOM      7  C6  UNL     1     142.501 130.368  98.921  0.00  0.00    +0.015 A 
ATOM      8  C7  UNL     1     143.626 131.198  98.825  0.00  0.00    +0.046 A 
BRANCH   3  10
ATOM      9  C1  UNL     1     144.202 134.758  98.343  0.00  0.00    +0.277 C 
ATOM     10  O1  UNL     1     144.512 133.493  98.911  0.00  0.00    -0.495 OA
ENDBRANCH   3  10
ENDBRANCH   1   6
BRANCH   1  11
ATOM     11  C9  UNL     1     139.483 129.727 100.631  0.00  0.00    +0.068 C 
ATOM     12  C10 UNL     1     138.515 128.577 100.769  0.00  0.00    +0.021 C 
ATOM     13  C11 UNL     1     139.900 128.451 101.351  0.00  0.00    +0.030 C 
BRANCH  13  14
ATOM     14  C12 UNL     1     140.938 127.526 100.753  0.00  0.00    -0.043 A 
ATOM     15  C13 UNL     1     140.638 126.607  99.732  0.00  0.00    +0.005 A 
ATOM     16  C14 UNL     1     141.615 125.761  99.196  0.00  0.00    +0.020 A 
ATOM     17  C15 UNL     1     142.916 125.812  99.683  0.00  0.00    +0.041 A 
ATOM     18 CL1  UNL     1     144.120 124.774  99.028  0.00  0.00    -0.084 Cl
ATOM     19  C16 UNL     1     143.243 126.696 100.704  0.00  0.00    +0.020 A 
ATOM     20  C17 UNL     1     142.260 127.537 101.234  0.00  0.00    +0.005 A 
ENDBRANCH  13  14
ENDBRANCH   1  11
TORSDOF 4
ENDMDL
MODEL 6
REMARK VINA RESULT:    -4.283      3.329      5.478
REMARK INTER + INTRA:          -6.452
REMARK INTER:                  -5.154
REMARK INTRA:                  -1.298
REMARK UNBOUND:                -1.168
REMARK  Name = /home/vital/Documents/PhD_2021/Malaria_codes/data/pdb_ligands_mmv/ligand_241.pdb
REMARK  5 active torsions:
REMARK  status: ('A' for Active; 'I' for Inactive)
REMARK    1  A    between atoms: C1_1  and  O1_2
REMARK    2  A    between atoms: O1_2  and  C2_3
REMARK    3  A    between atoms: C5_6  and  C8_9
REMARK    4  A    between atoms: C8_9  and  C9_11
REMARK    5  A    between atoms: C11_13  and  C12_14
REMARK                            x       y       z     vdW  Elec       q    Type
REMARK                         _______ _______ _______ _____ _____    ______ ____
ROOT
ATOM      1  C8  UNL     1     143.576 130.657 101.238  0.00  0.00    +0.167 C 
ATOM      2  O2  UNL     1     143.272 131.474 102.099  0.00  0.00    -0.292 OA
ENDROOT
BRANCH   1   6
ATOM      3  C2  UNL     1     143.117 131.656  97.079  0.00  0.00    +0.120 A 
ATOM      4  C3  UNL     1     142.182 132.072  98.029  0.00  0.00    +0.046 A 
ATOM      5  C4  UNL     1     142.343 131.746  99.379  0.00  0.00    +0.015 A 
ATOM      6  C5  UNL     1     143.446 130.991  99.792  0.00  0.00    +0.018 A 
ATOM      7  C6  UNL     1     144.387 130.577  98.841  0.00  0.00    +0.015 A 
ATOM      8  C7  UNL     1     144.221 130.909  97.490  0.00  0.00    +0.046 A 
BRANCH   3  10
ATOM      9  C1  UNL     1     143.339 131.222  94.751  0.00  0.00    +0.277 C 
ATOM     10  O1  UNL     1     142.839 132.043  95.798  0.00  0.00    -0.495 OA
ENDBRANCH   3  10
ENDBRANCH   1   6
BRANCH   1  11
ATOM     11  C9  UNL     1     144.102 129.317 101.631  0.00  0.00    +0.068 C 
ATOM     12  C10 UNL     1     143.500 128.609 102.820  0.00  0.00    +0.021 C 
ATOM     13  C11 UNL     1     143.285 128.047 101.438  0.00  0.00    +0.030 C 
BRANCH  13  14
ATOM     14  C12 UNL     1     141.933 128.089 100.758  0.00  0.00    -0.043 A 
ATOM     15  C13 UNL     1     140.735 128.307 101.462  0.00  0.00    +0.005 A 
ATOM     16  C14 UNL     1     139.497 128.340 100.811  0.00  0.00    +0.020 A 
ATOM     17  C15 UNL     1     139.434 128.143  99.436  0.00  0.00    +0.041 A 
ATOM     18 CL1  UNL     1     137.915 128.183  98.632  0.00  0.00    -0.084 Cl
ATOM     19  C16 UNL     1     140.597 127.908  98.712  0.00  0.00    +0.020 A 
ATOM     20  C17 UNL     1     141.829 127.876  99.372  0.00  0.00    +0.005 A 
ENDBRANCH  13  14
ENDBRANCH   1  11
TORSDOF 4
ENDMDL
MODEL 7
REMARK VINA RESULT:    -4.264      1.623      1.923
REMARK INTER + INTRA:          -6.429
REMARK INTER:                  -5.166
REMARK INTRA:                  -1.263
REMARK UNBOUND:                -1.168
REMARK  Name = /home/vital/Documents/PhD_2021/Malaria_codes/data/pdb_ligands_mmv/ligand_241.pdb
REMARK  5 active torsions:
REMARK  status: ('A' for Active; 'I' for Inactive)
REMARK    1  A    between atoms: C1_1  and  O1_2
REMARK    2  A    between atoms: O1_2  and  C2_3
REMARK    3  A    between atoms: C5_6  and  C8_9
REMARK    4  A    between atoms: C8_9  and  C9_11
REMARK    5  A    between atoms: C11_13  and  C12_14
REMARK                            x       y       z     vdW  Elec       q    Type
REMARK                         _______ _______ _______ _____ _____    ______ ____
ROOT
ATOM      1  C8  UNL     1     139.995 127.859 100.602  0.00  0.00    +0.167 C 
ATOM      2  O2  UNL     1     140.193 127.537 101.767  0.00  0.00    -0.292 OA
ENDROOT
BRANCH   1   6
ATOM      3  C2  UNL     1     141.775 125.677  97.350  0.00  0.00    +0.120 A 
ATOM      4  C3  UNL     1     140.388 125.789  97.471  0.00  0.00    +0.046 A 
ATOM      5  C4  UNL     1     139.821 126.504  98.529  0.00  0.00    +0.015 A 
ATOM      6  C5  UNL     1     140.640 127.113  99.485  0.00  0.00    +0.018 A 
ATOM      7  C6  UNL     1     142.031 127.006  99.362  0.00  0.00    +0.015 A 
ATOM      8  C7  UNL     1     142.594 126.289  98.298  0.00  0.00    +0.046 A 
BRANCH   3  10
ATOM      9  C1  UNL     1     141.670 125.315  95.001  0.00  0.00    +0.277 C 
ATOM     10  O1  UNL     1     142.196 124.951  96.270  0.00  0.00    -0.495 OA
ENDBRANCH   3  10
ENDBRANCH   1   6
BRANCH   1  11
ATOM     11  C9  UNL     1     139.085 128.998 100.286  0.00  0.00    +0.068 C 
ATOM     12  C10 UNL     1     138.899 130.097 101.303  0.00  0.00    +0.021 C 
ATOM     13  C11 UNL     1     139.617 130.398 100.012  0.00  0.00    +0.030 C 
BRANCH  13  14
ATOM     14  C12 UNL     1     141.106 130.668  99.969  0.00  0.00    -0.043 A 
ATOM     15  C13 UNL     1     141.865 130.927 101.123  0.00  0.00    +0.005 A 
ATOM     16  C14 UNL     1     143.241 131.175 101.057  0.00  0.00    +0.020 A 
ATOM     17  C15 UNL     1     143.883 131.179  99.824  0.00  0.00    +0.041 A 
ATOM     18 CL1  UNL     1     145.574 131.484  99.737  0.00  0.00    -0.084 Cl
ATOM     19  C16 UNL     1     143.160 130.944  98.661  0.00  0.00    +0.020 A 
ATOM     20  C17 UNL     1     141.786 130.698  98.737  0.00  0.00    +0.005 A 
ENDBRANCH  13  14
ENDBRANCH   1  11
TORSDOF 4
ENDMDL
MODEL 8
REMARK VINA RESULT:    -4.147      3.009      5.608
REMARK INTER + INTRA:          -6.285
REMARK INTER:                  -5.288
REMARK INTRA:                  -0.997
REMARK UNBOUND:                -1.168
REMARK  Name = /home/vital/Documents/PhD_2021/Malaria_codes/data/pdb_ligands_mmv/ligand_241.pdb
REMARK  5 active torsions:
REMARK  status: ('A' for Active; 'I' for Inactive)
REMARK    1  A    between atoms: C1_1  and  O1_2
REMARK    2  A    between atoms: O1_2  and  C2_3
REMARK    3  A    between atoms: C5_6  and  C8_9
REMARK    4  A    between atoms: C8_9  and  C9_11
REMARK    5  A    between atoms: C11_13  and  C12_14
REMARK                            x       y       z     vdW  Elec       q    Type
REMARK                         _______ _______ _______ _____ _____    ______ ____
ROOT
ATOM      1  C8  UNL     1     139.269 128.536 100.312  0.00  0.00    +0.167 C 
ATOM      2  O2  UNL     1     138.590 128.347 101.314  0.00  0.00    -0.292 OA
ENDROOT
BRANCH   1   6
ATOM      3  C2  UNL     1     141.955 131.883 100.027  0.00  0.00    +0.120 A 
ATOM      4  C3  UNL     1     140.802 131.814  99.242  0.00  0.00    +0.046 A 
ATOM      5  C4  UNL     1     139.934 130.724  99.346  0.00  0.00    +0.015 A 
ATOM      6  C5  UNL     1     140.215 129.684 100.238  0.00  0.00    +0.018 A 
ATOM      7  C6  UNL     1     141.368 129.754 101.029  0.00  0.00    +0.015 A 
ATOM      8  C7  UNL     1     142.234 130.851 100.922  0.00  0.00    +0.046 A 
BRANCH   3  10
ATOM      9  C1  UNL     1     142.641 133.614  98.546  0.00  0.00    +0.277 C 
ATOM     10  O1  UNL     1     142.715 133.002  99.827  0.00  0.00    -0.495 OA
ENDBRANCH   3  10
ENDBRANCH   1   6
BRANCH   1  11
ATOM     11  C9  UNL     1     139.167 127.601  99.154  0.00  0.00    +0.068 C 
ATOM     12  C10 UNL     1     140.064 127.808  97.957  0.00  0.00    +0.021 C 
ATOM     13  C11 UNL     1     140.268 126.599  98.833  0.00  0.00    +0.030 C 
BRANCH  13  14
ATOM     14  C12 UNL     1     141.476 126.458  99.735  0.00  0.00    -0.043 A 
ATOM     15  C13 UNL     1     141.411 125.855 101.004  0.00  0.00    +0.005 A 
ATOM     16  C14 UNL     1     142.541 125.738 101.820  0.00  0.00    +0.020 A 
ATOM     17  C15 UNL     1     143.764 126.236 101.382  0.00  0.00    +0.041 A 
ATOM     18 CL1  UNL     1     145.156 126.095 102.382  0.00  0.00    -0.084 Cl
ATOM     19  C16 UNL     1     143.860 126.853 100.141  0.00  0.00    +0.020 A 
ATOM     20  C17 UNL     1     142.725 126.967  99.333  0.00  0.00    +0.005 A 
ENDBRANCH  13  14
ENDBRANCH   1  11
TORSDOF 4
ENDMDL
MODEL 9
REMARK VINA RESULT:    -4.051     12.200     14.589
REMARK INTER + INTRA:          -6.166
REMARK INTER:                  -4.984
REMARK INTRA:                  -1.182
REMARK UNBOUND:                -1.168
REMARK  Name = /home/vital/Documents/PhD_2021/Malaria_codes/data/pdb_ligands_mmv/ligand_241.pdb
REMARK  5 active torsions:
REMARK  status: ('A' for Active; 'I' for Inactive)
REMARK    1  A    between atoms: C1_1  and  O1_2
REMARK    2  A    between atoms: O1_2  and  C2_3
REMARK    3  A    between atoms: C5_6  and  C8_9
REMARK    4  A    between atoms: C8_9  and  C9_11
REMARK    5  A    between atoms: C11_13  and  C12_14
REMARK                            x       y       z     vdW  Elec       q    Type
REMARK                         _______ _______ _______ _____ _____    ______ ____
ROOT
ATOM      1  C8  UNL     1     134.563 122.909  85.815  0.00  0.00    +0.167 C 
ATOM      2  O2  UNL     1     135.509 122.140  85.706  0.00  0.00    -0.292 OA
ENDROOT
BRANCH   1   6
ATOM      3  C2  UNL     1     131.197 121.866  88.283  0.00  0.00    +0.120 A 
ATOM      4  C3  UNL     1     132.438 122.174  88.845  0.00  0.00    +0.046 A 
ATOM      5  C4  UNL     1     133.523 122.516  88.035  0.00  0.00    +0.015 A 
ATOM      6  C5  UNL     1     133.379 122.548  86.644  0.00  0.00    +0.018 A 
ATOM      7  C6  UNL     1     132.135 122.245  86.078  0.00  0.00    +0.015 A 
ATOM      8  C7  UNL     1     131.049 121.904  86.896  0.00  0.00    +0.046 A 
BRANCH   3  10
ATOM      9  C1  UNL     1     130.282 122.193  90.454  0.00  0.00    +0.277 C 
ATOM     10  O1  UNL     1     130.223 121.549  89.188  0.00  0.00    -0.495 OA
ENDBRANCH   3  10
ENDBRANCH   1   6
BRANCH   1  11
ATOM     11  C9  UNL     1     134.594 124.235  85.130  0.00  0.00    +0.068 C 
ATOM     12  C10 UNL     1     133.784 125.376  85.694  0.00  0.00    +0.021 C 
ATOM     13  C11 UNL     1     135.289 125.441  85.749  0.00  0.00    +0.030 C 
BRANCH  13  14
ATOM     14  C12 UNL     1     136.049 125.315  87.052  0.00  0.00    -0.043 A 
ATOM     15  C13 UNL     1     135.487 125.654  88.295  0.00  0.00    +0.005 A 
ATOM     16  C14 UNL     1     136.210 125.531  89.486  0.00  0.00    +0.020 A 
ATOM     17  C15 UNL     1     137.523 125.073  89.452  0.00  0.00    +0.041 A 
ATOM     18 CL1  UNL     1     138.417 124.921  90.914  0.00  0.00    -0.084 Cl
ATOM     19  C16 UNL     1     138.116 124.746  88.239  0.00  0.00    +0.020 A 
ATOM     20  C17 UNL     1     137.385 124.874  87.054  0.00  0.00    +0.005 A 
ENDBRANCH  13  14
ENDBRANCH   1  11
TORSDOF 4
ENDMDL
