MODEL 1
REMARK VINA RESULT:    -5.280      0.000      0.000
REMARK INTER + INTRA:          -7.483
REMARK INTER:                  -6.824
REMARK INTRA:                  -0.659
REMARK UNBOUND:                -0.659
REMARK  Name = /home/vital/Documents/PhD_2021/Malaria_codes/data/pdb_ligands_mmv/ligand_177.pdb
REMARK  5 active torsions:
REMARK  status: ('A' for Active; 'I' for Inactive)
REMARK    1  A    between atoms: C6_8  and  C7_9
REMARK    2  A    between atoms: C8_11  and  C9_12
REMARK    3  A    between atoms: C9_12  and  N1_13
REMARK    4  A    between atoms: N1_13  and  C10_14
REMARK    5  A    between atoms: C10_14  and  C11_15
REMARK                            x       y       z     vdW  Elec       q    Type
REMARK                         _______ _______ _______ _____ _____    ______ ____
ROOT
ATOM      1  C7  UNL     1     141.393 127.569 102.042  0.00  0.00    +0.137 A 
ATOM      2  O1  UNL     1     141.303 127.628 103.400  0.00  0.00    -0.458 OA
ATOM      3  C8  UNL     1     141.300 126.344 103.865  0.00  0.00    +0.119 A 
ATOM      4  C16 UNL     1     141.403 125.462 102.810  0.00  0.00    +0.046 A 
ATOM      5  C17 UNL     1     141.474 126.251 101.636  0.00  0.00    +0.050 A 
ENDROOT
BRANCH   1  13
ATOM      6 CL1  UNL     1     138.744 128.726 100.780  0.00  0.00    -0.083 Cl
ATOM      7  C1  UNL     1     140.313 129.461 100.772  0.00  0.00    +0.053 A 
ATOM      8  C2  UNL     1     140.425 130.697 100.123  0.00  0.00    +0.036 A 
ATOM      9  C3  UNL     1     141.665 131.325 100.038  0.00  0.00    +0.019 A 
ATOM     10 BR1  UNL     1     141.813 132.994  99.163  0.00  0.00    -0.050 Br
ATOM     11  C4  UNL     1     142.796 130.732 100.589  0.00  0.00    +0.016 A 
ATOM     12  C5  UNL     1     142.684 129.499 101.236  0.00  0.00    +0.014 A 
ATOM     13  C6  UNL     1     141.442 128.847 101.345  0.00  0.00    +0.036 A 
ENDBRANCH   1  13
BRANCH   3  14
ATOM     14  C9  UNL     1     141.194 126.169 105.341  0.00  0.00    +0.155 C 
BRANCH  14  15
ATOM     15  N1  UNL     1     139.884 125.656 105.760  0.00  0.00    -0.309 NA
ATOM     16  H6  UNL     1     139.543 126.284 106.490  0.00  0.00    +0.122 HD
BRANCH  15  17
ATOM     17  C10 UNL     1     139.963 124.291 106.283  0.00  0.00    +0.085 C 
BRANCH  17  18
ATOM     18  C11 UNL     1     138.723 123.441 105.940  0.00  0.00    +0.005 C 
ATOM     19  C12 UNL     1     138.070 122.807 107.177  0.00  0.00    +0.020 C 
ATOM     20  C13 UNL     1     136.842 121.985 106.784  0.00  0.00    +0.081 C 
ATOM     21  N2  UNL     1     135.863 122.787 106.046  0.00  0.00    -0.316 NA
ATOM     22  C14 UNL     1     136.457 123.350 104.831  0.00  0.00    +0.081 C 
ATOM     23  C15 UNL     1     137.671 124.225 105.140  0.00  0.00    +0.020 C 
ATOM     24  H14 UNL     1     135.554 123.556 106.642  0.00  0.00    +0.122 HD
ENDBRANCH  17  18
ENDBRANCH  15  17
ENDBRANCH  14  15
ENDBRANCH   3  14
TORSDOF 5
ENDMDL
MODEL 2
REMARK VINA RESULT:    -5.224      6.085      8.374
REMARK INTER + INTRA:          -7.410
REMARK INTER:                  -6.460
REMARK INTRA:                  -0.950
REMARK UNBOUND:                -0.659
REMARK  Name = /home/vital/Documents/PhD_2021/Malaria_codes/data/pdb_ligands_mmv/ligand_177.pdb
REMARK  5 active torsions:
REMARK  status: ('A' for Active; 'I' for Inactive)
REMARK    1  A    between atoms: C6_8  and  C7_9
REMARK    2  A    between atoms: C8_11  and  C9_12
REMARK    3  A    between atoms: C9_12  and  N1_13
REMARK    4  A    between atoms: N1_13  and  C10_14
REMARK    5  A    between atoms: C10_14  and  C11_15
REMARK                            x       y       z     vdW  Elec       q    Type
REMARK                         _______ _______ _______ _____ _____    ______ ____
ROOT
ATOM      1  C7  UNL     1     140.471 130.530  99.648  0.00  0.00    +0.137 A 
ATOM      2  O1  UNL     1     139.911 129.854  98.605  0.00  0.00    -0.458 OA
ATOM      3  C8  UNL     1     138.963 129.019  99.124  0.00  0.00    +0.119 A 
ATOM      4  C16 UNL     1     138.902 129.169 100.493  0.00  0.00    +0.046 A 
ATOM      5  C17 UNL     1     139.866 130.151 100.829  0.00  0.00    +0.050 A 
ENDROOT
BRANCH   1  13
ATOM      6 CL1  UNL     1     143.445 129.551  99.264  0.00  0.00    -0.083 Cl
ATOM      7  C1  UNL     1     142.845 131.168  99.085  0.00  0.00    +0.053 A 
ATOM      8  C2  UNL     1     143.782 132.152  98.747  0.00  0.00    +0.036 A 
ATOM      9  C3  UNL     1     143.380 133.480  98.630  0.00  0.00    +0.019 A 
ATOM     10 BR1  UNL     1     144.647 134.807  98.173  0.00  0.00    -0.050 Br
ATOM     11  C4  UNL     1     142.055 133.838  98.851  0.00  0.00    +0.016 A 
ATOM     12  C5  UNL     1     141.120 132.856  99.189  0.00  0.00    +0.014 A 
ATOM     13  C6  UNL     1     141.497 131.505  99.303  0.00  0.00    +0.036 A 
ENDBRANCH   1  13
BRANCH   3  14
ATOM     14  C9  UNL     1     138.225 128.163  98.153  0.00  0.00    +0.155 C 
BRANCH  14  15
ATOM     15  N1  UNL     1     138.897 128.070  96.851  0.00  0.00    -0.309 NA
ATOM     16  H6  UNL     1     138.165 127.942  96.151  0.00  0.00    +0.122 HD
BRANCH  15  17
ATOM     17  C10 UNL     1     139.837 126.949  96.790  0.00  0.00    +0.085 C 
BRANCH  17  18
ATOM     18  C11 UNL     1     140.958 127.157  95.753  0.00  0.00    +0.005 C 
ATOM     19  C12 UNL     1     140.435 127.649  94.394  0.00  0.00    +0.020 C 
ATOM     20  C13 UNL     1     141.586 127.850  93.408  0.00  0.00    +0.081 C 
ATOM     21  N2  UNL     1     142.596 128.773  93.929  0.00  0.00    -0.316 NA
ATOM     22  C14 UNL     1     143.147 128.286  95.196  0.00  0.00    +0.081 C 
ATOM     23  C15 UNL     1     142.063 128.099  96.257  0.00  0.00    +0.020 C 
ATOM     24  H14 UNL     1     142.157 129.680  94.094  0.00  0.00    +0.122 HD
ENDBRANCH  17  18
ENDBRANCH  15  17
ENDBRANCH  14  15
ENDBRANCH   3  14
TORSDOF 5
ENDMDL
MODEL 3
REMARK VINA RESULT:    -4.841      5.609      7.445
REMARK INTER + INTRA:          -6.915
REMARK INTER:                  -5.702
REMARK INTRA:                  -1.213
REMARK UNBOUND:                -0.659
REMARK  Name = /home/vital/Documents/PhD_2021/Malaria_codes/data/pdb_ligands_mmv/ligand_177.pdb
REMARK  5 active torsions:
REMARK  status: ('A' for Active; 'I' for Inactive)
REMARK    1  A    between atoms: C6_8  and  C7_9
REMARK    2  A    between atoms: C8_11  and  C9_12
REMARK    3  A    between atoms: C9_12  and  N1_13
REMARK    4  A    between atoms: N1_13  and  C10_14
REMARK    5  A    between atoms: C10_14  and  C11_15
REMARK                            x       y       z     vdW  Elec       q    Type
REMARK                         _______ _______ _______ _____ _____    ______ ____
ROOT
ATOM      1  C7  UNL     1     139.932 128.453 100.041  0.00  0.00    +0.137 A 
ATOM      2  O1  UNL     1     140.753 129.472  99.661  0.00  0.00    -0.458 OA
ATOM      3  C8  UNL     1     140.372 130.583 100.357  0.00  0.00    +0.119 A 
ATOM      4  C16 UNL     1     139.320 130.277 101.194  0.00  0.00    +0.046 A 
ATOM      5  C17 UNL     1     139.043 128.901 100.998  0.00  0.00    +0.050 A 
ENDROOT
BRANCH   1  13
ATOM      6 CL1  UNL     1     138.120 127.501  97.640  0.00  0.00    -0.083 Cl
ATOM      7  C1  UNL     1     139.460 126.653  98.339  0.00  0.00    +0.053 A 
ATOM      8  C2  UNL     1     139.768 125.402  97.790  0.00  0.00    +0.036 A 
ATOM      9  C3  UNL     1     140.803 124.643  98.330  0.00  0.00    +0.019 A 
ATOM     10 BR1  UNL     1     141.216 122.955  97.587  0.00  0.00    -0.050 Br
ATOM     11  C4  UNL     1     141.533 125.117  99.415  0.00  0.00    +0.016 A 
ATOM     12  C5  UNL     1     141.227 126.365  99.963  0.00  0.00    +0.014 A 
ATOM     13  C6  UNL     1     140.192 127.156  99.429  0.00  0.00    +0.036 A 
ENDBRANCH   1  13
BRANCH   3  14
ATOM     14  C9  UNL     1     141.135 131.834 100.086  0.00  0.00    +0.155 C 
BRANCH  14  15
ATOM     15  N1  UNL     1     142.582 131.608  99.988  0.00  0.00    -0.309 NA
ATOM     16  H6  UNL     1     142.713 130.811  99.364  0.00  0.00    +0.122 HD
BRANCH  15  17
ATOM     17  C10 UNL     1     143.189 131.320 101.288  0.00  0.00    +0.085 C 
BRANCH  17  18
ATOM     18  C11 UNL     1     143.829 129.920 101.359  0.00  0.00    +0.005 C 
ATOM     19  C12 UNL     1     145.320 129.958 101.727  0.00  0.00    +0.020 C 
ATOM     20  C13 UNL     1     145.902 128.546 101.793  0.00  0.00    +0.081 C 
ATOM     21  N2  UNL     1     145.167 127.698 102.734  0.00  0.00    -0.316 NA
ATOM     22  C14 UNL     1     143.753 127.604 102.361  0.00  0.00    +0.081 C 
ATOM     23  C15 UNL     1     143.082 128.976 102.314  0.00  0.00    +0.020 C 
ATOM     24  H14 UNL     1     145.229 128.112 103.666  0.00  0.00    +0.122 HD
ENDBRANCH  17  18
ENDBRANCH  15  17
ENDBRANCH  14  15
ENDBRANCH   3  14
TORSDOF 5
ENDMDL
MODEL 4
REMARK VINA RESULT:    -4.810      5.839      7.089
REMARK INTER + INTRA:          -6.874
REMARK INTER:                  -5.586
REMARK INTRA:                  -1.289
REMARK UNBOUND:                -0.659
REMARK  Name = /home/vital/Documents/PhD_2021/Malaria_codes/data/pdb_ligands_mmv/ligand_177.pdb
REMARK  5 active torsions:
REMARK  status: ('A' for Active; 'I' for Inactive)
REMARK    1  A    between atoms: C6_8  and  C7_9
REMARK    2  A    between atoms: C8_11  and  C9_12
REMARK    3  A    between atoms: C9_12  and  N1_13
REMARK    4  A    between atoms: N1_13  and  C10_14
REMARK    5  A    between atoms: C10_14  and  C11_15
REMARK                            x       y       z     vdW  Elec       q    Type
REMARK                         _______ _______ _______ _____ _____    ______ ____
ROOT
ATOM      1  C7  UNL     1     140.730 130.498  99.834  0.00  0.00    +0.137 A 
ATOM      2  O1  UNL     1     140.107 129.971  98.743  0.00  0.00    -0.458 OA
ATOM      3  C8  UNL     1     138.974 129.348  99.181  0.00  0.00    +0.119 A 
ATOM      4  C16 UNL     1     138.860 129.487 100.548  0.00  0.00    +0.046 A 
ATOM      5  C17 UNL     1     139.985 130.238 100.968  0.00  0.00    +0.050 A 
ENDROOT
BRANCH   1  13
ATOM      6 CL1  UNL     1     143.308 129.818 101.519  0.00  0.00    -0.083 Cl
ATOM      7  C1  UNL     1     143.166 130.995 100.255  0.00  0.00    +0.053 A 
ATOM      8  C2  UNL     1     144.315 131.737  99.954  0.00  0.00    +0.036 A 
ATOM      9  C3  UNL     1     144.263 132.731  98.981  0.00  0.00    +0.019 A 
ATOM     10 BR1  UNL     1     145.816 133.730  98.577  0.00  0.00    -0.050 Br
ATOM     11  C4  UNL     1     143.077 132.996  98.306  0.00  0.00    +0.016 A 
ATOM     12  C5  UNL     1     141.930 132.257  98.606  0.00  0.00    +0.014 A 
ATOM     13  C6  UNL     1     141.957 131.239  99.578  0.00  0.00    +0.036 A 
ENDBRANCH   1  13
BRANCH   3  14
ATOM     14  C9  UNL     1     138.135 128.682  98.145  0.00  0.00    +0.155 C 
BRANCH  14  15
ATOM     15  N1  UNL     1     138.920 127.850  97.226  0.00  0.00    -0.309 NA
ATOM     16  H6  UNL     1     138.312 127.632  96.435  0.00  0.00    +0.122 HD
BRANCH  15  17
ATOM     17  C10 UNL     1     139.379 126.609  97.852  0.00  0.00    +0.085 C 
BRANCH  17  18
ATOM     18  C11 UNL     1     140.912 126.530  97.983  0.00  0.00    +0.005 C 
ATOM     19  C12 UNL     1     141.646 127.511  97.056  0.00  0.00    +0.020 C 
ATOM     20  C13 UNL     1     143.160 127.400  97.233  0.00  0.00    +0.081 C 
ATOM     21  N2  UNL     1     143.564 127.616  98.625  0.00  0.00    -0.316 NA
ATOM     22  C14 UNL     1     142.917 126.648  99.514  0.00  0.00    +0.081 C 
ATOM     23  C15 UNL     1     141.392 126.723  99.430  0.00  0.00    +0.020 C 
ATOM     24  H14 UNL     1     143.278 128.555  98.906  0.00  0.00    +0.122 HD
ENDBRANCH  17  18
ENDBRANCH  15  17
ENDBRANCH  14  15
ENDBRANCH   3  14
TORSDOF 5
ENDMDL
MODEL 5
REMARK VINA RESULT:    -4.649      6.238      7.366
REMARK INTER + INTRA:          -6.666
REMARK INTER:                  -5.314
REMARK INTRA:                  -1.352
REMARK UNBOUND:                -0.659
REMARK  Name = /home/vital/Documents/PhD_2021/Malaria_codes/data/pdb_ligands_mmv/ligand_177.pdb
REMARK  5 active torsions:
REMARK  status: ('A' for Active; 'I' for Inactive)
REMARK    1  A    between atoms: C6_8  and  C7_9
REMARK    2  A    between atoms: C8_11  and  C9_12
REMARK    3  A    between atoms: C9_12  and  N1_13
REMARK    4  A    between atoms: N1_13  and  C10_14
REMARK    5  A    between atoms: C10_14  and  C11_15
REMARK                            x       y       z     vdW  Elec       q    Type
REMARK                         _______ _______ _______ _____ _____    ______ ____
ROOT
ATOM      1  C7  UNL     1     141.178 130.428  99.534  0.00  0.00    +0.137 A 
ATOM      2  O1  UNL     1     140.403 129.917  98.536  0.00  0.00    -0.458 OA
ATOM      3  C8  UNL     1     139.227 129.512  99.099  0.00  0.00    +0.119 A 
ATOM      4  C16 UNL     1     139.238 129.776 100.452  0.00  0.00    +0.046 A 
ATOM      5  C17 UNL     1     140.491 130.377 100.730  0.00  0.00    +0.050 A 
ENDROOT
BRANCH   1  13
ATOM      6 CL1  UNL     1     141.514 133.535  99.102  0.00  0.00    -0.083 Cl
ATOM      7  C1  UNL     1     142.739 132.318  98.942  0.00  0.00    +0.053 A 
ATOM      8  C2  UNL     1     144.015 132.756  98.568  0.00  0.00    +0.036 A 
ATOM      9  C3  UNL     1     145.037 131.830  98.377  0.00  0.00    +0.019 A 
ATOM     10 BR1  UNL     1     146.759 132.424  97.872  0.00  0.00    -0.050 Br
ATOM     11  C4  UNL     1     144.800 130.471  98.552  0.00  0.00    +0.016 A 
ATOM     12  C5  UNL     1     143.526 130.034  98.925  0.00  0.00    +0.014 A 
ATOM     13  C6  UNL     1     142.478 130.949  99.134  0.00  0.00    +0.036 A 
ENDBRANCH   1  13
BRANCH   3  14
ATOM     14  C9  UNL     1     138.223 128.902  98.182  0.00  0.00    +0.155 C 
BRANCH  14  15
ATOM     15  N1  UNL     1     138.819 127.948  97.240  0.00  0.00    -0.309 NA
ATOM     16  H6  UNL     1     138.108 127.749  96.534  0.00  0.00    +0.122 HD
BRANCH  15  17
ATOM     17  C10 UNL     1     139.227 126.703  97.891  0.00  0.00    +0.085 C 
BRANCH  17  18
ATOM     18  C11 UNL     1     140.692 126.321  97.600  0.00  0.00    +0.005 C 
ATOM     19  C12 UNL     1     141.241 126.977  96.324  0.00  0.00    +0.020 C 
ATOM     20  C13 UNL     1     142.696 126.575  96.087  0.00  0.00    +0.081 C 
ATOM     21  N2  UNL     1     143.546 126.902  97.234  0.00  0.00    -0.316 NA
ATOM     22  C14 UNL     1     143.068 126.234  98.447  0.00  0.00    +0.081 C 
ATOM     23  C15 UNL     1     141.627 126.618  98.782  0.00  0.00    +0.020 C 
ATOM     24  H14 UNL     1     143.516 127.911  97.387  0.00  0.00    +0.122 HD
ENDBRANCH  17  18
ENDBRANCH  15  17
ENDBRANCH  14  15
ENDBRANCH   3  14
TORSDOF 5
ENDMDL
MODEL 6
REMARK VINA RESULT:    -4.633      4.267      7.301
REMARK INTER + INTRA:          -6.646
REMARK INTER:                  -5.415
REMARK INTRA:                  -1.231
REMARK UNBOUND:                -0.659
REMARK  Name = /home/vital/Documents/PhD_2021/Malaria_codes/data/pdb_ligands_mmv/ligand_177.pdb
REMARK  5 active torsions:
REMARK  status: ('A' for Active; 'I' for Inactive)
REMARK    1  A    between atoms: C6_8  and  C7_9
REMARK    2  A    between atoms: C8_11  and  C9_12
REMARK    3  A    between atoms: C9_12  and  N1_13
REMARK    4  A    between atoms: N1_13  and  C10_14
REMARK    5  A    between atoms: C10_14  and  C11_15
REMARK                            x       y       z     vdW  Elec       q    Type
REMARK                         _______ _______ _______ _____ _____    ______ ____
ROOT
ATOM      1  C7  UNL     1     143.832 128.153 102.180  0.00  0.00    +0.137 A 
ATOM      2  O1  UNL     1     143.435 129.416 101.854  0.00  0.00    -0.458 OA
ATOM      3  C8  UNL     1     144.482 130.021 101.221  0.00  0.00    +0.119 A 
ATOM      4  C16 UNL     1     145.544 129.147 101.126  0.00  0.00    +0.046 A 
ATOM      5  C17 UNL     1     145.121 127.939 101.735  0.00  0.00    +0.050 A 
ENDROOT
BRANCH   1  13
ATOM      6 CL1  UNL     1     142.226 126.037 100.479  0.00  0.00    -0.083 Cl
ATOM      7  C1  UNL     1     142.090 126.330 102.182  0.00  0.00    +0.053 A 
ATOM      8  C2  UNL     1     141.157 125.554 102.881  0.00  0.00    +0.036 A 
ATOM      9  C3  UNL     1     140.962 125.765 104.243  0.00  0.00    +0.019 A 
ATOM     10 BR1  UNL     1     139.702 124.716 105.184  0.00  0.00    -0.050 Br
ATOM     11  C4  UNL     1     141.684 126.744 104.916  0.00  0.00    +0.016 A 
ATOM     12  C5  UNL     1     142.615 127.519 104.219  0.00  0.00    +0.014 A 
ATOM     13  C6  UNL     1     142.839 127.319 102.845  0.00  0.00    +0.036 A 
ENDBRANCH   1  13
BRANCH   3  14
ATOM     14  C9  UNL     1     144.273 131.430 100.783  0.00  0.00    +0.155 C 
BRANCH  14  15
ATOM     15  N1  UNL     1     142.882 131.873 100.939  0.00  0.00    -0.309 NA
ATOM     16  H6  UNL     1     142.423 131.193 101.547  0.00  0.00    +0.122 HD
BRANCH  15  17
ATOM     17  C10 UNL     1     142.175 131.946  99.660  0.00  0.00    +0.085 C 
BRANCH  17  18
ATOM     18  C11 UNL     1     141.010 130.942  99.557  0.00  0.00    +0.005 C 
ATOM     19  C12 UNL     1     141.430 129.595  98.948  0.00  0.00    +0.020 C 
ATOM     20  C13 UNL     1     140.242 128.635  98.878  0.00  0.00    +0.081 C 
ATOM     21  N2  UNL     1     139.628 128.430 100.192  0.00  0.00    -0.316 NA
ATOM     22  C14 UNL     1     139.169 129.701 100.759  0.00  0.00    +0.081 C 
ATOM     23  C15 UNL     1     140.309 130.708 100.904  0.00  0.00    +0.020 C 
ATOM     24  H14 UNL     1     140.327 128.029 100.820  0.00  0.00    +0.122 HD
ENDBRANCH  17  18
ENDBRANCH  15  17
ENDBRANCH  14  15
ENDBRANCH   3  14
TORSDOF 5
ENDMDL
MODEL 7
REMARK VINA RESULT:    -4.586      5.954      8.730
REMARK INTER + INTRA:          -6.586
REMARK INTER:                  -5.692
REMARK INTRA:                  -0.894
REMARK UNBOUND:                -0.659
REMARK  Name = /home/vital/Documents/PhD_2021/Malaria_codes/data/pdb_ligands_mmv/ligand_177.pdb
REMARK  5 active torsions:
REMARK  status: ('A' for Active; 'I' for Inactive)
REMARK    1  A    between atoms: C6_8  and  C7_9
REMARK    2  A    between atoms: C8_11  and  C9_12
REMARK    3  A    between atoms: C9_12  and  N1_13
REMARK    4  A    between atoms: N1_13  and  C10_14
REMARK    5  A    between atoms: C10_14  and  C11_15
REMARK                            x       y       z     vdW  Elec       q    Type
REMARK                         _______ _______ _______ _____ _____    ______ ____
ROOT
ATOM      1  C7  UNL     1     139.601 127.382  97.972  0.00  0.00    +0.137 A 
ATOM      2  O1  UNL     1     140.359 127.810  99.021  0.00  0.00    -0.458 OA
ATOM      3  C8  UNL     1     139.532 128.487  99.871  0.00  0.00    +0.119 A 
ATOM      4  C16 UNL     1     138.244 128.482  99.379  0.00  0.00    +0.046 A 
ATOM      5  C17 UNL     1     138.286 127.760  98.161  0.00  0.00    +0.050 A 
ENDROOT
BRANCH   1  13
ATOM      6 CL1  UNL     1     140.323 124.371  98.577  0.00  0.00    -0.083 Cl
ATOM      7  C1  UNL     1     140.637 125.248  97.115  0.00  0.00    +0.053 A 
ATOM      8  C2  UNL     1     141.295 124.553  96.093  0.00  0.00    +0.036 A 
ATOM      9  C3  UNL     1     141.620 125.207  94.908  0.00  0.00    +0.019 A 
ATOM     10 BR1  UNL     1     142.508 124.265  93.530  0.00  0.00    -0.050 Br
ATOM     11  C4  UNL     1     141.300 126.548  94.731  0.00  0.00    +0.016 A 
ATOM     12  C5  UNL     1     140.644 127.243  95.750  0.00  0.00    +0.014 A 
ATOM     13  C6  UNL     1     140.294 126.603  96.954  0.00  0.00    +0.036 A 
ENDBRANCH   1  13
BRANCH   3  14
ATOM     14  C9  UNL     1     140.160 129.062 101.094  0.00  0.00    +0.155 C 
BRANCH  14  15
ATOM     15  N1  UNL     1     140.577 130.458 100.918  0.00  0.00    -0.309 NA
ATOM     16  H6  UNL     1     140.241 130.751  99.999  0.00  0.00    +0.122 HD
BRANCH  15  17
ATOM     17  C10 UNL     1     142.030 130.617 100.984  0.00  0.00    +0.085 C 
BRANCH  17  18
ATOM     18  C11 UNL     1     142.616 131.334  99.752  0.00  0.00    +0.005 C 
ATOM     19  C12 UNL     1     142.569 130.476  98.478  0.00  0.00    +0.020 C 
ATOM     20  C13 UNL     1     143.151 131.236  97.287  0.00  0.00    +0.081 C 
ATOM     21  N2  UNL     1     142.465 132.511  97.066  0.00  0.00    -0.316 NA
ATOM     22  C14 UNL     1     142.552 133.365  98.253  0.00  0.00    +0.081 C 
ATOM     23  C15 UNL     1     141.950 132.693  99.487  0.00  0.00    +0.020 C 
ATOM     24  H14 UNL     1     141.479 132.323  96.874  0.00  0.00    +0.122 HD
ENDBRANCH  17  18
ENDBRANCH  15  17
ENDBRANCH  14  15
ENDBRANCH   3  14
TORSDOF 5
ENDMDL
MODEL 8
REMARK VINA RESULT:    -4.564      6.021      8.643
REMARK INTER + INTRA:          -6.556
REMARK INTER:                  -5.477
REMARK INTRA:                  -1.080
REMARK UNBOUND:                -0.659
REMARK  Name = /home/vital/Documents/PhD_2021/Malaria_codes/data/pdb_ligands_mmv/ligand_177.pdb
REMARK  5 active torsions:
REMARK  status: ('A' for Active; 'I' for Inactive)
REMARK    1  A    between atoms: C6_8  and  C7_9
REMARK    2  A    between atoms: C8_11  and  C9_12
REMARK    3  A    between atoms: C9_12  and  N1_13
REMARK    4  A    between atoms: N1_13  and  C10_14
REMARK    5  A    between atoms: C10_14  and  C11_15
REMARK                            x       y       z     vdW  Elec       q    Type
REMARK                         _______ _______ _______ _____ _____    ______ ____
ROOT
ATOM      1  C7  UNL     1     139.622 126.947  98.249  0.00  0.00    +0.137 A 
ATOM      2  O1  UNL     1     139.995 127.388  99.483  0.00  0.00    -0.458 OA
ATOM      3  C8  UNL     1     139.191 128.445  99.798  0.00  0.00    +0.119 A 
ATOM      4  C16 UNL     1     138.292 128.673  98.778  0.00  0.00    +0.046 A 
ATOM      5  C17 UNL     1     138.563 127.701  97.784  0.00  0.00    +0.050 A 
ENDROOT
BRANCH   1  13
ATOM      6 CL1  UNL     1     141.831 127.385  96.040  0.00  0.00    -0.083 Cl
ATOM      7  C1  UNL     1     141.366 125.884  96.769  0.00  0.00    +0.053 A 
ATOM      8  C2  UNL     1     142.030 124.735  96.323  0.00  0.00    +0.036 A 
ATOM      9  C3  UNL     1     141.677 123.488  96.831  0.00  0.00    +0.019 A 
ATOM     10 BR1  UNL     1     142.577 121.939  96.226  0.00  0.00    -0.050 Br
ATOM     11  C4  UNL     1     140.665 123.373  97.778  0.00  0.00    +0.016 A 
ATOM     12  C5  UNL     1     140.002 124.518  98.224  0.00  0.00    +0.014 A 
ATOM     13  C6  UNL     1     140.346 125.792  97.734  0.00  0.00    +0.036 A 
ENDBRANCH   1  13
BRANCH   3  14
ATOM     14  C9  UNL     1     139.434 129.100 101.115  0.00  0.00    +0.155 C 
BRANCH  14  15
ATOM     15  N1  UNL     1     140.175 130.361 100.994  0.00  0.00    -0.309 NA
ATOM     16  H6  UNL     1     139.919 130.767 100.093  0.00  0.00    +0.122 HD
BRANCH  15  17
ATOM     17  C10 UNL     1     141.624 130.164 101.051  0.00  0.00    +0.085 C 
BRANCH  17  18
ATOM     18  C11 UNL     1     142.365 130.776  99.846  0.00  0.00    +0.005 C 
ATOM     19  C12 UNL     1     142.377 129.854  98.617  0.00  0.00    +0.020 C 
ATOM     20  C13 UNL     1     143.113 130.512  97.450  0.00  0.00    +0.081 C 
ATOM     21  N2  UNL     1     142.536 131.813  97.105  0.00  0.00    -0.316 NA
ATOM     22  C14 UNL     1     142.572 132.723  98.252  0.00  0.00    +0.081 C 
ATOM     23  C15 UNL     1     141.817 132.157  99.455  0.00  0.00    +0.020 C 
ATOM     24  H14 UNL     1     141.561 131.676  96.831  0.00  0.00    +0.122 HD
ENDBRANCH  17  18
ENDBRANCH  15  17
ENDBRANCH  14  15
ENDBRANCH   3  14
TORSDOF 5
ENDMDL
MODEL 9
REMARK VINA RESULT:    -4.212     15.887     17.294
REMARK INTER + INTRA:          -6.102
REMARK INTER:                  -4.934
REMARK INTRA:                  -1.168
REMARK UNBOUND:                -0.659
REMARK  Name = /home/vital/Documents/PhD_2021/Malaria_codes/data/pdb_ligands_mmv/ligand_177.pdb
REMARK  5 active torsions:
REMARK  status: ('A' for Active; 'I' for Inactive)
REMARK    1  A    between atoms: C6_8  and  C7_9
REMARK    2  A    between atoms: C8_11  and  C9_12
REMARK    3  A    between atoms: C9_12  and  N1_13
REMARK    4  A    between atoms: N1_13  and  C10_14
REMARK    5  A    between atoms: C10_14  and  C11_15
REMARK                            x       y       z     vdW  Elec       q    Type
REMARK                         _______ _______ _______ _____ _____    ______ ____
ROOT
ATOM      1  C7  UNL     1     135.390 124.635  86.841  0.00  0.00    +0.137 A 
ATOM      2  O1  UNL     1     135.025 123.354  86.553  0.00  0.00    -0.458 OA
ATOM      3  C8  UNL     1     134.058 123.412  85.591  0.00  0.00    +0.119 A 
ATOM      4  C16 UNL     1     133.813 124.724  85.249  0.00  0.00    +0.046 A 
ATOM      5  C17 UNL     1     134.679 125.513  86.046  0.00  0.00    +0.050 A 
ENDROOT
BRANCH   1  13
ATOM      6 CL1  UNL     1     138.351 123.871  86.068  0.00  0.00    -0.083 Cl
ATOM      7  C1  UNL     1     137.797 124.509  87.581  0.00  0.00    +0.053 A 
ATOM      8  C2  UNL     1     138.764 124.694  88.577  0.00  0.00    +0.036 A 
ATOM      9  C3  UNL     1     138.385 125.162  89.832  0.00  0.00    +0.019 A 
ATOM     10 BR1  UNL     1     139.693 125.411  91.174  0.00  0.00    -0.050 Br
ATOM     11  C4  UNL     1     137.052 125.442  90.108  0.00  0.00    +0.016 A 
ATOM     12  C5  UNL     1     136.086 125.257  89.115  0.00  0.00    +0.014 A 
ATOM     13  C6  UNL     1     136.444 124.796  87.834  0.00  0.00    +0.036 A 
ENDBRANCH   1  13
BRANCH   3  14
ATOM     14  C9  UNL     1     133.497 122.110  85.130  0.00  0.00    +0.155 C 
BRANCH  14  15
ATOM     15  N1  UNL     1     132.876 121.342  86.216  0.00  0.00    -0.309 NA
ATOM     16  H6  UNL     1     132.944 120.357  85.954  0.00  0.00    +0.122 HD
BRANCH  15  17
ATOM     17  C10 UNL     1     131.472 121.702  86.419  0.00  0.00    +0.085 C 
BRANCH  17  18
ATOM     18  C11 UNL     1     131.233 122.486  87.724  0.00  0.00    +0.005 C 
ATOM     19  C12 UNL     1     132.399 122.368  88.718  0.00  0.00    +0.020 C 
ATOM     20  C13 UNL     1     132.116 123.171  89.987  0.00  0.00    +0.081 C 
ATOM     21  N2  UNL     1     131.839 124.578  89.692  0.00  0.00    -0.316 NA
ATOM     22  C14 UNL     1     130.690 124.708  88.792  0.00  0.00    +0.081 C 
ATOM     23  C15 UNL     1     130.910 123.967  87.474  0.00  0.00    +0.020 C 
ATOM     24  H14 UNL     1     132.657 124.984  89.234  0.00  0.00    +0.122 HD
ENDBRANCH  17  18
ENDBRANCH  15  17
ENDBRANCH  14  15
ENDBRANCH   3  14
TORSDOF 5
ENDMDL
