MODEL 1
REMARK VINA RESULT:    -9.736      0.000      0.000
REMARK INTER + INTRA:          -9.736
REMARK INTER:                  -9.736
REMARK INTRA:                   0.000
REMARK UNBOUND:                 0.000
REMARK  Name = /home/vital/Documents/PhD_2021/Malaria_codes/scripts/../data/pdbqt_ligands/ligand_450_temp.pdb
REMARK                            x       y       z     vdW  Elec       q    Type
REMARK                         _______ _______ _______ _____ _____    ______ ____
ROOT
ATOM      1  O   UNL     1     152.452 161.230 163.658  0.00  0.00    -0.507 OA
ATOM      2  C   UNL     1     151.889 160.847 162.477  0.00  0.00    +0.122 A 
ATOM      3  C   UNL     1     151.062 159.732 162.485  0.00  0.00    +0.016 A 
ATOM      4  C   UNL     1     150.472 159.313 161.295  0.00  0.00    +0.134 A 
ATOM      5  F   UNL     1     149.674 158.235 161.320  0.00  0.00    -0.205 F 
ATOM      6  C   UNL     1     150.693 159.986 160.092  0.00  0.00    +0.037 A 
ATOM      7  C   UNL     1     150.058 159.523 158.809  0.00  0.00    +0.030 C 
ATOM      8  N   UNL     1     151.022 158.920 157.876  0.00  0.00    -0.296 N 
ATOM      9  C   UNL     1     151.460 157.565 158.275  0.00  0.00    +0.012 C 
ATOM     10  C   UNL     1     150.844 156.418 157.441  0.00  0.00    +0.012 C 
ATOM     11  N   UNL     1     151.057 156.528 155.982  0.00  0.00    -0.296 N 
ATOM     12  C   UNL     1     152.193 155.706 155.539  0.00  0.00    +0.024 C 
ATOM     13  C   UNL     1     152.324 155.624 154.034  0.00  0.00    -0.031 A 
ATOM     14  C   UNL     1     151.311 155.029 153.260  0.00  0.00    -0.057 A 
ATOM     15  C   UNL     1     151.430 154.945 151.870  0.00  0.00    -0.059 A 
ATOM     16  C   UNL     1     152.563 155.456 151.239  0.00  0.00    -0.026 A 
ATOM     17  C   UNL     1     153.564 156.048 152.001  0.00  0.00    +0.124 A 
ATOM     18  F   UNL     1     154.651 156.542 151.393  0.00  0.00    -0.205 F 
ATOM     19  C   UNL     1     153.457 156.136 153.386  0.00  0.00    -0.022 A 
ATOM     20  C   UNL     1     151.227 157.943 155.577  0.00  0.00    +0.012 C 
ATOM     21  C   UNL     1     150.476 158.923 156.503  0.00  0.00    +0.012 C 
ATOM     22  C   UNL     1     151.523 161.110 160.120  0.00  0.00    +0.134 A 
ATOM     23  F   UNL     1     151.736 161.816 159.000  0.00  0.00    -0.205 F 
ATOM     24  C   UNL     1     152.128 161.545 161.299  0.00  0.00    +0.016 A 
ATOM     25  H   UNL     1     152.277 160.744 164.440  0.00  0.00    +0.000 HD
ATOM     26  H   UNL     1     151.861 159.500 157.905  0.00  0.00    +0.000 HD
ATOM     27  H   UNL     1     150.223 156.168 155.519  0.00  0.00    +0.000 HD
ENDROOT
TORSDOF 0
ENDMDL
MODEL 2
REMARK VINA RESULT:    -9.213      3.457      9.479
REMARK INTER + INTRA:          -9.213
REMARK INTER:                  -9.213
REMARK INTRA:                   0.000
REMARK UNBOUND:                 0.000
REMARK  Name = /home/vital/Documents/PhD_2021/Malaria_codes/scripts/../data/pdbqt_ligands/ligand_450_temp.pdb
REMARK                            x       y       z     vdW  Elec       q    Type
REMARK                         _______ _______ _______ _____ _____    ______ ____
ROOT
ATOM      1  O   UNL     1     152.508 155.148 154.831  0.00  0.00    -0.507 OA
ATOM      2  C   UNL     1     151.832 155.982 155.672  0.00  0.00    +0.122 A 
ATOM      3  C   UNL     1     151.752 157.325 155.326  0.00  0.00    +0.016 A 
ATOM      4  C   UNL     1     151.070 158.205 156.163  0.00  0.00    +0.134 A 
ATOM      5  F   UNL     1     151.001 159.497 155.814  0.00  0.00    -0.205 F 
ATOM      6  C   UNL     1     150.465 157.769 157.344  0.00  0.00    +0.037 A 
ATOM      7  C   UNL     1     149.736 158.728 158.247  0.00  0.00    +0.030 C 
ATOM      8  N   UNL     1     150.457 158.994 159.502  0.00  0.00    -0.296 N 
ATOM      9  C   UNL     1     151.630 159.877 159.332  0.00  0.00    +0.012 C 
ATOM     10  C   UNL     1     151.426 161.324 159.840  0.00  0.00    +0.012 C 
ATOM     11  N   UNL     1     151.005 161.431 161.254  0.00  0.00    -0.296 N 
ATOM     12  C   UNL     1     152.149 161.706 162.136  0.00  0.00    +0.024 C 
ATOM     13  C   UNL     1     151.745 162.026 163.559  0.00  0.00    -0.031 A 
ATOM     14  C   UNL     1     150.973 163.167 163.842  0.00  0.00    -0.057 A 
ATOM     15  C   UNL     1     150.603 163.472 165.156  0.00  0.00    -0.059 A 
ATOM     16  C   UNL     1     151.001 162.637 166.199  0.00  0.00    -0.026 A 
ATOM     17  C   UNL     1     151.761 161.507 165.921  0.00  0.00    +0.124 A 
ATOM     18  F   UNL     1     152.140 160.703 166.925  0.00  0.00    -0.205 F 
ATOM     19  C   UNL     1     152.137 161.195 164.618  0.00  0.00    -0.022 A 
ATOM     20  C   UNL     1     150.275 160.216 161.682  0.00  0.00    +0.012 C 
ATOM     21  C   UNL     1     149.529 159.527 160.521  0.00  0.00    +0.012 C 
ATOM     22  C   UNL     1     150.556 156.410 157.658  0.00  0.00    +0.134 A 
ATOM     23  F   UNL     1     149.957 155.934 158.759  0.00  0.00    -0.205 F 
ATOM     24  C   UNL     1     151.237 155.513 156.836  0.00  0.00    +0.016 A 
ATOM     25  H   UNL     1     152.902 155.487 154.051  0.00  0.00    +0.000 HD
ATOM     26  H   UNL     1     150.829 158.100 159.823  0.00  0.00    +0.000 HD
ATOM     27  H   UNL     1     150.367 162.223 161.328  0.00  0.00    +0.000 HD
ENDROOT
TORSDOF 0
ENDMDL
MODEL 3
REMARK VINA RESULT:    -8.787      3.490      5.519
REMARK INTER + INTRA:          -8.787
REMARK INTER:                  -8.787
REMARK INTRA:                   0.000
REMARK UNBOUND:                 0.000
REMARK  Name = /home/vital/Documents/PhD_2021/Malaria_codes/scripts/../data/pdbqt_ligands/ligand_450_temp.pdb
REMARK                            x       y       z     vdW  Elec       q    Type
REMARK                         _______ _______ _______ _____ _____    ______ ____
ROOT
ATOM      1  O   UNL     1     150.876 161.920 168.831  0.00  0.00    -0.507 OA
ATOM      2  C   UNL     1     151.072 162.034 167.487  0.00  0.00    +0.122 A 
ATOM      3  C   UNL     1     150.059 162.611 166.731  0.00  0.00    +0.016 A 
ATOM      4  C   UNL     1     150.226 162.742 165.355  0.00  0.00    +0.134 A 
ATOM      5  F   UNL     1     149.239 163.303 164.641  0.00  0.00    -0.205 F 
ATOM      6  C   UNL     1     151.387 162.306 164.714  0.00  0.00    +0.037 A 
ATOM      7  C   UNL     1     151.557 162.444 163.225  0.00  0.00    +0.030 C 
ATOM      8  N   UNL     1     151.483 161.156 162.517  0.00  0.00    -0.296 N 
ATOM      9  C   UNL     1     150.111 160.615 162.420  0.00  0.00    +0.012 C 
ATOM     10  C   UNL     1     149.466 160.742 161.019  0.00  0.00    +0.012 C 
ATOM     11  N   UNL     1     150.248 160.137 159.920  0.00  0.00    -0.296 N 
ATOM     12  C   UNL     1     149.757 158.791 159.587  0.00  0.00    +0.024 C 
ATOM     13  C   UNL     1     150.389 158.215 158.338  0.00  0.00    -0.031 A 
ATOM     14  C   UNL     1     150.195 158.832 157.090  0.00  0.00    -0.057 A 
ATOM     15  C   UNL     1     150.770 158.300 155.932  0.00  0.00    -0.059 A 
ATOM     16  C   UNL     1     151.546 157.144 156.012  0.00  0.00    -0.026 A 
ATOM     17  C   UNL     1     151.742 156.535 157.246  0.00  0.00    +0.124 A 
ATOM     18  F   UNL     1     152.492 155.426 157.322  0.00  0.00    -0.205 F 
ATOM     19  C   UNL     1     151.173 157.054 158.404  0.00  0.00    -0.022 A 
ATOM     20  C   UNL     1     151.693 160.116 160.247  0.00  0.00    +0.012 C 
ATOM     21  C   UNL     1     152.109 161.269 161.184  0.00  0.00    +0.012 C 
ATOM     22  C   UNL     1     152.391 161.738 165.505  0.00  0.00    +0.134 A 
ATOM     23  F   UNL     1     153.542 161.340 164.944  0.00  0.00    -0.205 F 
ATOM     24  C   UNL     1     152.244 161.594 166.883  0.00  0.00    +0.016 A 
ATOM     25  H   UNL     1     150.078 162.223 169.216  0.00  0.00    +0.000 HD
ATOM     26  H   UNL     1     152.006 160.483 163.077  0.00  0.00    +0.000 HD
ATOM     27  H   UNL     1     150.122 160.720 159.093  0.00  0.00    +0.000 HD
ENDROOT
TORSDOF 0
ENDMDL
MODEL 4
REMARK VINA RESULT:    -8.734      3.690      5.813
REMARK INTER + INTRA:          -8.734
REMARK INTER:                  -8.734
REMARK INTRA:                   0.000
REMARK UNBOUND:                 0.000
REMARK  Name = /home/vital/Documents/PhD_2021/Malaria_codes/scripts/../data/pdbqt_ligands/ligand_450_temp.pdb
REMARK                            x       y       z     vdW  Elec       q    Type
REMARK                         _______ _______ _______ _____ _____    ______ ____
ROOT
ATOM      1  O   UNL     1     149.422 158.612 168.945  0.00  0.00    -0.507 OA
ATOM      2  C   UNL     1     150.175 158.499 167.814  0.00  0.00    +0.122 A 
ATOM      3  C   UNL     1     150.733 159.657 167.289  0.00  0.00    +0.016 A 
ATOM      4  C   UNL     1     151.507 159.577 166.133  0.00  0.00    +0.134 A 
ATOM      5  F   UNL     1     152.039 160.705 165.640  0.00  0.00    -0.205 F 
ATOM      6  C   UNL     1     151.734 158.360 165.488  0.00  0.00    +0.037 A 
ATOM      7  C   UNL     1     152.566 158.283 164.236  0.00  0.00    +0.030 C 
ATOM      8  N   UNL     1     151.765 158.007 163.033  0.00  0.00    -0.296 N 
ATOM      9  C   UNL     1     150.979 159.169 162.569  0.00  0.00    +0.012 C 
ATOM     10  C   UNL     1     151.542 159.866 161.307  0.00  0.00    +0.012 C 
ATOM     11  N   UNL     1     151.729 158.977 160.140  0.00  0.00    -0.296 N 
ATOM     12  C   UNL     1     150.599 159.073 159.204  0.00  0.00    +0.024 C 
ATOM     13  C   UNL     1     150.838 158.342 157.900  0.00  0.00    -0.031 A 
ATOM     14  C   UNL     1     151.872 158.743 157.035  0.00  0.00    -0.057 A 
ATOM     15  C   UNL     1     152.092 158.075 155.826  0.00  0.00    -0.059 A 
ATOM     16  C   UNL     1     151.280 156.999 155.471  0.00  0.00    -0.026 A 
ATOM     17  C   UNL     1     150.260 156.599 156.327  0.00  0.00    +0.124 A 
ATOM     18  F   UNL     1     149.482 155.561 155.986  0.00  0.00    -0.205 F 
ATOM     19  C   UNL     1     150.030 157.257 157.531  0.00  0.00    -0.022 A 
ATOM     20  C   UNL     1     151.953 157.578 160.571  0.00  0.00    +0.012 C 
ATOM     21  C   UNL     1     152.628 157.480 161.955  0.00  0.00    +0.012 C 
ATOM     22  C   UNL     1     151.166 157.212 166.049  0.00  0.00    +0.134 A 
ATOM     23  F   UNL     1     151.388 156.013 165.491  0.00  0.00    -0.205 F 
ATOM     24  C   UNL     1     150.385 157.269 167.202  0.00  0.00    +0.016 A 
ATOM     25  H   UNL     1     149.293 159.452 169.340  0.00  0.00    +0.000 HD
ATOM     26  H   UNL     1     151.081 157.296 163.291  0.00  0.00    +0.000 HD
ATOM     27  H   UNL     1     152.563 159.290 159.644  0.00  0.00    +0.000 HD
ENDROOT
TORSDOF 0
ENDMDL
MODEL 5
REMARK VINA RESULT:    -8.651     15.278     17.802
REMARK INTER + INTRA:          -8.651
REMARK INTER:                  -8.651
REMARK INTRA:                   0.000
REMARK UNBOUND:                 0.000
REMARK  Name = /home/vital/Documents/PhD_2021/Malaria_codes/scripts/../data/pdbqt_ligands/ligand_450_temp.pdb
REMARK                            x       y       z     vdW  Elec       q    Type
REMARK                         _______ _______ _______ _____ _____    ______ ____
ROOT
ATOM      1  O   UNL     1     141.982 139.954 163.176  0.00  0.00    -0.507 OA
ATOM      2  C   UNL     1     142.746 140.796 163.928  0.00  0.00    +0.122 A 
ATOM      3  C   UNL     1     142.179 141.336 165.074  0.00  0.00    +0.016 A 
ATOM      4  C   UNL     1     142.932 142.201 165.865  0.00  0.00    +0.134 A 
ATOM      5  F   UNL     1     142.370 142.713 166.969  0.00  0.00    -0.205 F 
ATOM      6  C   UNL     1     144.245 142.540 165.531  0.00  0.00    +0.037 A 
ATOM      7  C   UNL     1     145.050 143.480 166.387  0.00  0.00    +0.030 C 
ATOM      8  N   UNL     1     145.260 144.793 165.755  0.00  0.00    -0.296 N 
ATOM      9  C   UNL     1     144.054 145.648 165.759  0.00  0.00    +0.012 C 
ATOM     10  C   UNL     1     144.088 146.804 166.786  0.00  0.00    +0.012 C 
ATOM     11  N   UNL     1     145.255 147.704 166.668  0.00  0.00    -0.296 N 
ATOM     12  C   UNL     1     144.924 148.919 165.908  0.00  0.00    +0.024 C 
ATOM     13  C   UNL     1     146.022 149.960 165.935  0.00  0.00    -0.031 A 
ATOM     14  C   UNL     1     146.407 150.561 167.147  0.00  0.00    -0.057 A 
ATOM     15  C   UNL     1     147.416 151.529 167.177  0.00  0.00    -0.059 A 
ATOM     16  C   UNL     1     148.050 151.905 165.993  0.00  0.00    -0.026 A 
ATOM     17  C   UNL     1     147.673 151.310 164.795  0.00  0.00    +0.124 A 
ATOM     18  F   UNL     1     148.286 151.670 163.658  0.00  0.00    -0.205 F 
ATOM     19  C   UNL     1     146.669 150.347 164.753  0.00  0.00    -0.022 A 
ATOM     20  C   UNL     1     146.412 146.995 166.073  0.00  0.00    +0.012 C 
ATOM     21  C   UNL     1     146.408 145.483 166.379  0.00  0.00    +0.012 C 
ATOM     22  C   UNL     1     144.790 141.971 164.376  0.00  0.00    +0.134 A 
ATOM     23  F   UNL     1     146.059 142.232 164.034  0.00  0.00    -0.205 F 
ATOM     24  C   UNL     1     144.053 141.106 163.569  0.00  0.00    +0.016 A 
ATOM     25  H   UNL     1     141.103 139.759 163.437  0.00  0.00    +0.000 HD
ATOM     26  H   UNL     1     145.469 144.616 164.772  0.00  0.00    +0.000 HD
ATOM     27  H   UNL     1     145.517 147.996 167.610  0.00  0.00    +0.000 HD
ENDROOT
TORSDOF 0
ENDMDL
MODEL 6
REMARK VINA RESULT:    -8.524      1.637      1.875
REMARK INTER + INTRA:          -8.524
REMARK INTER:                  -8.524
REMARK INTRA:                   0.000
REMARK UNBOUND:                 0.000
REMARK  Name = /home/vital/Documents/PhD_2021/Malaria_codes/scripts/../data/pdbqt_ligands/ligand_450_temp.pdb
REMARK                            x       y       z     vdW  Elec       q    Type
REMARK                         _______ _______ _______ _____ _____    ______ ____
ROOT
ATOM      1  O   UNL     1     152.421 158.269 164.999  0.00  0.00    -0.507 OA
ATOM      2  C   UNL     1     151.837 158.184 163.770  0.00  0.00    +0.122 A 
ATOM      3  C   UNL     1     151.124 157.030 163.470  0.00  0.00    +0.016 A 
ATOM      4  C   UNL     1     150.517 156.910 162.222  0.00  0.00    +0.134 A 
ATOM      5  F   UNL     1     149.831 155.790 161.949  0.00  0.00    -0.205 F 
ATOM      6  C   UNL     1     150.608 157.921 161.264  0.00  0.00    +0.037 A 
ATOM      7  C   UNL     1     149.954 157.781 159.916  0.00  0.00    +0.030 C 
ATOM      8  N   UNL     1     150.923 157.582 158.827  0.00  0.00    -0.296 N 
ATOM      9  C   UNL     1     151.513 156.226 158.803  0.00  0.00    +0.012 C 
ATOM     10  C   UNL     1     150.969 155.307 157.683  0.00  0.00    +0.012 C 
ATOM     11  N   UNL     1     151.093 155.856 156.316  0.00  0.00    -0.296 N 
ATOM     12  C   UNL     1     152.280 155.326 155.628  0.00  0.00    +0.024 C 
ATOM     13  C   UNL     1     152.339 155.697 154.162  0.00  0.00    -0.031 A 
ATOM     14  C   UNL     1     151.350 155.243 153.271  0.00  0.00    -0.057 A 
ATOM     15  C   UNL     1     151.403 155.576 151.914  0.00  0.00    -0.059 A 
ATOM     16  C   UNL     1     152.446 156.368 151.435  0.00  0.00    -0.026 A 
ATOM     17  C   UNL     1     153.422 156.821 152.316  0.00  0.00    +0.124 A 
ATOM     18  F   UNL     1     154.422 157.586 151.855  0.00  0.00    -0.205 F 
ATOM     19  C   UNL     1     153.381 156.494 153.668  0.00  0.00    -0.022 A 
ATOM     20  C   UNL     1     151.102 157.337 156.339  0.00  0.00    +0.012 C 
ATOM     21  C   UNL     1     150.308 157.920 157.526  0.00  0.00    +0.012 C 
ATOM     22  C   UNL     1     151.323 159.073 161.602  0.00  0.00    +0.134 A 
ATOM     23  F   UNL     1     151.407 160.091 160.732  0.00  0.00    -0.205 F 
ATOM     24  C   UNL     1     151.943 159.213 162.843  0.00  0.00    +0.016 A 
ATOM     25  H   UNL     1     152.336 157.562 165.609  0.00  0.00    +0.000 HD
ATOM     26  H   UNL     1     151.701 158.217 159.006  0.00  0.00    +0.000 HD
ATOM     27  H   UNL     1     150.275 155.555 155.786  0.00  0.00    +0.000 HD
ENDROOT
TORSDOF 0
ENDMDL
MODEL 7
REMARK VINA RESULT:    -8.441      4.598      6.940
REMARK INTER + INTRA:          -8.441
REMARK INTER:                  -8.441
REMARK INTRA:                   0.000
REMARK UNBOUND:                 0.000
REMARK  Name = /home/vital/Documents/PhD_2021/Malaria_codes/scripts/../data/pdbqt_ligands/ligand_450_temp.pdb
REMARK                            x       y       z     vdW  Elec       q    Type
REMARK                         _______ _______ _______ _____ _____    ______ ____
ROOT
ATOM      1  O   UNL     1     155.129 160.856 169.924  0.00  0.00    -0.507 OA
ATOM      2  C   UNL     1     154.151 160.756 168.978  0.00  0.00    +0.122 A 
ATOM      3  C   UNL     1     153.491 159.541 168.855  0.00  0.00    +0.016 A 
ATOM      4  C   UNL     1     152.489 159.403 167.898  0.00  0.00    +0.134 A 
ATOM      5  F   UNL     1     151.860 158.224 167.793  0.00  0.00    -0.205 F 
ATOM      6  C   UNL     1     152.131 160.460 167.058  0.00  0.00    +0.037 A 
ATOM      7  C   UNL     1     151.051 160.302 166.021  0.00  0.00    +0.030 C 
ATOM      8  N   UNL     1     151.576 160.267 164.647  0.00  0.00    -0.296 N 
ATOM      9  C   UNL     1     152.242 158.993 164.303  0.00  0.00    +0.012 C 
ATOM     10  C   UNL     1     151.421 158.066 163.376  0.00  0.00    +0.012 C 
ATOM     11  N   UNL     1     150.991 158.685 162.105  0.00  0.00    -0.296 N 
ATOM     12  C   UNL     1     151.894 158.330 160.999  0.00  0.00    +0.024 C 
ATOM     13  C   UNL     1     151.383 158.769 159.643  0.00  0.00    -0.031 A 
ATOM     14  C   UNL     1     150.188 158.240 159.125  0.00  0.00    -0.057 A 
ATOM     15  C   UNL     1     149.715 158.637 157.870  0.00  0.00    -0.059 A 
ATOM     16  C   UNL     1     150.435 159.567 157.122  0.00  0.00    -0.026 A 
ATOM     17  C   UNL     1     151.615 160.093 157.634  0.00  0.00    +0.124 A 
ATOM     18  F   UNL     1     152.304 160.991 156.914  0.00  0.00    -0.205 F 
ATOM     19  C   UNL     1     152.096 159.705 158.881  0.00  0.00    -0.022 A 
ATOM     20  C   UNL     1     150.866 160.154 162.246  0.00  0.00    +0.012 C 
ATOM     21  C   UNL     1     150.503 160.587 163.682  0.00  0.00    +0.012 C 
ATOM     22  C   UNL     1     152.808 161.672 167.215  0.00  0.00    +0.134 A 
ATOM     23  F   UNL     1     152.474 162.730 166.460  0.00  0.00    -0.205 F 
ATOM     24  C   UNL     1     153.817 161.831 168.163  0.00  0.00    +0.016 A 
ATOM     25  H   UNL     1     155.337 160.118 170.462  0.00  0.00    +0.000 HD
ATOM     26  H   UNL     1     152.301 160.982 164.591  0.00  0.00    +0.000 HD
ATOM     27  H   UNL     1     150.069 158.313 161.875  0.00  0.00    +0.000 HD
ENDROOT
TORSDOF 0
ENDMDL
MODEL 8
REMARK VINA RESULT:    -8.347     13.979     15.599
REMARK INTER + INTRA:          -8.347
REMARK INTER:                  -8.347
REMARK INTRA:                   0.000
REMARK UNBOUND:                 0.000
REMARK  Name = /home/vital/Documents/PhD_2021/Malaria_codes/scripts/../data/pdbqt_ligands/ligand_450_temp.pdb
REMARK                            x       y       z     vdW  Elec       q    Type
REMARK                         _______ _______ _______ _____ _____    ______ ____
ROOT
ATOM      1  O   UNL     1     149.444 152.897 165.175  0.00  0.00    -0.507 OA
ATOM      2  C   UNL     1     148.404 152.017 165.123  0.00  0.00    +0.122 A 
ATOM      3  C   UNL     1     147.775 151.685 166.316  0.00  0.00    +0.016 A 
ATOM      4  C   UNL     1     146.710 150.788 166.298  0.00  0.00    +0.134 A 
ATOM      5  F   UNL     1     146.113 150.480 167.459  0.00  0.00    -0.205 F 
ATOM      6  C   UNL     1     146.259 150.212 165.109  0.00  0.00    +0.037 A 
ATOM      7  C   UNL     1     145.112 149.238 165.099  0.00  0.00    +0.030 C 
ATOM      8  N   UNL     1     145.536 147.856 164.826  0.00  0.00    -0.296 N 
ATOM      9  C   UNL     1     146.215 147.211 165.969  0.00  0.00    +0.012 C 
ATOM     10  C   UNL     1     145.358 146.166 166.721  0.00  0.00    +0.012 C 
ATOM     11  N   UNL     1     144.816 145.082 165.874  0.00  0.00    -0.296 N 
ATOM     12  C   UNL     1     145.647 143.871 165.951  0.00  0.00    +0.024 C 
ATOM     13  C   UNL     1     145.025 142.673 165.266  0.00  0.00    -0.031 A 
ATOM     14  C   UNL     1     143.812 142.135 165.731  0.00  0.00    -0.057 A 
ATOM     15  C   UNL     1     143.237 141.024 165.106  0.00  0.00    -0.059 A 
ATOM     16  C   UNL     1     143.870 140.441 164.010  0.00  0.00    -0.026 A 
ATOM     17  C   UNL     1     145.068 140.974 163.547  0.00  0.00    +0.124 A 
ATOM     18  F   UNL     1     145.674 140.415 162.489  0.00  0.00    -0.205 F 
ATOM     19  C   UNL     1     145.650 142.078 164.162  0.00  0.00    -0.022 A 
ATOM     20  C   UNL     1     144.657 145.536 164.473  0.00  0.00    +0.012 C 
ATOM     21  C   UNL     1     144.386 147.051 164.363  0.00  0.00    +0.012 C 
ATOM     22  C   UNL     1     146.907 150.575 163.925  0.00  0.00    +0.134 A 
ATOM     23  F   UNL     1     146.486 150.082 162.751  0.00  0.00    -0.205 F 
ATOM     24  C   UNL     1     147.978 151.468 163.920  0.00  0.00    +0.016 A 
ATOM     25  H   UNL     1     149.715 153.255 165.998  0.00  0.00    +0.000 HD
ATOM     26  H   UNL     1     146.232 147.904 164.082  0.00  0.00    +0.000 HD
ATOM     27  H   UNL     1     143.892 144.841 166.233  0.00  0.00    +0.000 HD
ENDROOT
TORSDOF 0
ENDMDL
MODEL 9
REMARK VINA RESULT:    -7.765      3.569      9.449
REMARK INTER + INTRA:          -7.765
REMARK INTER:                  -7.765
REMARK INTRA:                   0.000
REMARK UNBOUND:                 0.000
REMARK  Name = /home/vital/Documents/PhD_2021/Malaria_codes/scripts/../data/pdbqt_ligands/ligand_450_temp.pdb
REMARK                            x       y       z     vdW  Elec       q    Type
REMARK                         _______ _______ _______ _____ _____    ______ ____
ROOT
ATOM      1  O   UNL     1     153.278 156.672 154.127  0.00  0.00    -0.507 OA
ATOM      2  C   UNL     1     152.508 157.086 155.173  0.00  0.00    +0.122 A 
ATOM      3  C   UNL     1     152.263 158.447 155.298  0.00  0.00    +0.016 A 
ATOM      4  C   UNL     1     151.481 158.905 156.356  0.00  0.00    +0.134 A 
ATOM      5  F   UNL     1     151.254 160.222 156.462  0.00  0.00    -0.205 F 
ATOM      6  C   UNL     1     150.938 158.027 157.296  0.00  0.00    +0.037 A 
ATOM      7  C   UNL     1     150.100 158.529 158.441  0.00  0.00    +0.030 C 
ATOM      8  N   UNL     1     150.786 158.435 159.739  0.00  0.00    -0.296 N 
ATOM      9  C   UNL     1     151.842 159.453 159.923  0.00  0.00    +0.012 C 
ATOM     10  C   UNL     1     151.464 160.606 160.882  0.00  0.00    +0.012 C 
ATOM     11  N   UNL     1     151.038 160.177 162.231  0.00  0.00    -0.296 N 
ATOM     12  C   UNL     1     152.143 160.266 163.198  0.00  0.00    +0.024 C 
ATOM     13  C   UNL     1     151.707 160.034 164.629  0.00  0.00    -0.031 A 
ATOM     14  C   UNL     1     150.802 160.913 165.251  0.00  0.00    -0.057 A 
ATOM     15  C   UNL     1     150.401 160.708 166.575  0.00  0.00    -0.059 A 
ATOM     16  C   UNL     1     150.902 159.620 167.289  0.00  0.00    -0.026 A 
ATOM     17  C   UNL     1     151.793 158.748 166.675  0.00  0.00    +0.124 A 
ATOM     18  F   UNL     1     152.270 157.701 167.362  0.00  0.00    -0.205 F 
ATOM     19  C   UNL     1     152.200 158.944 165.359  0.00  0.00    -0.022 A 
ATOM     20  C   UNL     1     150.463 158.812 162.195  0.00  0.00    +0.012 C 
ATOM     21  C   UNL     1     149.803 158.478 160.842  0.00  0.00    +0.012 C 
ATOM     22  C   UNL     1     151.195 156.662 157.135  0.00  0.00    +0.134 A 
ATOM     23  F   UNL     1     150.662 155.774 157.987  0.00  0.00    -0.205 F 
ATOM     24  C   UNL     1     151.978 156.183 156.086  0.00  0.00    +0.016 A 
ATOM     25  H   UNL     1     153.625 157.299 153.523  0.00  0.00    +0.000 HD
ATOM     26  H   UNL     1     151.266 157.534 159.753  0.00  0.00    +0.000 HD
ATOM     27  H   UNL     1     150.308 160.817 162.544  0.00  0.00    +0.000 HD
ENDROOT
TORSDOF 0
ENDMDL
