MODEL 1
REMARK VINA RESULT:    -9.602      0.000      0.000
REMARK INTER + INTRA:          -9.602
REMARK INTER:                  -9.602
REMARK INTRA:                   0.000
REMARK UNBOUND:                 0.000
REMARK  Name = /home/vital/Documents/PhD_2021/Malaria_codes/scripts/../data/pdbqt_ligands/ligand_164_temp.pdb
REMARK                            x       y       z     vdW  Elec       q    Type
REMARK                         _______ _______ _______ _____ _____    ______ ____
ROOT
ATOM      1  C1  UNL     1     150.493 151.547 164.612  0.00  0.00    -0.044 C 
ATOM      2  C2  UNL     1     149.244 152.366 164.784  0.00  0.00    -0.076 C 
ATOM      3  C3  UNL     1     148.080 151.603 165.363  0.00  0.00    -0.044 C 
ATOM      4  C4  UNL     1     149.115 153.671 164.466  0.00  0.00    -0.048 C 
ATOM      5  C5  UNL     1     150.136 154.595 163.869  0.00  0.00    +0.108 C 
ATOM      6  O1  UNL     1     149.521 155.232 162.747  0.00  0.00    -0.488 OA
ATOM      7  C6  UNL     1     150.267 156.150 162.062  0.00  0.00    +0.128 A 
ATOM      8  C7  UNL     1     151.570 156.542 162.369  0.00  0.00    +0.022 A 
ATOM      9  C8  UNL     1     152.210 157.503 161.584  0.00  0.00    +0.134 A 
ATOM     10  O2  UNL     1     153.480 157.852 161.961  0.00  0.00    -0.506 OA
ATOM     11  C9  UNL     1     151.559 158.070 160.484  0.00  0.00    +0.103 A 
ATOM     12  C10 UNL     1     150.266 157.668 160.165  0.00  0.00    +0.139 A 
ATOM     13  C11 UNL     1     149.619 156.723 160.963  0.00  0.00    +0.023 A 
ATOM     14  O3  UNL     1     149.551 158.163 159.110  0.00  0.00    -0.480 OA
ATOM     15  C12 UNL     1     150.352 158.690 158.032  0.00  0.00    +0.158 C 
ATOM     16  C13 UNL     1     150.839 157.542 157.147  0.00  0.00    -0.004 A 
ATOM     17  C14 UNL     1     152.189 157.306 156.841  0.00  0.00    -0.052 A 
ATOM     18  C15 UNL     1     152.563 156.234 156.022  0.00  0.00    -0.020 A 
ATOM     19  C16 UNL     1     151.588 155.392 155.502  0.00  0.00    +0.117 A 
ATOM     20  O4  UNL     1     151.911 154.337 154.702  0.00  0.00    -0.507 OA
ATOM     21  C17 UNL     1     150.247 155.603 155.784  0.00  0.00    -0.020 A 
ATOM     22  C18 UNL     1     149.875 156.672 156.602  0.00  0.00    -0.052 A 
ATOM     23  C19 UNL     1     151.391 159.706 158.532  0.00  0.00    +0.158 C 
ATOM     24  O5  UNL     1     150.765 160.907 158.992  0.00  0.00    -0.380 OA
ATOM     25  C20 UNL     1     152.195 159.118 159.670  0.00  0.00    +0.202 C 
ATOM     26  O6  UNL     1     153.318 159.531 159.964  0.00  0.00    -0.289 OA
ATOM     27  H   UNL     1     153.876 157.444 162.705  0.00  0.00    +0.000 HD
ATOM     28  H   UNL     1     152.807 154.166 154.491  0.00  0.00    +0.000 HD
ATOM     29  H   UNL     1     150.183 160.702 159.741  0.00  0.00    +0.000 HD
ENDROOT
TORSDOF 0
ENDMDL
MODEL 2
REMARK VINA RESULT:    -9.104      6.120      8.079
REMARK INTER + INTRA:          -9.104
REMARK INTER:                  -9.104
REMARK INTRA:                   0.000
REMARK UNBOUND:                 0.000
REMARK  Name = /home/vital/Documents/PhD_2021/Malaria_codes/scripts/../data/pdbqt_ligands/ligand_164_temp.pdb
REMARK                            x       y       z     vdW  Elec       q    Type
REMARK                         _______ _______ _______ _____ _____    ______ ____
ROOT
ATOM      1  C1  UNL     1     148.144 153.183 164.453  0.00  0.00    -0.044 C 
ATOM      2  C2  UNL     1     148.590 153.023 165.879  0.00  0.00    -0.076 C 
ATOM      3  C3  UNL     1     147.793 152.013 166.665  0.00  0.00    -0.044 C 
ATOM      4  C4  UNL     1     149.605 153.694 166.461  0.00  0.00    -0.048 C 
ATOM      5  C5  UNL     1     150.500 154.742 165.865  0.00  0.00    +0.108 C 
ATOM      6  O1  UNL     1     150.497 155.856 166.760  0.00  0.00    -0.488 OA
ATOM      7  C6  UNL     1     151.279 156.927 166.428  0.00  0.00    +0.128 A 
ATOM      8  C7  UNL     1     152.098 157.029 165.304  0.00  0.00    +0.022 A 
ATOM      9  C8  UNL     1     152.853 158.184 165.096  0.00  0.00    +0.134 A 
ATOM     10  O2  UNL     1     153.650 158.200 163.982  0.00  0.00    -0.506 OA
ATOM     11  C9  UNL     1     152.786 159.249 166.000  0.00  0.00    +0.103 A 
ATOM     12  C10 UNL     1     151.955 159.159 167.112  0.00  0.00    +0.139 A 
ATOM     13  C11 UNL     1     151.217 157.994 167.331  0.00  0.00    +0.023 A 
ATOM     14  O3  UNL     1     151.823 160.146 168.047  0.00  0.00    -0.480 OA
ATOM     15  C12 UNL     1     152.129 161.473 167.573  0.00  0.00    +0.158 C 
ATOM     16  C13 UNL     1     150.925 162.041 166.822  0.00  0.00    -0.004 A 
ATOM     17  C14 UNL     1     150.979 162.527 165.505  0.00  0.00    -0.052 A 
ATOM     18  C15 UNL     1     149.834 163.033 164.879  0.00  0.00    -0.020 A 
ATOM     19  C16 UNL     1     148.627 163.058 165.567  0.00  0.00    +0.117 A 
ATOM     20  O4  UNL     1     147.490 163.542 164.992  0.00  0.00    -0.507 OA
ATOM     21  C17 UNL     1     148.545 162.588 166.869  0.00  0.00    -0.020 A 
ATOM     22  C18 UNL     1     149.687 162.083 167.492  0.00  0.00    -0.052 A 
ATOM     23  C19 UNL     1     153.502 161.534 166.884  0.00  0.00    +0.158 C 
ATOM     24  O5  UNL     1     154.565 161.349 167.824  0.00  0.00    -0.380 OA
ATOM     25  C20 UNL     1     153.607 160.458 165.826  0.00  0.00    +0.202 C 
ATOM     26  O6  UNL     1     154.391 160.540 164.879  0.00  0.00    -0.289 OA
ATOM     27  H   UNL     1     153.662 157.463 163.404  0.00  0.00    +0.000 HD
ATOM     28  H   UNL     1     147.510 163.868 164.114  0.00  0.00    +0.000 HD
ATOM     29  H   UNL     1     154.488 160.472 168.231  0.00  0.00    +0.000 HD
ENDROOT
TORSDOF 0
ENDMDL
MODEL 3
REMARK VINA RESULT:    -8.846      3.904      5.970
REMARK INTER + INTRA:          -8.846
REMARK INTER:                  -8.846
REMARK INTRA:                   0.000
REMARK UNBOUND:                 0.000
REMARK  Name = /home/vital/Documents/PhD_2021/Malaria_codes/scripts/../data/pdbqt_ligands/ligand_164_temp.pdb
REMARK                            x       y       z     vdW  Elec       q    Type
REMARK                         _______ _______ _______ _____ _____    ______ ____
ROOT
ATOM      1  C1  UNL     1     152.675 162.610 167.242  0.00  0.00    -0.044 C 
ATOM      2  C2  UNL     1     151.286 163.070 166.896  0.00  0.00    -0.076 C 
ATOM      3  C3  UNL     1     150.472 163.522 168.082  0.00  0.00    -0.044 C 
ATOM      4  C4  UNL     1     150.759 163.100 165.654  0.00  0.00    -0.048 C 
ATOM      5  C5  UNL     1     151.389 162.681 164.358  0.00  0.00    +0.108 C 
ATOM      6  O1  UNL     1     150.469 161.802 163.708  0.00  0.00    -0.488 OA
ATOM      7  C6  UNL     1     150.829 161.317 162.481  0.00  0.00    +0.128 A 
ATOM      8  C7  UNL     1     152.003 161.617 161.791  0.00  0.00    +0.022 A 
ATOM      9  C8  UNL     1     152.235 161.055 160.535  0.00  0.00    +0.134 A 
ATOM     10  O2  UNL     1     153.400 161.414 159.911  0.00  0.00    -0.506 OA
ATOM     11  C9  UNL     1     151.303 160.181 159.965  0.00  0.00    +0.103 A 
ATOM     12  C10 UNL     1     150.140 159.865 160.659  0.00  0.00    +0.139 A 
ATOM     13  C11 UNL     1     149.899 160.445 161.905  0.00  0.00    +0.023 A 
ATOM     14  O3  UNL     1     149.174 159.022 160.185  0.00  0.00    -0.480 OA
ATOM     15  C12 UNL     1     149.636 158.055 159.219  0.00  0.00    +0.158 C 
ATOM     16  C13 UNL     1     150.290 156.879 159.944  0.00  0.00    -0.004 A 
ATOM     17  C14 UNL     1     151.595 156.427 159.689  0.00  0.00    -0.052 A 
ATOM     18  C15 UNL     1     152.130 155.341 160.393  0.00  0.00    -0.020 A 
ATOM     19  C16 UNL     1     151.361 154.698 161.355  0.00  0.00    +0.117 A 
ATOM     20  O4  UNL     1     151.845 153.639 162.061  0.00  0.00    -0.507 OA
ATOM     21  C17 UNL     1     150.068 155.120 161.624  0.00  0.00    -0.020 A 
ATOM     22  C18 UNL     1     149.536 156.204 160.923  0.00  0.00    -0.052 A 
ATOM     23  C19 UNL     1     150.415 158.718 158.071  0.00  0.00    +0.158 C 
ATOM     24  O5  UNL     1     149.554 159.508 157.246  0.00  0.00    -0.380 OA
ATOM     25  C20 UNL     1     151.504 159.613 158.623  0.00  0.00    +0.202 C 
ATOM     26  O6  UNL     1     152.499 159.919 157.965  0.00  0.00    -0.289 OA
ATOM     27  H   UNL     1     153.995 162.003 160.332  0.00  0.00    +0.000 HD
ATOM     28  H   UNL     1     152.714 153.328 161.904  0.00  0.00    +0.000 HD
ATOM     29  H   UNL     1     149.164 160.221 157.775  0.00  0.00    +0.000 HD
ENDROOT
TORSDOF 0
ENDMDL
MODEL 4
REMARK VINA RESULT:    -8.812      8.436     12.818
REMARK INTER + INTRA:          -8.812
REMARK INTER:                  -8.812
REMARK INTRA:                   0.000
REMARK UNBOUND:                 0.000
REMARK  Name = /home/vital/Documents/PhD_2021/Malaria_codes/scripts/../data/pdbqt_ligands/ligand_164_temp.pdb
REMARK                            x       y       z     vdW  Elec       q    Type
REMARK                         _______ _______ _______ _____ _____    ______ ____
ROOT
ATOM      1  C1  UNL     1     151.181 151.549 164.889  0.00  0.00    -0.044 C 
ATOM      2  C2  UNL     1     150.351 152.251 165.927  0.00  0.00    -0.076 C 
ATOM      3  C3  UNL     1     151.157 152.938 167.001  0.00  0.00    -0.044 C 
ATOM      4  C4  UNL     1     149.003 152.297 165.951  0.00  0.00    -0.048 C 
ATOM      5  C5  UNL     1     148.027 151.671 164.997  0.00  0.00    +0.108 C 
ATOM      6  O1  UNL     1     147.077 150.948 165.783  0.00  0.00    -0.488 OA
ATOM      7  C6  UNL     1     146.065 150.316 165.115  0.00  0.00    +0.128 A 
ATOM      8  C7  UNL     1     145.859 150.327 163.736  0.00  0.00    +0.022 A 
ATOM      9  C8  UNL     1     144.773 149.643 163.189  0.00  0.00    +0.134 A 
ATOM     10  O2  UNL     1     144.624 149.718 161.830  0.00  0.00    -0.506 OA
ATOM     11  C9  UNL     1     143.892 148.934 164.013  0.00  0.00    +0.103 A 
ATOM     12  C10 UNL     1     144.106 148.905 165.388  0.00  0.00    +0.139 A 
ATOM     13  C11 UNL     1     145.180 149.608 165.935  0.00  0.00    +0.023 A 
ATOM     14  O3  UNL     1     143.302 148.240 166.271  0.00  0.00    -0.480 OA
ATOM     15  C12 UNL     1     142.568 147.134 165.705  0.00  0.00    +0.158 C 
ATOM     16  C13 UNL     1     143.474 145.906 165.622  0.00  0.00    -0.004 A 
ATOM     17  C14 UNL     1     143.714 145.187 164.440  0.00  0.00    -0.052 A 
ATOM     18  C15 UNL     1     144.557 144.069 164.438  0.00  0.00    -0.020 A 
ATOM     19  C16 UNL     1     145.162 143.661 165.620  0.00  0.00    +0.117 A 
ATOM     20  O4  UNL     1     145.989 142.579 165.660  0.00  0.00    -0.507 OA
ATOM     21  C17 UNL     1     144.940 144.350 166.803  0.00  0.00    -0.020 A 
ATOM     22  C18 UNL     1     144.100 145.465 166.804  0.00  0.00    -0.052 A 
ATOM     23  C19 UNL     1     141.793 147.546 164.443  0.00  0.00    +0.158 C 
ATOM     24  O5  UNL     1     140.715 148.432 164.759  0.00  0.00    -0.380 OA
ATOM     25  C20 UNL     1     142.714 148.243 163.465  0.00  0.00    +0.202 C 
ATOM     26  O6  UNL     1     142.472 148.298 162.259  0.00  0.00    -0.289 OA
ATOM     27  H   UNL     1     145.239 150.205 161.318  0.00  0.00    +0.000 HD
ATOM     28  H   UNL     1     146.161 142.091 164.879  0.00  0.00    +0.000 HD
ATOM     29  H   UNL     1     141.069 149.244 165.155  0.00  0.00    +0.000 HD
ENDROOT
TORSDOF 0
ENDMDL
MODEL 5
REMARK VINA RESULT:    -8.310      5.859      9.062
REMARK INTER + INTRA:          -8.310
REMARK INTER:                  -8.310
REMARK INTRA:                   0.000
REMARK UNBOUND:                 0.000
REMARK  Name = /home/vital/Documents/PhD_2021/Malaria_codes/scripts/../data/pdbqt_ligands/ligand_164_temp.pdb
REMARK                            x       y       z     vdW  Elec       q    Type
REMARK                         _______ _______ _______ _____ _____    ______ ____
ROOT
ATOM      1  C1  UNL     1     150.700 156.952 159.440  0.00  0.00    -0.044 C 
ATOM      2  C2  UNL     1     150.911 155.768 160.342  0.00  0.00    -0.076 C 
ATOM      3  C3  UNL     1     150.342 154.477 159.810  0.00  0.00    -0.044 C 
ATOM      4  C4  UNL     1     151.546 155.795 161.532  0.00  0.00    -0.048 C 
ATOM      5  C5  UNL     1     152.160 156.967 162.241  0.00  0.00    +0.108 C 
ATOM      6  O1  UNL     1     151.650 156.966 163.576  0.00  0.00    -0.488 OA
ATOM      7  C6  UNL     1     152.105 157.941 164.419  0.00  0.00    +0.128 A 
ATOM      8  C7  UNL     1     153.040 158.928 164.106  0.00  0.00    +0.022 A 
ATOM      9  C8  UNL     1     153.421 159.857 165.075  0.00  0.00    +0.134 A 
ATOM     10  O2  UNL     1     154.359 160.781 164.699  0.00  0.00    -0.506 OA
ATOM     11  C9  UNL     1     152.866 159.815 166.358  0.00  0.00    +0.103 A 
ATOM     12  C10 UNL     1     151.919 158.843 166.668  0.00  0.00    +0.139 A 
ATOM     13  C11 UNL     1     151.554 157.901 165.705  0.00  0.00    +0.023 A 
ATOM     14  O3  UNL     1     151.321 158.724 167.891  0.00  0.00    -0.480 OA
ATOM     15  C12 UNL     1     151.278 159.941 168.664  0.00  0.00    +0.158 C 
ATOM     16  C13 UNL     1     150.111 160.808 168.191  0.00  0.00    -0.004 A 
ATOM     17  C14 UNL     1     150.246 162.140 167.766  0.00  0.00    -0.052 A 
ATOM     18  C15 UNL     1     149.131 162.875 167.346  0.00  0.00    -0.020 A 
ATOM     19  C16 UNL     1     147.874 162.284 167.350  0.00  0.00    +0.117 A 
ATOM     20  O4  UNL     1     146.765 162.966 166.948  0.00  0.00    -0.507 OA
ATOM     21  C17 UNL     1     147.711 160.972 167.768  0.00  0.00    -0.020 A 
ATOM     22  C18 UNL     1     148.823 160.239 168.187  0.00  0.00    -0.052 A 
ATOM     23  C19 UNL     1     152.663 160.597 168.779  0.00  0.00    +0.158 C 
ATOM     24  O5  UNL     1     153.545 159.813 169.589  0.00  0.00    -0.380 OA
ATOM     25  C20 UNL     1     153.286 160.754 167.409  0.00  0.00    +0.202 C 
ATOM     26  O6  UNL     1     154.161 161.589 167.176  0.00  0.00    -0.289 OA
ATOM     27  H   UNL     1     154.703 160.771 163.827  0.00  0.00    +0.000 HD
ATOM     28  H   UNL     1     146.839 163.854 166.660  0.00  0.00    +0.000 HD
ATOM     29  H   UNL     1     153.673 158.943 169.179  0.00  0.00    +0.000 HD
ENDROOT
TORSDOF 0
ENDMDL
MODEL 6
REMARK VINA RESULT:    -8.229      4.986      9.035
REMARK INTER + INTRA:          -8.229
REMARK INTER:                  -8.229
REMARK INTRA:                   0.000
REMARK UNBOUND:                 0.000
REMARK  Name = /home/vital/Documents/PhD_2021/Malaria_codes/scripts/../data/pdbqt_ligands/ligand_164_temp.pdb
REMARK                            x       y       z     vdW  Elec       q    Type
REMARK                         _______ _______ _______ _____ _____    ______ ____
ROOT
ATOM      1  C1  UNL     1     149.645 158.568 157.869  0.00  0.00    -0.044 C 
ATOM      2  C2  UNL     1     151.013 159.188 157.819  0.00  0.00    -0.076 C 
ATOM      3  C3  UNL     1     151.860 158.722 156.662  0.00  0.00    -0.044 C 
ATOM      4  C4  UNL     1     151.497 160.087 158.701  0.00  0.00    -0.048 C 
ATOM      5  C5  UNL     1     150.829 160.659 159.917  0.00  0.00    +0.108 C 
ATOM      6  O1  UNL     1     151.740 160.506 161.008  0.00  0.00    -0.488 OA
ATOM      7  C6  UNL     1     151.347 160.993 162.224  0.00  0.00    +0.128 A 
ATOM      8  C7  UNL     1     150.145 161.646 162.497  0.00  0.00    +0.022 A 
ATOM      9  C8  UNL     1     149.880 162.100 163.790  0.00  0.00    +0.134 A 
ATOM     10  O2  UNL     1     148.689 162.751 163.976  0.00  0.00    -0.506 OA
ATOM     11  C9  UNL     1     150.805 161.898 164.819  0.00  0.00    +0.103 A 
ATOM     12  C10 UNL     1     151.997 161.230 164.553  0.00  0.00    +0.139 A 
ATOM     13  C11 UNL     1     152.271 160.795 163.256  0.00  0.00    +0.023 A 
ATOM     14  O3  UNL     1     152.959 160.984 165.492  0.00  0.00    -0.480 OA
ATOM     15  C12 UNL     1     152.479 160.938 166.852  0.00  0.00    +0.158 C 
ATOM     16  C13 UNL     1     151.869 159.565 167.134  0.00  0.00    -0.004 A 
ATOM     17  C14 UNL     1     150.563 159.370 167.613  0.00  0.00    -0.052 A 
ATOM     18  C15 UNL     1     150.070 158.081 167.850  0.00  0.00    -0.020 A 
ATOM     19  C16 UNL     1     150.881 156.979 167.612  0.00  0.00    +0.117 A 
ATOM     20  O4  UNL     1     150.439 155.709 167.829  0.00  0.00    -0.507 OA
ATOM     21  C17 UNL     1     152.176 157.142 167.143  0.00  0.00    -0.020 A 
ATOM     22  C18 UNL     1     152.667 158.427 166.906  0.00  0.00    -0.052 A 
ATOM     23  C19 UNL     1     151.651 162.182 167.210  0.00  0.00    +0.158 C 
ATOM     24  O5  UNL     1     152.471 163.354 167.270  0.00  0.00    -0.380 OA
ATOM     25  C20 UNL     1     150.568 162.409 166.178  0.00  0.00    +0.202 C 
ATOM     26  O6  UNL     1     149.546 163.049 166.427  0.00  0.00    -0.289 OA
ATOM     27  H   UNL     1     148.099 162.864 163.256  0.00  0.00    +0.000 HD
ATOM     28  H   UNL     1     149.569 155.563 168.146  0.00  0.00    +0.000 HD
ATOM     29  H   UNL     1     152.867 163.515 166.400  0.00  0.00    +0.000 HD
ENDROOT
TORSDOF 0
ENDMDL
MODEL 7
REMARK VINA RESULT:    -7.986      4.381      7.440
REMARK INTER + INTRA:          -7.986
REMARK INTER:                  -7.986
REMARK INTRA:                   0.000
REMARK UNBOUND:                 0.000
REMARK  Name = /home/vital/Documents/PhD_2021/Malaria_codes/scripts/../data/pdbqt_ligands/ligand_164_temp.pdb
REMARK                            x       y       z     vdW  Elec       q    Type
REMARK                         _______ _______ _______ _____ _____    ______ ____
ROOT
ATOM      1  C1  UNL     1     146.739 152.649 162.772  0.00  0.00    -0.044 C 
ATOM      2  C2  UNL     1     147.945 152.078 163.464  0.00  0.00    -0.076 C 
ATOM      3  C3  UNL     1     147.727 150.709 164.055  0.00  0.00    -0.044 C 
ATOM      4  C4  UNL     1     149.143 152.689 163.578  0.00  0.00    -0.048 C 
ATOM      5  C5  UNL     1     149.556 154.044 163.082  0.00  0.00    +0.108 C 
ATOM      6  O1  UNL     1     150.159 154.729 164.183  0.00  0.00    -0.488 OA
ATOM      7  C6  UNL     1     150.642 155.985 163.947  0.00  0.00    +0.128 A 
ATOM      8  C7  UNL     1     150.622 156.658 162.725  0.00  0.00    +0.022 A 
ATOM      9  C8  UNL     1     151.164 157.940 162.629  0.00  0.00    +0.134 A 
ATOM     10  O2  UNL     1     151.127 158.527 161.391  0.00  0.00    -0.506 OA
ATOM     11  C9  UNL     1     151.719 158.564 163.751  0.00  0.00    +0.103 A 
ATOM     12  C10 UNL     1     151.723 157.903 164.975  0.00  0.00    +0.139 A 
ATOM     13  C11 UNL     1     151.200 156.612 165.066  0.00  0.00    +0.023 A 
ATOM     14  O3  UNL     1     152.240 158.432 166.125  0.00  0.00    -0.480 OA
ATOM     15  C12 UNL     1     152.275 159.873 166.166  0.00  0.00    +0.158 C 
ATOM     16  C13 UNL     1     150.896 160.409 166.554  0.00  0.00    -0.004 A 
ATOM     17  C14 UNL     1     150.174 161.340 165.791  0.00  0.00    -0.052 A 
ATOM     18  C15 UNL     1     148.914 161.787 166.208  0.00  0.00    -0.020 A 
ATOM     19  C16 UNL     1     148.371 161.308 167.393  0.00  0.00    +0.117 A 
ATOM     20  O4  UNL     1     147.148 161.718 167.833  0.00  0.00    -0.507 OA
ATOM     21  C17 UNL     1     149.064 160.391 168.168  0.00  0.00    -0.020 A 
ATOM     22  C18 UNL     1     150.319 159.944 167.751  0.00  0.00    -0.052 A 
ATOM     23  C19 UNL     1     152.955 160.466 164.921  0.00  0.00    +0.158 C 
ATOM     24  O5  UNL     1     154.356 160.179 164.907  0.00  0.00    -0.380 OA
ATOM     25  C20 UNL     1     152.337 159.896 163.663  0.00  0.00    +0.202 C 
ATOM     26  O6  UNL     1     152.394 160.480 162.580  0.00  0.00    -0.289 OA
ATOM     27  H   UNL     1     150.745 158.071 160.668  0.00  0.00    +0.000 HD
ATOM     28  H   UNL     1     146.654 162.337 167.334  0.00  0.00    +0.000 HD
ATOM     29  H   UNL     1     154.489 159.219 164.876  0.00  0.00    +0.000 HD
ENDROOT
TORSDOF 0
ENDMDL
MODEL 8
REMARK VINA RESULT:    -7.927      4.145      6.756
REMARK INTER + INTRA:          -7.927
REMARK INTER:                  -7.927
REMARK INTRA:                   0.000
REMARK UNBOUND:                 0.000
REMARK  Name = /home/vital/Documents/PhD_2021/Malaria_codes/scripts/../data/pdbqt_ligands/ligand_164_temp.pdb
REMARK                            x       y       z     vdW  Elec       q    Type
REMARK                         _______ _______ _______ _____ _____    ______ ____
ROOT
ATOM      1  C1  UNL     1     148.585 152.749 165.597  0.00  0.00    -0.044 C 
ATOM      2  C2  UNL     1     150.078 152.780 165.772  0.00  0.00    -0.076 C 
ATOM      3  C3  UNL     1     150.601 151.794 166.785  0.00  0.00    -0.044 C 
ATOM      4  C4  UNL     1     150.926 153.594 165.111  0.00  0.00    -0.048 C 
ATOM      5  C5  UNL     1     150.610 154.646 164.088  0.00  0.00    +0.108 C 
ATOM      6  O1  UNL     1     151.272 155.845 164.499  0.00  0.00    -0.488 OA
ATOM      7  C6  UNL     1     151.145 156.938 163.688  0.00  0.00    +0.128 A 
ATOM      8  C7  UNL     1     150.446 156.990 162.483  0.00  0.00    +0.022 A 
ATOM      9  C8  UNL     1     150.410 158.178 161.751  0.00  0.00    +0.134 A 
ATOM     10  O2  UNL     1     149.722 158.145 160.567  0.00  0.00    -0.506 OA
ATOM     11  C9  UNL     1     151.061 159.323 162.221  0.00  0.00    +0.103 A 
ATOM     12  C10 UNL     1     151.743 159.279 163.433  0.00  0.00    +0.139 A 
ATOM     13  C11 UNL     1     151.797 158.085 164.154  0.00  0.00    +0.023 A 
ATOM     14  O3  UNL     1     152.406 160.345 163.974  0.00  0.00    -0.480 OA
ATOM     15  C12 UNL     1     151.925 161.637 163.546  0.00  0.00    +0.158 C 
ATOM     16  C13 UNL     1     150.683 162.014 164.354  0.00  0.00    -0.004 A 
ATOM     17  C14 UNL     1     149.450 162.361 163.780  0.00  0.00    -0.052 A 
ATOM     18  C15 UNL     1     148.353 162.697 164.583  0.00  0.00    -0.020 A 
ATOM     19  C16 UNL     1     148.484 162.691 165.966  0.00  0.00    +0.117 A 
ATOM     20  O4  UNL     1     147.441 163.011 166.782  0.00  0.00    -0.507 OA
ATOM     21  C17 UNL     1     149.692 162.356 166.560  0.00  0.00    -0.020 A 
ATOM     22  C18 UNL     1     150.785 162.020 165.759  0.00  0.00    -0.052 A 
ATOM     23  C19 UNL     1     151.849 161.742 162.015  0.00  0.00    +0.158 C 
ATOM     24  O5  UNL     1     153.153 161.751 161.427  0.00  0.00    -0.380 OA
ATOM     25  C20 UNL     1     151.075 160.573 161.445  0.00  0.00    +0.202 C 
ATOM     26  O6  UNL     1     150.524 160.622 160.345  0.00  0.00    -0.289 OA
ATOM     27  H   UNL     1     149.300 157.354 160.292  0.00  0.00    +0.000 HD
ATOM     28  H   UNL     1     146.612 163.242 166.413  0.00  0.00    +0.000 HD
ATOM     29  H   UNL     1     153.606 160.918 161.634  0.00  0.00    +0.000 HD
ENDROOT
TORSDOF 0
ENDMDL
MODEL 9
REMARK VINA RESULT:    -7.664      8.642     14.245
REMARK INTER + INTRA:          -7.664
REMARK INTER:                  -7.664
REMARK INTRA:                   0.000
REMARK UNBOUND:                 0.000
REMARK  Name = /home/vital/Documents/PhD_2021/Malaria_codes/scripts/../data/pdbqt_ligands/ligand_164_temp.pdb
REMARK                            x       y       z     vdW  Elec       q    Type
REMARK                         _______ _______ _______ _____ _____    ______ ____
ROOT
ATOM      1  C1  UNL     1     148.519 152.198 163.971  0.00  0.00    -0.044 C 
ATOM      2  C2  UNL     1     148.671 152.004 165.454  0.00  0.00    -0.076 C 
ATOM      3  C3  UNL     1     149.997 152.464 166.003  0.00  0.00    -0.044 C 
ATOM      4  C4  UNL     1     147.740 151.471 166.272  0.00  0.00    -0.048 C 
ATOM      5  C5  UNL     1     146.379 150.940 165.924  0.00  0.00    +0.108 C 
ATOM      6  O1  UNL     1     146.275 149.638 166.504  0.00  0.00    -0.488 OA
ATOM      7  C6  UNL     1     145.092 148.973 166.337  0.00  0.00    +0.128 A 
ATOM      8  C7  UNL     1     143.966 149.455 165.671  0.00  0.00    +0.022 A 
ATOM      9  C8  UNL     1     142.817 148.666 165.587  0.00  0.00    +0.134 A 
ATOM     10  O2  UNL     1     141.745 149.216 164.936  0.00  0.00    -0.506 OA
ATOM     11  C9  UNL     1     142.789 147.389 166.157  0.00  0.00    +0.103 A 
ATOM     12  C10 UNL     1     143.917 146.898 166.806  0.00  0.00    +0.139 A 
ATOM     13  C11 UNL     1     145.058 147.696 166.908  0.00  0.00    +0.023 A 
ATOM     14  O3  UNL     1     143.985 145.665 167.391  0.00  0.00    -0.480 OA
ATOM     15  C12 UNL     1     143.072 144.688 166.848  0.00  0.00    +0.158 C 
ATOM     16  C13 UNL     1     143.656 144.098 165.564  0.00  0.00    -0.004 A 
ATOM     17  C14 UNL     1     142.988 144.091 164.329  0.00  0.00    -0.052 A 
ATOM     18  C15 UNL     1     143.585 143.532 163.193  0.00  0.00    -0.020 A 
ATOM     19  C16 UNL     1     144.853 142.974 163.285  0.00  0.00    +0.117 A 
ATOM     20  O4  UNL     1     145.469 142.421 162.203  0.00  0.00    -0.507 OA
ATOM     21  C17 UNL     1     145.535 142.964 164.493  0.00  0.00    -0.020 A 
ATOM     22  C18 UNL     1     144.940 143.522 165.625  0.00  0.00    -0.052 A 
ATOM     23  C19 UNL     1     141.628 145.212 166.809  0.00  0.00    +0.158 C 
ATOM     24  O5  UNL     1     141.090 145.356 168.128  0.00  0.00    -0.380 OA
ATOM     25  C20 UNL     1     141.575 146.558 166.121  0.00  0.00    +0.202 C 
ATOM     26  O6  UNL     1     140.546 146.991 165.600  0.00  0.00    -0.289 OA
ATOM     27  H   UNL     1     141.810 150.076 164.569  0.00  0.00    +0.000 HD
ATOM     28  H   UNL     1     145.036 142.411 161.372  0.00  0.00    +0.000 HD
ATOM     29  H   UNL     1     141.616 146.004 168.622  0.00  0.00    +0.000 HD
ENDROOT
TORSDOF 0
ENDMDL
