MODEL 1
REMARK VINA RESULT:   -11.408      0.000      0.000
REMARK INTER + INTRA:         -11.408
REMARK INTER:                 -11.408
REMARK INTRA:                   0.000
REMARK UNBOUND:                 0.000
REMARK  Name = /home/vital/Documents/PhD_2021/Malaria_codes/scripts/../data/pdbqt_ligands/ligand_91_temp.pdb
REMARK                            x       y       z     vdW  Elec       q    Type
REMARK                         _______ _______ _______ _____ _____    ______ ____
ROOT
ATOM      1  C1  UNL     1     153.065 155.534 149.786  0.00  0.00    -0.031 C 
ATOM      2  C2  UNL     1     152.874 155.251 151.265  0.00  0.00    +0.087 C 
ATOM      3  O1  UNL     1     152.504 156.472 151.904  0.00  0.00    -0.492 OA
ATOM      4  C3  UNL     1     152.265 156.426 153.248  0.00  0.00    +0.121 A 
ATOM      5  C4  UNL     1     152.381 155.304 154.067  0.00  0.00    -0.019 A 
ATOM      6  C5  UNL     1     152.095 155.394 155.439  0.00  0.00    -0.049 A 
ATOM      7  C6  UNL     1     151.688 156.607 156.013  0.00  0.00    +0.002 A 
ATOM      8  C7  UNL     1     151.371 156.708 157.443  0.00  0.00    +0.094 A 
ATOM      9  C8  UNL     1     151.177 155.654 158.377  0.00  0.00    -0.006 A 
ATOM     10  C9  UNL     1     150.887 156.272 159.571  0.00  0.00    +0.099 A 
ATOM     11  C10 UNL     1     150.570 155.847 160.904  0.00  0.00    +0.123 A 
ATOM     12  S1  UNL     1     150.512 154.127 161.180  0.00  0.00    -0.094 S 
ATOM     13  C11 UNL     1     149.087 154.033 162.300  0.00  0.00    +0.077 C 
ATOM     14  C12 UNL     1     149.471 154.014 163.775  0.00  0.00    +0.228 C 
ATOM     15  O2  UNL     1     148.903 153.235 164.538  0.00  0.00    -0.275 OA
ATOM     16  N1  UNL     1     150.352 155.011 164.150  0.00  0.00    -0.282 N 
ATOM     17  C13 UNL     1     150.950 155.189 165.416  0.00  0.00    +0.077 A 
ATOM     18  C14 UNL     1     151.278 156.508 165.764  0.00  0.00    -0.019 A 
ATOM     19  C15 UNL     1     151.862 156.789 166.997  0.00  0.00    +0.043 A 
ATOM     20 CL1  UNL     1     152.239 158.416 167.411  0.00  0.00    -0.083 Cl
ATOM     21  C16 UNL     1     152.154 155.765 167.893  0.00  0.00    -0.040 A 
ATOM     22  C17 UNL     1     151.873 154.445 167.542  0.00  0.00    -0.017 A 
ATOM     23  C18 UNL     1     151.273 154.151 166.308  0.00  0.00    +0.141 A 
ATOM     24  O3  UNL     1     151.172 152.847 165.898  0.00  0.00    -0.493 OA
ATOM     25  C19 UNL     1     150.445 152.030 166.815  0.00  0.00    +0.079 C 
ATOM     26  N2  UNL     1     150.339 156.680 161.881  0.00  0.00    -0.245 NA
ATOM     27  C20 UNL     1     150.399 158.030 161.585  0.00  0.00    +0.047 A 
ATOM     28  C21 UNL     1     150.678 158.512 160.365  0.00  0.00    +0.048 A 
ATOM     29  N3  UNL     1     150.926 157.626 159.330  0.00  0.00    -0.235 N 
ATOM     30  N4  UNL     1     151.210 157.900 158.042  0.00  0.00    -0.166 NA
ATOM     31  C22 UNL     1     151.584 157.730 155.180  0.00  0.00    -0.049 A 
ATOM     32  C23 UNL     1     151.870 157.638 153.813  0.00  0.00    -0.019 A 
ATOM     33  H   UNL     1     150.587 155.670 163.458  0.00  0.00    +0.000 HD
ENDROOT
TORSDOF 0
ENDMDL
MODEL 2
REMARK VINA RESULT:   -11.312      3.833     10.471
REMARK INTER + INTRA:         -11.312
REMARK INTER:                 -11.312
REMARK INTRA:                   0.000
REMARK UNBOUND:                 0.000
REMARK  Name = /home/vital/Documents/PhD_2021/Malaria_codes/scripts/../data/pdbqt_ligands/ligand_91_temp.pdb
REMARK                            x       y       z     vdW  Elec       q    Type
REMARK                         _______ _______ _______ _____ _____    ______ ____
ROOT
ATOM      1  C1  UNL     1     143.467 146.818 167.087  0.00  0.00    -0.031 C 
ATOM      2  C2  UNL     1     144.131 147.783 166.121  0.00  0.00    +0.087 C 
ATOM      3  O1  UNL     1     145.005 148.626 166.871  0.00  0.00    -0.492 OA
ATOM      4  C3  UNL     1     145.718 149.561 166.175  0.00  0.00    +0.121 A 
ATOM      5  C4  UNL     1     145.649 149.796 164.803  0.00  0.00    -0.019 A 
ATOM      6  C5  UNL     1     146.448 150.788 164.212  0.00  0.00    -0.049 A 
ATOM      7  C6  UNL     1     147.328 151.560 164.984  0.00  0.00    +0.002 A 
ATOM      8  C7  UNL     1     148.180 152.589 164.374  0.00  0.00    +0.094 A 
ATOM      9  C8  UNL     1     148.448 152.803 162.994  0.00  0.00    -0.006 A 
ATOM     10  C9  UNL     1     149.313 153.871 162.950  0.00  0.00    +0.099 A 
ATOM     11  C10 UNL     1     149.998 154.605 161.926  0.00  0.00    +0.123 A 
ATOM     12  S1  UNL     1     149.731 154.085 160.284  0.00  0.00    -0.094 S 
ATOM     13  C11 UNL     1     151.405 154.287 159.611  0.00  0.00    +0.077 C 
ATOM     14  C12 UNL     1     151.618 155.617 158.899  0.00  0.00    +0.228 C 
ATOM     15  O2  UNL     1     152.223 155.641 157.829  0.00  0.00    -0.275 OA
ATOM     16  N1  UNL     1     151.222 156.725 159.625  0.00  0.00    -0.282 N 
ATOM     17  C13 UNL     1     151.213 158.069 159.195  0.00  0.00    +0.077 A 
ATOM     18  C14 UNL     1     151.379 159.038 160.195  0.00  0.00    -0.019 A 
ATOM     19  C15 UNL     1     151.396 160.394 159.871  0.00  0.00    +0.043 A 
ATOM     20 CL1  UNL     1     151.619 161.565 161.112  0.00  0.00    -0.083 Cl
ATOM     21  C16 UNL     1     151.225 160.809 158.554  0.00  0.00    -0.040 A 
ATOM     22  C17 UNL     1     151.016 159.858 157.556  0.00  0.00    -0.017 A 
ATOM     23  C18 UNL     1     151.009 158.490 157.869  0.00  0.00    +0.141 A 
ATOM     24  O3  UNL     1     150.622 157.580 156.919  0.00  0.00    -0.493 OA
ATOM     25  C19 UNL     1     151.418 157.638 155.736  0.00  0.00    +0.079 C 
ATOM     26  N2  UNL     1     150.781 155.618 162.178  0.00  0.00    -0.245 NA
ATOM     27  C20 UNL     1     150.947 155.971 163.505  0.00  0.00    +0.047 A 
ATOM     28  C21 UNL     1     150.354 155.333 164.524  0.00  0.00    +0.048 A 
ATOM     29  N3  UNL     1     149.520 154.259 164.254  0.00  0.00    -0.235 N 
ATOM     30  N4  UNL     1     148.845 153.484 165.124  0.00  0.00    -0.166 NA
ATOM     31  C22 UNL     1     147.380 151.320 166.364  0.00  0.00    -0.049 A 
ATOM     32  C23 UNL     1     146.583 150.331 166.951  0.00  0.00    -0.019 A 
ATOM     33  H   UNL     1     150.911 156.558 160.544  0.00  0.00    +0.000 HD
ENDROOT
TORSDOF 0
ENDMDL
MODEL 3
REMARK VINA RESULT:   -11.251      1.177      1.429
REMARK INTER + INTRA:         -11.251
REMARK INTER:                 -11.251
REMARK INTRA:                   0.000
REMARK UNBOUND:                 0.000
REMARK  Name = /home/vital/Documents/PhD_2021/Malaria_codes/scripts/../data/pdbqt_ligands/ligand_91_temp.pdb
REMARK                            x       y       z     vdW  Elec       q    Type
REMARK                         _______ _______ _______ _____ _____    ______ ____
ROOT
ATOM      1  C1  UNL     1     153.263 155.541 150.078  0.00  0.00    -0.031 C 
ATOM      2  C2  UNL     1     153.164 155.432 151.589  0.00  0.00    +0.087 C 
ATOM      3  O1  UNL     1     152.542 156.620 152.077  0.00  0.00    -0.492 OA
ATOM      4  C3  UNL     1     152.342 156.711 153.426  0.00  0.00    +0.121 A 
ATOM      5  C4  UNL     1     152.719 155.766 154.379  0.00  0.00    -0.019 A 
ATOM      6  C5  UNL     1     152.443 155.983 155.739  0.00  0.00    -0.049 A 
ATOM      7  C6  UNL     1     151.787 157.145 156.166  0.00  0.00    +0.002 A 
ATOM      8  C7  UNL     1     151.479 157.374 157.584  0.00  0.00    +0.094 A 
ATOM      9  C8  UNL     1     151.541 156.444 158.657  0.00  0.00    -0.006 A 
ATOM     10  C9  UNL     1     151.140 157.144 159.771  0.00  0.00    +0.099 A 
ATOM     11  C10 UNL     1     150.949 156.850 161.162  0.00  0.00    +0.123 A 
ATOM     12  S1  UNL     1     151.280 155.215 161.666  0.00  0.00    -0.094 S 
ATOM     13  C11 UNL     1     149.930 154.969 162.855  0.00  0.00    +0.077 C 
ATOM     14  C12 UNL     1     150.334 155.240 164.299  0.00  0.00    +0.228 C 
ATOM     15  O2  UNL     1     149.967 154.470 165.185  0.00  0.00    -0.275 OA
ATOM     16  N1  UNL     1     150.976 156.448 164.497  0.00  0.00    -0.282 N 
ATOM     17  C13 UNL     1     151.542 156.928 165.698  0.00  0.00    +0.077 A 
ATOM     18  C14 UNL     1     151.572 158.321 165.853  0.00  0.00    -0.019 A 
ATOM     19  C15 UNL     1     152.100 158.893 167.009  0.00  0.00    +0.043 A 
ATOM     20 CL1  UNL     1     152.112 160.605 167.185  0.00  0.00    -0.083 Cl
ATOM     21  C16 UNL     1     152.628 158.093 168.018  0.00  0.00    -0.040 A 
ATOM     22  C17 UNL     1     152.643 156.708 167.859  0.00  0.00    -0.017 A 
ATOM     23  C18 UNL     1     152.103 156.120 166.703  0.00  0.00    +0.141 A 
ATOM     24  O3  UNL     1     152.288 154.781 166.475  0.00  0.00    -0.493 OA
ATOM     25  C19 UNL     1     151.777 153.962 167.526  0.00  0.00    +0.079 C 
ATOM     26  N2  UNL     1     150.554 157.741 162.030  0.00  0.00    -0.245 NA
ATOM     27  C20 UNL     1     150.307 159.017 161.556  0.00  0.00    +0.047 A 
ATOM     28  C21 UNL     1     150.450 159.373 160.271  0.00  0.00    +0.048 A 
ATOM     29  N3  UNL     1     150.872 158.426 159.351  0.00  0.00    -0.235 N 
ATOM     30  N4  UNL     1     151.067 158.574 158.027  0.00  0.00    -0.166 NA
ATOM     31  C22 UNL     1     151.421 158.091 155.198  0.00  0.00    -0.049 A 
ATOM     32  C23 UNL     1     151.697 157.873 153.843  0.00  0.00    -0.019 A 
ATOM     33  H   UNL     1     151.048 157.040 163.713  0.00  0.00    +0.000 HD
ENDROOT
TORSDOF 0
ENDMDL
MODEL 4
REMARK VINA RESULT:   -11.188      2.263      3.135
REMARK INTER + INTRA:         -11.188
REMARK INTER:                 -11.188
REMARK INTRA:                   0.000
REMARK UNBOUND:                 0.000
REMARK  Name = /home/vital/Documents/PhD_2021/Malaria_codes/scripts/../data/pdbqt_ligands/ligand_91_temp.pdb
REMARK                            x       y       z     vdW  Elec       q    Type
REMARK                         _______ _______ _______ _____ _____    ______ ____
ROOT
ATOM      1  C1  UNL     1     154.258 154.324 148.688  0.00  0.00    -0.031 C 
ATOM      2  C2  UNL     1     154.070 154.504 150.184  0.00  0.00    +0.087 C 
ATOM      3  O1  UNL     1     153.337 155.710 150.395  0.00  0.00    -0.492 OA
ATOM      4  C3  UNL     1     153.045 156.045 151.687  0.00  0.00    +0.121 A 
ATOM      5  C4  UNL     1     153.424 155.338 152.827  0.00  0.00    -0.019 A 
ATOM      6  C5  UNL     1     153.048 155.792 154.101  0.00  0.00    -0.049 A 
ATOM      7  C6  UNL     1     152.286 156.958 154.255  0.00  0.00    +0.002 A 
ATOM      8  C7  UNL     1     151.872 157.433 155.582  0.00  0.00    +0.094 A 
ATOM      9  C8  UNL     1     151.929 156.738 156.821  0.00  0.00    -0.006 A 
ATOM     10  C9  UNL     1     151.410 157.606 157.752  0.00  0.00    +0.099 A 
ATOM     11  C10 UNL     1     151.151 157.574 159.163  0.00  0.00    +0.123 A 
ATOM     12  S1  UNL     1     151.561 156.101 159.998  0.00  0.00    -0.094 S 
ATOM     13  C11 UNL     1     150.158 155.983 161.144  0.00  0.00    +0.077 C 
ATOM     14  C12 UNL     1     150.448 156.561 162.523  0.00  0.00    +0.228 C 
ATOM     15  O2  UNL     1     150.079 155.952 163.525  0.00  0.00    -0.275 OA
ATOM     16  N1  UNL     1     150.992 157.833 162.508  0.00  0.00    -0.282 N 
ATOM     17  C13 UNL     1     151.444 158.581 163.616  0.00  0.00    +0.077 A 
ATOM     18  C14 UNL     1     151.368 159.976 163.492  0.00  0.00    -0.019 A 
ATOM     19  C15 UNL     1     151.780 160.802 164.536  0.00  0.00    +0.043 A 
ATOM     20 CL1  UNL     1     151.662 162.510 164.368  0.00  0.00    -0.083 Cl
ATOM     21  C16 UNL     1     152.296 160.259 165.709  0.00  0.00    -0.040 A 
ATOM     22  C17 UNL     1     152.417 158.875 165.829  0.00  0.00    -0.017 A 
ATOM     23  C18 UNL     1     151.994 158.032 164.789  0.00  0.00    +0.141 A 
ATOM     24  O3  UNL     1     152.286 156.693 164.840  0.00  0.00    -0.493 OA
ATOM     25  C19 UNL     1     151.766 156.056 166.007  0.00  0.00    +0.079 C 
ATOM     26  N2  UNL     1     150.640 158.583 159.816  0.00  0.00    -0.245 NA
ATOM     27  C20 UNL     1     150.336 159.717 159.086  0.00  0.00    +0.047 A 
ATOM     28  C21 UNL     1     150.537 159.827 157.764  0.00  0.00    +0.048 A 
ATOM     29  N3  UNL     1     151.082 158.757 157.073  0.00  0.00    -0.235 N 
ATOM     30  N4  UNL     1     151.350 158.659 155.757  0.00  0.00    -0.166 NA
ATOM     31  C22 UNL     1     151.918 157.665 153.101  0.00  0.00    -0.049 A 
ATOM     32  C23 UNL     1     152.295 157.211 151.832  0.00  0.00    -0.019 A 
ATOM     33  H   UNL     1     151.072 158.265 161.627  0.00  0.00    +0.000 HD
ENDROOT
TORSDOF 0
ENDMDL
MODEL 5
REMARK VINA RESULT:   -10.297      4.582     10.104
REMARK INTER + INTRA:         -10.297
REMARK INTER:                 -10.297
REMARK INTRA:                   0.000
REMARK UNBOUND:                 0.000
REMARK  Name = /home/vital/Documents/PhD_2021/Malaria_codes/scripts/../data/pdbqt_ligands/ligand_91_temp.pdb
REMARK                            x       y       z     vdW  Elec       q    Type
REMARK                         _______ _______ _______ _____ _____    ______ ____
ROOT
ATOM      1  C1  UNL     1     142.238 145.618 164.566  0.00  0.00    -0.031 C 
ATOM      2  C2  UNL     1     142.953 146.825 163.986  0.00  0.00    +0.087 C 
ATOM      3  O1  UNL     1     143.944 147.243 164.924  0.00  0.00    -0.492 OA
ATOM      4  C3  UNL     1     144.717 148.315 164.579  0.00  0.00    +0.121 A 
ATOM      5  C4  UNL     1     144.610 149.064 163.408  0.00  0.00    -0.019 A 
ATOM      6  C5  UNL     1     145.480 150.141 163.174  0.00  0.00    -0.049 A 
ATOM      7  C6  UNL     1     146.470 150.485 164.105  0.00  0.00    +0.002 A 
ATOM      8  C7  UNL     1     147.396 151.599 163.863  0.00  0.00    +0.094 A 
ATOM      9  C8  UNL     1     147.621 152.306 162.650  0.00  0.00    -0.006 A 
ATOM     10  C9  UNL     1     148.590 153.237 162.943  0.00  0.00    +0.099 A 
ATOM     11  C10 UNL     1     149.299 154.252 162.220  0.00  0.00    +0.123 A 
ATOM     12  S1  UNL     1     148.905 154.427 160.532  0.00  0.00    -0.094 S 
ATOM     13  C11 UNL     1     150.558 154.741 159.850  0.00  0.00    +0.077 C 
ATOM     14  C12 UNL     1     150.876 156.221 159.681  0.00  0.00    +0.228 C 
ATOM     15  O2  UNL     1     151.430 156.608 158.653  0.00  0.00    -0.275 OA
ATOM     16  N1  UNL     1     150.630 156.991 160.802  0.00  0.00    -0.282 N 
ATOM     17  C13 UNL     1     150.742 158.394 160.916  0.00  0.00    +0.077 A 
ATOM     18  C14 UNL     1     151.054 158.887 162.191  0.00  0.00    -0.019 A 
ATOM     19  C15 UNL     1     151.198 160.257 162.404  0.00  0.00    +0.043 A 
ATOM     20 CL1  UNL     1     151.597 160.838 163.974  0.00  0.00    -0.083 Cl
ATOM     21  C16 UNL     1     151.010 161.159 161.362  0.00  0.00    -0.040 A 
ATOM     22  C17 UNL     1     150.658 160.686 160.099  0.00  0.00    -0.017 A 
ATOM     23  C18 UNL     1     150.522 159.307 159.869  0.00  0.00    +0.141 A 
ATOM     24  O3  UNL     1     149.999 158.866 158.681  0.00  0.00    -0.493 OA
ATOM     25  C19 UNL     1     150.742 159.313 157.547  0.00  0.00    +0.079 C 
ATOM     26  N2  UNL     1     150.195 155.025 162.772  0.00  0.00    -0.245 NA
ATOM     27  C20 UNL     1     150.458 154.826 164.115  0.00  0.00    +0.047 A 
ATOM     28  C21 UNL     1     149.848 153.893 164.862  0.00  0.00    +0.048 A 
ATOM     29  N3  UNL     1     148.896 153.076 164.275  0.00  0.00    -0.235 N 
ATOM     30  N4  UNL     1     148.184 152.081 164.838  0.00  0.00    -0.166 NA
ATOM     31  C22 UNL     1     146.561 149.729 165.282  0.00  0.00    -0.049 A 
ATOM     32  C23 UNL     1     145.693 148.656 165.514  0.00  0.00    -0.019 A 
ATOM     33  H   UNL     1     150.346 156.508 161.612  0.00  0.00    +0.000 HD
ENDROOT
TORSDOF 0
ENDMDL
MODEL 6
REMARK VINA RESULT:    -9.096      4.879      9.909
REMARK INTER + INTRA:          -9.096
REMARK INTER:                  -9.096
REMARK INTRA:                   0.000
REMARK UNBOUND:                 0.000
REMARK  Name = /home/vital/Documents/PhD_2021/Malaria_codes/scripts/../data/pdbqt_ligands/ligand_91_temp.pdb
REMARK                            x       y       z     vdW  Elec       q    Type
REMARK                         _______ _______ _______ _____ _____    ______ ____
ROOT
ATOM      1  C1  UNL     1     142.087 145.867 163.904  0.00  0.00    -0.031 C 
ATOM      2  C2  UNL     1     142.926 147.095 163.596  0.00  0.00    +0.087 C 
ATOM      3  O1  UNL     1     143.768 147.347 164.720  0.00  0.00    -0.492 OA
ATOM      4  C3  UNL     1     144.622 148.410 164.633  0.00  0.00    +0.121 A 
ATOM      5  C4  UNL     1     144.729 149.295 163.562  0.00  0.00    -0.019 A 
ATOM      6  C5  UNL     1     145.661 150.345 163.600  0.00  0.00    -0.049 A 
ATOM      7  C6  UNL     1     146.500 150.525 164.708  0.00  0.00    +0.002 A 
ATOM      8  C7  UNL     1     147.490 151.609 164.751  0.00  0.00    +0.094 A 
ATOM      9  C8  UNL     1     147.929 152.440 163.685  0.00  0.00    -0.006 A 
ATOM     10  C9  UNL     1     148.870 153.278 164.237  0.00  0.00    +0.099 A 
ATOM     11  C10 UNL     1     149.719 154.332 163.764  0.00  0.00    +0.123 A 
ATOM     12  S1  UNL     1     149.605 154.724 162.069  0.00  0.00    -0.094 S 
ATOM     13  C11 UNL     1     151.355 155.027 161.694  0.00  0.00    +0.077 C 
ATOM     14  C12 UNL     1     151.746 156.498 161.761  0.00  0.00    +0.228 C 
ATOM     15  O2  UNL     1     152.470 156.973 160.887  0.00  0.00    -0.275 OA
ATOM     16  N1  UNL     1     151.351 157.144 162.918  0.00  0.00    -0.282 N 
ATOM     17  C13 UNL     1     151.491 158.516 163.220  0.00  0.00    +0.077 A 
ATOM     18  C14 UNL     1     151.611 158.839 164.580  0.00  0.00    -0.019 A 
ATOM     19  C15 UNL     1     151.765 160.165 164.980  0.00  0.00    +0.043 A 
ATOM     20 CL1  UNL     1     151.929 160.537 166.652  0.00  0.00    -0.083 Cl
ATOM     21  C16 UNL     1     151.776 161.192 164.042  0.00  0.00    -0.040 A 
ATOM     22  C17 UNL     1     151.615 160.889 162.690  0.00  0.00    -0.017 A 
ATOM     23  C18 UNL     1     151.471 159.556 162.274  0.00  0.00    +0.141 A 
ATOM     24  O3  UNL     1     151.130 159.285 160.974  0.00  0.00    -0.493 OA
ATOM     25  C19 UNL     1     152.058 159.821 160.032  0.00  0.00    +0.079 C 
ATOM     26  N2  UNL     1     150.541 154.987 164.538  0.00  0.00    -0.245 NA
ATOM     27  C20 UNL     1     150.579 154.618 165.871  0.00  0.00    +0.047 A 
ATOM     28  C21 UNL     1     149.828 153.638 166.393  0.00  0.00    +0.048 A 
ATOM     29  N3  UNL     1     148.954 152.946 165.570  0.00  0.00    -0.235 N 
ATOM     30  N4  UNL     1     148.128 151.931 165.889  0.00  0.00    -0.166 NA
ATOM     31  C22 UNL     1     146.377 149.632 165.783  0.00  0.00    -0.049 A 
ATOM     32  C23 UNL     1     145.447 148.587 165.743  0.00  0.00    -0.019 A 
ATOM     33  H   UNL     1     150.925 156.585 163.608  0.00  0.00    +0.000 HD
ENDROOT
TORSDOF 0
ENDMDL
MODEL 7
REMARK VINA RESULT:    -8.650      7.674     11.199
REMARK INTER + INTRA:          -8.650
REMARK INTER:                  -8.650
REMARK INTRA:                   0.000
REMARK UNBOUND:                 0.000
REMARK  Name = /home/vital/Documents/PhD_2021/Malaria_codes/scripts/../data/pdbqt_ligands/ligand_91_temp.pdb
REMARK                            x       y       z     vdW  Elec       q    Type
REMARK                         _______ _______ _______ _____ _____    ______ ____
ROOT
ATOM      1  C1  UNL     1     153.402 159.248 167.975  0.00  0.00    -0.031 C 
ATOM      2  C2  UNL     1     152.406 158.106 167.876  0.00  0.00    +0.087 C 
ATOM      3  O1  UNL     1     152.249 157.776 166.496  0.00  0.00    -0.492 OA
ATOM      4  C3  UNL     1     151.400 156.749 166.193  0.00  0.00    +0.121 A 
ATOM      5  C4  UNL     1     150.642 156.012 167.102  0.00  0.00    -0.019 A 
ATOM      6  C5  UNL     1     149.812 154.973 166.653  0.00  0.00    -0.049 A 
ATOM      7  C6  UNL     1     149.727 154.653 165.291  0.00  0.00    +0.002 A 
ATOM      8  C7  UNL     1     148.874 153.557 164.813  0.00  0.00    +0.094 A 
ATOM      9  C8  UNL     1     148.240 152.541 165.577  0.00  0.00    -0.006 A 
ATOM     10  C9  UNL     1     147.578 151.754 164.663  0.00  0.00    +0.099 A 
ATOM     11  C10 UNL     1     146.765 150.574 164.713  0.00  0.00    +0.123 A 
ATOM     12  S1  UNL     1     146.491 149.882 166.289  0.00  0.00    -0.094 S 
ATOM     13  C11 UNL     1     146.592 148.115 165.883  0.00  0.00    +0.077 C 
ATOM     14  C12 UNL     1     145.235 147.470 165.629  0.00  0.00    +0.228 C 
ATOM     15  O2  UNL     1     144.992 146.363 166.106  0.00  0.00    -0.275 OA
ATOM     16  N1  UNL     1     144.433 148.156 164.735  0.00  0.00    -0.282 N 
ATOM     17  C13 UNL     1     143.102 147.853 164.376  0.00  0.00    +0.077 A 
ATOM     18  C14 UNL     1     142.707 148.240 163.088  0.00  0.00    -0.019 A 
ATOM     19  C15 UNL     1     141.416 147.975 162.634  0.00  0.00    +0.043 A 
ATOM     20 CL1  UNL     1     140.958 148.444 161.043  0.00  0.00    -0.083 Cl
ATOM     21  C16 UNL     1     140.490 147.346 163.460  0.00  0.00    -0.040 A 
ATOM     22  C17 UNL     1     140.856 146.993 164.759  0.00  0.00    -0.017 A 
ATOM     23  C18 UNL     1     142.158 147.244 165.223  0.00  0.00    +0.141 A 
ATOM     24  O3  UNL     1     142.451 147.065 166.550  0.00  0.00    -0.493 OA
ATOM     25  C19 UNL     1     142.196 145.735 167.000  0.00  0.00    +0.079 C 
ATOM     26  N2  UNL     1     146.240 150.026 163.651  0.00  0.00    -0.245 NA
ATOM     27  C20 UNL     1     146.504 150.628 162.435  0.00  0.00    +0.047 A 
ATOM     28  C21 UNL     1     147.261 151.727 162.298  0.00  0.00    +0.048 A 
ATOM     29  N3  UNL     1     147.816 152.309 163.427  0.00  0.00    -0.235 N 
ATOM     30  N4  UNL     1     148.607 153.396 163.506  0.00  0.00    -0.166 NA
ATOM     31  C22 UNL     1     150.487 155.408 164.387  0.00  0.00    -0.049 A 
ATOM     32  C23 UNL     1     151.314 156.445 164.836  0.00  0.00    -0.019 A 
ATOM     33  H   UNL     1     144.835 148.943 164.301  0.00  0.00    +0.000 HD
ENDROOT
TORSDOF 0
ENDMDL
MODEL 8
REMARK VINA RESULT:    -8.583      5.088      9.841
REMARK INTER + INTRA:          -8.583
REMARK INTER:                  -8.583
REMARK INTRA:                   0.000
REMARK UNBOUND:                 0.000
REMARK  Name = /home/vital/Documents/PhD_2021/Malaria_codes/scripts/../data/pdbqt_ligands/ligand_91_temp.pdb
REMARK                            x       y       z     vdW  Elec       q    Type
REMARK                         _______ _______ _______ _____ _____    ______ ____
ROOT
ATOM      1  C1  UNL     1     140.507 145.923 162.588  0.00  0.00    -0.031 C 
ATOM      2  C2  UNL     1     141.460 147.095 162.432  0.00  0.00    +0.087 C 
ATOM      3  O1  UNL     1     142.455 146.993 163.450  0.00  0.00    -0.492 OA
ATOM      4  C3  UNL     1     143.427 147.952 163.471  0.00  0.00    +0.121 A 
ATOM      5  C4  UNL     1     143.523 149.046 162.612  0.00  0.00    -0.019 A 
ATOM      6  C5  UNL     1     144.584 149.956 162.738  0.00  0.00    -0.049 A 
ATOM      7  C6  UNL     1     145.566 149.787 163.725  0.00  0.00    +0.002 A 
ATOM      8  C7  UNL     1     146.689 150.724 163.856  0.00  0.00    +0.094 A 
ATOM      9  C8  UNL     1     147.106 151.729 162.941  0.00  0.00    -0.006 A 
ATOM     10  C9  UNL     1     148.208 152.315 163.518  0.00  0.00    +0.099 A 
ATOM     11  C10 UNL     1     149.128 153.357 163.164  0.00  0.00    +0.123 A 
ATOM     12  S1  UNL     1     148.868 154.139 161.629  0.00  0.00    -0.094 S 
ATOM     13  C11 UNL     1     150.586 154.339 161.078  0.00  0.00    +0.077 C 
ATOM     14  C12 UNL     1     151.174 155.706 161.402  0.00  0.00    +0.228 C 
ATOM     15  O2  UNL     1     151.846 156.292 160.555  0.00  0.00    -0.275 OA
ATOM     16  N1  UNL     1     151.009 156.104 162.716  0.00  0.00    -0.282 N 
ATOM     17  C13 UNL     1     151.365 157.347 163.282  0.00  0.00    +0.077 A 
ATOM     18  C14 UNL     1     151.687 157.333 164.647  0.00  0.00    -0.019 A 
ATOM     19  C15 UNL     1     152.063 158.508 165.297  0.00  0.00    +0.043 A 
ATOM     20 CL1  UNL     1     152.472 158.464 166.968  0.00  0.00    -0.083 Cl
ATOM     21  C16 UNL     1     152.100 159.717 164.610  0.00  0.00    -0.040 A 
ATOM     22  C17 UNL     1     151.740 159.752 163.263  0.00  0.00    -0.017 A 
ATOM     23  C18 UNL     1     151.372 158.574 162.595  0.00  0.00    +0.141 A 
ATOM     24  O3  UNL     1     150.846 158.647 161.331  0.00  0.00    -0.493 OA
ATOM     25  C19 UNL     1     151.719 159.288 160.401  0.00  0.00    +0.079 C 
ATOM     26  N2  UNL     1     150.116 153.726 163.934  0.00  0.00    -0.245 NA
ATOM     27  C20 UNL     1     150.262 153.058 165.136  0.00  0.00    +0.047 A 
ATOM     28  C21 UNL     1     149.454 152.066 165.538  0.00  0.00    +0.048 A 
ATOM     29  N3  UNL     1     148.405 151.678 164.721  0.00  0.00    -0.235 N 
ATOM     30  N4  UNL     1     147.495 150.707 164.931  0.00  0.00    -0.166 NA
ATOM     31  C22 UNL     1     145.452 148.689 164.589  0.00  0.00    -0.049 A 
ATOM     32  C23 UNL     1     144.393 147.783 164.461  0.00  0.00    -0.019 A 
ATOM     33  H   UNL     1     150.597 155.448 163.323  0.00  0.00    +0.000 HD
ENDROOT
TORSDOF 0
ENDMDL
