MODEL 1
REMARK VINA RESULT:    -9.483      0.000      0.000
REMARK INTER + INTRA:          -9.483
REMARK INTER:                  -9.483
REMARK INTRA:                   0.000
REMARK UNBOUND:                 0.000
REMARK  Name = /home/vital/Documents/PhD_2021/Malaria_codes/scripts/../data/pdbqt_ligands/ligand_149_temp.pdb
REMARK                            x       y       z     vdW  Elec       q    Type
REMARK                         _______ _______ _______ _____ _____    ______ ____
ROOT
ATOM      1  C1  UNL     1     149.778 154.686 161.057  0.00  0.00    -0.028 C 
ATOM      2  C2  UNL     1     150.120 156.151 161.306  0.00  0.00    +0.095 C 
ATOM      3  C3  UNL     1     150.463 156.378 162.774  0.00  0.00    -0.028 C 
ATOM      4  O1  UNL     1     151.282 156.487 160.530  0.00  0.00    -0.489 OA
ATOM      5  C4  UNL     1     151.027 157.360 159.509  0.00  0.00    +0.135 A 
ATOM      6  C5  UNL     1     150.633 158.670 159.817  0.00  0.00    -0.019 A 
ATOM      7  C6  UNL     1     150.419 159.600 158.800  0.00  0.00    -0.055 A 
ATOM      8  C7  UNL     1     150.618 159.229 157.472  0.00  0.00    -0.018 A 
ATOM      9  C8  UNL     1     151.040 157.934 157.164  0.00  0.00    +0.143 A 
ATOM     10  O2  UNL     1     151.229 157.668 155.829  0.00  0.00    -0.454 OA
ATOM     11  C9  UNL     1     151.659 156.406 155.462  0.00  0.00    +0.139 A 
ATOM     12  C10 UNL     1     151.850 156.230 154.009  0.00  0.00    +0.018 A 
ATOM     13  C11 UNL     1     151.415 155.072 153.346  0.00  0.00    -0.048 A 
ATOM     14  C12 UNL     1     151.596 154.931 151.967  0.00  0.00    -0.020 A 
ATOM     15  C13 UNL     1     152.208 155.946 151.244  0.00  0.00    +0.117 A 
ATOM     16  O3  UNL     1     152.364 155.764 149.903  0.00  0.00    -0.507 OA
ATOM     17  C14 UNL     1     152.640 157.107 151.875  0.00  0.00    -0.020 A 
ATOM     18  C15 UNL     1     152.457 157.248 153.254  0.00  0.00    -0.048 A 
ATOM     19  C16 UNL     1     151.908 155.418 156.330  0.00  0.00    +0.029 A 
ATOM     20  C17 UNL     1     151.706 155.642 157.772  0.00  0.00    +0.197 A 
ATOM     21  O4  UNL     1     151.905 154.718 158.549  0.00  0.00    -0.287 OA
ATOM     22  C18 UNL     1     151.254 156.993 158.175  0.00  0.00    +0.105 A 
ATOM     23  H   UNL     1     152.065 154.973 149.499  0.00  0.00    +0.000 HD
ENDROOT
TORSDOF 0
ENDMDL
MODEL 2
REMARK VINA RESULT:    -9.414      1.889      3.360
REMARK INTER + INTRA:          -9.414
REMARK INTER:                  -9.414
REMARK INTRA:                   0.000
REMARK UNBOUND:                 0.000
REMARK  Name = /home/vital/Documents/PhD_2021/Malaria_codes/scripts/../data/pdbqt_ligands/ligand_149_temp.pdb
REMARK                            x       y       z     vdW  Elec       q    Type
REMARK                         _______ _______ _______ _____ _____    ______ ____
ROOT
ATOM      1  C1  UNL     1     152.165 161.575 160.683  0.00  0.00    -0.028 C 
ATOM      2  C2  UNL     1     151.221 160.563 161.323  0.00  0.00    +0.095 C 
ATOM      3  C3  UNL     1     150.351 161.236 162.378  0.00  0.00    -0.028 C 
ATOM      4  O1  UNL     1     150.350 160.044 160.305  0.00  0.00    -0.489 OA
ATOM      5  C4  UNL     1     150.572 158.726 160.012  0.00  0.00    +0.135 A 
ATOM      6  C5  UNL     1     150.302 157.758 160.989  0.00  0.00    -0.019 A 
ATOM      7  C6  UNL     1     150.465 156.402 160.704  0.00  0.00    -0.055 A 
ATOM      8  C7  UNL     1     150.879 156.009 159.433  0.00  0.00    -0.018 A 
ATOM      9  C8  UNL     1     151.120 156.970 158.448  0.00  0.00    +0.143 A 
ATOM     10  O2  UNL     1     151.504 156.485 157.221  0.00  0.00    -0.454 OA
ATOM     11  C9  UNL     1     151.744 157.388 156.201  0.00  0.00    +0.139 A 
ATOM     12  C10 UNL     1     152.131 156.764 154.921  0.00  0.00    +0.018 A 
ATOM     13  C11 UNL     1     153.173 157.283 154.137  0.00  0.00    -0.048 A 
ATOM     14  C12 UNL     1     153.531 156.672 152.932  0.00  0.00    -0.020 A 
ATOM     15  C13 UNL     1     152.853 155.537 152.507  0.00  0.00    +0.117 A 
ATOM     16  O3  UNL     1     153.235 154.975 151.327  0.00  0.00    -0.507 OA
ATOM     17  C14 UNL     1     151.823 154.998 153.269  0.00  0.00    -0.020 A 
ATOM     18  C15 UNL     1     151.467 155.610 154.474  0.00  0.00    -0.048 A 
ATOM     19  C16 UNL     1     151.623 158.714 156.331  0.00  0.00    +0.029 A 
ATOM     20  C17 UNL     1     151.230 159.290 157.630  0.00  0.00    +0.197 A 
ATOM     21  O4  UNL     1     151.157 160.506 157.741  0.00  0.00    -0.287 OA
ATOM     22  C18 UNL     1     150.963 158.331 158.725  0.00  0.00    +0.105 A 
ATOM     23  H   UNL     1     153.932 155.356 150.830  0.00  0.00    +0.000 HD
ENDROOT
TORSDOF 0
ENDMDL
MODEL 3
REMARK VINA RESULT:    -9.305      1.604      3.125
REMARK INTER + INTRA:          -9.305
REMARK INTER:                  -9.305
REMARK INTRA:                   0.000
REMARK UNBOUND:                 0.000
REMARK  Name = /home/vital/Documents/PhD_2021/Malaria_codes/scripts/../data/pdbqt_ligands/ligand_149_temp.pdb
REMARK                            x       y       z     vdW  Elec       q    Type
REMARK                         _______ _______ _______ _____ _____    ______ ____
ROOT
ATOM      1  C1  UNL     1     152.479 160.960 160.013  0.00  0.00    -0.028 C 
ATOM      2  C2  UNL     1     151.458 159.957 160.542  0.00  0.00    +0.095 C 
ATOM      3  C3  UNL     1     150.597 160.591 161.627  0.00  0.00    -0.028 C 
ATOM      4  O1  UNL     1     150.589 159.579 159.461  0.00  0.00    -0.489 OA
ATOM      5  C4  UNL     1     150.741 158.280 159.062  0.00  0.00    +0.135 A 
ATOM      6  C5  UNL     1     150.385 157.251 159.947  0.00  0.00    -0.019 A 
ATOM      7  C6  UNL     1     150.477 155.917 159.551  0.00  0.00    -0.055 A 
ATOM      8  C7  UNL     1     150.905 155.606 158.262  0.00  0.00    -0.018 A 
ATOM      9  C8  UNL     1     151.231 156.630 157.369  0.00  0.00    +0.143 A 
ATOM     10  O2  UNL     1     151.623 156.227 156.115  0.00  0.00    -0.454 OA
ATOM     11  C9  UNL     1     151.947 157.195 155.183  0.00  0.00    +0.139 A 
ATOM     12  C10 UNL     1     152.335 156.658 153.863  0.00  0.00    +0.018 A 
ATOM     13  C11 UNL     1     153.429 157.175 153.153  0.00  0.00    -0.048 A 
ATOM     14  C12 UNL     1     153.786 156.646 151.910  0.00  0.00    -0.020 A 
ATOM     15  C13 UNL     1     153.055 155.595 151.373  0.00  0.00    +0.117 A 
ATOM     16  O3  UNL     1     153.439 155.110 150.159  0.00  0.00    -0.507 OA
ATOM     17  C14 UNL     1     151.972 155.058 152.060  0.00  0.00    -0.020 A 
ATOM     18  C15 UNL     1     151.617 155.588 153.303  0.00  0.00    -0.048 A 
ATOM     19  C16 UNL     1     151.900 158.511 155.421  0.00  0.00    +0.029 A 
ATOM     20  C17 UNL     1     151.503 158.999 156.754  0.00  0.00    +0.197 A 
ATOM     21  O4  UNL     1     151.499 160.204 156.967  0.00  0.00    -0.287 OA
ATOM     22  C18 UNL     1     151.146 157.970 157.757  0.00  0.00    +0.105 A 
ATOM     23  H   UNL     1     154.172 155.488 149.714  0.00  0.00    +0.000 HD
ENDROOT
TORSDOF 0
ENDMDL
MODEL 4
REMARK VINA RESULT:    -8.383      4.262      9.117
REMARK INTER + INTRA:          -8.383
REMARK INTER:                  -8.383
REMARK INTRA:                   0.000
REMARK UNBOUND:                 0.000
REMARK  Name = /home/vital/Documents/PhD_2021/Malaria_codes/scripts/../data/pdbqt_ligands/ligand_149_temp.pdb
REMARK                            x       y       z     vdW  Elec       q    Type
REMARK                         _______ _______ _______ _____ _____    ______ ____
ROOT
ATOM      1  C1  UNL     1     151.493 155.718 158.785  0.00  0.00    -0.028 C 
ATOM      2  C2  UNL     1     151.074 156.800 157.794  0.00  0.00    +0.095 C 
ATOM      3  C3  UNL     1     150.298 156.190 156.633  0.00  0.00    -0.028 C 
ATOM      4  O1  UNL     1     150.200 157.720 158.468  0.00  0.00    -0.489 OA
ATOM      5  C4  UNL     1     150.743 158.963 158.648  0.00  0.00    +0.135 A 
ATOM      6  C5  UNL     1     151.010 159.757 157.524  0.00  0.00    -0.019 A 
ATOM      7  C6  UNL     1     151.513 161.049 157.676  0.00  0.00    -0.055 A 
ATOM      8  C7  UNL     1     151.732 161.559 158.954  0.00  0.00    -0.018 A 
ATOM      9  C8  UNL     1     151.439 160.780 160.076  0.00  0.00    +0.143 A 
ATOM     10  O2  UNL     1     151.668 161.376 161.293  0.00  0.00    -0.454 OA
ATOM     11  C9  UNL     1     151.386 160.659 162.442  0.00  0.00    +0.139 A 
ATOM     12  C10 UNL     1     151.648 161.395 163.694  0.00  0.00    +0.018 A 
ATOM     13  C11 UNL     1     152.278 160.781 164.788  0.00  0.00    -0.048 A 
ATOM     14  C12 UNL     1     152.527 161.499 165.961  0.00  0.00    -0.020 A 
ATOM     15  C13 UNL     1     152.153 162.833 166.045  0.00  0.00    +0.117 A 
ATOM     16  O3  UNL     1     152.415 163.493 167.208  0.00  0.00    -0.507 OA
ATOM     17  C14 UNL     1     151.535 163.467 164.973  0.00  0.00    -0.020 A 
ATOM     18  C15 UNL     1     151.288 162.749 163.800  0.00  0.00    -0.048 A 
ATOM     19  C16 UNL     1     150.895 159.414 162.446  0.00  0.00    +0.029 A 
ATOM     20  C17 UNL     1     150.647 158.721 161.169  0.00  0.00    +0.197 A 
ATOM     21  O4  UNL     1     150.231 157.570 161.191  0.00  0.00    -0.287 OA
ATOM     22  C18 UNL     1     150.938 159.483 159.934  0.00  0.00    +0.105 A 
ATOM     23  H   UNL     1     152.831 163.046 167.917  0.00  0.00    +0.000 HD
ENDROOT
TORSDOF 0
ENDMDL
MODEL 5
REMARK VINA RESULT:    -7.737      3.273      5.771
REMARK INTER + INTRA:          -7.737
REMARK INTER:                  -7.737
REMARK INTRA:                   0.000
REMARK UNBOUND:                 0.000
REMARK  Name = /home/vital/Documents/PhD_2021/Malaria_codes/scripts/../data/pdbqt_ligands/ligand_149_temp.pdb
REMARK                            x       y       z     vdW  Elec       q    Type
REMARK                         _______ _______ _______ _____ _____    ______ ____
ROOT
ATOM      1  C1  UNL     1     151.490 162.797 163.935  0.00  0.00    -0.028 C 
ATOM      2  C2  UNL     1     151.610 161.605 164.880  0.00  0.00    +0.095 C 
ATOM      3  C3  UNL     1     151.102 161.971 166.269  0.00  0.00    -0.028 C 
ATOM      4  O1  UNL     1     150.783 160.542 164.379  0.00  0.00    -0.489 OA
ATOM      5  C4  UNL     1     151.490 159.464 163.923  0.00  0.00    +0.135 A 
ATOM      6  C5  UNL     1     152.230 158.700 164.836  0.00  0.00    -0.019 A 
ATOM      7  C6  UNL     1     152.918 157.564 164.412  0.00  0.00    -0.055 A 
ATOM      8  C7  UNL     1     152.852 157.174 163.076  0.00  0.00    -0.018 A 
ATOM      9  C8  UNL     1     152.090 157.916 162.170  0.00  0.00    +0.143 A 
ATOM     10  O2  UNL     1     152.068 157.443 160.880  0.00  0.00    -0.454 OA
ATOM     11  C9  UNL     1     151.321 158.128 159.939  0.00  0.00    +0.139 A 
ATOM     12  C10 UNL     1     151.348 157.527 158.591  0.00  0.00    +0.018 A 
ATOM     13  C11 UNL     1     151.490 158.315 157.438  0.00  0.00    -0.048 A 
ATOM     14  C12 UNL     1     151.524 157.726 156.172  0.00  0.00    -0.020 A 
ATOM     15  C13 UNL     1     151.421 156.347 156.051  0.00  0.00    +0.117 A 
ATOM     16  O3  UNL     1     151.459 155.815 154.796  0.00  0.00    -0.507 OA
ATOM     17  C14 UNL     1     151.289 155.542 157.176  0.00  0.00    -0.020 A 
ATOM     18  C15 UNL     1     151.255 156.133 158.443  0.00  0.00    -0.048 A 
ATOM     19  C16 UNL     1     150.608 159.229 160.205  0.00  0.00    +0.029 A 
ATOM     20  C17 UNL     1     150.610 159.790 161.568  0.00  0.00    +0.197 A 
ATOM     21  O4  UNL     1     149.981 160.817 161.786  0.00  0.00    -0.287 OA
ATOM     22  C18 UNL     1     151.400 159.059 162.584  0.00  0.00    +0.105 A 
ATOM     23  H   UNL     1     151.548 156.377 154.052  0.00  0.00    +0.000 HD
ENDROOT
TORSDOF 0
ENDMDL
MODEL 6
REMARK VINA RESULT:    -7.730      3.364      9.603
REMARK INTER + INTRA:          -7.730
REMARK INTER:                  -7.730
REMARK INTRA:                   0.000
REMARK UNBOUND:                 0.000
REMARK  Name = /home/vital/Documents/PhD_2021/Malaria_codes/scripts/../data/pdbqt_ligands/ligand_149_temp.pdb
REMARK                            x       y       z     vdW  Elec       q    Type
REMARK                         _______ _______ _______ _____ _____    ______ ____
ROOT
ATOM      1  C1  UNL     1     150.416 158.440 157.707  0.00  0.00    -0.028 C 
ATOM      2  C2  UNL     1     150.404 156.916 157.773  0.00  0.00    +0.095 C 
ATOM      3  C3  UNL     1     150.750 156.319 156.414  0.00  0.00    -0.028 C 
ATOM      4  O1  UNL     1     151.412 156.492 158.705  0.00  0.00    -0.489 OA
ATOM      5  C4  UNL     1     150.906 155.929 159.844  0.00  0.00    +0.135 A 
ATOM      6  C5  UNL     1     150.221 154.709 159.754  0.00  0.00    -0.019 A 
ATOM      7  C6  UNL     1     149.740 154.083 160.903  0.00  0.00    -0.055 A 
ATOM      8  C7  UNL     1     149.960 154.664 162.150  0.00  0.00    -0.018 A 
ATOM      9  C8  UNL     1     150.668 155.864 162.246  0.00  0.00    +0.143 A 
ATOM     10  O2  UNL     1     150.853 156.349 163.518  0.00  0.00    -0.454 OA
ATOM     11  C9  UNL     1     151.558 157.528 163.679  0.00  0.00    +0.139 A 
ATOM     12  C10 UNL     1     151.718 157.950 165.084  0.00  0.00    +0.018 A 
ATOM     13  C11 UNL     1     151.546 159.288 165.472  0.00  0.00    -0.048 A 
ATOM     14  C12 UNL     1     151.691 159.666 166.810  0.00  0.00    -0.020 A 
ATOM     15  C13 UNL     1     152.003 158.710 167.766  0.00  0.00    +0.117 A 
ATOM     16  O3  UNL     1     152.136 159.123 169.058  0.00  0.00    -0.507 OA
ATOM     17  C14 UNL     1     152.170 157.376 167.410  0.00  0.00    -0.020 A 
ATOM     18  C15 UNL     1     152.024 157.000 166.072  0.00  0.00    -0.048 A 
ATOM     19  C16 UNL     1     152.080 158.232 162.668  0.00  0.00    +0.029 A 
ATOM     20  C17 UNL     1     151.897 157.767 161.281  0.00  0.00    +0.197 A 
ATOM     21  O4  UNL     1     152.351 158.441 160.366  0.00  0.00    -0.287 OA
ATOM     22  C18 UNL     1     151.151 156.501 161.100  0.00  0.00    +0.105 A 
ATOM     23  H   UNL     1     152.019 160.027 169.274  0.00  0.00    +0.000 HD
ENDROOT
TORSDOF 0
ENDMDL
MODEL 7
REMARK VINA RESULT:    -7.673      4.180      9.289
REMARK INTER + INTRA:          -7.673
REMARK INTER:                  -7.673
REMARK INTRA:                   0.000
REMARK UNBOUND:                 0.000
REMARK  Name = /home/vital/Documents/PhD_2021/Malaria_codes/scripts/../data/pdbqt_ligands/ligand_149_temp.pdb
REMARK                            x       y       z     vdW  Elec       q    Type
REMARK                         _______ _______ _______ _____ _____    ______ ____
ROOT
ATOM      1  C1  UNL     1     149.635 158.548 157.004  0.00  0.00    -0.028 C 
ATOM      2  C2  UNL     1     150.376 157.279 157.412  0.00  0.00    +0.095 C 
ATOM      3  C3  UNL     1     150.798 156.486 156.181  0.00  0.00    -0.028 C 
ATOM      4  O1  UNL     1     151.570 157.656 158.119  0.00  0.00    -0.489 OA
ATOM      5  C4  UNL     1     151.547 157.332 159.447  0.00  0.00    +0.135 A 
ATOM      6  C5  UNL     1     151.539 155.979 159.817  0.00  0.00    -0.019 A 
ATOM      7  C6  UNL     1     151.571 155.615 161.163  0.00  0.00    -0.055 A 
ATOM      8  C7  UNL     1     151.632 156.602 162.144  0.00  0.00    -0.018 A 
ATOM      9  C8  UNL     1     151.671 157.950 161.778  0.00  0.00    +0.143 A 
ATOM     10  O2  UNL     1     151.752 158.849 162.814  0.00  0.00    -0.454 OA
ATOM     11  C9  UNL     1     151.807 160.198 162.513  0.00  0.00    +0.139 A 
ATOM     12  C10 UNL     1     151.912 161.076 163.695  0.00  0.00    +0.018 A 
ATOM     13  C11 UNL     1     151.160 162.256 163.802  0.00  0.00    -0.048 A 
ATOM     14  C12 UNL     1     151.266 163.069 164.934  0.00  0.00    -0.020 A 
ATOM     15  C13 UNL     1     152.121 162.705 165.965  0.00  0.00    +0.117 A 
ATOM     16  O3  UNL     1     152.194 163.528 167.049  0.00  0.00    -0.507 OA
ATOM     17  C14 UNL     1     152.872 161.538 165.888  0.00  0.00    -0.020 A 
ATOM     18  C15 UNL     1     152.763 160.725 164.756  0.00  0.00    -0.048 A 
ATOM     19  C16 UNL     1     151.789 160.689 161.269  0.00  0.00    +0.029 A 
ATOM     20  C17 UNL     1     151.686 159.771 160.121  0.00  0.00    +0.197 A 
ATOM     21  O4  UNL     1     151.636 160.239 158.991  0.00  0.00    -0.287 OA
ATOM     22  C18 UNL     1     151.636 158.325 160.432  0.00  0.00    +0.105 A 
ATOM     23  H   UNL     1     151.679 164.310 167.079  0.00  0.00    +0.000 HD
ENDROOT
TORSDOF 0
ENDMDL
MODEL 8
REMARK VINA RESULT:    -7.425      5.033      8.496
REMARK INTER + INTRA:          -7.425
REMARK INTER:                  -7.425
REMARK INTRA:                   0.000
REMARK UNBOUND:                 0.000
REMARK  Name = /home/vital/Documents/PhD_2021/Malaria_codes/scripts/../data/pdbqt_ligands/ligand_149_temp.pdb
REMARK                            x       y       z     vdW  Elec       q    Type
REMARK                         _______ _______ _______ _____ _____    ______ ____
ROOT
ATOM      1  C1  UNL     1     154.120 161.820 167.849  0.00  0.00    -0.028 C 
ATOM      2  C2  UNL     1     153.539 160.494 168.328  0.00  0.00    +0.095 C 
ATOM      3  C3  UNL     1     153.306 160.525 169.834  0.00  0.00    -0.028 C 
ATOM      4  O1  UNL     1     152.265 160.298 167.694  0.00  0.00    -0.489 OA
ATOM      5  C4  UNL     1     152.252 159.270 166.792  0.00  0.00    +0.135 A 
ATOM      6  C5  UNL     1     152.426 157.958 167.254  0.00  0.00    -0.019 A 
ATOM      7  C6  UNL     1     152.364 156.883 166.367  0.00  0.00    -0.055 A 
ATOM      8  C7  UNL     1     152.108 157.115 165.017  0.00  0.00    -0.018 A 
ATOM      9  C8  UNL     1     151.904 158.419 164.559  0.00  0.00    +0.143 A 
ATOM     10  O2  UNL     1     151.637 158.547 163.217  0.00  0.00    -0.454 OA
ATOM     11  C9  UNL     1     151.414 159.813 162.707  0.00  0.00    +0.139 A 
ATOM     12  C10 UNL     1     151.117 159.838 161.261  0.00  0.00    +0.018 A 
ATOM     13  C11 UNL     1     151.691 160.794 160.410  0.00  0.00    -0.048 A 
ATOM     14  C12 UNL     1     151.405 160.795 159.042  0.00  0.00    -0.020 A 
ATOM     15  C13 UNL     1     150.548 159.836 158.517  0.00  0.00    +0.117 A 
ATOM     16  O3  UNL     1     150.297 159.875 157.179  0.00  0.00    -0.507 OA
ATOM     17  C14 UNL     1     149.973 158.872 159.337  0.00  0.00    -0.020 A 
ATOM     18  C15 UNL     1     150.261 158.872 160.704  0.00  0.00    -0.048 A 
ATOM     19  C16 UNL     1     151.437 160.931 163.440  0.00  0.00    +0.029 A 
ATOM     20  C17 UNL     1     151.736 160.855 164.882  0.00  0.00    +0.197 A 
ATOM     21  O4  UNL     1     151.788 161.891 165.531  0.00  0.00    -0.287 OA
ATOM     22  C18 UNL     1     151.968 159.503 165.439  0.00  0.00    +0.105 A 
ATOM     23  H   UNL     1     150.695 160.534 156.646  0.00  0.00    +0.000 HD
ENDROOT
TORSDOF 0
ENDMDL
MODEL 9
REMARK VINA RESULT:    -7.415      3.919      6.427
REMARK INTER + INTRA:          -7.415
REMARK INTER:                  -7.415
REMARK INTRA:                   0.000
REMARK UNBOUND:                 0.000
REMARK  Name = /home/vital/Documents/PhD_2021/Malaria_codes/scripts/../data/pdbqt_ligands/ligand_149_temp.pdb
REMARK                            x       y       z     vdW  Elec       q    Type
REMARK                         _______ _______ _______ _____ _____    ______ ____
ROOT
ATOM      1  C1  UNL     1     152.097 158.254 167.463  0.00  0.00    -0.028 C 
ATOM      2  C2  UNL     1     152.135 159.743 167.137  0.00  0.00    +0.095 C 
ATOM      3  C3  UNL     1     152.909 160.505 168.206  0.00  0.00    -0.028 C 
ATOM      4  O1  UNL     1     152.828 159.919 165.890  0.00  0.00    -0.489 OA
ATOM      5  C4  UNL     1     152.022 160.345 164.870  0.00  0.00    +0.135 A 
ATOM      6  C5  UNL     1     151.455 161.626 164.941  0.00  0.00    -0.019 A 
ATOM      7  C6  UNL     1     150.674 162.111 163.893  0.00  0.00    -0.055 A 
ATOM      8  C7  UNL     1     150.474 161.327 162.759  0.00  0.00    -0.018 A 
ATOM      9  C8  UNL     1     151.063 160.063 162.672  0.00  0.00    +0.143 A 
ATOM     10  O2  UNL     1     150.827 159.372 161.508  0.00  0.00    -0.454 OA
ATOM     11  C9  UNL     1     151.393 158.120 161.357  0.00  0.00    +0.139 A 
ATOM     12  C10 UNL     1     151.094 157.472 160.065  0.00  0.00    +0.018 A 
ATOM     13  C11 UNL     1     150.750 156.114 159.986  0.00  0.00    -0.048 A 
ATOM     14  C12 UNL     1     150.461 155.523 158.754  0.00  0.00    -0.020 A 
ATOM     15  C13 UNL     1     150.509 156.285 157.595  0.00  0.00    +0.117 A 
ATOM     16  O3  UNL     1     150.219 155.667 156.416  0.00  0.00    -0.507 OA
ATOM     17  C14 UNL     1     150.838 157.635 157.646  0.00  0.00    -0.020 A 
ATOM     18  C15 UNL     1     151.127 158.226 158.879  0.00  0.00    -0.048 A 
ATOM     19  C16 UNL     1     152.167 157.533 162.277  0.00  0.00    +0.029 A 
ATOM     20  C17 UNL     1     152.440 158.221 163.552  0.00  0.00    +0.197 A 
ATOM     21  O4  UNL     1     153.121 157.655 164.396  0.00  0.00    -0.287 OA
ATOM     22  C18 UNL     1     151.844 159.566 163.719  0.00  0.00    +0.105 A 
ATOM     23  H   UNL     1     150.000 154.756 156.406  0.00  0.00    +0.000 HD
ENDROOT
TORSDOF 0
ENDMDL
