MODEL 1
REMARK VINA RESULT:    -9.828      0.000      0.000
REMARK INTER + INTRA:          -9.828
REMARK INTER:                  -9.828
REMARK INTRA:                   0.000
REMARK UNBOUND:                 0.000
REMARK  Name = /home/vital/Documents/PhD_2021/Malaria_codes/scripts/../data/pdbqt_ligands/ligand_455_temp.pdb
REMARK                            x       y       z     vdW  Elec       q    Type
REMARK                         _______ _______ _______ _____ _____    ______ ____
ROOT
ATOM      1  C1  UNL     1     149.287 154.644 165.376  0.00  0.00    -0.031 C 
ATOM      2  C2  UNL     1     149.490 154.462 163.912  0.00  0.00    +0.016 A 
ATOM      3  C3  UNL     1     148.991 153.513 163.033  0.00  0.00    +0.083 A 
ATOM      4  C4  UNL     1     148.118 152.408 163.403  0.00  0.00    +0.001 A 
ATOM      5  C5  UNL     1     146.967 152.159 162.644  0.00  0.00    -0.053 A 
ATOM      6  C6  UNL     1     146.116 151.103 162.972  0.00  0.00    -0.061 A 
ATOM      7  C7  UNL     1     146.414 150.278 164.056  0.00  0.00    -0.062 A 
ATOM      8  C8  UNL     1     147.565 150.506 164.808  0.00  0.00    -0.061 A 
ATOM      9  C9  UNL     1     148.418 151.565 164.480  0.00  0.00    -0.053 A 
ATOM     10  N1  UNL     1     149.349 153.700 161.706  0.00  0.00    -0.224 NA
ATOM     11  C10 UNL     1     150.133 154.743 161.596  0.00  0.00    +0.165 A 
ATOM     12  N2  UNL     1     150.634 155.114 160.374  0.00  0.00    -0.263 N 
ATOM     13  C11 UNL     1     151.412 156.215 160.091  0.00  0.00    +0.240 C 
ATOM     14  O1  UNL     1     151.811 157.054 160.895  0.00  0.00    -0.274 OA
ATOM     15  C12 UNL     1     151.883 156.293 158.667  0.00  0.00    +0.147 C 
ATOM     16  S1  UNL     1     150.509 156.384 157.569  0.00  0.00    +0.005 S 
ATOM     17  O2  UNL     1     149.836 155.096 157.618  0.00  0.00    -0.169 OA
ATOM     18  O3  UNL     1     149.782 157.614 157.803  0.00  0.00    -0.169 OA
ATOM     19  C13 UNL     1     151.274 156.521 155.970  0.00  0.00    +0.089 A 
ATOM     20  C14 UNL     1     151.470 155.376 155.191  0.00  0.00    -0.036 A 
ATOM     21  C15 UNL     1     152.063 155.497 153.933  0.00  0.00    -0.046 A 
ATOM     22  C16 UNL     1     152.443 156.754 153.462  0.00  0.00    +0.018 A 
ATOM     23 BR1  UNL     1     153.244 156.912 151.757  0.00  0.00    -0.050 Br
ATOM     24  C17 UNL     1     152.231 157.897 154.234  0.00  0.00    -0.046 A 
ATOM     25  C18 UNL     1     151.638 157.784 155.492  0.00  0.00    -0.036 A 
ATOM     26  S2  UNL     1     150.487 155.560 163.043  0.00  0.00    -0.057 S 
ATOM     27  H   UNL     1     150.413 154.528 159.615  0.00  0.00    +0.000 HD
ENDROOT
TORSDOF 0
ENDMDL
MODEL 2
REMARK VINA RESULT:    -9.324      3.262      4.016
REMARK INTER + INTRA:          -9.324
REMARK INTER:                  -9.324
REMARK INTRA:                   0.000
REMARK UNBOUND:                 0.000
REMARK  Name = /home/vital/Documents/PhD_2021/Malaria_codes/scripts/../data/pdbqt_ligands/ligand_455_temp.pdb
REMARK                            x       y       z     vdW  Elec       q    Type
REMARK                         _______ _______ _______ _____ _____    ______ ____
ROOT
ATOM      1  C1  UNL     1     151.335 158.840 166.735  0.00  0.00    -0.031 C 
ATOM      2  C2  UNL     1     151.567 158.224 165.399  0.00  0.00    +0.016 A 
ATOM      3  C3  UNL     1     151.707 156.899 165.018  0.00  0.00    +0.083 A 
ATOM      4  C4  UNL     1     151.673 155.760 165.925  0.00  0.00    +0.001 A 
ATOM      5  C5  UNL     1     150.876 154.653 165.606  0.00  0.00    -0.053 A 
ATOM      6  C6  UNL     1     150.830 153.545 166.454  0.00  0.00    -0.061 A 
ATOM      7  C7  UNL     1     151.589 153.530 167.623  0.00  0.00    -0.062 A 
ATOM      8  C8  UNL     1     152.398 154.619 167.942  0.00  0.00    -0.061 A 
ATOM      9  C9  UNL     1     152.445 155.729 167.093  0.00  0.00    -0.053 A 
ATOM     10  N1  UNL     1     151.848 156.695 163.653  0.00  0.00    -0.224 NA
ATOM     11  C10 UNL     1     151.853 157.845 163.027  0.00  0.00    +0.165 A 
ATOM     12  N2  UNL     1     152.002 157.897 161.664  0.00  0.00    -0.263 N 
ATOM     13  C11 UNL     1     151.964 159.017 160.863  0.00  0.00    +0.240 C 
ATOM     14  O1  UNL     1     151.807 160.177 161.236  0.00  0.00    -0.274 OA
ATOM     15  C12 UNL     1     152.258 158.754 159.413  0.00  0.00    +0.147 C 
ATOM     16  S1  UNL     1     151.070 157.643 158.738  0.00  0.00    +0.005 S 
ATOM     17  O2  UNL     1     151.297 156.346 159.355  0.00  0.00    -0.169 OA
ATOM     18  O3  UNL     1     149.760 158.260 158.761  0.00  0.00    -0.169 OA
ATOM     19  C13 UNL     1     151.559 157.510 157.033  0.00  0.00    +0.089 A 
ATOM     20  C14 UNL     1     152.377 156.453 156.624  0.00  0.00    -0.036 A 
ATOM     21  C15 UNL     1     152.747 156.353 155.282  0.00  0.00    -0.046 A 
ATOM     22  C16 UNL     1     152.292 157.300 154.363  0.00  0.00    +0.018 A 
ATOM     23 BR1  UNL     1     152.795 157.160 152.547  0.00  0.00    -0.050 Br
ATOM     24  C17 UNL     1     151.462 158.345 154.772  0.00  0.00    -0.046 A 
ATOM     25  C18 UNL     1     151.088 158.451 156.112  0.00  0.00    -0.036 A 
ATOM     26  S2  UNL     1     151.691 159.223 164.006  0.00  0.00    -0.057 S 
ATOM     27  H   UNL     1     152.152 157.038 161.208  0.00  0.00    +0.000 HD
ENDROOT
TORSDOF 0
ENDMDL
MODEL 3
REMARK VINA RESULT:    -9.322      6.945     10.468
REMARK INTER + INTRA:          -9.322
REMARK INTER:                  -9.322
REMARK INTRA:                   0.000
REMARK UNBOUND:                 0.000
REMARK  Name = /home/vital/Documents/PhD_2021/Malaria_codes/scripts/../data/pdbqt_ligands/ligand_455_temp.pdb
REMARK                            x       y       z     vdW  Elec       q    Type
REMARK                         _______ _______ _______ _____ _____    ______ ____
ROOT
ATOM      1  C1  UNL     1     151.693 160.717 157.002  0.00  0.00    -0.031 C 
ATOM      2  C2  UNL     1     151.547 160.318 158.429  0.00  0.00    +0.016 A 
ATOM      3  C3  UNL     1     151.246 159.095 159.008  0.00  0.00    +0.083 A 
ATOM      4  C4  UNL     1     150.971 157.868 158.275  0.00  0.00    +0.001 A 
ATOM      5  C5  UNL     1     151.612 156.682 158.657  0.00  0.00    -0.053 A 
ATOM      6  C6  UNL     1     151.363 155.490 157.975  0.00  0.00    -0.061 A 
ATOM      7  C7  UNL     1     150.461 155.470 156.913  0.00  0.00    -0.062 A 
ATOM      8  C8  UNL     1     149.804 156.640 156.535  0.00  0.00    -0.061 A 
ATOM      9  C9  UNL     1     150.053 157.835 157.217  0.00  0.00    -0.053 A 
ATOM     10  N1  UNL     1     151.259 159.086 160.395  0.00  0.00    -0.224 NA
ATOM     11  C10 UNL     1     151.525 160.286 160.849  0.00  0.00    +0.165 A 
ATOM     12  N2  UNL     1     151.572 160.527 162.198  0.00  0.00    -0.263 N 
ATOM     13  C11 UNL     1     151.900 161.711 162.823  0.00  0.00    +0.240 C 
ATOM     14  O1  UNL     1     152.192 162.771 162.272  0.00  0.00    -0.274 OA
ATOM     15  C12 UNL     1     151.765 161.682 164.318  0.00  0.00    +0.147 C 
ATOM     16  S1  UNL     1     152.837 160.466 165.007  0.00  0.00    +0.005 S 
ATOM     17  O2  UNL     1     152.321 159.166 164.610  0.00  0.00    -0.169 OA
ATOM     18  O3  UNL     1     154.214 160.831 164.750  0.00  0.00    -0.169 OA
ATOM     19  C13 UNL     1     152.567 160.630 166.757  0.00  0.00    +0.089 A 
ATOM     20  C14 UNL     1     151.651 159.794 167.402  0.00  0.00    -0.036 A 
ATOM     21  C15 UNL     1     151.454 159.925 168.778  0.00  0.00    -0.046 A 
ATOM     22  C16 UNL     1     152.177 160.879 169.495  0.00  0.00    +0.018 A 
ATOM     23 BR1  UNL     1     151.907 161.052 171.358  0.00  0.00    -0.050 Br
ATOM     24  C17 UNL     1     153.103 161.701 168.852  0.00  0.00    -0.046 A 
ATOM     25  C18 UNL     1     153.305 161.575 167.477  0.00  0.00    -0.036 A 
ATOM     26  S2  UNL     1     151.776 161.484 159.671  0.00  0.00    -0.057 S 
ATOM     27  H   UNL     1     151.347 159.771 162.786  0.00  0.00    +0.000 HD
ENDROOT
TORSDOF 0
ENDMDL
MODEL 4
REMARK VINA RESULT:    -9.196      4.010      4.910
REMARK INTER + INTRA:          -9.196
REMARK INTER:                  -9.196
REMARK INTRA:                   0.000
REMARK UNBOUND:                 0.000
REMARK  Name = /home/vital/Documents/PhD_2021/Malaria_codes/scripts/../data/pdbqt_ligands/ligand_455_temp.pdb
REMARK                            x       y       z     vdW  Elec       q    Type
REMARK                         _______ _______ _______ _____ _____    ______ ____
ROOT
ATOM      1  C1  UNL     1     151.100 160.880 165.659  0.00  0.00    -0.031 C 
ATOM      2  C2  UNL     1     151.403 160.032 164.473  0.00  0.00    +0.016 A 
ATOM      3  C3  UNL     1     151.652 158.673 164.363  0.00  0.00    +0.083 A 
ATOM      4  C4  UNL     1     151.690 157.737 165.477  0.00  0.00    +0.001 A 
ATOM      5  C5  UNL     1     150.987 156.529 165.383  0.00  0.00    -0.053 A 
ATOM      6  C6  UNL     1     151.010 155.611 166.434  0.00  0.00    -0.061 A 
ATOM      7  C7  UNL     1     151.747 155.887 167.585  0.00  0.00    -0.062 A 
ATOM      8  C8  UNL     1     152.464 157.079 167.683  0.00  0.00    -0.061 A 
ATOM      9  C9  UNL     1     152.441 157.999 166.630  0.00  0.00    -0.053 A 
ATOM     10  N1  UNL     1     151.833 158.215 163.066  0.00  0.00    -0.224 NA
ATOM     11  C10 UNL     1     151.761 159.215 162.223  0.00  0.00    +0.165 A 
ATOM     12  N2  UNL     1     151.929 159.007 160.878  0.00  0.00    -0.263 N 
ATOM     13  C11 UNL     1     151.820 159.940 159.870  0.00  0.00    +0.240 C 
ATOM     14  O1  UNL     1     151.567 161.135 160.005  0.00  0.00    -0.274 OA
ATOM     15  C12 UNL     1     152.160 159.419 158.502  0.00  0.00    +0.147 C 
ATOM     16  S1  UNL     1     151.073 158.106 158.059  0.00  0.00    +0.005 S 
ATOM     17  O2  UNL     1     151.388 156.979 158.921  0.00  0.00    -0.169 OA
ATOM     18  O3  UNL     1     149.720 158.610 157.955  0.00  0.00    -0.169 OA
ATOM     19  C13 UNL     1     151.602 157.678 156.415  0.00  0.00    +0.089 A 
ATOM     20  C14 UNL     1     152.506 156.628 156.226  0.00  0.00    -0.036 A 
ATOM     21  C15 UNL     1     152.908 156.295 154.931  0.00  0.00    -0.046 A 
ATOM     22  C16 UNL     1     152.397 157.002 153.842  0.00  0.00    +0.018 A 
ATOM     23 BR1  UNL     1     152.943 156.546 152.091  0.00  0.00    -0.050 Br
ATOM     24  C17 UNL     1     151.482 158.038 154.033  0.00  0.00    -0.046 A 
ATOM     25  C18 UNL     1     151.076 158.377 155.324  0.00  0.00    -0.036 A 
ATOM     26  S2  UNL     1     151.475 160.742 162.909  0.00  0.00    -0.057 S 
ATOM     27  H   UNL     1     152.154 158.089 160.602  0.00  0.00    +0.000 HD
ENDROOT
TORSDOF 0
ENDMDL
MODEL 5
REMARK VINA RESULT:    -9.016      1.809      2.283
REMARK INTER + INTRA:          -9.016
REMARK INTER:                  -9.016
REMARK INTRA:                   0.000
REMARK UNBOUND:                 0.000
REMARK  Name = /home/vital/Documents/PhD_2021/Malaria_codes/scripts/../data/pdbqt_ligands/ligand_455_temp.pdb
REMARK                            x       y       z     vdW  Elec       q    Type
REMARK                         _______ _______ _______ _____ _____    ______ ____
ROOT
ATOM      1  C1  UNL     1     150.797 156.936 166.550  0.00  0.00    -0.031 C 
ATOM      2  C2  UNL     1     150.829 156.511 165.123  0.00  0.00    +0.016 A 
ATOM      3  C3  UNL     1     150.397 155.347 164.508  0.00  0.00    +0.083 A 
ATOM      4  C4  UNL     1     149.798 154.212 165.195  0.00  0.00    +0.001 A 
ATOM      5  C5  UNL     1     148.619 153.647 164.689  0.00  0.00    -0.053 A 
ATOM      6  C6  UNL     1     148.026 152.555 165.323  0.00  0.00    -0.061 A 
ATOM      7  C7  UNL     1     148.613 152.009 166.464  0.00  0.00    -0.062 A 
ATOM      8  C8  UNL     1     149.795 152.551 166.967  0.00  0.00    -0.061 A 
ATOM      9  C9  UNL     1     150.389 153.646 166.332  0.00  0.00    -0.053 A 
ATOM     10  N1  UNL     1     150.532 155.330 163.127  0.00  0.00    -0.224 NA
ATOM     11  C10 UNL     1     151.091 156.441 162.718  0.00  0.00    +0.165 A 
ATOM     12  N2  UNL     1     151.346 156.645 161.386  0.00  0.00    -0.263 N 
ATOM     13  C11 UNL     1     151.865 157.778 160.800  0.00  0.00    +0.240 C 
ATOM     14  O1  UNL     1     152.210 158.807 161.378  0.00  0.00    -0.274 OA
ATOM     15  C12 UNL     1     152.118 157.654 159.325  0.00  0.00    +0.147 C 
ATOM     16  S1  UNL     1     150.614 157.321 158.471  0.00  0.00    +0.005 S 
ATOM     17  O2  UNL     1     150.199 155.978 158.842  0.00  0.00    -0.169 OA
ATOM     18  O3  UNL     1     149.714 158.446 158.615  0.00  0.00    -0.169 OA
ATOM     19  C13 UNL     1     151.117 157.267 156.766  0.00  0.00    +0.089 A 
ATOM     20  C14 UNL     1     151.412 156.039 156.165  0.00  0.00    -0.036 A 
ATOM     21  C15 UNL     1     151.797 156.007 154.824  0.00  0.00    -0.046 A 
ATOM     22  C16 UNL     1     151.875 157.195 154.095  0.00  0.00    +0.018 A 
ATOM     23 BR1  UNL     1     152.396 157.146 152.279  0.00  0.00    -0.050 Br
ATOM     24  C17 UNL     1     151.565 158.418 154.692  0.00  0.00    -0.046 A 
ATOM     25  C18 UNL     1     151.179 158.457 156.033  0.00  0.00    -0.036 A 
ATOM     26  S2  UNL     1     151.483 157.564 163.932  0.00  0.00    -0.057 S 
ATOM     27  H   UNL     1     151.135 155.898 160.781  0.00  0.00    +0.000 HD
ENDROOT
TORSDOF 0
ENDMDL
MODEL 6
REMARK VINA RESULT:    -8.926      5.365     10.044
REMARK INTER + INTRA:          -8.926
REMARK INTER:                  -8.926
REMARK INTRA:                   0.000
REMARK UNBOUND:                 0.000
REMARK  Name = /home/vital/Documents/PhD_2021/Malaria_codes/scripts/../data/pdbqt_ligands/ligand_455_temp.pdb
REMARK                            x       y       z     vdW  Elec       q    Type
REMARK                         _______ _______ _______ _____ _____    ______ ____
ROOT
ATOM      1  C1  UNL     1     152.162 156.558 162.687  0.00  0.00    -0.031 C 
ATOM      2  C2  UNL     1     150.997 155.637 162.567  0.00  0.00    +0.016 A 
ATOM      3  C3  UNL     1     150.169 155.349 161.494  0.00  0.00    +0.083 A 
ATOM      4  C4  UNL     1     150.269 155.956 160.174  0.00  0.00    +0.001 A 
ATOM      5  C5  UNL     1     150.241 155.136 159.038  0.00  0.00    -0.053 A 
ATOM      6  C6  UNL     1     150.329 155.691 157.761  0.00  0.00    -0.061 A 
ATOM      7  C7  UNL     1     150.435 157.073 157.607  0.00  0.00    -0.062 A 
ATOM      8  C8  UNL     1     150.447 157.900 158.729  0.00  0.00    -0.061 A 
ATOM      9  C9  UNL     1     150.359 157.344 160.009  0.00  0.00    -0.053 A 
ATOM     10  N1  UNL     1     149.213 154.374 161.738  0.00  0.00    -0.224 NA
ATOM     11  C10 UNL     1     149.296 153.966 162.980  0.00  0.00    +0.165 A 
ATOM     12  N2  UNL     1     148.434 153.013 163.461  0.00  0.00    -0.263 N 
ATOM     13  C11 UNL     1     148.438 152.442 164.714  0.00  0.00    +0.240 C 
ATOM     14  O1  UNL     1     149.212 152.702 165.633  0.00  0.00    -0.274 OA
ATOM     15  C12 UNL     1     147.300 151.495 164.968  0.00  0.00    +0.147 C 
ATOM     16  S1  UNL     1     147.353 150.152 163.830  0.00  0.00    +0.005 S 
ATOM     17  O2  UNL     1     147.039 150.691 162.517  0.00  0.00    -0.169 OA
ATOM     18  O3  UNL     1     148.557 149.377 164.049  0.00  0.00    -0.169 OA
ATOM     19  C13 UNL     1     145.979 149.140 164.330  0.00  0.00    +0.089 A 
ATOM     20  C14 UNL     1     144.743 149.278 163.689  0.00  0.00    -0.036 A 
ATOM     21  C15 UNL     1     143.674 148.473 164.083  0.00  0.00    -0.046 A 
ATOM     22  C16 UNL     1     143.848 147.535 165.101  0.00  0.00    +0.018 A 
ATOM     23 BR1  UNL     1     142.397 146.446 165.629  0.00  0.00    -0.050 Br
ATOM     24  C17 UNL     1     145.087 147.388 165.728  0.00  0.00    -0.046 A 
ATOM     25  C18 UNL     1     146.161 148.190 165.339  0.00  0.00    -0.036 A 
ATOM     26  S2  UNL     1     150.501 154.704 163.922  0.00  0.00    -0.057 S 
ATOM     27  H   UNL     1     147.735 152.704 162.841  0.00  0.00    +0.000 HD
ENDROOT
TORSDOF 0
ENDMDL
MODEL 7
REMARK VINA RESULT:    -8.715      6.154     10.094
REMARK INTER + INTRA:          -8.715
REMARK INTER:                  -8.715
REMARK INTRA:                   0.000
REMARK UNBOUND:                 0.000
REMARK  Name = /home/vital/Documents/PhD_2021/Malaria_codes/scripts/../data/pdbqt_ligands/ligand_455_temp.pdb
REMARK                            x       y       z     vdW  Elec       q    Type
REMARK                         _______ _______ _______ _____ _____    ______ ____
ROOT
ATOM      1  C1  UNL     1     149.657 153.554 160.869  0.00  0.00    -0.031 C 
ATOM      2  C2  UNL     1     150.262 154.727 161.558  0.00  0.00    +0.016 A 
ATOM      3  C3  UNL     1     150.781 155.911 161.058  0.00  0.00    +0.083 A 
ATOM      4  C4  UNL     1     150.861 156.258 159.646  0.00  0.00    +0.001 A 
ATOM      5  C5  UNL     1     150.423 157.519 159.223  0.00  0.00    -0.053 A 
ATOM      6  C6  UNL     1     150.494 157.880 157.876  0.00  0.00    -0.061 A 
ATOM      7  C7  UNL     1     151.016 156.987 156.942  0.00  0.00    -0.062 A 
ATOM      8  C8  UNL     1     151.471 155.736 157.354  0.00  0.00    -0.061 A 
ATOM      9  C9  UNL     1     151.399 155.373 158.702  0.00  0.00    -0.053 A 
ATOM     10  N1  UNL     1     151.205 156.816 162.019  0.00  0.00    -0.224 NA
ATOM     11  C10 UNL     1     151.045 156.307 163.215  0.00  0.00    +0.165 A 
ATOM     12  N2  UNL     1     151.415 157.015 164.331  0.00  0.00    -0.263 N 
ATOM     13  C11 UNL     1     151.252 156.643 165.647  0.00  0.00    +0.240 C 
ATOM     14  O1  UNL     1     150.758 155.593 166.053  0.00  0.00    -0.274 OA
ATOM     15  C12 UNL     1     151.852 157.596 166.641  0.00  0.00    +0.147 C 
ATOM     16  S1  UNL     1     151.104 159.183 166.496  0.00  0.00    +0.005 S 
ATOM     17  O2  UNL     1     151.523 159.740 165.221  0.00  0.00    -0.169 OA
ATOM     18  O3  UNL     1     149.702 159.093 166.846  0.00  0.00    -0.169 OA
ATOM     19  C13 UNL     1     151.904 160.128 167.774  0.00  0.00    +0.089 A 
ATOM     20  C14 UNL     1     153.011 160.923 167.462  0.00  0.00    -0.036 A 
ATOM     21  C15 UNL     1     153.626 161.668 168.470  0.00  0.00    -0.046 A 
ATOM     22  C16 UNL     1     153.126 161.619 169.772  0.00  0.00    +0.018 A 
ATOM     23 BR1  UNL     1     153.961 162.630 171.134  0.00  0.00    -0.050 Br
ATOM     24  C17 UNL     1     152.011 160.837 170.078  0.00  0.00    -0.046 A 
ATOM     25  C18 UNL     1     151.391 160.090 169.075  0.00  0.00    -0.036 A 
ATOM     26  S2  UNL     1     150.386 154.742 163.272  0.00  0.00    -0.057 S 
ATOM     27  H   UNL     1     151.846 157.886 164.173  0.00  0.00    +0.000 HD
ENDROOT
TORSDOF 0
ENDMDL
MODEL 8
REMARK VINA RESULT:    -8.290      6.322      9.369
REMARK INTER + INTRA:          -8.290
REMARK INTER:                  -8.290
REMARK INTRA:                   0.000
REMARK UNBOUND:                 0.000
REMARK  Name = /home/vital/Documents/PhD_2021/Malaria_codes/scripts/../data/pdbqt_ligands/ligand_455_temp.pdb
REMARK                            x       y       z     vdW  Elec       q    Type
REMARK                         _______ _______ _______ _____ _____    ______ ____
ROOT
ATOM      1  C1  UNL     1     152.784 159.175 164.452  0.00  0.00    -0.031 C 
ATOM      2  C2  UNL     1     151.939 158.010 164.834  0.00  0.00    +0.016 A 
ATOM      3  C3  UNL     1     151.224 157.742 165.991  0.00  0.00    +0.083 A 
ATOM      4  C4  UNL     1     151.171 158.608 167.160  0.00  0.00    +0.001 A 
ATOM      5  C5  UNL     1     149.929 158.904 167.739  0.00  0.00    -0.053 A 
ATOM      6  C6  UNL     1     149.849 159.726 168.864  0.00  0.00    -0.061 A 
ATOM      7  C7  UNL     1     151.012 160.250 169.428  0.00  0.00    -0.062 A 
ATOM      8  C8  UNL     1     152.253 159.948 168.871  0.00  0.00    -0.061 A 
ATOM      9  C9  UNL     1     152.334 159.125 167.744  0.00  0.00    -0.053 A 
ATOM     10  N1  UNL     1     150.488 156.566 165.964  0.00  0.00    -0.224 NA
ATOM     11  C10 UNL     1     150.679 155.944 164.827  0.00  0.00    +0.165 A 
ATOM     12  N2  UNL     1     150.067 154.742 164.578  0.00  0.00    -0.263 N 
ATOM     13  C11 UNL     1     150.118 154.005 163.416  0.00  0.00    +0.240 C 
ATOM     14  O1  UNL     1     150.742 154.291 162.396  0.00  0.00    -0.274 OA
ATOM     15  C12 UNL     1     149.418 152.678 163.490  0.00  0.00    +0.147 C 
ATOM     16  S1  UNL     1     147.706 152.907 163.836  0.00  0.00    +0.005 S 
ATOM     17  O2  UNL     1     147.607 153.402 165.199  0.00  0.00    -0.169 OA
ATOM     18  O3  UNL     1     147.080 153.614 162.738  0.00  0.00    -0.169 OA
ATOM     19  C13 UNL     1     147.064 151.248 163.827  0.00  0.00    +0.089 A 
ATOM     20  C14 UNL     1     146.933 150.546 165.030  0.00  0.00    -0.036 A 
ATOM     21  C15 UNL     1     146.419 149.249 165.012  0.00  0.00    -0.046 A 
ATOM     22  C16 UNL     1     146.034 148.670 163.803  0.00  0.00    +0.018 A 
ATOM     23 BR1  UNL     1     145.338 146.913 163.785  0.00  0.00    -0.050 Br
ATOM     24  C17 UNL     1     146.150 149.379 162.606  0.00  0.00    -0.046 A 
ATOM     25  C18 UNL     1     146.663 150.677 162.615  0.00  0.00    -0.036 A 
ATOM     26  S2  UNL     1     151.728 156.709 163.732  0.00  0.00    -0.057 S 
ATOM     27  H   UNL     1     149.532 154.364 165.313  0.00  0.00    +0.000 HD
ENDROOT
TORSDOF 0
ENDMDL
MODEL 9
REMARK VINA RESULT:    -7.991      8.044     11.398
REMARK INTER + INTRA:          -7.991
REMARK INTER:                  -7.991
REMARK INTRA:                   0.000
REMARK UNBOUND:                 0.000
REMARK  Name = /home/vital/Documents/PhD_2021/Malaria_codes/scripts/../data/pdbqt_ligands/ligand_455_temp.pdb
REMARK                            x       y       z     vdW  Elec       q    Type
REMARK                         _______ _______ _______ _____ _____    ______ ____
ROOT
ATOM      1  C1  UNL     1     140.918 143.072 163.800  0.00  0.00    -0.031 C 
ATOM      2  C2  UNL     1     142.104 143.943 164.032  0.00  0.00    +0.016 A 
ATOM      3  C3  UNL     1     143.396 143.637 164.430  0.00  0.00    +0.083 A 
ATOM      4  C4  UNL     1     143.880 142.300 164.745  0.00  0.00    +0.001 A 
ATOM      5  C5  UNL     1     145.090 141.860 164.192  0.00  0.00    -0.053 A 
ATOM      6  C6  UNL     1     145.580 140.586 164.481  0.00  0.00    -0.061 A 
ATOM      7  C7  UNL     1     144.870 139.743 165.336  0.00  0.00    -0.062 A 
ATOM      8  C8  UNL     1     143.673 140.177 165.905  0.00  0.00    -0.061 A 
ATOM      9  C9  UNL     1     143.182 141.453 165.615  0.00  0.00    -0.053 A 
ATOM     10  N1  UNL     1     144.265 144.718 164.478  0.00  0.00    -0.224 NA
ATOM     11  C10 UNL     1     143.629 145.818 164.161  0.00  0.00    +0.165 A 
ATOM     12  N2  UNL     1     144.281 147.025 164.158  0.00  0.00    -0.263 N 
ATOM     13  C11 UNL     1     143.768 148.249 163.789  0.00  0.00    +0.240 C 
ATOM     14  O1  UNL     1     142.620 148.476 163.411  0.00  0.00    -0.274 OA
ATOM     15  C12 UNL     1     144.708 149.402 163.990  0.00  0.00    +0.147 C 
ATOM     16  S1  UNL     1     146.164 149.182 163.024  0.00  0.00    +0.005 S 
ATOM     17  O2  UNL     1     146.895 148.065 163.598  0.00  0.00    -0.169 OA
ATOM     18  O3  UNL     1     145.821 149.205 161.617  0.00  0.00    -0.169 OA
ATOM     19  C13 UNL     1     147.102 150.656 163.359  0.00  0.00    +0.089 A 
ATOM     20  C14 UNL     1     148.087 150.644 164.351  0.00  0.00    -0.036 A 
ATOM     21  C15 UNL     1     148.824 151.804 164.599  0.00  0.00    -0.046 A 
ATOM     22  C16 UNL     1     148.577 152.956 163.853  0.00  0.00    +0.018 A 
ATOM     23 BR1  UNL     1     149.577 154.523 164.193  0.00  0.00    -0.050 Br
ATOM     24  C17 UNL     1     147.604 152.961 162.852  0.00  0.00    -0.046 A 
ATOM     25  C18 UNL     1     146.864 151.806 162.598  0.00  0.00    -0.036 A 
ATOM     26  S2  UNL     1     141.981 145.640 163.788  0.00  0.00    -0.057 S 
ATOM     27  H   UNL     1     145.219 147.015 164.453  0.00  0.00    +0.000 HD
ENDROOT
TORSDOF 0
ENDMDL
