MODEL 1
REMARK VINA RESULT:    -9.040      0.000      0.000
REMARK INTER + INTRA:          -9.040
REMARK INTER:                  -9.040
REMARK INTRA:                   0.000
REMARK UNBOUND:                 0.000
REMARK  Name = /home/vital/Documents/PhD_2021/Malaria_codes/scripts/../data/pdbqt_ligands/ligand_173_temp.pdb
REMARK                            x       y       z     vdW  Elec       q    Type
REMARK                         _______ _______ _______ _____ _____    ______ ____
ROOT
ATOM      1  C   UNL     1     153.285 155.582 152.023  0.00  0.00    -0.080 C 
ATOM      2  C   UNL     1     152.473 156.299 152.813  0.00  0.00    +0.037 C 
ATOM      3 CL   UNL     1     151.835 157.802 152.230  0.00  0.00    -0.084 Cl
ATOM      4  C   UNL     1     152.070 155.869 154.148  0.00  0.00    -0.025 C 
ATOM      5  C   UNL     1     151.357 154.736 154.296  0.00  0.00    -0.093 C 
ATOM      6  C   UNL     1     152.524 156.787 155.273  0.00  0.00    +0.035 C 
ATOM      7  C   UNL     1     152.207 156.297 156.625  0.00  0.00    -0.097 C 
ATOM      8  C   UNL     1     151.943 155.917 157.734  0.00  0.00    -0.100 C 
ATOM      9  C   UNL     1     151.601 155.451 159.092  0.00  0.00    +0.028 C 
ATOM     10  C   UNL     1     150.361 156.182 159.622  0.00  0.00    +0.060 C 
ATOM     11  N   UNL     1     149.934 155.734 160.959  0.00  0.00    -0.171 N 
ATOM     12  N   UNL     1     150.819 155.955 161.960  0.00  0.00    -0.151 N 
ATOM     13  C   UNL     1     150.649 155.350 163.108  0.00  0.00    +0.147 C 
ATOM     14  N   UNL     1     151.507 155.639 164.161  0.00  0.00    -0.326 N 
ATOM     15  C   UNL     1     152.401 156.791 164.122  0.00  0.00    +0.024 C 
ATOM     16  C   UNL     1     151.654 158.104 164.359  0.00  0.00    +0.038 C 
ATOM     17 CL   UNL     1     150.943 158.147 166.001  0.00  0.00    -0.124 Cl
ATOM     18  C   UNL     1     149.568 154.339 163.300  0.00  0.00    +0.039 A 
ATOM     19  C   UNL     1     149.203 153.792 164.534  0.00  0.00    -0.049 A 
ATOM     20  C   UNL     1     148.221 152.800 164.583  0.00  0.00    -0.061 A 
ATOM     21  C   UNL     1     147.624 152.346 163.407  0.00  0.00    -0.060 A 
ATOM     22  C   UNL     1     147.996 152.893 162.178  0.00  0.00    -0.039 A 
ATOM     23  C   UNL     1     148.946 153.918 162.123  0.00  0.00    +0.056 A 
ATOM     24  N   UNL     1     149.385 154.443 160.886  0.00  0.00    -0.248 N 
ATOM     25  H   UNL     1     151.582 156.562 161.825  0.00  0.00    +0.000 HD
ATOM     26  H   UNL     1     151.511 155.053 164.952  0.00  0.00    +0.000 HD
ATOM     27  H   UNL     1     149.312 153.944 160.040  0.00  0.00    +0.000 HD
ENDROOT
TORSDOF 0
ENDMDL
MODEL 2
REMARK VINA RESULT:    -8.185      2.188      4.273
REMARK INTER + INTRA:          -8.185
REMARK INTER:                  -8.185
REMARK INTRA:                   0.000
REMARK UNBOUND:                 0.000
REMARK  Name = /home/vital/Documents/PhD_2021/Malaria_codes/scripts/../data/pdbqt_ligands/ligand_173_temp.pdb
REMARK                            x       y       z     vdW  Elec       q    Type
REMARK                         _______ _______ _______ _____ _____    ______ ____
ROOT
ATOM      1  C   UNL     1     151.492 157.572 153.495  0.00  0.00    -0.080 C 
ATOM      2  C   UNL     1     152.193 156.890 154.412  0.00  0.00    +0.037 C 
ATOM      3 CL   UNL     1     153.406 155.767 153.887  0.00  0.00    -0.084 Cl
ATOM      4  C   UNL     1     152.007 157.058 155.849  0.00  0.00    -0.025 C 
ATOM      5  C   UNL     1     152.259 158.252 156.419  0.00  0.00    -0.093 C 
ATOM      6  C   UNL     1     151.526 155.811 156.575  0.00  0.00    +0.035 C 
ATOM      7  C   UNL     1     151.239 156.012 158.006  0.00  0.00    -0.097 C 
ATOM      8  C   UNL     1     151.014 156.155 159.178  0.00  0.00    -0.100 C 
ATOM      9  C   UNL     1     150.756 156.337 160.619  0.00  0.00    +0.028 C 
ATOM     10  C   UNL     1     151.928 155.805 161.454  0.00  0.00    +0.060 C 
ATOM     11  N   UNL     1     151.758 155.995 162.905  0.00  0.00    -0.171 N 
ATOM     12  N   UNL     1     150.715 155.335 163.462  0.00  0.00    -0.151 N 
ATOM     13  C   UNL     1     150.325 155.660 164.669  0.00  0.00    +0.147 C 
ATOM     14  N   UNL     1     149.312 154.929 165.275  0.00  0.00    -0.326 N 
ATOM     15  C   UNL     1     148.868 153.648 164.736  0.00  0.00    +0.024 C 
ATOM     16  C   UNL     1     149.865 152.527 165.032  0.00  0.00    +0.038 C 
ATOM     17 CL   UNL     1     150.004 152.245 166.794  0.00  0.00    -0.124 Cl
ATOM     18  C   UNL     1     150.932 156.814 165.396  0.00  0.00    +0.039 A 
ATOM     19  C   UNL     1     150.708 157.108 166.745  0.00  0.00    -0.049 A 
ATOM     20  C   UNL     1     151.276 158.256 167.302  0.00  0.00    -0.061 A 
ATOM     21  C   UNL     1     152.043 159.112 166.512  0.00  0.00    -0.060 A 
ATOM     22  C   UNL     1     152.259 158.815 165.165  0.00  0.00    -0.039 A 
ATOM     23  C   UNL     1     151.732 157.644 164.610  0.00  0.00    +0.056 A 
ATOM     24  N   UNL     1     151.883 157.355 163.235  0.00  0.00    -0.248 N 
ATOM     25  H   UNL     1     150.255 154.621 162.966  0.00  0.00    +0.000 HD
ATOM     26  H   UNL     1     148.882 155.284 166.086  0.00  0.00    +0.000 HD
ATOM     27  H   UNL     1     152.062 158.051 162.561  0.00  0.00    +0.000 HD
ENDROOT
TORSDOF 0
ENDMDL
MODEL 3
REMARK VINA RESULT:    -8.181      3.257      8.631
REMARK INTER + INTRA:          -8.181
REMARK INTER:                  -8.181
REMARK INTRA:                   0.000
REMARK UNBOUND:                 0.000
REMARK  Name = /home/vital/Documents/PhD_2021/Malaria_codes/scripts/../data/pdbqt_ligands/ligand_173_temp.pdb
REMARK                            x       y       z     vdW  Elec       q    Type
REMARK                         _______ _______ _______ _____ _____    ______ ____
ROOT
ATOM      1  C   UNL     1     144.601 149.009 163.835  0.00  0.00    -0.080 C 
ATOM      2  C   UNL     1     145.846 149.492 163.951  0.00  0.00    +0.037 C 
ATOM      3 CL   UNL     1     146.855 148.927 165.244  0.00  0.00    -0.084 Cl
ATOM      4  C   UNL     1     146.419 150.461 163.024  0.00  0.00    -0.025 C 
ATOM      5  C   UNL     1     146.575 150.132 161.727  0.00  0.00    -0.093 C 
ATOM      6  C   UNL     1     146.791 151.795 163.652  0.00  0.00    +0.035 C 
ATOM      7  C   UNL     1     147.271 152.807 162.695  0.00  0.00    -0.097 C 
ATOM      8  C   UNL     1     147.678 153.639 161.929  0.00  0.00    -0.100 C 
ATOM      9  C   UNL     1     148.192 154.648 160.984  0.00  0.00    +0.028 C 
ATOM     10  C   UNL     1     149.723 154.721 161.044  0.00  0.00    +0.060 C 
ATOM     11  N   UNL     1     150.309 155.681 160.092  0.00  0.00    -0.171 N 
ATOM     12  N   UNL     1     149.974 156.978 160.287  0.00  0.00    -0.151 N 
ATOM     13  C   UNL     1     150.216 157.850 159.341  0.00  0.00    +0.147 C 
ATOM     14  N   UNL     1     149.951 159.193 159.573  0.00  0.00    -0.326 N 
ATOM     15  C   UNL     1     149.687 159.698 160.915  0.00  0.00    +0.024 C 
ATOM     16  C   UNL     1     150.962 159.798 161.752  0.00  0.00    +0.038 C 
ATOM     17 CL   UNL     1     152.099 160.986 161.044  0.00  0.00    -0.124 Cl
ATOM     18  C   UNL     1     150.749 157.426 158.013  0.00  0.00    +0.039 A 
ATOM     19  C   UNL     1     151.207 158.303 157.025  0.00  0.00    -0.049 A 
ATOM     20  C   UNL     1     151.619 157.795 155.791  0.00  0.00    -0.061 A 
ATOM     21  C   UNL     1     151.554 156.424 155.541  0.00  0.00    -0.060 A 
ATOM     22  C   UNL     1     151.091 155.554 156.530  0.00  0.00    -0.039 A 
ATOM     23  C   UNL     1     150.719 156.049 157.784  0.00  0.00    +0.056 A 
ATOM     24  N   UNL     1     150.187 155.196 158.778  0.00  0.00    -0.248 N 
ATOM     25  H   UNL     1     149.553 157.262 161.130  0.00  0.00    +0.000 HD
ATOM     26  H   UNL     1     149.942 159.819 158.813  0.00  0.00    +0.000 HD
ATOM     27  H   UNL     1     149.765 154.332 158.567  0.00  0.00    +0.000 HD
ENDROOT
TORSDOF 0
ENDMDL
MODEL 4
REMARK VINA RESULT:    -8.170      4.942     10.581
REMARK INTER + INTRA:          -8.170
REMARK INTER:                  -8.170
REMARK INTRA:                   0.000
REMARK UNBOUND:                 0.000
REMARK  Name = /home/vital/Documents/PhD_2021/Malaria_codes/scripts/../data/pdbqt_ligands/ligand_173_temp.pdb
REMARK                            x       y       z     vdW  Elec       q    Type
REMARK                         _______ _______ _______ _____ _____    ______ ____
ROOT
ATOM      1  C   UNL     1     150.705 162.319 169.133  0.00  0.00    -0.080 C 
ATOM      2  C   UNL     1     151.720 162.189 168.266  0.00  0.00    +0.037 C 
ATOM      3 CL   UNL     1     153.329 162.579 168.782  0.00  0.00    -0.084 Cl
ATOM      4  C   UNL     1     151.548 161.709 166.899  0.00  0.00    -0.025 C 
ATOM      5  C   UNL     1     151.091 160.460 166.684  0.00  0.00    -0.093 C 
ATOM      6  C   UNL     1     151.919 162.717 165.823  0.00  0.00    +0.035 C 
ATOM      7  C   UNL     1     151.646 162.268 164.447  0.00  0.00    -0.097 C 
ATOM      8  C   UNL     1     151.443 161.911 163.317  0.00  0.00    -0.100 C 
ATOM      9  C   UNL     1     151.204 161.457 161.934  0.00  0.00    +0.028 C 
ATOM     10  C   UNL     1     152.510 160.982 161.284  0.00  0.00    +0.060 C 
ATOM     11  N   UNL     1     152.340 160.472 159.912  0.00  0.00    -0.171 N 
ATOM     12  N   UNL     1     151.904 161.376 159.002  0.00  0.00    -0.151 N 
ATOM     13  C   UNL     1     151.463 160.955 157.844  0.00  0.00    +0.147 C 
ATOM     14  N   UNL     1     151.097 161.883 156.879  0.00  0.00    -0.326 N 
ATOM     15  C   UNL     1     151.451 163.293 157.003  0.00  0.00    +0.024 C 
ATOM     16  C   UNL     1     152.927 163.542 156.692  0.00  0.00    +0.038 C 
ATOM     17 CL   UNL     1     153.298 163.137 154.989  0.00  0.00    -0.124 Cl
ATOM     18  C   UNL     1     151.326 159.498 157.549  0.00  0.00    +0.039 A 
ATOM     19  C   UNL     1     151.045 158.967 156.286  0.00  0.00    -0.049 A 
ATOM     20  C   UNL     1     150.870 157.589 156.143  0.00  0.00    -0.061 A 
ATOM     21  C   UNL     1     150.955 156.752 157.256  0.00  0.00    -0.060 A 
ATOM     22  C   UNL     1     151.231 157.289 158.515  0.00  0.00    -0.039 A 
ATOM     23  C   UNL     1     151.453 158.662 158.661  0.00  0.00    +0.056 A 
ATOM     24  N   UNL     1     151.670 159.237 159.933  0.00  0.00    -0.248 N 
ATOM     25  H   UNL     1     151.918 162.338 159.210  0.00  0.00    +0.000 HD
ATOM     26  H   UNL     1     150.585 161.583 156.093  0.00  0.00    +0.000 HD
ATOM     27  H   UNL     1     151.376 158.807 160.769  0.00  0.00    +0.000 HD
ENDROOT
TORSDOF 0
ENDMDL
MODEL 5
REMARK VINA RESULT:    -8.101      4.239      9.735
REMARK INTER + INTRA:          -8.101
REMARK INTER:                  -8.101
REMARK INTRA:                   0.000
REMARK UNBOUND:                 0.000
REMARK  Name = /home/vital/Documents/PhD_2021/Malaria_codes/scripts/../data/pdbqt_ligands/ligand_173_temp.pdb
REMARK                            x       y       z     vdW  Elec       q    Type
REMARK                         _______ _______ _______ _____ _____    ______ ____
ROOT
ATOM      1  C   UNL     1     144.116 146.672 166.329  0.00  0.00    -0.080 C 
ATOM      2  C   UNL     1     143.929 147.887 165.795  0.00  0.00    +0.037 C 
ATOM      3 CL   UNL     1     142.382 148.283 165.116  0.00  0.00    -0.084 Cl
ATOM      4  C   UNL     1     144.958 148.920 165.773  0.00  0.00    -0.025 C 
ATOM      5  C   UNL     1     145.437 149.409 166.933  0.00  0.00    -0.093 C 
ATOM      6  C   UNL     1     145.398 149.346 164.380  0.00  0.00    +0.035 C 
ATOM      7  C   UNL     1     146.510 150.312 164.361  0.00  0.00    -0.097 C 
ATOM      8  C   UNL     1     147.407 151.110 164.329  0.00  0.00    -0.100 C 
ATOM      9  C   UNL     1     148.499 152.103 164.299  0.00  0.00    +0.028 C 
ATOM     10  C   UNL     1     147.946 153.512 164.051  0.00  0.00    +0.060 C 
ATOM     11  N   UNL     1     148.979 154.564 164.053  0.00  0.00    -0.171 N 
ATOM     12  N   UNL     1     149.912 154.469 163.076  0.00  0.00    -0.151 N 
ATOM     13  C   UNL     1     151.006 155.181 163.166  0.00  0.00    +0.147 C 
ATOM     14  N   UNL     1     151.925 155.149 162.125  0.00  0.00    -0.326 N 
ATOM     15  C   UNL     1     151.585 154.582 160.825  0.00  0.00    +0.024 C 
ATOM     16  C   UNL     1     150.684 155.513 160.012  0.00  0.00    +0.038 C 
ATOM     17 CL   UNL     1     151.530 157.042 159.625  0.00  0.00    -0.124 Cl
ATOM     18  C   UNL     1     151.296 156.008 164.375  0.00  0.00    +0.039 A 
ATOM     19  C   UNL     1     152.339 156.935 164.470  0.00  0.00    -0.049 A 
ATOM     20  C   UNL     1     152.558 157.602 165.678  0.00  0.00    -0.061 A 
ATOM     21  C   UNL     1     151.753 157.330 166.785  0.00  0.00    -0.060 A 
ATOM     22  C   UNL     1     150.716 156.400 166.684  0.00  0.00    -0.039 A 
ATOM     23  C   UNL     1     150.462 155.760 165.466  0.00  0.00    +0.056 A 
ATOM     24  N   UNL     1     149.460 154.769 165.357  0.00  0.00    -0.248 N 
ATOM     25  H   UNL     1     149.769 153.870 162.308  0.00  0.00    +0.000 HD
ATOM     26  H   UNL     1     152.826 155.517 162.269  0.00  0.00    +0.000 HD
ATOM     27  H   UNL     1     149.126 154.262 166.132  0.00  0.00    +0.000 HD
ENDROOT
TORSDOF 0
ENDMDL
MODEL 6
REMARK VINA RESULT:    -7.912      5.192      9.877
REMARK INTER + INTRA:          -7.912
REMARK INTER:                  -7.912
REMARK INTRA:                   0.000
REMARK UNBOUND:                 0.000
REMARK  Name = /home/vital/Documents/PhD_2021/Malaria_codes/scripts/../data/pdbqt_ligands/ligand_173_temp.pdb
REMARK                            x       y       z     vdW  Elec       q    Type
REMARK                         _______ _______ _______ _____ _____    ______ ____
ROOT
ATOM      1  C   UNL     1     142.413 146.670 165.503  0.00  0.00    -0.080 C 
ATOM      2  C   UNL     1     143.749 146.690 165.387  0.00  0.00    +0.037 C 
ATOM      3 CL   UNL     1     144.642 145.224 165.632  0.00  0.00    -0.084 Cl
ATOM      4  C   UNL     1     144.504 147.888 165.038  0.00  0.00    -0.025 C 
ATOM      5  C   UNL     1     144.305 148.477 163.843  0.00  0.00    -0.093 C 
ATOM      6  C   UNL     1     145.473 148.361 166.111  0.00  0.00    +0.035 C 
ATOM      7  C   UNL     1     146.156 149.628 165.799  0.00  0.00    -0.097 C 
ATOM      8  C   UNL     1     146.733 150.654 165.554  0.00  0.00    -0.100 C 
ATOM      9  C   UNL     1     147.448 151.905 165.236  0.00  0.00    +0.028 C 
ATOM     10  C   UNL     1     148.869 151.609 164.740  0.00  0.00    +0.060 C 
ATOM     11  N   UNL     1     149.629 152.814 164.362  0.00  0.00    -0.171 N 
ATOM     12  N   UNL     1     149.875 153.689 165.365  0.00  0.00    -0.151 N 
ATOM     13  C   UNL     1     150.290 154.896 165.073  0.00  0.00    +0.147 C 
ATOM     14  N   UNL     1     150.623 155.766 166.102  0.00  0.00    -0.326 N 
ATOM     15  C   UNL     1     150.801 155.296 167.472  0.00  0.00    +0.024 C 
ATOM     16  C   UNL     1     152.127 154.558 167.656  0.00  0.00    +0.038 C 
ATOM     17 CL   UNL     1     153.514 155.655 167.378  0.00  0.00    -0.124 Cl
ATOM     18  C   UNL     1     150.388 155.361 163.658  0.00  0.00    +0.039 A 
ATOM     19  C   UNL     1     150.994 156.556 163.256  0.00  0.00    -0.049 A 
ATOM     20  C   UNL     1     150.965 156.922 161.909  0.00  0.00    -0.061 A 
ATOM     21  C   UNL     1     150.319 156.110 160.975  0.00  0.00    -0.060 A 
ATOM     22  C   UNL     1     149.713 154.921 161.384  0.00  0.00    -0.039 A 
ATOM     23  C   UNL     1     149.775 154.524 162.724  0.00  0.00    +0.056 A 
ATOM     24  N   UNL     1     149.115 153.358 163.172  0.00  0.00    -0.248 N 
ATOM     25  H   UNL     1     149.743 153.421 166.303  0.00  0.00    +0.000 HD
ATOM     26  H   UNL     1     150.743 156.723 165.903  0.00  0.00    +0.000 HD
ATOM     27  H   UNL     1     148.355 152.958 162.690  0.00  0.00    +0.000 HD
ENDROOT
TORSDOF 0
ENDMDL
MODEL 7
REMARK VINA RESULT:    -7.841      3.360      5.540
REMARK INTER + INTRA:          -7.841
REMARK INTER:                  -7.841
REMARK INTRA:                   0.000
REMARK UNBOUND:                 0.000
REMARK  Name = /home/vital/Documents/PhD_2021/Malaria_codes/scripts/../data/pdbqt_ligands/ligand_173_temp.pdb
REMARK                            x       y       z     vdW  Elec       q    Type
REMARK                         _______ _______ _______ _____ _____    ______ ____
ROOT
ATOM      1  C   UNL     1     150.545 157.932 154.854  0.00  0.00    -0.080 C 
ATOM      2  C   UNL     1     151.496 157.492 155.691  0.00  0.00    +0.037 C 
ATOM      3 CL   UNL     1     152.803 156.542 155.061  0.00  0.00    -0.084 Cl
ATOM      4  C   UNL     1     151.508 157.792 157.118  0.00  0.00    -0.025 C 
ATOM      5  C   UNL     1     151.614 159.070 157.531  0.00  0.00    -0.093 C 
ATOM      6  C   UNL     1     151.389 156.574 158.022  0.00  0.00    +0.035 C 
ATOM      7  C   UNL     1     151.295 156.887 159.458  0.00  0.00    -0.097 C 
ATOM      8  C   UNL     1     151.232 157.125 160.634  0.00  0.00    -0.100 C 
ATOM      9  C   UNL     1     151.171 157.426 162.077  0.00  0.00    +0.028 C 
ATOM     10  C   UNL     1     152.538 157.205 162.738  0.00  0.00    +0.060 C 
ATOM     11  N   UNL     1     152.562 157.530 164.175  0.00  0.00    -0.171 N 
ATOM     12  N   UNL     1     151.762 156.771 164.960  0.00  0.00    -0.151 N 
ATOM     13  C   UNL     1     151.510 157.161 166.184  0.00  0.00    +0.147 C 
ATOM     14  N   UNL     1     150.760 156.342 167.016  0.00  0.00    -0.326 N 
ATOM     15  C   UNL     1     150.489 154.950 166.675  0.00  0.00    +0.024 C 
ATOM     16  C   UNL     1     151.713 154.059 166.889  0.00  0.00    +0.038 C 
ATOM     17 CL   UNL     1     152.175 154.013 168.617  0.00  0.00    -0.124 Cl
ATOM     18  C   UNL     1     151.992 158.479 166.692  0.00  0.00    +0.039 A 
ATOM     19  C   UNL     1     151.929 158.885 168.029  0.00  0.00    -0.049 A 
ATOM     20  C   UNL     1     152.348 160.171 168.378  0.00  0.00    -0.061 A 
ATOM     21  C   UNL     1     152.808 161.049 167.395  0.00  0.00    -0.060 A 
ATOM     22  C   UNL     1     152.865 160.639 166.062  0.00  0.00    -0.039 A 
ATOM     23  C   UNL     1     152.489 159.338 165.710  0.00  0.00    +0.056 A 
ATOM     24  N   UNL     1     152.477 158.921 164.359  0.00  0.00    -0.248 N 
ATOM     25  H   UNL     1     151.374 155.934 164.614  0.00  0.00    +0.000 HD
ATOM     26  H   UNL     1     150.402 156.709 167.857  0.00  0.00    +0.000 HD
ATOM     27  H   UNL     1     152.414 159.554 163.608  0.00  0.00    +0.000 HD
ENDROOT
TORSDOF 0
ENDMDL
MODEL 8
REMARK VINA RESULT:    -7.821      4.640     10.760
REMARK INTER + INTRA:          -7.821
REMARK INTER:                  -7.821
REMARK INTRA:                   0.000
REMARK UNBOUND:                 0.000
REMARK  Name = /home/vital/Documents/PhD_2021/Malaria_codes/scripts/../data/pdbqt_ligands/ligand_173_temp.pdb
REMARK                            x       y       z     vdW  Elec       q    Type
REMARK                         _______ _______ _______ _____ _____    ______ ____
ROOT
ATOM      1  C   UNL     1     153.493 162.970 170.673  0.00  0.00    -0.080 C 
ATOM      2  C   UNL     1     152.394 162.613 169.994  0.00  0.00    +0.037 C 
ATOM      3 CL   UNL     1     150.872 162.544 170.824  0.00  0.00    -0.084 Cl
ATOM      4  C   UNL     1     152.399 162.296 168.571  0.00  0.00    -0.025 C 
ATOM      5  C   UNL     1     152.747 163.243 167.678  0.00  0.00    -0.093 C 
ATOM      6  C   UNL     1     151.997 160.867 168.238  0.00  0.00    +0.035 C 
ATOM      7  C   UNL     1     152.104 160.520 166.811  0.00  0.00    -0.097 C 
ATOM      8  C   UNL     1     152.173 160.226 165.648  0.00  0.00    -0.100 C 
ATOM      9  C   UNL     1     152.245 159.878 164.216  0.00  0.00    +0.028 C 
ATOM     10  C   UNL     1     150.853 159.926 163.573  0.00  0.00    +0.060 C 
ATOM     11  N   UNL     1     150.855 159.632 162.129  0.00  0.00    -0.171 N 
ATOM     12  N   UNL     1     151.262 158.387 161.786  0.00  0.00    -0.151 N 
ATOM     13  C   UNL     1     151.559 158.132 160.537  0.00  0.00    +0.147 C 
ATOM     14  N   UNL     1     151.894 156.836 160.170  0.00  0.00    -0.326 N 
ATOM     15  C   UNL     1     151.651 155.704 161.058  0.00  0.00    +0.024 C 
ATOM     16  C   UNL     1     150.173 155.318 161.101  0.00  0.00    +0.038 C 
ATOM     17 CL   UNL     1     149.612 154.755 159.498  0.00  0.00    -0.124 Cl
ATOM     18  C   UNL     1     151.567 159.212 159.506  0.00  0.00    +0.039 A 
ATOM     19  C   UNL     1     151.687 158.994 158.130  0.00  0.00    -0.049 A 
ATOM     20  C   UNL     1     151.752 160.088 157.264  0.00  0.00    -0.061 A 
ATOM     21  C   UNL     1     151.717 161.387 157.771  0.00  0.00    -0.060 A 
ATOM     22  C   UNL     1     151.602 161.598 159.146  0.00  0.00    -0.039 A 
ATOM     23  C   UNL     1     151.490 160.509 160.018  0.00  0.00    +0.056 A 
ATOM     24  N   UNL     1     151.437 160.696 161.418  0.00  0.00    -0.248 N 
ATOM     25  H   UNL     1     151.334 157.681 162.469  0.00  0.00    +0.000 HD
ATOM     26  H   UNL     1     152.305 156.678 159.290  0.00  0.00    +0.000 HD
ATOM     27  H   UNL     1     151.780 161.506 161.860  0.00  0.00    +0.000 HD
ENDROOT
TORSDOF 0
ENDMDL
MODEL 9
REMARK VINA RESULT:    -7.089      6.991     10.361
REMARK INTER + INTRA:          -7.089
REMARK INTER:                  -7.089
REMARK INTRA:                   0.000
REMARK UNBOUND:                 0.000
REMARK  Name = /home/vital/Documents/PhD_2021/Malaria_codes/scripts/../data/pdbqt_ligands/ligand_173_temp.pdb
REMARK                            x       y       z     vdW  Elec       q    Type
REMARK                         _______ _______ _______ _____ _____    ______ ____
ROOT
ATOM      1  C   UNL     1     151.061 156.011 163.222  0.00  0.00    -0.080 C 
ATOM      2  C   UNL     1     150.687 154.960 162.477  0.00  0.00    +0.037 C 
ATOM      3 CL   UNL     1     151.119 154.917 160.798  0.00  0.00    -0.084 Cl
ATOM      4  C   UNL     1     149.947 153.823 163.012  0.00  0.00    -0.025 C 
ATOM      5  C   UNL     1     150.503 153.056 163.970  0.00  0.00    -0.093 C 
ATOM      6  C   UNL     1     148.567 153.622 162.403  0.00  0.00    +0.035 C 
ATOM      7  C   UNL     1     147.782 152.539 163.018  0.00  0.00    -0.097 C 
ATOM      8  C   UNL     1     147.133 151.649 163.499  0.00  0.00    -0.100 C 
ATOM      9  C   UNL     1     146.351 150.544 164.086  0.00  0.00    +0.028 C 
ATOM     10  C   UNL     1     146.415 149.297 163.193  0.00  0.00    +0.060 C 
ATOM     11  N   UNL     1     145.691 148.137 163.740  0.00  0.00    -0.171 N 
ATOM     12  N   UNL     1     144.353 148.295 163.879  0.00  0.00    -0.151 N 
ATOM     13  C   UNL     1     143.679 147.438 164.604  0.00  0.00    +0.147 C 
ATOM     14  N   UNL     1     142.298 147.550 164.678  0.00  0.00    -0.326 N 
ATOM     15  C   UNL     1     141.550 148.401 163.758  0.00  0.00    +0.024 C 
ATOM     16  C   UNL     1     141.434 147.777 162.367  0.00  0.00    +0.038 C 
ATOM     17 CL   UNL     1     140.495 146.254 162.427  0.00  0.00    -0.124 Cl
ATOM     18  C   UNL     1     144.370 146.360 165.371  0.00  0.00    +0.039 A 
ATOM     19  C   UNL     1     143.719 145.300 166.011  0.00  0.00    -0.049 A 
ATOM     20  C   UNL     1     144.465 144.386 166.759  0.00  0.00    -0.061 A 
ATOM     21  C   UNL     1     145.846 144.542 166.881  0.00  0.00    -0.060 A 
ATOM     22  C   UNL     1     146.489 145.604 166.243  0.00  0.00    -0.039 A 
ATOM     23  C   UNL     1     145.757 146.499 165.455  0.00  0.00    +0.056 A 
ATOM     24  N   UNL     1     146.375 147.618 164.852  0.00  0.00    -0.248 N 
ATOM     25  H   UNL     1     143.892 149.046 163.440  0.00  0.00    +0.000 HD
ATOM     26  H   UNL     1     141.811 147.043 165.367  0.00  0.00    +0.000 HD
ATOM     27  H   UNL     1     147.218 148.003 165.185  0.00  0.00    +0.000 HD
ENDROOT
TORSDOF 0
ENDMDL
