REMARK  Name = /home/vital/Documents/PhD_2021/Malaria_codes/data/pdb_ligands_mmv/ligand_121.pdb
REMARK  4 active torsions:
REMARK  status: ('A' for Active; 'I' for Inactive)
REMARK    1  A    between atoms: C4_5  and  C7_8
REMARK    2  A    between atoms: N1_10  and  C8_11
REMARK    3  A    between atoms: C11_15  and  C12_16
REMARK    4  A    between atoms: N2_18  and  C13_19
REMARK                            x       y       z     vdW  Elec       q    Type
REMARK                         _______ _______ _______ _____ _____    ______ ____
ROOT
ATOM      1  C8  UNL     1       1.306  -1.656  -1.595  0.00  0.00    +0.053 A 
ATOM      2  C9  UNL     1       1.546  -2.662  -2.580  0.00  0.00    +0.031 A 
ATOM      3  C10 UNL     1       0.494  -2.810  -3.455  0.00  0.00    +0.048 A 
ATOM      4  S1  UNL     1      -0.785  -1.741  -3.099  0.00  0.00    -0.090 S 
ATOM      5  C11 UNL     1       0.060  -1.062  -1.769  0.00  0.00    +0.095 A 
ENDROOT
BRANCH   1   8
ATOM      6  C7  UNL     1       3.399  -1.790  -0.287  0.00  0.00    +0.248 C 
ATOM      7  O1  UNL     1       3.929  -2.731  -0.868  0.00  0.00    -0.270 OA
ATOM      8  N1  UNL     1       2.158  -1.256  -0.565  0.00  0.00    -0.280 N 
ATOM      9  H5  UNL     1       1.775  -0.536   0.046  0.00  0.00    +0.155 HD
BRANCH   6  14
ATOM     10  F1  UNL     1       6.219   0.453   4.028  0.00  0.00    -0.205 F 
ATOM     11  C1  UNL     1       5.542  -0.070   2.998  0.00  0.00    +0.123 A 
ATOM     12  C2  UNL     1       4.656   0.729   2.284  0.00  0.00    +0.039 A 
ATOM     13  C3  UNL     1       3.947   0.189   1.207  0.00  0.00    +0.016 A 
ATOM     14  C4  UNL     1       4.125  -1.159   0.857  0.00  0.00    +0.037 A 
ATOM     15  C5  UNL     1       5.035  -1.947   1.579  0.00  0.00    +0.016 A 
ATOM     16  C6  UNL     1       5.740  -1.402   2.654  0.00  0.00    +0.039 A 
ENDBRANCH   6  14
ENDBRANCH   1   8
BRANCH   5  17
ATOM     17  C12 UNL     1      -0.516   0.008  -0.959  0.00  0.00    +0.253 C 
ATOM     18  O2  UNL     1       0.091   0.506  -0.009  0.00  0.00    -0.270 OA
ATOM     19  N2  UNL     1      -1.783   0.427  -1.311  0.00  0.00    -0.308 N 
ATOM     20  H8  UNL     1      -2.265  -0.113  -2.019  0.00  0.00    +0.149 HD
BRANCH  19  21
ATOM     21  C13 UNL     1      -2.545   1.374  -0.512  0.00  0.00    +0.073 C 
ATOM     22  C14 UNL     1      -3.213   0.668   0.675  0.00  0.00    +0.022 C 
ATOM     23  C15 UNL     1      -4.078   1.627   1.488  0.00  0.00    +0.002 C 
ATOM     24  C16 UNL     1      -5.106   2.338   0.613  0.00  0.00    +0.000 C 
ATOM     25  C17 UNL     1      -4.447   3.043  -0.568  0.00  0.00    +0.002 C 
ATOM     26  C18 UNL     1      -3.585   2.084  -1.385  0.00  0.00    +0.022 C 
ENDBRANCH  19  21
ENDBRANCH   5  17
TORSDOF 4
