REMARK  Name = /home/vital/Documents/PhD_2021/Malaria_codes/data/pdb_ligands_mmv/ligand_176.pdb
REMARK  5 active torsions:
REMARK  status: ('A' for Active; 'I' for Inactive)
REMARK    1  A    between atoms: C5_7  and  C23_28
REMARK    2  A    between atoms: C7_9  and  C8_10
REMARK    3  A    between atoms: N2_12  and  C9_13
REMARK    4  A    between atoms: N3_16  and  C12_17
REMARK    5  A    between atoms: C12_17  and  C13_18
REMARK                            x       y       z     vdW  Elec       q    Type
REMARK                         _______ _______ _______ _____ _____    ______ ____
ROOT
ATOM      1 CL1  UNL     1      -2.592   4.929   2.957  0.00  0.00    -0.084 Cl
ATOM      2  C1  UNL     1      -3.292   3.640   2.064  0.00  0.00    +0.042 A 
ATOM      3  C2  UNL     1      -4.563   3.777   1.528  0.00  0.00    +0.022 A 
ATOM      4  C3  UNL     1      -5.124   2.715   0.814  0.00  0.00    +0.030 A 
ATOM      5  C4  UNL     1      -4.443   1.521   0.615  0.00  0.00    +0.072 A 
ATOM      6  N1  UNL     1      -5.066   0.545  -0.064  0.00  0.00    -0.247 NA
ATOM      7  C5  UNL     1      -4.457  -0.653  -0.251  0.00  0.00    +0.072 A 
ATOM      8  C6  UNL     1      -3.171  -0.879   0.205  0.00  0.00    +0.042 A 
ATOM      9  C7  UNL     1      -2.508   0.149   0.879  0.00  0.00    +0.048 A 
ATOM     10  C21 UNL     1      -3.143   1.384   1.135  0.00  0.00    +0.014 A 
ATOM     11  C22 UNL     1      -2.584   2.456   1.878  0.00  0.00    +0.030 A 
ENDROOT
BRANCH   7  12
ATOM     12  C23 UNL     1      -5.249  -1.667  -0.978  0.00  0.00    +0.003 A 
ATOM     13  C24 UNL     1      -5.065  -3.044  -0.789  0.00  0.00    +0.030 A 
ATOM     14  C25 UNL     1      -5.842  -3.941  -1.509  0.00  0.00    +0.111 A 
ATOM     15  N4  UNL     1      -6.785  -3.574  -2.398  0.00  0.00    -0.263 NA
ATOM     16  C26 UNL     1      -6.967  -2.249  -2.566  0.00  0.00    +0.111 A 
ATOM     17  C27 UNL     1      -6.240  -1.280  -1.893  0.00  0.00    +0.030 A 
ENDBRANCH   7  12
BRANCH   9  18
ATOM     18  C8  UNL     1      -1.119  -0.147   1.295  0.00  0.00    +0.245 C 
ATOM     19  O1  UNL     1      -0.881  -1.174   1.917  0.00  0.00    -0.270 OA
ATOM     20  N2  UNL     1      -0.166   0.752   0.868  0.00  0.00    -0.308 N 
ATOM     21  H4  UNL     1      -0.434   1.444   0.178  0.00  0.00    +0.149 HD
BRANCH  20  22
ATOM     22  C9  UNL     1       1.260   0.507   1.066  0.00  0.00    +0.076 C 
ATOM     23  C10 UNL     1       2.023   1.839   1.096  0.00  0.00    +0.037 C 
ATOM     24  C11 UNL     1       3.456   1.656   0.606  0.00  0.00    +0.086 C 
ATOM     25  N3  UNL     1       3.474   1.232  -0.794  0.00  0.00    -0.298 NA
ATOM     26  C19 UNL     1       2.422   0.288  -1.173  0.00  0.00    +0.086 C 
ATOM     27  C20 UNL     1       1.818  -0.462   0.012  0.00  0.00    +0.037 C 
BRANCH  25  28
ATOM     28  C12 UNL     1       4.810   0.926  -1.317  0.00  0.00    +0.119 C 
BRANCH  28  29
ATOM     29  C13 UNL     1       5.514  -0.275  -0.717  0.00  0.00    -0.033 A 
ATOM     30  C14 UNL     1       5.339  -1.557  -1.257  0.00  0.00    +0.005 A 
ATOM     31  C15 UNL     1       5.988  -2.661  -0.699  0.00  0.00    +0.000 A 
ATOM     32  C16 UNL     1       6.824  -2.495   0.403  0.00  0.00    +0.000 A 
ATOM     33  C17 UNL     1       7.015  -1.227   0.945  0.00  0.00    +0.000 A 
ATOM     34  C18 UNL     1       6.367  -0.124   0.387  0.00  0.00    +0.005 A 
ENDBRANCH  28  29
ENDBRANCH  25  28
ENDBRANCH  20  22
ENDBRANCH   9  18
TORSDOF 5
