REMARK  Name = /home/vital/Documents/PhD_2021/Malaria_codes/data/pdb_ligands_mmv/ligand_314.pdb
REMARK  2 active torsions:
REMARK  status: ('A' for Active; 'I' for Inactive)
REMARK    1  A    between atoms: C4_5  and  N1_6
REMARK    2  A    between atoms: N4_17  and  C13_18
REMARK                            x       y       z     vdW  Elec       q    Type
REMARK                         _______ _______ _______ _____ _____    ______ ____
ROOT
ATOM      1  N1  UNL     1      -1.233  -1.213   0.143  0.00  0.00    -0.297 N 
ATOM      2  C5  UNL     1      -0.709   0.113   0.180  0.00  0.00    +0.164 A 
ATOM      3  N2  UNL     1      -1.498   1.168   0.481  0.00  0.00    -0.227 NA
ATOM      4  C6  UNL     1      -0.919   2.380   0.516  0.00  0.00    +0.091 A 
ATOM      5  C7  UNL     1      -1.688   3.494   0.830  0.00  0.00    +0.030 A 
ATOM      6  C8  UNL     1      -1.130   4.772   0.882  0.00  0.00    +0.002 A 
ATOM      7  C9  UNL     1       0.222   4.940   0.614  0.00  0.00    +0.002 A 
ATOM      8  C10 UNL     1       1.003   3.828   0.297  0.00  0.00    +0.030 A 
ATOM      9  C11 UNL     1       0.458   2.551   0.243  0.00  0.00    +0.091 A 
ATOM     10  N3  UNL     1       1.248   1.509  -0.069  0.00  0.00    -0.227 NA
ATOM     11  C12 UNL     1       0.671   0.288  -0.118  0.00  0.00    +0.164 A 
ATOM     12  N4  UNL     1       1.428  -0.871  -0.464  0.00  0.00    -0.297 N 
ATOM     13  H3  UNL     1      -0.598  -1.807   0.672  0.00  0.00    +0.154 HD
ATOM     14  H8  UNL     1       0.896  -1.385  -1.163  0.00  0.00    +0.154 HD
ENDROOT
BRANCH   1  19
ATOM     15 BR1  UNL     1      -6.976  -3.287   0.421  0.00  0.00    -0.050 Br
ATOM     16  C1  UNL     1      -5.207  -2.628   0.344  0.00  0.00    +0.018 A 
ATOM     17  C2  UNL     1      -4.147  -3.440   0.737  0.00  0.00    +0.017 A 
ATOM     18  C3  UNL     1      -2.839  -2.948   0.676  0.00  0.00    +0.024 A 
ATOM     19  C4  UNL     1      -2.574  -1.637   0.249  0.00  0.00    +0.033 A 
ATOM     20  C19 UNL     1      -3.655  -0.854  -0.175  0.00  0.00    +0.024 A 
ATOM     21  C20 UNL     1      -4.967  -1.338  -0.117  0.00  0.00    +0.017 A 
ENDBRANCH   1  19
BRANCH  12  22
ATOM     22  C13 UNL     1       2.820  -0.993  -0.654  0.00  0.00    +0.033 A 
ATOM     23  C14 UNL     1       3.753  -0.190   0.014  0.00  0.00    +0.024 A 
ATOM     24  C15 UNL     1       5.128  -0.389  -0.149  0.00  0.00    +0.017 A 
ATOM     25  C16 UNL     1       5.585  -1.417  -0.967  0.00  0.00    +0.018 A 
ATOM     26 BR2  UNL     1       7.442  -1.691  -1.187  0.00  0.00    -0.050 Br
ATOM     27  C17 UNL     1       4.680  -2.252  -1.613  0.00  0.00    +0.017 A 
ATOM     28  C18 UNL     1       3.306  -2.046  -1.445  0.00  0.00    +0.024 A 
ENDBRANCH  12  22
TORSDOF 2
