REMARK  Name = /home/vital/Documents/PhD_2021/Malaria_codes/data/pdb_ligands_mmv/ligand_394.pdb
REMARK  6 active torsions:
REMARK  status: ('A' for Active; 'I' for Inactive)
REMARK    1  A    between atoms: C1_1  and  C2_2
REMARK    2  A    between atoms: C2_2  and  C3_3
REMARK    3  A    between atoms: C3_3  and  N1_4
REMARK    4  A    between atoms: C5_7  and  C16_21
REMARK    5  A    between atoms: C13_17  and  C14_18
REMARK    6  A    between atoms: N5_23  and  C17_24
REMARK                            x       y       z     vdW  Elec       q    Type
REMARK                         _______ _______ _______ _____ _____    ______ ____
ROOT
ATOM      1  N1  UNL     1      -1.299  -0.654   0.210  0.00  0.00    -0.310 N 
ATOM      2  C4  UNL     1       0.064  -0.647  -0.117  0.00  0.00    +0.140 A 
ATOM      3  N2  UNL     1       0.785  -1.726   0.023  0.00  0.00    -0.283 NA
ATOM      4  C5  UNL     1       0.686   0.615  -0.646  0.00  0.00    +0.079 A 
ATOM      5  C6  UNL     1      -0.154   1.627  -0.917  0.00  0.00    +0.033 A 
ATOM      6  C7  UNL     1      -1.588   1.537  -0.679  0.00  0.00    +0.083 A 
ATOM      7  C8  UNL     1      -2.142   0.438  -0.118  0.00  0.00    +0.150 A 
ATOM      8  N3  UNL     1      -3.493   0.363   0.122  0.00  0.00    -0.211 NA
ATOM      9  C9  UNL     1      -4.268   1.351  -0.197  0.00  0.00    +0.145 A 
ATOM     10  N4  UNL     1      -3.816   2.526  -0.773  0.00  0.00    -0.267 N 
ATOM     11  C10 UNL     1      -4.693   3.556  -1.091  0.00  0.00    +0.096 A 
ATOM     12  C11 UNL     1      -6.006   3.461  -0.859  0.00  0.00    +0.019 A 
ATOM     13  C12 UNL     1      -6.543   2.268  -0.266  0.00  0.00    +0.008 A 
ATOM     14  C13 UNL     1      -5.746   1.239   0.065  0.00  0.00    -0.007 A 
ATOM     15  C14 UNL     1      -6.249  -0.028   0.682  0.00  0.00    +0.047 C 
ATOM     16  C15 UNL     1      -2.465   2.688  -1.031  0.00  0.00    +0.268 A 
ATOM     17  O1  UNL     1      -1.972   3.708  -1.516  0.00  0.00    -0.267 OA
ATOM     18  H8  UNL     1       1.736  -1.593  -0.338  0.00  0.00    +0.188 HD
ENDROOT
BRANCH   4  19
ATOM     19  C16 UNL     1       2.140   0.841  -0.838  0.00  0.00    +0.248 C 
ATOM     20  O2  UNL     1       2.576   1.501  -1.774  0.00  0.00    -0.270 OA
ATOM     21  N5  UNL     1       2.928   0.269   0.135  0.00  0.00    -0.308 N 
ATOM     22  H16 UNL     1       2.489  -0.221   0.908  0.00  0.00    +0.149 HD
BRANCH  21  23
ATOM     23  C17 UNL     1       4.383   0.321   0.080  0.00  0.00    +0.073 C 
ATOM     24  C18 UNL     1       4.983   0.216   1.491  0.00  0.00    +0.022 C 
ATOM     25  C19 UNL     1       6.413  -0.331   1.511  0.00  0.00    +0.002 C 
ATOM     26  C20 UNL     1       7.154  -0.044   0.213  0.00  0.00    +0.000 C 
ATOM     27  C21 UNL     1       6.454  -0.675  -0.991  0.00  0.00    +0.002 C 
ATOM     28  C22 UNL     1       4.935  -0.774  -0.835  0.00  0.00    +0.022 C 
ENDBRANCH  21  23
ENDBRANCH   4  19
BRANCH   1  29
ATOM     29  C3  UNL     1      -1.890  -1.884   0.767  0.00  0.00    +0.125 C 
BRANCH  29  31
ATOM     30  C1  UNL     1      -2.991  -4.081   0.210  0.00  0.00    +0.005 C 
ATOM     31  C2  UNL     1      -2.373  -2.810  -0.351  0.00  0.00    +0.018 C 
ENDBRANCH  29  31
ENDBRANCH   1  29
TORSDOF 4
