REMARK  Name = /home/vital/Documents/PhD_2021/Malaria_codes/data/pdb_ligands_mmv/ligand_220.pdb
REMARK  6 active torsions:
REMARK  status: ('A' for Active; 'I' for Inactive)
REMARK    1  A    between atoms: C1_1  and  N1_2
REMARK    2  A    between atoms: N1_2  and  C2_3
REMARK    3  A    between atoms: N1_2  and  C3_4
REMARK    4  A    between atoms: C6_7  and  N2_10
REMARK    5  A    between atoms: C11_15  and  C12_16
REMARK    6  A    between atoms: C11_15  and  C13_17
REMARK                            x       y       z     vdW  Elec       q    Type
REMARK                         _______ _______ _______ _____ _____    ______ ____
ROOT
ATOM      1  N2  UNL     1      -1.483   0.367   0.653  0.00  0.00    -0.248 N 
ATOM      2  C9  UNL     1      -2.153  -0.159   1.728  0.00  0.00    +0.189 C 
ATOM      3  N3  UNL     1      -3.435  -0.136   1.894  0.00  0.00    -0.185 NA
ATOM      4  C10 UNL     1      -4.181   0.496   0.957  0.00  0.00    +0.213 C 
ATOM      5  N4  UNL     1      -3.755   0.904  -0.183  0.00  0.00    -0.226 NA
ATOM      6  C11 UNL     1      -2.343   0.672  -0.507  0.00  0.00    +0.131 C 
ATOM      7  C12 UNL     1      -1.895   1.966  -1.214  0.00  0.00    +0.058 C 
ATOM      8  C13 UNL     1      -2.343  -0.486  -1.527  0.00  0.00    +0.058 C 
ATOM      9  N5  UNL     1      -5.490   0.677   1.258  0.00  0.00    -0.328 N 
ATOM     10  N6  UNL     1      -1.407  -0.720   2.720  0.00  0.00    -0.331 N 
ATOM     11  H17 UNL     1      -5.825  -0.016   1.913  0.00  0.00    +0.145 HD
ATOM     12  H18 UNL     1      -6.057   0.781   0.428  0.00  0.00    +0.145 HD
ATOM     13  H19 UNL     1      -0.529  -0.242   2.889  0.00  0.00    +0.145 HD
ATOM     14  H20 UNL     1      -1.950  -0.837   3.567  0.00  0.00    +0.145 HD
ENDROOT
BRANCH   1  18
ATOM     15  C3  UNL     1       2.678  -0.374  -0.080  0.00  0.00    +0.029 A 
ATOM     16  C4  UNL     1       1.744  -1.418   0.020  0.00  0.00    +0.025 A 
ATOM     17  C5  UNL     1       0.379  -1.185   0.253  0.00  0.00    +0.025 A 
ATOM     18  C6  UNL     1      -0.118   0.112   0.397  0.00  0.00    +0.039 A 
ATOM     19  C7  UNL     1       0.799   1.161   0.336  0.00  0.00    +0.025 A 
ATOM     20  C8  UNL     1       2.163   0.921   0.103  0.00  0.00    +0.025 A 
BRANCH  15  22
ATOM     21  C1  UNL     1       4.887   0.503  -0.733  0.00  0.00    +0.129 C 
ATOM     22  N1  UNL     1       4.041  -0.608  -0.297  0.00  0.00    -0.336 N 
ATOM     23  C2  UNL     1       4.471  -1.935  -0.735  0.00  0.00    +0.129 C 
ENDBRANCH  15  22
ENDBRANCH   1  18
TORSDOF 2
