REMARK  Name = /home/vital/Documents/PhD_2021/Malaria_codes/data/pdb_ligands_mmv/ligand_127.pdb
REMARK  6 active torsions:
REMARK  status: ('A' for Active; 'I' for Inactive)
REMARK    1  A    between atoms: C1_1  and  C2_2
REMARK    2  A    between atoms: C2_2  and  N1_3
REMARK    3  A    between atoms: C2_2  and  C10_11
REMARK    4  A    between atoms: N1_3  and  C3_4
REMARK    5  A    between atoms: C3_4  and  C4_5
REMARK    6  A    between atoms: C15_17  and  O1_18
REMARK                            x       y       z     vdW  Elec       q    Type
REMARK                         _______ _______ _______ _____ _____    ______ ____
ROOT
ATOM      1  C1  UNL     1      -0.986   2.342  -1.595  0.00  0.00    +0.029 C 
ATOM      2  C2  UNL     1      -0.912   1.659  -0.224  0.00  0.00    +0.085 C 
ENDROOT
BRANCH   2   3
ATOM      3  C10 UNL     1      -2.009   0.653   0.110  0.00  0.00    +0.012 A 
ATOM      4  C11 UNL     1      -2.423   0.565   1.457  0.00  0.00    +0.028 A 
ATOM      5  C12 UNL     1      -3.416  -0.333   1.850  0.00  0.00    +0.042 A 
ATOM      6 CL1  UNL     1      -3.897  -0.409   3.500  0.00  0.00    -0.084 Cl
ATOM      7  C13 UNL     1      -4.018  -1.168   0.916  0.00  0.00    +0.023 A 
ATOM      8  C14 UNL     1      -3.619  -1.107  -0.418  0.00  0.00    +0.047 A 
ATOM      9  C15 UNL     1      -2.621  -0.208  -0.812  0.00  0.00    +0.122 A 
BRANCH   9  10
ATOM     10  O1  UNL     1      -2.232  -0.197  -2.120  0.00  0.00    -0.506 OA
ATOM     11  H16 UNL     1      -2.767  -0.831  -2.624  0.00  0.00    +0.292 HD
ENDBRANCH   9  10
ENDBRANCH   2   3
BRANCH   2  12
ATOM     12  N1  UNL     1       0.435   1.161   0.098  0.00  0.00    -0.305 NA
ATOM     13  H5  UNL     1       0.438   0.801   1.051  0.00  0.00    +0.123 HD
BRANCH  12  14
ATOM     14  C3  UNL     1       0.922   0.108  -0.791  0.00  0.00    +0.117 C 
BRANCH  14  15
ATOM     15  C4  UNL     1       2.260  -0.408  -0.307  0.00  0.00    -0.034 A 
ATOM     16  C5  UNL     1       2.355  -1.639   0.358  0.00  0.00    +0.005 A 
ATOM     17  C6  UNL     1       3.590  -2.104   0.812  0.00  0.00    +0.000 A 
ATOM     18  C7  UNL     1       4.740  -1.342   0.614  0.00  0.00    +0.000 A 
ATOM     19  C8  UNL     1       4.656  -0.112  -0.036  0.00  0.00    +0.000 A 
ATOM     20  C9  UNL     1       3.423   0.355  -0.491  0.00  0.00    +0.005 A 
ENDBRANCH  14  15
ENDBRANCH  12  14
ENDBRANCH   2  12
TORSDOF 5
