REMARK  Name = /home/vital/Documents/PhD_2021/Malaria_codes/data/pdb_ligands_mmv/ligand_22.pdb
REMARK  5 active torsions:
REMARK  status: ('A' for Active; 'I' for Inactive)
REMARK    1  A    between atoms: C1_1  and  C2_2
REMARK    2  A    between atoms: N1_5  and  C5_6
REMARK    3  A    between atoms: C5_6  and  C6_7
REMARK    4  A    between atoms: C9_10  and  N2_11
REMARK    5  A    between atoms: C10_12  and  C11_14
REMARK                            x       y       z     vdW  Elec       q    Type
REMARK                         _______ _______ _______ _____ _____    ______ ____
ROOT
ATOM      1  N2  UNL     1       1.481  -1.062   0.698  0.00  0.00    -0.280 N 
ATOM      2  C10 UNL     1       2.388  -1.143   1.741  0.00  0.00    +0.265 C 
ATOM      3  O1  UNL     1       2.116  -1.475   2.888  0.00  0.00    -0.268 OA
ATOM      4  H13 UNL     1       1.863  -0.969  -0.231  0.00  0.00    +0.155 HD
ENDROOT
BRANCH   2   5
ATOM      5  C11 UNL     1       3.753  -0.830   1.351  0.00  0.00    +0.103 A 
ATOM      6  C12 UNL     1       4.924  -1.214   1.991  0.00  0.00    +0.041 A 
ATOM      7  C13 UNL     1       6.032  -0.687   1.274  0.00  0.00    +0.003 A 
ATOM      8  C14 UNL     1       7.431  -0.753   1.428  0.00  0.00    +0.011 A 
ATOM      9  C15 UNL     1       8.259  -0.089   0.509  0.00  0.00    +0.011 A 
ATOM     10  C16 UNL     1       7.709   0.641  -0.557  0.00  0.00    +0.002 A 
ATOM     11  C17 UNL     1       8.476   1.328  -1.507  0.00  0.00    +0.011 A 
ATOM     12  C18 UNL     1       7.839   2.029  -2.532  0.00  0.00    +0.020 A 
ATOM     13  C19 UNL     1       6.451   2.025  -2.584  0.00  0.00    +0.111 A 
ATOM     14  N3  UNL     1       5.662   1.380  -1.698  0.00  0.00    -0.253 NA
ATOM     15  C20 UNL     1       6.314   0.712  -0.715  0.00  0.00    +0.095 A 
ATOM     16  C21 UNL     1       5.509   0.041   0.210  0.00  0.00    +0.073 A 
ATOM     17  N4  UNL     1       4.140  -0.040   0.292  0.00  0.00    -0.349 N 
ATOM     18  H20 UNL     1       3.531   0.462  -0.340  0.00  0.00    +0.166 HD
ENDBRANCH   2   5
BRANCH   1  22
ATOM     19  C6  UNL     1      -2.729  -1.528   0.703  0.00  0.00    -0.033 A 
ATOM     20  C7  UNL     1      -2.032  -1.528   1.917  0.00  0.00    +0.007 A 
ATOM     21  C8  UNL     1      -0.640  -1.378   1.944  0.00  0.00    +0.023 A 
ATOM     22  C9  UNL     1       0.081  -1.231   0.758  0.00  0.00    +0.034 A 
ATOM     23  C22 UNL     1      -0.614  -1.229  -0.457  0.00  0.00    +0.023 A 
ATOM     24  C23 UNL     1      -2.004  -1.380  -0.485  0.00  0.00    +0.007 A 
BRANCH  19  25
ATOM     25  C5  UNL     1      -4.233  -1.702   0.673  0.00  0.00    +0.119 C 
BRANCH  25  30
ATOM     26  C1  UNL     1      -5.575   2.099  -1.953  0.00  0.00    +0.007 C 
ATOM     27  C2  UNL     1      -6.535   1.571  -0.884  0.00  0.00    -0.012 C 
ATOM     28  C3  UNL     1      -6.962   0.121  -1.180  0.00  0.00    +0.018 C 
ATOM     29  C4  UNL     1      -6.339  -0.911  -0.230  0.00  0.00    +0.085 C 
ATOM     30  N1  UNL     1      -4.932  -0.593   0.006  0.00  0.00    -0.298 NA
ATOM     31  C24 UNL     1      -4.773   0.677   0.736  0.00  0.00    +0.085 C 
ATOM     32  C25 UNL     1      -5.924   1.671   0.516  0.00  0.00    +0.018 C 
ENDBRANCH  25  30
ENDBRANCH  19  25
ENDBRANCH   1  22
TORSDOF 4
