REMARK  Name = /home/vital/Documents/PhD_2021/Malaria_codes/data/pdb_ligands_mmv/ligand_59.pdb
REMARK  5 active torsions:
REMARK  status: ('A' for Active; 'I' for Inactive)
REMARK    1  A    between atoms: C1_1  and  C2_2
REMARK    2  A    between atoms: C2_2  and  C3_3
REMARK    3  A    between atoms: C3_3  and  C4_4
REMARK    4  A    between atoms: C6_6  and  O1_7
REMARK    5  A    between atoms: N1_12  and  C11_13
REMARK                            x       y       z     vdW  Elec       q    Type
REMARK                         _______ _______ _______ _____ _____    ______ ____
ROOT
ATOM      1  C4  UNL     1       2.443  -0.283   0.837  0.00  0.00    -0.040 A 
ATOM      2  C5  UNL     1       1.592  -1.393   0.871  0.00  0.00    +0.050 A 
ATOM      3  C6  UNL     1       0.241  -1.273   0.507  0.00  0.00    +0.128 A 
ATOM      4  C7  UNL     1      -0.302  -0.046   0.086  0.00  0.00    +0.062 A 
ATOM      5  C8  UNL     1      -1.699   0.196  -0.330  0.00  0.00    -0.021 A 
ATOM      6  C9  UNL     1      -2.098   1.447  -0.637  0.00  0.00    +0.055 A 
ATOM      7  C10 UNL     1      -3.518   1.794  -1.016  0.00  0.00    +0.126 C 
ATOM      8  N1  UNL     1      -4.528   0.760  -0.719  0.00  0.00    -0.301 NA
ATOM      9  C11 UNL     1      -4.952   0.803   0.680  0.00  0.00    +0.105 C 
ATOM     10  C12 UNL     1      -4.015  -0.561  -1.102  0.00  0.00    +0.089 C 
ATOM     11  C13 UNL     1      -2.687  -0.945  -0.424  0.00  0.00    +0.052 C 
ATOM     12  C14 UNL     1      -1.169   2.597  -0.636  0.00  0.00    +0.342 A 
ATOM     13  O2  UNL     1      -1.534   3.729  -0.931  0.00  0.00    -0.245 OA
ATOM     14  O3  UNL     1       0.147   2.332  -0.301  0.00  0.00    -0.422 OA
ATOM     15  C15 UNL     1       0.573   1.043   0.071  0.00  0.00    +0.143 A 
ATOM     16  C16 UNL     1       1.921   0.944   0.430  0.00  0.00    +0.051 A 
ENDROOT
BRANCH   3  17
ATOM     17  O1  UNL     1      -0.542  -2.394   0.587  0.00  0.00    -0.506 OA
ATOM     18  H9  UNL     1      -0.008  -3.139   0.908  0.00  0.00    +0.292 HD
ENDBRANCH   3  17
BRANCH   1  19
ATOM     19  C3  UNL     1       3.898  -0.414   1.209  0.00  0.00    +0.035 C 
BRANCH  19  21
ATOM     20  C1  UNL     1       6.226  -0.903   0.380  0.00  0.00    +0.004 C 
ATOM     21  C2  UNL     1       4.760  -0.774  -0.001  0.00  0.00    +0.001 C 
ENDBRANCH  19  21
ENDBRANCH   1  19
TORSDOF 3
