REMARK  Name = /home/vital/Documents/PhD_2021/Malaria_codes/data/pdb_ligands_mmv/ligand_70.pdb
REMARK  5 active torsions:
REMARK  status: ('A' for Active; 'I' for Inactive)
REMARK    1  A    between atoms: C1_1  and  O1_2
REMARK    2  A    between atoms: C1_1  and  C11_15
REMARK    3  A    between atoms: C7_9  and  O3_10
REMARK    4  A    between atoms: O3_10  and  C8_11
REMARK    5  A    between atoms: C11_15  and  C12_18
REMARK                            x       y       z     vdW  Elec       q    Type
REMARK                         _______ _______ _______ _____ _____    ______ ____
ROOT
ATOM      1  C1  UNL     1      -2.052  -0.286   0.168  0.00  0.00    +0.290 C 
ATOM      2  C2  UNL     1      -1.985  -0.663  -1.312  0.00  0.00    +0.165 C 
ATOM      3  C3  UNL     1      -0.643  -1.267  -1.627  0.00  0.00    +0.173 C 
ATOM      4  O2  UNL     1      -0.478  -2.041  -2.565  0.00  0.00    -0.292 OA
ATOM      5  C4  UNL     1       0.499  -0.802  -0.821  0.00  0.00    +0.060 A 
ATOM      6  C5  UNL     1       1.796  -1.237  -1.100  0.00  0.00    +0.018 A 
ATOM      7  C6  UNL     1       2.873  -0.732  -0.365  0.00  0.00    +0.046 A 
ATOM      8  C7  UNL     1       2.653   0.214   0.640  0.00  0.00    +0.124 A 
ATOM      9  C9  UNL     1       1.349   0.641   0.910  0.00  0.00    +0.092 A 
ATOM     10  C10 UNL     1       0.271   0.123   0.193  0.00  0.00    +0.138 A 
ATOM     11  O4  UNL     1      -0.972   0.590   0.526  0.00  0.00    -0.453 OA
ENDROOT
BRANCH   1  12
ATOM     12  C11 UNL     1      -3.398   0.401   0.514  0.00  0.00    +0.405 C 
ATOM     13  F1  UNL     1      -4.427  -0.392   0.087  0.00  0.00    -0.188 F 
ATOM     14  F2  UNL     1      -3.511   0.421   1.883  0.00  0.00    -0.188 F 
BRANCH  12  15
ATOM     15  C12 UNL     1      -3.552   1.813  -0.039  0.00  0.00    +0.461 C 
ATOM     16  F3  UNL     1      -4.749   2.349   0.313  0.00  0.00    -0.165 F 
ATOM     17  F4  UNL     1      -2.600   2.661   0.412  0.00  0.00    -0.165 F 
ATOM     18  F5  UNL     1      -3.500   1.841  -1.391  0.00  0.00    -0.165 F 
ENDBRANCH  12  15
ENDBRANCH   1  12
BRANCH   1  19
ATOM     19  O1  UNL     1      -1.949  -1.507   0.935  0.00  0.00    -0.350 OA
ATOM     20  H1  UNL     1      -2.344  -1.327   1.809  0.00  0.00    +0.214 HD
ENDBRANCH   1  19
BRANCH   8  21
ATOM     21  O3  UNL     1       3.615   0.792   1.421  0.00  0.00    -0.495 OA
ATOM     22  C8  UNL     1       4.960   0.388   1.196  0.00  0.00    +0.277 C 
ENDBRANCH   8  21
TORSDOF 4
