REMARK  Name = /home/vital/Documents/PhD_2021/Malaria_codes/data/pdb_ligands_mmv/ligand_368.pdb
REMARK  9 active torsions:
REMARK  status: ('A' for Active; 'I' for Inactive)
REMARK    1  A    between atoms: C2_4  and  C3_5
REMARK    2  A    between atoms: C4_6  and  O1_7
REMARK    3  A    between atoms: C6_9  and  C7_10
REMARK    4  A    between atoms: C12_17  and  C13_18
REMARK    5  A    between atoms: N3_25  and  C19_26
REMARK    6  A    between atoms: C19_26  and  C20_27
REMARK    7  A    between atoms: C20_27  and  C21_28
REMARK    8  A    between atoms: C26_33  and  O3_34
REMARK    9  A    between atoms: O3_34  and  C27_35
REMARK                            x       y       z     vdW  Elec       q    Type
REMARK                         _______ _______ _______ _____ _____    ______ ____
ROOT
ATOM      1  C1  UNL     1      -0.813   0.860   2.731  0.00  0.00    +0.126 A 
ATOM      2  N1  UNL     1      -1.670   1.463   3.565  0.00  0.00    -0.272 N 
ATOM      3  N2  UNL     1      -2.957   1.308   3.152  0.00  0.00    -0.173 NA
ATOM      4  C2  UNL     1      -2.881   0.559   2.019  0.00  0.00    +0.102 A 
ATOM      5  C10 UNL     1       0.583   0.675   2.585  0.00  0.00    +0.265 C 
ATOM      6  O2  UNL     1       1.472   1.051   3.327  0.00  0.00    -0.268 OA
ATOM      7  C11 UNL     1      -1.534   0.288   1.723  0.00  0.00    +0.035 A 
ATOM      8  C12 UNL     1      -0.616  -0.363   0.759  0.00  0.00    +0.144 C 
ATOM      9  N3  UNL     1       0.690  -0.062   1.400  0.00  0.00    -0.285 N 
ATOM     10  H1  UNL     1      -1.476   1.996   4.408  0.00  0.00    +0.189 HD
ENDROOT
BRANCH   4  11
ATOM     11  C3  UNL     1      -4.097   0.190   1.287  0.00  0.00    +0.045 A 
ATOM     12  C4  UNL     1      -5.281   0.937   1.404  0.00  0.00    +0.126 A 
ATOM     13  C5  UNL     1      -6.423   0.611   0.671  0.00  0.00    +0.050 A 
ATOM     14  C6  UNL     1      -6.422  -0.489  -0.197  0.00  0.00    -0.029 A 
ATOM     15  C7  UNL     1      -7.664  -0.817  -0.976  0.00  0.00    +0.045 C 
ATOM     16  C8  UNL     1      -5.253  -1.254  -0.299  0.00  0.00    +0.045 A 
ATOM     17 CL1  UNL     1      -5.163  -2.634  -1.336  0.00  0.00    -0.083 Cl
ATOM     18  C9  UNL     1      -4.109  -0.924   0.439  0.00  0.00    +0.034 A 
BRANCH  12  19
ATOM     19  O1  UNL     1      -5.390   2.019   2.238  0.00  0.00    -0.506 OA
ATOM     20  H2  UNL     1      -4.567   2.034   2.780  0.00  0.00    +0.292 HD
ENDBRANCH  12  19
ENDBRANCH   4  11
BRANCH   8  21
ATOM     21  C13 UNL     1      -0.818   0.252  -0.599  0.00  0.00    +0.013 A 
ATOM     22  C14 UNL     1      -1.161  -0.577  -1.683  0.00  0.00    +0.008 A 
ATOM     23  C15 UNL     1      -1.364  -0.046  -2.960  0.00  0.00    +0.001 A 
ATOM     24  C16 UNL     1      -1.221   1.321  -3.180  0.00  0.00    +0.003 A 
ATOM     25  C17 UNL     1      -0.871   2.157  -2.124  0.00  0.00    +0.039 A 
ATOM     26  C18 UNL     1      -0.671   1.623  -0.853  0.00  0.00    +0.129 A 
ATOM     27  F1  UNL     1      -0.315   2.462   0.130  0.00  0.00    -0.205 F 
ENDBRANCH   8  21
BRANCH   9  28
ATOM     28  C19 UNL     1       1.954  -0.541   0.872  0.00  0.00    +0.114 C 
BRANCH  28  29
ATOM     29  C20 UNL     1       2.747   0.556   0.158  0.00  0.00    +0.054 C 
BRANCH  29  30
ATOM     30  C21 UNL     1       4.046   0.024  -0.393  0.00  0.00    -0.046 A 
ATOM     31  C22 UNL     1       4.117  -0.467  -1.701  0.00  0.00    +0.007 A 
ATOM     32  C23 UNL     1       5.318  -0.979  -2.196  0.00  0.00    +0.046 A 
ATOM     33  C24 UNL     1       5.194  -0.013   0.408  0.00  0.00    +0.007 A 
ATOM     34  C25 UNL     1       6.396  -0.527  -0.091  0.00  0.00    +0.046 A 
ATOM     35  C26 UNL     1       6.463  -1.013  -1.397  0.00  0.00    +0.120 A 
BRANCH  35  36
ATOM     36  O3  UNL     1       7.569  -1.540  -2.005  0.00  0.00    -0.495 OA
ATOM     37  C27 UNL     1       8.768  -1.572  -1.240  0.00  0.00    +0.277 C 
ENDBRANCH  35  36
ENDBRANCH  29  30
ENDBRANCH  28  29
ENDBRANCH   9  28
TORSDOF 7
