REMARK  Name = /home/vital/Documents/PhD_2021/Malaria_codes/data/pdb_ligands_mmv/ligand_183.pdb
REMARK  4 active torsions:
REMARK  status: ('A' for Active; 'I' for Inactive)
REMARK    1  A    between atoms: C8_10  and  C9_11
REMARK    2  A    between atoms: C10_13  and  C11_14
REMARK    3  A    between atoms: C13_16  and  N4_17
REMARK    4  A    between atoms: N5_22  and  C18_23
REMARK                            x       y       z     vdW  Elec       q    Type
REMARK                         _______ _______ _______ _____ _____    ______ ____
ROOT
ATOM      1  N1  UNL     1      -2.824   0.161   0.123  0.00  0.00    -0.279 N 
ATOM      2  C1  UNL     1      -3.529  -1.007   0.402  0.00  0.00    +0.075 A 
ATOM      3  C2  UNL     1      -4.722  -0.574   0.976  0.00  0.00    +0.090 A 
ATOM      4  C3  UNL     1      -5.668  -1.513   1.417  0.00  0.00    +0.030 A 
ATOM      5  C4  UNL     1      -5.404  -2.875   1.247  0.00  0.00    +0.002 A 
ATOM      6  C5  UNL     1      -4.223  -3.295   0.637  0.00  0.00    +0.002 A 
ATOM      7  C6  UNL     1      -3.267  -2.372   0.198  0.00  0.00    +0.028 A 
ATOM      8  N2  UNL     1      -4.799   0.790   1.000  0.00  0.00    -0.226 NA
ATOM      9  C7  UNL     1      -3.688   1.217   0.435  0.00  0.00    +0.158 A 
ATOM     10  C8  UNL     1      -3.275   2.550   0.123  0.00  0.00    +0.097 A 
ATOM     11  C10 UNL     1      -2.060   2.754  -0.440  0.00  0.00    -0.026 A 
ATOM     12  C11 UNL     1      -1.499   4.097  -0.837  0.00  0.00    +0.045 C 
ATOM     13  C12 UNL     1      -1.161   1.629  -0.692  0.00  0.00    +0.047 A 
ATOM     14  C13 UNL     1      -1.515   0.359  -0.403  0.00  0.00    +0.108 A 
ENDROOT
BRANCH  14  15
ATOM     15  N4  UNL     1      -0.653  -0.736  -0.565  0.00  0.00    -0.314 N 
ATOM     16  C14 UNL     1       0.232  -0.891  -1.742  0.00  0.00    +0.122 C 
ATOM     17  C15 UNL     1       1.689  -0.450  -1.450  0.00  0.00    +0.103 C 
ATOM     18  C16 UNL     1      -0.071  -1.394   0.634  0.00  0.00    +0.122 C 
ATOM     19  C17 UNL     1       1.363  -0.887   0.904  0.00  0.00    +0.103 C 
ATOM     20  N5  UNL     1       2.263  -1.097  -0.253  0.00  0.00    -0.296 NA
BRANCH  20  21
ATOM     21  C18 UNL     1       3.646  -0.726   0.065  0.00  0.00    +0.057 C 
ATOM     22  C19 UNL     1       4.678  -1.044  -1.022  0.00  0.00    +0.019 C 
ATOM     23  C20 UNL     1       5.947  -0.368  -0.510  0.00  0.00    +0.002 C 
ATOM     24  C21 UNL     1       5.477   0.828   0.320  0.00  0.00    +0.002 C 
ATOM     25  C22 UNL     1       3.951   0.745   0.370  0.00  0.00    +0.019 C 
ENDBRANCH  20  21
ENDBRANCH  14  15
BRANCH  10  26
ATOM     26  C9  UNL     1      -4.167   3.631   0.401  0.00  0.00    +0.103 C 
ATOM     27  N3  UNL     1      -4.849   4.549   0.606  0.00  0.00    -0.191 NA
ENDBRANCH  10  26
TORSDOF 3
