REMARK  Name = /home/vital/Documents/PhD_2021/Malaria_codes/data/pdb_ligands_mmv/ligand_249.pdb
REMARK  1 active torsions:
REMARK  status: ('A' for Active; 'I' for Inactive)
REMARK    1  A    between atoms: C5_6  and  C7_8
REMARK                            x       y       z     vdW  Elec       q    Type
REMARK                         _______ _______ _______ _____ _____    ______ ____
ROOT
ATOM      1  C7  UNL     1       0.785  -0.241  -0.879  0.00  0.00    +0.098 C 
ATOM      2  S1  UNL     1       0.338   1.175  -1.983  0.00  0.00    -0.114 S 
ATOM      3  C8  UNL     1      -0.391   2.295  -0.800  0.00  0.00    +0.034 A 
ATOM      4  C9  UNL     1       0.223   3.541  -0.609  0.00  0.00    +0.017 A 
ATOM      5  C10 UNL     1      -0.305   4.458   0.300  0.00  0.00    +0.001 A 
ATOM      6  C11 UNL     1      -1.459   4.142   1.012  0.00  0.00    +0.002 A 
ATOM      7  C12 UNL     1      -2.084   2.910   0.813  0.00  0.00    +0.029 A 
ATOM      8  C13 UNL     1      -1.560   1.972  -0.084  0.00  0.00    +0.078 A 
ATOM      9  N1  UNL     1      -2.276   0.771  -0.250  0.00  0.00    -0.250 NA
ATOM     10  C14 UNL     1      -1.661  -0.357  -0.107  0.00  0.00    +0.062 C 
ATOM     11  C15 UNL     1      -0.201  -0.595   0.246  0.00  0.00    +0.127 C 
ATOM     12  C16 UNL     1      -0.165  -2.103   0.467  0.00  0.00    +0.174 C 
ATOM     13  O1  UNL     1       0.785  -2.777   0.821  0.00  0.00    -0.291 OA
ATOM     14  C17 UNL     1      -1.477  -2.662   0.149  0.00  0.00    +0.027 A 
ATOM     15  C18 UNL     1      -1.875  -3.986   0.165  0.00  0.00    +0.012 A 
ATOM     16  C19 UNL     1      -3.198  -4.267  -0.188  0.00  0.00    +0.001 A 
ATOM     17  C20 UNL     1      -4.084  -3.231  -0.543  0.00  0.00    +0.001 A 
ATOM     18  C21 UNL     1      -3.661  -1.898  -0.551  0.00  0.00    +0.010 A 
ATOM     19  C22 UNL     1      -2.347  -1.642  -0.203  0.00  0.00    +0.007 A 
ENDROOT
BRANCH   1  25
ATOM     20  F1  UNL     1       4.139   1.868   2.045  0.00  0.00    -0.205 F 
ATOM     21  C1  UNL     1       3.854   0.996   1.068  0.00  0.00    +0.124 A 
ATOM     22  C2  UNL     1       4.879   0.256   0.494  0.00  0.00    +0.038 A 
ATOM     23  C3  UNL     1       4.581  -0.646  -0.524  0.00  0.00    +0.003 A 
ATOM     24  C4  UNL     1       3.260  -0.800  -0.957  0.00  0.00    +0.005 A 
ATOM     25  C5  UNL     1       2.215  -0.057  -0.377  0.00  0.00    -0.030 A 
ATOM     26  C6  UNL     1       2.536   0.850   0.647  0.00  0.00    +0.043 A 
ENDBRANCH   1  25
TORSDOF 1
