REMARK  Name = /home/vital/Documents/PhD_2021/Malaria_codes/data/pdb_ligands_mmv/ligand_200.pdb
REMARK  6 active torsions:
REMARK  status: ('A' for Active; 'I' for Inactive)
REMARK    1  A    between atoms: C2_3  and  C3_4
REMARK    2  A    between atoms: C2_3  and  C13_16
REMARK    3  A    between atoms: C7_8  and  O1_9
REMARK    4  A    between atoms: O1_9  and  C8_10
REMARK    5  A    between atoms: C9_11  and  O2_12
REMARK    6  A    between atoms: O2_12  and  C10_13
REMARK                            x       y       z     vdW  Elec       q    Type
REMARK                         _______ _______ _______ _____ _____    ______ ____
ROOT
ATOM      1  C1  UNL     1      -2.349   0.048  -1.593  0.00  0.00    +0.150 C 
ATOM      2  N1  UNL     1      -3.002  -0.392  -0.584  0.00  0.00    -0.270 NA
ATOM      3  C2  UNL     1      -2.405  -0.713   0.708  0.00  0.00    +0.061 C 
ATOM      4  C3  UNL     1      -2.275   0.568   1.543  0.00  0.00    +0.036 C 
ATOM      5  C4  UNL     1      -1.093  -1.505   0.558  0.00  0.00    +0.065 C 
ATOM      6  C5  UNL     1       0.128  -0.677   0.245  0.00  0.00    -0.032 A 
ATOM      7  C6  UNL     1       1.255  -0.801   1.083  0.00  0.00    +0.053 A 
ATOM      8  C7  UNL     1       2.432  -0.083   0.840  0.00  0.00    +0.162 A 
ATOM      9  C9  UNL     1       2.499   0.773  -0.271  0.00  0.00    +0.162 A 
ATOM     10  C11 UNL     1       1.388   0.896  -1.110  0.00  0.00    +0.059 A 
ATOM     11  C12 UNL     1       0.202   0.180  -0.857  0.00  0.00    +0.011 A 
ATOM     12  C13 UNL     1      -3.432  -1.632   1.405  0.00  0.00    +0.036 C 
ATOM     13  C14 UNL     1      -0.905   0.365  -1.803  0.00  0.00    +0.119 C 
ATOM     14  N2  UNL     1      -0.739   0.860  -3.005  0.00  0.00    -0.177 NA
ATOM     15  N3  UNL     1      -1.965   0.882  -3.639  0.00  0.00    -0.201 N 
ATOM     16  C15 UNL     1      -3.017   0.399  -2.903  0.00  0.00    +0.283 C 
ATOM     17  O3  UNL     1      -4.183   0.274  -3.195  0.00  0.00    -0.267 OA
ATOM     18  H17 UNL     1      -2.050   1.210  -4.594  0.00  0.00    +0.178 HD
ENDROOT
BRANCH   8  19
ATOM     19  O1  UNL     1       3.560  -0.153   1.617  0.00  0.00    -0.491 OA
ATOM     20  C8  UNL     1       3.529  -0.992   2.762  0.00  0.00    +0.277 C 
ENDBRANCH   8  19
BRANCH   9  21
ATOM     21  O2  UNL     1       3.684   1.442  -0.448  0.00  0.00    -0.491 OA
ATOM     22  C10 UNL     1       3.809   2.281  -1.588  0.00  0.00    +0.277 C 
ENDBRANCH   9  21
TORSDOF 2
