REMARK  Name = /home/vital/Documents/PhD_2021/Malaria_codes/data/pdb_ligands_mmv/ligand_175.pdb
REMARK  6 active torsions:
REMARK  status: ('A' for Active; 'I' for Inactive)
REMARK    1  A    between atoms: O1_1  and  C1_2
REMARK    2  A    between atoms: C1_2  and  C2_3
REMARK    3  A    between atoms: C1_2  and  C8_10
REMARK    4  A    between atoms: C2_3  and  N1_4
REMARK    5  A    between atoms: N1_4  and  C3_5
REMARK    6  A    between atoms: C8_10  and  N2_11
REMARK                            x       y       z     vdW  Elec       q    Type
REMARK                         _______ _______ _______ _____ _____    ______ ____
ROOT
ATOM      1  N2  UNL     1      -1.944  -0.522  -0.176  0.00  0.00    -0.337 N 
ATOM      2  C9  UNL     1      -3.006  -0.963   0.595  0.00  0.00    +0.050 A 
ATOM      3  C10 UNL     1      -3.599  -2.231   0.713  0.00  0.00    +0.026 A 
ATOM      4  C11 UNL     1      -4.676  -2.379   1.590  0.00  0.00    +0.002 A 
ATOM      5  C12 UNL     1      -5.146  -1.301   2.330  0.00  0.00    +0.001 A 
ATOM      6  C13 UNL     1      -4.551  -0.041   2.207  0.00  0.00    +0.010 A 
ATOM      7  C14 UNL     1      -3.465   0.135   1.324  0.00  0.00    +0.008 A 
ATOM      8  C15 UNL     1      -2.661   1.262   0.964  0.00  0.00    +0.008 A 
ATOM      9  C16 UNL     1      -2.656   2.618   1.359  0.00  0.00    +0.010 A 
ATOM     10  C17 UNL     1      -1.720   3.498   0.806  0.00  0.00    +0.001 A 
ATOM     11  C18 UNL     1      -0.797   3.046  -0.131  0.00  0.00    +0.002 A 
ATOM     12  C19 UNL     1      -0.783   1.709  -0.539  0.00  0.00    +0.026 A 
ATOM     13  C20 UNL     1      -1.724   0.829   0.022  0.00  0.00    +0.050 A 
ENDROOT
BRANCH   1  14
ATOM     14  C8  UNL     1      -1.186  -1.371  -1.082  0.00  0.00    +0.155 C 
BRANCH  14  15
ATOM     15  C1  UNL     1      -0.108  -2.200  -0.374  0.00  0.00    +0.148 C 
BRANCH  15  16
ATOM     16  O1  UNL     1       0.300  -3.270  -1.250  0.00  0.00    -0.389 OA
ATOM     17  H1  UNL     1       1.015  -3.757  -0.795  0.00  0.00    +0.210 HD
ENDBRANCH  15  16
BRANCH  15  18
ATOM     18  C2  UNL     1       1.139  -1.389   0.042  0.00  0.00    +0.114 C 
BRANCH  18  19
ATOM     19  N1  UNL     1       1.839  -0.852  -1.132  0.00  0.00    -0.311 NA
ATOM     20  H5  UNL     1       1.917  -1.588  -1.837  0.00  0.00    +0.122 HD
BRANCH  19  21
ATOM     21  C3  UNL     1       3.161  -0.316  -0.815  0.00  0.00    +0.054 C 
ATOM     22  C4  UNL     1       3.156   0.907   0.098  0.00  0.00    +0.019 C 
ATOM     23  C5  UNL     1       4.499   1.589  -0.164  0.00  0.00    +0.002 C 
ATOM     24  C6  UNL     1       4.966   1.102  -1.534  0.00  0.00    +0.002 C 
ATOM     25  C7  UNL     1       3.846   0.220  -2.072  0.00  0.00    +0.019 C 
ENDBRANCH  19  21
ENDBRANCH  18  19
ENDBRANCH  15  18
ENDBRANCH  14  15
ENDBRANCH   1  14
TORSDOF 6
