REMARK  Name = /home/vital/Documents/PhD_2021/Malaria_codes/data/pdb_ligands_mmv/ligand_345.pdb
REMARK  9 active torsions:
REMARK  status: ('A' for Active; 'I' for Inactive)
REMARK    1  A    between atoms: C1_1  and  O1_2
REMARK    2  A    between atoms: O1_2  and  C2_3
REMARK    3  A    between atoms: N1_8  and  C7_9
REMARK    4  A    between atoms: N2_22  and  C19_23
REMARK    5  A    between atoms: C24_28  and  O3_29
REMARK    6  A    between atoms: O3_29  and  C25_30
REMARK    7  A    between atoms: C26_31  and  O4_32
REMARK    8  A    between atoms: O4_32  and  C27_33
REMARK    9  A    between atoms: C35_42  and  O6_43
REMARK                            x       y       z     vdW  Elec       q    Type
REMARK                         _______ _______ _______ _____ _____    ______ ____
ROOT
ATOM      1  C2  UNL     1      -0.547  -2.146   0.720  0.00  0.00    +0.162 A 
ATOM      2  C3  UNL     1      -1.712  -2.736   1.225  0.00  0.00    +0.053 A 
ATOM      3  C4  UNL     1      -2.962  -2.264   0.825  0.00  0.00    -0.038 A 
ATOM      4  C5  UNL     1      -4.254  -2.891   1.289  0.00  0.00    +0.051 C 
ATOM      5  C6  UNL     1      -5.220  -2.965   0.088  0.00  0.00    +0.089 C 
ATOM      6  N1  UNL     1      -5.435  -1.698  -0.658  0.00  0.00    -0.298 NA
ATOM      7  C7  UNL     1      -5.479  -1.959  -2.096  0.00  0.00    +0.105 C 
ATOM      8  C8  UNL     1      -4.479  -0.623  -0.267  0.00  0.00    +0.091 C 
ATOM      9  C9  UNL     1      -4.627   0.697  -1.090  0.00  0.00    +0.058 C 
ATOM     10  C10 UNL     1      -3.871   1.901  -0.548  0.00  0.00    -0.045 A 
ATOM     11  C11 UNL     1      -3.858   2.215   0.821  0.00  0.00    +0.007 A 
ATOM     12  C12 UNL     1      -3.022   3.219   1.311  0.00  0.00    +0.046 A 
ATOM     13  C13 UNL     1      -2.206   3.923   0.432  0.00  0.00    +0.129 A 
ATOM     14  O2  UNL     1      -1.312   4.817   0.966  0.00  0.00    -0.452 OA
ATOM     15  C14 UNL     1       0.021   4.636   0.648  0.00  0.00    +0.170 A 
ATOM     16  C15 UNL     1       0.600   3.390   0.373  0.00  0.00    +0.053 A 
ATOM     17  C16 UNL     1       1.955   3.296   0.023  0.00  0.00    -0.042 A 
ATOM     18  C17 UNL     1       2.556   1.968  -0.387  0.00  0.00    +0.059 C 
ATOM     19  C18 UNL     1       2.474   0.782   0.632  0.00  0.00    +0.095 C 
ATOM     20  N2  UNL     1       3.383   0.826   1.807  0.00  0.00    -0.298 NA
ATOM     21  C19 UNL     1       3.171   1.973   2.676  0.00  0.00    +0.105 C 
ATOM     22  C20 UNL     1       4.787   0.699   1.410  0.00  0.00    +0.089 C 
ATOM     23  C21 UNL     1       5.056  -0.656   0.746  0.00  0.00    +0.051 C 
ATOM     24  C22 UNL     1       3.955  -1.133  -0.169  0.00  0.00    -0.034 A 
ATOM     25  C23 UNL     1       4.178  -2.256  -0.986  0.00  0.00    +0.053 A 
ATOM     26  C24 UNL     1       3.169  -2.762  -1.814  0.00  0.00    +0.165 A 
ATOM     27  C26 UNL     1       1.891  -2.185  -1.758  0.00  0.00    +0.204 A 
ATOM     28  C28 UNL     1       1.654  -1.082  -0.920  0.00  0.00    +0.179 A 
ATOM     29  O5  UNL     1       0.414  -0.483  -0.880  0.00  0.00    -0.448 OA
ATOM     30  C29 UNL     1      -0.632  -1.140  -0.255  0.00  0.00    +0.170 A 
ATOM     31  C30 UNL     1      -1.896  -0.656  -0.626  0.00  0.00    +0.055 A 
ATOM     32  C31 UNL     1      -3.066  -1.172  -0.058  0.00  0.00    -0.023 A 
ATOM     33  C32 UNL     1       2.693  -0.515  -0.154  0.00  0.00    +0.019 A 
ATOM     34  C33 UNL     1       2.728   4.469  -0.023  0.00  0.00    +0.007 A 
ATOM     35  C34 UNL     1       2.165   5.707   0.294  0.00  0.00    +0.049 A 
ATOM     36  C35 UNL     1       0.819   5.780   0.630  0.00  0.00    +0.159 A 
ATOM     37  C36 UNL     1      -2.306   3.718  -0.945  0.00  0.00    +0.046 A 
ATOM     38  C37 UNL     1      -3.133   2.705  -1.431  0.00  0.00    +0.007 A 
ENDROOT
BRANCH   1  40
ATOM     39  C1  UNL     1       0.880  -2.373   2.535  0.00  0.00    +0.277 C 
ATOM     40  O1  UNL     1       0.667  -2.617   1.142  0.00  0.00    -0.491 OA
ENDBRANCH   1  40
BRANCH  26  41
ATOM     41  O3  UNL     1       3.348  -3.814  -2.674  0.00  0.00    -0.491 OA
ATOM     42  C25 UNL     1       4.682  -4.123  -3.049  0.00  0.00    +0.277 C 
ENDBRANCH  26  41
BRANCH  27  43
ATOM     43  O4  UNL     1       0.866  -2.591  -2.584  0.00  0.00    -0.488 OA
ATOM     44  C27 UNL     1       0.459  -3.933  -2.316  0.00  0.00    +0.277 C 
ENDBRANCH  27  43
BRANCH  36  45
ATOM     45  O6  UNL     1       0.297   7.010   0.921  0.00  0.00    -0.503 OA
ATOM     46  H38 UNL     1      -0.647   6.863   1.113  0.00  0.00    +0.292 HD
ENDBRANCH  36  45
TORSDOF 4
