REMARK  Name = /home/vital/Documents/PhD_2021/Malaria_codes/data/pdb_ligands_mmv/ligand_350.pdb
REMARK  8 active torsions:
REMARK  status: ('A' for Active; 'I' for Inactive)
REMARK    1  A    between atoms: C1_1  and  C2_2
REMARK    2  A    between atoms: C2_2  and  C3_3
REMARK    3  A    between atoms: C2_2  and  N1_8
REMARK    4  A    between atoms: N2_11  and  C9_12
REMARK    5  A    between atoms: C17_20  and  C18_21
REMARK    6  A    between atoms: C19_22  and  C20_23
REMARK    7  A    between atoms: C21_25  and  N3_26
REMARK    8  A    between atoms: C22_27  and  C23_28
REMARK                            x       y       z     vdW  Elec       q    Type
REMARK                         _______ _______ _______ _____ _____    ______ ____
ROOT
ATOM      1  C2  UNL     1       0.205  -1.158  -0.164  0.00  0.00    +0.127 C 
ENDROOT
BRANCH   1   2
ATOM      2  C1  UNL     1       1.276  -1.629   0.836  0.00  0.00    +0.006 A 
ATOM      3  C17 UNL     1       1.172  -2.754   1.771  0.00  0.00    -0.034 A 
ATOM      4  C18 UNL     1       0.001  -3.682   1.906  0.00  0.00    +0.045 C 
ATOM      5  C19 UNL     1       2.305  -2.857   2.565  0.00  0.00    -0.008 A 
ATOM      6  C20 UNL     1       2.591  -3.842   3.652  0.00  0.00    +0.052 C 
ATOM      7  S2  UNL     1       3.468  -1.681   2.182  0.00  0.00    -0.078 S 
ATOM      8  C21 UNL     1       2.525  -1.019   0.946  0.00  0.00    +0.077 A 
BRANCH   8   9
ATOM      9  N3  UNL     1       3.004   0.029   0.169  0.00  0.00    -0.276 N 
ATOM     10  C22 UNL     1       4.258   0.613   0.223  0.00  0.00    +0.249 C 
ATOM     11  O1  UNL     1       5.212   0.308   0.927  0.00  0.00    -0.270 OA
ATOM     12  H24 UNL     1       2.415   0.310  -0.599  0.00  0.00    +0.156 HD
BRANCH  10  13
ATOM     13  C23 UNL     1       4.445   1.726  -0.753  0.00  0.00    +0.037 A 
ATOM     14  C24 UNL     1       5.687   1.862  -1.385  0.00  0.00    +0.013 A 
ATOM     15  C25 UNL     1       5.890   2.883  -2.315  0.00  0.00    +0.001 A 
ATOM     16  C26 UNL     1       4.859   3.775  -2.609  0.00  0.00    +0.000 A 
ATOM     17  C27 UNL     1       3.626   3.656  -1.968  0.00  0.00    +0.001 A 
ATOM     18  C28 UNL     1       3.416   2.636  -1.037  0.00  0.00    +0.013 A 
ENDBRANCH  10  13
ENDBRANCH   8   9
ENDBRANCH   1   2
BRANCH   1  19
ATOM     19  N1  UNL     1      -1.179  -1.343   0.340  0.00  0.00    -0.288 NA
ATOM     20  C7  UNL     1      -2.194  -1.026  -0.698  0.00  0.00    +0.104 C 
ATOM     21  C8  UNL     1      -3.547  -0.505  -0.160  0.00  0.00    +0.120 C 
ATOM     22  N2  UNL     1      -3.338   0.747   0.583  0.00  0.00    -0.327 N 
ATOM     23  C15 UNL     1      -1.448  -0.550   1.568  0.00  0.00    +0.104 C 
ATOM     24  C16 UNL     1      -2.089   0.841   1.357  0.00  0.00    +0.120 C 
BRANCH  22  25
ATOM     25  C9  UNL     1      -4.355   1.671   0.772  0.00  0.00    +0.030 A 
ATOM     26  C10 UNL     1      -4.090   2.970   1.239  0.00  0.00    +0.023 A 
ATOM     27  C11 UNL     1      -5.105   3.917   1.426  0.00  0.00    +0.002 A 
ATOM     28  C12 UNL     1      -6.425   3.588   1.144  0.00  0.00    +0.000 A 
ATOM     29  C13 UNL     1      -6.722   2.315   0.676  0.00  0.00    +0.002 A 
ATOM     30  C14 UNL     1      -5.699   1.375   0.491  0.00  0.00    +0.023 A 
ENDBRANCH  22  25
ENDBRANCH   1  19
BRANCH   1  31
ATOM     31  C3  UNL     1       0.469  -1.751  -1.549  0.00  0.00    +0.011 A 
ATOM     32  C4  UNL     1       0.733  -1.053  -2.718  0.00  0.00    +0.013 A 
ATOM     33  C5  UNL     1       0.956  -1.910  -3.835  0.00  0.00    +0.008 A 
ATOM     34  C6  UNL     1       0.856  -3.237  -3.491  0.00  0.00    +0.045 A 
ATOM     35  S1  UNL     1       0.478  -3.445  -1.838  0.00  0.00    -0.100 S 
ENDBRANCH   1  31
TORSDOF 6
