REMARK  Name = /home/vital/Documents/PhD_2021/Malaria_codes/data/pdb_ligands_mmv/ligand_51.pdb
REMARK  6 active torsions:
REMARK  status: ('A' for Active; 'I' for Inactive)
REMARK    1  A    between atoms: O1_1  and  C1_2
REMARK    2  A    between atoms: C1_2  and  C2_3
REMARK    3  A    between atoms: C1_2  and  C9_11
REMARK    4  A    between atoms: C2_3  and  N1_4
REMARK    5  A    between atoms: N1_4  and  C3_5
REMARK    6  A    between atoms: C9_11  and  N2_12
REMARK                            x       y       z     vdW  Elec       q    Type
REMARK                         _______ _______ _______ _____ _____    ______ ____
ROOT
ATOM      1  C9  UNL     1      -1.001  -0.325   0.669  0.00  0.00    +0.155 C 
ENDROOT
BRANCH   1   2
ATOM      2  N2  UNL     1      -2.420  -0.063   0.429  0.00  0.00    -0.337 N 
ATOM      3  C10 UNL     1      -3.253   0.623   1.291  0.00  0.00    +0.050 A 
ATOM      4  C11 UNL     1      -3.001   1.236   2.530  0.00  0.00    +0.026 A 
ATOM      5  C12 UNL     1      -4.064   1.863   3.187  0.00  0.00    +0.002 A 
ATOM      6  C13 UNL     1      -5.337   1.882   2.629  0.00  0.00    +0.001 A 
ATOM      7  C14 UNL     1      -5.578   1.275   1.393  0.00  0.00    +0.010 A 
ATOM      8  C15 UNL     1      -4.521   0.637   0.708  0.00  0.00    +0.008 A 
ATOM      9  C16 UNL     1      -4.430  -0.049  -0.543  0.00  0.00    +0.008 A 
ATOM     10  C17 UNL     1      -5.363  -0.342  -1.561  0.00  0.00    +0.010 A 
ATOM     11  C18 UNL     1      -4.952  -1.045  -2.698  0.00  0.00    +0.001 A 
ATOM     12  C19 UNL     1      -3.630  -1.456  -2.832  0.00  0.00    +0.002 A 
ATOM     13  C20 UNL     1      -2.686  -1.179  -1.839  0.00  0.00    +0.026 A 
ATOM     14  C21 UNL     1      -3.109  -0.474  -0.698  0.00  0.00    +0.050 A 
ENDBRANCH   1   2
BRANCH   1  15
ATOM     15  C1  UNL     1      -0.116   0.796   0.109  0.00  0.00    +0.148 C 
BRANCH  15  16
ATOM     16  O1  UNL     1       0.052   1.824   1.102  0.00  0.00    -0.389 OA
ATOM     17  H1  UNL     1       0.415   2.604   0.648  0.00  0.00    +0.210 HD
ENDBRANCH  15  16
BRANCH  15  18
ATOM     18  C2  UNL     1       1.281   0.278  -0.298  0.00  0.00    +0.114 C 
BRANCH  18  19
ATOM     19  N1  UNL     1       1.982  -0.300   0.852  0.00  0.00    -0.311 NA
ATOM     20  H5  UNL     1       1.879   0.340   1.645  0.00  0.00    +0.122 HD
BRANCH  19  21
ATOM     21  C3  UNL     1       3.402  -0.613   0.653  0.00  0.00    +0.054 C 
ATOM     22  C4  UNL     1       4.284   0.647   0.616  0.00  0.00    +0.019 C 
ATOM     23  C5  UNL     1       5.765   0.286   0.495  0.00  0.00    +0.002 C 
ATOM     24  C6  UNL     1       6.030  -0.620  -0.704  0.00  0.00    +0.000 C 
ATOM     25  C7  UNL     1       5.155  -1.870  -0.671  0.00  0.00    +0.002 C 
ATOM     26  C8  UNL     1       3.672  -1.515  -0.562  0.00  0.00    +0.019 C 
ENDBRANCH  19  21
ENDBRANCH  18  19
ENDBRANCH  15  18
ENDBRANCH   1  15
TORSDOF 6
