REMARK  Name = /home/vital/Documents/PhD_2021/Malaria_codes/data/pdb_ligands_mmv/ligand_238.pdb
REMARK  11 active torsions:
REMARK  status: ('A' for Active; 'I' for Inactive)
REMARK    1  A    between atoms: C1_1  and  C2_2
REMARK    2  A    between atoms: C2_2  and  O1_3
REMARK    3  A    between atoms: O1_3  and  C3_4
REMARK    4  A    between atoms: C5_6  and  C9_12
REMARK    5  A    between atoms: C8_10  and  O2_11
REMARK    6  A    between atoms: C14_18  and  O3_19
REMARK    7  A    between atoms: O3_19  and  C15_20
REMARK    8  A    between atoms: C15_20  and  C16_21
REMARK    9  A    between atoms: C17_22  and  O4_23
REMARK   10  A    between atoms: O4_23  and  C18_24
REMARK   11  A    between atoms: C18_24  and  C19_25
REMARK                            x       y       z     vdW  Elec       q    Type
REMARK                         _______ _______ _______ _____ _____    ______ ____
ROOT
ATOM      1  C9  UNL     1       0.976   1.705   0.292  0.00  0.00    +0.115 C 
ATOM      2  N1  UNL     1       1.071   3.108  -0.156  0.00  0.00    -0.305 NA
ATOM      3  C10 UNL     1      -0.069   3.895   0.300  0.00  0.00    +0.086 C 
ATOM      4  C11 UNL     1      -1.353   3.391  -0.360  0.00  0.00    +0.050 C 
ATOM      5  C12 UNL     1      -1.539   1.913  -0.131  0.00  0.00    -0.037 A 
ATOM      6  C13 UNL     1      -2.818   1.344  -0.245  0.00  0.00    +0.053 A 
ATOM      7  C14 UNL     1      -3.008  -0.022  -0.024  0.00  0.00    +0.162 A 
ATOM      8  C17 UNL     1      -1.907  -0.832   0.258  0.00  0.00    +0.162 A 
ATOM      9  C20 UNL     1      -0.634  -0.272   0.380  0.00  0.00    +0.055 A 
ATOM     10  C21 UNL     1      -0.424   1.100   0.156  0.00  0.00    -0.019 A 
ATOM     11  H10 UNL     1       1.936   3.501   0.206  0.00  0.00    +0.123 HD
ENDROOT
BRANCH   1  14
ATOM     12  C3  UNL     1       4.065  -0.461  -0.417  0.00  0.00    +0.163 A 
ATOM     13  C4  UNL     1       3.094   0.289   0.256  0.00  0.00    +0.055 A 
ATOM     14  C5  UNL     1       2.043   0.902  -0.448  0.00  0.00    -0.021 A 
ATOM     15  C6  UNL     1       1.996   0.774  -1.848  0.00  0.00    +0.029 A 
ATOM     16  C7  UNL     1       2.976   0.049  -2.521  0.00  0.00    +0.086 A 
ATOM     17 CL1  UNL     1       2.898  -0.081  -4.239  0.00  0.00    -0.080 Cl
ATOM     18  C8  UNL     1       4.011  -0.563  -1.810  0.00  0.00    +0.177 A 
BRANCH  18  19
ATOM     19  O2  UNL     1       4.982  -1.282  -2.460  0.00  0.00    -0.502 OA
ATOM     20  H8  UNL     1       4.802  -1.211  -3.413  0.00  0.00    +0.292 HD
ENDBRANCH  18  19
BRANCH  12  21
ATOM     21  O1  UNL     1       5.128  -1.045   0.217  0.00  0.00    -0.489 OA
BRANCH  21  23
ATOM     22  C1  UNL     1       5.551  -1.027   2.586  0.00  0.00    +0.048 C 
ATOM     23  C2  UNL     1       4.840  -1.726   1.440  0.00  0.00    +0.226 C 
ENDBRANCH  21  23
ENDBRANCH  12  21
ENDBRANCH   1  14
BRANCH   7  24
ATOM     24  O3  UNL     1      -4.247  -0.591  -0.141  0.00  0.00    -0.489 OA
BRANCH  24  25
ATOM     25  C15 UNL     1      -5.221  -0.037   0.752  0.00  0.00    +0.226 C 
ATOM     26  C16 UNL     1      -6.369   0.531  -0.064  0.00  0.00    +0.048 C 
ENDBRANCH  24  25
ENDBRANCH   7  24
BRANCH   8  27
ATOM     27  O4  UNL     1      -2.011  -2.177   0.501  0.00  0.00    -0.489 OA
BRANCH  27  28
ATOM     28  C18 UNL     1      -2.367  -2.897  -0.687  0.00  0.00    +0.226 C 
ATOM     29  C19 UNL     1      -1.940  -4.339  -0.495  0.00  0.00    +0.048 C 
ENDBRANCH  27  28
ENDBRANCH   8  27
TORSDOF 8
