REMARK  Name = /home/vital/Documents/PhD_2021/Malaria_codes/data/pdb_ligands_mmv/ligand_225.pdb
REMARK  12 active torsions:
REMARK  status: ('A' for Active; 'I' for Inactive)
REMARK    1  A    between atoms: C1_1  and  C2_2
REMARK    2  A    between atoms: C2_2  and  C3_3
REMARK    3  A    between atoms: C3_3  and  C4_4
REMARK    4  A    between atoms: C4_4  and  N1_5
REMARK    5  A    between atoms: N1_5  and  C5_6
REMARK    6  A    between atoms: N1_5  and  S1_10
REMARK    7  A    between atoms: C5_6  and  C6_7
REMARK    8  A    between atoms: C6_7  and  C7_8
REMARK    9  A    between atoms: C7_8  and  C8_9
REMARK   10  A    between atoms: S1_10  and  C9_13
REMARK   11  A    between atoms: C12_16  and  N2_17
REMARK   12  A    between atoms: C13_18  and  C14_20
REMARK                            x       y       z     vdW  Elec       q    Type
REMARK                         _______ _______ _______ _____ _____    ______ ____
ROOT
ATOM      1  C9  UNL     1       0.482  -0.021   1.376  0.00  0.00    +0.106 A 
ATOM      2  C10 UNL     1       1.243   1.140   1.228  0.00  0.00    +0.030 A 
ATOM      3  C11 UNL     1       2.595   1.047   0.878  0.00  0.00    +0.025 A 
ATOM      4  C12 UNL     1       3.199  -0.200   0.696  0.00  0.00    +0.034 A 
ATOM      5  C18 UNL     1       2.432  -1.359   0.886  0.00  0.00    +0.025 A 
ATOM      6  C19 UNL     1       1.079  -1.274   1.230  0.00  0.00    +0.030 A 
ENDROOT
BRANCH   4   7
ATOM      7  N2  UNL     1       4.555  -0.381   0.350  0.00  0.00    -0.279 N 
ATOM      8  C13 UNL     1       5.492   0.596   0.031  0.00  0.00    +0.284 C 
ATOM      9  O3  UNL     1       5.236   1.794  -0.040  0.00  0.00    -0.266 OA
ATOM     10  H21 UNL     1       4.866  -1.339   0.295  0.00  0.00    +0.155 HD
BRANCH   8  11
ATOM     11  C14 UNL     1       6.826   0.071  -0.236  0.00  0.00    +0.189 A 
ATOM     12  O4  UNL     1       7.775   0.950  -0.695  0.00  0.00    -0.458 OA
ATOM     13  C15 UNL     1       8.928   0.262  -0.874  0.00  0.00    +0.196 A 
ATOM     14  C16 UNL     1       8.756  -1.058  -0.538  0.00  0.00    +0.042 A 
ATOM     15  C17 UNL     1       7.405  -1.185  -0.126  0.00  0.00    +0.054 A 
ENDBRANCH   8  11
ENDBRANCH   4   7
BRANCH   1  16
ATOM     16  S1  UNL     1      -1.232   0.096   1.857  0.00  0.00    +0.061 S 
ATOM     17  O1  UNL     1      -1.393   1.349   2.562  0.00  0.00    -0.153 OA
ATOM     18  O2  UNL     1      -1.582  -1.158   2.493  0.00  0.00    -0.153 OA
BRANCH  16  19
ATOM     19  N1  UNL     1      -2.065   0.178   0.363  0.00  0.00    -0.177 NA
BRANCH  19  20
ATOM     20  C4  UNL     1      -1.943   1.431  -0.431  0.00  0.00    +0.109 C 
BRANCH  20  21
ATOM     21  C3  UNL     1      -2.811   2.583   0.081  0.00  0.00    +0.017 C 
BRANCH  21  23
ATOM     22  C1  UNL     1      -4.782   1.794   1.488  0.00  0.00    +0.004 C 
ATOM     23  C2  UNL     1      -4.313   2.291   0.129  0.00  0.00    -0.002 C 
ENDBRANCH  21  23
ENDBRANCH  20  21
ENDBRANCH  19  20
BRANCH  19  24
ATOM     24  C5  UNL     1      -1.999  -1.054  -0.476  0.00  0.00    +0.109 C 
BRANCH  24  25
ATOM     25  C6  UNL     1      -3.370  -1.396  -1.059  0.00  0.00    +0.017 C 
BRANCH  25  26
ATOM     26  C7  UNL     1      -4.333  -1.943  -0.003  0.00  0.00    -0.002 C 
ATOM     27  C8  UNL     1      -5.692  -2.264  -0.604  0.00  0.00    +0.004 C 
ENDBRANCH  25  26
ENDBRANCH  24  25
ENDBRANCH  19  24
ENDBRANCH  16  19
ENDBRANCH   1  16
TORSDOF 10
