REMARK  Name = /home/vital/Documents/PhD_2021/Malaria_codes/data/pdb_ligands_mmv/ligand_146.pdb
REMARK  9 active torsions:
REMARK  status: ('A' for Active; 'I' for Inactive)
REMARK    1  A    between atoms: C1_1  and  C2_2
REMARK    2  A    between atoms: C2_2  and  C3_3
REMARK    3  A    between atoms: C2_2  and  C4_4
REMARK    4  A    between atoms: C7_7  and  C8_8
REMARK    5  A    between atoms: C8_8  and  N1_9
REMARK    6  A    between atoms: C9_10  and  C10_11
REMARK    7  A    between atoms: C10_11  and  C11_12
REMARK    8  A    between atoms: C11_12  and  N2_13
REMARK    9  A    between atoms: C12_14  and  C13_16
REMARK                            x       y       z     vdW  Elec       q    Type
REMARK                         _______ _______ _______ _____ _____    ______ ____
ROOT
ATOM      1  N1  UNL     1       1.188  -1.674  -0.594  0.00  0.00    -0.323 N 
ATOM      2  C9  UNL     1       1.781  -0.835  -1.517  0.00  0.00    +0.113 A 
ATOM      3  N3  UNL     1       2.074  -1.486  -2.625  0.00  0.00    -0.232 NA
ATOM      4  C14 UNL     1       1.666  -2.778  -2.419  0.00  0.00    +0.089 A 
ATOM      5  C15 UNL     1       1.744  -3.883  -3.281  0.00  0.00    +0.030 A 
ATOM      6  C16 UNL     1       1.264  -5.121  -2.838  0.00  0.00    +0.002 A 
ATOM      7  C17 UNL     1       0.719  -5.257  -1.561  0.00  0.00    +0.002 A 
ATOM      8  C18 UNL     1       0.633  -4.166  -0.688  0.00  0.00    +0.028 A 
ATOM      9  C19 UNL     1       1.116  -2.934  -1.150  0.00  0.00    +0.069 A 
ENDROOT
BRANCH   1  10
ATOM     10  C8  UNL     1       0.779  -1.322   0.761  0.00  0.00    +0.158 C 
BRANCH  10  14
ATOM     11  C4  UNL     1      -3.046   0.723   0.987  0.00  0.00    -0.045 A 
ATOM     12  C5  UNL     1      -2.925  -0.480   0.280  0.00  0.00    +0.004 A 
ATOM     13  C6  UNL     1      -1.696  -1.143   0.196  0.00  0.00    +0.005 A 
ATOM     14  C7  UNL     1      -0.554  -0.613   0.810  0.00  0.00    -0.028 A 
ATOM     15  C20 UNL     1      -0.678   0.584   1.529  0.00  0.00    +0.005 A 
ATOM     16  C21 UNL     1      -1.906   1.246   1.611  0.00  0.00    +0.004 A 
BRANCH  11  18
ATOM     17  C1  UNL     1      -4.887   1.545   2.503  0.00  0.00    +0.012 C 
ATOM     18  C2  UNL     1      -4.390   1.425   1.060  0.00  0.00    +0.013 C 
ATOM     19  C3  UNL     1      -4.343   2.797   0.384  0.00  0.00    +0.012 C 
ENDBRANCH  11  18
ENDBRANCH  10  14
ENDBRANCH   1  10
BRANCH   2  20
ATOM     20  C10 UNL     1       2.074   0.609  -1.282  0.00  0.00    +0.093 C 
BRANCH  20  21
ATOM     21  C11 UNL     1       3.501   0.796  -0.765  0.00  0.00    +0.112 C 
BRANCH  21  22
ATOM     22  N2  UNL     1       3.766   2.164  -0.356  0.00  0.00    -0.315 N 
ATOM     23  C12 UNL     1       3.306   2.654   0.844  0.00  0.00    +0.210 C 
ATOM     24  O1  UNL     1       2.661   1.984   1.645  0.00  0.00    -0.276 OA
ATOM     25  C13 UNL     1       3.633   4.102   1.083  0.00  0.00    +0.109 C 
ATOM     26  H16 UNL     1       4.206   2.789  -1.019  0.00  0.00    +0.149 HD
ENDBRANCH  21  22
ENDBRANCH  20  21
ENDBRANCH   2  20
TORSDOF 6
