REMARK  Name = /home/vital/Documents/PhD_2021/Malaria_codes/data/pdb_ligands_mmv/ligand_138.pdb
REMARK  12 active torsions:
REMARK  status: ('A' for Active; 'I' for Inactive)
REMARK    1  A    between atoms: C1_1  and  C2_2
REMARK    2  A    between atoms: C2_2  and  O1_3
REMARK    3  A    between atoms: O1_3  and  C3_4
REMARK    4  A    between atoms: C6_8  and  C7_9
REMARK    5  A    between atoms: C7_9  and  N1_10
REMARK    6  A    between atoms: N1_10  and  C8_11
REMARK    7  A    between atoms: C8_11  and  C9_12
REMARK    8  A    between atoms: C8_11  and  C10_13
REMARK    9  A    between atoms: C10_13  and  O2_14
REMARK   10  A    between atoms: C10_13  and  C11_15
REMARK   11  A    between atoms: C18_22  and  O3_23
REMARK   12  A    between atoms: O3_23  and  C19_24
REMARK                            x       y       z     vdW  Elec       q    Type
REMARK                         _______ _______ _______ _____ _____    ______ ____
ROOT
ATOM      1  C7  UNL     1      -0.570   1.614   0.389  0.00  0.00    +0.116 C 
ENDROOT
BRANCH   1   6
ATOM      2  C3  UNL     1       3.297   0.033   1.474  0.00  0.00    +0.180 A 
ATOM      3  C4  UNL     1       2.159  -0.328   2.205  0.00  0.00    +0.086 A 
ATOM      4 CL1  UNL     1       2.249  -1.426   3.535  0.00  0.00    -0.080 Cl
ATOM      5  C5  UNL     1       0.910   0.188   1.859  0.00  0.00    +0.028 A 
ATOM      6  C6  UNL     1       0.785   1.077   0.783  0.00  0.00    -0.029 A 
ATOM      7  C17 UNL     1       1.937   1.454   0.069  0.00  0.00    +0.054 A 
ATOM      8  C18 UNL     1       3.197   0.950   0.415  0.00  0.00    +0.163 A 
BRANCH   8   9
ATOM      9  O3  UNL     1       4.366   1.278  -0.220  0.00  0.00    -0.491 OA
ATOM     10  C19 UNL     1       4.336   2.372  -1.127  0.00  0.00    +0.277 C 
ENDBRANCH   8   9
BRANCH   2  11
ATOM     11  O1  UNL     1       4.524  -0.457   1.855  0.00  0.00    -0.487 OA
BRANCH  11  13
ATOM     12  C1  UNL     1       6.118  -2.220   1.648  0.00  0.00    +0.048 C 
ATOM     13  C2  UNL     1       4.912  -1.550   1.015  0.00  0.00    +0.226 C 
ENDBRANCH  11  13
ENDBRANCH   2  11
ENDBRANCH   1   6
BRANCH   1  14
ATOM     14  N1  UNL     1      -1.082   1.057  -0.862  0.00  0.00    -0.307 NA
ATOM     15  H9  UNL     1      -0.403   1.219  -1.604  0.00  0.00    +0.123 HD
BRANCH  14  16
ATOM     16  C8  UNL     1      -1.428  -0.379  -0.819  0.00  0.00    +0.084 C 
ATOM     17  C9  UNL     1      -1.630  -0.865  -2.264  0.00  0.00    +0.027 C 
BRANCH  16  18
ATOM     18  C10 UNL     1      -2.639  -0.773   0.094  0.00  0.00    +0.161 C 
BRANCH  18  19
ATOM     19  C11 UNL     1      -4.003  -0.324  -0.404  0.00  0.00    -0.018 A 
ATOM     20  C12 UNL     1      -4.912  -1.225  -0.983  0.00  0.00    +0.006 A 
ATOM     21  C13 UNL     1      -6.160  -0.792  -1.438  0.00  0.00    +0.000 A 
ATOM     22  C14 UNL     1      -6.518   0.548  -1.322  0.00  0.00    +0.000 A 
ATOM     23  C15 UNL     1      -5.630   1.456  -0.752  0.00  0.00    +0.000 A 
ATOM     24  C16 UNL     1      -4.383   1.023  -0.296  0.00  0.00    +0.006 A 
ENDBRANCH  18  19
BRANCH  18  25
ATOM     25  O2  UNL     1      -2.632  -2.195   0.293  0.00  0.00    -0.386 OA
ATOM     26  H15 UNL     1      -1.834  -2.407   0.806  0.00  0.00    +0.210 HD
ENDBRANCH  18  25
ENDBRANCH  16  18
ENDBRANCH  14  16
ENDBRANCH   1  14
TORSDOF 9
