REMARK  Name = /home/vital/Documents/PhD_2021/Malaria_codes/data/pdb_ligands_mmv/ligand_301.pdb
REMARK  8 active torsions:
REMARK  status: ('A' for Active; 'I' for Inactive)
REMARK    1  A    between atoms: C1_2  and  C8_10
REMARK    2  A    between atoms: N1_3  and  C2_4
REMARK    3  A    between atoms: C8_10  and  N2_11
REMARK    4  A    between atoms: C8_10  and  C22_27
REMARK    5  A    between atoms: N2_11  and  C9_12
REMARK    6  A    between atoms: C9_12  and  C10_13
REMARK    7  A    between atoms: C10_13  and  C11_14
REMARK    8  A    between atoms: C17_20  and  C18_22
REMARK                            x       y       z     vdW  Elec       q    Type
REMARK                         _______ _______ _______ _____ _____    ______ ____
ROOT
ATOM      1  C8  UNL     1      -0.197   1.157  -0.016  0.00  0.00    +0.199 C 
ENDROOT
BRANCH   1   2
ATOM      2  C22 UNL     1      -0.192   0.736   1.446  0.00  0.00    +0.019 A 
ATOM      3  C23 UNL     1      -0.574   1.516   2.526  0.00  0.00    +0.013 A 
ATOM      4  C24 UNL     1      -0.467   0.832   3.770  0.00  0.00    +0.008 A 
ATOM      5  C25 UNL     1      -0.010  -0.455   3.610  0.00  0.00    +0.045 A 
ATOM      6  S1  UNL     1       0.285  -0.830   1.972  0.00  0.00    -0.099 S 
ENDBRANCH   1   2
BRANCH   1   8
ATOM      7  O1  UNL     1       0.646  -0.116  -1.942  0.00  0.00    -0.273 OA
ATOM      8  C1  UNL     1       0.893   0.457  -0.881  0.00  0.00    +0.239 C 
ATOM      9  N1  UNL     1       2.193   0.610  -0.416  0.00  0.00    -0.311 N 
ATOM     10  H1  UNL     1       2.309   0.852   0.562  0.00  0.00    +0.149 HD
BRANCH   9  11
ATOM     11  C2  UNL     1       3.317  -0.030  -1.085  0.00  0.00    +0.073 C 
ATOM     12  C3  UNL     1       4.626   0.674  -0.725  0.00  0.00    +0.022 C 
ATOM     13  C4  UNL     1       5.814   0.099  -1.500  0.00  0.00    +0.002 C 
ATOM     14  C5  UNL     1       5.643  -1.374  -1.878  0.00  0.00    +0.000 C 
ATOM     15  C6  UNL     1       4.790  -2.122  -0.864  0.00  0.00    +0.002 C 
ATOM     16  C7  UNL     1       3.383  -1.530  -0.748  0.00  0.00    +0.022 C 
ENDBRANCH   9  11
ENDBRANCH   1   8
BRANCH   1  17
ATOM     17  N2  UNL     1      -1.564   1.034  -0.563  0.00  0.00    -0.279 N 
ATOM     18  C17 UNL     1      -2.205   2.056  -1.282  0.00  0.00    +0.283 C 
ATOM     19  O2  UNL     1      -3.140   1.792  -2.041  0.00  0.00    -0.267 OA
BRANCH  18  20
ATOM     20  C18 UNL     1      -1.787   3.438  -1.106  0.00  0.00    +0.189 A 
ATOM     21  O3  UNL     1      -1.315   3.885   0.101  0.00  0.00    -0.458 OA
ATOM     22  C19 UNL     1      -1.071   5.215  -0.025  0.00  0.00    +0.196 A 
ATOM     23  C20 UNL     1      -1.397   5.647  -1.288  0.00  0.00    +0.042 A 
ATOM     24  C21 UNL     1      -1.876   4.509  -1.978  0.00  0.00    +0.054 A 
ENDBRANCH  18  20
BRANCH  17  25
ATOM     25  C9  UNL     1      -2.123  -0.319  -0.711  0.00  0.00    +0.114 C 
BRANCH  25  26
ATOM     26  C10 UNL     1      -3.367  -0.517   0.164  0.00  0.00    +0.054 C 
BRANCH  26  27
ATOM     27  C11 UNL     1      -3.887  -1.930   0.087  0.00  0.00    -0.046 A 
ATOM     28  C12 UNL     1      -4.736  -2.315  -0.959  0.00  0.00    +0.004 A 
ATOM     29  C13 UNL     1      -5.200  -3.628  -1.044  0.00  0.00    +0.000 A 
ATOM     30  C14 UNL     1      -4.818  -4.568  -0.088  0.00  0.00    +0.000 A 
ATOM     31  C15 UNL     1      -3.969  -4.195   0.953  0.00  0.00    +0.000 A 
ATOM     32  C16 UNL     1      -3.503  -2.883   1.040  0.00  0.00    +0.004 A 
ENDBRANCH  26  27
ENDBRANCH  25  26
ENDBRANCH  17  25
ENDBRANCH   1  17
TORSDOF 8
