REMARK  Name = /home/vital/Documents/PhD_2021/Malaria_codes/data/pdb_ligands_mmv/ligand_61.pdb
REMARK  8 active torsions:
REMARK  status: ('A' for Active; 'I' for Inactive)
REMARK    1  A    between atoms: C1_1  and  O1_2
REMARK    2  A    between atoms: O1_2  and  C2_3
REMARK    3  A    between atoms: C5_6  and  C8_9
REMARK    4  A    between atoms: C11_13  and  C12_14
REMARK    5  A    between atoms: C12_14  and  C13_15
REMARK    6  A    between atoms: C17_20  and  C20_24
REMARK    7  A    between atoms: C23_27  and  O2_28
REMARK    8  A    between atoms: O2_28  and  C24_29
REMARK                            x       y       z     vdW  Elec       q    Type
REMARK                         _______ _______ _______ _____ _____    ______ ____
ROOT
ATOM      1  C12 UNL     1      -0.005   2.534   1.280  0.00  0.00    +0.070 C 
ENDROOT
BRANCH   1   6
ATOM      2  C8  UNL     1      -5.307   0.502  -0.547  0.00  0.00    +0.139 A 
ATOM      3  N1  UNL     1      -4.687   0.812   0.580  0.00  0.00    -0.228 NA
ATOM      4  C9  UNL     1      -3.430   1.234   0.227  0.00  0.00    +0.090 A 
ATOM      5  C10 UNL     1      -2.372   1.677   1.034  0.00  0.00    +0.033 A 
ATOM      6  C11 UNL     1      -1.161   2.060   0.427  0.00  0.00    -0.041 A 
ATOM      7  C27 UNL     1      -1.032   1.994  -0.971  0.00  0.00    +0.006 A 
ATOM      8  C28 UNL     1      -2.080   1.555  -1.790  0.00  0.00    +0.028 A 
ATOM      9  C29 UNL     1      -3.262   1.185  -1.148  0.00  0.00    +0.066 A 
ATOM     10  N4  UNL     1      -4.462   0.717  -1.615  0.00  0.00    -0.338 N 
ATOM     11  H24 UNL     1      -4.684   0.554  -2.583  0.00  0.00    +0.167 HD
BRANCH   2  15
ATOM     12  C2  UNL     1      -9.341  -0.964  -0.767  0.00  0.00    +0.120 A 
ATOM     13  C3  UNL     1      -8.739  -0.704   0.461  0.00  0.00    +0.046 A 
ATOM     14  C4  UNL     1      -7.423  -0.227   0.511  0.00  0.00    +0.015 A 
ATOM     15  C5  UNL     1      -6.682   0.000  -0.659  0.00  0.00    +0.018 A 
ATOM     16  C6  UNL     1      -7.299  -0.264  -1.889  0.00  0.00    +0.015 A 
ATOM     17  C7  UNL     1      -8.614  -0.741  -1.938  0.00  0.00    +0.046 A 
BRANCH  12  19
ATOM     18  C1  UNL     1     -11.393  -1.663   0.203  0.00  0.00    +0.277 C 
ATOM     19  O1  UNL     1     -10.611  -1.429  -0.961  0.00  0.00    -0.495 OA
ENDBRANCH  12  19
ENDBRANCH   2  15
ENDBRANCH   1   6
BRANCH   1  20
ATOM     20  C13 UNL     1       1.161   1.570   1.316  0.00  0.00    -0.041 A 
ATOM     21  C14 UNL     1       1.043   0.337   1.981  0.00  0.00    +0.006 A 
ATOM     22  C15 UNL     1       2.099  -0.582   2.028  0.00  0.00    +0.028 A 
ATOM     23  C16 UNL     1       3.277  -0.212   1.380  0.00  0.00    +0.066 A 
ATOM     24  N2  UNL     1       4.483  -0.844   1.219  0.00  0.00    -0.338 N 
ATOM     25  C17 UNL     1       5.321  -0.032   0.485  0.00  0.00    +0.139 A 
ATOM     26  N3  UNL     1       4.691   1.087   0.168  0.00  0.00    -0.228 NA
ATOM     27  C18 UNL     1       3.436   0.993   0.713  0.00  0.00    +0.090 A 
ATOM     28  C19 UNL     1       2.370   1.903   0.676  0.00  0.00    +0.033 A 
ATOM     29  H13 UNL     1       4.711  -1.759   1.572  0.00  0.00    +0.167 HD
BRANCH  25  30
ATOM     30  C20 UNL     1       6.698  -0.378   0.109  0.00  0.00    +0.018 A 
ATOM     31  C21 UNL     1       7.395   0.462  -0.770  0.00  0.00    +0.015 A 
ATOM     32  C22 UNL     1       8.707   0.169  -1.156  0.00  0.00    +0.046 A 
ATOM     33  C23 UNL     1       9.353  -0.967  -0.672  0.00  0.00    +0.120 A 
ATOM     34  C25 UNL     1       8.673  -1.809   0.207  0.00  0.00    +0.046 A 
ATOM     35  C26 UNL     1       7.357  -1.516   0.594  0.00  0.00    +0.015 A 
BRANCH  33  36
ATOM     36  O2  UNL     1      10.631  -1.138  -1.126  0.00  0.00    -0.495 OA
ATOM     37  C24 UNL     1      11.337  -2.278  -0.654  0.00  0.00    +0.277 C 
ENDBRANCH  33  36
ENDBRANCH  25  30
ENDBRANCH   1  20
TORSDOF 6
