REMARK  Name = /home/vital/Documents/PhD_2021/Malaria_codes/data/pdb_ligands_mmv/ligand_32.pdb
REMARK  8 active torsions:
REMARK  status: ('A' for Active; 'I' for Inactive)
REMARK    1  A    between atoms: C3_3  and  C4_4
REMARK    2  A    between atoms: C7_7  and  O1_8
REMARK    3  A    between atoms: O1_8  and  C8_9
REMARK    4  A    between atoms: C13_17  and  S1_18
REMARK    5  A    between atoms: S1_18  and  C14_19
REMARK    6  A    between atoms: C14_19  and  C15_20
REMARK    7  A    between atoms: N4_22  and  C16_23
REMARK    8  A    between atoms: C20_28  and  C21_29
REMARK                            x       y       z     vdW  Elec       q    Type
REMARK                         _______ _______ _______ _____ _____    ______ ____
ROOT
ATOM      1  C1  UNL     1       0.503  -1.264   1.450  0.00  0.00    +0.099 A 
ATOM      2  C2  UNL     1       1.460  -1.602   0.522  0.00  0.00    +0.060 A 
ATOM      3  C3  UNL     1       2.418  -0.554   0.567  0.00  0.00    +0.094 A 
ATOM      4  N1  UNL     1       2.062   0.368   1.478  0.00  0.00    -0.166 NA
ATOM      5  N2  UNL     1       0.898  -0.069   2.001  0.00  0.00    -0.235 N 
ATOM      6  C11 UNL     1       0.116   0.526   2.977  0.00  0.00    +0.132 A 
ATOM      7  C12 UNL     1      -1.018  -0.077   3.362  0.00  0.00    +0.132 A 
ATOM      8  N3  UNL     1      -1.469  -1.272   2.832  0.00  0.00    -0.245 NA
ATOM      9  C13 UNL     1      -0.724  -1.838   1.924  0.00  0.00    +0.123 A 
ENDROOT
BRANCH   3  10
ATOM     10  C4  UNL     1       3.648  -0.413  -0.224  0.00  0.00    +0.002 A 
ATOM     11  C5  UNL     1       4.549   0.630   0.041  0.00  0.00    +0.013 A 
ATOM     12  C6  UNL     1       5.728   0.779  -0.702  0.00  0.00    +0.046 A 
ATOM     13  C7  UNL     1       6.027  -0.116  -1.726  0.00  0.00    +0.120 A 
ATOM     14  C9  UNL     1       5.137  -1.156  -1.999  0.00  0.00    +0.046 A 
ATOM     15  C10 UNL     1       3.959  -1.306  -1.258  0.00  0.00    +0.013 A 
BRANCH  13  16
ATOM     16  O1  UNL     1       7.136  -0.088  -2.525  0.00  0.00    -0.495 OA
ATOM     17  C8  UNL     1       8.070   0.958  -2.289  0.00  0.00    +0.277 C 
ENDBRANCH  13  16
ENDBRANCH   3  10
BRANCH   9  18
ATOM     18  S1  UNL     1      -1.182  -3.371   1.233  0.00  0.00    -0.094 S 
BRANCH  18  19
ATOM     19  C14 UNL     1      -2.985  -3.191   1.234  0.00  0.00    +0.172 C 
BRANCH  19  20
ATOM     20  C15 UNL     1      -3.411  -2.091   0.273  0.00  0.00    +0.227 C 
ATOM     21  O2  UNL     1      -3.408  -2.280  -0.941  0.00  0.00    -0.275 OA
ATOM     22  N4  UNL     1      -3.777  -0.917   0.907  0.00  0.00    -0.284 N 
ATOM     23  H13 UNL     1      -3.630  -0.873   1.915  0.00  0.00    +0.155 HD
BRANCH  22  24
ATOM     24  C16 UNL     1      -4.245   0.284   0.320  0.00  0.00    +0.052 A 
ATOM     25  C17 UNL     1      -4.563   1.365   1.164  0.00  0.00    +0.062 A 
ATOM     26 CL1  UNL     1      -4.423   1.232   2.884  0.00  0.00    -0.082 Cl
ATOM     27  C18 UNL     1      -5.022   2.576   0.641  0.00  0.00    +0.022 A 
ATOM     28  C19 UNL     1      -5.174   2.727  -0.737  0.00  0.00    +0.014 A 
ATOM     29  C20 UNL     1      -4.872   1.666  -1.600  0.00  0.00    +0.057 A 
ATOM     30  C22 UNL     1      -4.410   0.449  -1.059  0.00  0.00    +0.037 A 
BRANCH  29  31
ATOM     31  C21 UNL     1      -5.034   1.804  -3.097  0.00  0.00    +0.417 C 
ATOM     32  F1  UNL     1      -5.497   3.028  -3.477  0.00  0.00    -0.166 F 
ATOM     33  F2  UNL     1      -3.864   1.625  -3.767  0.00  0.00    -0.166 F 
ATOM     34  F3  UNL     1      -5.910   0.900  -3.613  0.00  0.00    -0.166 F 
ENDBRANCH  29  31
ENDBRANCH  22  24
ENDBRANCH  19  20
ENDBRANCH  18  19
ENDBRANCH   9  18
TORSDOF 7
