REMARK  Name = /home/vital/Documents/PhD_2021/Malaria_codes/data/pdb_ligands_mmv/ligand_169.pdb
REMARK  7 active torsions:
REMARK  status: ('A' for Active; 'I' for Inactive)
REMARK    1  A    between atoms: C1_1  and  O1_2
REMARK    2  A    between atoms: O1_2  and  C2_3
REMARK    3  A    between atoms: C6_7  and  C7_8
REMARK    4  A    between atoms: N1_10  and  C8_11
REMARK    5  A    between atoms: C14_17  and  N2_18
REMARK    6  A    between atoms: C17_22  and  O3_23
REMARK    7  A    between atoms: O3_23  and  C18_24
REMARK                            x       y       z     vdW  Elec       q    Type
REMARK                         _______ _______ _______ _____ _____    ______ ____
ROOT
ATOM      1  C2  UNL     1       3.744  -0.940  -0.055  0.00  0.00    +0.162 A 
ATOM      2  C3  UNL     1       2.367  -1.077  -0.240  0.00  0.00    +0.059 A 
ATOM      3  C4  UNL     1       1.520   0.042  -0.139  0.00  0.00    +0.005 A 
ATOM      4  C5  UNL     1       0.135  -0.063  -0.314  0.00  0.00    +0.026 A 
ATOM      5  C6  UNL     1      -0.666   1.079  -0.203  0.00  0.00    +0.077 A 
ATOM      6  C14 UNL     1      -0.052   2.309   0.045  0.00  0.00    +0.129 A 
ATOM      7  N3  UNL     1       1.280   2.409   0.237  0.00  0.00    -0.232 NA
ATOM      8  C15 UNL     1       2.051   1.313   0.143  0.00  0.00    +0.077 A 
ATOM      9  C16 UNL     1       3.421   1.432   0.328  0.00  0.00    +0.077 A 
ATOM     10  C17 UNL     1       4.277   0.328   0.236  0.00  0.00    +0.164 A 
ENDROOT
BRANCH   5  11
ATOM     11  C7  UNL     1      -2.135   0.989  -0.396  0.00  0.00    +0.252 C 
ATOM     12  O2  UNL     1      -2.692   1.884  -1.022  0.00  0.00    -0.270 OA
ATOM     13  N1  UNL     1      -2.732  -0.108   0.199  0.00  0.00    -0.281 N 
ATOM     14  H6  UNL     1      -2.153  -0.688   0.793  0.00  0.00    +0.155 HD
BRANCH  13  15
ATOM     15  C8  UNL     1      -4.095  -0.472   0.148  0.00  0.00    +0.034 A 
ATOM     16  C9  UNL     1      -4.490  -1.582   0.907  0.00  0.00    +0.023 A 
ATOM     17  C10 UNL     1      -5.820  -2.011   0.908  0.00  0.00    +0.002 A 
ATOM     18  C11 UNL     1      -6.769  -1.334   0.147  0.00  0.00    +0.000 A 
ATOM     19  C12 UNL     1      -6.386  -0.232  -0.613  0.00  0.00    +0.002 A 
ATOM     20  C13 UNL     1      -5.054   0.197  -0.614  0.00  0.00    +0.023 A 
ENDBRANCH  13  15
ENDBRANCH   5  11
BRANCH   6  21
ATOM     21  N2  UNL     1      -0.779   3.502   0.179  0.00  0.00    -0.343 N 
ATOM     22  H12 UNL     1      -1.412   3.575  -0.624  0.00  0.00    +0.144 HD
ATOM     23  H13 UNL     1      -1.388   3.445   0.990  0.00  0.00    +0.144 HD
ENDBRANCH   6  21
BRANCH   1  25
ATOM     24  C1  UNL     1       4.161  -3.252  -0.511  0.00  0.00    +0.277 C 
ATOM     25  O1  UNL     1       4.645  -1.973  -0.129  0.00  0.00    -0.491 OA
ENDBRANCH   1  25
BRANCH  10  26
ATOM     26  O3  UNL     1       5.638   0.386   0.410  0.00  0.00    -0.491 OA
ATOM     27  C18 UNL     1       6.215   1.656   0.677  0.00  0.00    +0.277 C 
ENDBRANCH  10  26
TORSDOF 5
