REMARK  Name = /home/vital/Documents/PhD_2021/Malaria_codes/data/pdb_ligands_mmv/ligand_214.pdb
REMARK  7 active torsions:
REMARK  status: ('A' for Active; 'I' for Inactive)
REMARK    1  A    between atoms: C1_1  and  C2_2
REMARK    2  A    between atoms: C2_2  and  O1_3
REMARK    3  A    between atoms: O1_3  and  C3_4
REMARK    4  A    between atoms: C3_4  and  C4_6
REMARK    5  A    between atoms: C9_12  and  C10_14
REMARK    6  A    between atoms: C10_14  and  N2_15
REMARK    7  A    between atoms: C11_16  and  C19_25
REMARK                            x       y       z     vdW  Elec       q    Type
REMARK                         _______ _______ _______ _____ _____    ______ ____
ROOT
ATOM      1  N2  UNL     1      -1.564   1.039  -0.761  0.00  0.00    -0.278 N 
ATOM      2  C11 UNL     1      -2.762   0.845   0.041  0.00  0.00    +0.140 C 
ATOM      3  C12 UNL     1      -3.575   2.067  -0.278  0.00  0.00    -0.010 A 
ATOM      4  C13 UNL     1      -4.838   2.448   0.151  0.00  0.00    +0.006 A 
ATOM      5  C14 UNL     1      -5.342   3.679  -0.285  0.00  0.00    +0.000 A 
ATOM      6  C15 UNL     1      -4.585   4.515  -1.128  0.00  0.00    +0.001 A 
ATOM      7  C16 UNL     1      -3.311   4.132  -1.550  0.00  0.00    +0.013 A 
ATOM      8  C17 UNL     1      -2.837   2.910  -1.110  0.00  0.00    +0.042 A 
ATOM      9  C18 UNL     1      -1.544   2.271  -1.386  0.00  0.00    +0.248 C 
ATOM     10  O4  UNL     1      -0.647   2.767  -2.042  0.00  0.00    -0.270 OA
ENDROOT
BRANCH   2  11
ATOM     11  C19 UNL     1      -3.535  -0.346  -0.432  0.00  0.00    +0.002 A 
ATOM     12  C20 UNL     1      -3.862  -0.690  -1.735  0.00  0.00    +0.089 A 
ATOM     13  N3  UNL     1      -4.573  -1.857  -1.713  0.00  0.00    -0.360 N 
ATOM     14  C21 UNL     1      -4.712  -2.305  -0.422  0.00  0.00    +0.047 A 
ATOM     15  C22 UNL     1      -5.352  -3.449   0.070  0.00  0.00    +0.026 A 
ATOM     16  C23 UNL     1      -5.336  -3.658   1.452  0.00  0.00    +0.002 A 
ATOM     17  C24 UNL     1      -4.703  -2.758   2.305  0.00  0.00    +0.001 A 
ATOM     18  C25 UNL     1      -4.068  -1.618   1.797  0.00  0.00    +0.010 A 
ATOM     19  C26 UNL     1      -4.071  -1.382   0.405  0.00  0.00    +0.005 A 
ATOM     20  H23 UNL     1      -4.942  -2.330  -2.527  0.00  0.00    +0.165 HD
ENDBRANCH   2  11
BRANCH   1  21
ATOM     21  C10 UNL     1      -0.385   0.206  -0.614  0.00  0.00    +0.204 C 
BRANCH  21  28
ATOM     22  C4  UNL     1       4.481  -0.935   0.965  0.00  0.00    +0.101 C 
ATOM     23  C5  UNL     1       3.387  -1.811   0.336  0.00  0.00    +0.033 C 
ATOM     24  C6  UNL     1       2.240  -0.969  -0.216  0.00  0.00    +0.108 C 
ATOM     25  N1  UNL     1       1.642  -0.117   0.813  0.00  0.00    -0.300 N 
ATOM     26  C7  UNL     1       2.433   0.152   2.011  0.00  0.00    +0.108 C 
ATOM     27  C8  UNL     1       3.912   0.301   1.677  0.00  0.00    +0.033 C 
ATOM     28  C9  UNL     1       0.375   0.457   0.702  0.00  0.00    +0.233 C 
ATOM     29  O3  UNL     1      -0.126   1.100   1.628  0.00  0.00    -0.274 OA
BRANCH  22  30
ATOM     30  C3  UNL     1       5.492  -0.498  -0.081  0.00  0.00    +0.310 C 
ATOM     31  O2  UNL     1       5.334  -0.592  -1.290  0.00  0.00    -0.251 OA
BRANCH  30  32
ATOM     32  O1  UNL     1       6.601   0.007   0.531  0.00  0.00    -0.465 OA
BRANCH  32  34
ATOM     33  C1  UNL     1       8.565  -0.665  -0.713  0.00  0.00    +0.048 C 
ATOM     34  C2  UNL     1       7.638   0.477  -0.342  0.00  0.00    +0.229 C 
ENDBRANCH  32  34
ENDBRANCH  30  32
ENDBRANCH  22  30
ENDBRANCH  21  28
ENDBRANCH   1  21
TORSDOF 6
