REMARK  Name = /home/vital/Documents/PhD_2021/Malaria_codes/data/pdb_ligands_mmv/ligand_74.pdb
REMARK  6 active torsions:
REMARK  status: ('A' for Active; 'I' for Inactive)
REMARK    1  A    between atoms: C1_1  and  C2_2
REMARK    2  A    between atoms: C2_2  and  O1_3
REMARK    3  A    between atoms: O1_3  and  C3_4
REMARK    4  A    between atoms: C3_4  and  C4_6
REMARK    5  A    between atoms: C8_11  and  C13_17
REMARK    6  A    between atoms: C10_13  and  O3_14
REMARK                            x       y       z     vdW  Elec       q    Type
REMARK                         _______ _______ _______ _____ _____    ______ ____
ROOT
ATOM      1  C4  UNL     1      -2.501   0.727   0.369  0.00  0.00    +0.060 A 
ATOM      2  C5  UNL     1      -1.797   1.902   0.642  0.00  0.00    +0.017 A 
ATOM      3  C6  UNL     1      -0.400   1.919   0.556  0.00  0.00    +0.029 A 
ATOM      4  C7  UNL     1       0.327   0.791   0.202  0.00  0.00    +0.075 A 
ATOM      5  N1  UNL     1       1.666   0.874   0.139  0.00  0.00    -0.246 NA
ATOM      6  C8  UNL     1       2.389  -0.220  -0.215  0.00  0.00    +0.075 A 
ATOM      7  C9  UNL     1       1.780  -1.437  -0.499  0.00  0.00    +0.074 A 
ATOM      8  C10 UNL     1       0.395  -1.515  -0.426  0.00  0.00    +0.128 A 
ATOM      9  C11 UNL     1      -0.374  -0.396  -0.075  0.00  0.00    +0.043 A 
ATOM     10  C12 UNL     1      -1.786  -0.420   0.011  0.00  0.00    +0.028 A 
ENDROOT
BRANCH   6  11
ATOM     11  C13 UNL     1       3.854  -0.028  -0.262  0.00  0.00    +0.000 A 
ATOM     12  C14 UNL     1       4.489   0.853   0.633  0.00  0.00    +0.010 A 
ATOM     13  C15 UNL     1       5.874   1.043   0.612  0.00  0.00    +0.001 A 
ATOM     14  C16 UNL     1       6.656   0.360  -0.313  0.00  0.00    +0.000 A 
ATOM     15  C17 UNL     1       6.054  -0.509  -1.219  0.00  0.00    +0.001 A 
ATOM     16  C18 UNL     1       4.668  -0.699  -1.194  0.00  0.00    +0.010 A 
ENDBRANCH   6  11
BRANCH   1  17
ATOM     17  C3  UNL     1      -3.985   0.753   0.472  0.00  0.00    +0.339 C 
ATOM     18  O2  UNL     1      -4.618   1.749   0.781  0.00  0.00    -0.245 OA
BRANCH  17  19
ATOM     19  O1  UNL     1      -4.506  -0.463   0.175  0.00  0.00    -0.461 OA
BRANCH  19  21
ATOM     20  C1  UNL     1      -6.551  -0.152  -1.082  0.00  0.00    +0.048 C 
ATOM     21  C2  UNL     1      -5.936  -0.564   0.242  0.00  0.00    +0.229 C 
ENDBRANCH  19  21
ENDBRANCH  17  19
ENDBRANCH   1  17
BRANCH   8  22
ATOM     22  O3  UNL     1      -0.237  -2.701  -0.696  0.00  0.00    -0.506 OA
ATOM     23  H9  UNL     1       0.425  -3.382  -0.900  0.00  0.00    +0.292 HD
ENDBRANCH   8  22
TORSDOF 5
