REMARK  Name = /home/vital/Documents/PhD_2021/Malaria_codes/data/pdb_ligands_mmv/ligand_265.pdb
REMARK  9 active torsions:
REMARK  status: ('A' for Active; 'I' for Inactive)
REMARK    1  A    between atoms: C1_1  and  C2_2
REMARK    2  A    between atoms: C5_6  and  N2_7
REMARK    3  A    between atoms: N2_7  and  C6_8
REMARK    4  A    between atoms: C6_8  and  C7_9
REMARK    5  A    between atoms: C6_8  and  C20_23
REMARK    6  A    between atoms: C11_13  and  O1_14
REMARK    7  A    between atoms: O1_14  and  C12_15
REMARK    8  A    between atoms: C12_15  and  C13_16
REMARK    9  A    between atoms: C28_32  and  O2_33
REMARK                            x       y       z     vdW  Elec       q    Type
REMARK                         _______ _______ _______ _____ _____    ______ ____
ROOT
ATOM      1  C6  UNL     1      -1.276  -0.267  -0.691  0.00  0.00    +0.136 C 
ENDROOT
BRANCH   1   2
ATOM      2  C20 UNL     1      -2.146   0.858  -0.142  0.00  0.00    +0.021 A 
ATOM      3  C21 UNL     1      -2.943   1.662  -0.972  0.00  0.00    +0.010 A 
ATOM      4  C22 UNL     1      -3.709   2.704  -0.443  0.00  0.00    +0.010 A 
ATOM      5  C23 UNL     1      -3.691   2.968   0.936  0.00  0.00    +0.004 A 
ATOM      6  C24 UNL     1      -4.444   4.005   1.504  0.00  0.00    +0.011 A 
ATOM      7  C25 UNL     1      -4.394   4.223   2.876  0.00  0.00    +0.020 A 
ATOM      8  C26 UNL     1      -3.590   3.394   3.639  0.00  0.00    +0.111 A 
ATOM      9  N3  UNL     1      -2.846   2.385   3.131  0.00  0.00    -0.251 NA
ATOM     10  C27 UNL     1      -2.902   2.179   1.795  0.00  0.00    +0.113 A 
ATOM     11  C28 UNL     1      -2.150   1.146   1.231  0.00  0.00    +0.148 A 
BRANCH  11  12
ATOM     12  O2  UNL     1      -1.378   0.381   2.083  0.00  0.00    -0.504 OA
ATOM     13  H24 UNL     1      -1.508   0.801   2.960  0.00  0.00    +0.292 HD
ENDBRANCH  11  12
ENDBRANCH   1   2
BRANCH   1  14
ATOM     14  C7  UNL     1       0.187   0.150  -0.867  0.00  0.00    -0.019 A 
ATOM     15  C8  UNL     1       0.552   1.241  -1.671  0.00  0.00    +0.006 A 
ATOM     16  C9  UNL     1       1.895   1.579  -1.841  0.00  0.00    +0.004 A 
ATOM     17  C10 UNL     1       2.895   0.818  -1.232  0.00  0.00    +0.045 A 
ATOM     18  C11 UNL     1       2.555  -0.291  -0.461  0.00  0.00    +0.121 A 
ATOM     19  C19 UNL     1       1.207  -0.605  -0.263  0.00  0.00    +0.051 A 
BRANCH  18  20
ATOM     20  O1  UNL     1       3.437  -1.128   0.168  0.00  0.00    -0.487 OA
BRANCH  20  21
ATOM     21  C12 UNL     1       4.760  -1.216  -0.369  0.00  0.00    +0.264 C 
BRANCH  21  22
ATOM     22  C13 UNL     1       5.744  -0.362   0.396  0.00  0.00    -0.010 A 
ATOM     23  C14 UNL     1       6.744   0.349  -0.285  0.00  0.00    +0.007 A 
ATOM     24  C15 UNL     1       7.682   1.104   0.422  0.00  0.00    +0.000 A 
ATOM     25  C16 UNL     1       7.637   1.149   1.815  0.00  0.00    +0.000 A 
ATOM     26  C17 UNL     1       6.652   0.441   2.504  0.00  0.00    +0.000 A 
ATOM     27  C18 UNL     1       5.713  -0.313   1.799  0.00  0.00    +0.007 A 
ENDBRANCH  21  22
ENDBRANCH  20  21
ENDBRANCH  18  20
ENDBRANCH   1  14
BRANCH   1  28
ATOM     28  N2  UNL     1      -1.747  -0.765  -2.001  0.00  0.00    -0.318 N 
ATOM     29  H6  UNL     1      -0.968  -1.182  -2.502  0.00  0.00    +0.148 HD
BRANCH  28  35
ATOM     30  C1  UNL     1      -3.143  -5.388  -0.896  0.00  0.00    +0.044 C 
ATOM     31  C2  UNL     1      -3.444  -3.996  -1.358  0.00  0.00    -0.046 A 
ATOM     32  C3  UNL     1      -4.755  -3.606  -1.631  0.00  0.00    +0.023 A 
ATOM     33  C4  UNL     1      -4.983  -2.301  -2.028  0.00  0.00    +0.113 A 
ATOM     34  N1  UNL     1      -4.012  -1.372  -2.163  0.00  0.00    -0.240 NA
ATOM     35  C5  UNL     1      -2.747  -1.742  -1.886  0.00  0.00    +0.120 A 
ATOM     36  C29 UNL     1      -2.431  -3.041  -1.482  0.00  0.00    +0.046 A 
ENDBRANCH  28  35
ENDBRANCH   1  28
TORSDOF 8
