REMARK  Name = /home/vital/Documents/PhD_2021/Malaria_codes/data/pdb_ligands_mmv/ligand_23.pdb
REMARK  4 active torsions:
REMARK  status: ('A' for Active; 'I' for Inactive)
REMARK    1  A    between atoms: C1_1  and  S1_2
REMARK    2  A    between atoms: S1_2  and  C2_3
REMARK    3  A    between atoms: C7_8  and  C8_9
REMARK    4  A    between atoms: C10_14  and  C12_17
REMARK                            x       y       z     vdW  Elec       q    Type
REMARK                         _______ _______ _______ _____ _____    ______ ____
ROOT
ATOM      1  C8  UNL     1      -1.296  -0.596   0.518  0.00  0.00    +0.251 C 
ATOM      2  O1  UNL     1      -0.739  -1.537  -0.035  0.00  0.00    -0.270 OA
ATOM      3  N1  UNL     1      -0.736   0.608   0.870  0.00  0.00    -0.261 N 
ATOM      4  C9  UNL     1       0.562   0.928   0.592  0.00  0.00    +0.165 A 
ATOM      5  N2  UNL     1       1.490   0.210   0.018  0.00  0.00    -0.223 NA
ATOM      6  C10 UNL     1       2.666   0.946  -0.062  0.00  0.00    +0.098 A 
ATOM      7  C11 UNL     1       2.584   2.223   0.465  0.00  0.00    +0.078 A 
ATOM      8  S2  UNL     1       1.004   2.505   1.072  0.00  0.00    -0.060 S 
ATOM      9  H8  UNL     1      -1.298   1.331   1.297  0.00  0.00    +0.157 HD
ENDROOT
BRANCH   1  15
ATOM     10  C2  UNL     1      -3.707   0.245   0.805  0.00  0.00    +0.020 A 
ATOM     11  C3  UNL     1      -5.012  -0.032   1.246  0.00  0.00    +0.015 A 
ATOM     12  C4  UNL     1      -5.350  -1.290   1.749  0.00  0.00    +0.001 A 
ATOM     13  C5  UNL     1      -4.389  -2.293   1.817  0.00  0.00    +0.001 A 
ATOM     14  C6  UNL     1      -3.085  -2.031   1.396  0.00  0.00    +0.014 A 
ATOM     15  C7  UNL     1      -2.728  -0.763   0.904  0.00  0.00    +0.050 A 
BRANCH  10  17
ATOM     16  C1  UNL     1      -3.280   1.451  -1.623  0.00  0.00    +0.090 C 
ATOM     17  S1  UNL     1      -3.437   1.885   0.133  0.00  0.00    -0.128 S 
ENDBRANCH  10  17
ENDBRANCH   1  15
BRANCH   6  18
ATOM     18  C12 UNL     1       3.882   0.399  -0.660  0.00  0.00    +0.090 A 
ATOM     19  C13 UNL     1       3.892  -0.897  -1.169  0.00  0.00    +0.030 A 
ATOM     20  C14 UNL     1       5.067  -1.389  -1.732  0.00  0.00    +0.004 A 
ATOM     21  C15 UNL     1       6.193  -0.577  -1.771  0.00  0.00    +0.020 A 
ATOM     22  C16 UNL     1       6.099   0.699  -1.242  0.00  0.00    +0.111 A 
ATOM     23  N3  UNL     1       4.975   1.207  -0.689  0.00  0.00    -0.253 NA
ENDBRANCH   6  18
TORSDOF 3
