REMARK  Name = /home/vital/Documents/PhD_2021/Malaria_codes/data/pdb_ligands_mmv/ligand_1.pdb
REMARK  13 active torsions:
REMARK  status: ('A' for Active; 'I' for Inactive)
REMARK    1  A    between atoms: C1_1  and  N1_2
REMARK    2  A    between atoms: N1_2  and  C2_3
REMARK    3  A    between atoms: N1_2  and  C3_4
REMARK    4  A    between atoms: C6_7  and  C9_10
REMARK    5  A    between atoms: C9_10  and  O1_11
REMARK    6  A    between atoms: C9_10  and  C10_12
REMARK    7  A    between atoms: C9_10  and  C18_21
REMARK    8  A    between atoms: C13_15  and  N2_18
REMARK    9  A    between atoms: N2_18  and  C16_19
REMARK   10  A    between atoms: N2_18  and  C17_20
REMARK   11  A    between atoms: C21_24  and  N3_27
REMARK   12  A    between atoms: N3_27  and  C24_28
REMARK   13  A    between atoms: N3_27  and  C25_29
REMARK                            x       y       z     vdW  Elec       q    Type
REMARK                         _______ _______ _______ _____ _____    ______ ____
ROOT
ATOM      1  C9  UNL     1       0.221  -0.100  -1.149  0.00  0.00    +0.141 C 
ENDROOT
BRANCH   1   5
ATOM      2  C3  UNL     1      -3.584  -2.165  -0.180  0.00  0.00    +0.029 A 
ATOM      3  C4  UNL     1      -2.901  -2.380  -1.388  0.00  0.00    +0.023 A 
ATOM      4  C5  UNL     1      -1.703  -1.718  -1.707  0.00  0.00    +0.009 A 
ATOM      5  C6  UNL     1      -1.115  -0.803  -0.823  0.00  0.00    -0.007 A 
ATOM      6  C7  UNL     1      -1.774  -0.598   0.399  0.00  0.00    +0.009 A 
ATOM      7  C8  UNL     1      -2.972  -1.265   0.707  0.00  0.00    +0.023 A 
BRANCH   2   9
ATOM      8  C1  UNL     1      -5.495  -3.530  -0.923  0.00  0.00    +0.129 C 
ATOM      9  N1  UNL     1      -4.770  -2.839   0.141  0.00  0.00    -0.336 N 
ATOM     10  C2  UNL     1      -5.598  -2.316   1.227  0.00  0.00    +0.129 C 
ENDBRANCH   2   9
ENDBRANCH   1   5
BRANCH   1  11
ATOM     11  C10 UNL     1       1.467  -0.786  -0.540  0.00  0.00    -0.007 A 
ATOM     12  C11 UNL     1       1.406  -1.939   0.249  0.00  0.00    +0.009 A 
ATOM     13  C12 UNL     1       2.572  -2.534   0.762  0.00  0.00    +0.023 A 
ATOM     14  C13 UNL     1       3.858  -2.030   0.505  0.00  0.00    +0.029 A 
ATOM     15  C14 UNL     1       3.904  -0.870  -0.283  0.00  0.00    +0.023 A 
ATOM     16  C15 UNL     1       2.747  -0.268  -0.801  0.00  0.00    +0.009 A 
BRANCH  14  17
ATOM     17  N2  UNL     1       5.011  -2.619   1.036  0.00  0.00    -0.336 N 
ATOM     18  C16 UNL     1       6.315  -2.231   0.502  0.00  0.00    +0.129 C 
ATOM     19  C17 UNL     1       4.928  -3.974   1.578  0.00  0.00    +0.129 C 
ENDBRANCH  14  17
ENDBRANCH   1  11
BRANCH   1  20
ATOM     20  C18 UNL     1       0.127   1.410  -0.833  0.00  0.00    -0.007 A 
ATOM     21  C19 UNL     1       0.604   1.959   0.366  0.00  0.00    +0.009 A 
ATOM     22  C20 UNL     1       0.480   3.332   0.641  0.00  0.00    +0.023 A 
ATOM     23  C21 UNL     1      -0.140   4.226  -0.246  0.00  0.00    +0.029 A 
ATOM     24  C22 UNL     1      -0.613   3.662  -1.442  0.00  0.00    +0.023 A 
ATOM     25  C23 UNL     1      -0.495   2.292  -1.727  0.00  0.00    +0.009 A 
BRANCH  23  26
ATOM     26  N3  UNL     1      -0.245   5.597   0.027  0.00  0.00    -0.336 N 
ATOM     27  C24 UNL     1      -0.032   6.062   1.395  0.00  0.00    +0.129 C 
ATOM     28  C25 UNL     1      -1.149   6.410  -0.784  0.00  0.00    +0.129 C 
ENDBRANCH  23  26
ENDBRANCH   1  20
BRANCH   1  29
ATOM     29  O1  UNL     1       0.399  -0.188  -2.585  0.00  0.00    -0.375 OA
ATOM     30  H11 UNL     1       1.133  -0.802  -2.746  0.00  0.00    +0.211 HD
ENDBRANCH   1  29
TORSDOF 7
