REMARK  Name = /home/vital/Documents/PhD_2021/Malaria_codes/data/pdb_ligands_mmv/ligand_126.pdb
REMARK  8 active torsions:
REMARK  status: ('A' for Active; 'I' for Inactive)
REMARK    1  A    between atoms: C1_1  and  C2_2
REMARK    2  A    between atoms: C2_2  and  O1_3
REMARK    3  A    between atoms: O1_3  and  C3_4
REMARK    4  A    between atoms: C6_7  and  C9_10
REMARK    5  A    between atoms: C11_14  and  C12_16
REMARK    6  A    between atoms: C16_20  and  S1_22
REMARK    7  A    between atoms: S1_22  and  C18_25
REMARK    8  A    between atoms: C19_27  and  C20_28
REMARK                            x       y       z     vdW  Elec       q    Type
REMARK                         _______ _______ _______ _____ _____    ______ ____
ROOT
ATOM      1  C9  UNL     1       1.716  -1.171   0.134  0.00  0.00    +0.083 A 
ATOM      2  N1  UNL     1       0.663  -0.336  -0.210  0.00  0.00    -0.224 NA
ATOM      3  C10 UNL     1      -0.477  -0.930   0.046  0.00  0.00    +0.165 A 
ATOM      4  N2  UNL     1      -1.666  -0.310  -0.239  0.00  0.00    -0.261 N 
ATOM      5  C11 UNL     1      -2.929  -0.777   0.028  0.00  0.00    +0.250 C 
ATOM      6  O2  UNL     1      -3.245  -1.805   0.614  0.00  0.00    -0.270 OA
ATOM      7  S2  UNL     1      -0.371  -2.488   0.713  0.00  0.00    -0.057 S 
ATOM      8  C19 UNL     1       1.344  -2.384   0.694  0.00  0.00    +0.016 A 
ATOM      9  C20 UNL     1       2.162  -3.504   1.237  0.00  0.00    +0.054 C 
ATOM     10  H10 UNL     1      -1.533   0.613  -0.626  0.00  0.00    +0.157 HD
ENDROOT
BRANCH   1  14
ATOM     11  C3  UNL     1       5.724   0.191  -0.447  0.00  0.00    +0.121 A 
ATOM     12  C4  UNL     1       5.347  -1.087  -0.869  0.00  0.00    +0.046 A 
ATOM     13  C5  UNL     1       4.039  -1.545  -0.687  0.00  0.00    +0.013 A 
ATOM     14  C6  UNL     1       3.088  -0.730  -0.066  0.00  0.00    +0.001 A 
ATOM     15  C7  UNL     1       3.465   0.554   0.346  0.00  0.00    +0.013 A 
ATOM     16  C8  UNL     1       4.776   1.010   0.163  0.00  0.00    +0.046 A 
BRANCH  11  17
ATOM     17  O1  UNL     1       7.034   0.500  -0.685  0.00  0.00    -0.492 OA
BRANCH  17  19
ATOM     18  C1  UNL     1       7.980   1.941   1.021  0.00  0.00    +0.048 C 
ATOM     19  C2  UNL     1       7.491   1.824  -0.412  0.00  0.00    +0.225 C 
ENDBRANCH  17  19
ENDBRANCH  11  17
ENDBRANCH   1  14
BRANCH   5  20
ATOM     20  C12 UNL     1      -4.029   0.112  -0.439  0.00  0.00    +0.039 A 
ATOM     21  C13 UNL     1      -3.949   0.810  -1.653  0.00  0.00    +0.013 A 
ATOM     22  C14 UNL     1      -5.008   1.624  -2.064  0.00  0.00    +0.003 A 
ATOM     23  C15 UNL     1      -6.154   1.734  -1.276  0.00  0.00    +0.027 A 
ATOM     24  C16 UNL     1      -6.240   1.015  -0.081  0.00  0.00    +0.089 A 
ATOM     25  C17 UNL     1      -5.182   0.210   0.349  0.00  0.00    +0.040 A 
BRANCH  24  26
ATOM     26  S1  UNL     1      -7.691   1.147   0.936  0.00  0.00    -0.006 S 
ATOM     27  O3  UNL     1      -7.237   1.250   2.309  0.00  0.00    -0.170 OA
ATOM     28  O4  UNL     1      -8.542   2.168   0.354  0.00  0.00    -0.170 OA
ATOM     29  C18 UNL     1      -8.496  -0.419   0.720  0.00  0.00    +0.200 C 
ENDBRANCH  24  26
ENDBRANCH   5  20
TORSDOF 5
