MODEL 1
REMARK VINA RESULT:    -3.402      0.000      0.000
REMARK INTER + INTRA:          -3.402
REMARK INTER:                  -3.402
REMARK INTRA:                   0.000
REMARK UNBOUND:                 0.000
REMARK  Name = /home/vital/Documents/PhD_2021/Malaria_codes/scripts/../data/pdbqt_ligands/ligand_118_temp.pdb
REMARK                            x       y       z     vdW  Elec       q    Type
REMARK                         _______ _______ _______ _____ _____    ______ ____
ROOT
ATOM      1  O   UNL     1      21.595  23.495  17.879  0.00  0.00    -0.393 OA
ATOM      2  C   UNL     1      20.807  24.581  18.355  0.00  0.00    +0.060 C 
ATOM      3  C   UNL     1      19.866  25.101  17.265  0.00  0.00    +0.033 C 
ATOM      4  N   UNL     1      19.088  26.227  17.751  0.00  0.00    -0.333 N 
ATOM      5  C   UNL     1      17.952  26.638  17.105  0.00  0.00    +0.080 C 
ATOM      6  N   UNL     1      17.283  25.955  16.239  0.00  0.00    -0.235 NA
ATOM      7  C   UNL     1      16.207  26.602  15.742  0.00  0.00    +0.221 C 
ATOM      8  N   UNL     1      15.074  26.863  16.612  0.00  0.00    -0.276 N 
ATOM      9  C   UNL     1      13.819  27.002  15.880  0.00  0.00    -0.000 C 
ATOM     10  C   UNL     1      13.690  28.310  15.078  0.00  0.00    -0.033 C 
ATOM     11  C   UNL     1      15.002  28.906  14.525  0.00  0.00    -0.007 C 
ATOM     12  C   UNL     1      14.686  30.099  13.641  0.00  0.00    -0.050 C 
ATOM     13  C   UNL     1      15.211  31.331  13.711  0.00  0.00    +0.103 C 
ATOM     14 CL   UNL     1      16.399  31.792  14.872  0.00  0.00    -0.071 Cl
ATOM     15 CL   UNL     1      14.706  32.538  12.580  0.00  0.00    -0.071 Cl
ATOM     16  C   UNL     1      15.885  27.904  13.738  0.00  0.00    +0.006 C 
ATOM     17  N   UNL     1      16.045  26.571  14.312  0.00  0.00    -0.275 N 
ATOM     18  H   UNL     1      22.180  23.185  18.587  0.00  0.00    +0.000 HD
ATOM     19  H   UNL     1      19.383  26.704  18.560  0.00  0.00    +0.000 HD
ATOM     20  H   UNL     1      15.249  27.726  17.124  0.00  0.00    +0.000 HD
ATOM     21  H   UNL     1      14.977  26.063  17.237  0.00  0.00    +0.000 HD
ATOM     22  H   UNL     1      15.219  26.017  14.089  0.00  0.00    +0.000 HD
ATOM     23  H   UNL     1      16.890  26.161  13.913  0.00  0.00    +0.000 HD
ENDROOT
TORSDOF 0
ENDMDL
MODEL 2
REMARK VINA RESULT:    -3.321      1.505      1.628
REMARK INTER + INTRA:          -3.321
REMARK INTER:                  -3.321
REMARK INTRA:                   0.000
REMARK UNBOUND:                 0.000
REMARK  Name = /home/vital/Documents/PhD_2021/Malaria_codes/scripts/../data/pdbqt_ligands/ligand_118_temp.pdb
REMARK                            x       y       z     vdW  Elec       q    Type
REMARK                         _______ _______ _______ _____ _____    ______ ____
ROOT
ATOM      1  O   UNL     1      21.150  23.250  20.203  0.00  0.00    -0.393 OA
ATOM      2  C   UNL     1      20.086  24.170  20.419  0.00  0.00    +0.060 C 
ATOM      3  C   UNL     1      19.426  24.572  19.098  0.00  0.00    +0.033 C 
ATOM      4  N   UNL     1      18.362  25.533  19.326  0.00  0.00    -0.333 N 
ATOM      5  C   UNL     1      17.408  25.777  18.373  0.00  0.00    +0.080 C 
ATOM      6  N   UNL     1      17.143  25.029  17.356  0.00  0.00    -0.235 NA
ATOM      7  C   UNL     1      16.163  25.509  16.562  0.00  0.00    +0.221 C 
ATOM      8  N   UNL     1      14.800  25.544  17.061  0.00  0.00    -0.276 N 
ATOM      9  C   UNL     1      13.805  25.504  15.994  0.00  0.00    -0.000 C 
ATOM     10  C   UNL     1      13.692  26.804  15.177  0.00  0.00    -0.033 C 
ATOM     11  C   UNL     1      14.987  27.630  15.025  0.00  0.00    -0.007 C 
ATOM     12  C   UNL     1      14.742  28.789  14.076  0.00  0.00    -0.050 C 
ATOM     13  C   UNL     1      15.007  30.087  14.284  0.00  0.00    +0.103 C 
ATOM     14 CL   UNL     1      15.714  30.690  15.737  0.00  0.00    -0.071 Cl
ATOM     15 CL   UNL     1      14.652  31.239  13.044  0.00  0.00    -0.071 Cl
ATOM     16  C   UNL     1      16.216  26.820  14.539  0.00  0.00    +0.006 C 
ATOM     17  N   UNL     1      16.428  25.509  15.147  0.00  0.00    -0.275 N 
ATOM     18  H   UNL     1      21.550  23.012  21.054  0.00  0.00    +0.000 HD
ATOM     19  H   UNL     1      18.325  26.019  20.181  0.00  0.00    +0.000 HD
ATOM     20  H   UNL     1      14.670  26.403  17.595  0.00  0.00    +0.000 HD
ATOM     21  H   UNL     1      14.663  24.714  17.639  0.00  0.00    +0.000 HD
ATOM     22  H   UNL     1      15.807  24.837  14.697  0.00  0.00    +0.000 HD
ATOM     23  H   UNL     1      17.409  25.261  15.015  0.00  0.00    +0.000 HD
ENDROOT
TORSDOF 0
ENDMDL
MODEL 3
REMARK VINA RESULT:    -3.269      3.729      4.172
REMARK INTER + INTRA:          -3.269
REMARK INTER:                  -3.269
REMARK INTRA:                   0.000
REMARK UNBOUND:                 0.000
REMARK  Name = /home/vital/Documents/PhD_2021/Malaria_codes/scripts/../data/pdbqt_ligands/ligand_118_temp.pdb
REMARK                            x       y       z     vdW  Elec       q    Type
REMARK                         _______ _______ _______ _____ _____    ______ ____
ROOT
ATOM      1  O   UNL     1      17.907  27.667  24.424  0.00  0.00    -0.393 OA
ATOM      2  C   UNL     1      16.847  28.230  23.660  0.00  0.00    +0.060 C 
ATOM      3  C   UNL     1      16.945  27.818  22.190  0.00  0.00    +0.033 C 
ATOM      4  N   UNL     1      15.877  28.421  21.413  0.00  0.00    -0.333 N 
ATOM      5  C   UNL     1      15.540  27.943  20.174  0.00  0.00    +0.080 C 
ATOM      6  N   UNL     1      15.868  26.793  19.691  0.00  0.00    -0.235 NA
ATOM      7  C   UNL     1      15.418  26.576  18.437  0.00  0.00    +0.221 C 
ATOM      8  N   UNL     1      13.992  26.413  18.214  0.00  0.00    -0.276 N 
ATOM      9  C   UNL     1      13.691  25.631  17.019  0.00  0.00    -0.000 C 
ATOM     10  C   UNL     1      13.961  26.364  15.692  0.00  0.00    -0.033 C 
ATOM     11  C   UNL     1      15.114  27.390  15.700  0.00  0.00    -0.007 C 
ATOM     12  C   UNL     1      15.345  27.907  14.292  0.00  0.00    -0.050 C 
ATOM     13  C   UNL     1      15.410  29.184  13.889  0.00  0.00    +0.103 C 
ATOM     14 CL   UNL     1      15.243  30.526  14.959  0.00  0.00    -0.071 Cl
ATOM     15 CL   UNL     1      15.697  29.539  12.221  0.00  0.00    -0.071 Cl
ATOM     16  C   UNL     1      16.450  26.856  16.275  0.00  0.00    +0.006 C 
ATOM     17  N   UNL     1      16.373  26.055  17.494  0.00  0.00    -0.275 N 
ATOM     18  H   UNL     1      17.822  27.943  25.350  0.00  0.00    +0.000 HD
ATOM     19  H   UNL     1      15.385  29.189  21.783  0.00  0.00    +0.000 HD
ATOM     20  H   UNL     1      13.571  27.336  18.114  0.00  0.00    +0.000 HD
ATOM     21  H   UNL     1      13.613  25.908  19.015  0.00  0.00    +0.000 HD
ATOM     22  H   UNL     1      16.101  25.104  17.244  0.00  0.00    +0.000 HD
ATOM     23  H   UNL     1      17.291  26.077  17.938  0.00  0.00    +0.000 HD
ENDROOT
TORSDOF 0
ENDMDL
MODEL 4
REMARK VINA RESULT:    -3.149      4.936      6.917
REMARK INTER + INTRA:          -3.149
REMARK INTER:                  -3.149
REMARK INTRA:                   0.000
REMARK UNBOUND:                 0.000
REMARK  Name = /home/vital/Documents/PhD_2021/Malaria_codes/scripts/../data/pdbqt_ligands/ligand_118_temp.pdb
REMARK                            x       y       z     vdW  Elec       q    Type
REMARK                         _______ _______ _______ _____ _____    ______ ____
ROOT
ATOM      1  O   UNL     1      15.236  34.693  15.982  0.00  0.00    -0.393 OA
ATOM      2  C   UNL     1      15.987  33.657  15.360  0.00  0.00    +0.060 C 
ATOM      3  C   UNL     1      15.561  32.280  15.874  0.00  0.00    +0.033 C 
ATOM      4  N   UNL     1      16.354  31.231  15.256  0.00  0.00    -0.333 N 
ATOM      5  C   UNL     1      15.945  29.924  15.279  0.00  0.00    +0.080 C 
ATOM      6  N   UNL     1      14.753  29.506  15.542  0.00  0.00    -0.235 NA
ATOM      7  C   UNL     1      14.622  28.163  15.511  0.00  0.00    +0.221 C 
ATOM      8  N   UNL     1      14.730  27.470  14.240  0.00  0.00    -0.276 N 
ATOM      9  C   UNL     1      14.016  26.197  14.228  0.00  0.00    -0.000 C 
ATOM     10  C   UNL     1      14.683  25.083  15.056  0.00  0.00    -0.033 C 
ATOM     11  C   UNL     1      15.475  25.537  16.300  0.00  0.00    -0.007 C 
ATOM     12  C   UNL     1      15.937  24.321  17.081  0.00  0.00    -0.050 C 
ATOM     13  C   UNL     1      17.178  24.042  17.504  0.00  0.00    +0.103 C 
ATOM     14 CL   UNL     1      18.530  25.077  17.225  0.00  0.00    -0.071 Cl
ATOM     15 CL   UNL     1      17.471  22.590  18.396  0.00  0.00    -0.071 Cl
ATOM     16  C   UNL     1      14.700  26.490  17.246  0.00  0.00    +0.006 C 
ATOM     17  N   UNL     1      13.930  27.561  16.621  0.00  0.00    -0.275 N 
ATOM     18  H   UNL     1      15.525  35.553  15.639  0.00  0.00    +0.000 HD
ATOM     19  H   UNL     1      17.200  31.464  14.812  0.00  0.00    +0.000 HD
ATOM     20  H   UNL     1      15.715  27.293  14.048  0.00  0.00    +0.000 HD
ATOM     21  H   UNL     1      14.306  28.066  13.529  0.00  0.00    +0.000 HD
ATOM     22  H   UNL     1      13.047  27.177  16.286  0.00  0.00    +0.000 HD
ATOM     23  H   UNL     1      13.780  28.286  17.324  0.00  0.00    +0.000 HD
ENDROOT
TORSDOF 0
ENDMDL
MODEL 5
REMARK VINA RESULT:    -3.053     19.267     20.707
REMARK INTER + INTRA:          -3.053
REMARK INTER:                  -3.053
REMARK INTRA:                   0.000
REMARK UNBOUND:                 0.000
REMARK  Name = /home/vital/Documents/PhD_2021/Malaria_codes/scripts/../data/pdbqt_ligands/ligand_118_temp.pdb
REMARK                            x       y       z     vdW  Elec       q    Type
REMARK                         _______ _______ _______ _____ _____    ______ ____
ROOT
ATOM      1  O   UNL     1      20.546  42.394  21.320  0.00  0.00    -0.393 OA
ATOM      2  C   UNL     1      19.235  42.110  21.797  0.00  0.00    +0.060 C 
ATOM      3  C   UNL     1      18.801  43.124  22.858  0.00  0.00    +0.033 C 
ATOM      4  N   UNL     1      17.475  42.809  23.360  0.00  0.00    -0.333 N 
ATOM      5  C   UNL     1      16.733  43.738  24.041  0.00  0.00    +0.080 C 
ATOM      6  N   UNL     1      16.942  45.011  24.057  0.00  0.00    -0.235 NA
ATOM      7  C   UNL     1      16.069  45.700  24.822  0.00  0.00    +0.221 C 
ATOM      8  N   UNL     1      14.682  45.797  24.403  0.00  0.00    -0.276 N 
ATOM      9  C   UNL     1      14.013  46.982  24.928  0.00  0.00    -0.000 C 
ATOM     10  C   UNL     1      13.704  46.925  26.436  0.00  0.00    -0.033 C 
ATOM     11  C   UNL     1      14.691  46.119  27.306  0.00  0.00    -0.007 C 
ATOM     12  C   UNL     1      14.331  46.287  28.771  0.00  0.00    -0.050 C 
ATOM     13  C   UNL     1      14.141  45.322  29.682  0.00  0.00    +0.103 C 
ATOM     14 CL   UNL     1      14.288  43.640  29.329  0.00  0.00    -0.071 Cl
ATOM     15 CL   UNL     1      13.748  45.752  31.310  0.00  0.00    -0.071 Cl
ATOM     16  C   UNL     1      16.183  46.486  27.099  0.00  0.00    +0.006 C 
ATOM     17  N   UNL     1      16.634  46.671  25.723  0.00  0.00    -0.275 N 
ATOM     18  H   UNL     1      20.796  41.738  20.651  0.00  0.00    +0.000 HD
ATOM     19  H   UNL     1      17.103  41.911  23.208  0.00  0.00    +0.000 HD
ATOM     20  H   UNL     1      14.184  44.970  24.731  0.00  0.00    +0.000 HD
ATOM     21  H   UNL     1      14.674  45.866  23.385  0.00  0.00    +0.000 HD
ATOM     22  H   UNL     1      16.362  47.603  25.411  0.00  0.00    +0.000 HD
ATOM     23  H   UNL     1      17.648  46.553  25.710  0.00  0.00    +0.000 HD
ENDROOT
TORSDOF 0
ENDMDL
MODEL 6
REMARK VINA RESULT:    -3.009      2.882      3.170
REMARK INTER + INTRA:          -3.009
REMARK INTER:                  -3.009
REMARK INTRA:                   0.000
REMARK UNBOUND:                 0.000
REMARK  Name = /home/vital/Documents/PhD_2021/Malaria_codes/scripts/../data/pdbqt_ligands/ligand_118_temp.pdb
REMARK                            x       y       z     vdW  Elec       q    Type
REMARK                         _______ _______ _______ _____ _____    ______ ____
ROOT
ATOM      1  O   UNL     1      18.298  26.848  22.886  0.00  0.00    -0.393 OA
ATOM      2  C   UNL     1      17.141  27.531  22.417  0.00  0.00    +0.060 C 
ATOM      3  C   UNL     1      17.157  27.663  20.892  0.00  0.00    +0.033 C 
ATOM      4  N   UNL     1      15.988  28.388  20.426  0.00  0.00    -0.333 N 
ATOM      5  C   UNL     1      15.594  28.336  19.115  0.00  0.00    +0.080 C 
ATOM      6  N   UNL     1      15.972  27.461  18.245  0.00  0.00    -0.235 NA
ATOM      7  C   UNL     1      15.444  27.647  17.016  0.00  0.00    +0.221 C 
ATOM      8  N   UNL     1      14.022  27.430  16.816  0.00  0.00    -0.276 N 
ATOM      9  C   UNL     1      13.691  27.083  15.438  0.00  0.00    -0.000 C 
ATOM     10  C   UNL     1      13.800  28.251  14.441  0.00  0.00    -0.033 C 
ATOM     11  C   UNL     1      14.867  29.321  14.756  0.00  0.00    -0.007 C 
ATOM     12  C   UNL     1      14.947  30.312  13.609  0.00  0.00    -0.050 C 
ATOM     13  C   UNL     1      14.883  31.649  13.677  0.00  0.00    +0.103 C 
ATOM     14 CL   UNL     1      14.695  32.516  15.156  0.00  0.00    -0.071 Cl
ATOM     15 CL   UNL     1      15.011  32.584  12.228  0.00  0.00    -0.071 Cl
ATOM     16  C   UNL     1      16.281  28.757  15.045  0.00  0.00    +0.006 C 
ATOM     17  N   UNL     1      16.361  27.581  15.908  0.00  0.00    -0.275 N 
ATOM     18  H   UNL     1      18.264  26.778  23.852  0.00  0.00    +0.000 HD
ATOM     19  H   UNL     1      15.468  28.928  21.064  0.00  0.00    +0.000 HD
ATOM     20  H   UNL     1      13.524  28.284  17.065  0.00  0.00    +0.000 HD
ATOM     21  H   UNL     1      13.746  26.645  17.405  0.00  0.00    +0.000 HD
ATOM     22  H   UNL     1      16.145  26.753  15.353  0.00  0.00    +0.000 HD
ATOM     23  H   UNL     1      17.307  27.540  16.290  0.00  0.00    +0.000 HD
ENDROOT
TORSDOF 0
ENDMDL
MODEL 7
REMARK VINA RESULT:    -3.007      4.866      7.395
REMARK INTER + INTRA:          -3.007
REMARK INTER:                  -3.007
REMARK INTRA:                   0.000
REMARK UNBOUND:                 0.000
REMARK  Name = /home/vital/Documents/PhD_2021/Malaria_codes/scripts/../data/pdbqt_ligands/ligand_118_temp.pdb
REMARK                            x       y       z     vdW  Elec       q    Type
REMARK                         _______ _______ _______ _____ _____    ______ ____
ROOT
ATOM      1  O   UNL     1      13.959  31.496  14.159  0.00  0.00    -0.393 OA
ATOM      2  C   UNL     1      14.836  30.485  13.676  0.00  0.00    +0.060 C 
ATOM      3  C   UNL     1      15.134  29.447  14.761  0.00  0.00    +0.033 C 
ATOM      4  N   UNL     1      16.053  28.436  14.269  0.00  0.00    -0.333 N 
ATOM      5  C   UNL     1      16.199  27.235  14.910  0.00  0.00    +0.080 C 
ATOM      6  N   UNL     1      15.385  26.734  15.777  0.00  0.00    -0.235 NA
ATOM      7  C   UNL     1      15.774  25.538  16.268  0.00  0.00    +0.221 C 
ATOM      8  N   UNL     1      15.769  24.378  15.395  0.00  0.00    -0.276 N 
ATOM      9  C   UNL     1      15.624  23.122  16.123  0.00  0.00    -0.000 C 
ATOM     10  C   UNL     1      16.872  22.698  16.919  0.00  0.00    -0.033 C 
ATOM     11  C   UNL     1      17.751  23.839  17.473  0.00  0.00    -0.007 C 
ATOM     12  C   UNL     1      18.844  23.259  18.351  0.00  0.00    -0.050 C 
ATOM     13  C   UNL     1      20.162  23.491  18.278  0.00  0.00    +0.103 C 
ATOM     14 CL   UNL     1      20.876  24.549  17.118  0.00  0.00    -0.071 Cl
ATOM     15 CL   UNL     1      21.228  22.723  19.402  0.00  0.00    -0.071 Cl
ATOM     16  C   UNL     1      16.977  24.923  18.266  0.00  0.00    +0.006 C 
ATOM     17  N   UNL     1      15.712  25.382  17.698  0.00  0.00    -0.275 N 
ATOM     18  H   UNL     1      13.786  32.139  13.454  0.00  0.00    +0.000 HD
ATOM     19  H   UNL     1      16.582  28.618  13.459  0.00  0.00    +0.000 HD
ATOM     20  H   UNL     1      16.648  24.356  14.879  0.00  0.00    +0.000 HD
ATOM     21  H   UNL     1      14.967  24.466  14.772  0.00  0.00    +0.000 HD
ATOM     22  H   UNL     1      14.987  24.701  17.922  0.00  0.00    +0.000 HD
ATOM     23  H   UNL     1      15.505  26.296  18.101  0.00  0.00    +0.000 HD
ENDROOT
TORSDOF 0
ENDMDL
MODEL 8
REMARK VINA RESULT:    -2.950     19.866     21.289
REMARK INTER + INTRA:          -2.950
REMARK INTER:                  -2.950
REMARK INTRA:                   0.000
REMARK UNBOUND:                 0.000
REMARK  Name = /home/vital/Documents/PhD_2021/Malaria_codes/scripts/../data/pdbqt_ligands/ligand_118_temp.pdb
REMARK                            x       y       z     vdW  Elec       q    Type
REMARK                         _______ _______ _______ _____ _____    ______ ____
ROOT
ATOM      1  O   UNL     1      14.182  43.474  31.757  0.00  0.00    -0.393 OA
ATOM      2  C   UNL     1      14.865  44.604  31.226  0.00  0.00    +0.060 C 
ATOM      3  C   UNL     1      15.023  44.491  29.708  0.00  0.00    +0.033 C 
ATOM      4  N   UNL     1      15.747  45.633  29.179  0.00  0.00    -0.333 N 
ATOM      5  C   UNL     1      15.714  45.940  27.844  0.00  0.00    +0.080 C 
ATOM      6  N   UNL     1      14.858  45.500  26.986  0.00  0.00    -0.235 NA
ATOM      7  C   UNL     1      15.061  45.948  25.729  0.00  0.00    +0.221 C 
ATOM      8  N   UNL     1      14.836  47.352  25.433  0.00  0.00    -0.276 N 
ATOM      9  C   UNL     1      14.510  47.590  24.030  0.00  0.00    -0.000 C 
ATOM     10  C   UNL     1      15.697  47.427  23.063  0.00  0.00    -0.033 C 
ATOM     11  C   UNL     1      16.769  46.392  23.464  0.00  0.00    -0.007 C 
ATOM     12  C   UNL     1      17.781  46.247  22.342  0.00  0.00    -0.050 C 
ATOM     13  C   UNL     1      19.116  46.328  22.428  0.00  0.00    +0.103 C 
ATOM     14 CL   UNL     1      19.956  46.619  23.906  0.00  0.00    -0.071 Cl
ATOM     15 CL   UNL     1      20.077  46.114  21.006  0.00  0.00    -0.071 Cl
ATOM     16  C   UNL     1      16.211  44.995  23.835  0.00  0.00    +0.006 C 
ATOM     17  N   UNL     1      15.021  44.960  24.682  0.00  0.00    -0.275 N 
ATOM     18  H   UNL     1      14.095  43.570  32.718  0.00  0.00    +0.000 HD
ATOM     19  H   UNL     1      16.272  46.198  29.791  0.00  0.00    +0.000 HD
ATOM     20  H   UNL     1      15.682  47.872  25.663  0.00  0.00    +0.000 HD
ATOM     21  H   UNL     1      14.039  47.659  25.989  0.00  0.00    +0.000 HD
ATOM     22  H   UNL     1      14.202  45.133  24.100  0.00  0.00    +0.000 HD
ATOM     23  H   UNL     1      14.981  44.042  25.123  0.00  0.00    +0.000 HD
ENDROOT
TORSDOF 0
ENDMDL
