MODEL 1
REMARK VINA RESULT:    -4.475      0.000      0.000
REMARK INTER + INTRA:          -4.475
REMARK INTER:                  -4.475
REMARK INTRA:                   0.000
REMARK UNBOUND:                 0.000
REMARK  Name = /home/vital/Documents/PhD_2021/Malaria_codes/scripts/../data/pdbqt_ligands/ligand_471_temp.pdb
REMARK                            x       y       z     vdW  Elec       q    Type
REMARK                         _______ _______ _______ _____ _____    ______ ____
ROOT
ATOM      1  N   UNL     1      19.178  27.817  13.308  0.00  0.00    -0.281 N 
ATOM      2  N   UNL     1      18.130  28.667  13.177  0.00  0.00    -0.174 N 
ATOM      3  C   UNL     1      18.045  29.623  14.059  0.00  0.00    +0.145 C 
ATOM      4  N   UNL     1      18.976  29.907  15.059  0.00  0.00    -0.325 N 
ATOM      5  C   UNL     1      20.351  30.258  14.687  0.00  0.00    +0.034 C 
ATOM      6  C   UNL     1      21.348  29.603  15.644  0.00  0.00    +0.060 C 
ATOM      7  O   UNL     1      22.664  30.086  15.390  0.00  0.00    -0.393 OA
ATOM      8  C   UNL     1      16.813  30.479  14.021  0.00  0.00    +0.042 A 
ATOM      9  C   UNL     1      17.002  31.872  14.018  0.00  0.00    -0.049 A 
ATOM     10  C   UNL     1      15.905  32.733  13.995  0.00  0.00    -0.061 A 
ATOM     11  C   UNL     1      14.616  32.208  13.971  0.00  0.00    -0.060 A 
ATOM     12  C   UNL     1      14.426  30.824  13.969  0.00  0.00    -0.036 A 
ATOM     13  C   UNL     1      15.510  29.936  14.009  0.00  0.00    +0.074 A 
ATOM     14  N   UNL     1      15.191  28.564  13.995  0.00  0.00    -0.255 NA
ATOM     15  C   UNL     1      15.686  27.820  14.929  0.00  0.00    +0.033 C 
ATOM     16  C   UNL     1      15.487  26.367  14.975  0.00  0.00    -0.006 C 
ATOM     17  C   UNL     1      14.809  25.644  14.068  0.00  0.00    -0.054 C 
ATOM     18  C   UNL     1      14.830  24.256  14.465  0.00  0.00    -0.045 C 
ATOM     19  C   UNL     1      15.533  24.143  15.600  0.00  0.00    +0.041 C 
ATOM     20 CL   UNL     1      15.781  22.716  16.485  0.00  0.00    -0.086 Cl
ATOM     21  C   UNL     1      16.036  25.484  16.055  0.00  0.00    +0.096 C 
ATOM     22 CL   UNL     1      17.810  25.543  16.090  0.00  0.00    -0.111 Cl
ATOM     23  H   UNL     1      19.293  27.076  12.670  0.00  0.00    +0.000 HD
ATOM     24  H   UNL     1      19.823  27.941  14.042  0.00  0.00    +0.000 HD
ATOM     25  H   UNL     1      17.470  28.568  12.454  0.00  0.00    +0.000 HD
ATOM     26  H   UNL     1      18.712  29.873  16.007  0.00  0.00    +0.000 HD
ATOM     27  H   UNL     1      22.917  29.870  14.480  0.00  0.00    +0.000 HD
ENDROOT
TORSDOF 0
ENDMDL
MODEL 2
REMARK VINA RESULT:    -4.342      4.332      5.972
REMARK INTER + INTRA:          -4.342
REMARK INTER:                  -4.342
REMARK INTRA:                   0.000
REMARK UNBOUND:                 0.000
REMARK  Name = /home/vital/Documents/PhD_2021/Malaria_codes/scripts/../data/pdbqt_ligands/ligand_471_temp.pdb
REMARK                            x       y       z     vdW  Elec       q    Type
REMARK                         _______ _______ _______ _____ _____    ______ ____
ROOT
ATOM      1  N   UNL     1      13.754  26.688  17.238  0.00  0.00    -0.281 N 
ATOM      2  N   UNL     1      13.986  27.607  16.269  0.00  0.00    -0.174 N 
ATOM      3  C   UNL     1      15.018  27.394  15.502  0.00  0.00    +0.145 C 
ATOM      4  N   UNL     1      15.842  26.267  15.524  0.00  0.00    -0.325 N 
ATOM      5  C   UNL     1      15.265  24.944  15.260  0.00  0.00    +0.034 C 
ATOM      6  C   UNL     1      15.873  23.899  16.195  0.00  0.00    +0.060 C 
ATOM      7  O   UNL     1      15.445  22.594  15.819  0.00  0.00    -0.393 OA
ATOM      8  C   UNL     1      15.378  28.475  14.525  0.00  0.00    +0.042 A 
ATOM      9  C   UNL     1      15.576  28.088  13.188  0.00  0.00    -0.049 A 
ATOM     10  C   UNL     1      15.925  29.035  12.225  0.00  0.00    -0.061 A 
ATOM     11  C   UNL     1      16.072  30.369  12.590  0.00  0.00    -0.060 A 
ATOM     12  C   UNL     1      15.871  30.756  13.917  0.00  0.00    -0.036 A 
ATOM     13  C   UNL     1      15.537  29.823  14.909  0.00  0.00    +0.074 A 
ATOM     14  N   UNL     1      15.352  30.336  16.209  0.00  0.00    -0.255 NA
ATOM     15  C   UNL     1      16.024  29.796  17.171  0.00  0.00    +0.033 C 
ATOM     16  C   UNL     1      15.859  30.192  18.574  0.00  0.00    -0.006 C 
ATOM     17  C   UNL     1      14.998  31.120  19.025  0.00  0.00    -0.054 C 
ATOM     18  C   UNL     1      15.137  31.231  20.458  0.00  0.00    -0.045 C 
ATOM     19  C   UNL     1      16.069  30.360  20.869  0.00  0.00    +0.041 C 
ATOM     20 CL   UNL     1      16.627  30.168  22.461  0.00  0.00    -0.086 Cl
ATOM     21  C   UNL     1      16.637  29.595  19.707  0.00  0.00    +0.096 C 
ATOM     22 CL   UNL     1      16.321  27.853  19.851  0.00  0.00    -0.111 Cl
ATOM     23  H   UNL     1      12.988  26.797  17.846  0.00  0.00    +0.000 HD
ATOM     24  H   UNL     1      14.351  25.911  17.332  0.00  0.00    +0.000 HD
ATOM     25  H   UNL     1      13.405  28.393  16.151  0.00  0.00    +0.000 HD
ATOM     26  H   UNL     1      16.803  26.360  15.715  0.00  0.00    +0.000 HD
ATOM     27  H   UNL     1      14.478  22.541  15.878  0.00  0.00    +0.000 HD
ENDROOT
TORSDOF 0
ENDMDL
MODEL 3
REMARK VINA RESULT:    -4.250      3.501      6.241
REMARK INTER + INTRA:          -4.250
REMARK INTER:                  -4.250
REMARK INTRA:                   0.000
REMARK UNBOUND:                 0.000
REMARK  Name = /home/vital/Documents/PhD_2021/Malaria_codes/scripts/../data/pdbqt_ligands/ligand_471_temp.pdb
REMARK                            x       y       z     vdW  Elec       q    Type
REMARK                         _______ _______ _______ _____ _____    ______ ____
ROOT
ATOM      1  N   UNL     1      15.559  29.902  17.866  0.00  0.00    -0.281 N 
ATOM      2  N   UNL     1      15.099  28.865  17.126  0.00  0.00    -0.174 N 
ATOM      3  C   UNL     1      15.935  27.888  16.913  0.00  0.00    +0.145 C 
ATOM      4  N   UNL     1      17.216  27.767  17.454  0.00  0.00    -0.325 N 
ATOM      5  C   UNL     1      17.384  27.707  18.910  0.00  0.00    +0.034 C 
ATOM      6  C   UNL     1      18.604  28.521  19.343  0.00  0.00    +0.060 C 
ATOM      7  O   UNL     1      18.866  28.317  20.727  0.00  0.00    -0.393 OA
ATOM      8  C   UNL     1      15.494  26.805  15.972  0.00  0.00    +0.042 A 
ATOM      9  C   UNL     1      15.626  25.478  16.418  0.00  0.00    -0.049 A 
ATOM     10  C   UNL     1      15.250  24.417  15.594  0.00  0.00    -0.061 A 
ATOM     11  C   UNL     1      14.736  24.675  14.327  0.00  0.00    -0.060 A 
ATOM     12  C   UNL     1      14.600  25.993  13.884  0.00  0.00    -0.036 A 
ATOM     13  C   UNL     1      14.986  27.078  14.684  0.00  0.00    +0.074 A 
ATOM     14  N   UNL     1      14.794  28.359  14.131  0.00  0.00    -0.255 NA
ATOM     15  C   UNL     1      15.806  29.161  14.097  0.00  0.00    +0.033 C 
ATOM     16  C   UNL     1      15.709  30.543  13.616  0.00  0.00    -0.006 C 
ATOM     17  C   UNL     1      14.584  31.141  13.187  0.00  0.00    -0.054 C 
ATOM     18  C   UNL     1      14.895  32.494  12.790  0.00  0.00    -0.045 C 
ATOM     19  C   UNL     1      16.201  32.714  12.996  0.00  0.00    +0.041 C 
ATOM     20 CL   UNL     1      17.047  34.138  12.622  0.00  0.00    -0.086 Cl
ATOM     21  C   UNL     1      16.870  31.488  13.550  0.00  0.00    +0.096 C 
ATOM     22 CL   UNL     1      17.547  31.782  15.166  0.00  0.00    -0.111 Cl
ATOM     23  H   UNL     1      14.972  30.669  18.059  0.00  0.00    +0.000 HD
ATOM     24  H   UNL     1      16.481  29.890  18.211  0.00  0.00    +0.000 HD
ATOM     25  H   UNL     1      14.182  28.851  16.768  0.00  0.00    +0.000 HD
ATOM     26  H   UNL     1      18.001  27.723  16.862  0.00  0.00    +0.000 HD
ATOM     27  H   UNL     1      18.099  28.604  21.247  0.00  0.00    +0.000 HD
ENDROOT
TORSDOF 0
ENDMDL
MODEL 4
REMARK VINA RESULT:    -4.204      4.381      5.864
REMARK INTER + INTRA:          -4.204
REMARK INTER:                  -4.204
REMARK INTRA:                   0.000
REMARK UNBOUND:                 0.000
REMARK  Name = /home/vital/Documents/PhD_2021/Malaria_codes/scripts/../data/pdbqt_ligands/ligand_471_temp.pdb
REMARK                            x       y       z     vdW  Elec       q    Type
REMARK                         _______ _______ _______ _____ _____    ______ ____
ROOT
ATOM      1  N   UNL     1      14.365  26.467  17.845  0.00  0.00    -0.281 N 
ATOM      2  N   UNL     1      14.303  27.681  17.246  0.00  0.00    -0.174 N 
ATOM      3  C   UNL     1      14.892  27.788  16.088  0.00  0.00    +0.145 C 
ATOM      4  N   UNL     1      15.492  26.752  15.370  0.00  0.00    -0.325 N 
ATOM      5  C   UNL     1      14.684  25.603  14.949  0.00  0.00    +0.034 C 
ATOM      6  C   UNL     1      15.474  24.304  15.115  0.00  0.00    +0.060 C 
ATOM      7  O   UNL     1      14.757  23.215  14.543  0.00  0.00    -0.393 OA
ATOM      8  C   UNL     1      14.964  29.159  15.482  0.00  0.00    +0.042 A 
ATOM      9  C   UNL     1      14.543  29.292  14.147  0.00  0.00    -0.049 A 
ATOM     10  C   UNL     1      14.593  30.532  13.512  0.00  0.00    -0.061 A 
ATOM     11  C   UNL     1      15.056  31.646  14.207  0.00  0.00    -0.060 A 
ATOM     12  C   UNL     1      15.469  31.518  15.535  0.00  0.00    -0.036 A 
ATOM     13  C   UNL     1      15.447  30.279  16.192  0.00  0.00    +0.074 A 
ATOM     14  N   UNL     1      15.882  30.278  17.533  0.00  0.00    -0.255 NA
ATOM     15  C   UNL     1      16.808  29.442  17.867  0.00  0.00    +0.033 C 
ATOM     16  C   UNL     1      17.287  29.296  19.245  0.00  0.00    -0.006 C 
ATOM     17  C   UNL     1      16.819  29.973  20.308  0.00  0.00    -0.054 C 
ATOM     18  C   UNL     1      17.547  29.558  21.485  0.00  0.00    -0.045 C 
ATOM     19  C   UNL     1      18.438  28.622  21.132  0.00  0.00    +0.041 C 
ATOM     20 CL   UNL     1      19.566  27.878  22.160  0.00  0.00    -0.086 Cl
ATOM     21  C   UNL     1      18.371  28.347  19.656  0.00  0.00    +0.096 C 
ATOM     22 CL   UNL     1      17.909  26.665  19.322  0.00  0.00    -0.111 Cl
ATOM     23  H   UNL     1      13.938  26.328  18.721  0.00  0.00    +0.000 HD
ATOM     24  H   UNL     1      14.838  25.725  17.404  0.00  0.00    +0.000 HD
ATOM     25  H   UNL     1      13.837  28.442  17.663  0.00  0.00    +0.000 HD
ATOM     26  H   UNL     1      16.450  26.794  15.148  0.00  0.00    +0.000 HD
ATOM     27  H   UNL     1      13.901  23.120  14.990  0.00  0.00    +0.000 HD
ENDROOT
TORSDOF 0
ENDMDL
MODEL 5
REMARK VINA RESULT:    -4.122      3.940      6.728
REMARK INTER + INTRA:          -4.122
REMARK INTER:                  -4.122
REMARK INTRA:                   0.000
REMARK UNBOUND:                 0.000
REMARK  Name = /home/vital/Documents/PhD_2021/Malaria_codes/scripts/../data/pdbqt_ligands/ligand_471_temp.pdb
REMARK                            x       y       z     vdW  Elec       q    Type
REMARK                         _______ _______ _______ _____ _____    ______ ____
ROOT
ATOM      1  N   UNL     1      14.610  28.975  19.025  0.00  0.00    -0.281 N 
ATOM      2  N   UNL     1      14.508  27.848  18.280  0.00  0.00    -0.174 N 
ATOM      3  C   UNL     1      15.535  27.046  18.297  0.00  0.00    +0.145 C 
ATOM      4  N   UNL     1      16.682  27.192  19.080  0.00  0.00    -0.325 N 
ATOM      5  C   UNL     1      16.561  27.206  20.542  0.00  0.00    +0.034 C 
ATOM      6  C   UNL     1      17.498  28.254  21.146  0.00  0.00    +0.060 C 
ATOM      7  O   UNL     1      17.509  28.143  22.565  0.00  0.00    -0.393 OA
ATOM      8  C   UNL     1      15.501  25.872  17.362  0.00  0.00    +0.042 A 
ATOM      9  C   UNL     1      15.784  24.609  17.911  0.00  0.00    -0.049 A 
ATOM     10  C   UNL     1      15.783  23.473  17.102  0.00  0.00    -0.061 A 
ATOM     11  C   UNL     1      15.496  23.591  15.746  0.00  0.00    -0.060 A 
ATOM     12  C   UNL     1      15.210  24.844  15.199  0.00  0.00    -0.036 A 
ATOM     13  C   UNL     1      15.221  26.005  15.986  0.00  0.00    +0.074 A 
ATOM     14  N   UNL     1      14.909  27.209  15.322  0.00  0.00    -0.255 NA
ATOM     15  C   UNL     1      15.742  28.191  15.431  0.00  0.00    +0.033 C 
ATOM     16  C   UNL     1      15.489  29.514  14.849  0.00  0.00    -0.006 C 
ATOM     17  C   UNL     1      14.383  29.870  14.174  0.00  0.00    -0.054 C 
ATOM     18  C   UNL     1      14.511  31.246  13.757  0.00  0.00    -0.045 C 
ATOM     19  C   UNL     1      15.685  31.721  14.194  0.00  0.00    +0.041 C 
ATOM     20 CL   UNL     1      16.311  33.271  13.896  0.00  0.00    -0.086 Cl
ATOM     21  C   UNL     1      16.445  30.664  14.946  0.00  0.00    +0.096 C 
ATOM     22 CL   UNL     1      16.717  31.129  16.638  0.00  0.00    -0.111 Cl
ATOM     23  H   UNL     1      13.864  29.618  19.051  0.00  0.00    +0.000 HD
ATOM     24  H   UNL     1      15.430  29.152  19.541  0.00  0.00    +0.000 HD
ATOM     25  H   UNL     1      13.700  27.645  17.754  0.00  0.00    +0.000 HD
ATOM     26  H   UNL     1      17.564  27.284  18.654  0.00  0.00    +0.000 HD
ATOM     27  H   UNL     1      16.615  28.290  22.908  0.00  0.00    +0.000 HD
ENDROOT
TORSDOF 0
ENDMDL
MODEL 6
REMARK VINA RESULT:    -3.992      4.438      6.260
REMARK INTER + INTRA:          -3.992
REMARK INTER:                  -3.992
REMARK INTRA:                   0.000
REMARK UNBOUND:                 0.000
REMARK  Name = /home/vital/Documents/PhD_2021/Malaria_codes/scripts/../data/pdbqt_ligands/ligand_471_temp.pdb
REMARK                            x       y       z     vdW  Elec       q    Type
REMARK                         _______ _______ _______ _____ _____    ______ ____
ROOT
ATOM      1  N   UNL     1      16.881  30.418  16.271  0.00  0.00    -0.281 N 
ATOM      2  N   UNL     1      16.605  29.107  16.069  0.00  0.00    -0.174 N 
ATOM      3  C   UNL     1      15.509  28.839  15.416  0.00  0.00    +0.145 C 
ATOM      4  N   UNL     1      14.653  29.770  14.827  0.00  0.00    -0.325 N 
ATOM      5  C   UNL     1      15.162  30.658  13.776  0.00  0.00    +0.034 C 
ATOM      6  C   UNL     1      14.595  32.068  13.945  0.00  0.00    +0.060 C 
ATOM      7  O   UNL     1      14.949  32.878  12.829  0.00  0.00    -0.393 OA
ATOM      8  C   UNL     1      15.110  27.395  15.315  0.00  0.00    +0.042 A 
ATOM      9  C   UNL     1      14.795  26.907  14.035  0.00  0.00    -0.049 A 
ATOM     10  C   UNL     1      14.403  25.579  13.864  0.00  0.00    -0.061 A 
ATOM     11  C   UNL     1      14.330  24.733  14.966  0.00  0.00    -0.060 A 
ATOM     12  C   UNL     1      14.647  25.215  16.238  0.00  0.00    -0.036 A 
ATOM     13  C   UNL     1      15.027  26.550  16.442  0.00  0.00    +0.074 A 
ATOM     14  N   UNL     1      15.330  26.915  17.769  0.00  0.00    -0.255 NA
ATOM     15  C   UNL     1      14.718  27.938  18.267  0.00  0.00    +0.033 C 
ATOM     16  C   UNL     1      15.005  28.458  19.609  0.00  0.00    -0.006 C 
ATOM     17  C   UNL     1      15.930  27.969  20.452  0.00  0.00    -0.054 C 
ATOM     18  C   UNL     1      15.907  28.742  21.672  0.00  0.00    -0.045 C 
ATOM     19  C   UNL     1      14.982  29.704  21.555  0.00  0.00    +0.041 C 
ATOM     20 CL   UNL     1      14.545  30.823  22.754  0.00  0.00    -0.086 Cl
ATOM     21  C   UNL     1      14.299  29.632  20.217  0.00  0.00    +0.096 C 
ATOM     22 CL   UNL     1      14.567  31.105  19.262  0.00  0.00    -0.111 Cl
ATOM     23  H   UNL     1      17.696  30.680  16.758  0.00  0.00    +0.000 HD
ATOM     24  H   UNL     1      16.267  31.108  15.931  0.00  0.00    +0.000 HD
ATOM     25  H   UNL     1      17.200  28.395  16.398  0.00  0.00    +0.000 HD
ATOM     26  H   UNL     1      13.713  29.829  15.114  0.00  0.00    +0.000 HD
ATOM     27  H   UNL     1      15.915  32.935  12.765  0.00  0.00    +0.000 HD
ENDROOT
TORSDOF 0
ENDMDL
MODEL 7
REMARK VINA RESULT:    -3.948      4.712      5.426
REMARK INTER + INTRA:          -3.948
REMARK INTER:                  -3.948
REMARK INTRA:                   0.000
REMARK UNBOUND:                 0.000
REMARK  Name = /home/vital/Documents/PhD_2021/Malaria_codes/scripts/../data/pdbqt_ligands/ligand_471_temp.pdb
REMARK                            x       y       z     vdW  Elec       q    Type
REMARK                         _______ _______ _______ _____ _____    ______ ____
ROOT
ATOM      1  N   UNL     1      16.486  28.153  19.720  0.00  0.00    -0.281 N 
ATOM      2  N   UNL     1      16.524  29.331  19.052  0.00  0.00    -0.174 N 
ATOM      3  C   UNL     1      15.480  30.101  19.174  0.00  0.00    +0.145 C 
ATOM      4  N   UNL     1      14.378  29.871  19.999  0.00  0.00    -0.325 N 
ATOM      5  C   UNL     1      14.571  29.759  21.449  0.00  0.00    +0.034 C 
ATOM      6  C   UNL     1      13.691  28.648  22.022  0.00  0.00    +0.060 C 
ATOM      7  O   UNL     1      13.747  28.661  23.445  0.00  0.00    -0.393 OA
ATOM      8  C   UNL     1      15.439  31.337  18.323  0.00  0.00    +0.042 A 
ATOM      9  C   UNL     1      15.154  32.551  18.971  0.00  0.00    -0.049 A 
ATOM     10  C   UNL     1      15.087  33.739  18.244  0.00  0.00    -0.061 A 
ATOM     11  C   UNL     1      15.309  33.723  16.871  0.00  0.00    -0.060 A 
ATOM     12  C   UNL     1      15.598  32.518  16.225  0.00  0.00    -0.036 A 
ATOM     13  C   UNL     1      15.654  31.306  16.928  0.00  0.00    +0.074 A 
ATOM     14  N   UNL     1      15.961  30.159  16.168  0.00  0.00    -0.255 NA
ATOM     15  C   UNL     1      15.159  29.150  16.248  0.00  0.00    +0.033 C 
ATOM     16  C   UNL     1      15.414  27.877  15.564  0.00  0.00    -0.006 C 
ATOM     17  C   UNL     1      16.493  27.599  14.814  0.00  0.00    -0.054 C 
ATOM     18  C   UNL     1      16.377  26.251  14.308  0.00  0.00    -0.045 C 
ATOM     19  C   UNL     1      15.239  25.715  14.767  0.00  0.00    +0.041 C 
ATOM     20 CL   UNL     1      14.636  24.173  14.392  0.00  0.00    -0.086 Cl
ATOM     21  C   UNL     1      14.492  26.697  15.626  0.00  0.00    +0.096 C 
ATOM     22 CL   UNL     1      14.316  26.110  17.293  0.00  0.00    -0.111 Cl
ATOM     23  H   UNL     1      17.248  27.531  19.666  0.00  0.00    +0.000 HD
ATOM     24  H   UNL     1      15.697  27.919  20.261  0.00  0.00    +0.000 HD
ATOM     25  H   UNL     1      17.299  29.591  18.504  0.00  0.00    +0.000 HD
ATOM     26  H   UNL     1      13.478  29.784  19.610  0.00  0.00    +0.000 HD
ATOM     27  H   UNL     1      14.661  28.516  23.734  0.00  0.00    +0.000 HD
ENDROOT
TORSDOF 0
ENDMDL
MODEL 8
REMARK VINA RESULT:    -3.859     18.678     20.472
REMARK INTER + INTRA:          -3.859
REMARK INTER:                  -3.859
REMARK INTRA:                   0.000
REMARK UNBOUND:                 0.000
REMARK  Name = /home/vital/Documents/PhD_2021/Malaria_codes/scripts/../data/pdbqt_ligands/ligand_471_temp.pdb
REMARK                            x       y       z     vdW  Elec       q    Type
REMARK                         _______ _______ _______ _____ _____    ______ ____
ROOT
ATOM      1  N   UNL     1      13.698  43.833  26.011  0.00  0.00    -0.281 N 
ATOM      2  N   UNL     1      13.691  44.110  27.337  0.00  0.00    -0.174 N 
ATOM      3  C   UNL     1      14.654  44.870  27.776  0.00  0.00    +0.145 C 
ATOM      4  N   UNL     1      15.627  45.500  26.999  0.00  0.00    -0.325 N 
ATOM      5  C   UNL     1      15.219  46.464  25.971  0.00  0.00    +0.034 C 
ATOM      6  C   UNL     1      16.068  46.294  24.710  0.00  0.00    +0.060 C 
ATOM      7  O   UNL     1      15.791  47.341  23.786  0.00  0.00    -0.393 OA
ATOM      8  C   UNL     1      14.748  45.063  29.262  0.00  0.00    +0.042 A 
ATOM      9  C   UNL     1      14.854  46.384  29.730  0.00  0.00    -0.049 A 
ATOM     10  C   UNL     1      14.958  46.641  31.097  0.00  0.00    -0.061 A 
ATOM     11  C   UNL     1      14.952  45.584  32.001  0.00  0.00    -0.060 A 
ATOM     12  C   UNL     1      14.843  44.270  31.539  0.00  0.00    -0.036 A 
ATOM     13  C   UNL     1      14.754  43.982  30.169  0.00  0.00    +0.074 A 
ATOM     14  N   UNL     1      14.640  42.619  29.826  0.00  0.00    -0.255 NA
ATOM     15  C   UNL     1      15.482  42.140  28.971  0.00  0.00    +0.033 C 
ATOM     16  C   UNL     1      15.415  40.759  28.480  0.00  0.00    -0.006 C 
ATOM     17  C   UNL     1      14.484  39.854  28.826  0.00  0.00    -0.054 C 
ATOM     18  C   UNL     1      14.761  38.613  28.141  0.00  0.00    -0.045 C 
ATOM     19  C   UNL     1      15.846  38.777  27.373  0.00  0.00    +0.041 C 
ATOM     20 CL   UNL     1      16.594  37.581  26.429  0.00  0.00    -0.086 Cl
ATOM     21  C   UNL     1      16.388  40.173  27.502  0.00  0.00    +0.096 C 
ATOM     22 CL   UNL     1      16.341  41.042  25.954  0.00  0.00    -0.111 Cl
ATOM     23  H   UNL     1      12.994  43.264  25.622  0.00  0.00    +0.000 HD
ATOM     24  H   UNL     1      14.407  44.202  25.435  0.00  0.00    +0.000 HD
ATOM     25  H   UNL     1      12.995  43.755  27.936  0.00  0.00    +0.000 HD
ATOM     26  H   UNL     1      16.580  45.297  27.139  0.00  0.00    +0.000 HD
ATOM     27  H   UNL     1      14.854  47.315  23.538  0.00  0.00    +0.000 HD
ENDROOT
TORSDOF 0
ENDMDL
MODEL 9
REMARK VINA RESULT:    -3.654     18.675     20.891
REMARK INTER + INTRA:          -3.654
REMARK INTER:                  -3.654
REMARK INTRA:                   0.000
REMARK UNBOUND:                 0.000
REMARK  Name = /home/vital/Documents/PhD_2021/Malaria_codes/scripts/../data/pdbqt_ligands/ligand_471_temp.pdb
REMARK                            x       y       z     vdW  Elec       q    Type
REMARK                         _______ _______ _______ _____ _____    ______ ____
ROOT
ATOM      1  N   UNL     1      14.047  41.900  27.005  0.00  0.00    -0.281 N 
ATOM      2  N   UNL     1      13.692  43.103  26.495  0.00  0.00    -0.174 N 
ATOM      3  C   UNL     1      14.514  43.634  25.634  0.00  0.00    +0.145 C 
ATOM      4  N   UNL     1      15.667  43.038  25.121  0.00  0.00    -0.325 N 
ATOM      5  C   UNL     1      15.560  41.781  24.372  0.00  0.00    +0.034 C 
ATOM      6  C   UNL     1      16.710  40.841  24.737  0.00  0.00    +0.060 C 
ATOM      7  O   UNL     1      16.703  39.701  23.883  0.00  0.00    -0.393 OA
ATOM      8  C   UNL     1      14.214  45.030  25.174  0.00  0.00    +0.042 A 
ATOM      9  C   UNL     1      14.209  45.260  23.786  0.00  0.00    -0.049 A 
ATOM     10  C   UNL     1      13.951  46.535  23.284  0.00  0.00    -0.061 A 
ATOM     11  C   UNL     1      13.691  47.584  24.161  0.00  0.00    -0.060 A 
ATOM     12  C   UNL     1      13.690  47.357  25.539  0.00  0.00    -0.036 A 
ATOM     13  C   UNL     1      13.964  46.089  26.073  0.00  0.00    +0.074 A 
ATOM     14  N   UNL     1      13.926  45.984  27.477  0.00  0.00    -0.255 NA
ATOM     15  C   UNL     1      14.958  45.483  28.073  0.00  0.00    +0.033 C 
ATOM     16  C   UNL     1      15.005  45.254  29.521  0.00  0.00    -0.006 C 
ATOM     17  C   UNL     1      14.003  45.502  30.382  0.00  0.00    -0.054 C 
ATOM     18  C   UNL     1      14.435  45.153  31.715  0.00  0.00    -0.045 C 
ATOM     19  C   UNL     1      15.687  44.681  31.653  0.00  0.00    +0.041 C 
ATOM     20 CL   UNL     1      16.642  44.203  32.973  0.00  0.00    -0.086 Cl
ATOM     21  C   UNL     1      16.194  44.691  30.239  0.00  0.00    +0.096 C 
ATOM     22 CL   UNL     1      16.571  43.053  29.665  0.00  0.00    -0.111 Cl
ATOM     23  H   UNL     1      13.464  41.451  27.660  0.00  0.00    +0.000 HD
ATOM     24  H   UNL     1      14.888  41.473  26.722  0.00  0.00    +0.000 HD
ATOM     25  H   UNL     1      12.857  43.553  26.760  0.00  0.00    +0.000 HD
ATOM     26  H   UNL     1      16.546  43.459  25.260  0.00  0.00    +0.000 HD
ATOM     27  H   UNL     1      15.865  39.225  23.987  0.00  0.00    +0.000 HD
ENDROOT
TORSDOF 0
ENDMDL
