MODEL 1
REMARK VINA RESULT:    -3.950      0.000      0.000
REMARK INTER + INTRA:          -3.950
REMARK INTER:                  -3.950
REMARK INTRA:                   0.000
REMARK UNBOUND:                 0.000
REMARK  Name = /home/vital/Documents/PhD_2021/Malaria_codes/scripts/../data/pdbqt_ligands/ligand_354_temp.pdb
REMARK                            x       y       z     vdW  Elec       q    Type
REMARK                         _______ _______ _______ _____ _____    ______ ____
ROOT
ATOM      1  C1  UNL     1      17.712  43.224  36.046  0.00  0.00    +0.037 C 
ATOM      2  O1  UNL     1      17.840  43.922  34.816  0.00  0.00    -0.380 OA
ATOM      3  C2  UNL     1      17.034  45.103  34.741  0.00  0.00    +0.057 C 
ATOM      4  C3  UNL     1      17.687  46.244  35.518  0.00  0.00    -0.039 C 
ATOM      5  C4  UNL     1      16.896  45.488  33.263  0.00  0.00    -0.011 C 
ATOM      6  C5  UNL     1      16.207  44.389  32.456  0.00  0.00    +0.014 C 
ATOM      7  N1  UNL     1      15.989  44.796  31.082  0.00  0.00    -0.311 N 
ATOM      8  C6  UNL     1      14.923  45.568  30.698  0.00  0.00    +0.249 C 
ATOM      9  O2  UNL     1      14.049  45.937  31.478  0.00  0.00    -0.270 OA
ATOM     10  C7  UNL     1      14.895  45.943  29.255  0.00  0.00    +0.100 A 
ATOM     11  C8  UNL     1      13.861  46.674  28.806  0.00  0.00    +0.018 A 
ATOM     12  N2  UNL     1      13.693  47.101  27.514  0.00  0.00    -0.360 N 
ATOM     13  C9  UNL     1      14.597  46.731  26.513  0.00  0.00    +0.050 A 
ATOM     14  C10 UNL     1      14.416  47.136  25.190  0.00  0.00    -0.037 A 
ATOM     15  C11 UNL     1      15.347  46.783  24.208  0.00  0.00    -0.057 A 
ATOM     16  C12 UNL     1      16.486  46.036  24.537  0.00  0.00    -0.050 A 
ATOM     17  C13 UNL     1      17.465  45.634  23.474  0.00  0.00    -0.040 C 
ATOM     18  C14 UNL     1      16.672  45.628  25.862  0.00  0.00    -0.046 A 
ATOM     19  C15 UNL     1      15.737  45.981  26.843  0.00  0.00    +0.046 A 
ATOM     20  C16 UNL     1      15.936  45.559  28.256  0.00  0.00    +0.201 A 
ATOM     21  O3  UNL     1      16.930  44.911  28.578  0.00  0.00    -0.286 OA
ATOM     22  H   UNL     1      16.634  44.505  30.396  0.00  0.00    +0.000 HD
ATOM     23  H   UNL     1      12.925  47.675  27.287  0.00  0.00    +0.000 HD
ENDROOT
TORSDOF 0
ENDMDL
MODEL 2
REMARK VINA RESULT:    -3.892     20.718     22.227
REMARK INTER + INTRA:          -3.892
REMARK INTER:                  -3.892
REMARK INTRA:                   0.000
REMARK UNBOUND:                 0.000
REMARK  Name = /home/vital/Documents/PhD_2021/Malaria_codes/scripts/../data/pdbqt_ligands/ligand_354_temp.pdb
REMARK                            x       y       z     vdW  Elec       q    Type
REMARK                         _______ _______ _______ _____ _____    ______ ____
ROOT
ATOM      1  C1  UNL     1      20.406  27.132  25.361  0.00  0.00    +0.037 C 
ATOM      2  O1  UNL     1      19.306  27.195  24.465  0.00  0.00    -0.380 OA
ATOM      3  C2  UNL     1      18.618  25.948  24.315  0.00  0.00    +0.057 C 
ATOM      4  C3  UNL     1      17.699  25.699  25.510  0.00  0.00    -0.039 C 
ATOM      5  C4  UNL     1      17.791  26.017  23.025  0.00  0.00    -0.011 C 
ATOM      6  C5  UNL     1      18.677  26.222  21.798  0.00  0.00    +0.014 C 
ATOM      7  N1  UNL     1      17.904  26.188  20.573  0.00  0.00    -0.311 N 
ATOM      8  C6  UNL     1      17.543  25.017  19.957  0.00  0.00    +0.249 C 
ATOM      9  O2  UNL     1      17.884  23.911  20.370  0.00  0.00    -0.270 OA
ATOM     10  C7  UNL     1      16.695  25.172  18.740  0.00  0.00    +0.100 A 
ATOM     11  C8  UNL     1      16.331  24.064  18.072  0.00  0.00    +0.018 A 
ATOM     12  N2  UNL     1      15.552  24.039  16.943  0.00  0.00    -0.360 N 
ATOM     13  C9  UNL     1      15.117  25.227  16.346  0.00  0.00    +0.050 A 
ATOM     14  C10 UNL     1      14.350  25.209  15.180  0.00  0.00    -0.037 A 
ATOM     15  C11 UNL     1      13.897  26.406  14.614  0.00  0.00    -0.057 A 
ATOM     16  C12 UNL     1      14.186  27.638  15.216  0.00  0.00    -0.050 A 
ATOM     17  C13 UNL     1      13.724  28.919  14.587  0.00  0.00    -0.040 C 
ATOM     18  C14 UNL     1      14.955  27.660  16.385  0.00  0.00    -0.046 A 
ATOM     19  C15 UNL     1      15.409  26.460  16.948  0.00  0.00    +0.046 A 
ATOM     20  C16 UNL     1      16.217  26.477  18.198  0.00  0.00    +0.201 A 
ATOM     21  O3  UNL     1      16.479  27.541  18.754  0.00  0.00    -0.286 OA
ATOM     22  H   UNL     1      17.627  27.040  20.166  0.00  0.00    +0.000 HD
ATOM     23  H   UNL     1      15.296  23.174  16.548  0.00  0.00    +0.000 HD
ENDROOT
TORSDOF 0
ENDMDL
MODEL 3
REMARK VINA RESULT:    -3.772     18.867     20.406
REMARK INTER + INTRA:          -3.772
REMARK INTER:                  -3.772
REMARK INTRA:                   0.000
REMARK UNBOUND:                 0.000
REMARK  Name = /home/vital/Documents/PhD_2021/Malaria_codes/scripts/../data/pdbqt_ligands/ligand_354_temp.pdb
REMARK                            x       y       z     vdW  Elec       q    Type
REMARK                         _______ _______ _______ _____ _____    ______ ____
ROOT
ATOM      1  C1  UNL     1      13.841  28.768  26.355  0.00  0.00    +0.037 C 
ATOM      2  O1  UNL     1      14.397  28.300  25.135  0.00  0.00    -0.380 OA
ATOM      3  C2  UNL     1      15.296  29.231  24.521  0.00  0.00    +0.057 C 
ATOM      4  C3  UNL     1      16.656  29.197  25.217  0.00  0.00    -0.039 C 
ATOM      5  C4  UNL     1      15.453  28.836  23.048  0.00  0.00    -0.011 C 
ATOM      6  C5  UNL     1      14.120  28.898  22.303  0.00  0.00    +0.014 C 
ATOM      7  N1  UNL     1      14.287  28.620  20.891  0.00  0.00    -0.311 N 
ATOM      8  C6  UNL     1      14.688  29.574  19.990  0.00  0.00    +0.249 C 
ATOM      9  O2  UNL     1      14.893  30.744  20.302  0.00  0.00    -0.270 OA
ATOM     10  C7  UNL     1      14.868  29.093  18.590  0.00  0.00    +0.100 A 
ATOM     11  C8  UNL     1      15.232  29.983  17.652  0.00  0.00    +0.018 A 
ATOM     12  N2  UNL     1      15.441  29.699  16.327  0.00  0.00    -0.360 N 
ATOM     13  C9  UNL     1      15.217  28.412  15.826  0.00  0.00    +0.050 A 
ATOM     14  C10 UNL     1      15.399  28.122  14.473  0.00  0.00    -0.037 A 
ATOM     15  C11 UNL     1      15.200  26.823  13.995  0.00  0.00    -0.057 A 
ATOM     16  C12 UNL     1      14.837  25.787  14.866  0.00  0.00    -0.050 A 
ATOM     17  C13 UNL     1      14.595  24.402  14.343  0.00  0.00    -0.040 C 
ATOM     18  C14 UNL     1      14.654  26.073  16.224  0.00  0.00    -0.046 A 
ATOM     19  C15 UNL     1      14.851  27.376  16.699  0.00  0.00    +0.046 A 
ATOM     20  C16 UNL     1      14.669  27.683  18.143  0.00  0.00    +0.201 A 
ATOM     21  O3  UNL     1      14.360  26.794  18.934  0.00  0.00    -0.286 OA
ATOM     22  H   UNL     1      14.105  27.709  20.564  0.00  0.00    +0.000 HD
ATOM     23  H   UNL     1      15.754  30.409  15.720  0.00  0.00    +0.000 HD
ENDROOT
TORSDOF 0
ENDMDL
MODEL 4
REMARK VINA RESULT:    -3.758     18.476     20.238
REMARK INTER + INTRA:          -3.758
REMARK INTER:                  -3.758
REMARK INTRA:                   0.000
REMARK UNBOUND:                 0.000
REMARK  Name = /home/vital/Documents/PhD_2021/Malaria_codes/scripts/../data/pdbqt_ligands/ligand_354_temp.pdb
REMARK                            x       y       z     vdW  Elec       q    Type
REMARK                         _______ _______ _______ _____ _____    ______ ____
ROOT
ATOM      1  C1  UNL     1      16.608  32.265  24.774  0.00  0.00    +0.037 C 
ATOM      2  O1  UNL     1      16.091  32.078  23.464  0.00  0.00    -0.380 OA
ATOM      3  C2  UNL     1      14.900  31.284  23.427  0.00  0.00    +0.057 C 
ATOM      4  C3  UNL     1      13.690  32.118  23.844  0.00  0.00    -0.039 C 
ATOM      5  C4  UNL     1      14.715  30.777  21.991  0.00  0.00    -0.011 C 
ATOM      6  C5  UNL     1      15.886  29.901  21.548  0.00  0.00    +0.014 C 
ATOM      7  N1  UNL     1      15.663  29.343  20.230  0.00  0.00    -0.311 N 
ATOM      8  C6  UNL     1      14.909  28.217  20.020  0.00  0.00    +0.249 C 
ATOM      9  O2  UNL     1      14.402  27.572  20.933  0.00  0.00    -0.270 OA
ATOM     10  C7  UNL     1      14.735  27.824  18.592  0.00  0.00    +0.100 A 
ATOM     11  C8  UNL     1      14.030  26.713  18.318  0.00  0.00    +0.018 A 
ATOM     12  N2  UNL     1      13.778  26.223  17.062  0.00  0.00    -0.360 N 
ATOM     13  C9  UNL     1      14.318  26.842  15.929  0.00  0.00    +0.050 A 
ATOM     14  C10 UNL     1      14.091  26.332  14.650  0.00  0.00    -0.037 A 
ATOM     15  C11 UNL     1      14.612  26.981  13.526  0.00  0.00    -0.057 A 
ATOM     16  C12 UNL     1      15.352  28.164  13.662  0.00  0.00    -0.050 A 
ATOM     17  C13 UNL     1      15.935  28.839  12.456  0.00  0.00    -0.040 C 
ATOM     18  C14 UNL     1      15.582  28.679  14.943  0.00  0.00    -0.046 A 
ATOM     19  C15 UNL     1      15.060  28.025  16.066  0.00  0.00    +0.046 A 
ATOM     20  C16 UNL     1      15.293  28.575  17.429  0.00  0.00    +0.201 A 
ATOM     21  O3  UNL     1      15.930  29.616  17.580  0.00  0.00    -0.286 OA
ATOM     22  H   UNL     1      16.070  29.790  19.453  0.00  0.00    +0.000 HD
ATOM     23  H   UNL     1      13.210  25.426  16.956  0.00  0.00    +0.000 HD
ENDROOT
TORSDOF 0
ENDMDL
MODEL 5
REMARK VINA RESULT:    -3.675     21.965     23.646
REMARK INTER + INTRA:          -3.675
REMARK INTER:                  -3.675
REMARK INTRA:                   0.000
REMARK UNBOUND:                 0.000
REMARK  Name = /home/vital/Documents/PhD_2021/Malaria_codes/scripts/../data/pdbqt_ligands/ligand_354_temp.pdb
REMARK                            x       y       z     vdW  Elec       q    Type
REMARK                         _______ _______ _______ _____ _____    ______ ____
ROOT
ATOM      1  C1  UNL     1      21.597  23.035  22.851  0.00  0.00    +0.037 C 
ATOM      2  O1  UNL     1      20.491  23.736  22.301  0.00  0.00    -0.380 OA
ATOM      3  C2  UNL     1      19.363  22.899  22.022  0.00  0.00    +0.057 C 
ATOM      4  C3  UNL     1      18.597  22.590  23.307  0.00  0.00    -0.039 C 
ATOM      5  C4  UNL     1      18.453  23.644  21.037  0.00  0.00    -0.011 C 
ATOM      6  C5  UNL     1      19.168  23.935  19.719  0.00  0.00    +0.014 C 
ATOM      7  N1  UNL     1      18.278  24.550  18.756  0.00  0.00    -0.311 N 
ATOM      8  C6  UNL     1      17.413  23.824  17.977  0.00  0.00    +0.249 C 
ATOM      9  O2  UNL     1      17.358  22.597  18.005  0.00  0.00    -0.270 OA
ATOM     10  C7  UNL     1      16.527  24.629  17.088  0.00  0.00    +0.100 A 
ATOM     11  C8  UNL     1      15.676  23.978  16.277  0.00  0.00    +0.018 A 
ATOM     12  N2  UNL     1      14.797  24.572  15.408  0.00  0.00    -0.360 N 
ATOM     13  C9  UNL     1      14.772  25.962  15.253  0.00  0.00    +0.050 A 
ATOM     14  C10 UNL     1      13.901  26.571  14.348  0.00  0.00    -0.037 A 
ATOM     15  C11 UNL     1      13.867  27.964  14.228  0.00  0.00    -0.057 A 
ATOM     16  C12 UNL     1      14.688  28.772  15.026  0.00  0.00    -0.050 A 
ATOM     17  C13 UNL     1      14.670  30.264  14.871  0.00  0.00    -0.040 C 
ATOM     18  C14 UNL     1      15.563  28.165  15.935  0.00  0.00    -0.046 A 
ATOM     19  C15 UNL     1      15.596  26.770  16.051  0.00  0.00    +0.046 A 
ATOM     20  C16 UNL     1      16.516  26.120  17.024  0.00  0.00    +0.201 A 
ATOM     21  O3  UNL     1      17.241  26.802  17.744  0.00  0.00    -0.286 OA
ATOM     22  H   UNL     1      18.295  25.530  18.656  0.00  0.00    +0.000 HD
ATOM     23  H   UNL     1      14.176  24.013  14.887  0.00  0.00    +0.000 HD
ENDROOT
TORSDOF 0
ENDMDL
MODEL 6
REMARK VINA RESULT:    -3.661     23.134     24.459
REMARK INTER + INTRA:          -3.661
REMARK INTER:                  -3.661
REMARK INTRA:                   0.000
REMARK UNBOUND:                 0.000
REMARK  Name = /home/vital/Documents/PhD_2021/Malaria_codes/scripts/../data/pdbqt_ligands/ligand_354_temp.pdb
REMARK                            x       y       z     vdW  Elec       q    Type
REMARK                         _______ _______ _______ _____ _____    ______ ____
ROOT
ATOM      1  C1  UNL     1      24.911  23.103  18.721  0.00  0.00    +0.037 C 
ATOM      2  O1  UNL     1      23.751  23.922  18.667  0.00  0.00    -0.380 OA
ATOM      3  C2  UNL     1      22.673  23.441  19.477  0.00  0.00    +0.057 C 
ATOM      4  C3  UNL     1      22.914  23.787  20.946  0.00  0.00    -0.039 C 
ATOM      5  C4  UNL     1      21.381  24.107  18.989  0.00  0.00    -0.011 C 
ATOM      6  C5  UNL     1      21.078  23.752  17.534  0.00  0.00    +0.014 C 
ATOM      7  N1  UNL     1      19.808  24.301  17.106  0.00  0.00    -0.311 N 
ATOM      8  C6  UNL     1      18.609  23.690  17.369  0.00  0.00    +0.249 C 
ATOM      9  O2  UNL     1      18.523  22.611  17.949  0.00  0.00    -0.270 OA
ATOM     10  C7  UNL     1      17.401  24.431  16.908  0.00  0.00    +0.100 A 
ATOM     11  C8  UNL     1      16.195  23.873  17.109  0.00  0.00    +0.018 A 
ATOM     12  N2  UNL     1      14.994  24.428  16.749  0.00  0.00    -0.360 N 
ATOM     13  C9  UNL     1      14.944  25.642  16.055  0.00  0.00    +0.050 A 
ATOM     14  C10 UNL     1      13.727  26.197  15.659  0.00  0.00    -0.037 A 
ATOM     15  C11 UNL     1      13.694  27.428  14.994  0.00  0.00    -0.057 A 
ATOM     16  C12 UNL     1      14.877  28.133  14.734  0.00  0.00    -0.050 A 
ATOM     17  C13 UNL     1      14.838  29.436  13.993  0.00  0.00    -0.040 C 
ATOM     18  C14 UNL     1      16.100  27.580  15.130  0.00  0.00    -0.046 A 
ATOM     19  C15 UNL     1      16.129  26.346  15.793  0.00  0.00    +0.046 A 
ATOM     20  C16 UNL     1      17.426  25.759  16.227  0.00  0.00    +0.201 A 
ATOM     21  O3  UNL     1      18.480  26.358  16.021  0.00  0.00    -0.286 OA
ATOM     22  H   UNL     1      19.806  25.149  16.604  0.00  0.00    +0.000 HD
ATOM     23  H   UNL     1      14.156  23.966  16.981  0.00  0.00    +0.000 HD
ENDROOT
TORSDOF 0
ENDMDL
MODEL 7
REMARK VINA RESULT:    -3.629     22.048     23.520
REMARK INTER + INTRA:          -3.629
REMARK INTER:                  -3.629
REMARK INTRA:                   0.000
REMARK UNBOUND:                 0.000
REMARK  Name = /home/vital/Documents/PhD_2021/Malaria_codes/scripts/../data/pdbqt_ligands/ligand_354_temp.pdb
REMARK                            x       y       z     vdW  Elec       q    Type
REMARK                         _______ _______ _______ _____ _____    ______ ____
ROOT
ATOM      1  C1  UNL     1      21.758  25.224  24.401  0.00  0.00    +0.037 C 
ATOM      2  O1  UNL     1      20.617  25.496  23.599  0.00  0.00    -0.380 OA
ATOM      3  C2  UNL     1      19.712  24.391  23.499  0.00  0.00    +0.057 C 
ATOM      4  C3  UNL     1      18.863  24.280  24.765  0.00  0.00    -0.039 C 
ATOM      5  C4  UNL     1      18.808  24.629  22.283  0.00  0.00    -0.011 C 
ATOM      6  C5  UNL     1      19.614  24.703  20.988  0.00  0.00    +0.014 C 
ATOM      7  N1  UNL     1      18.752  24.829  19.831  0.00  0.00    -0.311 N 
ATOM      8  C6  UNL     1      18.144  23.751  19.239  0.00  0.00    +0.249 C 
ATOM      9  O2  UNL     1      18.318  22.595  19.615  0.00  0.00    -0.270 OA
ATOM     10  C7  UNL     1      17.240  24.077  18.098  0.00  0.00    +0.100 A 
ATOM     11  C8  UNL     1      16.635  23.063  17.455  0.00  0.00    +0.018 A 
ATOM     12  N2  UNL     1      15.776  23.198  16.395  0.00  0.00    -0.360 N 
ATOM     13  C9  UNL     1      15.508  24.455  15.844  0.00  0.00    +0.050 A 
ATOM     14  C10 UNL     1      14.658  24.596  14.745  0.00  0.00    -0.037 A 
ATOM     15  C11 UNL     1      14.377  25.864  14.226  0.00  0.00    -0.057 A 
ATOM     16  C12 UNL     1      14.924  27.014  14.811  0.00  0.00    -0.050 A 
ATOM     17  C13 UNL     1      14.645  28.369  14.231  0.00  0.00    -0.040 C 
ATOM     18  C14 UNL     1      15.777  26.878  15.912  0.00  0.00    -0.046 A 
ATOM     19  C15 UNL     1      16.058  25.606  16.428  0.00  0.00    +0.046 A 
ATOM     20  C16 UNL     1      16.955  25.457  17.606  0.00  0.00    +0.201 A 
ATOM     21  O3  UNL     1      17.443  26.447  18.145  0.00  0.00    -0.286 OA
ATOM     22  H   UNL     1      18.596  25.725  19.454  0.00  0.00    +0.000 HD
ATOM     23  H   UNL     1      15.341  22.398  16.017  0.00  0.00    +0.000 HD
ENDROOT
TORSDOF 0
ENDMDL
MODEL 8
REMARK VINA RESULT:    -3.394     20.455     23.455
REMARK INTER + INTRA:          -3.394
REMARK INTER:                  -3.394
REMARK INTRA:                   0.000
REMARK UNBOUND:                 0.000
REMARK  Name = /home/vital/Documents/PhD_2021/Malaria_codes/scripts/../data/pdbqt_ligands/ligand_354_temp.pdb
REMARK                            x       y       z     vdW  Elec       q    Type
REMARK                         _______ _______ _______ _____ _____    ______ ____
ROOT
ATOM      1  C1  UNL     1      16.727  35.060  15.371  0.00  0.00    +0.037 C 
ATOM      2  O1  UNL     1      17.171  33.710  15.356  0.00  0.00    -0.380 OA
ATOM      3  C2  UNL     1      16.778  32.992  14.181  0.00  0.00    +0.057 C 
ATOM      4  C3  UNL     1      17.680  33.360  13.004  0.00  0.00    -0.039 C 
ATOM      5  C4  UNL     1      16.895  31.493  14.482  0.00  0.00    -0.011 C 
ATOM      6  C5  UNL     1      15.975  31.074  15.627  0.00  0.00    +0.014 C 
ATOM      7  N1  UNL     1      16.014  29.642  15.844  0.00  0.00    -0.311 N 
ATOM      8  C6  UNL     1      15.276  28.759  15.098  0.00  0.00    +0.249 C 
ATOM      9  O2  UNL     1      14.493  29.116  14.222  0.00  0.00    -0.270 OA
ATOM     10  C7  UNL     1      15.491  27.319  15.419  0.00  0.00    +0.100 A 
ATOM     11  C8  UNL     1      14.775  26.402  14.745  0.00  0.00    +0.018 A 
ATOM     12  N2  UNL     1      14.861  25.045  14.920  0.00  0.00    -0.360 N 
ATOM     13  C9  UNL     1      15.691  24.499  15.905  0.00  0.00    +0.050 A 
ATOM     14  C10 UNL     1      15.760  23.120  16.108  0.00  0.00    -0.037 A 
ATOM     15  C11 UNL     1      16.619  22.590  17.076  0.00  0.00    -0.057 A 
ATOM     16  C12 UNL     1      17.440  23.429  17.842  0.00  0.00    -0.050 A 
ATOM     17  C13 UNL     1      18.336  22.858  18.900  0.00  0.00    -0.040 C 
ATOM     18  C14 UNL     1      17.374  24.813  17.641  0.00  0.00    -0.046 A 
ATOM     19  C15 UNL     1      16.511  25.341  16.672  0.00  0.00    +0.046 A 
ATOM     20  C16 UNL     1      16.445  26.810  16.447  0.00  0.00    +0.201 A 
ATOM     21  O3  UNL     1      17.159  27.571  17.096  0.00  0.00    -0.286 OA
ATOM     22  H   UNL     1      16.595  29.288  16.556  0.00  0.00    +0.000 HD
ATOM     23  H   UNL     1      14.331  24.446  14.345  0.00  0.00    +0.000 HD
ENDROOT
TORSDOF 0
ENDMDL
