MODEL 1
REMARK VINA RESULT:    -4.397      0.000      0.000
REMARK INTER + INTRA:          -4.397
REMARK INTER:                  -4.397
REMARK INTRA:                   0.000
REMARK UNBOUND:                 0.000
REMARK  Name = /home/vital/Documents/PhD_2021/Malaria_codes/scripts/../data/pdbqt_ligands/ligand_256_temp.pdb
REMARK                            x       y       z     vdW  Elec       q    Type
REMARK                         _______ _______ _______ _____ _____    ______ ____
ROOT
ATOM      1  C1  UNL     1      14.711  28.447  25.463  0.00  0.00    +0.000 C 
ATOM      2  C2  UNL     1      14.811  27.732  24.142  0.00  0.00    +0.179 C 
ATOM      3  O1  UNL     1      14.746  26.499  24.134  0.00  0.00    -0.291 OA
ATOM      4  C3  UNL     1      14.983  28.494  22.889  0.00  0.00    +0.118 A 
ATOM      5  C4  UNL     1      15.084  29.872  22.718  0.00  0.00    +0.019 A 
ATOM      6  C5  UNL     1      15.055  31.005  23.685  0.00  0.00    -0.031 C 
ATOM      7  S1  UNL     1      15.283  30.231  21.043  0.00  0.00    -0.057 S 
ATOM      8  C6  UNL     1      15.203  28.583  20.667  0.00  0.00    +0.166 A 
ATOM      9  N1  UNL     1      15.316  28.084  19.396  0.00  0.00    -0.248 N 
ATOM     10  C7  UNL     1      15.321  28.800  18.215  0.00  0.00    +0.310 C 
ATOM     11  O2  UNL     1      15.168  30.009  18.121  0.00  0.00    -0.252 OA
ATOM     12  N2  UNL     1      15.532  27.939  17.142  0.00  0.00    -0.269 N 
ATOM     13  C8  UNL     1      15.516  28.241  15.759  0.00  0.00    +0.038 A 
ATOM     14  C9  UNL     1      15.100  29.484  15.266  0.00  0.00    -0.037 A 
ATOM     15  C10 UNL     1      15.074  29.757  13.889  0.00  0.00    -0.049 A 
ATOM     16  C11 UNL     1      14.659  31.110  13.394  0.00  0.00    -0.040 C 
ATOM     17  C12 UNL     1      15.493  28.773  12.994  0.00  0.00    -0.058 A 
ATOM     18  C13 UNL     1      15.901  27.527  13.465  0.00  0.00    -0.057 A 
ATOM     19  C14 UNL     1      15.913  27.242  14.842  0.00  0.00    -0.029 A 
ATOM     20  C15 UNL     1      16.365  25.874  15.280  0.00  0.00    -0.038 C 
ATOM     21  N3  UNL     1      15.061  27.779  21.688  0.00  0.00    -0.221 NA
ATOM     22  H   UNL     1      15.402  27.106  19.317  0.00  0.00    +0.000 HD
ATOM     23  H   UNL     1      15.716  27.000  17.375  0.00  0.00    +0.000 HD
ENDROOT
TORSDOF 0
ENDMDL
MODEL 2
REMARK VINA RESULT:    -4.288      3.842      4.299
REMARK INTER + INTRA:          -4.288
REMARK INTER:                  -4.288
REMARK INTRA:                   0.000
REMARK UNBOUND:                 0.000
REMARK  Name = /home/vital/Documents/PhD_2021/Malaria_codes/scripts/../data/pdbqt_ligands/ligand_256_temp.pdb
REMARK                            x       y       z     vdW  Elec       q    Type
REMARK                         _______ _______ _______ _____ _____    ______ ____
ROOT
ATOM      1  C1  UNL     1      19.697  24.831  25.365  0.00  0.00    +0.000 C 
ATOM      2  C2  UNL     1      19.061  24.171  24.171  0.00  0.00    +0.179 C 
ATOM      3  O1  UNL     1      18.903  22.947  24.188  0.00  0.00    -0.291 OA
ATOM      4  C3  UNL     1      18.637  24.977  23.007  0.00  0.00    +0.118 A 
ATOM      5  C4  UNL     1      18.747  26.352  22.817  0.00  0.00    +0.019 A 
ATOM      6  C5  UNL     1      19.300  27.439  23.673  0.00  0.00    -0.031 C 
ATOM      7  S1  UNL     1      18.103  26.773  21.274  0.00  0.00    -0.057 S 
ATOM      8  C6  UNL     1      17.714  25.152  20.980  0.00  0.00    +0.166 A 
ATOM      9  N1  UNL     1      17.131  24.705  19.824  0.00  0.00    -0.248 N 
ATOM     10  C7  UNL     1      16.598  25.472  18.806  0.00  0.00    +0.310 C 
ATOM     11  O2  UNL     1      16.515  26.692  18.810  0.00  0.00    -0.252 OA
ATOM     12  N2  UNL     1      16.170  24.649  17.769  0.00  0.00    -0.269 N 
ATOM     13  C8  UNL     1      15.483  25.013  16.586  0.00  0.00    +0.038 A 
ATOM     14  C9  UNL     1      14.976  26.303  16.378  0.00  0.00    -0.037 A 
ATOM     15  C10 UNL     1      14.282  26.639  15.205  0.00  0.00    -0.049 A 
ATOM     16  C11 UNL     1      13.782  28.038  14.996  0.00  0.00    -0.040 C 
ATOM     17  C12 UNL     1      14.113  25.671  14.216  0.00  0.00    -0.058 A 
ATOM     18  C13 UNL     1      14.603  24.381  14.408  0.00  0.00    -0.057 A 
ATOM     19  C14 UNL     1      15.284  24.034  15.588  0.00  0.00    -0.029 A 
ATOM     20  C15 UNL     1      15.784  22.620  15.729  0.00  0.00    -0.038 C 
ATOM     21  N3  UNL     1      18.043  24.313  21.927  0.00  0.00    -0.221 NA
ATOM     22  H   UNL     1      17.088  23.729  19.705  0.00  0.00    +0.000 HD
ATOM     23  H   UNL     1      16.371  23.690  17.871  0.00  0.00    +0.000 HD
ENDROOT
TORSDOF 0
ENDMDL
MODEL 3
REMARK VINA RESULT:    -4.156      2.253      3.854
REMARK INTER + INTRA:          -4.156
REMARK INTER:                  -4.156
REMARK INTRA:                   0.000
REMARK UNBOUND:                 0.000
REMARK  Name = /home/vital/Documents/PhD_2021/Malaria_codes/scripts/../data/pdbqt_ligands/ligand_256_temp.pdb
REMARK                            x       y       z     vdW  Elec       q    Type
REMARK                         _______ _______ _______ _____ _____    ______ ____
ROOT
ATOM      1  C1  UNL     1      15.077  32.717  24.271  0.00  0.00    +0.000 C 
ATOM      2  C2  UNL     1      14.993  32.439  22.794  0.00  0.00    +0.179 C 
ATOM      3  O1  UNL     1      15.001  33.395  22.012  0.00  0.00    -0.291 OA
ATOM      4  C3  UNL     1      14.905  31.051  22.297  0.00  0.00    +0.118 A 
ATOM      5  C4  UNL     1      14.874  29.867  23.029  0.00  0.00    +0.019 A 
ATOM      6  C5  UNL     1      14.919  29.595  24.494  0.00  0.00    -0.031 C 
ATOM      7  S1  UNL     1      14.755  28.526  21.952  0.00  0.00    -0.057 S 
ATOM      8  C6  UNL     1      14.773  29.575  20.624  0.00  0.00    +0.166 A 
ATOM      9  N1  UNL     1      14.685  29.160  19.322  0.00  0.00    -0.248 N 
ATOM     10  C7  UNL     1      14.757  27.862  18.852  0.00  0.00    +0.310 C 
ATOM     11  O2  UNL     1      14.969  26.873  19.539  0.00  0.00    -0.252 OA
ATOM     12  N2  UNL     1      14.547  27.846  17.477  0.00  0.00    -0.269 N 
ATOM     13  C8  UNL     1      14.629  26.745  16.590  0.00  0.00    +0.038 A 
ATOM     14  C9  UNL     1      15.120  25.495  16.988  0.00  0.00    -0.037 A 
ATOM     15  C10 UNL     1      15.210  24.421  16.088  0.00  0.00    -0.049 A 
ATOM     16  C11 UNL     1      15.707  23.084  16.552  0.00  0.00    -0.040 C 
ATOM     17  C12 UNL     1      14.781  24.600  14.773  0.00  0.00    -0.058 A 
ATOM     18  C13 UNL     1      14.297  25.838  14.357  0.00  0.00    -0.057 A 
ATOM     19  C14 UNL     1      14.221  26.922  15.250  0.00  0.00    -0.029 A 
ATOM     20  C15 UNL     1      13.690  28.232  14.730  0.00  0.00    -0.038 C 
ATOM     21  N3  UNL     1      14.838  30.848  20.913  0.00  0.00    -0.221 NA
ATOM     22  H   UNL     1      14.556  29.864  18.646  0.00  0.00    +0.000 HD
ATOM     23  H   UNL     1      14.311  28.710  17.068  0.00  0.00    +0.000 HD
ENDROOT
TORSDOF 0
ENDMDL
MODEL 4
REMARK VINA RESULT:    -3.994      1.449      1.514
REMARK INTER + INTRA:          -3.994
REMARK INTER:                  -3.994
REMARK INTRA:                   0.000
REMARK UNBOUND:                 0.000
REMARK  Name = /home/vital/Documents/PhD_2021/Malaria_codes/scripts/../data/pdbqt_ligands/ligand_256_temp.pdb
REMARK                            x       y       z     vdW  Elec       q    Type
REMARK                         _______ _______ _______ _____ _____    ______ ____
ROOT
ATOM      1  C1  UNL     1      16.506  28.506  26.108  0.00  0.00    +0.000 C 
ATOM      2  C2  UNL     1      16.066  27.700  24.915  0.00  0.00    +0.179 C 
ATOM      3  O1  UNL     1      15.645  26.555  25.100  0.00  0.00    -0.291 OA
ATOM      4  C3  UNL     1      16.140  28.274  23.556  0.00  0.00    +0.118 A 
ATOM      5  C4  UNL     1      16.593  29.532  23.167  0.00  0.00    +0.019 A 
ATOM      6  C5  UNL     1      17.133  30.684  23.943  0.00  0.00    -0.031 C 
ATOM      7  S1  UNL     1      16.471  29.685  21.454  0.00  0.00    -0.057 S 
ATOM      8  C6  UNL     1      15.825  28.124  21.348  0.00  0.00    +0.166 A 
ATOM      9  N1  UNL     1      15.473  27.522  20.169  0.00  0.00    -0.248 N 
ATOM     10  C7  UNL     1      15.397  28.110  18.921  0.00  0.00    +0.310 C 
ATOM     11  O2  UNL     1      15.586  29.295  18.686  0.00  0.00    -0.252 OA
ATOM     12  N2  UNL     1      15.079  27.150  17.966  0.00  0.00    -0.269 N 
ATOM     13  C8  UNL     1      14.813  27.338  16.588  0.00  0.00    +0.038 A 
ATOM     14  C9  UNL     1      14.670  28.609  16.017  0.00  0.00    -0.037 A 
ATOM     15  C10 UNL     1      14.389  28.773  14.651  0.00  0.00    -0.049 A 
ATOM     16  C11 UNL     1      14.277  30.148  14.062  0.00  0.00    -0.040 C 
ATOM     17  C12 UNL     1      14.269  27.643  13.842  0.00  0.00    -0.058 A 
ATOM     18  C13 UNL     1      14.400  26.371  14.394  0.00  0.00    -0.057 A 
ATOM     19  C14 UNL     1      14.665  26.200  15.764  0.00  0.00    -0.029 A 
ATOM     20  C15 UNL     1      14.791  24.795  16.292  0.00  0.00    -0.038 C 
ATOM     21  N3  UNL     1      15.710  27.484  22.482  0.00  0.00    -0.221 NA
ATOM     22  H   UNL     1      15.249  26.565  20.217  0.00  0.00    +0.000 HD
ATOM     23  H   UNL     1      15.032  26.221  18.289  0.00  0.00    +0.000 HD
ENDROOT
TORSDOF 0
ENDMDL
MODEL 5
REMARK VINA RESULT:    -3.934      1.633      1.878
REMARK INTER + INTRA:          -3.934
REMARK INTER:                  -3.934
REMARK INTRA:                   0.000
REMARK UNBOUND:                 0.000
REMARK  Name = /home/vital/Documents/PhD_2021/Malaria_codes/scripts/../data/pdbqt_ligands/ligand_256_temp.pdb
REMARK                            x       y       z     vdW  Elec       q    Type
REMARK                         _______ _______ _______ _____ _____    ______ ____
ROOT
ATOM      1  C1  UNL     1      15.490  29.646  26.471  0.00  0.00    +0.000 C 
ATOM      2  C2  UNL     1      15.130  28.673  25.381  0.00  0.00    +0.179 C 
ATOM      3  O1  UNL     1      14.708  27.558  25.702  0.00  0.00    -0.291 OA
ATOM      4  C3  UNL     1      15.279  29.050  23.961  0.00  0.00    +0.118 A 
ATOM      5  C4  UNL     1      15.744  30.247  23.424  0.00  0.00    +0.019 A 
ATOM      6  C5  UNL     1      16.227  31.506  24.058  0.00  0.00    -0.031 C 
ATOM      7  S1  UNL     1      15.723  30.154  21.702  0.00  0.00    -0.057 S 
ATOM      8  C6  UNL     1      15.098  28.583  21.782  0.00  0.00    +0.166 A 
ATOM      9  N1  UNL     1      14.821  27.815  20.683  0.00  0.00    -0.248 N 
ATOM     10  C7  UNL     1      14.815  28.219  19.361  0.00  0.00    +0.310 C 
ATOM     11  O2  UNL     1      15.007  29.362  18.972  0.00  0.00    -0.252 OA
ATOM     12  N2  UNL     1      14.562  27.128  18.536  0.00  0.00    -0.269 N 
ATOM     13  C8  UNL     1      14.377  27.115  17.132  0.00  0.00    +0.038 A 
ATOM     14  C9  UNL     1      14.258  28.290  16.379  0.00  0.00    -0.037 A 
ATOM     15  C10 UNL     1      14.057  28.255  14.990  0.00  0.00    -0.049 A 
ATOM     16  C11 UNL     1      13.969  29.530  14.205  0.00  0.00    -0.040 C 
ATOM     17  C12 UNL     1      13.995  27.020  14.344  0.00  0.00    -0.058 A 
ATOM     18  C13 UNL     1      14.103  25.841  15.077  0.00  0.00    -0.057 A 
ATOM     19  C14 UNL     1      14.288  25.870  16.471  0.00  0.00    -0.029 A 
ATOM     20  C15 UNL     1      14.394  24.556  17.200  0.00  0.00    -0.038 C 
ATOM     21  N3  UNL     1      14.921  28.108  22.987  0.00  0.00    -0.221 NA
ATOM     22  H   UNL     1      14.603  26.870  20.853  0.00  0.00    +0.000 HD
ATOM     23  H   UNL     1      14.504  26.254  18.984  0.00  0.00    +0.000 HD
ENDROOT
TORSDOF 0
ENDMDL
MODEL 6
REMARK VINA RESULT:    -3.864     18.826     20.501
REMARK INTER + INTRA:          -3.864
REMARK INTER:                  -3.864
REMARK INTRA:                   0.000
REMARK UNBOUND:                 0.000
REMARK  Name = /home/vital/Documents/PhD_2021/Malaria_codes/scripts/../data/pdbqt_ligands/ligand_256_temp.pdb
REMARK                            x       y       z     vdW  Elec       q    Type
REMARK                         _______ _______ _______ _____ _____    ______ ____
ROOT
ATOM      1  C1  UNL     1      21.362  47.475  18.085  0.00  0.00    +0.000 C 
ATOM      2  C2  UNL     1      20.047  47.377  18.811  0.00  0.00    +0.179 C 
ATOM      3  O1  UNL     1      19.004  47.451  18.155  0.00  0.00    -0.291 OA
ATOM      4  C3  UNL     1      20.014  47.195  20.277  0.00  0.00    +0.118 A 
ATOM      5  C4  UNL     1      21.081  47.102  21.165  0.00  0.00    +0.019 A 
ATOM      6  C5  UNL     1      22.557  47.148  20.964  0.00  0.00    -0.031 C 
ATOM      7  S1  UNL     1      20.480  46.905  22.769  0.00  0.00    -0.057 S 
ATOM      8  C6  UNL     1      18.890  46.935  22.191  0.00  0.00    +0.166 A 
ATOM      9  N1  UNL     1      17.784  46.835  22.993  0.00  0.00    -0.248 N 
ATOM     10  C7  UNL     1      17.753  46.513  24.336  0.00  0.00    +0.310 C 
ATOM     11  O2  UNL     1      18.725  46.208  25.012  0.00  0.00    -0.252 OA
ATOM     12  N2  UNL     1      16.447  46.590  24.810  0.00  0.00    -0.269 N 
ATOM     13  C8  UNL     1      15.958  46.252  26.095  0.00  0.00    +0.038 A 
ATOM     14  C9  UNL     1      16.749  45.604  27.053  0.00  0.00    -0.037 A 
ATOM     15  C10 UNL     1      16.239  45.261  28.315  0.00  0.00    -0.049 A 
ATOM     16  C11 UNL     1      17.121  44.601  29.333  0.00  0.00    -0.040 C 
ATOM     17  C12 UNL     1      14.921  45.591  28.628  0.00  0.00    -0.058 A 
ATOM     18  C13 UNL     1      14.117  46.227  27.685  0.00  0.00    -0.057 A 
ATOM     19  C14 UNL     1      14.617  46.559  26.412  0.00  0.00    -0.029 A 
ATOM     20  C15 UNL     1      13.690  47.243  25.443  0.00  0.00    -0.038 C 
ATOM     21  N3  UNL     1      18.763  47.101  20.901  0.00  0.00    -0.221 NA
ATOM     22  H   UNL     1      16.916  47.013  22.565  0.00  0.00    +0.000 HD
ATOM     23  H   UNL     1      15.777  46.923  24.170  0.00  0.00    +0.000 HD
ENDROOT
TORSDOF 0
ENDMDL
MODEL 7
REMARK VINA RESULT:    -3.794      2.229      7.986
REMARK INTER + INTRA:          -3.794
REMARK INTER:                  -3.794
REMARK INTRA:                   0.000
REMARK UNBOUND:                 0.000
REMARK  Name = /home/vital/Documents/PhD_2021/Malaria_codes/scripts/../data/pdbqt_ligands/ligand_256_temp.pdb
REMARK                            x       y       z     vdW  Elec       q    Type
REMARK                         _______ _______ _______ _____ _____    ______ ____
ROOT
ATOM      1  C1  UNL     1      14.788  24.625  14.341  0.00  0.00    +0.000 C 
ATOM      2  C2  UNL     1      14.883  24.676  15.842  0.00  0.00    +0.179 C 
ATOM      3  O1  UNL     1      15.066  23.621  16.457  0.00  0.00    -0.291 OA
ATOM      4  C3  UNL     1      14.758  25.962  16.557  0.00  0.00    +0.118 A 
ATOM      5  C4  UNL     1      14.542  27.232  16.029  0.00  0.00    +0.019 A 
ATOM      6  C5  UNL     1      14.370  27.718  14.631  0.00  0.00    -0.031 C 
ATOM      7  S1  UNL     1      14.470  28.384  17.310  0.00  0.00    -0.057 S 
ATOM      8  C6  UNL     1      14.743  27.159  18.445  0.00  0.00    +0.166 A 
ATOM      9  N1  UNL     1      14.800  27.370  19.797  0.00  0.00    -0.248 N 
ATOM     10  C7  UNL     1      14.837  28.585  20.452  0.00  0.00    +0.310 C 
ATOM     11  O2  UNL     1      14.881  29.680  19.908  0.00  0.00    -0.252 OA
ATOM     12  N2  UNL     1      14.813  28.381  21.828  0.00  0.00    -0.269 N 
ATOM     13  C8  UNL     1      14.931  29.343  22.860  0.00  0.00    +0.038 A 
ATOM     14  C9  UNL     1      15.270  30.679  22.607  0.00  0.00    -0.037 A 
ATOM     15  C10 UNL     1      15.400  31.613  23.647  0.00  0.00    -0.049 A 
ATOM     16  C11 UNL     1      15.729  33.044  23.341  0.00  0.00    -0.040 C 
ATOM     17  C12 UNL     1      15.165  31.205  24.960  0.00  0.00    -0.058 A 
ATOM     18  C13 UNL     1      14.836  29.879  25.232  0.00  0.00    -0.057 A 
ATOM     19  C14 UNL     1      14.721  28.935  24.196  0.00  0.00    -0.029 A 
ATOM     20  C15 UNL     1      14.363  27.519  24.563  0.00  0.00    -0.038 C 
ATOM     21  N3  UNL     1      14.863  25.953  17.954  0.00  0.00    -0.221 NA
ATOM     22  H   UNL     1      14.815  26.565  20.365  0.00  0.00    +0.000 HD
ATOM     23  H   UNL     1      14.699  27.448  22.122  0.00  0.00    +0.000 HD
ENDROOT
TORSDOF 0
ENDMDL
MODEL 8
REMARK VINA RESULT:    -3.728      4.002      4.300
REMARK INTER + INTRA:          -3.728
REMARK INTER:                  -3.728
REMARK INTRA:                   0.000
REMARK UNBOUND:                 0.000
REMARK  Name = /home/vital/Documents/PhD_2021/Malaria_codes/scripts/../data/pdbqt_ligands/ligand_256_temp.pdb
REMARK                            x       y       z     vdW  Elec       q    Type
REMARK                         _______ _______ _______ _____ _____    ______ ____
ROOT
ATOM      1  C1  UNL     1      19.885  23.270  24.005  0.00  0.00    +0.000 C 
ATOM      2  C2  UNL     1      18.743  23.387  23.031  0.00  0.00    +0.179 C 
ATOM      3  O1  UNL     1      17.779  22.626  23.159  0.00  0.00    -0.291 OA
ATOM      4  C3  UNL     1      18.782  24.392  21.949  0.00  0.00    +0.118 A 
ATOM      5  C4  UNL     1      19.783  25.313  21.656  0.00  0.00    +0.019 A 
ATOM      6  C5  UNL     1      21.098  25.599  22.295  0.00  0.00    -0.031 C 
ATOM      7  S1  UNL     1      19.323  26.245  20.279  0.00  0.00    -0.057 S 
ATOM      8  C6  UNL     1      17.860  25.400  20.181  0.00  0.00    +0.166 A 
ATOM      9  N1  UNL     1      16.911  25.626  19.219  0.00  0.00    -0.248 N 
ATOM     10  C7  UNL     1      16.877  26.663  18.306  0.00  0.00    +0.310 C 
ATOM     11  O2  UNL     1      17.679  27.585  18.255  0.00  0.00    -0.252 OA
ATOM     12  N2  UNL     1      15.796  26.500  17.447  0.00  0.00    -0.269 N 
ATOM     13  C8  UNL     1      15.341  27.378  16.433  0.00  0.00    +0.038 A 
ATOM     14  C9  UNL     1      15.858  28.669  16.269  0.00  0.00    -0.037 A 
ATOM     15  C10 UNL     1      15.380  29.530  15.269  0.00  0.00    -0.049 A 
ATOM     16  C11 UNL     1      15.979  30.894  15.096  0.00  0.00    -0.040 C 
ATOM     17  C12 UNL     1      14.382  29.080  14.405  0.00  0.00    -0.058 A 
ATOM     18  C13 UNL     1      13.850  27.801  14.557  0.00  0.00    -0.057 A 
ATOM     19  C14 UNL     1      14.312  26.940  15.569  0.00  0.00    -0.029 A 
ATOM     20  C15 UNL     1      13.690  25.573  15.676  0.00  0.00    -0.038 C 
ATOM     21  N3  UNL     1      17.689  24.463  21.076  0.00  0.00    -0.221 NA
ATOM     22  H   UNL     1      16.172  24.978  19.172  0.00  0.00    +0.000 HD
ATOM     23  H   UNL     1      15.280  25.669  17.558  0.00  0.00    +0.000 HD
ENDROOT
TORSDOF 0
ENDMDL
