MODEL 1
REMARK VINA RESULT:    -5.217      0.000      0.000
REMARK INTER + INTRA:          -5.217
REMARK INTER:                  -5.217
REMARK INTRA:                   0.000
REMARK UNBOUND:                 0.000
REMARK  Name = /home/vital/Documents/PhD_2021/Malaria_codes/scripts/../data/pdbqt_ligands/ligand_177_temp.pdb
REMARK                            x       y       z     vdW  Elec       q    Type
REMARK                         _______ _______ _______ _____ _____    ______ ____
ROOT
ATOM      1  C1  UNL     1      13.693  47.438  24.781  0.00  0.00    +0.079 C 
ATOM      2  O1  UNL     1      14.922  47.191  25.451  0.00  0.00    -0.495 OA
ATOM      3  C2  UNL     1      14.869  46.403  26.567  0.00  0.00    +0.120 A 
ATOM      4  C3  UNL     1      13.720  45.826  27.112  0.00  0.00    -0.018 A 
ATOM      5  C4  UNL     1      13.808  45.038  28.265  0.00  0.00    -0.035 A 
ATOM      6  C5  UNL     1      15.046  44.823  28.877  0.00  0.00    +0.062 A 
ATOM      7  N1  UNL     1      15.168  44.010  30.053  0.00  0.00    -0.123 N 
ATOM      8  C6  UNL     1      14.722  44.590  31.255  0.00  0.00    +0.333 C 
ATOM      9  O2  UNL     1      14.355  45.766  31.286  0.00  0.00    -0.250 OA
ATOM     10  N2  UNL     1      14.776  43.834  32.435  0.00  0.00    -0.248 N 
ATOM     11  C7  UNL     1      14.367  44.529  33.666  0.00  0.00    +0.049 C 
ATOM     12  C8  UNL     1      15.507  45.121  34.466  0.00  0.00    +0.005 A 
ATOM     13  C9  UNL     1      16.495  45.926  33.882  0.00  0.00    -0.054 A 
ATOM     14  C10 UNL     1      17.516  46.480  34.660  0.00  0.00    -0.061 A 
ATOM     15  C11 UNL     1      17.558  46.248  36.034  0.00  0.00    -0.059 A 
ATOM     16  C12 UNL     1      16.572  45.469  36.632  0.00  0.00    -0.026 A 
ATOM     17  C13 UNL     1      15.558  44.922  35.852  0.00  0.00    +0.128 A 
ATOM     18  F1  UNL     1      14.620  44.176  36.452  0.00  0.00    -0.205 F 
ATOM     19  C14 UNL     1      15.255  42.484  32.502  0.00  0.00    +0.065 A 
ATOM     20  C15 UNL     1      15.510  41.849  33.732  0.00  0.00    -0.038 A 
ATOM     21  C16 UNL     1      16.006  40.539  33.803  0.00  0.00    -0.060 A 
ATOM     22  C17 UNL     1      16.252  39.819  32.643  0.00  0.00    -0.060 A 
ATOM     23  C18 UNL     1      15.989  40.407  31.413  0.00  0.00    -0.033 A 
ATOM     24  C19 UNL     1      15.486  41.719  31.361  0.00  0.00    +0.131 A 
ATOM     25  S1  UNL     1      15.100  42.372  29.787  0.00  0.00    +0.084 S 
ATOM     26  O3  UNL     1      16.185  42.000  28.901  0.00  0.00    -0.149 OA
ATOM     27  O4  UNL     1      13.732  41.989  29.501  0.00  0.00    -0.149 OA
ATOM     28  C20 UNL     1      16.197  45.393  28.333  0.00  0.00    -0.035 A 
ATOM     29  C21 UNL     1      16.104  46.180  27.183  0.00  0.00    -0.018 A 
ENDROOT
TORSDOF 0
ENDMDL
MODEL 2
REMARK VINA RESULT:    -4.881     18.632     21.556
REMARK INTER + INTRA:          -4.881
REMARK INTER:                  -4.881
REMARK INTRA:                   0.000
REMARK UNBOUND:                 0.000
REMARK  Name = /home/vital/Documents/PhD_2021/Malaria_codes/scripts/../data/pdbqt_ligands/ligand_177_temp.pdb
REMARK                            x       y       z     vdW  Elec       q    Type
REMARK                         _______ _______ _______ _____ _____    ______ ____
ROOT
ATOM      1  C1  UNL     1      16.713  31.102  24.528  0.00  0.00    +0.079 C 
ATOM      2  O1  UNL     1      15.611  31.296  23.652  0.00  0.00    -0.495 OA
ATOM      3  C2  UNL     1      15.662  30.656  22.445  0.00  0.00    +0.120 A 
ATOM      4  C3  UNL     1      16.699  29.838  21.992  0.00  0.00    -0.018 A 
ATOM      5  C4  UNL     1      16.623  29.243  20.728  0.00  0.00    -0.035 A 
ATOM      6  C5  UNL     1      15.510  29.463  19.912  0.00  0.00    +0.062 A 
ATOM      7  N1  UNL     1      15.400  28.857  18.616  0.00  0.00    -0.123 N 
ATOM      8  C6  UNL     1      16.200  29.415  17.602  0.00  0.00    +0.333 C 
ATOM      9  O2  UNL     1      16.863  30.431  17.815  0.00  0.00    -0.250 OA
ATOM     10  N2  UNL     1      16.170  28.843  16.322  0.00  0.00    -0.248 N 
ATOM     11  C7  UNL     1      16.972  29.525  15.292  0.00  0.00    +0.049 C 
ATOM     12  C8  UNL     1      16.199  30.505  14.436  0.00  0.00    +0.005 A 
ATOM     13  C9  UNL     1      15.368  31.490  14.989  0.00  0.00    -0.054 A 
ATOM     14  C10 UNL     1      14.693  32.398  14.167  0.00  0.00    -0.061 A 
ATOM     15  C11 UNL     1      14.850  32.343  12.782  0.00  0.00    -0.059 A 
ATOM     16  C12 UNL     1      15.690  31.385  12.220  0.00  0.00    -0.026 A 
ATOM     17  C13 UNL     1      16.358  30.486  13.045  0.00  0.00    +0.128 A 
ATOM     18  F1  UNL     1      17.161  29.574  12.480  0.00  0.00    -0.205 F 
ATOM     19  C14 UNL     1      15.373  27.704  15.970  0.00  0.00    +0.065 A 
ATOM     20  C15 UNL     1      15.194  27.312  14.630  0.00  0.00    -0.038 A 
ATOM     21  C16 UNL     1      14.393  26.217  14.277  0.00  0.00    -0.060 A 
ATOM     22  C17 UNL     1      13.752  25.472  15.258  0.00  0.00    -0.060 A 
ATOM     23  C18 UNL     1      13.926  25.818  16.591  0.00  0.00    -0.033 A 
ATOM     24  C19 UNL     1      14.739  26.916  16.927  0.00  0.00    +0.131 A 
ATOM     25  S1  UNL     1      14.982  27.249  18.624  0.00  0.00    +0.084 S 
ATOM     26  O3  UNL     1      13.690  27.108  19.268  0.00  0.00    -0.149 OA
ATOM     27  O4  UNL     1      16.121  26.459  19.045  0.00  0.00    -0.149 OA
ATOM     28  C20 UNL     1      14.469  30.276  20.363  0.00  0.00    -0.035 A 
ATOM     29  C21 UNL     1      14.550  30.869  21.625  0.00  0.00    -0.018 A 
ENDROOT
TORSDOF 0
ENDMDL
MODEL 3
REMARK VINA RESULT:    -4.666     20.123     22.487
REMARK INTER + INTRA:          -4.666
REMARK INTER:                  -4.666
REMARK INTRA:                   0.000
REMARK UNBOUND:                 0.000
REMARK  Name = /home/vital/Documents/PhD_2021/Malaria_codes/scripts/../data/pdbqt_ligands/ligand_177_temp.pdb
REMARK                            x       y       z     vdW  Elec       q    Type
REMARK                         _______ _______ _______ _____ _____    ______ ____
ROOT
ATOM      1  C1  UNL     1      16.283  35.328  16.607  0.00  0.00    +0.079 C 
ATOM      2  O1  UNL     1      17.037  34.435  15.798  0.00  0.00    -0.495 OA
ATOM      3  C2  UNL     1      16.768  33.101  15.934  0.00  0.00    +0.120 A 
ATOM      4  C3  UNL     1      15.828  32.537  16.799  0.00  0.00    -0.018 A 
ATOM      5  C4  UNL     1      15.653  31.150  16.839  0.00  0.00    -0.035 A 
ATOM      6  C5  UNL     1      16.417  30.320  16.014  0.00  0.00    +0.062 A 
ATOM      7  N1  UNL     1      16.252  28.895  16.026  0.00  0.00    -0.123 N 
ATOM      8  C6  UNL     1      16.793  28.218  17.135  0.00  0.00    +0.333 C 
ATOM      9  O2  UNL     1      17.458  28.825  17.976  0.00  0.00    -0.250 OA
ATOM     10  N2  UNL     1      16.630  26.829  17.227  0.00  0.00    -0.248 N 
ATOM     11  C7  UNL     1      17.287  26.177  18.373  0.00  0.00    +0.049 C 
ATOM     12  C8  UNL     1      18.651  25.596  18.072  0.00  0.00    +0.005 A 
ATOM     13  C9  UNL     1      19.653  26.331  17.422  0.00  0.00    -0.054 A 
ATOM     14  C10 UNL     1      20.912  25.770  17.188  0.00  0.00    -0.061 A 
ATOM     15  C11 UNL     1      21.192  24.471  17.611  0.00  0.00    -0.059 A 
ATOM     16  C12 UNL     1      20.215  23.736  18.276  0.00  0.00    -0.026 A 
ATOM     17  C13 UNL     1      18.965  24.302  18.506  0.00  0.00    +0.128 A 
ATOM     18  F1  UNL     1      18.041  23.574  19.150  0.00  0.00    -0.205 F 
ATOM     19  C14 UNL     1      15.932  26.036  16.258  0.00  0.00    +0.065 A 
ATOM     20  C15 UNL     1      15.994  24.629  16.268  0.00  0.00    -0.038 A 
ATOM     21  C16 UNL     1      15.338  23.850  15.306  0.00  0.00    -0.060 A 
ATOM     22  C17 UNL     1      14.587  24.454  14.306  0.00  0.00    -0.060 A 
ATOM     23  C18 UNL     1      14.486  25.839  14.282  0.00  0.00    -0.033 A 
ATOM     24  C19 UNL     1      15.146  26.605  15.259  0.00  0.00    +0.131 A 
ATOM     25  S1  UNL     1      14.912  28.335  15.220  0.00  0.00    +0.084 S 
ATOM     26  O3  UNL     1      15.004  28.740  13.830  0.00  0.00    -0.149 OA
ATOM     27  O4  UNL     1      13.728  28.614  16.006  0.00  0.00    -0.149 OA
ATOM     28  C20 UNL     1      17.355  30.880  15.145  0.00  0.00    -0.035 A 
ATOM     29  C21 UNL     1      17.526  32.266  15.109  0.00  0.00    -0.018 A 
ENDROOT
TORSDOF 0
ENDMDL
MODEL 4
REMARK VINA RESULT:    -4.620     18.064     21.345
REMARK INTER + INTRA:          -4.620
REMARK INTER:                  -4.620
REMARK INTRA:                   0.000
REMARK UNBOUND:                 0.000
REMARK  Name = /home/vital/Documents/PhD_2021/Malaria_codes/scripts/../data/pdbqt_ligands/ligand_177_temp.pdb
REMARK                            x       y       z     vdW  Elec       q    Type
REMARK                         _______ _______ _______ _____ _____    ______ ____
ROOT
ATOM      1  C1  UNL     1      14.343  29.679  26.536  0.00  0.00    +0.079 C 
ATOM      2  O1  UNL     1      15.450  29.174  25.800  0.00  0.00    -0.495 OA
ATOM      3  C2  UNL     1      15.346  29.198  24.436  0.00  0.00    +0.120 A 
ATOM      4  C3  UNL     1      14.253  29.664  23.703  0.00  0.00    -0.018 A 
ATOM      5  C4  UNL     1      14.279  29.631  22.305  0.00  0.00    -0.035 A 
ATOM      6  C5  UNL     1      15.399  29.131  21.634  0.00  0.00    +0.062 A 
ATOM      7  N1  UNL     1      15.458  29.094  20.201  0.00  0.00    -0.123 N 
ATOM      8  C6  UNL     1      14.690  28.094  19.575  0.00  0.00    +0.333 C 
ATOM      9  O2  UNL     1      14.098  27.247  20.245  0.00  0.00    -0.250 OA
ATOM     10  N2  UNL     1      14.672  28.030  18.174  0.00  0.00    -0.248 N 
ATOM     11  C7  UNL     1      13.910  26.913  17.590  0.00  0.00    +0.049 C 
ATOM     12  C8  UNL     1      14.740  25.699  17.237  0.00  0.00    +0.005 A 
ATOM     13  C9  UNL     1      15.640  25.117  18.142  0.00  0.00    -0.054 A 
ATOM     14  C10 UNL     1      16.368  23.976  17.789  0.00  0.00    -0.061 A 
ATOM     15  C11 UNL     1      16.198  23.393  16.534  0.00  0.00    -0.059 A 
ATOM     16  C12 UNL     1      15.292  23.946  15.634  0.00  0.00    -0.026 A 
ATOM     17  C13 UNL     1      14.570  25.081  15.992  0.00  0.00    +0.128 A 
ATOM     18  F1  UNL     1      13.703  25.593  15.108  0.00  0.00    -0.205 F 
ATOM     19  C14 UNL     1      15.387  28.932  17.319  0.00  0.00    +0.065 A 
ATOM     20  C15 UNL     1      15.529  28.689  15.940  0.00  0.00    -0.038 A 
ATOM     21  C16 UNL     1      16.252  29.551  15.105  0.00  0.00    -0.060 A 
ATOM     22  C17 UNL     1      16.849  30.693  15.623  0.00  0.00    -0.060 A 
ATOM     23  C18 UNL     1      16.708  30.974  16.975  0.00  0.00    -0.033 A 
ATOM     24  C19 UNL     1      15.974  30.101  17.797  0.00  0.00    +0.131 A 
ATOM     25  S1  UNL     1      15.767  30.554  19.471  0.00  0.00    +0.084 S 
ATOM     26  O3  UNL     1      17.051  31.043  19.936  0.00  0.00    -0.149 OA
ATOM     27  O4  UNL     1      14.580  31.383  19.535  0.00  0.00    -0.149 OA
ATOM     28  C20 UNL     1      16.495  28.668  22.362  0.00  0.00    -0.035 A 
ATOM     29  C21 UNL     1      16.464  28.703  23.759  0.00  0.00    -0.018 A 
ENDROOT
TORSDOF 0
ENDMDL
MODEL 5
REMARK VINA RESULT:    -4.336     18.729     21.991
REMARK INTER + INTRA:          -4.336
REMARK INTER:                  -4.336
REMARK INTRA:                   0.000
REMARK UNBOUND:                 0.000
REMARK  Name = /home/vital/Documents/PhD_2021/Malaria_codes/scripts/../data/pdbqt_ligands/ligand_177_temp.pdb
REMARK                            x       y       z     vdW  Elec       q    Type
REMARK                         _______ _______ _______ _____ _____    ______ ____
ROOT
ATOM      1  C1  UNL     1      16.769  26.641  26.297  0.00  0.00    +0.079 C 
ATOM      2  O1  UNL     1      17.414  25.998  25.206  0.00  0.00    -0.495 OA
ATOM      3  C2  UNL     1      17.299  26.597  23.982  0.00  0.00    +0.120 A 
ATOM      4  C3  UNL     1      16.602  27.775  23.706  0.00  0.00    -0.018 A 
ATOM      5  C4  UNL     1      16.565  28.280  22.401  0.00  0.00    -0.035 A 
ATOM      6  C5  UNL     1      17.225  27.610  21.368  0.00  0.00    +0.062 A 
ATOM      7  N1  UNL     1      17.213  28.110  20.024  0.00  0.00    -0.123 N 
ATOM      8  C6  UNL     1      16.012  27.939  19.310  0.00  0.00    +0.333 C 
ATOM      9  O2  UNL     1      15.080  27.297  19.797  0.00  0.00    -0.250 OA
ATOM     10  N2  UNL     1      15.921  28.442  18.004  0.00  0.00    -0.248 N 
ATOM     11  C7  UNL     1      14.664  28.159  17.291  0.00  0.00    +0.049 C 
ATOM     12  C8  UNL     1      14.708  26.943  16.392  0.00  0.00    +0.005 A 
ATOM     13  C9  UNL     1      15.186  25.700  16.833  0.00  0.00    -0.054 A 
ATOM     14  C10 UNL     1      15.182  24.591  15.982  0.00  0.00    -0.061 A 
ATOM     15  C11 UNL     1      14.690  24.704  14.682  0.00  0.00    -0.059 A 
ATOM     16  C12 UNL     1      14.192  25.925  14.236  0.00  0.00    -0.026 A 
ATOM     17  C13 UNL     1      14.198  27.024  15.090  0.00  0.00    +0.128 A 
ATOM     18  F1  UNL     1      13.712  28.189  14.637  0.00  0.00    -0.205 F 
ATOM     19  C14 UNL     1      16.982  29.138  17.336  0.00  0.00    +0.065 A 
ATOM     20  C15 UNL     1      16.931  29.415  15.957  0.00  0.00    -0.038 A 
ATOM     21  C16 UNL     1      17.978  30.070  15.292  0.00  0.00    -0.060 A 
ATOM     22  C17 UNL     1      19.107  30.477  15.991  0.00  0.00    -0.060 A 
ATOM     23  C18 UNL     1      19.177  30.239  17.357  0.00  0.00    -0.033 A 
ATOM     24  C19 UNL     1      18.115  29.588  18.008  0.00  0.00    +0.131 A 
ATOM     25  S1  UNL     1      18.231  29.391  19.740  0.00  0.00    +0.084 S 
ATOM     26  O3  UNL     1      19.591  28.976  20.025  0.00  0.00    -0.149 OA
ATOM     27  O4  UNL     1      17.672  30.589  20.334  0.00  0.00    -0.149 OA
ATOM     28  C20 UNL     1      17.926  26.435  21.640  0.00  0.00    -0.035 A 
ATOM     29  C21 UNL     1      17.960  25.934  22.944  0.00  0.00    -0.018 A 
ENDROOT
TORSDOF 0
ENDMDL
MODEL 6
REMARK VINA RESULT:    -4.142     19.754     22.431
REMARK INTER + INTRA:          -4.142
REMARK INTER:                  -4.142
REMARK INTRA:                   0.000
REMARK UNBOUND:                 0.000
REMARK  Name = /home/vital/Documents/PhD_2021/Malaria_codes/scripts/../data/pdbqt_ligands/ligand_177_temp.pdb
REMARK                            x       y       z     vdW  Elec       q    Type
REMARK                         _______ _______ _______ _____ _____    ______ ____
ROOT
ATOM      1  C1  UNL     1      23.482  28.481  21.589  0.00  0.00    +0.079 C 
ATOM      2  O1  UNL     1      22.191  29.067  21.697  0.00  0.00    -0.495 OA
ATOM      3  C2  UNL     1      21.246  28.648  20.802  0.00  0.00    +0.120 A 
ATOM      4  C3  UNL     1      21.435  27.706  19.789  0.00  0.00    -0.018 A 
ATOM      5  C4  UNL     1      20.377  27.368  18.938  0.00  0.00    -0.035 A 
ATOM      6  C5  UNL     1      19.126  27.971  19.097  0.00  0.00    +0.062 A 
ATOM      7  N1  UNL     1      18.020  27.636  18.246  0.00  0.00    -0.123 N 
ATOM      8  C6  UNL     1      18.061  28.163  16.941  0.00  0.00    +0.333 C 
ATOM      9  O2  UNL     1      18.949  28.950  16.611  0.00  0.00    -0.250 OA
ATOM     10  N2  UNL     1      17.031  27.839  16.047  0.00  0.00    -0.248 N 
ATOM     11  C7  UNL     1      17.098  28.487  14.726  0.00  0.00    +0.049 C 
ATOM     12  C8  UNL     1      16.271  29.748  14.598  0.00  0.00    +0.005 A 
ATOM     13  C9  UNL     1      16.338  30.787  15.538  0.00  0.00    -0.054 A 
ATOM     14  C10 UNL     1      15.582  31.951  15.370  0.00  0.00    -0.061 A 
ATOM     15  C11 UNL     1      14.758  32.099  14.255  0.00  0.00    -0.059 A 
ATOM     16  C12 UNL     1      14.698  31.086  13.302  0.00  0.00    -0.026 A 
ATOM     17  C13 UNL     1      15.454  29.931  13.475  0.00  0.00    +0.128 A 
ATOM     18  F1  UNL     1      15.380  28.971  12.543  0.00  0.00    -0.205 F 
ATOM     19  C14 UNL     1      15.923  26.988  16.370  0.00  0.00    +0.065 A 
ATOM     20  C15 UNL     1      14.801  26.881  15.528  0.00  0.00    -0.038 A 
ATOM     21  C16 UNL     1      13.702  26.073  15.853  0.00  0.00    -0.060 A 
ATOM     22  C17 UNL     1      13.697  25.338  17.031  0.00  0.00    -0.060 A 
ATOM     23  C18 UNL     1      14.799  25.403  17.873  0.00  0.00    -0.033 A 
ATOM     24  C19 UNL     1      15.895  26.213  17.527  0.00  0.00    +0.131 A 
ATOM     25  S1  UNL     1      17.281  26.188  18.588  0.00  0.00    +0.084 S 
ATOM     26  O3  UNL     1      16.773  26.236  19.946  0.00  0.00    -0.149 OA
ATOM     27  O4  UNL     1      18.128  25.100  18.143  0.00  0.00    -0.149 OA
ATOM     28  C20 UNL     1      18.932  28.910  20.110  0.00  0.00    -0.035 A 
ATOM     29  C21 UNL     1      19.991  29.244  20.957  0.00  0.00    -0.018 A 
ENDROOT
TORSDOF 0
ENDMDL
MODEL 7
REMARK VINA RESULT:    -4.101     18.969     21.434
REMARK INTER + INTRA:          -4.101
REMARK INTER:                  -4.101
REMARK INTRA:                   0.000
REMARK UNBOUND:                 0.000
REMARK  Name = /home/vital/Documents/PhD_2021/Malaria_codes/scripts/../data/pdbqt_ligands/ligand_177_temp.pdb
REMARK                            x       y       z     vdW  Elec       q    Type
REMARK                         _______ _______ _______ _____ _____    ______ ____
ROOT
ATOM      1  C1  UNL     1      14.646  37.743  17.384  0.00  0.00    +0.079 C 
ATOM      2  O1  UNL     1      14.941  36.605  18.184  0.00  0.00    -0.495 OA
ATOM      3  C2  UNL     1      15.407  35.496  17.533  0.00  0.00    +0.120 A 
ATOM      4  C3  UNL     1      15.610  35.377  16.157  0.00  0.00    -0.018 A 
ATOM      5  C4  UNL     1      16.093  34.179  15.619  0.00  0.00    -0.035 A 
ATOM      6  C5  UNL     1      16.374  33.095  16.456  0.00  0.00    +0.062 A 
ATOM      7  N1  UNL     1      16.879  31.858  15.934  0.00  0.00    -0.123 N 
ATOM      8  C6  UNL     1      15.949  31.043  15.262  0.00  0.00    +0.333 C 
ATOM      9  O2  UNL     1      14.756  31.347  15.233  0.00  0.00    -0.250 OA
ATOM     10  N2  UNL     1      16.389  29.839  14.692  0.00  0.00    -0.248 N 
ATOM     11  C7  UNL     1      15.348  29.002  14.073  0.00  0.00    +0.049 C 
ATOM     12  C8  UNL     1      14.797  27.914  14.968  0.00  0.00    +0.005 A 
ATOM     13  C9  UNL     1      14.356  28.170  16.275  0.00  0.00    -0.054 A 
ATOM     14  C10 UNL     1      13.824  27.143  17.062  0.00  0.00    -0.061 A 
ATOM     15  C11 UNL     1      13.714  25.851  16.551  0.00  0.00    -0.059 A 
ATOM     16  C12 UNL     1      14.127  25.586  15.249  0.00  0.00    -0.026 A 
ATOM     17  C13 UNL     1      14.654  26.612  14.471  0.00  0.00    +0.128 A 
ATOM     18  F1  UNL     1      15.044  26.332  13.219  0.00  0.00    -0.205 F 
ATOM     19  C14 UNL     1      17.745  29.376  14.741  0.00  0.00    +0.065 A 
ATOM     20  C15 UNL     1      18.092  28.064  14.366  0.00  0.00    -0.038 A 
ATOM     21  C16 UNL     1      19.412  27.596  14.439  0.00  0.00    -0.060 A 
ATOM     22  C17 UNL     1      20.429  28.431  14.881  0.00  0.00    -0.060 A 
ATOM     23  C18 UNL     1      20.123  29.738  15.235  0.00  0.00    -0.033 A 
ATOM     24  C19 UNL     1      18.796  30.193  15.150  0.00  0.00    +0.131 A 
ATOM     25  S1  UNL     1      18.491  31.869  15.534  0.00  0.00    +0.084 S 
ATOM     26  O3  UNL     1      19.263  32.175  16.723  0.00  0.00    -0.149 OA
ATOM     27  O4  UNL     1      18.676  32.618  14.307  0.00  0.00    -0.149 OA
ATOM     28  C20 UNL     1      16.175  33.212  17.832  0.00  0.00    -0.035 A 
ATOM     29  C21 UNL     1      15.693  34.410  18.364  0.00  0.00    -0.018 A 
ENDROOT
TORSDOF 0
ENDMDL
MODEL 8
REMARK VINA RESULT:    -4.052     19.133     21.781
REMARK INTER + INTRA:          -4.052
REMARK INTER:                  -4.052
REMARK INTRA:                   0.000
REMARK UNBOUND:                 0.000
REMARK  Name = /home/vital/Documents/PhD_2021/Malaria_codes/scripts/../data/pdbqt_ligands/ligand_177_temp.pdb
REMARK                            x       y       z     vdW  Elec       q    Type
REMARK                         _______ _______ _______ _____ _____    ______ ____
ROOT
ATOM      1  C1  UNL     1      15.700  22.590  17.132  0.00  0.00    +0.079 C 
ATOM      2  O1  UNL     1      14.721  23.621  17.146  0.00  0.00    -0.495 OA
ATOM      3  C2  UNL     1      15.116  24.855  16.710  0.00  0.00    +0.120 A 
ATOM      4  C3  UNL     1      16.394  25.197  16.261  0.00  0.00    -0.018 A 
ATOM      5  C4  UNL     1      16.665  26.504  15.841  0.00  0.00    -0.035 A 
ATOM      6  C5  UNL     1      15.659  27.474  15.869  0.00  0.00    +0.062 A 
ATOM      7  N1  UNL     1      15.905  28.819  15.436  0.00  0.00    -0.123 N 
ATOM      8  C6  UNL     1      16.650  29.627  16.315  0.00  0.00    +0.333 C 
ATOM      9  O2  UNL     1      16.966  29.213  17.431  0.00  0.00    -0.250 OA
ATOM     10  N2  UNL     1      16.960  30.940  15.932  0.00  0.00    -0.248 N 
ATOM     11  C7  UNL     1      17.674  31.752  16.932  0.00  0.00    +0.049 C 
ATOM     12  C8  UNL     1      16.785  32.634  17.781  0.00  0.00    +0.005 A 
ATOM     13  C9  UNL     1      15.642  32.144  18.431  0.00  0.00    -0.054 A 
ATOM     14  C10 UNL     1      14.862  32.983  19.232  0.00  0.00    -0.061 A 
ATOM     15  C11 UNL     1      15.219  34.320  19.406  0.00  0.00    -0.059 A 
ATOM     16  C12 UNL     1      16.363  34.815  18.787  0.00  0.00    -0.026 A 
ATOM     17  C13 UNL     1      17.135  33.974  17.991  0.00  0.00    +0.128 A 
ATOM     18  F1  UNL     1      18.232  34.474  17.406  0.00  0.00    -0.205 F 
ATOM     19  C14 UNL     1      16.571  31.525  14.682  0.00  0.00    +0.065 A 
ATOM     20  C15 UNL     1      16.698  32.906  14.440  0.00  0.00    -0.038 A 
ATOM     21  C16 UNL     1      16.292  33.489  13.231  0.00  0.00    -0.060 A 
ATOM     22  C17 UNL     1      15.755  32.704  12.220  0.00  0.00    -0.060 A 
ATOM     23  C18 UNL     1      15.639  31.335  12.418  0.00  0.00    -0.033 A 
ATOM     24  C19 UNL     1      16.056  30.766  13.634  0.00  0.00    +0.131 A 
ATOM     25  S1  UNL     1      15.957  29.030  13.789  0.00  0.00    +0.084 S 
ATOM     26  O3  UNL     1      14.680  28.631  13.229  0.00  0.00    -0.149 OA
ATOM     27  O4  UNL     1      17.202  28.494  13.276  0.00  0.00    -0.149 OA
ATOM     28  C20 UNL     1      14.381  27.136  16.313  0.00  0.00    -0.035 A 
ATOM     29  C21 UNL     1      14.115  25.830  16.731  0.00  0.00    -0.018 A 
ENDROOT
TORSDOF 0
ENDMDL
