MODEL 1
REMARK VINA RESULT:    -4.246      0.000      0.000
REMARK INTER + INTRA:          -4.246
REMARK INTER:                  -4.246
REMARK INTRA:                   0.000
REMARK UNBOUND:                 0.000
REMARK  Name = /home/vital/Documents/PhD_2021/Malaria_codes/scripts/../data/pdbqt_ligands/ligand_461_temp.pdb
REMARK                            x       y       z     vdW  Elec       q    Type
REMARK                         _______ _______ _______ _____ _____    ______ ____
ROOT
ATOM      1 CL   UNL     1      14.659  30.565  13.400  0.00  0.00    -0.090 Cl
ATOM      2  C   UNL     1      14.524  29.045  14.178  0.00  0.00    +0.023 C 
ATOM      3  C   UNL     1      15.495  28.128  14.287  0.00  0.00    +0.060 C 
ATOM      4 CL   UNL     1      17.074  28.353  13.606  0.00  0.00    -0.082 Cl
ATOM      5  C   UNL     1      15.272  26.845  14.953  0.00  0.00    +0.030 C 
ATOM      6  C   UNL     1      14.691  25.868  14.205  0.00  0.00    +0.044 C 
ATOM      7  N   UNL     1      14.308  24.545  14.426  0.00  0.00    -0.224 N 
ATOM      8  O   UNL     1      15.063  23.668  15.256  0.00  0.00    -0.339 OA
ATOM      9  C   UNL     1      15.314  24.243  16.465  0.00  0.00    +0.344 C 
ATOM     10  N   UNL     1      14.352  24.829  17.115  0.00  0.00    -0.195 N 
ATOM     11  C   UNL     1      14.699  26.118  17.431  0.00  0.00    +0.085 C 
ATOM     12  C   UNL     1      14.207  26.775  18.506  0.00  0.00    -0.028 C 
ATOM     13  C   UNL     1      14.704  28.114  18.754  0.00  0.00    +0.001 C 
ATOM     14  C   UNL     1      15.611  28.445  17.889  0.00  0.00    -0.016 C 
ATOM     15  N   UNL     1      16.236  28.141  16.944  0.00  0.00    -0.218 NA
ATOM     16  C   UNL     1      15.733  26.804  16.433  0.00  0.00    +0.175 C 
ATOM     17  C   UNL     1      16.876  25.804  16.549  0.00  0.00    +0.049 C 
ATOM     18  N   UNL     1      16.657  24.523  16.599  0.00  0.00    -0.203 NA
ATOM     19  H   UNL     1      13.489  24.208  13.995  0.00  0.00    +0.000 HD
ATOM     20  H   UNL     1      13.494  24.406  17.348  0.00  0.00    +0.000 HD
ENDROOT
TORSDOF 0
ENDMDL
MODEL 2
REMARK VINA RESULT:    -4.108      1.755      3.014
REMARK INTER + INTRA:          -4.108
REMARK INTER:                  -4.108
REMARK INTRA:                   0.000
REMARK UNBOUND:                 0.000
REMARK  Name = /home/vital/Documents/PhD_2021/Malaria_codes/scripts/../data/pdbqt_ligands/ligand_461_temp.pdb
REMARK                            x       y       z     vdW  Elec       q    Type
REMARK                         _______ _______ _______ _____ _____    ______ ____
ROOT
ATOM      1 CL   UNL     1      15.934  31.600  16.205  0.00  0.00    -0.090 Cl
ATOM      2  C   UNL     1      15.798  29.907  16.433  0.00  0.00    +0.023 C 
ATOM      3  C   UNL     1      15.138  29.057  15.635  0.00  0.00    +0.060 C 
ATOM      4 CL   UNL     1      14.276  29.578  14.223  0.00  0.00    -0.082 Cl
ATOM      5  C   UNL     1      15.060  27.627  15.930  0.00  0.00    +0.030 C 
ATOM      6  C   UNL     1      14.103  27.243  16.817  0.00  0.00    +0.044 C 
ATOM      7  N   UNL     1      13.690  26.029  17.368  0.00  0.00    -0.224 N 
ATOM      8  O   UNL     1      13.690  24.819  16.617  0.00  0.00    -0.339 OA
ATOM      9  C   UNL     1      14.897  24.622  16.018  0.00  0.00    +0.344 C 
ATOM     10  N   UNL     1      15.993  24.777  16.702  0.00  0.00    -0.195 N 
ATOM     11  C   UNL     1      16.830  25.666  16.078  0.00  0.00    +0.085 C 
ATOM     12  C   UNL     1      18.176  25.632  16.208  0.00  0.00    -0.028 C 
ATOM     13  C   UNL     1      18.944  26.596  15.445  0.00  0.00    +0.001 C 
ATOM     14  C   UNL     1      18.173  27.325  14.700  0.00  0.00    -0.016 C 
ATOM     15  N   UNL     1      17.081  27.577  14.354  0.00  0.00    -0.218 NA
ATOM     16  C   UNL     1      16.104  26.760  15.178  0.00  0.00    +0.175 C 
ATOM     17  C   UNL     1      15.359  25.832  14.228  0.00  0.00    +0.049 C 
ATOM     18  N   UNL     1      14.785  24.745  14.649  0.00  0.00    -0.203 NA
ATOM     19  H   UNL     1      13.389  26.009  18.306  0.00  0.00    +0.000 HD
ATOM     20  H   UNL     1      16.192  24.320  17.551  0.00  0.00    +0.000 HD
ENDROOT
TORSDOF 0
ENDMDL
MODEL 3
REMARK VINA RESULT:    -3.933      2.137      3.126
REMARK INTER + INTRA:          -3.933
REMARK INTER:                  -3.933
REMARK INTRA:                   0.000
REMARK UNBOUND:                 0.000
REMARK  Name = /home/vital/Documents/PhD_2021/Malaria_codes/scripts/../data/pdbqt_ligands/ligand_461_temp.pdb
REMARK                            x       y       z     vdW  Elec       q    Type
REMARK                         _______ _______ _______ _____ _____    ______ ____
ROOT
ATOM      1 CL   UNL     1      20.185  28.256  13.944  0.00  0.00    -0.090 Cl
ATOM      2  C   UNL     1      18.610  27.635  14.211  0.00  0.00    +0.023 C 
ATOM      3  C   UNL     1      18.117  27.223  15.387  0.00  0.00    +0.060 C 
ATOM      4 CL   UNL     1      19.050  27.238  16.849  0.00  0.00    -0.082 Cl
ATOM      5  C   UNL     1      16.763  26.684  15.508  0.00  0.00    +0.030 C 
ATOM      6  C   UNL     1      16.604  25.370  15.193  0.00  0.00    +0.044 C 
ATOM      7  N   UNL     1      15.531  24.479  15.166  0.00  0.00    -0.224 N 
ATOM      8  O   UNL     1      14.482  24.529  16.128  0.00  0.00    -0.339 OA
ATOM      9  C   UNL     1      13.981  25.791  16.232  0.00  0.00    +0.344 C 
ATOM     10  N   UNL     1      13.695  26.464  15.156  0.00  0.00    -0.195 N 
ATOM     11  C   UNL     1      14.336  27.677  15.160  0.00  0.00    +0.085 C 
ATOM     12  C   UNL     1      13.857  28.770  14.524  0.00  0.00    -0.028 C 
ATOM     13  C   UNL     1      14.607  30.003  14.661  0.00  0.00    +0.001 C 
ATOM     14  C   UNL     1      15.627  29.847  15.445  0.00  0.00    -0.016 C 
ATOM     15  N   UNL     1      16.255  29.121  16.120  0.00  0.00    -0.218 NA
ATOM     16  C   UNL     1      15.703  27.715  15.975  0.00  0.00    +0.175 C 
ATOM     17  C   UNL     1      15.182  27.280  17.338  0.00  0.00    +0.049 C 
ATOM     18  N   UNL     1      14.293  26.338  17.458  0.00  0.00    -0.203 NA
ATOM     19  H   UNL     1      15.498  23.794  14.459  0.00  0.00    +0.000 HD
ATOM     20  H   UNL     1      13.101  26.147  14.438  0.00  0.00    +0.000 HD
ENDROOT
TORSDOF 0
ENDMDL
MODEL 4
REMARK VINA RESULT:    -3.896      2.783      4.320
REMARK INTER + INTRA:          -3.896
REMARK INTER:                  -3.896
REMARK INTRA:                   0.000
REMARK UNBOUND:                 0.000
REMARK  Name = /home/vital/Documents/PhD_2021/Malaria_codes/scripts/../data/pdbqt_ligands/ligand_461_temp.pdb
REMARK                            x       y       z     vdW  Elec       q    Type
REMARK                         _______ _______ _______ _____ _____    ______ ____
ROOT
ATOM      1 CL   UNL     1      16.112  22.650  16.493  0.00  0.00    -0.090 Cl
ATOM      2  C   UNL     1      16.271  24.354  16.404  0.00  0.00    +0.023 C 
ATOM      3  C   UNL     1      15.692  25.151  15.497  0.00  0.00    +0.060 C 
ATOM      4 CL   UNL     1      14.684  24.541  14.223  0.00  0.00    -0.082 Cl
ATOM      5  C   UNL     1      15.909  26.598  15.490  0.00  0.00    +0.030 C 
ATOM      6  C   UNL     1      17.042  27.037  14.878  0.00  0.00    +0.044 C 
ATOM      7  N   UNL     1      17.626  28.282  14.647  0.00  0.00    -0.224 N 
ATOM      8  O   UNL     1      16.848  29.442  14.369  0.00  0.00    -0.339 OA
ATOM      9  C   UNL     1      15.867  29.602  15.301  0.00  0.00    +0.344 C 
ATOM     10  N   UNL     1      16.153  29.491  16.566  0.00  0.00    -0.195 N 
ATOM     11  C   UNL     1      15.338  28.564  17.165  0.00  0.00    +0.085 C 
ATOM     12  C   UNL     1      15.006  28.608  18.475  0.00  0.00    -0.028 C 
ATOM     13  C   UNL     1      14.088  27.598  18.964  0.00  0.00    +0.001 C 
ATOM     14  C   UNL     1      13.690  26.822  18.005  0.00  0.00    -0.016 C 
ATOM     15  N   UNL     1      13.746  26.548  16.866  0.00  0.00    -0.218 NA
ATOM     16  C   UNL     1      14.800  27.415  16.203  0.00  0.00    +0.175 C 
ATOM     17  C   UNL     1      14.102  28.280  15.163  0.00  0.00    +0.049 C 
ATOM     18  N   UNL     1      14.626  29.392  14.740  0.00  0.00    -0.203 NA
ATOM     19  H   UNL     1      18.607  28.361  14.677  0.00  0.00    +0.000 HD
ATOM     20  H   UNL     1      16.856  30.001  17.028  0.00  0.00    +0.000 HD
ENDROOT
TORSDOF 0
ENDMDL
MODEL 5
REMARK VINA RESULT:    -3.799      2.686      3.616
REMARK INTER + INTRA:          -3.799
REMARK INTER:                  -3.799
REMARK INTRA:                   0.000
REMARK UNBOUND:                 0.000
REMARK  Name = /home/vital/Documents/PhD_2021/Malaria_codes/scripts/../data/pdbqt_ligands/ligand_461_temp.pdb
REMARK                            x       y       z     vdW  Elec       q    Type
REMARK                         _______ _______ _______ _____ _____    ______ ____
ROOT
ATOM      1 CL   UNL     1      14.125  28.456  20.643  0.00  0.00    -0.090 Cl
ATOM      2  C   UNL     1      14.247  27.614  19.156  0.00  0.00    +0.023 C 
ATOM      3  C   UNL     1      15.022  27.958  18.119  0.00  0.00    +0.060 C 
ATOM      4 CL   UNL     1      16.027  29.371  18.131  0.00  0.00    -0.082 Cl
ATOM      5  C   UNL     1      15.038  27.184  16.878  0.00  0.00    +0.030 C 
ATOM      6  C   UNL     1      14.047  27.452  15.985  0.00  0.00    +0.044 C 
ATOM      7  N   UNL     1      13.690  26.970  14.726  0.00  0.00    -0.224 N 
ATOM      8  O   UNL     1      14.663  26.590  13.757  0.00  0.00    -0.339 OA
ATOM      9  C   UNL     1      15.572  25.730  14.297  0.00  0.00    +0.344 C 
ATOM     10  N   UNL     1      15.163  24.720  15.007  0.00  0.00    -0.195 N 
ATOM     11  C   UNL     1      15.765  24.721  16.240  0.00  0.00    +0.085 C 
ATOM     12  C   UNL     1      15.984  23.597  16.958  0.00  0.00    -0.028 C 
ATOM     13  C   UNL     1      16.683  23.738  18.220  0.00  0.00    +0.001 C 
ATOM     14  C   UNL     1      17.036  24.968  18.426  0.00  0.00    -0.016 C 
ATOM     15  N   UNL     1      17.037  26.075  18.039  0.00  0.00    -0.218 NA
ATOM     16  C   UNL     1      16.196  26.156  16.779  0.00  0.00    +0.175 C 
ATOM     17  C   UNL     1      17.111  26.577  15.637  0.00  0.00    +0.049 C 
ATOM     18  N   UNL     1      16.808  26.330  14.397  0.00  0.00    -0.203 NA
ATOM     19  H   UNL     1      12.735  26.891  14.498  0.00  0.00    +0.000 HD
ATOM     20  H   UNL     1      14.512  24.048  14.702  0.00  0.00    +0.000 HD
ENDROOT
TORSDOF 0
ENDMDL
MODEL 6
REMARK VINA RESULT:    -3.741      2.594      3.916
REMARK INTER + INTRA:          -3.741
REMARK INTER:                  -3.741
REMARK INTRA:                   0.000
REMARK UNBOUND:                 0.000
REMARK  Name = /home/vital/Documents/PhD_2021/Malaria_codes/scripts/../data/pdbqt_ligands/ligand_461_temp.pdb
REMARK                            x       y       z     vdW  Elec       q    Type
REMARK                         _______ _______ _______ _____ _____    ______ ____
ROOT
ATOM      1 CL   UNL     1      15.157  30.813  19.616  0.00  0.00    -0.090 Cl
ATOM      2  C   UNL     1      15.624  29.449  18.689  0.00  0.00    +0.023 C 
ATOM      3  C   UNL     1      15.038  28.245  18.713  0.00  0.00    +0.060 C 
ATOM      4 CL   UNL     1      13.691  27.880  19.743  0.00  0.00    -0.082 Cl
ATOM      5  C   UNL     1      15.528  27.133  17.898  0.00  0.00    +0.030 C 
ATOM      6  C   UNL     1      16.574  26.426  18.405  0.00  0.00    +0.044 C 
ATOM      7  N   UNL     1      17.330  25.333  17.983  0.00  0.00    -0.224 N 
ATOM      8  O   UNL     1      16.753  24.248  17.263  0.00  0.00    -0.339 OA
ATOM      9  C   UNL     1      16.035  24.701  16.198  0.00  0.00    +0.344 C 
ATOM     10  N   UNL     1      16.547  25.600  15.408  0.00  0.00    -0.195 N 
ATOM     11  C   UNL     1      15.707  26.680  15.298  0.00  0.00    +0.085 C 
ATOM     12  C   UNL     1      15.666  27.477  14.207  0.00  0.00    -0.028 C 
ATOM     13  C   UNL     1      14.690  28.548  14.200  0.00  0.00    +0.001 C 
ATOM     14  C   UNL     1      13.960  28.523  15.270  0.00  0.00    -0.016 C 
ATOM     15  N   UNL     1      13.726  28.008  16.298  0.00  0.00    -0.218 NA
ATOM     16  C   UNL     1      14.770  26.938  16.559  0.00  0.00    +0.175 C 
ATOM     17  C   UNL     1      14.056  25.594  16.606  0.00  0.00    +0.049 C 
ATOM     18  N   UNL     1      14.689  24.479  16.390  0.00  0.00    -0.203 NA
ATOM     19  H   UNL     1      18.293  25.310  18.190  0.00  0.00    +0.000 HD
ATOM     20  H   UNL     1      17.416  25.517  14.954  0.00  0.00    +0.000 HD
ENDROOT
TORSDOF 0
ENDMDL
MODEL 7
REMARK VINA RESULT:    -3.635      2.135      3.787
REMARK INTER + INTRA:          -3.635
REMARK INTER:                  -3.635
REMARK INTRA:                   0.000
REMARK UNBOUND:                 0.000
REMARK  Name = /home/vital/Documents/PhD_2021/Malaria_codes/scripts/../data/pdbqt_ligands/ligand_461_temp.pdb
REMARK                            x       y       z     vdW  Elec       q    Type
REMARK                         _______ _______ _______ _____ _____    ______ ____
ROOT
ATOM      1 CL   UNL     1      19.247  28.311  13.294  0.00  0.00    -0.090 Cl
ATOM      2  C   UNL     1      18.274  27.678  14.555  0.00  0.00    +0.023 C 
ATOM      3  C   UNL     1      17.264  28.314  15.163  0.00  0.00    +0.060 C 
ATOM      4 CL   UNL     1      16.802  29.936  14.760  0.00  0.00    -0.082 Cl
ATOM      5  C   UNL     1      16.507  27.694  16.250  0.00  0.00    +0.030 C 
ATOM      6  C   UNL     1      17.057  27.771  17.492  0.00  0.00    +0.044 C 
ATOM      7  N   UNL     1      16.694  27.335  18.766  0.00  0.00    -0.224 N 
ATOM      8  O   UNL     1      15.339  27.322  19.205  0.00  0.00    -0.339 OA
ATOM      9  C   UNL     1      14.543  26.688  18.298  0.00  0.00    +0.344 C 
ATOM     10  N   UNL     1      14.912  25.542  17.804  0.00  0.00    -0.195 N 
ATOM     11  C   UNL     1      14.917  25.587  16.433  0.00  0.00    +0.085 C 
ATOM     12  C   UNL     1      14.717  24.499  15.656  0.00  0.00    -0.028 C 
ATOM     13  C   UNL     1      14.689  24.700  14.221  0.00  0.00    +0.001 C 
ATOM     14  C   UNL     1      14.819  25.954  13.921  0.00  0.00    -0.016 C 
ATOM     15  N   UNL     1      14.966  27.053  14.303  0.00  0.00    -0.218 NA
ATOM     16  C   UNL     1      15.179  27.026  15.805  0.00  0.00    +0.175 C 
ATOM     17  C   UNL     1      14.025  27.783  16.450  0.00  0.00    +0.049 C 
ATOM     18  N   UNL     1      13.690  27.584  17.691  0.00  0.00    -0.203 NA
ATOM     19  H   UNL     1      17.397  27.026  19.383  0.00  0.00    +0.000 HD
ATOM     20  H   UNL     1      15.154  24.753  18.340  0.00  0.00    +0.000 HD
ENDROOT
TORSDOF 0
ENDMDL
MODEL 8
REMARK VINA RESULT:    -3.522      3.106      4.493
REMARK INTER + INTRA:          -3.522
REMARK INTER:                  -3.522
REMARK INTRA:                   0.000
REMARK UNBOUND:                 0.000
REMARK  Name = /home/vital/Documents/PhD_2021/Malaria_codes/scripts/../data/pdbqt_ligands/ligand_461_temp.pdb
REMARK                            x       y       z     vdW  Elec       q    Type
REMARK                         _______ _______ _______ _____ _____    ______ ____
ROOT
ATOM      1 CL   UNL     1      13.929  27.738  20.030  0.00  0.00    -0.090 Cl
ATOM      2  C   UNL     1      14.269  27.940  18.363  0.00  0.00    +0.023 C 
ATOM      3  C   UNL     1      15.483  28.116  17.824  0.00  0.00    +0.060 C 
ATOM      4 CL   UNL     1      16.928  28.191  18.780  0.00  0.00    -0.082 Cl
ATOM      5  C   UNL     1      15.668  28.303  16.385  0.00  0.00    +0.030 C 
ATOM      6  C   UNL     1      15.480  29.565  15.911  0.00  0.00    +0.044 C 
ATOM      7  N   UNL     1      15.548  30.173  14.657  0.00  0.00    -0.224 N 
ATOM      8  O   UNL     1      16.511  29.788  13.681  0.00  0.00    -0.339 OA
ATOM      9  C   UNL     1      16.499  28.439  13.495  0.00  0.00    +0.344 C 
ATOM     10  N   UNL     1      15.367  27.817  13.342  0.00  0.00    -0.195 N 
ATOM     11  C   UNL     1      15.250  26.796  14.251  0.00  0.00    +0.085 C 
ATOM     12  C   UNL     1      14.517  25.683  14.024  0.00  0.00    -0.028 C 
ATOM     13  C   UNL     1      14.529  24.656  15.048  0.00  0.00    +0.001 C 
ATOM     14  C   UNL     1      15.315  24.980  16.027  0.00  0.00    -0.016 C 
ATOM     15  N   UNL     1      16.050  25.770  16.487  0.00  0.00    -0.218 NA
ATOM     16  C   UNL     1      16.045  27.011  15.614  0.00  0.00    +0.175 C 
ATOM     17  C   UNL     1      17.448  27.186  15.049  0.00  0.00    +0.049 C 
ATOM     18  N   UNL     1      17.665  27.874  13.967  0.00  0.00    -0.203 NA
ATOM     19  H   UNL     1      14.910  30.891  14.441  0.00  0.00    +0.000 HD
ATOM     20  H   UNL     1      14.688  28.047  12.668  0.00  0.00    +0.000 HD
ENDROOT
TORSDOF 0
ENDMDL
MODEL 9
REMARK VINA RESULT:    -3.461      2.350      3.805
REMARK INTER + INTRA:          -3.461
REMARK INTER:                  -3.461
REMARK INTRA:                   0.000
REMARK UNBOUND:                 0.000
REMARK  Name = /home/vital/Documents/PhD_2021/Malaria_codes/scripts/../data/pdbqt_ligands/ligand_461_temp.pdb
REMARK                            x       y       z     vdW  Elec       q    Type
REMARK                         _______ _______ _______ _____ _____    ______ ____
ROOT
ATOM      1 CL   UNL     1      17.913  30.596  18.522  0.00  0.00    -0.090 Cl
ATOM      2  C   UNL     1      17.443  29.247  17.575  0.00  0.00    +0.023 C 
ATOM      3  C   UNL     1      16.328  28.523  17.739  0.00  0.00    +0.060 C 
ATOM      4 CL   UNL     1      15.178  28.847  18.995  0.00  0.00    -0.082 Cl
ATOM      5  C   UNL     1      16.027  27.370  16.890  0.00  0.00    +0.030 C 
ATOM      6  C   UNL     1      16.618  26.194  17.235  0.00  0.00    +0.044 C 
ATOM      7  N   UNL     1      16.613  24.895  16.727  0.00  0.00    -0.224 N 
ATOM      8  O   UNL     1      15.448  24.312  16.152  0.00  0.00    -0.339 OA
ATOM      9  C   UNL     1      14.909  25.136  15.210  0.00  0.00    +0.344 C 
ATOM     10  N   UNL     1      15.678  25.685  14.316  0.00  0.00    -0.195 N 
ATOM     11  C   UNL     1      15.519  27.048  14.314  0.00  0.00    +0.085 C 
ATOM     12  C   UNL     1      15.722  27.816  13.220  0.00  0.00    -0.028 C 
ATOM     13  C   UNL     1      15.461  29.236  13.343  0.00  0.00    +0.001 C 
ATOM     14  C   UNL     1      15.010  29.528  14.523  0.00  0.00    -0.016 C 
ATOM     15  N   UNL     1      14.713  29.147  15.592  0.00  0.00    -0.218 NA
ATOM     16  C   UNL     1      15.073  27.678  15.707  0.00  0.00    +0.175 C 
ATOM     17  C   UNL     1      13.782  26.899  15.920  0.00  0.00    +0.049 C 
ATOM     18  N   UNL     1      13.696  25.633  15.637  0.00  0.00    -0.203 NA
ATOM     19  H   UNL     1      17.442  24.364  16.768  0.00  0.00    +0.000 HD
ATOM     20  H   UNL     1      16.289  25.192  13.723  0.00  0.00    +0.000 HD
ENDROOT
TORSDOF 0
ENDMDL
