MODEL 1
REMARK VINA RESULT:    -5.259      0.000      0.000
REMARK INTER + INTRA:          -5.259
REMARK INTER:                  -5.259
REMARK INTRA:                   0.000
REMARK UNBOUND:                 0.000
REMARK  Name = /home/vital/Documents/PhD_2021/Malaria_codes/scripts/../data/pdbqt_ligands/ligand_187_temp.pdb
REMARK                            x       y       z     vdW  Elec       q    Type
REMARK                         _______ _______ _______ _____ _____    ______ ____
ROOT
ATOM      1  C   UNL     1      15.918  25.433  15.207  0.00  0.00    -0.009 C 
ATOM      2  N   UNL     1      15.755  26.584  15.768  0.00  0.00    -0.271 NA
ATOM      3  C   UNL     1      14.448  26.959  15.932  0.00  0.00    +0.027 C 
ATOM      4  C   UNL     1      13.933  28.114  15.479  0.00  0.00    -0.044 C 
ATOM      5  C   UNL     1      14.672  29.092  14.711  0.00  0.00    -0.064 C 
ATOM      6  C   UNL     1      14.131  30.218  14.221  0.00  0.00    -0.081 C 
ATOM      7  C   UNL     1      14.901  31.199  13.373  0.00  0.00    -0.000 C 
ATOM      8  C   UNL     1      14.926  32.611  13.960  0.00  0.00    +0.092 C 
ATOM      9  O   UNL     1      15.778  32.625  15.110  0.00  0.00    -0.499 OA
ATOM     10  C   UNL     1      16.182  33.879  15.469  0.00  0.00    +0.082 C 
ATOM     11  C   UNL     1      16.548  34.162  16.724  0.00  0.00    -0.033 C 
ATOM     12  C   UNL     1      17.087  35.487  17.153  0.00  0.00    +0.032 C 
ATOM     13  N   UNL     1      15.993  36.289  17.647  0.00  0.00    -0.325 N 
ATOM     14  C   UNL     1      15.305  37.205  16.874  0.00  0.00    +0.119 C 
ATOM     15  C   UNL     1      14.022  37.750  17.435  0.00  0.00    -0.022 C 
ATOM     16  C   UNL     1      13.923  38.403  18.603  0.00  0.00    -0.059 C 
ATOM     17  C   UNL     1      15.015  38.741  19.495  0.00  0.00    -0.061 C 
ATOM     18  C   UNL     1      14.935  39.329  20.702  0.00  0.00    -0.054 C 
ATOM     19  C   UNL     1      13.741  39.776  21.378  0.00  0.00    -0.011 C 
ATOM     20  C   UNL     1      13.759  40.075  22.646  0.00  0.00    -0.068 C 
ATOM     21  C   UNL     1      13.764  40.347  23.816  0.00  0.00    -0.050 C 
ATOM     22  C   UNL     1      13.748  40.630  25.085  0.00  0.00    +0.078 C 
ATOM     23  N   UNL     1      14.601  41.592  25.537  0.00  0.00    -0.254 NA
ATOM     24  C   UNL     1      14.967  41.609  26.778  0.00  0.00    +0.029 C 
ATOM     25  C   UNL     1      14.589  40.706  27.897  0.00  0.00    -0.035 C 
ATOM     26  C   UNL     1      15.176  40.738  29.102  0.00  0.00    -0.007 C 
ATOM     27  C   UNL     1      16.261  41.586  29.456  0.00  0.00    -0.031 C 
ATOM     28  C   UNL     1      17.189  42.278  29.781  0.00  0.00    +0.123 C 
ATOM     29  O   UNL     1      18.205  43.057  30.148  0.00  0.00    -0.394 OA
ATOM     30  C   UNL     1      19.258  42.383  30.759  0.00  0.00    +0.203 C 
ATOM     31 CL   UNL     1      19.556  40.681  30.523  0.00  0.00    -0.042 Cl
ATOM     32  C   UNL     1      20.122  43.052  31.540  0.00  0.00    -0.032 C 
ATOM     33  C   UNL     1      20.053  44.510  31.862  0.00  0.00    -0.042 C 
ATOM     34  N   UNL     1      15.792  37.552  15.713  0.00  0.00    -0.241 N 
ATOM     35  C   UNL     1      15.159  38.471  14.919  0.00  0.00    +0.030 C 
ATOM     36  C   UNL     1      15.778  39.166  13.953  0.00  0.00    -0.044 C 
ATOM     37  C   UNL     1      17.187  39.066  13.644  0.00  0.00    -0.065 C 
ATOM     38  C   UNL     1      17.778  39.800  12.690  0.00  0.00    -0.087 C 
ATOM     39  C   UNL     1      19.231  39.707  12.358  0.00  0.00    -0.047 C 
ATOM     40  H   UNL     1      15.722  36.178  18.588  0.00  0.00    +0.000 HD
ATOM     41  H   UNL     1      16.632  37.144  15.403  0.00  0.00    +0.000 HD
ENDROOT
TORSDOF 0
ENDMDL
MODEL 2
REMARK VINA RESULT:    -4.641      9.929     17.271
REMARK INTER + INTRA:          -4.641
REMARK INTER:                  -4.641
REMARK INTRA:                   0.000
REMARK UNBOUND:                 0.000
REMARK  Name = /home/vital/Documents/PhD_2021/Malaria_codes/scripts/../data/pdbqt_ligands/ligand_187_temp.pdb
REMARK                            x       y       z     vdW  Elec       q    Type
REMARK                         _______ _______ _______ _____ _____    ______ ____
ROOT
ATOM      1  C   UNL     1      16.756  44.405  36.929  0.00  0.00    -0.009 C 
ATOM      2  N   UNL     1      17.321  44.623  35.789  0.00  0.00    -0.271 NA
ATOM      3  C   UNL     1      17.339  45.935  35.401  0.00  0.00    +0.027 C 
ATOM      4  C   UNL     1      16.857  46.382  34.229  0.00  0.00    -0.044 C 
ATOM      5  C   UNL     1      16.206  45.547  33.243  0.00  0.00    -0.064 C 
ATOM      6  C   UNL     1      15.684  46.014  32.099  0.00  0.00    -0.081 C 
ATOM      7  C   UNL     1      14.958  45.139  31.108  0.00  0.00    -0.000 C 
ATOM      8  C   UNL     1      15.578  45.170  29.711  0.00  0.00    +0.092 C 
ATOM      9  O   UNL     1      16.821  44.461  29.735  0.00  0.00    -0.499 OA
ATOM     10  C   UNL     1      17.257  44.090  28.495  0.00  0.00    +0.082 C 
ATOM     11  C   UNL     1      18.553  43.872  28.246  0.00  0.00    -0.033 C 
ATOM     12  C   UNL     1      19.076  43.375  26.939  0.00  0.00    +0.032 C 
ATOM     13  N   UNL     1      19.457  44.512  26.135  0.00  0.00    -0.325 N 
ATOM     14  C   UNL     1      18.631  45.093  25.192  0.00  0.00    +0.119 C 
ATOM     15  C   UNL     1      19.049  46.428  24.644  0.00  0.00    -0.022 C 
ATOM     16  C   UNL     1      20.213  46.659  24.017  0.00  0.00    -0.059 C 
ATOM     17  C   UNL     1      21.237  45.677  23.715  0.00  0.00    -0.061 C 
ATOM     18  C   UNL     1      22.439  45.894  23.155  0.00  0.00    -0.054 C 
ATOM     19  C   UNL     1      22.980  47.156  22.707  0.00  0.00    -0.011 C 
ATOM     20  C   UNL     1      24.249  47.286  22.439  0.00  0.00    -0.068 C 
ATOM     21  C   UNL     1      25.417  47.417  22.195  0.00  0.00    -0.050 C 
ATOM     22  C   UNL     1      26.682  47.580  21.942  0.00  0.00    +0.078 C 
ATOM     23  N   UNL     1      27.255  46.778  21.002  0.00  0.00    -0.254 NA
ATOM     24  C   UNL     1      28.532  46.561  21.018  0.00  0.00    +0.029 C 
ATOM     25  C   UNL     1      29.575  47.079  21.943  0.00  0.00    -0.035 C 
ATOM     26  C   UNL     1      30.841  46.639  21.946  0.00  0.00    -0.007 C 
ATOM     27  C   UNL     1      31.343  45.595  21.121  0.00  0.00    -0.031 C 
ATOM     28  C   UNL     1      31.792  44.706  20.449  0.00  0.00    +0.123 C 
ATOM     29  O   UNL     1      32.297  43.733  19.693  0.00  0.00    -0.394 OA
ATOM     30  C   UNL     1      33.011  42.767  20.394  0.00  0.00    +0.203 C 
ATOM     31 CL   UNL     1      32.769  42.460  22.094  0.00  0.00    -0.042 Cl
ATOM     32  C   UNL     1      33.906  41.995  19.755  0.00  0.00    -0.032 C 
ATOM     33  C   UNL     1      34.253  42.087  18.304  0.00  0.00    -0.042 C 
ATOM     34  N   UNL     1      17.545  44.469  24.825  0.00  0.00    -0.241 N 
ATOM     35  C   UNL     1      16.704  44.993  23.879  0.00  0.00    +0.030 C 
ATOM     36  C   UNL     1      15.837  44.257  23.169  0.00  0.00    -0.044 C 
ATOM     37  C   UNL     1      15.694  42.822  23.280  0.00  0.00    -0.065 C 
ATOM     38  C   UNL     1      14.835  42.115  22.531  0.00  0.00    -0.087 C 
ATOM     39  C   UNL     1      14.676  40.633  22.636  0.00  0.00    -0.047 C 
ATOM     40  H   UNL     1      20.355  44.894  26.265  0.00  0.00    +0.000 HD
ATOM     41  H   UNL     1      17.326  43.602  25.236  0.00  0.00    +0.000 HD
ENDROOT
TORSDOF 0
ENDMDL
MODEL 3
REMARK VINA RESULT:    -4.411      1.643      1.900
REMARK INTER + INTRA:          -4.411
REMARK INTER:                  -4.411
REMARK INTRA:                   0.000
REMARK UNBOUND:                 0.000
REMARK  Name = /home/vital/Documents/PhD_2021/Malaria_codes/scripts/../data/pdbqt_ligands/ligand_187_temp.pdb
REMARK                            x       y       z     vdW  Elec       q    Type
REMARK                         _______ _______ _______ _____ _____    ______ ____
ROOT
ATOM      1  C   UNL     1      18.416  27.116  15.447  0.00  0.00    -0.009 C 
ATOM      2  N   UNL     1      18.054  28.163  16.110  0.00  0.00    -0.271 NA
ATOM      3  C   UNL     1      16.722  28.211  16.421  0.00  0.00    +0.027 C 
ATOM      4  C   UNL     1      15.911  29.235  16.109  0.00  0.00    -0.044 C 
ATOM      5  C   UNL     1      16.321  30.401  15.357  0.00  0.00    -0.064 C 
ATOM      6  C   UNL     1      15.488  31.394  15.009  0.00  0.00    -0.081 C 
ATOM      7  C   UNL     1      15.918  32.574  14.175  0.00  0.00    -0.000 C 
ATOM      8  C   UNL     1      15.682  33.918  14.867  0.00  0.00    +0.092 C 
ATOM      9  O   UNL     1      16.626  34.067  15.932  0.00  0.00    -0.499 OA
ATOM     10  C   UNL     1      16.769  35.359  16.351  0.00  0.00    +0.082 C 
ATOM     11  C   UNL     1      17.193  35.650  17.586  0.00  0.00    -0.033 C 
ATOM     12  C   UNL     1      17.457  37.038  18.068  0.00  0.00    +0.032 C 
ATOM     13  N   UNL     1      16.268  37.532  18.722  0.00  0.00    -0.325 N 
ATOM     14  C   UNL     1      15.311  38.302  18.089  0.00  0.00    +0.119 C 
ATOM     15  C   UNL     1      14.005  38.497  18.806  0.00  0.00    -0.022 C 
ATOM     16  C   UNL     1      13.884  39.043  20.026  0.00  0.00    -0.059 C 
ATOM     17  C   UNL     1      14.960  39.577  20.840  0.00  0.00    -0.061 C 
ATOM     18  C   UNL     1      14.877  40.062  22.091  0.00  0.00    -0.054 C 
ATOM     19  C   UNL     1      13.691  40.177  22.906  0.00  0.00    -0.011 C 
ATOM     20  C   UNL     1      13.775  40.400  24.187  0.00  0.00    -0.068 C 
ATOM     21  C   UNL     1      13.843  40.600  25.369  0.00  0.00    -0.050 C 
ATOM     22  C   UNL     1      13.899  40.800  26.653  0.00  0.00    +0.078 C 
ATOM     23  N   UNL     1      14.552  41.909  27.100  0.00  0.00    -0.254 NA
ATOM     24  C   UNL     1      15.036  41.943  28.301  0.00  0.00    +0.029 C 
ATOM     25  C   UNL     1      14.995  40.914  29.375  0.00  0.00    -0.035 C 
ATOM     26  C   UNL     1      15.685  41.017  30.519  0.00  0.00    -0.007 C 
ATOM     27  C   UNL     1      16.579  42.075  30.840  0.00  0.00    -0.031 C 
ATOM     28  C   UNL     1      17.353  42.946  31.133  0.00  0.00    +0.123 C 
ATOM     29  O   UNL     1      18.197  43.920  31.467  0.00  0.00    -0.394 OA
ATOM     30  C   UNL     1      19.435  43.480  31.925  0.00  0.00    +0.203 C 
ATOM     31 CL   UNL     1      20.087  41.912  31.528  0.00  0.00    -0.042 Cl
ATOM     32  C   UNL     1      20.203  44.289  32.675  0.00  0.00    -0.032 C 
ATOM     33  C   UNL     1      19.837  45.670  33.116  0.00  0.00    -0.042 C 
ATOM     34  N   UNL     1      15.579  38.818  16.920  0.00  0.00    -0.241 N 
ATOM     35  C   UNL     1      14.672  39.605  16.262  0.00  0.00    +0.030 C 
ATOM     36  C   UNL     1      15.009  40.479  15.302  0.00  0.00    -0.044 C 
ATOM     37  C   UNL     1      16.363  40.731  14.860  0.00  0.00    -0.065 C 
ATOM     38  C   UNL     1      16.664  41.635  13.916  0.00  0.00    -0.087 C 
ATOM     39  C   UNL     1      18.057  41.905  13.448  0.00  0.00    -0.047 C 
ATOM     40  H   UNL     1      16.132  37.307  19.671  0.00  0.00    +0.000 HD
ATOM     41  H   UNL     1      16.452  38.637  16.503  0.00  0.00    +0.000 HD
ENDROOT
TORSDOF 0
ENDMDL
MODEL 4
REMARK VINA RESULT:    -4.338      1.862      2.061
REMARK INTER + INTRA:          -4.338
REMARK INTER:                  -4.338
REMARK INTRA:                   0.000
REMARK UNBOUND:                 0.000
REMARK  Name = /home/vital/Documents/PhD_2021/Malaria_codes/scripts/../data/pdbqt_ligands/ligand_187_temp.pdb
REMARK                            x       y       z     vdW  Elec       q    Type
REMARK                         _______ _______ _______ _____ _____    ______ ____
ROOT
ATOM      1  C   UNL     1      15.697  26.637  13.669  0.00  0.00    -0.009 C 
ATOM      2  N   UNL     1      15.577  27.677  14.425  0.00  0.00    -0.271 NA
ATOM      3  C   UNL     1      14.315  28.206  14.474  0.00  0.00    +0.027 C 
ATOM      4  C   UNL     1      14.024  29.488  14.198  0.00  0.00    -0.044 C 
ATOM      5  C   UNL     1      14.992  30.469  13.760  0.00  0.00    -0.064 C 
ATOM      6  C   UNL     1      14.678  31.734  13.439  0.00  0.00    -0.081 C 
ATOM      7  C   UNL     1      15.691  32.728  12.929  0.00  0.00    -0.000 C 
ATOM      8  C   UNL     1      15.782  33.989  13.790  0.00  0.00    +0.092 C 
ATOM      9  O   UNL     1      16.422  33.664  15.028  0.00  0.00    -0.499 OA
ATOM     10  C   UNL     1      16.904  34.757  15.690  0.00  0.00    +0.082 C 
ATOM     11  C   UNL     1      17.084  34.748  17.016  0.00  0.00    -0.033 C 
ATOM     12  C   UNL     1      17.694  35.876  17.780  0.00  0.00    +0.032 C 
ATOM     13  N   UNL     1      16.634  36.727  18.267  0.00  0.00    -0.325 N 
ATOM     14  C   UNL     1      16.200  37.861  17.607  0.00  0.00    +0.119 C 
ATOM     15  C   UNL     1      14.914  38.479  18.078  0.00  0.00    -0.022 C 
ATOM     16  C   UNL     1      14.696  38.914  19.329  0.00  0.00    -0.059 C 
ATOM     17  C   UNL     1      15.654  38.915  20.418  0.00  0.00    -0.061 C 
ATOM     18  C   UNL     1      15.441  39.277  21.696  0.00  0.00    -0.054 C 
ATOM     19  C   UNL     1      14.210  39.766  22.271  0.00  0.00    -0.011 C 
ATOM     20  C   UNL     1      14.048  39.820  23.563  0.00  0.00    -0.068 C 
ATOM     21  C   UNL     1      13.887  39.869  24.752  0.00  0.00    -0.050 C 
ATOM     22  C   UNL     1      13.690  39.913  26.036  0.00  0.00    +0.078 C 
ATOM     23  N   UNL     1      14.561  40.638  26.793  0.00  0.00    -0.254 NA
ATOM     24  C   UNL     1      14.712  40.373  28.051  0.00  0.00    +0.029 C 
ATOM     25  C   UNL     1      14.045  39.345  28.896  0.00  0.00    -0.035 C 
ATOM     26  C   UNL     1      14.420  39.069  30.152  0.00  0.00    -0.007 C 
ATOM     27  C   UNL     1      15.521  39.666  30.825  0.00  0.00    -0.031 C 
ATOM     28  C   UNL     1      16.455  40.141  31.413  0.00  0.00    +0.123 C 
ATOM     29  O   UNL     1      17.479  40.679  32.073  0.00  0.00    -0.394 OA
ATOM     30  C   UNL     1      18.327  39.756  32.678  0.00  0.00    +0.203 C 
ATOM     31 CL   UNL     1      18.458  38.101  32.143  0.00  0.00    -0.042 Cl
ATOM     32  C   UNL     1      19.119  40.134  33.695  0.00  0.00    -0.032 C 
ATOM     33  C   UNL     1      19.169  41.502  34.295  0.00  0.00    -0.042 C 
ATOM     34  N   UNL     1      16.914  38.339  16.624  0.00  0.00    -0.241 N 
ATOM     35  C   UNL     1      16.538  39.472  15.952  0.00  0.00    +0.030 C 
ATOM     36  C   UNL     1      17.389  40.233  15.248  0.00  0.00    -0.044 C 
ATOM     37  C   UNL     1      18.808  39.983  15.130  0.00  0.00    -0.065 C 
ATOM     38  C   UNL     1      19.634  40.784  14.440  0.00  0.00    -0.087 C 
ATOM     39  C   UNL     1      21.101  40.538  14.308  0.00  0.00    -0.047 C 
ATOM     40  H   UNL     1      16.197  36.487  19.115  0.00  0.00    +0.000 HD
ATOM     41  H   UNL     1      17.741  37.875  16.359  0.00  0.00    +0.000 HD
ENDROOT
TORSDOF 0
ENDMDL
MODEL 5
REMARK VINA RESULT:    -4.304     10.711     13.154
REMARK INTER + INTRA:          -4.304
REMARK INTER:                  -4.304
REMARK INTRA:                   0.000
REMARK UNBOUND:                 0.000
REMARK  Name = /home/vital/Documents/PhD_2021/Malaria_codes/scripts/../data/pdbqt_ligands/ligand_187_temp.pdb
REMARK                            x       y       z     vdW  Elec       q    Type
REMARK                         _______ _______ _______ _____ _____    ______ ____
ROOT
ATOM      1  C   UNL     1      30.235  34.198  14.300  0.00  0.00    -0.009 C 
ATOM      2  N   UNL     1      29.530  35.173  14.767  0.00  0.00    -0.271 NA
ATOM      3  C   UNL     1      28.803  35.855  13.828  0.00  0.00    +0.027 C 
ATOM      4  C   UNL     1      28.871  37.182  13.641  0.00  0.00    -0.044 C 
ATOM      5  C   UNL     1      29.759  38.065  14.366  0.00  0.00    -0.064 C 
ATOM      6  C   UNL     1      29.852  39.384  14.134  0.00  0.00    -0.081 C 
ATOM      7  C   UNL     1      30.824  40.280  14.859  0.00  0.00    -0.000 C 
ATOM      8  C   UNL     1      30.143  41.436  15.593  0.00  0.00    +0.092 C 
ATOM      9  O   UNL     1      29.450  40.921  16.735  0.00  0.00    -0.499 OA
ATOM     10  C   UNL     1      29.148  41.879  17.661  0.00  0.00    +0.082 C 
ATOM     11  C   UNL     1      28.130  41.728  18.515  0.00  0.00    -0.033 C 
ATOM     12  C   UNL     1      27.813  42.695  19.608  0.00  0.00    +0.032 C 
ATOM     13  N   UNL     1      26.825  43.629  19.121  0.00  0.00    -0.325 N 
ATOM     14  C   UNL     1      27.140  44.864  18.587  0.00  0.00    +0.119 C 
ATOM     15  C   UNL     1      26.045  45.599  17.867  0.00  0.00    -0.022 C 
ATOM     16  C   UNL     1      24.873  45.945  18.422  0.00  0.00    -0.059 C 
ATOM     17  C   UNL     1      24.474  45.725  19.799  0.00  0.00    -0.061 C 
ATOM     18  C   UNL     1      23.283  45.996  20.360  0.00  0.00    -0.054 C 
ATOM     19  C   UNL     1      22.131  46.587  19.721  0.00  0.00    -0.011 C 
ATOM     20  C   UNL     1      20.956  46.546  20.284  0.00  0.00    -0.068 C 
ATOM     21  C   UNL     1      19.869  46.509  20.793  0.00  0.00    -0.050 C 
ATOM     22  C   UNL     1      18.682  46.464  21.321  0.00  0.00    +0.078 C 
ATOM     23  N   UNL     1      18.513  46.999  22.563  0.00  0.00    -0.254 NA
ATOM     24  C   UNL     1      17.538  46.605  23.317  0.00  0.00    +0.029 C 
ATOM     25  C   UNL     1      16.472  45.602  23.052  0.00  0.00    -0.035 C 
ATOM     26  C   UNL     1      15.619  45.168  23.991  0.00  0.00    -0.007 C 
ATOM     27  C   UNL     1      15.646  45.554  25.358  0.00  0.00    -0.031 C 
ATOM     28  C   UNL     1      15.654  45.850  26.523  0.00  0.00    +0.123 C 
ATOM     29  O   UNL     1      15.650  46.189  27.811  0.00  0.00    -0.394 OA
ATOM     30  C   UNL     1      15.605  45.113  28.692  0.00  0.00    +0.203 C 
ATOM     31 CL   UNL     1      16.134  43.510  28.256  0.00  0.00    -0.042 Cl
ATOM     32  C   UNL     1      15.176  45.293  29.953  0.00  0.00    -0.032 C 
ATOM     33  C   UNL     1      14.691  46.584  30.530  0.00  0.00    -0.042 C 
ATOM     34  N   UNL     1      28.351  45.331  18.731  0.00  0.00    -0.241 N 
ATOM     35  C   UNL     1      28.706  46.559  18.238  0.00  0.00    +0.030 C 
ATOM     36  C   UNL     1      29.755  47.263  18.690  0.00  0.00    -0.044 C 
ATOM     37  C   UNL     1      30.623  46.842  19.767  0.00  0.00    -0.065 C 
ATOM     38  C   UNL     1      31.646  47.587  20.211  0.00  0.00    -0.087 C 
ATOM     39  C   UNL     1      32.552  47.166  21.322  0.00  0.00    -0.047 C 
ATOM     40  H   UNL     1      25.876  43.373  19.172  0.00  0.00    +0.000 HD
ATOM     41  H   UNL     1      29.022  44.789  19.204  0.00  0.00    +0.000 HD
ENDROOT
TORSDOF 0
ENDMDL
MODEL 6
REMARK VINA RESULT:    -4.248      6.393      9.269
REMARK INTER + INTRA:          -4.248
REMARK INTER:                  -4.248
REMARK INTRA:                   0.000
REMARK UNBOUND:                 0.000
REMARK  Name = /home/vital/Documents/PhD_2021/Malaria_codes/scripts/../data/pdbqt_ligands/ligand_187_temp.pdb
REMARK                            x       y       z     vdW  Elec       q    Type
REMARK                         _______ _______ _______ _____ _____    ______ ____
ROOT
ATOM      1  C   UNL     1      26.927  23.838  20.876  0.00  0.00    -0.009 C 
ATOM      2  N   UNL     1      25.925  24.617  21.112  0.00  0.00    -0.271 NA
ATOM      3  C   UNL     1      25.199  24.293  22.226  0.00  0.00    +0.027 C 
ATOM      4  C   UNL     1      23.873  24.078  22.226  0.00  0.00    -0.044 C 
ATOM      5  C   UNL     1      23.042  24.105  21.042  0.00  0.00    -0.064 C 
ATOM      6  C   UNL     1      21.727  23.839  21.048  0.00  0.00    -0.081 C 
ATOM      7  C   UNL     1      20.887  23.815  19.796  0.00  0.00    -0.000 C 
ATOM      8  C   UNL     1      19.709  24.789  19.845  0.00  0.00    +0.092 C 
ATOM      9  O   UNL     1      20.204  26.128  19.732  0.00  0.00    -0.499 OA
ATOM     10  C   UNL     1      19.244  27.030  19.371  0.00  0.00    +0.082 C 
ATOM     11  C   UNL     1      19.358  28.328  19.674  0.00  0.00    -0.033 C 
ATOM     12  C   UNL     1      18.391  29.374  19.225  0.00  0.00    +0.032 C 
ATOM     13  N   UNL     1      17.405  29.563  20.263  0.00  0.00    -0.325 N 
ATOM     14  C   UNL     1      16.179  28.924  20.279  0.00  0.00    +0.119 C 
ATOM     15  C   UNL     1      15.386  28.996  21.552  0.00  0.00    -0.022 C 
ATOM     16  C   UNL     1      14.991  30.138  22.136  0.00  0.00    -0.059 C 
ATOM     17  C   UNL     1      15.209  31.481  21.633  0.00  0.00    -0.061 C 
ATOM     18  C   UNL     1      14.889  32.642  22.232  0.00  0.00    -0.054 C 
ATOM     19  C   UNL     1      14.237  32.816  23.509  0.00  0.00    -0.011 C 
ATOM     20  C   UNL     1      14.229  33.973  24.106  0.00  0.00    -0.068 C 
ATOM     21  C   UNL     1      14.222  35.035  24.668  0.00  0.00    -0.050 C 
ATOM     22  C   UNL     1      14.218  36.173  25.297  0.00  0.00    +0.078 C 
ATOM     23  N   UNL     1      13.690  37.255  24.659  0.00  0.00    -0.254 NA
ATOM     24  C   UNL     1      14.047  38.452  24.999  0.00  0.00    +0.029 C 
ATOM     25  C   UNL     1      14.996  38.902  26.052  0.00  0.00    -0.035 C 
ATOM     26  C   UNL     1      15.401  40.172  26.186  0.00  0.00    -0.007 C 
ATOM     27  C   UNL     1      15.032  41.240  25.322  0.00  0.00    -0.031 C 
ATOM     28  C   UNL     1      14.752  42.159  24.600  0.00  0.00    +0.123 C 
ATOM     29  O   UNL     1      14.429  43.182  23.812  0.00  0.00    -0.394 OA
ATOM     30  C   UNL     1      15.512  43.933  23.365  0.00  0.00    +0.203 C 
ATOM     31 CL   UNL     1      17.132  43.295  23.279  0.00  0.00    -0.042 Cl
ATOM     32  C   UNL     1      15.327  45.194  22.939  0.00  0.00    -0.032 C 
ATOM     33  C   UNL     1      14.022  45.922  22.919  0.00  0.00    -0.042 C 
ATOM     34  N   UNL     1      15.772  28.301  19.207  0.00  0.00    -0.241 N 
ATOM     35  C   UNL     1      14.556  27.670  19.165  0.00  0.00    +0.030 C 
ATOM     36  C   UNL     1      13.908  27.386  18.026  0.00  0.00    -0.044 C 
ATOM     37  C   UNL     1      14.382  27.729  16.704  0.00  0.00    -0.065 C 
ATOM     38  C   UNL     1      13.691  27.454  15.588  0.00  0.00    -0.087 C 
ATOM     39  C   UNL     1      14.168  27.801  14.215  0.00  0.00    -0.047 C 
ATOM     40  H   UNL     1      17.617  30.181  21.000  0.00  0.00    +0.000 HD
ATOM     41  H   UNL     1      16.350  28.283  18.411  0.00  0.00    +0.000 HD
ENDROOT
TORSDOF 0
ENDMDL
MODEL 7
REMARK VINA RESULT:    -4.157      7.631     15.824
REMARK INTER + INTRA:          -4.157
REMARK INTER:                  -4.157
REMARK INTRA:                   0.000
REMARK UNBOUND:                 0.000
REMARK  Name = /home/vital/Documents/PhD_2021/Malaria_codes/scripts/../data/pdbqt_ligands/ligand_187_temp.pdb
REMARK                            x       y       z     vdW  Elec       q    Type
REMARK                         _______ _______ _______ _____ _____    ______ ____
ROOT
ATOM      1  C   UNL     1      32.646  42.489  13.302  0.00  0.00    -0.009 C 
ATOM      2  N   UNL     1      31.437  42.036  13.317  0.00  0.00    -0.271 NA
ATOM      3  C   UNL     1      30.677  42.398  12.237  0.00  0.00    +0.027 C 
ATOM      4  C   UNL     1      29.487  43.015  12.326  0.00  0.00    -0.044 C 
ATOM      5  C   UNL     1      28.873  43.429  13.569  0.00  0.00    -0.064 C 
ATOM      6  C   UNL     1      27.707  44.089  13.640  0.00  0.00    -0.081 C 
ATOM      7  C   UNL     1      27.108  44.564  14.940  0.00  0.00    -0.000 C 
ATOM      8  C   UNL     1      25.705  44.012  15.193  0.00  0.00    +0.092 C 
ATOM      9  O   UNL     1      25.800  42.619  15.510  0.00  0.00    -0.499 OA
ATOM     10  C   UNL     1      24.686  42.128  16.127  0.00  0.00    +0.082 C 
ATOM     11  C   UNL     1      24.369  40.830  16.068  0.00  0.00    -0.033 C 
ATOM     12  C   UNL     1      23.219  40.220  16.800  0.00  0.00    +0.032 C 
ATOM     13  N   UNL     1      22.076  40.194  15.917  0.00  0.00    -0.325 N 
ATOM     14  C   UNL     1      21.102  41.174  15.900  0.00  0.00    +0.119 C 
ATOM     15  C   UNL     1      20.139  41.162  14.746  0.00  0.00    -0.022 C 
ATOM     16  C   UNL     1      19.346  40.126  14.432  0.00  0.00    -0.059 C 
ATOM     17  C   UNL     1      19.237  38.875  15.158  0.00  0.00    -0.061 C 
ATOM     18  C   UNL     1      18.507  37.796  14.825  0.00  0.00    -0.054 C 
ATOM     19  C   UNL     1      17.648  37.644  13.674  0.00  0.00    -0.011 C 
ATOM     20  C   UNL     1      17.213  36.470  13.311  0.00  0.00    -0.068 C 
ATOM     21  C   UNL     1      16.812  35.392  12.966  0.00  0.00    -0.050 C 
ATOM     22  C   UNL     1      16.383  34.231  12.568  0.00  0.00    +0.078 C 
ATOM     23  N   UNL     1      15.666  33.478  13.449  0.00  0.00    -0.254 NA
ATOM     24  C   UNL     1      15.603  32.193  13.310  0.00  0.00    +0.029 C 
ATOM     25  C   UNL     1      16.210  31.315  12.274  0.00  0.00    -0.035 C 
ATOM     26  C   UNL     1      16.203  29.976  12.346  0.00  0.00    -0.007 C 
ATOM     27  C   UNL     1      15.674  29.221  13.429  0.00  0.00    -0.031 C 
ATOM     28  C   UNL     1      15.251  28.557  14.336  0.00  0.00    +0.123 C 
ATOM     29  O   UNL     1      14.766  27.818  15.332  0.00  0.00    -0.394 OA
ATOM     30  C   UNL     1      15.639  26.843  15.806  0.00  0.00    +0.203 C 
ATOM     31 CL   UNL     1      17.368  26.947  15.612  0.00  0.00    -0.042 Cl
ATOM     32  C   UNL     1      15.162  25.783  16.481  0.00  0.00    -0.032 C 
ATOM     33  C   UNL     1      13.720  25.511  16.766  0.00  0.00    -0.042 C 
ATOM     34  N   UNL     1      21.060  42.049  16.868  0.00  0.00    -0.241 N 
ATOM     35  C   UNL     1      20.101  43.026  16.907  0.00  0.00    +0.030 C 
ATOM     36  C   UNL     1      19.743  43.668  18.028  0.00  0.00    -0.044 C 
ATOM     37  C   UNL     1      20.291  43.399  19.339  0.00  0.00    -0.065 C 
ATOM     38  C   UNL     1      19.887  44.042  20.444  0.00  0.00    -0.087 C 
ATOM     39  C   UNL     1      20.443  43.775  21.805  0.00  0.00    -0.047 C 
ATOM     40  H   UNL     1      21.986  39.437  15.295  0.00  0.00    +0.000 HD
ATOM     41  H   UNL     1      21.732  42.004  17.586  0.00  0.00    +0.000 HD
ENDROOT
TORSDOF 0
ENDMDL
