MODEL 1
REMARK VINA RESULT:    -4.636      0.000      0.000
REMARK INTER + INTRA:          -4.636
REMARK INTER:                  -4.636
REMARK INTRA:                   0.000
REMARK UNBOUND:                 0.000
REMARK  Name = /home/vital/Documents/PhD_2021/Malaria_codes/scripts/../data/pdbqt_ligands/ligand_182_temp.pdb
REMARK                            x       y       z     vdW  Elec       q    Type
REMARK                         _______ _______ _______ _____ _____    ______ ____
ROOT
ATOM      1  N   UNL     1      14.535  23.679  14.220  0.00  0.00    -0.310 N 
ATOM      2  C   UNL     1      15.361  24.549  15.027  0.00  0.00    +0.106 C 
ATOM      3  N   UNL     1      14.979  24.220  16.388  0.00  0.00    -0.180 NA
ATOM      4  O   UNL     1      16.104  24.630  17.232  0.00  0.00    -0.297 OA
ATOM      5  C   UNL     1      15.606  25.470  18.277  0.00  0.00    +0.082 C 
ATOM      6  C   UNL     1      16.763  25.890  19.194  0.00  0.00    +0.022 C 
ATOM      7  N   UNL     1      17.229  24.780  20.036  0.00  0.00    -0.303 N 
ATOM      8  C   UNL     1      18.360  25.236  20.862  0.00  0.00    +0.059 C 
ATOM      9  C   UNL     1      18.767  23.966  22.034  0.00  0.00    -0.021 C 
ATOM     10  C   UNL     1      18.258  24.950  22.613  0.00  0.00    -0.125 C 
ATOM     11  C   UNL     1      17.783  26.069  22.323  0.00  0.00    -0.021 C 
ATOM     12  C   UNL     1      15.120  26.009  14.681  0.00  0.00    -0.013 A 
ATOM     13  C   UNL     1      13.929  26.667  15.037  0.00  0.00    -0.054 A 
ATOM     14  C   UNL     1      13.725  28.010  14.709  0.00  0.00    -0.042 A 
ATOM     15  C   UNL     1      14.706  28.717  14.010  0.00  0.00    +0.059 A 
ATOM     16 CL   UNL     1      14.397  30.378  13.652  0.00  0.00    -0.082 Cl
ATOM     17  C   UNL     1      15.891  28.075  13.639  0.00  0.00    +0.060 A 
ATOM     18 CL   UNL     1      17.148  28.889  12.772  0.00  0.00    -0.082 Cl
ATOM     19  C   UNL     1      16.095  26.731  13.972  0.00  0.00    -0.036 A 
ATOM     20  H   UNL     1      14.716  22.708  14.471  0.00  0.00    +0.000 HD
ATOM     21  H   UNL     1      14.754  23.821  13.234  0.00  0.00    +0.000 HD
ATOM     22  H   UNL     1      13.552  23.894  14.385  0.00  0.00    +0.000 HD
ATOM     23  H   UNL     1      14.816  23.217  16.478  0.00  0.00    +0.000 HD
ATOM     24  H   UNL     1      17.531  24.006  19.444  0.00  0.00    +0.000 HD
ATOM     25  H   UNL     1      16.469  24.468  20.640  0.00  0.00    +0.000 HD
ENDROOT
TORSDOF 0
ENDMDL
MODEL 2
REMARK VINA RESULT:    -3.961      2.877      3.285
REMARK INTER + INTRA:          -3.961
REMARK INTER:                  -3.961
REMARK INTRA:                   0.000
REMARK UNBOUND:                 0.000
REMARK  Name = /home/vital/Documents/PhD_2021/Malaria_codes/scripts/../data/pdbqt_ligands/ligand_182_temp.pdb
REMARK                            x       y       z     vdW  Elec       q    Type
REMARK                         _______ _______ _______ _____ _____    ______ ____
ROOT
ATOM      1  N   UNL     1      14.835  24.639  15.951  0.00  0.00    -0.310 N 
ATOM      2  C   UNL     1      15.138  25.838  16.699  0.00  0.00    +0.106 C 
ATOM      3  N   UNL     1      14.170  25.821  17.781  0.00  0.00    -0.180 NA
ATOM      4  O   UNL     1      14.738  26.655  18.842  0.00  0.00    -0.297 OA
ATOM      5  C   UNL     1      13.766  27.634  19.223  0.00  0.00    +0.082 C 
ATOM      6  C   UNL     1      14.328  28.503  20.356  0.00  0.00    +0.022 C 
ATOM      7  N   UNL     1      14.387  27.775  21.631  0.00  0.00    -0.303 N 
ATOM      8  C   UNL     1      14.967  28.649  22.665  0.00  0.00    +0.059 C 
ATOM      9  C   UNL     1      14.824  27.847  24.243  0.00  0.00    -0.021 C 
ATOM     10  C   UNL     1      14.058  28.833  24.180  0.00  0.00    -0.125 C 
ATOM     11  C   UNL     1      13.728  29.717  23.361  0.00  0.00    -0.021 C 
ATOM     12  C   UNL     1      15.024  27.074  15.823  0.00  0.00    -0.013 A 
ATOM     13  C   UNL     1      13.780  27.559  15.384  0.00  0.00    -0.054 A 
ATOM     14  C   UNL     1      13.696  28.696  14.576  0.00  0.00    -0.042 A 
ATOM     15  C   UNL     1      14.859  29.365  14.186  0.00  0.00    +0.059 A 
ATOM     16 CL   UNL     1      14.683  30.774  13.203  0.00  0.00    -0.082 Cl
ATOM     17  C   UNL     1      16.106  28.890  14.604  0.00  0.00    +0.060 A 
ATOM     18 CL   UNL     1      17.585  29.667  14.158  0.00  0.00    -0.082 Cl
ATOM     19  C   UNL     1      16.186  27.752  15.416  0.00  0.00    -0.036 A 
ATOM     20  H   UNL     1      14.918  23.826  16.561  0.00  0.00    +0.000 HD
ATOM     21  H   UNL     1      15.490  24.549  15.174  0.00  0.00    +0.000 HD
ATOM     22  H   UNL     1      13.883  24.695  15.589  0.00  0.00    +0.000 HD
ATOM     23  H   UNL     1      14.029  24.869  18.116  0.00  0.00    +0.000 HD
ATOM     24  H   UNL     1      14.968  26.944  21.522  0.00  0.00    +0.000 HD
ATOM     25  H   UNL     1      13.446  27.496  21.908  0.00  0.00    +0.000 HD
ENDROOT
TORSDOF 0
ENDMDL
MODEL 3
REMARK VINA RESULT:    -3.509      4.126      7.582
REMARK INTER + INTRA:          -3.509
REMARK INTER:                  -3.509
REMARK INTRA:                   0.000
REMARK UNBOUND:                 0.000
REMARK  Name = /home/vital/Documents/PhD_2021/Malaria_codes/scripts/../data/pdbqt_ligands/ligand_182_temp.pdb
REMARK                            x       y       z     vdW  Elec       q    Type
REMARK                         _______ _______ _______ _____ _____    ______ ____
ROOT
ATOM      1  N   UNL     1      16.694  22.594  19.169  0.00  0.00    -0.310 N 
ATOM      2  C   UNL     1      17.235  23.803  18.591  0.00  0.00    +0.106 C 
ATOM      3  N   UNL     1      16.461  23.978  17.375  0.00  0.00    -0.180 NA
ATOM      4  O   UNL     1      16.557  25.400  17.038  0.00  0.00    -0.297 OA
ATOM      5  C   UNL     1      16.991  25.520  15.680  0.00  0.00    +0.082 C 
ATOM      6  C   UNL     1      17.071  27.002  15.294  0.00  0.00    +0.022 C 
ATOM      7  N   UNL     1      15.738  27.601  15.130  0.00  0.00    -0.303 N 
ATOM      8  C   UNL     1      15.883  29.028  14.797  0.00  0.00    +0.059 C 
ATOM      9  C   UNL     1      14.288  29.686  14.378  0.00  0.00    -0.021 C 
ATOM     10  C   UNL     1      15.016  29.623  13.364  0.00  0.00    -0.125 C 
ATOM     11  C   UNL     1      16.169  29.248  13.056  0.00  0.00    -0.021 C 
ATOM     12  C   UNL     1      18.725  23.667  18.329  0.00  0.00    -0.013 A 
ATOM     13  C   UNL     1      19.225  22.850  17.300  0.00  0.00    -0.054 A 
ATOM     14  C   UNL     1      20.600  22.736  17.077  0.00  0.00    -0.042 A 
ATOM     15  C   UNL     1      21.501  23.432  17.886  0.00  0.00    +0.059 A 
ATOM     16 CL   UNL     1      23.185  23.261  17.544  0.00  0.00    -0.082 Cl
ATOM     17  C   UNL     1      21.022  24.241  18.921  0.00  0.00    +0.060 A 
ATOM     18 CL   UNL     1      22.079  25.130  19.961  0.00  0.00    -0.082 Cl
ATOM     19  C   UNL     1      19.644  24.355  19.140  0.00  0.00    -0.036 A 
ATOM     20  H   UNL     1      15.695  22.712  19.333  0.00  0.00    +0.000 HD
ATOM     21  H   UNL     1      17.164  22.401  20.054  0.00  0.00    +0.000 HD
ATOM     22  H   UNL     1      16.842  21.815  18.528  0.00  0.00    +0.000 HD
ATOM     23  H   UNL     1      15.488  23.716  17.532  0.00  0.00    +0.000 HD
ATOM     24  H   UNL     1      15.213  27.506  15.999  0.00  0.00    +0.000 HD
ATOM     25  H   UNL     1      15.240  27.124  14.378  0.00  0.00    +0.000 HD
ENDROOT
TORSDOF 0
ENDMDL
MODEL 4
REMARK VINA RESULT:    -3.444      1.858      2.229
REMARK INTER + INTRA:          -3.444
REMARK INTER:                  -3.444
REMARK INTRA:                   0.000
REMARK UNBOUND:                 0.000
REMARK  Name = /home/vital/Documents/PhD_2021/Malaria_codes/scripts/../data/pdbqt_ligands/ligand_182_temp.pdb
REMARK                            x       y       z     vdW  Elec       q    Type
REMARK                         _______ _______ _______ _____ _____    ______ ____
ROOT
ATOM      1  N   UNL     1      15.396  25.557  14.198  0.00  0.00    -0.310 N 
ATOM      2  C   UNL     1      15.902  26.532  15.138  0.00  0.00    +0.106 C 
ATOM      3  N   UNL     1      15.256  26.170  16.387  0.00  0.00    -0.180 NA
ATOM      4  O   UNL     1      16.096  26.727  17.450  0.00  0.00    -0.297 OA
ATOM      5  C   UNL     1      15.272  27.508  18.320  0.00  0.00    +0.082 C 
ATOM      6  C   UNL     1      16.125  28.079  19.461  0.00  0.00    +0.022 C 
ATOM      7  N   UNL     1      16.512  27.044  20.430  0.00  0.00    -0.303 N 
ATOM      8  C   UNL     1      17.357  27.647  21.475  0.00  0.00    +0.059 C 
ATOM      9  C   UNL     1      17.629  26.449  22.757  0.00  0.00    -0.021 C 
ATOM     10  C   UNL     1      16.886  27.367  23.166  0.00  0.00    -0.125 C 
ATOM     11  C   UNL     1      16.360  28.415  22.731  0.00  0.00    -0.021 C 
ATOM     12  C   UNL     1      15.574  27.946  14.691  0.00  0.00    -0.013 A 
ATOM     13  C   UNL     1      14.264  28.453  14.738  0.00  0.00    -0.054 A 
ATOM     14  C   UNL     1      13.982  29.756  14.320  0.00  0.00    -0.042 A 
ATOM     15  C   UNL     1      15.006  30.574  13.838  0.00  0.00    +0.059 A 
ATOM     16 CL   UNL     1      14.592  32.179  13.355  0.00  0.00    -0.082 Cl
ATOM     17  C   UNL     1      16.314  30.082  13.774  0.00  0.00    +0.060 A 
ATOM     18 CL   UNL     1      17.631  31.039  13.188  0.00  0.00    -0.082 Cl
ATOM     19  C   UNL     1      16.594  28.777  14.197  0.00  0.00    -0.036 A 
ATOM     20  H   UNL     1      15.629  24.619  14.522  0.00  0.00    +0.000 HD
ATOM     21  H   UNL     1      15.820  25.716  13.283  0.00  0.00    +0.000 HD
ATOM     22  H   UNL     1      14.383  25.649  14.124  0.00  0.00    +0.000 HD
ATOM     23  H   UNL     1      15.198  25.156  16.476  0.00  0.00    +0.000 HD
ATOM     24  H   UNL     1      17.034  26.309  19.953  0.00  0.00    +0.000 HD
ATOM     25  H   UNL     1      15.676  26.645  20.855  0.00  0.00    +0.000 HD
ENDROOT
TORSDOF 0
ENDMDL
MODEL 5
REMARK VINA RESULT:    -3.356      5.382      8.541
REMARK INTER + INTRA:          -3.356
REMARK INTER:                  -3.356
REMARK INTRA:                   0.000
REMARK UNBOUND:                 0.000
REMARK  Name = /home/vital/Documents/PhD_2021/Malaria_codes/scripts/../data/pdbqt_ligands/ligand_182_temp.pdb
REMARK                            x       y       z     vdW  Elec       q    Type
REMARK                         _______ _______ _______ _____ _____    ______ ____
ROOT
ATOM      1  N   UNL     1      14.099  31.568  21.878  0.00  0.00    -0.310 N 
ATOM      2  C   UNL     1      14.728  30.416  21.272  0.00  0.00    +0.106 C 
ATOM      3  N   UNL     1      13.695  29.876  20.407  0.00  0.00    -0.180 NA
ATOM      4  O   UNL     1      14.394  29.084  19.392  0.00  0.00    -0.297 OA
ATOM      5  C   UNL     1      13.814  27.776  19.356  0.00  0.00    +0.082 C 
ATOM      6  C   UNL     1      14.510  26.934  18.279  0.00  0.00    +0.022 C 
ATOM      7  N   UNL     1      14.135  27.356  16.922  0.00  0.00    -0.303 N 
ATOM      8  C   UNL     1      14.863  26.537  15.938  0.00  0.00    +0.059 C 
ATOM      9  C   UNL     1      14.237  26.894  14.315  0.00  0.00    -0.021 C 
ATOM     10  C   UNL     1      13.904  25.743  14.670  0.00  0.00    -0.125 C 
ATOM     11  C   UNL     1      14.030  24.991  15.660  0.00  0.00    -0.021 C 
ATOM     12  C   UNL     1      15.191  29.426  22.329  0.00  0.00    -0.013 A 
ATOM     13  C   UNL     1      14.280  28.650  23.066  0.00  0.00    -0.054 A 
ATOM     14  C   UNL     1      14.725  27.747  24.035  0.00  0.00    -0.042 A 
ATOM     15  C   UNL     1      16.091  27.611  24.290  0.00  0.00    +0.059 A 
ATOM     16 CL   UNL     1      16.574  26.464  25.487  0.00  0.00    -0.082 Cl
ATOM     17  C   UNL     1      17.011  28.383  23.574  0.00  0.00    +0.060 A 
ATOM     18 CL   UNL     1      18.716  28.267  23.838  0.00  0.00    -0.082 Cl
ATOM     19  C   UNL     1      16.562  29.285  22.602  0.00  0.00    -0.036 A 
ATOM     20  H   UNL     1      13.798  32.214  21.148  0.00  0.00    +0.000 HD
ATOM     21  H   UNL     1      14.766  32.036  22.492  0.00  0.00    +0.000 HD
ATOM     22  H   UNL     1      13.289  31.268  22.420  0.00  0.00    +0.000 HD
ATOM     23  H   UNL     1      13.171  30.632  19.966  0.00  0.00    +0.000 HD
ATOM     24  H   UNL     1      14.376  28.339  16.791  0.00  0.00    +0.000 HD
ATOM     25  H   UNL     1      13.131  27.234  16.792  0.00  0.00    +0.000 HD
ENDROOT
TORSDOF 0
ENDMDL
MODEL 6
REMARK VINA RESULT:    -3.291      3.988      4.614
REMARK INTER + INTRA:          -3.291
REMARK INTER:                  -3.291
REMARK INTRA:                   0.000
REMARK UNBOUND:                 0.000
REMARK  Name = /home/vital/Documents/PhD_2021/Malaria_codes/scripts/../data/pdbqt_ligands/ligand_182_temp.pdb
REMARK                            x       y       z     vdW  Elec       q    Type
REMARK                         _______ _______ _______ _____ _____    ______ ____
ROOT
ATOM      1  N   UNL     1      15.748  22.606  18.083  0.00  0.00    -0.310 N 
ATOM      2  C   UNL     1      16.726  23.366  17.338  0.00  0.00    +0.106 C 
ATOM      3  N   UNL     1      17.794  23.585  18.296  0.00  0.00    -0.180 NA
ATOM      4  O   UNL     1      18.998  23.847  17.505  0.00  0.00    -0.297 OA
ATOM      5  C   UNL     1      19.588  25.067  17.962  0.00  0.00    +0.082 C 
ATOM      6  C   UNL     1      20.869  25.349  17.167  0.00  0.00    +0.022 C 
ATOM      7  N   UNL     1      21.964  24.445  17.547  0.00  0.00    -0.303 N 
ATOM      8  C   UNL     1      23.149  24.741  16.725  0.00  0.00    +0.059 C 
ATOM      9  C   UNL     1      24.526  23.807  17.342  0.00  0.00    -0.021 C 
ATOM     10  C   UNL     1      24.682  25.024  17.577  0.00  0.00    -0.125 C 
ATOM     11  C   UNL     1      24.070  26.101  17.406  0.00  0.00    -0.021 C 
ATOM     12  C   UNL     1      16.129  24.661  16.812  0.00  0.00    -0.013 A 
ATOM     13  C   UNL     1      15.818  25.734  17.665  0.00  0.00    -0.054 A 
ATOM     14  C   UNL     1      15.267  26.915  17.163  0.00  0.00    -0.042 A 
ATOM     15  C   UNL     1      15.008  27.041  15.796  0.00  0.00    +0.059 A 
ATOM     16 CL   UNL     1      14.344  28.535  15.239  0.00  0.00    -0.082 Cl
ATOM     17  C   UNL     1      15.301  25.980  14.934  0.00  0.00    +0.060 A 
ATOM     18 CL   UNL     1      15.006  26.066  13.232  0.00  0.00    -0.082 Cl
ATOM     19  C   UNL     1      15.856  24.798  15.440  0.00  0.00    -0.036 A 
ATOM     20  H   UNL     1      16.174  21.745  18.424  0.00  0.00    +0.000 HD
ATOM     21  H   UNL     1      14.960  22.378  17.476  0.00  0.00    +0.000 HD
ATOM     22  H   UNL     1      15.419  23.158  18.875  0.00  0.00    +0.000 HD
ATOM     23  H   UNL     1      17.925  22.757  18.877  0.00  0.00    +0.000 HD
ATOM     24  H   UNL     1      21.676  23.478  17.393  0.00  0.00    +0.000 HD
ATOM     25  H   UNL     1      22.190  24.578  18.532  0.00  0.00    +0.000 HD
ENDROOT
TORSDOF 0
ENDMDL
MODEL 7
REMARK VINA RESULT:    -3.289     20.354     21.594
REMARK INTER + INTRA:          -3.289
REMARK INTER:                  -3.289
REMARK INTRA:                   0.000
REMARK UNBOUND:                 0.000
REMARK  Name = /home/vital/Documents/PhD_2021/Malaria_codes/scripts/../data/pdbqt_ligands/ligand_182_temp.pdb
REMARK                            x       y       z     vdW  Elec       q    Type
REMARK                         _______ _______ _______ _____ _____    ______ ____
ROOT
ATOM      1  N   UNL     1      22.482  47.303  22.761  0.00  0.00    -0.310 N 
ATOM      2  C   UNL     1      21.104  47.249  22.327  0.00  0.00    +0.106 C 
ATOM      3  N   UNL     1      20.430  46.558  23.411  0.00  0.00    -0.180 NA
ATOM      4  O   UNL     1      19.019  46.937  23.313  0.00  0.00    -0.297 OA
ATOM      5  C   UNL     1      18.227  45.746  23.293  0.00  0.00    +0.082 C 
ATOM      6  C   UNL     1      16.740  46.117  23.220  0.00  0.00    +0.022 C 
ATOM      7  N   UNL     1      16.246  46.663  24.493  0.00  0.00    -0.303 N 
ATOM      8  C   UNL     1      14.828  47.033  24.346  0.00  0.00    +0.059 C 
ATOM      9  C   UNL     1      14.181  47.474  25.940  0.00  0.00    -0.021 C 
ATOM     10  C   UNL     1      13.690  46.392  25.551  0.00  0.00    -0.125 C 
ATOM     11  C   UNL     1      13.776  45.618  24.574  0.00  0.00    -0.021 C 
ATOM     12  C   UNL     1      20.977  46.528  20.995  0.00  0.00    -0.013 A 
ATOM     13  C   UNL     1      21.156  45.138  20.886  0.00  0.00    -0.054 A 
ATOM     14  C   UNL     1      21.037  44.493  19.652  0.00  0.00    -0.042 A 
ATOM     15  C   UNL     1      20.746  45.230  18.502  0.00  0.00    +0.059 A 
ATOM     16 CL   UNL     1      20.595  44.369  17.013  0.00  0.00    -0.082 Cl
ATOM     17  C   UNL     1      20.575  46.615  18.591  0.00  0.00    +0.060 A 
ATOM     18 CL   UNL     1      20.213  47.590  17.209  0.00  0.00    -0.082 Cl
ATOM     19  C   UNL     1      20.692  47.258  19.829  0.00  0.00    -0.036 A 
ATOM     20  H   UNL     1      22.539  47.791  23.655  0.00  0.00    +0.000 HD
ATOM     21  H   UNL     1      23.038  47.802  22.066  0.00  0.00    +0.000 HD
ATOM     22  H   UNL     1      22.842  46.355  22.869  0.00  0.00    +0.000 HD
ATOM     23  H   UNL     1      20.813  46.849  24.310  0.00  0.00    +0.000 HD
ATOM     24  H   UNL     1      16.789  47.489  24.743  0.00  0.00    +0.000 HD
ATOM     25  H   UNL     1      16.342  45.960  25.225  0.00  0.00    +0.000 HD
ENDROOT
TORSDOF 0
ENDMDL
MODEL 8
REMARK VINA RESULT:    -3.210      2.982      3.615
REMARK INTER + INTRA:          -3.210
REMARK INTER:                  -3.210
REMARK INTRA:                   0.000
REMARK UNBOUND:                 0.000
REMARK  Name = /home/vital/Documents/PhD_2021/Malaria_codes/scripts/../data/pdbqt_ligands/ligand_182_temp.pdb
REMARK                            x       y       z     vdW  Elec       q    Type
REMARK                         _______ _______ _______ _____ _____    ______ ____
ROOT
ATOM      1  N   UNL     1      15.693  22.667  17.958  0.00  0.00    -0.310 N 
ATOM      2  C   UNL     1      16.606  23.748  17.663  0.00  0.00    +0.106 C 
ATOM      3  N   UNL     1      17.203  24.054  18.951  0.00  0.00    -0.180 NA
ATOM      4  O   UNL     1      18.475  24.718  18.658  0.00  0.00    -0.297 OA
ATOM      5  C   UNL     1      18.522  25.952  19.380  0.00  0.00    +0.082 C 
ATOM      6  C   UNL     1      19.860  26.654  19.112  0.00  0.00    +0.022 C 
ATOM      7  N   UNL     1      20.979  25.985  19.789  0.00  0.00    -0.303 N 
ATOM      8  C   UNL     1      22.234  26.682  19.463  0.00  0.00    +0.059 C 
ATOM      9  C   UNL     1      23.542  26.012  20.459  0.00  0.00    -0.021 C 
ATOM     10  C   UNL     1      23.268  27.177  20.820  0.00  0.00    -0.125 C 
ATOM     11  C   UNL     1      22.470  28.091  20.521  0.00  0.00    -0.021 C 
ATOM     12  C   UNL     1      15.875  24.933  17.054  0.00  0.00    -0.013 A 
ATOM     13  C   UNL     1      15.021  25.748  17.817  0.00  0.00    -0.054 A 
ATOM     14  C   UNL     1      14.356  26.832  17.237  0.00  0.00    -0.042 A 
ATOM     15  C   UNL     1      14.527  27.114  15.880  0.00  0.00    +0.059 A 
ATOM     16 CL   UNL     1      13.690  28.479  15.232  0.00  0.00    -0.082 Cl
ATOM     17  C   UNL     1      15.365  26.307  15.104  0.00  0.00    +0.060 A 
ATOM     18 CL   UNL     1      15.622  26.598  13.419  0.00  0.00    -0.082 Cl
ATOM     19  C   UNL     1      16.032  25.224  15.688  0.00  0.00    -0.036 A 
ATOM     20  H   UNL     1      16.208  21.887  18.365  0.00  0.00    +0.000 HD
ATOM     21  H   UNL     1      15.239  22.362  17.097  0.00  0.00    +0.000 HD
ATOM     22  H   UNL     1      14.987  22.990  18.619  0.00  0.00    +0.000 HD
ATOM     23  H   UNL     1      17.365  23.197  19.480  0.00  0.00    +0.000 HD
ATOM     24  H   UNL     1      21.037  25.016  19.475  0.00  0.00    +0.000 HD
ATOM     25  H   UNL     1      20.829  26.005  20.798  0.00  0.00    +0.000 HD
ENDROOT
TORSDOF 0
ENDMDL
MODEL 9
REMARK VINA RESULT:    -3.143      2.941      3.819
REMARK INTER + INTRA:          -3.143
REMARK INTER:                  -3.143
REMARK INTRA:                   0.000
REMARK UNBOUND:                 0.000
REMARK  Name = /home/vital/Documents/PhD_2021/Malaria_codes/scripts/../data/pdbqt_ligands/ligand_182_temp.pdb
REMARK                            x       y       z     vdW  Elec       q    Type
REMARK                         _______ _______ _______ _____ _____    ______ ____
ROOT
ATOM      1  N   UNL     1      13.782  28.547  20.173  0.00  0.00    -0.310 N 
ATOM      2  C   UNL     1      14.654  27.599  19.516  0.00  0.00    +0.106 C 
ATOM      3  N   UNL     1      15.869  27.644  20.308  0.00  0.00    -0.180 NA
ATOM      4  O   UNL     1      16.559  26.377  20.059  0.00  0.00    -0.297 OA
ATOM      5  C   UNL     1      17.905  26.660  19.665  0.00  0.00    +0.082 C 
ATOM      6  C   UNL     1      18.658  25.345  19.426  0.00  0.00    +0.022 C 
ATOM      7  N   UNL     1      18.963  24.648  20.683  0.00  0.00    -0.303 N 
ATOM      8  C   UNL     1      19.651  23.381  20.384  0.00  0.00    +0.059 C 
ATOM      9  C   UNL     1      20.215  22.659  21.905  0.00  0.00    -0.021 C 
ATOM     10  C   UNL     1      21.182  23.067  21.228  0.00  0.00    -0.125 C 
ATOM     11  C   UNL     1      21.391  23.646  20.140  0.00  0.00    -0.021 C 
ATOM     12  C   UNL     1      14.880  27.980  18.062  0.00  0.00    -0.013 A 
ATOM     13  C   UNL     1      15.669  29.087  17.701  0.00  0.00    -0.054 A 
ATOM     14  C   UNL     1      15.864  29.422  16.359  0.00  0.00    -0.042 A 
ATOM     15  C   UNL     1      15.266  28.661  15.353  0.00  0.00    +0.059 A 
ATOM     16 CL   UNL     1      15.563  29.119  13.715  0.00  0.00    -0.082 Cl
ATOM     17  C   UNL     1      14.470  27.563  15.694  0.00  0.00    +0.060 A 
ATOM     18 CL   UNL     1      13.698  26.577  14.501  0.00  0.00    -0.082 Cl
ATOM     19  C   UNL     1      14.278  27.227  17.040  0.00  0.00    -0.036 A 
ATOM     20  H   UNL     1      13.647  28.268  21.145  0.00  0.00    +0.000 HD
ATOM     21  H   UNL     1      12.880  28.566  19.696  0.00  0.00    +0.000 HD
ATOM     22  H   UNL     1      14.203  29.475  20.142  0.00  0.00    +0.000 HD
ATOM     23  H   UNL     1      15.644  27.736  21.299  0.00  0.00    +0.000 HD
ATOM     24  H   UNL     1      18.095  24.454  21.184  0.00  0.00    +0.000 HD
ATOM     25  H   UNL     1      19.564  25.235  21.262  0.00  0.00    +0.000 HD
ENDROOT
TORSDOF 0
ENDMDL
