MODEL 1
REMARK VINA RESULT:    -5.295      0.000      0.000
REMARK INTER + INTRA:          -5.295
REMARK INTER:                  -5.295
REMARK INTRA:                   0.000
REMARK UNBOUND:                 0.000
REMARK  Name = /home/vital/Documents/PhD_2021/Malaria_codes/scripts/../data/pdbqt_ligands/ligand_328_temp.pdb
REMARK                            x       y       z     vdW  Elec       q    Type
REMARK                         _______ _______ _______ _____ _____    ______ ____
ROOT
ATOM      1  O1  UNL     1      18.516  30.996  17.979  0.00  0.00    -0.253 OA
ATOM      2  C1  UNL     1      18.617  29.796  18.198  0.00  0.00    +0.300 C 
ATOM      3  N1  UNL     1      17.592  29.007  18.648  0.00  0.00    -0.299 N 
ATOM      4  C2  UNL     1      16.231  29.512  18.682  0.00  0.00    +0.020 C 
ATOM      5  C3  UNL     1      15.563  29.488  17.303  0.00  0.00    +0.021 C 
ATOM      6  C4  UNL     1      15.446  28.096  16.747  0.00  0.00    +0.113 A 
ATOM      7  N2  UNL     1      16.118  27.039  17.169  0.00  0.00    -0.232 NA
ATOM      8  C5  UNL     1      15.711  25.993  16.382  0.00  0.00    +0.089 A 
ATOM      9  C6  UNL     1      16.108  24.649  16.419  0.00  0.00    -0.034 A 
ATOM     10  C7  UNL     1      15.543  23.753  15.504  0.00  0.00    -0.060 A 
ATOM     11  C8  UNL     1      14.603  24.188  14.569  0.00  0.00    -0.060 A 
ATOM     12  C9  UNL     1      14.198  25.528  14.517  0.00  0.00    -0.036 A 
ATOM     13  C10 UNL     1      14.773  26.408  15.443  0.00  0.00    +0.069 A 
ATOM     14  N3  UNL     1      14.631  27.760  15.682  0.00  0.00    -0.323 N 
ATOM     15  C11 UNL     1      13.742  28.658  14.957  0.00  0.00    +0.050 C 
ATOM     16  C12 UNL     1      14.488  29.602  14.047  0.00  0.00    -0.028 A 
ATOM     17  C13 UNL     1      14.288  30.988  14.155  0.00  0.00    -0.057 A 
ATOM     18  C14 UNL     1      14.969  31.871  13.315  0.00  0.00    -0.061 A 
ATOM     19  C15 UNL     1      15.845  31.381  12.349  0.00  0.00    -0.062 A 
ATOM     20  C16 UNL     1      16.040  30.008  12.221  0.00  0.00    -0.061 A 
ATOM     21  C17 UNL     1      15.364  29.123  13.060  0.00  0.00    -0.057 A 
ATOM     22  N4  UNL     1      19.786  29.089  18.081  0.00  0.00    -0.299 N 
ATOM     23  C18 UNL     1      20.978  29.696  17.524  0.00  0.00    +0.018 C 
ATOM     24  C19 UNL     1      21.639  30.709  18.449  0.00  0.00    +0.023 C 
ATOM     25  C20 UNL     1      22.117  30.072  19.733  0.00  0.00    +0.241 C 
ATOM     26  F1  UNL     1      22.761  31.003  20.483  0.00  0.00    -0.209 F 
ATOM     27  F2  UNL     1      23.033  29.109  19.453  0.00  0.00    -0.209 F 
ATOM     28  H   UNL     1      17.780  28.090  18.952  0.00  0.00    +0.000 HD
ATOM     29  H   UNL     1      19.816  28.151  18.380  0.00  0.00    +0.000 HD
ENDROOT
TORSDOF 0
ENDMDL
MODEL 2
REMARK VINA RESULT:    -4.877      0.927      0.974
REMARK INTER + INTRA:          -4.877
REMARK INTER:                  -4.877
REMARK INTRA:                   0.000
REMARK UNBOUND:                 0.000
REMARK  Name = /home/vital/Documents/PhD_2021/Malaria_codes/scripts/../data/pdbqt_ligands/ligand_328_temp.pdb
REMARK                            x       y       z     vdW  Elec       q    Type
REMARK                         _______ _______ _______ _____ _____    ______ ____
ROOT
ATOM      1  O1  UNL     1      17.609  31.360  18.556  0.00  0.00    -0.253 OA
ATOM      2  C1  UNL     1      17.822  30.191  18.849  0.00  0.00    +0.300 C 
ATOM      3  N1  UNL     1      16.847  29.290  19.180  0.00  0.00    -0.299 N 
ATOM      4  C2  UNL     1      15.445  29.613  18.983  0.00  0.00    +0.020 C 
ATOM      5  C3  UNL     1      15.008  29.457  17.522  0.00  0.00    +0.021 C 
ATOM      6  C4  UNL     1      15.153  28.045  17.027  0.00  0.00    +0.113 A 
ATOM      7  N2  UNL     1      15.878  27.100  17.599  0.00  0.00    -0.232 NA
ATOM      8  C5  UNL     1      15.732  25.984  16.815  0.00  0.00    +0.089 A 
ATOM      9  C6  UNL     1      16.283  24.706  16.981  0.00  0.00    -0.034 A 
ATOM     10  C7  UNL     1      15.984  23.715  16.039  0.00  0.00    -0.060 A 
ATOM     11  C8  UNL     1      15.154  23.993  14.952  0.00  0.00    -0.060 A 
ATOM     12  C9  UNL     1      14.598  25.266  14.770  0.00  0.00    -0.036 A 
ATOM     13  C10 UNL     1      14.908  26.243  15.726  0.00  0.00    +0.069 A 
ATOM     14  N3  UNL     1      14.563  27.571  15.871  0.00  0.00    -0.323 N 
ATOM     15  C11 UNL     1      13.693  28.322  14.974  0.00  0.00    +0.050 C 
ATOM     16  C12 UNL     1      14.448  29.327  14.140  0.00  0.00    -0.028 A 
ATOM     17  C13 UNL     1      14.062  30.676  14.145  0.00  0.00    -0.057 A 
ATOM     18  C14 UNL     1      14.750  31.614  13.372  0.00  0.00    -0.061 A 
ATOM     19  C15 UNL     1      15.821  31.213  12.576  0.00  0.00    -0.062 A 
ATOM     20  C16 UNL     1      16.203  29.874  12.549  0.00  0.00    -0.061 A 
ATOM     21  C17 UNL     1      15.520  28.935  13.322  0.00  0.00    -0.057 A 
ATOM     22  N4  UNL     1      19.075  29.640  18.946  0.00  0.00    -0.299 N 
ATOM     23  C18 UNL     1      20.254  30.380  18.544  0.00  0.00    +0.018 C 
ATOM     24  C19 UNL     1      20.631  31.500  19.505  0.00  0.00    +0.023 C 
ATOM     25  C20 UNL     1      20.978  30.972  20.877  0.00  0.00    +0.241 C 
ATOM     26  F1  UNL     1      21.376  32.003  21.667  0.00  0.00    -0.209 F 
ATOM     27  F2  UNL     1      22.039  30.129  20.789  0.00  0.00    -0.209 F 
ATOM     28  H   UNL     1      17.098  28.415  19.555  0.00  0.00    +0.000 HD
ATOM     29  H   UNL     1      19.174  28.724  19.295  0.00  0.00    +0.000 HD
ENDROOT
TORSDOF 0
ENDMDL
MODEL 3
REMARK VINA RESULT:    -4.829      3.307      5.980
REMARK INTER + INTRA:          -4.829
REMARK INTER:                  -4.829
REMARK INTRA:                   0.000
REMARK UNBOUND:                 0.000
REMARK  Name = /home/vital/Documents/PhD_2021/Malaria_codes/scripts/../data/pdbqt_ligands/ligand_328_temp.pdb
REMARK                            x       y       z     vdW  Elec       q    Type
REMARK                         _______ _______ _______ _____ _____    ______ ____
ROOT
ATOM      1  O1  UNL     1      16.245  28.213  20.043  0.00  0.00    -0.253 OA
ATOM      2  C1  UNL     1      16.037  29.364  19.684  0.00  0.00    +0.300 C 
ATOM      3  N1  UNL     1      16.860  30.072  18.849  0.00  0.00    -0.299 N 
ATOM      4  C2  UNL     1      17.941  29.409  18.143  0.00  0.00    +0.020 C 
ATOM      5  C3  UNL     1      17.452  28.641  16.910  0.00  0.00    +0.021 C 
ATOM      6  C4  UNL     1      16.816  29.542  15.887  0.00  0.00    +0.113 A 
ATOM      7  N2  UNL     1      16.387  30.773  16.107  0.00  0.00    -0.232 NA
ATOM      8  C5  UNL     1      15.877  31.214  14.913  0.00  0.00    +0.089 A 
ATOM      9  C6  UNL     1      15.304  32.454  14.597  0.00  0.00    -0.034 A 
ATOM     10  C7  UNL     1      14.851  32.675  13.292  0.00  0.00    -0.060 A 
ATOM     11  C8  UNL     1      14.964  31.679  12.321  0.00  0.00    -0.060 A 
ATOM     12  C9  UNL     1      15.530  30.434  12.621  0.00  0.00    -0.036 A 
ATOM     13  C10 UNL     1      15.980  30.233  13.932  0.00  0.00    +0.069 A 
ATOM     14  N3  UNL     1      16.567  29.166  14.581  0.00  0.00    -0.323 N 
ATOM     15  C11 UNL     1      16.899  27.885  13.972  0.00  0.00    +0.050 C 
ATOM     16  C12 UNL     1      15.991  26.771  14.432  0.00  0.00    -0.028 A 
ATOM     17  C13 UNL     1      16.537  25.602  14.983  0.00  0.00    -0.057 A 
ATOM     18  C14 UNL     1      15.706  24.563  15.407  0.00  0.00    -0.061 A 
ATOM     19  C15 UNL     1      14.324  24.673  15.272  0.00  0.00    -0.062 A 
ATOM     20  C16 UNL     1      13.771  25.821  14.711  0.00  0.00    -0.061 A 
ATOM     21  C17 UNL     1      14.597  26.863  14.289  0.00  0.00    -0.057 A 
ATOM     22  N4  UNL     1      14.981  30.125  20.118  0.00  0.00    -0.299 N 
ATOM     23  C18 UNL     1      13.926  29.552  20.929  0.00  0.00    +0.018 C 
ATOM     24  C19 UNL     1      14.348  29.253  22.361  0.00  0.00    +0.023 C 
ATOM     25  C20 UNL     1      14.745  30.506  23.106  0.00  0.00    +0.241 C 
ATOM     26  F1  UNL     1      15.040  30.189  24.393  0.00  0.00    -0.209 F 
ATOM     27  F2  UNL     1      13.691  31.361  23.156  0.00  0.00    -0.209 F 
ATOM     28  H   UNL     1      16.716  31.038  18.727  0.00  0.00    +0.000 HD
ATOM     29  H   UNL     1      14.939  31.078  19.874  0.00  0.00    +0.000 HD
ENDROOT
TORSDOF 0
ENDMDL
MODEL 4
REMARK VINA RESULT:    -4.652      1.179      1.260
REMARK INTER + INTRA:          -4.652
REMARK INTER:                  -4.652
REMARK INTRA:                   0.000
REMARK UNBOUND:                 0.000
REMARK  Name = /home/vital/Documents/PhD_2021/Malaria_codes/scripts/../data/pdbqt_ligands/ligand_328_temp.pdb
REMARK                            x       y       z     vdW  Elec       q    Type
REMARK                         _______ _______ _______ _____ _____    ______ ____
ROOT
ATOM      1  O1  UNL     1      19.674  30.872  17.108  0.00  0.00    -0.253 OA
ATOM      2  C1  UNL     1      19.745  29.663  17.282  0.00  0.00    +0.300 C 
ATOM      3  N1  UNL     1      18.826  28.932  17.986  0.00  0.00    -0.299 N 
ATOM      4  C2  UNL     1      17.563  29.524  18.389  0.00  0.00    +0.020 C 
ATOM      5  C3  UNL     1      16.549  29.579  17.241  0.00  0.00    +0.021 C 
ATOM      6  C4  UNL     1      16.189  28.213  16.726  0.00  0.00    +0.113 A 
ATOM      7  N2  UNL     1      16.874  27.104  16.944  0.00  0.00    -0.232 NA
ATOM      8  C5  UNL     1      16.199  26.107  16.288  0.00  0.00    +0.089 A 
ATOM      9  C6  UNL     1      16.495  24.740  16.207  0.00  0.00    -0.034 A 
ATOM     10  C7  UNL     1      15.644  23.907  15.471  0.00  0.00    -0.060 A 
ATOM     11  C8  UNL     1      14.520  24.428  14.827  0.00  0.00    -0.060 A 
ATOM     12  C9  UNL     1      14.212  25.792  14.896  0.00  0.00    -0.036 A 
ATOM     13  C10 UNL     1      15.075  26.608  15.639  0.00  0.00    +0.069 A 
ATOM     14  N3  UNL     1      15.097  27.959  15.918  0.00  0.00    -0.323 N 
ATOM     15  C11 UNL     1      14.112  28.932  15.465  0.00  0.00    +0.050 C 
ATOM     16  C12 UNL     1      14.651  29.849  14.395  0.00  0.00    -0.028 A 
ATOM     17  C13 UNL     1      14.585  31.241  14.564  0.00  0.00    -0.057 A 
ATOM     18  C14 UNL     1      15.076  32.099  13.578  0.00  0.00    -0.061 A 
ATOM     19  C15 UNL     1      15.625  31.579  12.408  0.00  0.00    -0.062 A 
ATOM     20  C16 UNL     1      15.681  30.200  12.221  0.00  0.00    -0.061 A 
ATOM     21  C17 UNL     1      15.195  29.339  13.205  0.00  0.00    -0.057 A 
ATOM     22  N4  UNL     1      20.787  28.883  16.849  0.00  0.00    -0.299 N 
ATOM     23  C18 UNL     1      21.826  29.425  15.996  0.00  0.00    +0.018 C 
ATOM     24  C19 UNL     1      22.780  30.368  16.717  0.00  0.00    +0.023 C 
ATOM     25  C20 UNL     1      23.538  29.668  17.820  0.00  0.00    +0.241 C 
ATOM     26  F1  UNL     1      24.424  30.535  18.376  0.00  0.00    -0.209 F 
ATOM     27  F2  UNL     1      24.276  28.655  17.297  0.00  0.00    -0.209 F 
ATOM     28  H   UNL     1      19.023  27.996  18.221  0.00  0.00    +0.000 HD
ATOM     29  H   UNL     1      20.830  27.938  17.123  0.00  0.00    +0.000 HD
ENDROOT
TORSDOF 0
ENDMDL
MODEL 5
REMARK VINA RESULT:    -4.639      2.312      5.019
REMARK INTER + INTRA:          -4.639
REMARK INTER:                  -4.639
REMARK INTRA:                   0.000
REMARK UNBOUND:                 0.000
REMARK  Name = /home/vital/Documents/PhD_2021/Malaria_codes/scripts/../data/pdbqt_ligands/ligand_328_temp.pdb
REMARK                            x       y       z     vdW  Elec       q    Type
REMARK                         _______ _______ _______ _____ _____    ______ ____
ROOT
ATOM      1  O1  UNL     1      19.937  26.581  16.934  0.00  0.00    -0.253 OA
ATOM      2  C1  UNL     1      19.981  27.801  16.858  0.00  0.00    +0.300 C 
ATOM      3  N1  UNL     1      20.063  28.498  15.682  0.00  0.00    -0.299 N 
ATOM      4  C2  UNL     1      19.874  27.824  14.410  0.00  0.00    +0.020 C 
ATOM      5  C3  UNL     1      18.394  27.580  14.092  0.00  0.00    +0.021 C 
ATOM      6  C4  UNL     1      17.614  28.859  13.972  0.00  0.00    +0.113 A 
ATOM      7  N2  UNL     1      18.003  30.042  14.415  0.00  0.00    -0.232 NA
ATOM      8  C5  UNL     1      16.991  30.914  14.106  0.00  0.00    +0.089 A 
ATOM      9  C6  UNL     1      16.904  32.292  14.346  0.00  0.00    -0.034 A 
ATOM     10  C7  UNL     1      15.757  32.978  13.929  0.00  0.00    -0.060 A 
ATOM     11  C8  UNL     1      14.717  32.303  13.288  0.00  0.00    -0.060 A 
ATOM     12  C9  UNL     1      14.788  30.926  13.043  0.00  0.00    -0.036 A 
ATOM     13  C10 UNL     1      15.945  30.258  13.466  0.00  0.00    +0.069 A 
ATOM     14  N3  UNL     1      16.356  28.942  13.406  0.00  0.00    -0.323 N 
ATOM     15  C11 UNL     1      15.602  27.847  12.811  0.00  0.00    +0.050 C 
ATOM     16  C12 UNL     1      15.040  26.901  13.844  0.00  0.00    -0.028 A 
ATOM     17  C13 UNL     1      15.318  25.527  13.763  0.00  0.00    -0.057 A 
ATOM     18  C14 UNL     1      14.799  24.642  14.710  0.00  0.00    -0.061 A 
ATOM     19  C15 UNL     1      13.987  25.115  15.738  0.00  0.00    -0.062 A 
ATOM     20  C16 UNL     1      13.691  26.473  15.820  0.00  0.00    -0.061 A 
ATOM     21  C17 UNL     1      14.210  27.361  14.878  0.00  0.00    -0.057 A 
ATOM     22  N4  UNL     1      20.017  28.638  17.945  0.00  0.00    -0.299 N 
ATOM     23  C18 UNL     1      19.841  28.129  19.290  0.00  0.00    +0.018 C 
ATOM     24  C19 UNL     1      21.037  27.341  19.809  0.00  0.00    +0.023 C 
ATOM     25  C20 UNL     1      22.278  28.198  19.899  0.00  0.00    +0.241 C 
ATOM     26  F1  UNL     1      23.290  27.466  20.435  0.00  0.00    -0.209 F 
ATOM     27  F2  UNL     1      22.061  29.230  20.754  0.00  0.00    -0.209 F 
ATOM     28  H   UNL     1      20.253  29.464  15.700  0.00  0.00    +0.000 HD
ATOM     29  H   UNL     1      20.164  29.602  17.808  0.00  0.00    +0.000 HD
ENDROOT
TORSDOF 0
ENDMDL
MODEL 6
REMARK VINA RESULT:    -4.518      3.380      5.425
REMARK INTER + INTRA:          -4.518
REMARK INTER:                  -4.518
REMARK INTRA:                   0.000
REMARK UNBOUND:                 0.000
REMARK  Name = /home/vital/Documents/PhD_2021/Malaria_codes/scripts/../data/pdbqt_ligands/ligand_328_temp.pdb
REMARK                            x       y       z     vdW  Elec       q    Type
REMARK                         _______ _______ _______ _____ _____    ______ ____
ROOT
ATOM      1  O1  UNL     1      18.654  24.524  19.671  0.00  0.00    -0.253 OA
ATOM      2  C1  UNL     1      18.877  24.668  18.477  0.00  0.00    +0.300 C 
ATOM      3  N1  UNL     1      17.993  24.344  17.483  0.00  0.00    -0.299 N 
ATOM      4  C2  UNL     1      16.616  24.010  17.800  0.00  0.00    +0.020 C 
ATOM      5  C3  UNL     1      15.760  25.251  18.073  0.00  0.00    +0.021 C 
ATOM      6  C4  UNL     1      15.673  26.162  16.880  0.00  0.00    +0.113 A 
ATOM      7  N2  UNL     1      16.480  26.138  15.833  0.00  0.00    -0.232 NA
ATOM      8  C5  UNL     1      16.046  27.136  14.999  0.00  0.00    +0.089 A 
ATOM      9  C6  UNL     1      16.548  27.528  13.750  0.00  0.00    -0.034 A 
ATOM     10  C7  UNL     1      15.929  28.587  13.076  0.00  0.00    -0.060 A 
ATOM     11  C8  UNL     1      14.833  29.244  13.637  0.00  0.00    -0.060 A 
ATOM     12  C9  UNL     1      14.322  28.867  14.885  0.00  0.00    -0.036 A 
ATOM     13  C10 UNL     1      14.954  27.803  15.542  0.00  0.00    +0.069 A 
ATOM     14  N3  UNL     1      14.742  27.176  16.753  0.00  0.00    -0.323 N 
ATOM     15  C11 UNL     1      13.691  27.509  17.705  0.00  0.00    +0.050 C 
ATOM     16  C12 UNL     1      14.223  28.193  18.940  0.00  0.00    -0.028 A 
ATOM     17  C13 UNL     1      13.933  27.675  20.212  0.00  0.00    -0.057 A 
ATOM     18  C14 UNL     1      14.415  28.304  21.362  0.00  0.00    -0.061 A 
ATOM     19  C15 UNL     1      15.179  29.464  21.256  0.00  0.00    -0.062 A 
ATOM     20  C16 UNL     1      15.460  29.998  20.001  0.00  0.00    -0.061 A 
ATOM     21  C17 UNL     1      14.982  29.371  18.850  0.00  0.00    -0.057 A 
ATOM     22  N4  UNL     1      20.069  25.116  17.967  0.00  0.00    -0.299 N 
ATOM     23  C18 UNL     1      21.118  25.613  18.835  0.00  0.00    +0.018 C 
ATOM     24  C19 UNL     1      21.824  24.522  19.629  0.00  0.00    +0.023 C 
ATOM     25  C20 UNL     1      22.529  23.536  18.727  0.00  0.00    +0.241 C 
ATOM     26  F1  UNL     1      23.200  22.632  19.488  0.00  0.00    -0.209 F 
ATOM     27  F2  UNL     1      23.468  24.181  17.988  0.00  0.00    -0.209 F 
ATOM     28  H   UNL     1      18.294  24.337  16.546  0.00  0.00    +0.000 HD
ATOM     29  H   UNL     1      20.215  25.100  16.993  0.00  0.00    +0.000 HD
ENDROOT
TORSDOF 0
ENDMDL
MODEL 7
REMARK VINA RESULT:    -4.201      3.361      3.670
REMARK INTER + INTRA:          -4.201
REMARK INTER:                  -4.201
REMARK INTRA:                   0.000
REMARK UNBOUND:                 0.000
REMARK  Name = /home/vital/Documents/PhD_2021/Malaria_codes/scripts/../data/pdbqt_ligands/ligand_328_temp.pdb
REMARK                            x       y       z     vdW  Elec       q    Type
REMARK                         _______ _______ _______ _____ _____    ______ ____
ROOT
ATOM      1  O1  UNL     1      16.772  29.333  21.116  0.00  0.00    -0.253 OA
ATOM      2  C1  UNL     1      16.514  28.168  20.846  0.00  0.00    +0.300 C 
ATOM      3  N1  UNL     1      15.333  27.748  20.295  0.00  0.00    -0.299 N 
ATOM      4  C2  UNL     1      14.376  28.710  19.779  0.00  0.00    +0.020 C 
ATOM      5  C3  UNL     1      14.765  29.237  18.393  0.00  0.00    +0.021 C 
ATOM      6  C4  UNL     1      14.815  28.147  17.358  0.00  0.00    +0.113 A 
ATOM      7  N2  UNL     1      14.876  26.851  17.608  0.00  0.00    -0.232 NA
ATOM      8  C5  UNL     1      14.915  26.231  16.385  0.00  0.00    +0.089 A 
ATOM      9  C6  UNL     1      14.973  24.863  16.086  0.00  0.00    -0.034 A 
ATOM     10  C7  UNL     1      15.000  24.467  14.744  0.00  0.00    -0.060 A 
ATOM     11  C8  UNL     1      14.972  25.415  13.720  0.00  0.00    -0.060 A 
ATOM     12  C9  UNL     1      14.917  26.785  14.003  0.00  0.00    -0.036 A 
ATOM     13  C10 UNL     1      14.888  27.162  15.352  0.00  0.00    +0.069 A 
ATOM     14  N3  UNL     1      14.842  28.381  15.996  0.00  0.00    -0.323 N 
ATOM     15  C11 UNL     1      14.791  29.682  15.341  0.00  0.00    +0.050 C 
ATOM     16  C12 UNL     1      16.086  30.446  15.466  0.00  0.00    -0.028 A 
ATOM     17  C13 UNL     1      16.087  31.746  15.996  0.00  0.00    -0.057 A 
ATOM     18  C14 UNL     1      17.279  32.464  16.111  0.00  0.00    -0.061 A 
ATOM     19  C15 UNL     1      18.480  31.899  15.687  0.00  0.00    -0.062 A 
ATOM     20  C16 UNL     1      18.489  30.617  15.144  0.00  0.00    -0.061 A 
ATOM     21  C17 UNL     1      17.301  29.895  15.030  0.00  0.00    -0.057 A 
ATOM     22  N4  UNL     1      17.350  27.113  21.114  0.00  0.00    -0.299 N 
ATOM     23  C18 UNL     1      18.697  27.329  21.605  0.00  0.00    +0.018 C 
ATOM     24  C19 UNL     1      18.753  27.793  23.055  0.00  0.00    +0.023 C 
ATOM     25  C20 UNL     1      18.178  26.763  23.999  0.00  0.00    +0.241 C 
ATOM     26  F1  UNL     1      18.322  27.197  25.278  0.00  0.00    -0.209 F 
ATOM     27  F2  UNL     1      18.889  25.609  23.906  0.00  0.00    -0.209 F 
ATOM     28  H   UNL     1      15.132  26.785  20.249  0.00  0.00    +0.000 HD
ATOM     29  H   UNL     1      17.030  26.194  20.971  0.00  0.00    +0.000 HD
ENDROOT
TORSDOF 0
ENDMDL
MODEL 8
REMARK VINA RESULT:    -4.140      3.153      3.868
REMARK INTER + INTRA:          -4.140
REMARK INTER:                  -4.140
REMARK INTRA:                   0.000
REMARK UNBOUND:                 0.000
REMARK  Name = /home/vital/Documents/PhD_2021/Malaria_codes/scripts/../data/pdbqt_ligands/ligand_328_temp.pdb
REMARK                            x       y       z     vdW  Elec       q    Type
REMARK                         _______ _______ _______ _____ _____    ______ ____
ROOT
ATOM      1  O1  UNL     1      20.181  26.951  19.847  0.00  0.00    -0.253 OA
ATOM      2  C1  UNL     1      19.917  25.980  19.151  0.00  0.00    +0.300 C 
ATOM      3  N1  UNL     1      18.785  25.221  19.284  0.00  0.00    -0.299 N 
ATOM      4  C2  UNL     1      17.695  25.665  20.134  0.00  0.00    +0.020 C 
ATOM      5  C3  UNL     1      16.826  26.733  19.462  0.00  0.00    +0.021 C 
ATOM      6  C4  UNL     1      16.161  26.228  18.211  0.00  0.00    +0.113 A 
ATOM      7  N2  UNL     1      16.511  25.147  17.536  0.00  0.00    -0.232 NA
ATOM      8  C5  UNL     1      15.651  25.071  16.471  0.00  0.00    +0.089 A 
ATOM      9  C6  UNL     1      15.583  24.110  15.453  0.00  0.00    -0.034 A 
ATOM     10  C7  UNL     1      14.604  24.244  14.462  0.00  0.00    -0.060 A 
ATOM     11  C8  UNL     1      13.711  25.317  14.484  0.00  0.00    -0.060 A 
ATOM     12  C9  UNL     1      13.768  26.287  15.492  0.00  0.00    -0.036 A 
ATOM     13  C10 UNL     1      14.754  26.133  16.476  0.00  0.00    +0.069 A 
ATOM     14  N3  UNL     1      15.108  26.871  17.587  0.00  0.00    -0.323 N 
ATOM     15  C11 UNL     1      14.453  28.092  18.036  0.00  0.00    +0.050 C 
ATOM     16  C12 UNL     1      15.297  29.321  17.808  0.00  0.00    -0.028 A 
ATOM     17  C13 UNL     1      15.586  30.184  18.877  0.00  0.00    -0.057 A 
ATOM     18  C14 UNL     1      16.362  31.327  18.676  0.00  0.00    -0.061 A 
ATOM     19  C15 UNL     1      16.846  31.630  17.405  0.00  0.00    -0.062 A 
ATOM     20  C16 UNL     1      16.552  30.791  16.333  0.00  0.00    -0.061 A 
ATOM     21  C17 UNL     1      15.780  29.647  16.530  0.00  0.00    -0.057 A 
ATOM     22  N4  UNL     1      20.748  25.482  18.180  0.00  0.00    -0.299 N 
ATOM     23  C18 UNL     1      21.958  26.182  17.795  0.00  0.00    +0.018 C 
ATOM     24  C19 UNL     1      23.066  26.109  18.836  0.00  0.00    +0.023 C 
ATOM     25  C20 UNL     1      23.524  24.689  19.073  0.00  0.00    +0.241 C 
ATOM     26  F1  UNL     1      24.559  24.691  19.953  0.00  0.00    -0.209 F 
ATOM     27  F2  UNL     1      24.008  24.165  17.918  0.00  0.00    -0.209 F 
ATOM     28  H   UNL     1      18.711  24.367  18.800  0.00  0.00    +0.000 HD
ATOM     29  H   UNL     1      20.520  24.633  17.737  0.00  0.00    +0.000 HD
ENDROOT
TORSDOF 0
ENDMDL
MODEL 9
REMARK VINA RESULT:    -4.134      3.547      4.106
REMARK INTER + INTRA:          -4.134
REMARK INTER:                  -4.134
REMARK INTRA:                   0.000
REMARK UNBOUND:                 0.000
REMARK  Name = /home/vital/Documents/PhD_2021/Malaria_codes/scripts/../data/pdbqt_ligands/ligand_328_temp.pdb
REMARK                            x       y       z     vdW  Elec       q    Type
REMARK                         _______ _______ _______ _____ _____    ______ ____
ROOT
ATOM      1  O1  UNL     1      21.447  29.158  14.349  0.00  0.00    -0.253 OA
ATOM      2  C1  UNL     1      21.093  28.007  14.568  0.00  0.00    +0.300 C 
ATOM      3  N1  UNL     1      20.434  27.606  15.699  0.00  0.00    -0.299 N 
ATOM      4  C2  UNL     1      19.904  28.585  16.631  0.00  0.00    +0.020 C 
ATOM      5  C3  UNL     1      18.583  29.195  16.152  0.00  0.00    +0.021 C 
ATOM      6  C4  UNL     1      17.494  28.168  16.009  0.00  0.00    +0.113 A 
ATOM      7  N2  UNL     1      17.674  26.860  15.945  0.00  0.00    -0.232 NA
ATOM      8  C5  UNL     1      16.424  26.313  15.809  0.00  0.00    +0.089 A 
ATOM      9  C6  UNL     1      16.053  24.965  15.707  0.00  0.00    -0.034 A 
ATOM     10  C7  UNL     1      14.696  24.647  15.577  0.00  0.00    -0.060 A 
ATOM     11  C8  UNL     1      13.729  25.652  15.546  0.00  0.00    -0.060 A 
ATOM     12  C9  UNL     1      14.083  27.003  15.643  0.00  0.00    -0.036 A 
ATOM     13  C10 UNL     1      15.446  27.301  15.776  0.00  0.00    +0.069 A 
ATOM     14  N3  UNL     1      16.153  28.481  15.888  0.00  0.00    -0.323 N 
ATOM     15  C11 UNL     1      15.572  29.816  15.912  0.00  0.00    +0.050 C 
ATOM     16  C12 UNL     1      15.834  30.587  14.642  0.00  0.00    -0.028 A 
ATOM     17  C13 UNL     1      16.436  31.854  14.700  0.00  0.00    -0.057 A 
ATOM     18  C14 UNL     1      16.678  32.578  13.531  0.00  0.00    -0.061 A 
ATOM     19  C15 UNL     1      16.311  32.053  12.294  0.00  0.00    -0.062 A 
ATOM     20  C16 UNL     1      15.698  30.804  12.224  0.00  0.00    -0.061 A 
ATOM     21  C17 UNL     1      15.457  30.076  13.389  0.00  0.00    -0.057 A 
ATOM     22  N4  UNL     1      21.361  26.949  13.737  0.00  0.00    -0.299 N 
ATOM     23  C18 UNL     1      21.961  27.152  12.433  0.00  0.00    +0.018 C 
ATOM     24  C19 UNL     1      23.434  27.532  12.489  0.00  0.00    +0.023 C 
ATOM     25  C20 UNL     1      24.274  26.442  13.114  0.00  0.00    +0.241 C 
ATOM     26  F1  UNL     1      25.583  26.803  13.071  0.00  0.00    -0.209 F 
ATOM     27  F2  UNL     1      24.169  25.305  12.380  0.00  0.00    -0.209 F 
ATOM     28  H   UNL     1      20.319  26.645  15.881  0.00  0.00    +0.000 HD
ATOM     29  H   UNL     1      21.143  26.035  14.031  0.00  0.00    +0.000 HD
ENDROOT
TORSDOF 0
ENDMDL
