MODEL 1
REMARK VINA RESULT:    -4.397      0.000      0.000
REMARK INTER + INTRA:          -4.397
REMARK INTER:                  -4.397
REMARK INTRA:                   0.000
REMARK UNBOUND:                 0.000
REMARK  Name = /home/vital/Documents/PhD_2021/Malaria_codes/scripts/../data/pdbqt_ligands/ligand_359_temp.pdb
REMARK                            x       y       z     vdW  Elec       q    Type
REMARK                         _______ _______ _______ _____ _____    ______ ____
ROOT
ATOM      1  C1  UNL     1      19.574  42.742  33.063  0.00  0.00    +0.079 C 
ATOM      2  O1  UNL     1      18.492  43.449  33.658  0.00  0.00    -0.495 OA
ATOM      3  C2  UNL     1      17.626  44.084  32.812  0.00  0.00    +0.124 A 
ATOM      4  C3  UNL     1      16.586  44.768  33.452  0.00  0.00    -0.019 A 
ATOM      5  C4  UNL     1      15.627  45.462  32.711  0.00  0.00    -0.044 A 
ATOM      6  C5  UNL     1      15.713  45.469  31.319  0.00  0.00    +0.068 A 
ATOM      7  C6  UNL     1      16.744  44.792  30.674  0.00  0.00    +0.143 A 
ATOM      8  C7  UNL     1      17.703  44.098  31.418  0.00  0.00    +0.023 A 
ATOM      9  O2  UNL     1      16.877  44.764  29.309  0.00  0.00    -0.451 OA
ATOM     10  C8  UNL     1      15.954  45.457  28.538  0.00  0.00    +0.184 A 
ATOM     11  C9  UNL     1      16.232  45.381  27.091  0.00  0.00    +0.066 A 
ATOM     12  C10 UNL     1      15.307  44.762  26.238  0.00  0.00    -0.047 A 
ATOM     13  C11 UNL     1      15.557  44.668  24.870  0.00  0.00    -0.057 A 
ATOM     14  C12 UNL     1      16.731  45.198  24.332  0.00  0.00    -0.016 A 
ATOM     15  C13 UNL     1      17.669  45.827  25.157  0.00  0.00    +0.162 A 
ATOM     16  O3  UNL     1      18.832  46.398  24.707  0.00  0.00    -0.491 OA
ATOM     17  C14 UNL     1      18.977  46.565  23.303  0.00  0.00    +0.079 C 
ATOM     18  C15 UNL     1      17.426  45.890  26.543  0.00  0.00    +0.172 A 
ATOM     19  O4  UNL     1      18.301  46.527  27.397  0.00  0.00    -0.491 OA
ATOM     20  C16 UNL     1      19.539  45.825  27.500  0.00  0.00    +0.079 C 
ATOM     21  C17 UNL     1      14.911  46.145  29.035  0.00  0.00    +0.208 A 
ATOM     22  O5  UNL     1      13.991  46.830  28.261  0.00  0.00    -0.501 OA
ATOM     23  C18 UNL     1      14.725  46.186  30.505  0.00  0.00    +0.234 A 
ATOM     24  O6  UNL     1      13.777  46.798  30.984  0.00  0.00    -0.283 OA
ATOM     25  H   UNL     1      14.072  46.830  27.328  0.00  0.00    +0.000 HD
ENDROOT
TORSDOF 0
ENDMDL
MODEL 2
REMARK VINA RESULT:    -4.309     18.984     21.734
REMARK INTER + INTRA:          -4.309
REMARK INTER:                  -4.309
REMARK INTRA:                   0.000
REMARK UNBOUND:                 0.000
REMARK  Name = /home/vital/Documents/PhD_2021/Malaria_codes/scripts/../data/pdbqt_ligands/ligand_359_temp.pdb
REMARK                            x       y       z     vdW  Elec       q    Type
REMARK                         _______ _______ _______ _____ _____    ______ ____
ROOT
ATOM      1  C1  UNL     1      15.699  33.155  19.423  0.00  0.00    +0.079 C 
ATOM      2  O1  UNL     1      15.949  33.766  18.163  0.00  0.00    -0.495 OA
ATOM      3  C2  UNL     1      15.917  32.956  17.063  0.00  0.00    +0.124 A 
ATOM      4  C3  UNL     1      16.177  33.609  15.852  0.00  0.00    -0.019 A 
ATOM      5  C4  UNL     1      16.176  32.903  14.647  0.00  0.00    -0.044 A 
ATOM      6  C5  UNL     1      15.912  31.533  14.658  0.00  0.00    +0.068 A 
ATOM      7  C6  UNL     1      15.653  30.876  15.857  0.00  0.00    +0.143 A 
ATOM      8  C7  UNL     1      15.654  31.584  17.062  0.00  0.00    +0.023 A 
ATOM      9  O2  UNL     1      15.386  29.532  15.926  0.00  0.00    -0.451 OA
ATOM     10  C8  UNL     1      15.394  28.792  14.751  0.00  0.00    +0.184 A 
ATOM     11  C9  UNL     1      15.133  27.356  14.968  0.00  0.00    +0.066 A 
ATOM     12  C10 UNL     1      13.990  26.766  14.409  0.00  0.00    -0.047 A 
ATOM     13  C11 UNL     1      13.719  25.414  14.613  0.00  0.00    -0.057 A 
ATOM     14  C12 UNL     1      14.590  24.629  15.371  0.00  0.00    -0.016 A 
ATOM     15  C13 UNL     1      15.742  25.188  15.935  0.00  0.00    +0.162 A 
ATOM     16  O3  UNL     1      16.663  24.483  16.666  0.00  0.00    -0.491 OA
ATOM     17  C14 UNL     1      16.561  23.065  16.652  0.00  0.00    +0.079 C 
ATOM     18  C15 UNL     1      15.993  26.562  15.752  0.00  0.00    +0.172 A 
ATOM     19  O4  UNL     1      17.130  27.157  16.258  0.00  0.00    -0.491 OA
ATOM     20  C16 UNL     1      17.109  27.203  17.683  0.00  0.00    +0.079 C 
ATOM     21  C17 UNL     1      15.624  29.306  13.531  0.00  0.00    +0.208 A 
ATOM     22  O5  UNL     1      15.626  28.564  12.363  0.00  0.00    -0.501 OA
ATOM     23  C18 UNL     1      15.901  30.757  13.413  0.00  0.00    +0.234 A 
ATOM     24  O6  UNL     1      16.105  31.253  12.310  0.00  0.00    -0.283 OA
ATOM     25  H   UNL     1      15.456  27.644  12.392  0.00  0.00    +0.000 HD
ENDROOT
TORSDOF 0
ENDMDL
MODEL 3
REMARK VINA RESULT:    -4.307     20.321     22.523
REMARK INTER + INTRA:          -4.307
REMARK INTER:                  -4.307
REMARK INTRA:                   0.000
REMARK UNBOUND:                 0.000
REMARK  Name = /home/vital/Documents/PhD_2021/Malaria_codes/scripts/../data/pdbqt_ligands/ligand_359_temp.pdb
REMARK                            x       y       z     vdW  Elec       q    Type
REMARK                         _______ _______ _______ _____ _____    ______ ____
ROOT
ATOM      1  C1  UNL     1      21.219  24.904  17.860  0.00  0.00    +0.079 C 
ATOM      2  O1  UNL     1      20.104  24.041  18.052  0.00  0.00    -0.495 OA
ATOM      3  C2  UNL     1      18.917  24.430  17.495  0.00  0.00    +0.124 A 
ATOM      4  C3  UNL     1      17.854  23.547  17.721  0.00  0.00    -0.019 A 
ATOM      5  C4  UNL     1      16.582  23.818  17.211  0.00  0.00    -0.044 A 
ATOM      6  C5  UNL     1      16.377  24.982  16.470  0.00  0.00    +0.068 A 
ATOM      7  C6  UNL     1      17.429  25.865  16.241  0.00  0.00    +0.143 A 
ATOM      8  C7  UNL     1      18.700  25.592  16.752  0.00  0.00    +0.023 A 
ATOM      9  O2  UNL     1      17.284  27.023  15.518  0.00  0.00    -0.451 OA
ATOM     10  C8  UNL     1      16.032  27.336  15.010  0.00  0.00    +0.184 A 
ATOM     11  C9  UNL     1      16.003  28.624  14.289  0.00  0.00    +0.066 A 
ATOM     12  C10 UNL     1      15.700  28.646  12.921  0.00  0.00    -0.047 A 
ATOM     13  C11 UNL     1      15.680  29.851  12.220  0.00  0.00    -0.057 A 
ATOM     14  C12 UNL     1      15.955  31.052  12.877  0.00  0.00    -0.016 A 
ATOM     15  C13 UNL     1      16.254  31.061  14.243  0.00  0.00    +0.162 A 
ATOM     16  O3  UNL     1      16.507  32.196  14.970  0.00  0.00    -0.491 OA
ATOM     17  C14 UNL     1      16.220  33.444  14.353  0.00  0.00    +0.079 C 
ATOM     18  C15 UNL     1      16.304  29.837  14.939  0.00  0.00    +0.172 A 
ATOM     19  O4  UNL     1      16.561  29.792  16.293  0.00  0.00    -0.491 OA
ATOM     20  C16 UNL     1      17.902  30.178  16.586  0.00  0.00    +0.079 C 
ATOM     21  C17 UNL     1      14.938  26.568  15.155  0.00  0.00    +0.208 A 
ATOM     22  O5  UNL     1      13.692  26.883  14.642  0.00  0.00    -0.501 OA
ATOM     23  C18 UNL     1      15.057  25.301  15.916  0.00  0.00    +0.234 A 
ATOM     24  O6  UNL     1      14.077  24.578  16.055  0.00  0.00    -0.283 OA
ATOM     25  H   UNL     1      13.573  27.674  14.154  0.00  0.00    +0.000 HD
ENDROOT
TORSDOF 0
ENDMDL
MODEL 4
REMARK VINA RESULT:    -4.190     21.533     23.477
REMARK INTER + INTRA:          -4.190
REMARK INTER:                  -4.190
REMARK INTRA:                   0.000
REMARK UNBOUND:                 0.000
REMARK  Name = /home/vital/Documents/PhD_2021/Malaria_codes/scripts/../data/pdbqt_ligands/ligand_359_temp.pdb
REMARK                            x       y       z     vdW  Elec       q    Type
REMARK                         _______ _______ _______ _____ _____    ______ ____
ROOT
ATOM      1  C1  UNL     1      23.471  26.295  17.140  0.00  0.00    +0.079 C 
ATOM      2  O1  UNL     1      23.182  25.378  18.189  0.00  0.00    -0.495 OA
ATOM      3  C2  UNL     1      21.886  24.961  18.308  0.00  0.00    +0.124 A 
ATOM      4  C3  UNL     1      21.659  24.064  19.359  0.00  0.00    -0.019 A 
ATOM      5  C4  UNL     1      20.380  23.556  19.598  0.00  0.00    -0.044 A 
ATOM      6  C5  UNL     1      19.324  23.949  18.777  0.00  0.00    +0.068 A 
ATOM      7  C6  UNL     1      19.541  24.840  17.730  0.00  0.00    +0.143 A 
ATOM      8  C7  UNL     1      20.821  25.348  17.492  0.00  0.00    +0.023 A 
ATOM      9  O2  UNL     1      18.539  25.260  16.891  0.00  0.00    -0.451 OA
ATOM     10  C8  UNL     1      17.251  24.791  17.107  0.00  0.00    +0.184 A 
ATOM     11  C9  UNL     1      16.263  25.348  16.163  0.00  0.00    +0.066 A 
ATOM     12  C10 UNL     1      15.586  24.494  15.282  0.00  0.00    -0.047 A 
ATOM     13  C11 UNL     1      14.659  25.003  14.374  0.00  0.00    -0.057 A 
ATOM     14  C12 UNL     1      14.389  26.372  14.338  0.00  0.00    -0.016 A 
ATOM     15  C13 UNL     1      15.044  27.248  15.209  0.00  0.00    +0.162 A 
ATOM     16  O3  UNL     1      14.817  28.599  15.259  0.00  0.00    -0.491 OA
ATOM     17  C14 UNL     1      13.690  29.099  14.552  0.00  0.00    +0.079 C 
ATOM     18  C15 UNL     1      16.004  26.731  16.102  0.00  0.00    +0.172 A 
ATOM     19  O4  UNL     1      16.654  27.546  17.005  0.00  0.00    -0.491 OA
ATOM     20  C16 UNL     1      17.540  28.452  16.351  0.00  0.00    +0.079 C 
ATOM     21  C17 UNL     1      16.910  23.926  18.077  0.00  0.00    +0.208 A 
ATOM     22  O5  UNL     1      15.625  23.458  18.286  0.00  0.00    -0.501 OA
ATOM     23  C18 UNL     1      17.967  23.437  18.996  0.00  0.00    +0.234 A 
ATOM     24  O6  UNL     1      17.684  22.640  19.883  0.00  0.00    -0.283 OA
ATOM     25  H   UNL     1      14.927  23.741  17.729  0.00  0.00    +0.000 HD
ENDROOT
TORSDOF 0
ENDMDL
MODEL 5
REMARK VINA RESULT:    -4.137     20.763     23.238
REMARK INTER + INTRA:          -4.137
REMARK INTER:                  -4.137
REMARK INTRA:                   0.000
REMARK UNBOUND:                 0.000
REMARK  Name = /home/vital/Documents/PhD_2021/Malaria_codes/scripts/../data/pdbqt_ligands/ligand_359_temp.pdb
REMARK                            x       y       z     vdW  Elec       q    Type
REMARK                         _______ _______ _______ _____ _____    ______ ____
ROOT
ATOM      1  C1  UNL     1      16.891  32.139  16.492  0.00  0.00    +0.079 C 
ATOM      2  O1  UNL     1      15.858  31.709  15.613  0.00  0.00    -0.495 OA
ATOM      3  C2  UNL     1      15.617  30.365  15.549  0.00  0.00    +0.124 A 
ATOM      4  C3  UNL     1      14.596  29.999  14.664  0.00  0.00    -0.019 A 
ATOM      5  C4  UNL     1      14.243  28.658  14.498  0.00  0.00    -0.044 A 
ATOM      6  C5  UNL     1      14.920  27.679  15.225  0.00  0.00    +0.068 A 
ATOM      7  C6  UNL     1      15.937  28.034  16.106  0.00  0.00    +0.143 A 
ATOM      8  C7  UNL     1      16.288  29.376  16.271  0.00  0.00    +0.023 A 
ATOM      9  O2  UNL     1      16.635  27.113  16.847  0.00  0.00    -0.451 OA
ATOM     10  C8  UNL     1      16.326  25.768  16.696  0.00  0.00    +0.184 A 
ATOM     11  C9  UNL     1      17.174  24.882  17.516  0.00  0.00    +0.066 A 
ATOM     12  C10 UNL     1      16.590  24.098  18.522  0.00  0.00    -0.047 A 
ATOM     13  C11 UNL     1      17.376  23.265  19.316  0.00  0.00    -0.057 A 
ATOM     14  C12 UNL     1      18.755  23.195  19.113  0.00  0.00    -0.016 A 
ATOM     15  C13 UNL     1      19.365  23.960  18.113  0.00  0.00    +0.162 A 
ATOM     16  O3  UNL     1      20.706  23.930  17.828  0.00  0.00    -0.491 OA
ATOM     17  C14 UNL     1      21.476  22.895  18.424  0.00  0.00    +0.079 C 
ATOM     18  C15 UNL     1      18.570  24.825  17.335  0.00  0.00    +0.172 A 
ATOM     19  O4  UNL     1      19.114  25.576  16.315  0.00  0.00    -0.491 OA
ATOM     20  C16 UNL     1      19.982  26.591  16.816  0.00  0.00    +0.079 C 
ATOM     21  C17 UNL     1      15.365  25.295  15.884  0.00  0.00    +0.208 A 
ATOM     22  O5  UNL     1      15.058  23.953  15.741  0.00  0.00    -0.501 OA
ATOM     23  C18 UNL     1      14.579  26.260  15.078  0.00  0.00    +0.234 A 
ATOM     24  O6  UNL     1      13.690  25.855  14.337  0.00  0.00    -0.283 OA
ATOM     25  H   UNL     1      15.531  23.310  16.231  0.00  0.00    +0.000 HD
ENDROOT
TORSDOF 0
ENDMDL
MODEL 6
REMARK VINA RESULT:    -4.050     19.211     21.563
REMARK INTER + INTRA:          -4.050
REMARK INTER:                  -4.050
REMARK INTRA:                   0.000
REMARK UNBOUND:                 0.000
REMARK  Name = /home/vital/Documents/PhD_2021/Malaria_codes/scripts/../data/pdbqt_ligands/ligand_359_temp.pdb
REMARK                            x       y       z     vdW  Elec       q    Type
REMARK                         _______ _______ _______ _____ _____    ______ ____
ROOT
ATOM      1  C1  UNL     1      18.023  23.241  19.072  0.00  0.00    +0.079 C 
ATOM      2  O1  UNL     1      17.172  22.870  17.995  0.00  0.00    -0.495 OA
ATOM      3  C2  UNL     1      16.546  23.881  17.322  0.00  0.00    +0.124 A 
ATOM      4  C3  UNL     1      15.717  23.457  16.276  0.00  0.00    -0.019 A 
ATOM      5  C4  UNL     1      15.014  24.384  15.503  0.00  0.00    -0.044 A 
ATOM      6  C5  UNL     1      15.146  25.744  15.781  0.00  0.00    +0.068 A 
ATOM      7  C6  UNL     1      15.968  26.175  16.818  0.00  0.00    +0.143 A 
ATOM      8  C7  UNL     1      16.670  25.246  17.591  0.00  0.00    +0.023 A 
ATOM      9  O2  UNL     1      16.135  27.500  17.134  0.00  0.00    -0.451 OA
ATOM     10  C8  UNL     1      15.440  28.450  16.400  0.00  0.00    +0.184 A 
ATOM     11  C9  UNL     1      15.676  29.831  16.866  0.00  0.00    +0.066 A 
ATOM     12  C10 UNL     1      16.289  30.757  16.010  0.00  0.00    -0.047 A 
ATOM     13  C11 UNL     1      16.532  32.061  16.436  0.00  0.00    -0.057 A 
ATOM     14  C12 UNL     1      16.159  32.463  17.720  0.00  0.00    -0.016 A 
ATOM     15  C13 UNL     1      15.540  31.563  18.593  0.00  0.00    +0.162 A 
ATOM     16  O3  UNL     1      15.118  31.883  19.858  0.00  0.00    -0.491 OA
ATOM     17  C14 UNL     1      15.097  33.259  20.211  0.00  0.00    +0.079 C 
ATOM     18  C15 UNL     1      15.327  30.237  18.168  0.00  0.00    +0.172 A 
ATOM     19  O4  UNL     1      14.691  29.319  18.977  0.00  0.00    -0.491 OA
ATOM     20  C16 UNL     1      15.485  28.979  20.112  0.00  0.00    +0.079 C 
ATOM     21  C17 UNL     1      14.620  28.168  15.373  0.00  0.00    +0.208 A 
ATOM     22  O5  UNL     1      13.933  29.120  14.641  0.00  0.00    -0.501 OA
ATOM     23  C18 UNL     1      14.425  26.749  14.991  0.00  0.00    +0.234 A 
ATOM     24  O6  UNL     1      13.690  26.464  14.051  0.00  0.00    -0.283 OA
ATOM     25  H   UNL     1      14.028  30.029  14.849  0.00  0.00    +0.000 HD
ENDROOT
TORSDOF 0
ENDMDL
MODEL 7
REMARK VINA RESULT:    -3.995     18.348     20.817
REMARK INTER + INTRA:          -3.995
REMARK INTER:                  -3.995
REMARK INTRA:                   0.000
REMARK UNBOUND:                 0.000
REMARK  Name = /home/vital/Documents/PhD_2021/Malaria_codes/scripts/../data/pdbqt_ligands/ligand_359_temp.pdb
REMARK                            x       y       z     vdW  Elec       q    Type
REMARK                         _______ _______ _______ _____ _____    ______ ____
ROOT
ATOM      1  C1  UNL     1      14.832  28.587  21.037  0.00  0.00    +0.079 C 
ATOM      2  O1  UNL     1      14.187  27.572  20.278  0.00  0.00    -0.495 OA
ATOM      3  C2  UNL     1      14.352  27.613  18.922  0.00  0.00    +0.124 A 
ATOM      4  C3  UNL     1      13.690  26.594  18.225  0.00  0.00    -0.019 A 
ATOM      5  C4  UNL     1      13.771  26.514  16.834  0.00  0.00    -0.044 A 
ATOM      6  C5  UNL     1      14.522  27.461  16.137  0.00  0.00    +0.068 A 
ATOM      7  C6  UNL     1      15.183  28.477  16.821  0.00  0.00    +0.143 A 
ATOM      8  C7  UNL     1      15.100  28.556  18.214  0.00  0.00    +0.023 A 
ATOM      9  O2  UNL     1      15.935  29.433  16.187  0.00  0.00    -0.451 OA
ATOM     10  C8  UNL     1      16.026  29.397  14.803  0.00  0.00    +0.184 A 
ATOM     11  C9  UNL     1      16.829  30.502  14.244  0.00  0.00    +0.066 A 
ATOM     12  C10 UNL     1      18.011  30.217  13.547  0.00  0.00    -0.047 A 
ATOM     13  C11 UNL     1      18.790  31.247  13.024  0.00  0.00    -0.057 A 
ATOM     14  C12 UNL     1      18.397  32.578  13.182  0.00  0.00    -0.016 A 
ATOM     15  C13 UNL     1      17.219  32.892  13.866  0.00  0.00    +0.162 A 
ATOM     16  O3  UNL     1      16.745  34.167  14.041  0.00  0.00    -0.491 OA
ATOM     17  C14 UNL     1      17.361  35.202  13.286  0.00  0.00    +0.079 C 
ATOM     18  C15 UNL     1      16.452  31.848  14.422  0.00  0.00    +0.172 A 
ATOM     19  O4  UNL     1      15.266  32.100  15.078  0.00  0.00    -0.491 OA
ATOM     20  C16 UNL     1      15.482  32.789  16.308  0.00  0.00    +0.079 C 
ATOM     21  C17 UNL     1      15.441  28.469  14.027  0.00  0.00    +0.208 A 
ATOM     22  O5  UNL     1      15.539  28.435  12.647  0.00  0.00    -0.501 OA
ATOM     23  C18 UNL     1      14.632  27.409  14.675  0.00  0.00    +0.234 A 
ATOM     24  O6  UNL     1      14.096  26.545  13.990  0.00  0.00    -0.283 OA
ATOM     25  H   UNL     1      16.040  29.086  12.197  0.00  0.00    +0.000 HD
ENDROOT
TORSDOF 0
ENDMDL
MODEL 8
REMARK VINA RESULT:    -3.981     18.913     21.490
REMARK INTER + INTRA:          -3.981
REMARK INTER:                  -3.981
REMARK INTRA:                   0.000
REMARK UNBOUND:                 0.000
REMARK  Name = /home/vital/Documents/PhD_2021/Malaria_codes/scripts/../data/pdbqt_ligands/ligand_359_temp.pdb
REMARK                            x       y       z     vdW  Elec       q    Type
REMARK                         _______ _______ _______ _____ _____    ______ ____
ROOT
ATOM      1  C1  UNL     1      15.099  32.262  20.604  0.00  0.00    +0.079 C 
ATOM      2  O1  UNL     1      15.717  33.006  19.562  0.00  0.00    -0.495 OA
ATOM      3  C2  UNL     1      15.936  32.355  18.380  0.00  0.00    +0.124 A 
ATOM      4  C3  UNL     1      16.552  33.134  17.393  0.00  0.00    -0.019 A 
ATOM      5  C4  UNL     1      16.836  32.597  16.136  0.00  0.00    -0.044 A 
ATOM      6  C5  UNL     1      16.499  31.270  15.867  0.00  0.00    +0.068 A 
ATOM      7  C6  UNL     1      15.886  30.489  16.843  0.00  0.00    +0.143 A 
ATOM      8  C7  UNL     1      15.603  31.028  18.101  0.00  0.00    +0.023 A 
ATOM      9  O2  UNL     1      15.532  29.180  16.633  0.00  0.00    -0.451 OA
ATOM     10  C8  UNL     1      15.814  28.605  15.402  0.00  0.00    +0.184 A 
ATOM     11  C9  UNL     1      15.420  27.185  15.320  0.00  0.00    +0.066 A 
ATOM     12  C10 UNL     1      14.438  26.789  14.401  0.00  0.00    -0.047 A 
ATOM     13  C11 UNL     1      14.043  25.455  14.318  0.00  0.00    -0.057 A 
ATOM     14  C12 UNL     1      14.628  24.495  15.146  0.00  0.00    -0.016 A 
ATOM     15  C13 UNL     1      15.615  24.859  16.068  0.00  0.00    +0.162 A 
ATOM     16  O3  UNL     1      16.260  23.977  16.896  0.00  0.00    -0.491 OA
ATOM     17  C14 UNL     1      16.082  22.591  16.639  0.00  0.00    +0.079 C 
ATOM     18  C15 UNL     1      15.987  26.214  16.169  0.00  0.00    +0.172 A 
ATOM     19  O4  UNL     1      16.977  26.623  17.038  0.00  0.00    -0.491 OA
ATOM     20  C16 UNL     1      16.574  26.482  18.399  0.00  0.00    +0.079 C 
ATOM     21  C17 UNL     1      16.396  29.250  14.377  0.00  0.00    +0.208 A 
ATOM     22  O5  UNL     1      16.671  28.672  13.150  0.00  0.00    -0.501 OA
ATOM     23  C18 UNL     1      16.780  30.670  14.559  0.00  0.00    +0.234 A 
ATOM     24  O6  UNL     1      17.304  31.284  13.636  0.00  0.00    -0.283 OA
ATOM     25  H   UNL     1      16.445  27.777  12.992  0.00  0.00    +0.000 HD
ENDROOT
TORSDOF 0
ENDMDL
MODEL 9
REMARK VINA RESULT:    -3.907     21.258     23.246
REMARK INTER + INTRA:          -3.907
REMARK INTER:                  -3.907
REMARK INTRA:                   0.000
REMARK UNBOUND:                 0.000
REMARK  Name = /home/vital/Documents/PhD_2021/Malaria_codes/scripts/../data/pdbqt_ligands/ligand_359_temp.pdb
REMARK                            x       y       z     vdW  Elec       q    Type
REMARK                         _______ _______ _______ _____ _____    ______ ____
ROOT
ATOM      1  C1  UNL     1      22.602  24.602  18.471  0.00  0.00    +0.079 C 
ATOM      2  O1  UNL     1      21.696  23.560  18.813  0.00  0.00    -0.495 OA
ATOM      3  C2  UNL     1      20.422  23.663  18.331  0.00  0.00    +0.124 A 
ATOM      4  C3  UNL     1      19.573  22.614  18.705  0.00  0.00    -0.019 A 
ATOM      5  C4  UNL     1      18.241  22.590  18.283  0.00  0.00    -0.044 A 
ATOM      6  C5  UNL     1      17.760  23.625  17.481  0.00  0.00    +0.068 A 
ATOM      7  C6  UNL     1      18.597  24.672  17.105  0.00  0.00    +0.143 A 
ATOM      8  C7  UNL     1      19.929  24.694  17.528  0.00  0.00    +0.023 A 
ATOM      9  O2  UNL     1      18.177  25.714  16.318  0.00  0.00    -0.451 OA
ATOM     10  C8  UNL     1      16.856  25.736  15.893  0.00  0.00    +0.184 A 
ATOM     11  C9  UNL     1      16.523  26.927  15.089  0.00  0.00    +0.066 A 
ATOM     12  C10 UNL     1      16.131  26.775  13.752  0.00  0.00    -0.047 A 
ATOM     13  C11 UNL     1      15.825  27.889  12.972  0.00  0.00    -0.057 A 
ATOM     14  C12 UNL     1      15.899  29.172  13.519  0.00  0.00    -0.016 A 
ATOM     15  C13 UNL     1      16.281  29.355  14.851  0.00  0.00    +0.162 A 
ATOM     16  O3  UNL     1      16.351  30.575  15.474  0.00  0.00    -0.491 OA
ATOM     17  C14 UNL     1      15.781  31.687  14.796  0.00  0.00    +0.079 C 
ATOM     18  C15 UNL     1      16.620  28.227  15.625  0.00  0.00    +0.172 A 
ATOM     19  O4  UNL     1      16.971  28.347  16.953  0.00  0.00    -0.491 OA
ATOM     20  C16 UNL     1      18.225  29.009  17.107  0.00  0.00    +0.079 C 
ATOM     21  C17 UNL     1      15.949  24.786  16.182  0.00  0.00    +0.208 A 
ATOM     22  O5  UNL     1      14.634  24.810  15.752  0.00  0.00    -0.501 OA
ATOM     23  C18 UNL     1      16.368  23.636  17.018  0.00  0.00    +0.234 A 
ATOM     24  O6  UNL     1      15.563  22.751  17.287  0.00  0.00    -0.283 OA
ATOM     25  H   UNL     1      14.328  25.519  15.222  0.00  0.00    +0.000 HD
ENDROOT
TORSDOF 0
ENDMDL
