MODEL 1
REMARK VINA RESULT:    -3.962      0.000      0.000
REMARK INTER + INTRA:          -3.962
REMARK INTER:                  -3.962
REMARK INTRA:                   0.000
REMARK UNBOUND:                 0.000
REMARK  Name = /home/vital/Documents/PhD_2021/Malaria_codes/scripts/../data/pdbqt_ligands/ligand_233_temp.pdb
REMARK                            x       y       z     vdW  Elec       q    Type
REMARK                         _______ _______ _______ _____ _____    ______ ____
ROOT
ATOM      1  C1  UNL     1      18.928  31.333  17.499  0.00  0.00    -0.054 C 
ATOM      2  C2  UNL     1      18.628  31.677  16.050  0.00  0.00    +0.006 C 
ATOM      3  C3  UNL     1      17.311  31.169  15.646  0.00  0.00    -0.099 C 
ATOM      4  C4  UNL     1      16.235  30.742  15.319  0.00  0.00    -0.058 C 
ATOM      5  C5  UNL     1      14.918  30.205  14.931  0.00  0.00    +0.157 C 
ATOM      6  C6  UNL     1      14.579  30.645  13.509  0.00  0.00    -0.016 C 
ATOM      7  O1  UNL     1      14.946  28.770  14.920  0.00  0.00    -0.476 OA
ATOM      8  C7  UNL     1      14.739  28.068  16.076  0.00  0.00    +0.136 A 
ATOM      9  C8  UNL     1      14.684  28.659  17.347  0.00  0.00    -0.019 A 
ATOM     10  C9  UNL     1      14.421  27.890  18.485  0.00  0.00    -0.055 A 
ATOM     11  C10 UNL     1      14.201  26.523  18.367  0.00  0.00    -0.019 A 
ATOM     12  C11 UNL     1      14.262  25.923  17.115  0.00  0.00    +0.131 A 
ATOM     13  O2  UNL     1      14.017  24.574  17.089  0.00  0.00    -0.506 OA
ATOM     14  C12 UNL     1      14.560  26.675  15.963  0.00  0.00    +0.100 A 
ATOM     15  C13 UNL     1      14.667  25.945  14.665  0.00  0.00    +0.167 C 
ATOM     16  C14 UNL     1      15.571  26.451  13.573  0.00  0.00    -0.001 C 
ATOM     17  O3  UNL     1      14.035  24.893  14.529  0.00  0.00    -0.292 OA
ATOM     18  H   UNL     1      13.823  24.117  17.884  0.00  0.00    +0.000 HD
ENDROOT
TORSDOF 0
ENDMDL
MODEL 2
REMARK VINA RESULT:    -3.812      2.143      5.177
REMARK INTER + INTRA:          -3.812
REMARK INTER:                  -3.812
REMARK INTRA:                   0.000
REMARK UNBOUND:                 0.000
REMARK  Name = /home/vital/Documents/PhD_2021/Malaria_codes/scripts/../data/pdbqt_ligands/ligand_233_temp.pdb
REMARK                            x       y       z     vdW  Elec       q    Type
REMARK                         _______ _______ _______ _____ _____    ______ ____
ROOT
ATOM      1  C1  UNL     1      18.574  24.259  18.888  0.00  0.00    -0.054 C 
ATOM      2  C2  UNL     1      17.870  25.133  19.912  0.00  0.00    +0.006 C 
ATOM      3  C3  UNL     1      16.650  25.728  19.352  0.00  0.00    -0.099 C 
ATOM      4  C4  UNL     1      15.657  26.220  18.885  0.00  0.00    -0.058 C 
ATOM      5  C5  UNL     1      14.449  26.822  18.294  0.00  0.00    +0.157 C 
ATOM      6  C6  UNL     1      13.691  27.611  19.359  0.00  0.00    -0.016 C 
ATOM      7  O1  UNL     1      14.806  27.759  17.267  0.00  0.00    -0.476 OA
ATOM      8  C7  UNL     1      15.046  27.325  15.992  0.00  0.00    +0.136 A 
ATOM      9  C8  UNL     1      15.156  25.973  15.637  0.00  0.00    -0.019 A 
ATOM     10  C9  UNL     1      15.355  25.594  14.306  0.00  0.00    -0.055 A 
ATOM     11  C10 UNL     1      15.437  26.560  13.310  0.00  0.00    -0.019 A 
ATOM     12  C11 UNL     1      15.339  27.905  13.650  0.00  0.00    +0.131 A 
ATOM     13  O2  UNL     1      15.416  28.789  12.604  0.00  0.00    -0.506 OA
ATOM     14  C12 UNL     1      15.175  28.306  14.989  0.00  0.00    +0.100 A 
ATOM     15  C13 UNL     1      15.140  29.771  15.276  0.00  0.00    +0.167 C 
ATOM     16  C14 UNL     1      15.618  30.305  16.600  0.00  0.00    -0.001 C 
ATOM     17  O3  UNL     1      14.756  30.535  14.385  0.00  0.00    -0.292 OA
ATOM     18  H   UNL     1      15.526  28.472  11.729  0.00  0.00    +0.000 HD
ENDROOT
TORSDOF 0
ENDMDL
MODEL 3
REMARK VINA RESULT:    -3.642      2.292      3.462
REMARK INTER + INTRA:          -3.642
REMARK INTER:                  -3.642
REMARK INTRA:                   0.000
REMARK UNBOUND:                 0.000
REMARK  Name = /home/vital/Documents/PhD_2021/Malaria_codes/scripts/../data/pdbqt_ligands/ligand_233_temp.pdb
REMARK                            x       y       z     vdW  Elec       q    Type
REMARK                         _______ _______ _______ _____ _____    ______ ____
ROOT
ATOM      1  C1  UNL     1      15.321  32.159  14.494  0.00  0.00    -0.054 C 
ATOM      2  C2  UNL     1      15.117  31.057  13.468  0.00  0.00    +0.006 C 
ATOM      3  C3  UNL     1      14.711  29.801  14.114  0.00  0.00    -0.099 C 
ATOM      4  C4  UNL     1      14.389  28.773  14.648  0.00  0.00    -0.058 C 
ATOM      5  C5  UNL     1      14.004  27.519  15.320  0.00  0.00    +0.157 C 
ATOM      6  C6  UNL     1      13.698  26.447  14.277  0.00  0.00    -0.016 C 
ATOM      7  O1  UNL     1      15.092  27.021  16.113  0.00  0.00    -0.476 OA
ATOM      8  C7  UNL     1      15.285  27.484  17.386  0.00  0.00    +0.136 A 
ATOM      9  C8  UNL     1      14.594  28.575  17.931  0.00  0.00    -0.019 A 
ATOM     10  C9  UNL     1      14.803  28.968  19.257  0.00  0.00    -0.055 A 
ATOM     11  C10 UNL     1      15.698  28.269  20.058  0.00  0.00    -0.019 A 
ATOM     12  C11 UNL     1      16.396  27.190  19.528  0.00  0.00    +0.131 A 
ATOM     13  O2  UNL     1      17.247  26.549  20.392  0.00  0.00    -0.506 OA
ATOM     14  C12 UNL     1      16.225  26.803  18.186  0.00  0.00    +0.100 A 
ATOM     15  C13 UNL     1      17.057  25.672  17.677  0.00  0.00    +0.167 C 
ATOM     16  C14 UNL     1      17.450  25.603  16.225  0.00  0.00    -0.001 C 
ATOM     17  O3  UNL     1      17.454  24.827  18.483  0.00  0.00    -0.292 OA
ATOM     18  H   UNL     1      17.326  26.845  21.277  0.00  0.00    +0.000 HD
ENDROOT
TORSDOF 0
ENDMDL
MODEL 4
REMARK VINA RESULT:    -3.636      1.563      1.933
REMARK INTER + INTRA:          -3.636
REMARK INTER:                  -3.636
REMARK INTRA:                   0.000
REMARK UNBOUND:                 0.000
REMARK  Name = /home/vital/Documents/PhD_2021/Malaria_codes/scripts/../data/pdbqt_ligands/ligand_233_temp.pdb
REMARK                            x       y       z     vdW  Elec       q    Type
REMARK                         _______ _______ _______ _____ _____    ______ ____
ROOT
ATOM      1  C1  UNL     1      18.235  29.831  20.388  0.00  0.00    -0.054 C 
ATOM      2  C2  UNL     1      18.316  30.820  19.237  0.00  0.00    +0.006 C 
ATOM      3  C3  UNL     1      17.268  30.561  18.241  0.00  0.00    -0.099 C 
ATOM      4  C4  UNL     1      16.414  30.337  17.424  0.00  0.00    -0.058 C 
ATOM      5  C5  UNL     1      15.367  30.045  16.429  0.00  0.00    +0.157 C 
ATOM      6  C6  UNL     1      15.387  31.106  15.331  0.00  0.00    -0.016 C 
ATOM      7  O1  UNL     1      15.623  28.787  15.787  0.00  0.00    -0.476 OA
ATOM      8  C7  UNL     1      15.205  27.620  16.368  0.00  0.00    +0.136 A 
ATOM      9  C8  UNL     1      14.693  27.538  17.671  0.00  0.00    -0.019 A 
ATOM     10  C9  UNL     1      14.238  26.321  18.188  0.00  0.00    -0.055 A 
ATOM     11  C10 UNL     1      14.279  25.172  17.406  0.00  0.00    -0.019 A 
ATOM     12  C11 UNL     1      14.793  25.238  16.116  0.00  0.00    +0.131 A 
ATOM     13  O2  UNL     1      14.782  24.062  15.411  0.00  0.00    -0.506 OA
ATOM     14  C12 UNL     1      15.288  26.447  15.592  0.00  0.00    +0.100 A 
ATOM     15  C13 UNL     1      15.879  26.419  14.221  0.00  0.00    +0.167 C 
ATOM     16  C14 UNL     1      16.968  27.385  13.836  0.00  0.00    -0.001 C 
ATOM     17  O3  UNL     1      15.487  25.556  13.431  0.00  0.00    -0.292 OA
ATOM     18  H   UNL     1      14.442  23.283  15.804  0.00  0.00    +0.000 HD
ENDROOT
TORSDOF 0
ENDMDL
MODEL 5
REMARK VINA RESULT:    -3.539      2.137      3.418
REMARK INTER + INTRA:          -3.539
REMARK INTER:                  -3.539
REMARK INTRA:                   0.000
REMARK UNBOUND:                 0.000
REMARK  Name = /home/vital/Documents/PhD_2021/Malaria_codes/scripts/../data/pdbqt_ligands/ligand_233_temp.pdb
REMARK                            x       y       z     vdW  Elec       q    Type
REMARK                         _______ _______ _______ _____ _____    ______ ____
ROOT
ATOM      1  C1  UNL     1      14.822  32.275  13.919  0.00  0.00    -0.054 C 
ATOM      2  C2  UNL     1      16.311  32.305  14.217  0.00  0.00    +0.006 C 
ATOM      3  C3  UNL     1      16.873  30.948  14.243  0.00  0.00    -0.099 C 
ATOM      4  C4  UNL     1      17.326  29.834  14.273  0.00  0.00    -0.058 C 
ATOM      5  C5  UNL     1      17.864  28.463  14.315  0.00  0.00    +0.157 C 
ATOM      6  C6  UNL     1      19.377  28.506  14.509  0.00  0.00    -0.016 C 
ATOM      7  O1  UNL     1      17.328  27.749  15.439  0.00  0.00    -0.476 OA
ATOM      8  C7  UNL     1      16.114  27.124  15.343  0.00  0.00    +0.136 A 
ATOM      9  C8  UNL     1      15.238  27.285  14.260  0.00  0.00    -0.019 A 
ATOM     10  C9  UNL     1      14.032  26.580  14.200  0.00  0.00    -0.055 A 
ATOM     11  C10 UNL     1      13.690  25.696  15.217  0.00  0.00    -0.019 A 
ATOM     12  C11 UNL     1      14.544  25.534  16.301  0.00  0.00    +0.131 A 
ATOM     13  O2  UNL     1      14.136  24.633  17.251  0.00  0.00    -0.506 OA
ATOM     14  C12 UNL     1      15.745  26.262  16.395  0.00  0.00    +0.100 A 
ATOM     15  C13 UNL     1      16.577  26.075  17.621  0.00  0.00    +0.167 C 
ATOM     16  C14 UNL     1      17.450  27.191  18.133  0.00  0.00    -0.001 C 
ATOM     17  O3  UNL     1      16.493  25.005  18.230  0.00  0.00    -0.292 OA
ATOM     18  H   UNL     1      13.327  24.172  17.143  0.00  0.00    +0.000 HD
ENDROOT
TORSDOF 0
ENDMDL
MODEL 6
REMARK VINA RESULT:    -3.496      2.458      3.408
REMARK INTER + INTRA:          -3.496
REMARK INTER:                  -3.496
REMARK INTRA:                   0.000
REMARK UNBOUND:                 0.000
REMARK  Name = /home/vital/Documents/PhD_2021/Malaria_codes/scripts/../data/pdbqt_ligands/ligand_233_temp.pdb
REMARK                            x       y       z     vdW  Elec       q    Type
REMARK                         _______ _______ _______ _____ _____    ______ ____
ROOT
ATOM      1  C1  UNL     1      14.697  32.521  19.123  0.00  0.00    -0.054 C 
ATOM      2  C2  UNL     1      15.984  33.130  18.593  0.00  0.00    +0.006 C 
ATOM      3  C3  UNL     1      16.265  32.669  17.227  0.00  0.00    -0.099 C 
ATOM      4  C4  UNL     1      16.496  32.279  16.112  0.00  0.00    -0.058 C 
ATOM      5  C5  UNL     1      16.767  31.786  14.750  0.00  0.00    +0.157 C 
ATOM      6  C6  UNL     1      18.003  32.483  14.185  0.00  0.00    -0.016 C 
ATOM      7  O1  UNL     1      17.065  30.383  14.776  0.00  0.00    -0.476 OA
ATOM      8  C7  UNL     1      16.051  29.463  14.759  0.00  0.00    +0.136 A 
ATOM      9  C8  UNL     1      14.697  29.794  14.910  0.00  0.00    -0.019 A 
ATOM     10  C9  UNL     1      13.705  28.811  14.835  0.00  0.00    -0.055 A 
ATOM     11  C10 UNL     1      14.053  27.486  14.598  0.00  0.00    -0.019 A 
ATOM     12  C11 UNL     1      15.392  27.143  14.456  0.00  0.00    +0.131 A 
ATOM     13  O2  UNL     1      15.644  25.817  14.210  0.00  0.00    -0.506 OA
ATOM     14  C12 UNL     1      16.406  28.113  14.563  0.00  0.00    +0.100 A 
ATOM     15  C13 UNL     1      17.823  27.653  14.459  0.00  0.00    +0.167 C 
ATOM     16  C14 UNL     1      18.924  28.390  15.175  0.00  0.00    -0.001 C 
ATOM     17  O3  UNL     1      18.060  26.628  13.813  0.00  0.00    -0.292 OA
ATOM     18  H   UNL     1      14.934  25.210  14.147  0.00  0.00    +0.000 HD
ENDROOT
TORSDOF 0
ENDMDL
MODEL 7
REMARK VINA RESULT:    -3.371      2.534      3.826
REMARK INTER + INTRA:          -3.371
REMARK INTER:                  -3.371
REMARK INTRA:                   0.000
REMARK UNBOUND:                 0.000
REMARK  Name = /home/vital/Documents/PhD_2021/Malaria_codes/scripts/../data/pdbqt_ligands/ligand_233_temp.pdb
REMARK                            x       y       z     vdW  Elec       q    Type
REMARK                         _______ _______ _______ _____ _____    ______ ____
ROOT
ATOM      1  C1  UNL     1      20.555  27.234  19.220  0.00  0.00    -0.054 C 
ATOM      2  C2  UNL     1      19.708  28.479  19.424  0.00  0.00    +0.006 C 
ATOM      3  C3  UNL     1      18.279  28.179  19.265  0.00  0.00    -0.099 C 
ATOM      4  C4  UNL     1      17.111  27.929  19.124  0.00  0.00    -0.058 C 
ATOM      5  C5  UNL     1      15.684  27.608  18.939  0.00  0.00    +0.157 C 
ATOM      6  C6  UNL     1      14.833  28.837  19.249  0.00  0.00    -0.016 C 
ATOM      7  O1  UNL     1      15.421  27.264  17.571  0.00  0.00    -0.476 OA
ATOM      8  C7  UNL     1      15.625  25.983  17.132  0.00  0.00    +0.136 A 
ATOM      9  C8  UNL     1      16.267  24.993  17.889  0.00  0.00    -0.019 A 
ATOM     10  C9  UNL     1      16.400  23.689  17.401  0.00  0.00    -0.055 A 
ATOM     11  C10 UNL     1      15.887  23.356  16.153  0.00  0.00    -0.019 A 
ATOM     12  C11 UNL     1      15.257  24.331  15.387  0.00  0.00    +0.131 A 
ATOM     13  O2  UNL     1      14.767  23.912  14.177  0.00  0.00    -0.506 OA
ATOM     14  C12 UNL     1      15.144  25.656  15.848  0.00  0.00    +0.100 A 
ATOM     15  C13 UNL     1      14.508  26.656  14.940  0.00  0.00    +0.167 C 
ATOM     16  C14 UNL     1      14.902  28.108  15.001  0.00  0.00    -0.001 C 
ATOM     17  O3  UNL     1      13.690  26.255  14.107  0.00  0.00    -0.292 OA
ATOM     18  H   UNL     1      14.867  23.018  13.915  0.00  0.00    +0.000 HD
ENDROOT
TORSDOF 0
ENDMDL
MODEL 8
REMARK VINA RESULT:    -3.310      2.210      2.376
REMARK INTER + INTRA:          -3.310
REMARK INTER:                  -3.310
REMARK INTRA:                   0.000
REMARK UNBOUND:                 0.000
REMARK  Name = /home/vital/Documents/PhD_2021/Malaria_codes/scripts/../data/pdbqt_ligands/ligand_233_temp.pdb
REMARK                            x       y       z     vdW  Elec       q    Type
REMARK                         _______ _______ _______ _____ _____    ______ ____
ROOT
ATOM      1  C1  UNL     1      20.511  29.162  13.573  0.00  0.00    -0.054 C 
ATOM      2  C2  UNL     1      19.332  29.646  12.746  0.00  0.00    +0.006 C 
ATOM      3  C3  UNL     1      18.085  29.595  13.520  0.00  0.00    -0.099 C 
ATOM      4  C4  UNL     1      17.065  29.542  14.155  0.00  0.00    -0.058 C 
ATOM      5  C5  UNL     1      15.823  29.462  14.945  0.00  0.00    +0.157 C 
ATOM      6  C6  UNL     1      14.663  30.049  14.145  0.00  0.00    -0.016 C 
ATOM      7  O1  UNL     1      15.486  28.093  15.212  0.00  0.00    -0.476 OA
ATOM      8  C7  UNL     1      16.044  27.442  16.278  0.00  0.00    +0.136 A 
ATOM      9  C8  UNL     1      17.094  27.963  17.048  0.00  0.00    -0.019 A 
ATOM     10  C9  UNL     1      17.587  27.267  18.156  0.00  0.00    -0.055 A 
ATOM     11  C10 UNL     1      17.032  26.045  18.515  0.00  0.00    -0.019 A 
ATOM     12  C11 UNL     1      15.997  25.511  17.755  0.00  0.00    +0.131 A 
ATOM     13  O2  UNL     1      15.498  24.309  18.189  0.00  0.00    -0.506 OA
ATOM     14  C12 UNL     1      15.511  26.181  16.616  0.00  0.00    +0.100 A 
ATOM     15  C13 UNL     1      14.440  25.512  15.820  0.00  0.00    +0.167 C 
ATOM     16  C14 UNL     1      14.319  25.756  14.339  0.00  0.00    -0.001 C 
ATOM     17  O3  UNL     1      13.690  24.719  16.396  0.00  0.00    -0.292 OA
ATOM     18  H   UNL     1      15.856  23.902  18.953  0.00  0.00    +0.000 HD
ENDROOT
TORSDOF 0
ENDMDL
MODEL 9
REMARK VINA RESULT:    -1.886      1.467      1.650
REMARK INTER + INTRA:          -1.886
REMARK INTER:                  -1.886
REMARK INTRA:                   0.000
REMARK UNBOUND:                 0.000
REMARK  Name = /home/vital/Documents/PhD_2021/Malaria_codes/scripts/../data/pdbqt_ligands/ligand_233_temp.pdb
REMARK                            x       y       z     vdW  Elec       q    Type
REMARK                         _______ _______ _______ _____ _____    ______ ____
ROOT
ATOM      1  C1  UNL     1      20.563  30.894  15.886  0.00  0.00    -0.054 C 
ATOM      2  C2  UNL     1      20.247  31.010  14.404  0.00  0.00    +0.006 C 
ATOM      3  C3  UNL     1      18.806  30.875  14.158  0.00  0.00    -0.099 C 
ATOM      4  C4  UNL     1      17.625  30.753  13.961  0.00  0.00    -0.058 C 
ATOM      5  C5  UNL     1      16.178  30.593  13.736  0.00  0.00    +0.157 C 
ATOM      6  C6  UNL     1      15.856  30.818  12.261  0.00  0.00    -0.016 C 
ATOM      7  O1  UNL     1      15.768  29.253  14.046  0.00  0.00    -0.476 OA
ATOM      8  C7  UNL     1      15.467  28.906  15.335  0.00  0.00    +0.136 A 
ATOM      9  C8  UNL     1      15.713  29.730  16.442  0.00  0.00    -0.019 A 
ATOM     10  C9  UNL     1      15.337  29.335  17.729  0.00  0.00    -0.055 A 
ATOM     11  C10 UNL     1      14.702  28.114  17.926  0.00  0.00    -0.019 A 
ATOM     12  C11 UNL     1      14.460  27.283  16.839  0.00  0.00    +0.131 A 
ATOM     13  O2  UNL     1      13.816  26.105  17.122  0.00  0.00    -0.506 OA
ATOM     14  C12 UNL     1      14.863  27.649  15.541  0.00  0.00    +0.100 A 
ATOM     15  C13 UNL     1      14.621  26.673  14.437  0.00  0.00    +0.167 C 
ATOM     16  C14 UNL     1      15.530  26.631  13.237  0.00  0.00    -0.001 C 
ATOM     17  O3  UNL     1      13.690  25.872  14.556  0.00  0.00    -0.292 OA
ATOM     18  H   UNL     1      13.568  25.907  18.003  0.00  0.00    +0.000 HD
ENDROOT
TORSDOF 0
ENDMDL
