MODEL 1
REMARK VINA RESULT:    -4.632      0.000      0.000
REMARK INTER + INTRA:          -4.632
REMARK INTER:                  -4.632
REMARK INTRA:                   0.000
REMARK UNBOUND:                 0.000
REMARK  Name = /home/vital/Documents/PhD_2021/Malaria_codes/scripts/../data/pdbqt_ligands/ligand_218_temp.pdb
REMARK                            x       y       z     vdW  Elec       q    Type
REMARK                         _______ _______ _______ _____ _____    ______ ____
ROOT
ATOM      1  C   UNL     1      18.407  37.350  16.258  0.00  0.00    -0.052 C 
ATOM      2  C   UNL     1      17.479  36.670  17.260  0.00  0.00    -0.004 C 
ATOM      3  N   UNL     1      17.116  35.301  16.864  0.00  0.00    -0.302 N 
ATOM      4  C   UNL     1      16.351  35.266  15.608  0.00  0.00    +0.000 C 
ATOM      5  C   UNL     1      15.511  33.991  15.416  0.00  0.00    -0.024 C 
ATOM      6  C   UNL     1      16.161  32.787  16.116  0.00  0.00    +0.013 C 
ATOM      7  N   UNL     1      15.451  31.492  15.911  0.00  0.00    -0.299 N 
ATOM      8  C   UNL     1      15.280  31.122  14.503  0.00  0.00    -0.000 C 
ATOM      9  C   UNL     1      14.292  29.954  14.374  0.00  0.00    -0.029 C 
ATOM     10  C   UNL     1      14.443  28.901  15.483  0.00  0.00    +0.038 C 
ATOM     11  C   UNL     1      14.173  27.486  14.982  0.00  0.00    +0.216 C 
ATOM     12  O   UNL     1      14.112  27.178  13.797  0.00  0.00    -0.276 OA
ATOM     13  N   UNL     1      14.023  26.563  15.996  0.00  0.00    -0.315 N 
ATOM     14  C   UNL     1      13.834  25.149  15.728  0.00  0.00    +0.016 C 
ATOM     15  C   UNL     1      15.120  24.443  15.280  0.00  0.00    -0.009 C 
ATOM     16  C   UNL     1      16.224  24.517  16.306  0.00  0.00    -0.008 A 
ATOM     17  C   UNL     1      17.333  25.349  16.104  0.00  0.00    -0.021 A 
ATOM     18  C   UNL     1      18.334  25.420  17.070  0.00  0.00    +0.124 A 
ATOM     19  F   UNL     1      19.385  26.226  16.872  0.00  0.00    -0.205 F 
ATOM     20  C   UNL     1      18.258  24.671  18.240  0.00  0.00    -0.024 A 
ATOM     21  C   UNL     1      17.160  23.839  18.449  0.00  0.00    -0.023 A 
ATOM     22  C   UNL     1      16.156  23.768  17.486  0.00  0.00    +0.127 A 
ATOM     23  F   UNL     1      15.103  22.970  17.707  0.00  0.00    -0.205 F 
ATOM     24  C   UNL     1      15.837  28.991  16.101  0.00  0.00    -0.029 C 
ATOM     25  C   UNL     1      16.112  30.395  16.652  0.00  0.00    -0.000 C 
ATOM     26  C   UNL     1      16.269  33.120  17.628  0.00  0.00    -0.024 C 
ATOM     27  C   UNL     1      16.388  34.618  17.929  0.00  0.00    +0.000 C 
ATOM     28  H   UNL     1      17.991  34.803  16.699  0.00  0.00    +0.000 HD
ATOM     29  H   UNL     1      14.514  31.639  16.285  0.00  0.00    +0.000 HD
ATOM     30  H   UNL     1      14.044  26.873  16.931  0.00  0.00    +0.000 HD
ENDROOT
TORSDOF 0
ENDMDL
MODEL 2
REMARK VINA RESULT:    -4.620     19.511     22.388
REMARK INTER + INTRA:          -4.620
REMARK INTER:                  -4.620
REMARK INTRA:                   0.000
REMARK UNBOUND:                 0.000
REMARK  Name = /home/vital/Documents/PhD_2021/Malaria_codes/scripts/../data/pdbqt_ligands/ligand_218_temp.pdb
REMARK                            x       y       z     vdW  Elec       q    Type
REMARK                         _______ _______ _______ _____ _____    ______ ____
ROOT
ATOM      1  C   UNL     1      15.847  46.601  22.439  0.00  0.00    -0.052 C 
ATOM      2  C   UNL     1      15.006  47.357  23.463  0.00  0.00    -0.004 C 
ATOM      3  N   UNL     1      15.008  46.718  24.787  0.00  0.00    -0.302 N 
ATOM      4  C   UNL     1      14.399  45.379  24.763  0.00  0.00    +0.000 C 
ATOM      5  C   UNL     1      13.897  44.889  26.133  0.00  0.00    -0.024 C 
ATOM      6  C   UNL     1      14.734  45.485  27.277  0.00  0.00    +0.013 C 
ATOM      7  N   UNL     1      14.364  44.996  28.636  0.00  0.00    -0.299 N 
ATOM      8  C   UNL     1      14.422  43.539  28.783  0.00  0.00    -0.000 C 
ATOM      9  C   UNL     1      13.746  43.107  30.092  0.00  0.00    -0.029 C 
ATOM     10  C   UNL     1      14.025  44.058  31.266  0.00  0.00    +0.038 C 
ATOM     11  C   UNL     1      14.138  43.322  32.597  0.00  0.00    +0.216 C 
ATOM     12  O   UNL     1      14.266  42.107  32.700  0.00  0.00    -0.276 OA
ATOM     13  N   UNL     1      14.104  44.159  33.693  0.00  0.00    -0.315 N 
ATOM     14  C   UNL     1      14.273  43.661  35.046  0.00  0.00    +0.016 C 
ATOM     15  C   UNL     1      15.724  43.292  35.377  0.00  0.00    -0.009 C 
ATOM     16  C   UNL     1      16.676  44.456  35.252  0.00  0.00    -0.008 A 
ATOM     17  C   UNL     1      17.578  44.531  34.183  0.00  0.00    -0.021 A 
ATOM     18  C   UNL     1      18.435  45.623  34.073  0.00  0.00    +0.124 A 
ATOM     19  F   UNL     1      19.288  45.689  33.042  0.00  0.00    -0.205 F 
ATOM     20  C   UNL     1      18.419  46.648  35.012  0.00  0.00    -0.024 A 
ATOM     21  C   UNL     1      17.527  46.582  36.081  0.00  0.00    -0.023 A 
ATOM     22  C   UNL     1      16.665  45.493  36.192  0.00  0.00    +0.127 A 
ATOM     23  F   UNL     1      15.807  45.450  37.220  0.00  0.00    -0.205 F 
ATOM     24  C   UNL     1      15.294  44.865  30.994  0.00  0.00    -0.029 C 
ATOM     25  C   UNL     1      15.183  45.649  29.681  0.00  0.00    -0.000 C 
ATOM     26  C   UNL     1      14.613  47.030  27.197  0.00  0.00    -0.024 C 
ATOM     27  C   UNL     1      14.354  47.563  25.783  0.00  0.00    +0.000 C 
ATOM     28  H   UNL     1      15.985  46.601  25.054  0.00  0.00    +0.000 HD
ATOM     29  H   UNL     1      13.386  45.259  28.757  0.00  0.00    +0.000 HD
ATOM     30  H   UNL     1      13.962  45.123  33.553  0.00  0.00    +0.000 HD
ENDROOT
TORSDOF 0
ENDMDL
MODEL 3
REMARK VINA RESULT:    -4.571      3.935      8.783
REMARK INTER + INTRA:          -4.571
REMARK INTER:                  -4.571
REMARK INTRA:                   0.000
REMARK UNBOUND:                 0.000
REMARK  Name = /home/vital/Documents/PhD_2021/Malaria_codes/scripts/../data/pdbqt_ligands/ligand_218_temp.pdb
REMARK                            x       y       z     vdW  Elec       q    Type
REMARK                         _______ _______ _______ _____ _____    ______ ____
ROOT
ATOM      1  C   UNL     1      22.973  23.178  23.782  0.00  0.00    -0.052 C 
ATOM      2  C   UNL     1      23.292  23.453  22.315  0.00  0.00    -0.004 C 
ATOM      3  N   UNL     1      22.093  23.737  21.513  0.00  0.00    -0.302 N 
ATOM      4  C   UNL     1      21.174  22.590  21.456  0.00  0.00    +0.000 C 
ATOM      5  C   UNL     1      20.208  22.614  20.259  0.00  0.00    -0.024 C 
ATOM      6  C   UNL     1      19.886  24.056  19.833  0.00  0.00    +0.013 C 
ATOM      7  N   UNL     1      18.892  24.170  18.729  0.00  0.00    -0.299 N 
ATOM      8  C   UNL     1      17.610  23.516  19.009  0.00  0.00    -0.000 C 
ATOM      9  C   UNL     1      16.769  23.418  17.728  0.00  0.00    -0.029 C 
ATOM     10  C   UNL     1      16.872  24.663  16.834  0.00  0.00    +0.038 C 
ATOM     11  C   UNL     1      15.560  24.979  16.122  0.00  0.00    +0.216 C 
ATOM     12  O   UNL     1      14.481  24.481  16.422  0.00  0.00    -0.276 OA
ATOM     13  N   UNL     1      15.693  25.905  15.109  0.00  0.00    -0.315 N 
ATOM     14  C   UNL     1      14.550  26.395  14.360  0.00  0.00    +0.016 C 
ATOM     15  C   UNL     1      13.691  27.389  15.152  0.00  0.00    -0.009 C 
ATOM     16  C   UNL     1      14.453  28.619  15.581  0.00  0.00    -0.008 A 
ATOM     17  C   UNL     1      14.819  28.803  16.921  0.00  0.00    -0.021 A 
ATOM     18  C   UNL     1      15.538  29.935  17.295  0.00  0.00    +0.124 A 
ATOM     19  F   UNL     1      15.892  30.096  18.577  0.00  0.00    -0.205 F 
ATOM     20  C   UNL     1      15.900  30.899  16.361  0.00  0.00    -0.024 A 
ATOM     21  C   UNL     1      15.539  30.727  15.026  0.00  0.00    -0.023 A 
ATOM     22  C   UNL     1      14.822  29.594  14.647  0.00  0.00    +0.127 A 
ATOM     23  F   UNL     1      14.491  29.439  13.358  0.00  0.00    -0.205 F 
ATOM     24  C   UNL     1      17.331  25.863  17.661  0.00  0.00    -0.029 C 
ATOM     25  C   UNL     1      18.672  25.583  18.349  0.00  0.00    -0.000 C 
ATOM     26  C   UNL     1      21.222  24.743  19.443  0.00  0.00    -0.024 C 
ATOM     27  C   UNL     1      22.449  24.179  20.168  0.00  0.00    +0.000 C 
ATOM     28  H   UNL     1      21.600  24.496  21.984  0.00  0.00    +0.000 HD
ATOM     29  H   UNL     1      19.306  23.668  17.944  0.00  0.00    +0.000 HD
ATOM     30  H   UNL     1      16.590  26.244  14.887  0.00  0.00    +0.000 HD
ENDROOT
TORSDOF 0
ENDMDL
MODEL 4
REMARK VINA RESULT:    -4.430      3.285      4.526
REMARK INTER + INTRA:          -4.430
REMARK INTER:                  -4.430
REMARK INTRA:                   0.000
REMARK UNBOUND:                 0.000
REMARK  Name = /home/vital/Documents/PhD_2021/Malaria_codes/scripts/../data/pdbqt_ligands/ligand_218_temp.pdb
REMARK                            x       y       z     vdW  Elec       q    Type
REMARK                         _______ _______ _______ _____ _____    ______ ____
ROOT
ATOM      1  C   UNL     1      15.965  38.629  20.454  0.00  0.00    -0.052 C 
ATOM      2  C   UNL     1      17.117  37.635  20.337  0.00  0.00    -0.004 C 
ATOM      3  N   UNL     1      16.659  36.252  20.139  0.00  0.00    -0.302 N 
ATOM      4  C   UNL     1      15.887  35.749  21.285  0.00  0.00    +0.000 C 
ATOM      5  C   UNL     1      15.836  34.214  21.388  0.00  0.00    -0.024 C 
ATOM      6  C   UNL     1      15.928  33.561  19.999  0.00  0.00    +0.013 C 
ATOM      7  N   UNL     1      15.805  32.076  20.002  0.00  0.00    -0.299 N 
ATOM      8  C   UNL     1      14.572  31.580  20.622  0.00  0.00    -0.000 C 
ATOM      9  C   UNL     1      14.663  30.065  20.855  0.00  0.00    -0.029 C 
ATOM     10  C   UNL     1      15.362  29.313  19.712  0.00  0.00    +0.038 C 
ATOM     11  C   UNL     1      14.763  27.931  19.473  0.00  0.00    +0.216 C 
ATOM     12  O   UNL     1      13.690  27.559  19.936  0.00  0.00    -0.276 OA
ATOM     13  N   UNL     1      15.537  27.129  18.661  0.00  0.00    -0.315 N 
ATOM     14  C   UNL     1      15.106  25.804  18.252  0.00  0.00    +0.016 C 
ATOM     15  C   UNL     1      14.011  25.830  17.179  0.00  0.00    -0.009 C 
ATOM     16  C   UNL     1      14.441  26.526  15.910  0.00  0.00    -0.008 A 
ATOM     17  C   UNL     1      13.941  27.794  15.586  0.00  0.00    -0.021 A 
ATOM     18  C   UNL     1      14.363  28.429  14.421  0.00  0.00    +0.124 A 
ATOM     19  F   UNL     1      13.887  29.645  14.124  0.00  0.00    -0.205 F 
ATOM     20  C   UNL     1      15.275  27.825  13.561  0.00  0.00    -0.024 A 
ATOM     21  C   UNL     1      15.776  26.563  13.874  0.00  0.00    -0.023 A 
ATOM     22  C   UNL     1      15.358  25.926  15.041  0.00  0.00    +0.127 A 
ATOM     23  F   UNL     1      15.858  24.717  15.332  0.00  0.00    -0.205 F 
ATOM     24  C   UNL     1      15.310  30.144  18.431  0.00  0.00    -0.029 C 
ATOM     25  C   UNL     1      15.949  31.523  18.638  0.00  0.00    -0.000 C 
ATOM     26  C   UNL     1      17.272  33.999  19.359  0.00  0.00    -0.024 C 
ATOM     27  C   UNL     1      17.779  35.362  19.843  0.00  0.00    +0.000 C 
ATOM     28  H   UNL     1      16.033  36.263  19.334  0.00  0.00    +0.000 HD
ATOM     29  H   UNL     1      16.573  31.745  20.586  0.00  0.00    +0.000 HD
ATOM     30  H   UNL     1      16.408  27.465  18.348  0.00  0.00    +0.000 HD
ENDROOT
TORSDOF 0
ENDMDL
MODEL 5
REMARK VINA RESULT:    -4.391      4.403      8.891
REMARK INTER + INTRA:          -4.391
REMARK INTER:                  -4.391
REMARK INTRA:                   0.000
REMARK UNBOUND:                 0.000
REMARK  Name = /home/vital/Documents/PhD_2021/Malaria_codes/scripts/../data/pdbqt_ligands/ligand_218_temp.pdb
REMARK                            x       y       z     vdW  Elec       q    Type
REMARK                         _______ _______ _______ _____ _____    ______ ____
ROOT
ATOM      1  C   UNL     1      25.267  23.716  22.419  0.00  0.00    -0.052 C 
ATOM      2  C   UNL     1      25.176  23.908  20.908  0.00  0.00    -0.004 C 
ATOM      3  N   UNL     1      23.789  24.001  20.427  0.00  0.00    -0.302 N 
ATOM      4  C   UNL     1      23.032  22.762  20.663  0.00  0.00    +0.000 C 
ATOM      5  C   UNL     1      21.803  22.591  19.753  0.00  0.00    -0.024 C 
ATOM      6  C   UNL     1      21.213  23.954  19.355  0.00  0.00    +0.013 C 
ATOM      7  N   UNL     1      19.969  23.877  18.538  0.00  0.00    -0.299 N 
ATOM      8  C   UNL     1      18.886  23.114  19.167  0.00  0.00    -0.000 C 
ATOM      9  C   UNL     1      17.771  22.830  18.151  0.00  0.00    -0.029 C 
ATOM     10  C   UNL     1      17.496  24.006  17.201  0.00  0.00    +0.038 C 
ATOM     11  C   UNL     1      16.020  24.125  16.835  0.00  0.00    +0.216 C 
ATOM     12  O   UNL     1      15.119  23.540  17.424  0.00  0.00    -0.276 OA
ATOM     13  N   UNL     1      15.784  24.978  15.777  0.00  0.00    -0.315 N 
ATOM     14  C   UNL     1      14.439  25.286  15.323  0.00  0.00    +0.016 C 
ATOM     15  C   UNL     1      13.690  26.242  16.259  0.00  0.00    -0.009 C 
ATOM     16  C   UNL     1      14.379  27.575  16.419  0.00  0.00    -0.008 A 
ATOM     17  C   UNL     1      15.042  27.900  17.611  0.00  0.00    -0.021 A 
ATOM     18  C   UNL     1      15.688  29.127  17.733  0.00  0.00    +0.124 A 
ATOM     19  F   UNL     1      16.327  29.423  18.872  0.00  0.00    -0.205 F 
ATOM     20  C   UNL     1      15.686  30.049  16.692  0.00  0.00    -0.024 A 
ATOM     21  C   UNL     1      15.028  29.736  15.504  0.00  0.00    -0.023 A 
ATOM     22  C   UNL     1      14.383  28.508  15.376  0.00  0.00    +0.127 A 
ATOM     23  F   UNL     1      13.763  28.220  14.224  0.00  0.00    -0.205 F 
ATOM     24  C   UNL     1      17.997  25.308  17.824  0.00  0.00    -0.029 C 
ATOM     25  C   UNL     1      19.491  25.225  18.158  0.00  0.00    -0.000 C 
ATOM     26  C   UNL     1      22.315  24.746  18.603  0.00  0.00    -0.024 C 
ATOM     27  C   UNL     1      23.743  24.372  19.016  0.00  0.00    +0.000 C 
ATOM     28  H   UNL     1      23.340  24.738  20.971  0.00  0.00    +0.000 HD
ATOM     29  H   UNL     1      20.232  23.362  17.698  0.00  0.00    +0.000 HD
ATOM     30  H   UNL     1      16.549  25.392  15.317  0.00  0.00    +0.000 HD
ENDROOT
TORSDOF 0
ENDMDL
MODEL 6
REMARK VINA RESULT:    -4.154      3.078      5.177
REMARK INTER + INTRA:          -4.154
REMARK INTER:                  -4.154
REMARK INTRA:                   0.000
REMARK UNBOUND:                 0.000
REMARK  Name = /home/vital/Documents/PhD_2021/Malaria_codes/scripts/../data/pdbqt_ligands/ligand_218_temp.pdb
REMARK                            x       y       z     vdW  Elec       q    Type
REMARK                         _______ _______ _______ _____ _____    ______ ____
ROOT
ATOM      1  C   UNL     1      15.685  41.598  15.201  0.00  0.00    -0.052 C 
ATOM      2  C   UNL     1      16.930  40.732  15.375  0.00  0.00    -0.004 C 
ATOM      3  N   UNL     1      16.613  39.347  15.754  0.00  0.00    -0.302 N 
ATOM      4  C   UNL     1      15.950  39.263  17.063  0.00  0.00    +0.000 C 
ATOM      5  C   UNL     1      16.067  37.887  17.743  0.00  0.00    -0.024 C 
ATOM      6  C   UNL     1      16.166  36.760  16.702  0.00  0.00    +0.013 C 
ATOM      7  N   UNL     1      16.201  35.386  17.277  0.00  0.00    -0.299 N 
ATOM      8  C   UNL     1      15.057  35.068  18.137  0.00  0.00    -0.000 C 
ATOM      9  C   UNL     1      15.318  33.772  18.918  0.00  0.00    -0.029 C 
ATOM     10  C   UNL     1      16.042  32.697  18.092  0.00  0.00    +0.038 C 
ATOM     11  C   UNL     1      15.583  31.286  18.444  0.00  0.00    +0.216 C 
ATOM     12  O   UNL     1      14.577  31.035  19.098  0.00  0.00    -0.276 OA
ATOM     13  N   UNL     1      16.401  30.299  17.934  0.00  0.00    -0.315 N 
ATOM     14  C   UNL     1      16.095  28.888  18.094  0.00  0.00    +0.016 C 
ATOM     15  C   UNL     1      14.957  28.411  17.184  0.00  0.00    -0.009 C 
ATOM     16  C   UNL     1      15.254  28.597  15.716  0.00  0.00    -0.008 A 
ATOM     17  C   UNL     1      14.608  29.598  14.978  0.00  0.00    -0.021 A 
ATOM     18  C   UNL     1      14.909  29.769  13.629  0.00  0.00    +0.124 A 
ATOM     19  F   UNL     1      14.294  30.734  12.934  0.00  0.00    -0.205 F 
ATOM     20  C   UNL     1      15.841  28.957  12.991  0.00  0.00    -0.024 A 
ATOM     21  C   UNL     1      16.487  27.957  13.716  0.00  0.00    -0.023 A 
ATOM     22  C   UNL     1      16.190  27.786  15.067  0.00  0.00    +0.127 A 
ATOM     23  F   UNL     1      16.827  26.827  15.752  0.00  0.00    -0.205 F 
ATOM     24  C   UNL     1      15.845  32.965  16.600  0.00  0.00    -0.029 C 
ATOM     25  C   UNL     1      16.343  34.364  16.217  0.00  0.00    -0.000 C 
ATOM     26  C   UNL     1      17.426  37.025  15.836  0.00  0.00    -0.024 C 
ATOM     27  C   UNL     1      17.807  38.506  15.726  0.00  0.00    +0.000 C 
ATOM     28  H   UNL     1      15.955  38.997  15.058  0.00  0.00    +0.000 HD
ATOM     29  H   UNL     1      17.025  35.368  17.878  0.00  0.00    +0.000 HD
ATOM     30  H   UNL     1      17.216  30.558  17.448  0.00  0.00    +0.000 HD
ENDROOT
TORSDOF 0
ENDMDL
MODEL 7
REMARK VINA RESULT:    -4.113      3.883      8.791
REMARK INTER + INTRA:          -4.113
REMARK INTER:                  -4.113
REMARK INTRA:                   0.000
REMARK UNBOUND:                 0.000
REMARK  Name = /home/vital/Documents/PhD_2021/Malaria_codes/scripts/../data/pdbqt_ligands/ligand_218_temp.pdb
REMARK                            x       y       z     vdW  Elec       q    Type
REMARK                         _______ _______ _______ _____ _____    ______ ____
ROOT
ATOM      1  C   UNL     1      24.119  22.989  22.002  0.00  0.00    -0.052 C 
ATOM      2  C   UNL     1      24.146  23.107  20.481  0.00  0.00    -0.004 C 
ATOM      3  N   UNL     1      22.862  23.552  19.920  0.00  0.00    -0.302 N 
ATOM      4  C   UNL     1      21.778  22.591  20.172  0.00  0.00    +0.000 C 
ATOM      5  C   UNL     1      20.588  22.714  19.204  0.00  0.00    -0.024 C 
ATOM      6  C   UNL     1      20.421  24.160  18.709  0.00  0.00    +0.013 C 
ATOM      7  N   UNL     1      19.239  24.382  17.829  0.00  0.00    -0.299 N 
ATOM      8  C   UNL     1      17.962  23.991  18.433  0.00  0.00    -0.000 C 
ATOM      9  C   UNL     1      16.854  23.967  17.372  0.00  0.00    -0.029 C 
ATOM     10  C   UNL     1      16.959  25.112  16.353  0.00  0.00    +0.038 C 
ATOM     11  C   UNL     1      15.592  25.615  15.899  0.00  0.00    +0.216 C 
ATOM     12  O   UNL     1      14.539  25.342  16.465  0.00  0.00    -0.276 OA
ATOM     13  N   UNL     1      15.647  26.434  14.791  0.00  0.00    -0.315 N 
ATOM     14  C   UNL     1      14.463  27.075  14.249  0.00  0.00    +0.016 C 
ATOM     15  C   UNL     1      13.976  28.258  15.095  0.00  0.00    -0.009 C 
ATOM     16  C   UNL     1      15.005  29.354  15.229  0.00  0.00    -0.008 A 
ATOM     17  C   UNL     1      15.684  29.553  16.439  0.00  0.00    -0.021 A 
ATOM     18  C   UNL     1      16.644  30.557  16.538  0.00  0.00    +0.124 A 
ATOM     19  F   UNL     1      17.294  30.733  17.696  0.00  0.00    -0.205 F 
ATOM     20  C   UNL     1      16.943  31.377  15.456  0.00  0.00    -0.024 A 
ATOM     21  C   UNL     1      16.272  31.188  14.249  0.00  0.00    -0.023 A 
ATOM     22  C   UNL     1      15.313  30.183  14.145  0.00  0.00    +0.127 A 
ATOM     23  F   UNL     1      14.684  30.009  12.975  0.00  0.00    -0.205 F 
ATOM     24  C   UNL     1      17.780  26.259  16.939  0.00  0.00    -0.029 C 
ATOM     25  C   UNL     1      19.176  25.784  17.360  0.00  0.00    -0.000 C 
ATOM     26  C   UNL     1      21.731  24.565  17.983  0.00  0.00    -0.024 C 
ATOM     27  C   UNL     1      22.979  23.835  18.492  0.00  0.00    +0.000 C 
ATOM     28  H   UNL     1      22.617  24.417  20.402  0.00  0.00    +0.000 HD
ATOM     29  H   UNL     1      19.381  23.763  17.031  0.00  0.00    +0.000 HD
ATOM     30  H   UNL     1      16.516  26.589  14.354  0.00  0.00    +0.000 HD
ENDROOT
TORSDOF 0
ENDMDL
MODEL 8
REMARK VINA RESULT:    -4.096      2.532      3.247
REMARK INTER + INTRA:          -4.096
REMARK INTER:                  -4.096
REMARK INTRA:                   0.000
REMARK UNBOUND:                 0.000
REMARK  Name = /home/vital/Documents/PhD_2021/Malaria_codes/scripts/../data/pdbqt_ligands/ligand_218_temp.pdb
REMARK                            x       y       z     vdW  Elec       q    Type
REMARK                         _______ _______ _______ _____ _____    ______ ____
ROOT
ATOM      1  C   UNL     1      17.175  39.036  19.236  0.00  0.00    -0.052 C 
ATOM      2  C   UNL     1      15.932  38.537  18.507  0.00  0.00    -0.004 C 
ATOM      3  N   UNL     1      16.122  37.214  17.894  0.00  0.00    -0.302 N 
ATOM      4  C   UNL     1      17.154  37.227  16.846  0.00  0.00    +0.000 C 
ATOM      5  C   UNL     1      17.041  36.072  15.835  0.00  0.00    -0.024 C 
ATOM      6  C   UNL     1      16.423  34.823  16.485  0.00  0.00    +0.013 C 
ATOM      7  N   UNL     1      16.353  33.630  15.594  0.00  0.00    -0.299 N 
ATOM      8  C   UNL     1      17.646  33.222  15.038  0.00  0.00    -0.000 C 
ATOM      9  C   UNL     1      17.445  32.196  13.914  0.00  0.00    -0.029 C 
ATOM     10  C   UNL     1      16.325  31.185  14.203  0.00  0.00    +0.038 C 
ATOM     11  C   UNL     1      16.635  29.798  13.648  0.00  0.00    +0.216 C 
ATOM     12  O   UNL     1      17.744  29.448  13.261  0.00  0.00    -0.276 OA
ATOM     13  N   UNL     1      15.546  28.953  13.640  0.00  0.00    -0.315 N 
ATOM     14  C   UNL     1      15.650  27.567  13.220  0.00  0.00    +0.016 C 
ATOM     15  C   UNL     1      16.334  26.672  14.261  0.00  0.00    -0.009 C 
ATOM     16  C   UNL     1      15.608  26.640  15.584  0.00  0.00    -0.008 A 
ATOM     17  C   UNL     1      16.133  27.303  16.702  0.00  0.00    -0.021 A 
ATOM     18  C   UNL     1      15.440  27.279  17.910  0.00  0.00    +0.124 A 
ATOM     19  F   UNL     1      15.944  27.923  18.970  0.00  0.00    -0.205 F 
ATOM     20  C   UNL     1      14.231  26.603  18.034  0.00  0.00    -0.024 A 
ATOM     21  C   UNL     1      13.703  25.939  16.928  0.00  0.00    -0.023 A 
ATOM     22  C   UNL     1      14.391  25.963  15.717  0.00  0.00    +0.127 A 
ATOM     23  F   UNL     1      13.865  25.329  14.661  0.00  0.00    -0.205 F 
ATOM     24  C   UNL     1      16.065  31.111  15.707  0.00  0.00    -0.029 C 
ATOM     25  C   UNL     1      15.706  32.488  16.277  0.00  0.00    -0.000 C 
ATOM     26  C   UNL     1      15.011  35.208  17.001  0.00  0.00    -0.024 C 
ATOM     27  C   UNL     1      14.864  36.687  17.372  0.00  0.00    +0.000 C 
ATOM     28  H   UNL     1      16.451  36.594  18.634  0.00  0.00    +0.000 HD
ATOM     29  H   UNL     1      15.779  33.921  14.803  0.00  0.00    +0.000 HD
ATOM     30  H   UNL     1      14.670  29.300  13.928  0.00  0.00    +0.000 HD
ENDROOT
TORSDOF 0
ENDMDL
MODEL 9
REMARK VINA RESULT:    -4.081      2.780      4.096
REMARK INTER + INTRA:          -4.081
REMARK INTER:                  -4.081
REMARK INTRA:                   0.000
REMARK UNBOUND:                 0.000
REMARK  Name = /home/vital/Documents/PhD_2021/Malaria_codes/scripts/../data/pdbqt_ligands/ligand_218_temp.pdb
REMARK                            x       y       z     vdW  Elec       q    Type
REMARK                         _______ _______ _______ _____ _____    ______ ____
ROOT
ATOM      1  C   UNL     1      16.139  39.555  17.152  0.00  0.00    -0.052 C 
ATOM      2  C   UNL     1      17.313  38.580  17.157  0.00  0.00    -0.004 C 
ATOM      3  N   UNL     1      16.903  37.193  17.419  0.00  0.00    -0.302 N 
ATOM      4  C   UNL     1      16.313  37.027  18.755  0.00  0.00    +0.000 C 
ATOM      5  C   UNL     1      16.352  35.584  19.289  0.00  0.00    -0.024 C 
ATOM      6  C   UNL     1      16.293  34.566  18.138  0.00  0.00    +0.013 C 
ATOM      7  N   UNL     1      16.244  33.141  18.573  0.00  0.00    -0.299 N 
ATOM      8  C   UNL     1      15.130  32.828  19.473  0.00  0.00    -0.000 C 
ATOM      9  C   UNL     1      15.325  31.442  20.104  0.00  0.00    -0.029 C 
ATOM     10  C   UNL     1      15.905  30.404  19.130  0.00  0.00    +0.038 C 
ATOM     11  C   UNL     1      15.348  29.005  19.373  0.00  0.00    +0.216 C 
ATOM     12  O   UNL     1      14.365  28.769  20.066  0.00  0.00    -0.276 OA
ATOM     13  N   UNL     1      16.048  28.014  18.716  0.00  0.00    -0.315 N 
ATOM     14  C   UNL     1      15.633  26.623  18.758  0.00  0.00    +0.016 C 
ATOM     15  C   UNL     1      14.406  26.333  17.884  0.00  0.00    -0.009 C 
ATOM     16  C   UNL     1      14.631  26.645  16.425  0.00  0.00    -0.008 A 
ATOM     17  C   UNL     1      14.031  27.765  15.832  0.00  0.00    -0.021 A 
ATOM     18  C   UNL     1      14.265  28.048  14.489  0.00  0.00    +0.124 A 
ATOM     19  F   UNL     1      13.695  29.126  13.935  0.00  0.00    -0.205 F 
ATOM     20  C   UNL     1      15.085  27.235  13.714  0.00  0.00    -0.024 A 
ATOM     21  C   UNL     1      15.685  26.118  14.293  0.00  0.00    -0.023 A 
ATOM     22  C   UNL     1      15.455  25.833  15.638  0.00  0.00    +0.127 A 
ATOM     23  F   UNL     1      16.047  24.761  16.182  0.00  0.00    -0.205 F 
ATOM     24  C   UNL     1      15.644  30.838  17.689  0.00  0.00    -0.029 C 
ATOM     25  C   UNL     1      16.236  32.225  17.411  0.00  0.00    -0.000 C 
ATOM     26  C   UNL     1      17.518  34.818  17.220  0.00  0.00    -0.024 C 
ATOM     27  C   UNL     1      18.016  36.267  17.229  0.00  0.00    +0.000 C 
ATOM     28  H   UNL     1      16.177  36.970  16.738  0.00  0.00    +0.000 HD
ATOM     29  H   UNL     1      17.098  32.997  19.112  0.00  0.00    +0.000 HD
ATOM     30  H   UNL     1      16.852  28.257  18.203  0.00  0.00    +0.000 HD
ENDROOT
TORSDOF 0
ENDMDL
