MODEL 1
REMARK VINA RESULT:    -4.637      0.000      0.000
REMARK INTER + INTRA:          -4.637
REMARK INTER:                  -4.637
REMARK INTRA:                   0.000
REMARK UNBOUND:                 0.000
REMARK  Name = /home/vital/Documents/PhD_2021/Malaria_codes/scripts/../data/pdbqt_ligands/ligand_234_temp.pdb
REMARK                            x       y       z     vdW  Elec       q    Type
REMARK                         _______ _______ _______ _____ _____    ______ ____
ROOT
ATOM      1  C1  UNL     1      17.982  31.005  20.033  0.00  0.00    -0.022 C 
ATOM      2  C2  UNL     1      16.822  30.118  20.414  0.00  0.00    +0.045 A 
ATOM      3  C3  UNL     1      16.282  29.210  19.353  0.00  0.00    -0.000 A 
ATOM      4  C4  UNL     1      15.230  28.436  19.679  0.00  0.00    +0.130 A 
ATOM      5  N1  UNL     1      14.592  27.509  18.867  0.00  0.00    -0.297 N 
ATOM      6  C5  UNL     1      14.397  27.455  17.474  0.00  0.00    +0.069 A 
ATOM      7  C6  UNL     1      14.665  28.517  16.602  0.00  0.00    -0.026 A 
ATOM      8  C7  UNL     1      14.509  28.381  15.207  0.00  0.00    +0.057 A 
ATOM      9  C8  UNL     1      14.777  29.559  14.299  0.00  0.00    +0.417 C 
ATOM     10  F1  UNL     1      13.691  30.366  14.164  0.00  0.00    -0.166 F 
ATOM     11  F2  UNL     1      15.784  30.355  14.755  0.00  0.00    -0.166 F 
ATOM     12  F3  UNL     1      15.136  29.192  13.038  0.00  0.00    -0.166 F 
ATOM     13  C9  UNL     1      14.066  27.158  14.681  0.00  0.00    -0.047 A 
ATOM     14  C10 UNL     1      13.796  26.090  15.531  0.00  0.00    -0.024 A 
ATOM     15  C11 UNL     1      13.966  26.244  16.905  0.00  0.00    +0.144 A 
ATOM     16  F4  UNL     1      13.701  25.199  17.704  0.00  0.00    -0.204 F 
ATOM     17  N2  UNL     1      14.762  28.515  21.010  0.00  0.00    -0.182 N 
ATOM     18  N3  UNL     1      13.751  27.811  21.592  0.00  0.00    -0.151 NA
ATOM     19  C12 UNL     1      13.762  28.295  22.833  0.00  0.00    +0.141 A 
ATOM     20  N4  UNL     1      14.699  29.246  23.095  0.00  0.00    -0.197 NA
ATOM     21  C13 UNL     1      15.331  29.381  21.949  0.00  0.00    +0.255 A 
ATOM     22  N5  UNL     1      16.375  30.199  21.631  0.00  0.00    -0.216 NA
ATOM     23  H   UNL     1      14.202  26.749  19.357  0.00  0.00    +0.000 HD
ENDROOT
TORSDOF 0
ENDMDL
MODEL 2
REMARK VINA RESULT:    -4.418      4.287      4.521
REMARK INTER + INTRA:          -4.418
REMARK INTER:                  -4.418
REMARK INTRA:                   0.000
REMARK UNBOUND:                 0.000
REMARK  Name = /home/vital/Documents/PhD_2021/Malaria_codes/scripts/../data/pdbqt_ligands/ligand_234_temp.pdb
REMARK                            x       y       z     vdW  Elec       q    Type
REMARK                         _______ _______ _______ _____ _____    ______ ____
ROOT
ATOM      1  C1  UNL     1      20.580  27.361  18.508  0.00  0.00    -0.022 C 
ATOM      2  C2  UNL     1      19.733  26.141  18.781  0.00  0.00    +0.045 A 
ATOM      3  C3  UNL     1      18.704  25.783  17.755  0.00  0.00    -0.000 A 
ATOM      4  C4  UNL     1      17.928  24.712  18.005  0.00  0.00    +0.130 A 
ATOM      5  N1  UNL     1      16.938  24.189  17.187  0.00  0.00    -0.297 N 
ATOM      6  C5  UNL     1      16.073  24.791  16.254  0.00  0.00    +0.069 A 
ATOM      7  C6  UNL     1      15.908  26.174  16.115  0.00  0.00    -0.026 A 
ATOM      8  C7  UNL     1      15.073  26.719  15.118  0.00  0.00    +0.057 A 
ATOM      9  C8  UNL     1      14.894  28.216  15.018  0.00  0.00    +0.417 C 
ATOM     10  F1  UNL     1      13.915  28.677  15.842  0.00  0.00    -0.166 F 
ATOM     11  F2  UNL     1      16.022  28.903  15.353  0.00  0.00    -0.166 F 
ATOM     12  F3  UNL     1      14.563  28.633  13.766  0.00  0.00    -0.166 F 
ATOM     13  C9  UNL     1      14.383  25.857  14.252  0.00  0.00    -0.047 A 
ATOM     14  C10 UNL     1      14.535  24.479  14.373  0.00  0.00    -0.024 A 
ATOM     15  C11 UNL     1      15.373  23.963  15.359  0.00  0.00    +0.144 A 
ATOM     16  F4  UNL     1      15.504  22.631  15.455  0.00  0.00    -0.204 F 
ATOM     17  N2  UNL     1      18.189  23.993  19.194  0.00  0.00    -0.182 N 
ATOM     18  N3  UNL     1      17.579  22.863  19.648  0.00  0.00    -0.151 NA
ATOM     19  C12 UNL     1      18.224  22.646  20.793  0.00  0.00    +0.141 A 
ATOM     20  N4  UNL     1      19.200  23.540  21.107  0.00  0.00    -0.197 NA
ATOM     21  C13 UNL     1      19.181  24.386  20.098  0.00  0.00    +0.255 A 
ATOM     22  N5  UNL     1      19.956  25.487  19.881  0.00  0.00    -0.216 NA
ATOM     23  H   UNL     1      16.818  23.215  17.276  0.00  0.00    +0.000 HD
ENDROOT
TORSDOF 0
ENDMDL
MODEL 3
REMARK VINA RESULT:    -4.174      4.374      5.895
REMARK INTER + INTRA:          -4.174
REMARK INTER:                  -4.174
REMARK INTRA:                   0.000
REMARK UNBOUND:                 0.000
REMARK  Name = /home/vital/Documents/PhD_2021/Malaria_codes/scripts/../data/pdbqt_ligands/ligand_234_temp.pdb
REMARK                            x       y       z     vdW  Elec       q    Type
REMARK                         _______ _______ _______ _____ _____    ______ ____
ROOT
ATOM      1  C1  UNL     1      18.412  26.331  18.063  0.00  0.00    -0.022 C 
ATOM      2  C2  UNL     1      17.305  26.247  17.040  0.00  0.00    +0.045 A 
ATOM      3  C3  UNL     1      16.947  27.510  16.320  0.00  0.00    -0.000 A 
ATOM      4  C4  UNL     1      15.943  27.447  15.426  0.00  0.00    +0.130 A 
ATOM      5  N1  UNL     1      15.466  28.480  14.631  0.00  0.00    -0.297 N 
ATOM      6  C5  UNL     1      15.406  29.872  14.834  0.00  0.00    +0.069 A 
ATOM      7  C6  UNL     1      15.657  30.498  16.060  0.00  0.00    -0.026 A 
ATOM      8  C7  UNL     1      15.642  31.902  16.187  0.00  0.00    +0.057 A 
ATOM      9  C8  UNL     1      15.887  32.543  17.533  0.00  0.00    +0.417 C 
ATOM     10  F1  UNL     1      14.750  32.641  18.274  0.00  0.00    -0.166 F 
ATOM     11  F2  UNL     1      16.773  31.842  18.295  0.00  0.00    -0.166 F 
ATOM     12  F3  UNL     1      16.390  33.804  17.443  0.00  0.00    -0.166 F 
ATOM     13  C9  UNL     1      15.359  32.690  15.061  0.00  0.00    -0.047 A 
ATOM     14  C10 UNL     1      15.108  32.087  13.832  0.00  0.00    -0.024 A 
ATOM     15  C11 UNL     1      15.138  30.698  13.729  0.00  0.00    +0.144 A 
ATOM     16  F4  UNL     1      14.894  30.139  12.534  0.00  0.00    -0.204 F 
ATOM     17  N2  UNL     1      15.350  26.182  15.213  0.00  0.00    -0.182 N 
ATOM     18  N3  UNL     1      14.356  25.852  14.340  0.00  0.00    -0.151 NA
ATOM     19  C12 UNL     1      14.211  24.549  14.575  0.00  0.00    +0.141 A 
ATOM     20  N4  UNL     1      15.032  24.016  15.520  0.00  0.00    -0.197 NA
ATOM     21  C13 UNL     1      15.751  25.044  15.918  0.00  0.00    +0.255 A 
ATOM     22  N5  UNL     1      16.744  25.091  16.853  0.00  0.00    -0.216 NA
ATOM     23  H   UNL     1      15.103  28.185  13.765  0.00  0.00    +0.000 HD
ENDROOT
TORSDOF 0
ENDMDL
MODEL 4
REMARK VINA RESULT:    -4.039      3.874      5.777
REMARK INTER + INTRA:          -4.039
REMARK INTER:                  -4.039
REMARK INTRA:                   0.000
REMARK UNBOUND:                 0.000
REMARK  Name = /home/vital/Documents/PhD_2021/Malaria_codes/scripts/../data/pdbqt_ligands/ligand_234_temp.pdb
REMARK                            x       y       z     vdW  Elec       q    Type
REMARK                         _______ _______ _______ _____ _____    ______ ____
ROOT
ATOM      1  C1  UNL     1      19.114  29.799  13.108  0.00  0.00    -0.022 C 
ATOM      2  C2  UNL     1      18.053  30.508  13.914  0.00  0.00    +0.045 A 
ATOM      3  C3  UNL     1      17.312  29.693  14.929  0.00  0.00    -0.000 A 
ATOM      4  C4  UNL     1      16.346  30.313  15.632  0.00  0.00    +0.130 A 
ATOM      5  N1  UNL     1      15.559  29.763  16.634  0.00  0.00    -0.297 N 
ATOM      6  C5  UNL     1      15.092  28.453  16.850  0.00  0.00    +0.069 A 
ATOM      7  C6  UNL     1      15.180  27.423  15.908  0.00  0.00    -0.026 A 
ATOM      8  C7  UNL     1      14.750  26.113  16.206  0.00  0.00    +0.057 A 
ATOM      9  C8  UNL     1      14.832  25.032  15.153  0.00  0.00    +0.417 C 
ATOM     10  F1  UNL     1      13.741  25.017  14.342  0.00  0.00    -0.166 F 
ATOM     11  F2  UNL     1      15.910  25.180  14.332  0.00  0.00    -0.166 F 
ATOM     12  F3  UNL     1      14.933  23.781  15.677  0.00  0.00    -0.166 F 
ATOM     13  C9  UNL     1      14.212  25.839  17.472  0.00  0.00    -0.047 A 
ATOM     14  C10 UNL     1      14.116  26.850  18.424  0.00  0.00    -0.024 A 
ATOM     15  C11 UNL     1      14.556  28.133  18.110  0.00  0.00    +0.144 A 
ATOM     16  F4  UNL     1      14.456  29.091  19.044  0.00  0.00    -0.204 F 
ATOM     17  N2  UNL     1      16.152  31.691  15.383  0.00  0.00    -0.182 N 
ATOM     18  N3  UNL     1      15.278  32.543  15.987  0.00  0.00    -0.151 NA
ATOM     19  C12 UNL     1      15.536  33.689  15.358  0.00  0.00    +0.141 A 
ATOM     20  N4  UNL     1      16.506  33.642  14.406  0.00  0.00    -0.197 NA
ATOM     21  C13 UNL     1      16.897  32.386  14.424  0.00  0.00    +0.255 A 
ATOM     22  N5  UNL     1      17.857  31.770  13.677  0.00  0.00    -0.216 NA
ATOM     23  H   UNL     1      15.275  30.409  17.321  0.00  0.00    +0.000 HD
ENDROOT
TORSDOF 0
ENDMDL
MODEL 5
REMARK VINA RESULT:    -4.034      4.408      6.378
REMARK INTER + INTRA:          -4.034
REMARK INTER:                  -4.034
REMARK INTRA:                   0.000
REMARK UNBOUND:                 0.000
REMARK  Name = /home/vital/Documents/PhD_2021/Malaria_codes/scripts/../data/pdbqt_ligands/ligand_234_temp.pdb
REMARK                            x       y       z     vdW  Elec       q    Type
REMARK                         _______ _______ _______ _____ _____    ______ ____
ROOT
ATOM      1  C1  UNL     1      15.728  31.004  17.864  0.00  0.00    -0.022 C 
ATOM      2  C2  UNL     1      15.725  30.345  16.506  0.00  0.00    +0.045 A 
ATOM      3  C3  UNL     1      15.622  28.852  16.474  0.00  0.00    -0.000 A 
ATOM      4  C4  UNL     1      15.645  28.256  15.267  0.00  0.00    +0.130 A 
ATOM      5  N1  UNL     1      15.537  26.899  15.003  0.00  0.00    -0.297 N 
ATOM      6  C5  UNL     1      15.921  25.764  15.742  0.00  0.00    +0.069 A 
ATOM      7  C6  UNL     1      16.726  25.806  16.886  0.00  0.00    -0.026 A 
ATOM      8  C7  UNL     1      17.025  24.640  17.620  0.00  0.00    +0.057 A 
ATOM      9  C8  UNL     1      17.924  24.721  18.832  0.00  0.00    +0.417 C 
ATOM     10  F1  UNL     1      19.242  24.639  18.505  0.00  0.00    -0.166 F 
ATOM     11  F2  UNL     1      17.778  25.888  19.519  0.00  0.00    -0.166 F 
ATOM     12  F3  UNL     1      17.696  23.728  19.735  0.00  0.00    -0.166 F 
ATOM     13  C9  UNL     1      16.512  23.408  17.191  0.00  0.00    -0.047 A 
ATOM     14  C10 UNL     1      15.707  23.344  16.056  0.00  0.00    -0.024 A 
ATOM     15  C11 UNL     1      15.418  24.510  15.353  0.00  0.00    +0.144 A 
ATOM     16  F4  UNL     1      14.639  24.424  14.263  0.00  0.00    -0.204 F 
ATOM     17  N2  UNL     1      15.714  29.100  14.135  0.00  0.00    -0.182 N 
ATOM     18  N3  UNL     1      15.708  28.749  12.819  0.00  0.00    -0.151 NA
ATOM     19  C12 UNL     1      15.793  29.936  12.220  0.00  0.00    +0.141 A 
ATOM     20  N4  UNL     1      15.848  31.018  13.043  0.00  0.00    -0.197 NA
ATOM     21  C13 UNL     1      15.794  30.492  14.249  0.00  0.00    +0.255 A 
ATOM     22  N5  UNL     1      15.806  31.114  15.462  0.00  0.00    -0.216 NA
ATOM     23  H   UNL     1      15.115  26.691  14.139  0.00  0.00    +0.000 HD
ENDROOT
TORSDOF 0
ENDMDL
MODEL 6
REMARK VINA RESULT:    -3.744      3.785      5.713
REMARK INTER + INTRA:          -3.744
REMARK INTER:                  -3.744
REMARK INTRA:                   0.000
REMARK UNBOUND:                 0.000
REMARK  Name = /home/vital/Documents/PhD_2021/Malaria_codes/scripts/../data/pdbqt_ligands/ligand_234_temp.pdb
REMARK                            x       y       z     vdW  Elec       q    Type
REMARK                         _______ _______ _______ _____ _____    ______ ____
ROOT
ATOM      1  C1  UNL     1      16.217  31.280  19.017  0.00  0.00    -0.022 C 
ATOM      2  C2  UNL     1      15.955  31.069  17.546  0.00  0.00    +0.045 A 
ATOM      3  C3  UNL     1      15.613  29.679  17.108  0.00  0.00    -0.000 A 
ATOM      4  C4  UNL     1      15.405  29.479  15.793  0.00  0.00    +0.130 A 
ATOM      5  N1  UNL     1      15.052  28.288  15.175  0.00  0.00    -0.297 N 
ATOM      6  C5  UNL     1      15.330  26.945  15.493  0.00  0.00    +0.069 A 
ATOM      7  C6  UNL     1      16.256  26.543  16.462  0.00  0.00    -0.026 A 
ATOM      8  C7  UNL     1      16.445  25.183  16.780  0.00  0.00    +0.057 A 
ATOM      9  C8  UNL     1      17.476  24.784  17.811  0.00  0.00    +0.417 C 
ATOM     10  F1  UNL     1      18.719  24.649  17.274  0.00  0.00    -0.166 F 
ATOM     11  F2  UNL     1      17.596  25.697  18.814  0.00  0.00    -0.166 F 
ATOM     12  F3  UNL     1      17.195  23.599  18.418  0.00  0.00    -0.166 F 
ATOM     13  C9  UNL     1      15.697  24.209  16.103  0.00  0.00    -0.047 A 
ATOM     14  C10 UNL     1      14.770  24.588  15.136  0.00  0.00    -0.024 A 
ATOM     15  C11 UNL     1      14.594  25.938  14.846  0.00  0.00    +0.144 A 
ATOM     16  F4  UNL     1      13.693  26.280  13.911  0.00  0.00    -0.204 F 
ATOM     17  N2  UNL     1      15.480  30.612  14.951  0.00  0.00    -0.182 N 
ATOM     18  N3  UNL     1      15.269  30.679  13.607  0.00  0.00    -0.151 NA
ATOM     19  C12 UNL     1      15.474  31.973  13.364  0.00  0.00    +0.141 A 
ATOM     20  N4  UNL     1      15.793  32.740  14.441  0.00  0.00    -0.197 NA
ATOM     21  C13 UNL     1      15.792  31.884  15.441  0.00  0.00    +0.255 A 
ATOM     22  N5  UNL     1      16.040  32.103  16.764  0.00  0.00    -0.216 NA
ATOM     23  H   UNL     1      14.507  28.404  14.363  0.00  0.00    +0.000 HD
ENDROOT
TORSDOF 0
ENDMDL
MODEL 7
REMARK VINA RESULT:    -3.734      4.353      5.046
REMARK INTER + INTRA:          -3.734
REMARK INTER:                  -3.734
REMARK INTRA:                   0.000
REMARK UNBOUND:                 0.000
REMARK  Name = /home/vital/Documents/PhD_2021/Malaria_codes/scripts/../data/pdbqt_ligands/ligand_234_temp.pdb
REMARK                            x       y       z     vdW  Elec       q    Type
REMARK                         _______ _______ _______ _____ _____    ______ ____
ROOT
ATOM      1  C1  UNL     1      21.048  26.292  17.081  0.00  0.00    -0.022 C 
ATOM      2  C2  UNL     1      19.719  25.582  17.156  0.00  0.00    +0.045 A 
ATOM      3  C3  UNL     1      18.568  26.214  16.436  0.00  0.00    -0.000 A 
ATOM      4  C4  UNL     1      17.374  25.598  16.520  0.00  0.00    +0.130 A 
ATOM      5  N1  UNL     1      16.188  25.989  15.915  0.00  0.00    -0.297 N 
ATOM      6  C5  UNL     1      15.685  27.256  15.563  0.00  0.00    +0.069 A 
ATOM      7  C6  UNL     1      16.252  28.468  15.974  0.00  0.00    -0.026 A 
ATOM      8  C7  UNL     1      15.739  29.707  15.538  0.00  0.00    +0.057 A 
ATOM      9  C8  UNL     1      16.357  30.996  16.027  0.00  0.00    +0.417 C 
ATOM     10  F1  UNL     1      15.837  31.400  17.217  0.00  0.00    -0.166 F 
ATOM     11  F2  UNL     1      17.702  30.893  16.219  0.00  0.00    -0.166 F 
ATOM     12  F3  UNL     1      16.183  32.034  15.165  0.00  0.00    -0.166 F 
ATOM     13  C9  UNL     1      14.629  29.726  14.680  0.00  0.00    -0.047 A 
ATOM     14  C10 UNL     1      14.051  28.532  14.259  0.00  0.00    -0.024 A 
ATOM     15  C11 UNL     1      14.581  27.321  14.696  0.00  0.00    +0.144 A 
ATOM     16  F4  UNL     1      14.008  26.182  14.274  0.00  0.00    -0.204 F 
ATOM     17  N2  UNL     1      17.326  24.384  17.242  0.00  0.00    -0.182 N 
ATOM     18  N3  UNL     1      16.259  23.559  17.435  0.00  0.00    -0.151 NA
ATOM     19  C12 UNL     1      16.795  22.590  18.176  0.00  0.00    +0.141 A 
ATOM     20  N4  UNL     1      18.117  22.724  18.469  0.00  0.00    -0.197 NA
ATOM     21  C13 UNL     1      18.452  23.851  17.877  0.00  0.00    +0.255 A 
ATOM     22  N5  UNL     1      19.664  24.475  17.833  0.00  0.00    -0.216 NA
ATOM     23  H   UNL     1      15.588  25.242  15.690  0.00  0.00    +0.000 HD
ENDROOT
TORSDOF 0
ENDMDL
MODEL 8
REMARK VINA RESULT:    -3.699      3.482      5.309
REMARK INTER + INTRA:          -3.699
REMARK INTER:                  -3.699
REMARK INTRA:                   0.000
REMARK UNBOUND:                 0.000
REMARK  Name = /home/vital/Documents/PhD_2021/Malaria_codes/scripts/../data/pdbqt_ligands/ligand_234_temp.pdb
REMARK                            x       y       z     vdW  Elec       q    Type
REMARK                         _______ _______ _______ _____ _____    ______ ____
ROOT
ATOM      1  C1  UNL     1      13.720  25.603  14.335  0.00  0.00    -0.022 C 
ATOM      2  C2  UNL     1      14.595  26.064  15.475  0.00  0.00    +0.045 A 
ATOM      3  C3  UNL     1      14.713  27.541  15.687  0.00  0.00    -0.000 A 
ATOM      4  C4  UNL     1      15.513  27.960  16.686  0.00  0.00    +0.130 A 
ATOM      5  N1  UNL     1      15.747  29.271  17.075  0.00  0.00    -0.297 N 
ATOM      6  C5  UNL     1      15.757  30.479  16.352  0.00  0.00    +0.069 A 
ATOM      7  C6  UNL     1      15.724  30.559  14.955  0.00  0.00    -0.026 A 
ATOM      8  C7  UNL     1      15.673  31.801  14.289  0.00  0.00    +0.057 A 
ATOM      9  C8  UNL     1      15.670  31.849  12.779  0.00  0.00    +0.417 C 
ATOM     10  F1  UNL     1      16.927  31.821  12.258  0.00  0.00    -0.166 F 
ATOM     11  F2  UNL     1      15.008  30.797  12.221  0.00  0.00    -0.166 F 
ATOM     12  F3  UNL     1      15.078  32.968  12.280  0.00  0.00    -0.166 F 
ATOM     13  C9  UNL     1      15.665  32.984  15.043  0.00  0.00    -0.047 A 
ATOM     14  C10 UNL     1      15.696  32.926  16.433  0.00  0.00    -0.024 A 
ATOM     15  C11 UNL     1      15.737  31.688  17.069  0.00  0.00    +0.144 A 
ATOM     16  F4  UNL     1      15.764  31.658  18.410  0.00  0.00    -0.204 F 
ATOM     17  N2  UNL     1      16.131  26.964  17.475  0.00  0.00    -0.182 N 
ATOM     18  N3  UNL     1      16.942  27.127  18.557  0.00  0.00    -0.151 NA
ATOM     19  C12 UNL     1      17.218  25.865  18.884  0.00  0.00    +0.141 A 
ATOM     20  N4  UNL     1      16.646  24.908  18.104  0.00  0.00    -0.197 NA
ATOM     21  C13 UNL     1      15.959  25.599  17.220  0.00  0.00    +0.255 A 
ATOM     22  N5  UNL     1      15.180  25.154  16.193  0.00  0.00    -0.216 NA
ATOM     23  H   UNL     1      15.942  29.376  18.034  0.00  0.00    +0.000 HD
ENDROOT
TORSDOF 0
ENDMDL
