MODEL 1
REMARK VINA RESULT:    -4.251      0.000      0.000
REMARK INTER + INTRA:          -4.251
REMARK INTER:                  -4.251
REMARK INTRA:                   0.000
REMARK UNBOUND:                 0.000
REMARK  Name = /home/vital/Documents/PhD_2021/Malaria_codes/scripts/../data/pdbqt_ligands/ligand_326_temp.pdb
REMARK                            x       y       z     vdW  Elec       q    Type
REMARK                         _______ _______ _______ _____ _____    ______ ____
ROOT
ATOM      1  C1  UNL     1      17.029  28.095  21.154  0.00  0.00    -0.047 C 
ATOM      2  C2  UNL     1      15.767  28.868  20.850  0.00  0.00    +0.100 C 
ATOM      3  C3  UNL     1      14.651  28.062  20.284  0.00  0.00    +0.316 C 
ATOM      4  O1  UNL     1      13.692  27.716  20.958  0.00  0.00    -0.250 OA
ATOM      5  O2  UNL     1      14.867  27.764  18.980  0.00  0.00    -0.459 OA
ATOM      6  C4  UNL     1      13.812  27.003  18.383  0.00  0.00    +0.120 C 
ATOM      7  C5  UNL     1      14.080  26.898  16.906  0.00  0.00    +0.028 A 
ATOM      8  C6  UNL     1      14.314  28.049  16.132  0.00  0.00    -0.050 A 
ATOM      9  C7  UNL     1      14.545  27.944  14.758  0.00  0.00    -0.023 A 
ATOM     10  C8  UNL     1      14.537  26.691  14.153  0.00  0.00    +0.161 A 
ATOM     11  F1  UNL     1      14.760  26.599  12.834  0.00  0.00    -0.202 F 
ATOM     12  C9  UNL     1      14.298  25.547  14.901  0.00  0.00    +0.194 A 
ATOM     13  F2  UNL     1      14.286  24.344  14.309  0.00  0.00    -0.199 F 
ATOM     14  C10 UNL     1      14.068  25.654  16.268  0.00  0.00    +0.168 A 
ATOM     15  F3  UNL     1      13.830  24.544  16.982  0.00  0.00    -0.202 F 
ATOM     16  C11 UNL     1      15.416  29.994  21.813  0.00  0.00    -0.001 C 
ATOM     17  C12 UNL     1      15.854  30.324  20.414  0.00  0.00    +0.135 C 
ATOM     18 CL1  UNL     1      17.429  31.092  20.212  0.00  0.00    -0.100 Cl
ATOM     19 CL2  UNL     1      14.632  31.025  19.348  0.00  0.00    -0.100 Cl
ENDROOT
TORSDOF 0
ENDMDL
MODEL 2
REMARK VINA RESULT:    -4.170      3.775      4.677
REMARK INTER + INTRA:          -4.170
REMARK INTER:                  -4.170
REMARK INTRA:                   0.000
REMARK UNBOUND:                 0.000
REMARK  Name = /home/vital/Documents/PhD_2021/Malaria_codes/scripts/../data/pdbqt_ligands/ligand_326_temp.pdb
REMARK                            x       y       z     vdW  Elec       q    Type
REMARK                         _______ _______ _______ _____ _____    ______ ____
ROOT
ATOM      1  C1  UNL     1      18.351  31.351  15.327  0.00  0.00    -0.047 C 
ATOM      2  C2  UNL     1      16.867  31.576  15.152  0.00  0.00    +0.100 C 
ATOM      3  C3  UNL     1      15.995  30.791  16.068  0.00  0.00    +0.316 C 
ATOM      4  O1  UNL     1      15.460  31.292  17.045  0.00  0.00    -0.250 OA
ATOM      5  O2  UNL     1      15.915  29.493  15.685  0.00  0.00    -0.459 OA
ATOM      6  C4  UNL     1      15.073  28.698  16.526  0.00  0.00    +0.120 C 
ATOM      7  C5  UNL     1      14.921  27.339  15.895  0.00  0.00    +0.028 A 
ATOM      8  C6  UNL     1      14.499  27.207  14.560  0.00  0.00    -0.050 A 
ATOM      9  C7  UNL     1      14.345  25.942  13.987  0.00  0.00    -0.023 A 
ATOM     10  C8  UNL     1      14.605  24.806  14.748  0.00  0.00    +0.161 A 
ATOM     11  F1  UNL     1      14.455  23.596  14.191  0.00  0.00    -0.202 F 
ATOM     12  C9  UNL     1      15.013  24.920  16.070  0.00  0.00    +0.194 A 
ATOM     13  F2  UNL     1      15.256  23.821  16.797  0.00  0.00    -0.199 F 
ATOM     14  C10 UNL     1      15.166  26.180  16.637  0.00  0.00    +0.168 A 
ATOM     15  F3  UNL     1      15.553  26.280  17.917  0.00  0.00    -0.202 F 
ATOM     16  C11 UNL     1      16.435  32.992  14.797  0.00  0.00    -0.001 C 
ATOM     17  C12 UNL     1      16.304  31.899  13.776  0.00  0.00    +0.135 C 
ATOM     18 CL1  UNL     1      17.375  31.958  12.376  0.00  0.00    -0.100 Cl
ATOM     19 CL2  UNL     1      14.661  31.423  13.334  0.00  0.00    -0.100 Cl
ENDROOT
TORSDOF 0
ENDMDL
MODEL 3
REMARK VINA RESULT:    -3.823      3.967      5.724
REMARK INTER + INTRA:          -3.823
REMARK INTER:                  -3.823
REMARK INTRA:                   0.000
REMARK UNBOUND:                 0.000
REMARK  Name = /home/vital/Documents/PhD_2021/Malaria_codes/scripts/../data/pdbqt_ligands/ligand_326_temp.pdb
REMARK                            x       y       z     vdW  Elec       q    Type
REMARK                         _______ _______ _______ _____ _____    ______ ____
ROOT
ATOM      1  C1  UNL     1      16.749  25.166  16.012  0.00  0.00    -0.047 C 
ATOM      2  C2  UNL     1      15.461  25.741  16.552  0.00  0.00    +0.100 C 
ATOM      3  C3  UNL     1      14.689  26.577  15.592  0.00  0.00    +0.316 C 
ATOM      4  O1  UNL     1      13.692  26.159  15.022  0.00  0.00    -0.250 OA
ATOM      5  O2  UNL     1      15.251  27.800  15.435  0.00  0.00    -0.459 OA
ATOM      6  C4  UNL     1      14.535  28.649  14.534  0.00  0.00    +0.120 C 
ATOM      7  C5  UNL     1      15.148  30.023  14.589  0.00  0.00    +0.028 A 
ATOM      8  C6  UNL     1      15.316  30.689  15.817  0.00  0.00    -0.050 A 
ATOM      9  C7  UNL     1      15.871  31.971  15.857  0.00  0.00    -0.023 A 
ATOM     10  C8  UNL     1      16.253  32.593  14.672  0.00  0.00    +0.161 A 
ATOM     11  F1  UNL     1      16.784  33.822  14.720  0.00  0.00    -0.202 F 
ATOM     12  C9  UNL     1      16.085  31.952  13.453  0.00  0.00    +0.194 A 
ATOM     13  F2  UNL     1      16.451  32.561  12.316  0.00  0.00    -0.199 F 
ATOM     14  C10 UNL     1      15.533  30.677  13.415  0.00  0.00    +0.168 A 
ATOM     15  F3  UNL     1      15.368  30.069  12.231  0.00  0.00    -0.202 F 
ATOM     16  C11 UNL     1      14.681  24.861  17.518  0.00  0.00    -0.001 C 
ATOM     17  C12 UNL     1      15.350  26.106  18.026  0.00  0.00    +0.135 C 
ATOM     18 CL1  UNL     1      16.742  25.908  19.091  0.00  0.00    -0.100 Cl
ATOM     19 CL2  UNL     1      14.288  27.414  18.557  0.00  0.00    -0.100 Cl
ENDROOT
TORSDOF 0
ENDMDL
MODEL 4
REMARK VINA RESULT:    -3.746      4.425      5.994
REMARK INTER + INTRA:          -3.746
REMARK INTER:                  -3.746
REMARK INTRA:                   0.000
REMARK UNBOUND:                 0.000
REMARK  Name = /home/vital/Documents/PhD_2021/Malaria_codes/scripts/../data/pdbqt_ligands/ligand_326_temp.pdb
REMARK                            x       y       z     vdW  Elec       q    Type
REMARK                         _______ _______ _______ _____ _____    ______ ____
ROOT
ATOM      1  C1  UNL     1      15.758  29.625  15.904  0.00  0.00    -0.047 C 
ATOM      2  C2  UNL     1      14.884  28.401  15.761  0.00  0.00    +0.100 C 
ATOM      3  C3  UNL     1      14.711  27.598  17.002  0.00  0.00    +0.316 C 
ATOM      4  O1  UNL     1      13.691  27.647  17.673  0.00  0.00    -0.250 OA
ATOM      5  O2  UNL     1      15.817  26.862  17.275  0.00  0.00    -0.459 OA
ATOM      6  C4  UNL     1      15.695  26.058  18.452  0.00  0.00    +0.120 C 
ATOM      7  C5  UNL     1      16.901  25.161  18.539  0.00  0.00    +0.028 A 
ATOM      8  C6  UNL     1      17.273  24.344  17.457  0.00  0.00    -0.050 A 
ATOM      9  C7  UNL     1      18.384  23.502  17.553  0.00  0.00    -0.023 A 
ATOM     10  C8  UNL     1      19.123  23.470  18.731  0.00  0.00    +0.161 A 
ATOM     11  F1  UNL     1      20.187  22.660  18.815  0.00  0.00    -0.202 F 
ATOM     12  C9  UNL     1      18.764  24.264  19.812  0.00  0.00    +0.194 A 
ATOM     13  F2  UNL     1      19.477  24.222  20.946  0.00  0.00    -0.199 F 
ATOM     14  C10 UNL     1      17.658  25.100  19.714  0.00  0.00    +0.168 A 
ATOM     15  F3  UNL     1      17.313  25.858  20.766  0.00  0.00    -0.202 F 
ATOM     16  C11 UNL     1      13.691  28.528  14.823  0.00  0.00    -0.001 C 
ATOM     17  C12 UNL     1      14.844  27.644  14.441  0.00  0.00    +0.135 C 
ATOM     18 CL1  UNL     1      15.859  28.164  13.096  0.00  0.00    -0.100 Cl
ATOM     19 CL2  UNL     1      14.529  25.906  14.403  0.00  0.00    -0.100 Cl
ENDROOT
TORSDOF 0
ENDMDL
MODEL 5
REMARK VINA RESULT:    -3.675     18.973     20.998
REMARK INTER + INTRA:          -3.675
REMARK INTER:                  -3.675
REMARK INTRA:                   0.000
REMARK UNBOUND:                 0.000
REMARK  Name = /home/vital/Documents/PhD_2021/Malaria_codes/scripts/../data/pdbqt_ligands/ligand_326_temp.pdb
REMARK                            x       y       z     vdW  Elec       q    Type
REMARK                         _______ _______ _______ _____ _____    ______ ____
ROOT
ATOM      1  C1  UNL     1      17.603  45.881  24.973  0.00  0.00    -0.047 C 
ATOM      2  C2  UNL     1      16.130  45.684  24.703  0.00  0.00    +0.100 C 
ATOM      3  C3  UNL     1      15.214  46.362  25.662  0.00  0.00    +0.316 C 
ATOM      4  O1  UNL     1      14.627  47.396  25.380  0.00  0.00    -0.250 OA
ATOM      5  O2  UNL     1      15.159  45.703  26.845  0.00  0.00    -0.459 OA
ATOM      6  C4  UNL     1      14.277  46.307  27.797  0.00  0.00    +0.120 C 
ATOM      7  C5  UNL     1      14.163  45.390  28.985  0.00  0.00    +0.028 A 
ATOM      8  C6  UNL     1      13.811  44.039  28.822  0.00  0.00    -0.050 A 
ATOM      9  C7  UNL     1      13.691  43.199  29.932  0.00  0.00    -0.023 A 
ATOM     10  C8  UNL     1      13.916  43.708  31.208  0.00  0.00    +0.161 A 
ATOM     11  F1  UNL     1      13.799  42.895  32.267  0.00  0.00    -0.202 F 
ATOM     12  C9  UNL     1      14.255  45.042  31.386  0.00  0.00    +0.194 A 
ATOM     13  F2  UNL     1      14.463  45.525  32.618  0.00  0.00    -0.199 F 
ATOM     14  C10 UNL     1      14.373  45.876  30.280  0.00  0.00    +0.168 A 
ATOM     15  F3  UNL     1      14.693  47.165  30.462  0.00  0.00    -0.202 F 
ATOM     16  C11 UNL     1      15.712  45.622  23.241  0.00  0.00    -0.001 C 
ATOM     17  C12 UNL     1      15.637  44.383  24.085  0.00  0.00    +0.135 C 
ATOM     18 CL1  UNL     1      16.779  43.086  23.734  0.00  0.00    -0.100 Cl
ATOM     19 CL2  UNL     1      14.021  43.765  24.443  0.00  0.00    -0.100 Cl
ENDROOT
TORSDOF 0
ENDMDL
MODEL 6
REMARK VINA RESULT:    -3.638      3.797      5.687
REMARK INTER + INTRA:          -3.638
REMARK INTER:                  -3.638
REMARK INTRA:                   0.000
REMARK UNBOUND:                 0.000
REMARK  Name = /home/vital/Documents/PhD_2021/Malaria_codes/scripts/../data/pdbqt_ligands/ligand_326_temp.pdb
REMARK                            x       y       z     vdW  Elec       q    Type
REMARK                         _______ _______ _______ _____ _____    ______ ____
ROOT
ATOM      1  C1  UNL     1      14.711  31.957  13.353  0.00  0.00    -0.047 C 
ATOM      2  C2  UNL     1      16.166  31.696  13.661  0.00  0.00    +0.100 C 
ATOM      3  C3  UNL     1      16.675  30.364  13.234  0.00  0.00    +0.316 C 
ATOM      4  O1  UNL     1      17.367  30.221  12.237  0.00  0.00    -0.250 OA
ATOM      5  O2  UNL     1      16.250  29.381  14.065  0.00  0.00    -0.459 OA
ATOM      6  C4  UNL     1      16.727  28.080  13.707  0.00  0.00    +0.120 C 
ATOM      7  C5  UNL     1      16.344  27.118  14.799  0.00  0.00    +0.028 A 
ATOM      8  C6  UNL     1      16.676  27.379  16.140  0.00  0.00    -0.050 A 
ATOM      9  C7  UNL     1      16.331  26.471  17.145  0.00  0.00    -0.023 A 
ATOM     10  C8  UNL     1      15.659  25.299  16.813  0.00  0.00    +0.161 A 
ATOM     11  F1  UNL     1      15.332  24.434  17.783  0.00  0.00    -0.202 F 
ATOM     12  C9  UNL     1      15.332  25.023  15.492  0.00  0.00    +0.194 A 
ATOM     13  F2  UNL     1      14.690  23.889  15.180  0.00  0.00    -0.199 F 
ATOM     14  C10 UNL     1      15.676  25.927  14.494  0.00  0.00    +0.168 A 
ATOM     15  F3  UNL     1      15.363  25.648  13.220  0.00  0.00    -0.202 F 
ATOM     16  C11 UNL     1      17.106  32.888  13.546  0.00  0.00    -0.001 C 
ATOM     17  C12 UNL     1      16.804  32.311  14.899  0.00  0.00    +0.135 C 
ATOM     18 CL1  UNL     1      15.830  33.284  16.002  0.00  0.00    -0.100 Cl
ATOM     19 CL2  UNL     1      18.137  31.501  15.729  0.00  0.00    -0.100 Cl
ENDROOT
TORSDOF 0
ENDMDL
MODEL 7
REMARK VINA RESULT:    -3.605      4.498      6.201
REMARK INTER + INTRA:          -3.605
REMARK INTER:                  -3.605
REMARK INTRA:                   0.000
REMARK UNBOUND:                 0.000
REMARK  Name = /home/vital/Documents/PhD_2021/Malaria_codes/scripts/../data/pdbqt_ligands/ligand_326_temp.pdb
REMARK                            x       y       z     vdW  Elec       q    Type
REMARK                         _______ _______ _______ _____ _____    ______ ____
ROOT
ATOM      1  C1  UNL     1      14.654  29.537  14.839  0.00  0.00    -0.047 C 
ATOM      2  C2  UNL     1      15.589  28.822  13.893  0.00  0.00    +0.100 C 
ATOM      3  C3  UNL     1      15.552  27.336  13.967  0.00  0.00    +0.316 C 
ATOM      4  O1  UNL     1      14.974  26.657  13.131  0.00  0.00    -0.250 OA
ATOM      5  O2  UNL     1      16.200  26.877  15.066  0.00  0.00    -0.459 OA
ATOM      6  C4  UNL     1      16.207  25.451  15.174  0.00  0.00    +0.120 C 
ATOM      7  C5  UNL     1      17.105  25.067  16.320  0.00  0.00    +0.028 A 
ATOM      8  C6  UNL     1      18.426  25.542  16.391  0.00  0.00    -0.050 A 
ATOM      9  C7  UNL     1      19.258  25.167  17.450  0.00  0.00    -0.023 A 
ATOM     10  C8  UNL     1      18.774  24.313  18.436  0.00  0.00    +0.161 A 
ATOM     11  F1  UNL     1      19.579  23.958  19.447  0.00  0.00    -0.202 F 
ATOM     12  C9  UNL     1      17.475  23.828  18.374  0.00  0.00    +0.194 A 
ATOM     13  F2  UNL     1      17.019  23.000  19.325  0.00  0.00    -0.199 F 
ATOM     14  C10 UNL     1      16.649  24.202  17.320  0.00  0.00    +0.168 A 
ATOM     15  F3  UNL     1      15.398  23.722  17.265  0.00  0.00    -0.202 F 
ATOM     16  C11 UNL     1      15.787  29.462  12.526  0.00  0.00    -0.001 C 
ATOM     17  C12 UNL     1      16.919  29.458  13.513  0.00  0.00    +0.135 C 
ATOM     18 CL1  UNL     1      17.391  31.003  14.220  0.00  0.00    -0.100 Cl
ATOM     19 CL2  UNL     1      18.318  28.458  13.108  0.00  0.00    -0.100 Cl
ENDROOT
TORSDOF 0
ENDMDL
MODEL 8
REMARK VINA RESULT:    -3.506      1.094      1.182
REMARK INTER + INTRA:          -3.506
REMARK INTER:                  -3.506
REMARK INTRA:                   0.000
REMARK UNBOUND:                 0.000
REMARK  Name = /home/vital/Documents/PhD_2021/Malaria_codes/scripts/../data/pdbqt_ligands/ligand_326_temp.pdb
REMARK                            x       y       z     vdW  Elec       q    Type
REMARK                         _______ _______ _______ _____ _____    ______ ____
ROOT
ATOM      1  C1  UNL     1      17.949  29.499  20.654  0.00  0.00    -0.047 C 
ATOM      2  C2  UNL     1      16.599  30.146  20.451  0.00  0.00    +0.100 C 
ATOM      3  C3  UNL     1      15.466  29.200  20.258  0.00  0.00    +0.316 C 
ATOM      4  O1  UNL     1      14.668  28.950  21.148  0.00  0.00    -0.250 OA
ATOM      5  O2  UNL     1      15.475  28.664  19.012  0.00  0.00    -0.459 OA
ATOM      6  C4  UNL     1      14.394  27.759  18.770  0.00  0.00    +0.120 C 
ATOM      7  C5  UNL     1      14.409  27.382  17.312  0.00  0.00    +0.028 A 
ATOM      8  C6  UNL     1      14.418  28.370  16.312  0.00  0.00    -0.050 A 
ATOM      9  C7  UNL     1      14.416  28.011  14.961  0.00  0.00    -0.023 A 
ATOM     10  C8  UNL     1      14.399  26.666  14.607  0.00  0.00    +0.161 A 
ATOM     11  F1  UNL     1      14.396  26.330  13.310  0.00  0.00    -0.202 F 
ATOM     12  C9  UNL     1      14.380  25.679  15.583  0.00  0.00    +0.194 A 
ATOM     13  F2  UNL     1      14.357  24.385  15.233  0.00  0.00    -0.199 F 
ATOM     14  C10 UNL     1      14.382  26.038  16.926  0.00  0.00    +0.168 A 
ATOM     15  F3  UNL     1      14.356  25.078  17.862  0.00  0.00    -0.202 F 
ATOM     16  C11 UNL     1      16.335  31.421  21.240  0.00  0.00    -0.001 C 
ATOM     17  C12 UNL     1      16.498  31.493  19.749  0.00  0.00    +0.135 C 
ATOM     18 CL1  UNL     1      17.952  32.272  19.123  0.00  0.00    -0.100 Cl
ATOM     19 CL2  UNL     1      15.061  31.922  18.816  0.00  0.00    -0.100 Cl
ENDROOT
TORSDOF 0
ENDMDL
