MODEL 1
REMARK VINA RESULT:    -4.347      0.000      0.000
REMARK INTER + INTRA:          -4.347
REMARK INTER:                  -4.347
REMARK INTRA:                   0.000
REMARK UNBOUND:                 0.000
REMARK  Name = /home/vital/Documents/PhD_2021/Malaria_codes/scripts/../data/pdbqt_ligands/ligand_168_temp.pdb
REMARK                            x       y       z     vdW  Elec       q    Type
REMARK                         _______ _______ _______ _____ _____    ______ ____
ROOT
ATOM      1  C1  UNL     1      17.813  32.870  16.429  0.00  0.00    -0.039 C 
ATOM      2  C2  UNL     1      17.004  32.949  15.165  0.00  0.00    -0.036 A 
ATOM      3  C3  UNL     1      17.267  33.978  14.246  0.00  0.00    -0.017 A 
ATOM      4  C4  UNL     1      16.523  34.087  13.074  0.00  0.00    +0.117 A 
ATOM      5  O1  UNL     1      16.831  35.106  12.224  0.00  0.00    -0.507 OA
ATOM      6  C5  UNL     1      15.502  33.189  12.789  0.00  0.00    -0.019 A 
ATOM      7  C6  UNL     1      15.221  32.165  13.694  0.00  0.00    -0.047 A 
ATOM      8  C7  UNL     1      15.971  32.037  14.876  0.00  0.00    +0.025 A 
ATOM      9  C8  UNL     1      15.631  30.946  15.825  0.00  0.00    +0.186 C 
ATOM     10  O2  UNL     1      15.446  31.180  17.013  0.00  0.00    -0.287 OA
ATOM     11  C9  UNL     1      15.552  29.573  15.253  0.00  0.00    -0.014 C 
ATOM     12  C10 UNL     1      15.156  28.554  16.032  0.00  0.00    -0.051 C 
ATOM     13  C11 UNL     1      15.068  27.160  15.580  0.00  0.00    -0.024 A 
ATOM     14  C12 UNL     1      14.632  26.814  14.292  0.00  0.00    -0.051 A 
ATOM     15  C13 UNL     1      14.539  25.474  13.908  0.00  0.00    -0.019 A 
ATOM     16  C14 UNL     1      14.870  24.473  14.812  0.00  0.00    +0.131 A 
ATOM     17  O3  UNL     1      14.760  23.181  14.380  0.00  0.00    -0.506 OA
ATOM     18  C15 UNL     1      15.289  24.799  16.101  0.00  0.00    +0.060 A 
ATOM     19 BR1  UNL     1      15.736  23.444  17.348  0.00  0.00    -0.047 Br
ATOM     20  C16 UNL     1      15.383  26.138  16.488  0.00  0.00    -0.037 A 
ATOM     21  H   UNL     1      17.524  35.700  12.437  0.00  0.00    +0.000 HD
ATOM     22  H   UNL     1      14.474  23.002  13.506  0.00  0.00    +0.000 HD
ENDROOT
TORSDOF 0
ENDMDL
MODEL 2
REMARK VINA RESULT:    -4.266      3.530      8.306
REMARK INTER + INTRA:          -4.266
REMARK INTER:                  -4.266
REMARK INTRA:                   0.000
REMARK UNBOUND:                 0.000
REMARK  Name = /home/vital/Documents/PhD_2021/Malaria_codes/scripts/../data/pdbqt_ligands/ligand_168_temp.pdb
REMARK                            x       y       z     vdW  Elec       q    Type
REMARK                         _______ _______ _______ _____ _____    ______ ____
ROOT
ATOM      1  C1  UNL     1      14.885  26.459  13.653  0.00  0.00    -0.039 C 
ATOM      2  C2  UNL     1      14.664  26.390  15.138  0.00  0.00    -0.036 A 
ATOM      3  C3  UNL     1      14.665  25.137  15.774  0.00  0.00    -0.017 A 
ATOM      4  C4  UNL     1      14.445  25.040  17.145  0.00  0.00    +0.117 A 
ATOM      5  O1  UNL     1      14.462  23.796  17.700  0.00  0.00    -0.507 OA
ATOM      6  C5  UNL     1      14.214  26.174  17.915  0.00  0.00    -0.019 A 
ATOM      7  C6  UNL     1      14.201  27.426  17.299  0.00  0.00    -0.047 A 
ATOM      8  C7  UNL     1      14.432  27.539  15.918  0.00  0.00    +0.025 A 
ATOM      9  C8  UNL     1      14.392  28.887  15.293  0.00  0.00    +0.186 C 
ATOM     10  O2  UNL     1      13.705  29.102  14.302  0.00  0.00    -0.287 OA
ATOM     11  C9  UNL     1      15.242  29.933  15.926  0.00  0.00    -0.014 C 
ATOM     12  C10 UNL     1      15.182  31.196  15.474  0.00  0.00    -0.051 C 
ATOM     13  C11 UNL     1      15.993  32.299  16.004  0.00  0.00    -0.024 A 
ATOM     14  C12 UNL     1      16.290  32.422  17.371  0.00  0.00    -0.051 A 
ATOM     15  C13 UNL     1      17.045  33.501  17.840  0.00  0.00    -0.019 A 
ATOM     16  C14 UNL     1      17.498  34.465  16.949  0.00  0.00    +0.131 A 
ATOM     17  O3  UNL     1      18.232  35.496  17.466  0.00  0.00    -0.506 OA
ATOM     18  C15 UNL     1      17.198  34.365  15.591  0.00  0.00    +0.060 A 
ATOM     19 BR1  UNL     1      17.802  35.678  14.365  0.00  0.00    -0.047 Br
ATOM     20  C16 UNL     1      16.443  33.289  15.119  0.00  0.00    -0.037 A 
ATOM     21  H   UNL     1      14.620  23.045  17.162  0.00  0.00    +0.000 HD
ATOM     22  H   UNL     1      18.412  35.528  18.384  0.00  0.00    +0.000 HD
ENDROOT
TORSDOF 0
ENDMDL
MODEL 3
REMARK VINA RESULT:    -4.223      3.966      7.814
REMARK INTER + INTRA:          -4.223
REMARK INTER:                  -4.223
REMARK INTRA:                   0.000
REMARK UNBOUND:                 0.000
REMARK  Name = /home/vital/Documents/PhD_2021/Malaria_codes/scripts/../data/pdbqt_ligands/ligand_168_temp.pdb
REMARK                            x       y       z     vdW  Elec       q    Type
REMARK                         _______ _______ _______ _____ _____    ______ ____
ROOT
ATOM      1  C1  UNL     1      15.915  27.869  13.020  0.00  0.00    -0.039 C 
ATOM      2  C2  UNL     1      15.288  26.972  14.050  0.00  0.00    -0.036 A 
ATOM      3  C3  UNL     1      15.240  25.588  13.815  0.00  0.00    -0.017 A 
ATOM      4  C4  UNL     1      14.650  24.733  14.743  0.00  0.00    +0.117 A 
ATOM      5  O1  UNL     1      14.640  23.401  14.456  0.00  0.00    -0.507 OA
ATOM      6  C5  UNL     1      14.091  25.226  15.915  0.00  0.00    -0.019 A 
ATOM      7  C6  UNL     1      14.122  26.599  16.162  0.00  0.00    -0.047 A 
ATOM      8  C7  UNL     1      14.723  27.472  15.239  0.00  0.00    +0.025 A 
ATOM      9  C8  UNL     1      14.721  28.930  15.526  0.00  0.00    +0.186 C 
ATOM     10  O2  UNL     1      14.326  29.735  14.691  0.00  0.00    -0.287 OA
ATOM     11  C9  UNL     1      15.240  29.341  16.859  0.00  0.00    -0.014 C 
ATOM     12  C10 UNL     1      15.178  30.632  17.223  0.00  0.00    -0.051 C 
ATOM     13  C11 UNL     1      15.683  31.152  18.500  0.00  0.00    -0.024 A 
ATOM     14  C12 UNL     1      15.563  30.436  19.701  0.00  0.00    -0.051 A 
ATOM     15  C13 UNL     1      16.035  30.976  20.901  0.00  0.00    -0.019 A 
ATOM     16  C14 UNL     1      16.619  32.237  20.908  0.00  0.00    +0.131 A 
ATOM     17  O3  UNL     1      17.062  32.712  22.110  0.00  0.00    -0.506 OA
ATOM     18  C15 UNL     1      16.730  32.967  19.725  0.00  0.00    +0.060 A 
ATOM     19 BR1  UNL     1      17.517  34.691  19.721  0.00  0.00    -0.047 Br
ATOM     20  C16 UNL     1      16.260  32.430  18.525  0.00  0.00    -0.037 A 
ATOM     21  H   UNL     1      15.023  23.090  13.659  0.00  0.00    +0.000 HD
ATOM     22  H   UNL     1      16.968  32.191  22.883  0.00  0.00    +0.000 HD
ENDROOT
TORSDOF 0
ENDMDL
MODEL 4
REMARK VINA RESULT:    -3.982      4.159      8.015
REMARK INTER + INTRA:          -3.982
REMARK INTER:                  -3.982
REMARK INTRA:                   0.000
REMARK UNBOUND:                 0.000
REMARK  Name = /home/vital/Documents/PhD_2021/Malaria_codes/scripts/../data/pdbqt_ligands/ligand_168_temp.pdb
REMARK                            x       y       z     vdW  Elec       q    Type
REMARK                         _______ _______ _______ _____ _____    ______ ____
ROOT
ATOM      1  C1  UNL     1      16.576  29.620  12.220  0.00  0.00    -0.039 C 
ATOM      2  C2  UNL     1      15.651  28.938  13.188  0.00  0.00    -0.036 A 
ATOM      3  C3  UNL     1      15.506  27.542  13.130  0.00  0.00    -0.017 A 
ATOM      4  C4  UNL     1      14.643  26.884  14.003  0.00  0.00    +0.117 A 
ATOM      5  O1  UNL     1      14.551  25.529  13.896  0.00  0.00    -0.507 OA
ATOM      6  C5  UNL     1      13.902  27.588  14.943  0.00  0.00    -0.019 A 
ATOM      7  C6  UNL     1      14.027  28.977  15.010  0.00  0.00    -0.047 A 
ATOM      8  C7  UNL     1      14.902  29.652  14.143  0.00  0.00    +0.025 A 
ATOM      9  C8  UNL     1      14.994  31.133  14.230  0.00  0.00    +0.186 C 
ATOM     10  O2  UNL     1      14.876  31.831  13.230  0.00  0.00    -0.287 OA
ATOM     11  C9  UNL     1      15.257  31.700  15.582  0.00  0.00    -0.014 C 
ATOM     12  C10 UNL     1      15.257  33.031  15.751  0.00  0.00    -0.051 C 
ATOM     13  C11 UNL     1      15.531  33.697  17.031  0.00  0.00    -0.024 A 
ATOM     14  C12 UNL     1      15.080  33.181  18.256  0.00  0.00    -0.051 A 
ATOM     15  C13 UNL     1      15.339  33.858  19.451  0.00  0.00    -0.019 A 
ATOM     16  C14 UNL     1      16.040  35.058  19.427  0.00  0.00    +0.131 A 
ATOM     17  O3  UNL     1      16.263  35.674  20.626  0.00  0.00    -0.506 OA
ATOM     18  C15 UNL     1      16.479  35.591  18.216  0.00  0.00    +0.060 A 
ATOM     19 BR1  UNL     1      17.429  37.230  18.167  0.00  0.00    -0.047 Br
ATOM     20  C16 UNL     1      16.222  34.917  17.020  0.00  0.00    -0.037 A 
ATOM     21  H   UNL     1      15.061  25.074  13.254  0.00  0.00    +0.000 HD
ATOM     22  H   UNL     1      15.951  35.283  21.418  0.00  0.00    +0.000 HD
ENDROOT
TORSDOF 0
ENDMDL
MODEL 5
REMARK VINA RESULT:    -3.897     18.399     19.941
REMARK INTER + INTRA:          -3.897
REMARK INTER:                  -3.897
REMARK INTRA:                   0.000
REMARK UNBOUND:                 0.000
REMARK  Name = /home/vital/Documents/PhD_2021/Malaria_codes/scripts/../data/pdbqt_ligands/ligand_168_temp.pdb
REMARK                            x       y       z     vdW  Elec       q    Type
REMARK                         _______ _______ _______ _____ _____    ______ ____
ROOT
ATOM      1  C1  UNL     1      19.655  45.387  21.742  0.00  0.00    -0.039 C 
ATOM      2  C2  UNL     1      20.936  46.096  22.081  0.00  0.00    -0.036 A 
ATOM      3  C3  UNL     1      21.479  45.953  23.369  0.00  0.00    -0.017 A 
ATOM      4  C4  UNL     1      22.655  46.611  23.717  0.00  0.00    +0.117 A 
ATOM      5  O1  UNL     1      23.130  46.427  24.981  0.00  0.00    -0.507 OA
ATOM      6  C5  UNL     1      23.315  47.428  22.808  0.00  0.00    -0.019 A 
ATOM      7  C6  UNL     1      22.786  47.589  21.526  0.00  0.00    -0.047 A 
ATOM      8  C7  UNL     1      21.605  46.923  21.158  0.00  0.00    +0.025 A 
ATOM      9  C8  UNL     1      21.061  47.133  19.791  0.00  0.00    +0.186 C 
ATOM     10  O2  UNL     1      19.889  47.449  19.622  0.00  0.00    -0.287 OA
ATOM     11  C9  UNL     1      22.008  46.918  18.663  0.00  0.00    -0.014 C 
ATOM     12  C10 UNL     1      21.612  47.183  17.408  0.00  0.00    -0.051 C 
ATOM     13  C11 UNL     1      22.453  46.982  16.220  0.00  0.00    -0.024 A 
ATOM     14  C12 UNL     1      23.831  47.247  16.224  0.00  0.00    -0.051 A 
ATOM     15  C13 UNL     1      24.592  47.067  15.066  0.00  0.00    -0.019 A 
ATOM     16  C14 UNL     1      23.979  46.632  13.897  0.00  0.00    +0.131 A 
ATOM     17  O3  UNL     1      24.774  46.474  12.797  0.00  0.00    -0.506 OA
ATOM     18  C15 UNL     1      22.608  46.380  13.874  0.00  0.00    +0.060 A 
ATOM     19 BR1  UNL     1      21.757  45.794  12.286  0.00  0.00    -0.047 Br
ATOM     20  C16 UNL     1      21.844  46.559  15.030  0.00  0.00    -0.037 A 
ATOM     21  H   UNL     1      22.669  45.871  25.579  0.00  0.00    +0.000 HD
ATOM     22  H   UNL     1      25.692  46.653  12.853  0.00  0.00    +0.000 HD
ENDROOT
TORSDOF 0
ENDMDL
MODEL 6
REMARK VINA RESULT:    -3.789      5.183      6.913
REMARK INTER + INTRA:          -3.789
REMARK INTER:                  -3.789
REMARK INTRA:                   0.000
REMARK UNBOUND:                 0.000
REMARK  Name = /home/vital/Documents/PhD_2021/Malaria_codes/scripts/../data/pdbqt_ligands/ligand_168_temp.pdb
REMARK                            x       y       z     vdW  Elec       q    Type
REMARK                         _______ _______ _______ _____ _____    ______ ____
ROOT
ATOM      1  C1  UNL     1      15.839  27.716  23.751  0.00  0.00    -0.039 C 
ATOM      2  C2  UNL     1      15.724  29.144  23.299  0.00  0.00    -0.036 A 
ATOM      3  C3  UNL     1      16.272  30.162  24.098  0.00  0.00    -0.017 A 
ATOM      4  C4  UNL     1      16.166  31.497  23.714  0.00  0.00    +0.117 A 
ATOM      5  O1  UNL     1      16.721  32.434  24.532  0.00  0.00    -0.507 OA
ATOM      6  C5  UNL     1      15.513  31.854  22.541  0.00  0.00    -0.019 A 
ATOM      7  C6  UNL     1      14.956  30.857  21.739  0.00  0.00    -0.047 A 
ATOM      8  C7  UNL     1      15.064  29.506  22.109  0.00  0.00    +0.025 A 
ATOM      9  C8  UNL     1      14.442  28.474  21.240  0.00  0.00    +0.186 C 
ATOM     10  O2  UNL     1      13.690  27.627  21.708  0.00  0.00    -0.287 OA
ATOM     11  C9  UNL     1      14.802  28.521  19.796  0.00  0.00    -0.014 C 
ATOM     12  C10 UNL     1      14.203  27.681  18.937  0.00  0.00    -0.051 C 
ATOM     13  C11 UNL     1      14.501  27.622  17.501  0.00  0.00    -0.024 A 
ATOM     14  C12 UNL     1      14.772  28.773  16.744  0.00  0.00    -0.051 A 
ATOM     15  C13 UNL     1      15.026  28.679  15.373  0.00  0.00    -0.019 A 
ATOM     16  C14 UNL     1      15.001  27.437  14.750  0.00  0.00    +0.131 A 
ATOM     17  O3  UNL     1      15.257  27.407  13.408  0.00  0.00    -0.506 OA
ATOM     18  C15 UNL     1      14.718  26.287  15.485  0.00  0.00    +0.060 A 
ATOM     19 BR1  UNL     1      14.672  24.588  14.648  0.00  0.00    -0.047 Br
ATOM     20  C16 UNL     1      14.463  26.378  16.856  0.00  0.00    -0.037 A 
ATOM     21  H   UNL     1      17.157  32.170  25.319  0.00  0.00    +0.000 HD
ATOM     22  H   UNL     1      15.443  28.202  12.949  0.00  0.00    +0.000 HD
ENDROOT
TORSDOF 0
ENDMDL
MODEL 7
REMARK VINA RESULT:    -3.703      2.918      3.953
REMARK INTER + INTRA:          -3.703
REMARK INTER:                  -3.703
REMARK INTRA:                   0.000
REMARK UNBOUND:                 0.000
REMARK  Name = /home/vital/Documents/PhD_2021/Malaria_codes/scripts/../data/pdbqt_ligands/ligand_168_temp.pdb
REMARK                            x       y       z     vdW  Elec       q    Type
REMARK                         _______ _______ _______ _____ _____    ______ ____
ROOT
ATOM      1  C1  UNL     1      15.659  34.501  15.437  0.00  0.00    -0.039 C 
ATOM      2  C2  UNL     1      15.489  34.386  16.925  0.00  0.00    -0.036 A 
ATOM      3  C3  UNL     1      15.040  35.501  17.653  0.00  0.00    -0.017 A 
ATOM      4  C4  UNL     1      14.890  35.429  19.035  0.00  0.00    +0.117 A 
ATOM      5  O1  UNL     1      14.448  36.545  19.680  0.00  0.00    -0.507 OA
ATOM      6  C5  UNL     1      15.185  34.262  19.728  0.00  0.00    -0.019 A 
ATOM      7  C6  UNL     1      15.639  33.146  19.023  0.00  0.00    -0.047 A 
ATOM      8  C7  UNL     1      15.786  33.201  17.627  0.00  0.00    +0.025 A 
ATOM      9  C8  UNL     1      16.291  32.000  16.912  0.00  0.00    +0.186 C 
ATOM     10  O2  UNL     1      17.229  32.082  16.129  0.00  0.00    -0.287 OA
ATOM     11  C9  UNL     1      15.581  30.721  17.187  0.00  0.00    -0.014 C 
ATOM     12  C10 UNL     1      16.043  29.580  16.652  0.00  0.00    -0.051 C 
ATOM     13  C11 UNL     1      15.407  28.269  16.835  0.00  0.00    -0.024 A 
ATOM     14  C12 UNL     1      14.824  27.881  18.051  0.00  0.00    -0.051 A 
ATOM     15  C13 UNL     1      14.251  26.615  18.193  0.00  0.00    -0.019 A 
ATOM     16  C14 UNL     1      14.267  25.726  17.125  0.00  0.00    +0.131 A 
ATOM     17  O3  UNL     1      13.691  24.503  17.323  0.00  0.00    -0.506 OA
ATOM     18  C15 UNL     1      14.857  26.091  15.916  0.00  0.00    +0.060 A 
ATOM     19 BR1  UNL     1      14.894  24.886  14.454  0.00  0.00    -0.047 Br
ATOM     20  C16 UNL     1      15.431  27.356  15.771  0.00  0.00    -0.037 A 
ATOM     21  H   UNL     1      14.255  37.322  19.193  0.00  0.00    +0.000 HD
ATOM     22  H   UNL     1      13.305  24.295  18.151  0.00  0.00    +0.000 HD
ENDROOT
TORSDOF 0
ENDMDL
MODEL 8
REMARK VINA RESULT:    -3.616     18.449     19.212
REMARK INTER + INTRA:          -3.616
REMARK INTER:                  -3.616
REMARK INTRA:                   0.000
REMARK UNBOUND:                 0.000
REMARK  Name = /home/vital/Documents/PhD_2021/Malaria_codes/scripts/../data/pdbqt_ligands/ligand_168_temp.pdb
REMARK                            x       y       z     vdW  Elec       q    Type
REMARK                         _______ _______ _______ _____ _____    ______ ____
ROOT
ATOM      1  C1  UNL     1      24.228  44.579  18.784  0.00  0.00    -0.039 C 
ATOM      2  C2  UNL     1      23.651  45.624  17.872  0.00  0.00    -0.036 A 
ATOM      3  C3  UNL     1      24.037  45.644  16.521  0.00  0.00    -0.017 A 
ATOM      4  C4  UNL     1      23.534  46.611  15.655  0.00  0.00    +0.117 A 
ATOM      5  O1  UNL     1      23.946  46.572  14.358  0.00  0.00    -0.507 OA
ATOM      6  C5  UNL     1      22.646  47.582  16.104  0.00  0.00    -0.019 A 
ATOM      7  C6  UNL     1      22.258  47.583  17.445  0.00  0.00    -0.047 A 
ATOM      8  C7  UNL     1      22.751  46.606  18.327  0.00  0.00    +0.025 A 
ATOM      9  C8  UNL     1      22.330  46.651  19.752  0.00  0.00    +0.186 C 
ATOM     10  O2  UNL     1      23.158  46.618  20.654  0.00  0.00    -0.287 OA
ATOM     11  C9  UNL     1      20.864  46.713  20.006  0.00  0.00    -0.014 C 
ATOM     12  C10 UNL     1      20.417  46.853  21.264  0.00  0.00    -0.051 C 
ATOM     13  C11 UNL     1      18.996  46.899  21.631  0.00  0.00    -0.024 A 
ATOM     14  C12 UNL     1      18.036  47.547  20.837  0.00  0.00    -0.051 A 
ATOM     15  C13 UNL     1      16.697  47.590  21.234  0.00  0.00    -0.019 A 
ATOM     16  C14 UNL     1      16.312  46.997  22.429  0.00  0.00    +0.131 A 
ATOM     17  O3  UNL     1      14.989  47.070  22.764  0.00  0.00    -0.506 OA
ATOM     18  C15 UNL     1      17.256  46.363  23.236  0.00  0.00    +0.060 A 
ATOM     19 BR1  UNL     1      16.746  45.556  24.874  0.00  0.00    -0.047 Br
ATOM     20  C16 UNL     1      18.595  46.318  22.843  0.00  0.00    -0.037 A 
ATOM     21  H   UNL     1      24.545  45.908  14.076  0.00  0.00    +0.000 HD
ATOM     22  H   UNL     1      14.385  47.505  22.195  0.00  0.00    +0.000 HD
ENDROOT
TORSDOF 0
ENDMDL
MODEL 9
REMARK VINA RESULT:    -3.511      4.772      5.456
REMARK INTER + INTRA:          -3.511
REMARK INTER:                  -3.511
REMARK INTRA:                   0.000
REMARK UNBOUND:                 0.000
REMARK  Name = /home/vital/Documents/PhD_2021/Malaria_codes/scripts/../data/pdbqt_ligands/ligand_168_temp.pdb
REMARK                            x       y       z     vdW  Elec       q    Type
REMARK                         _______ _______ _______ _____ _____    ______ ____
ROOT
ATOM      1  C1  UNL     1      16.332  30.628  22.828  0.00  0.00    -0.039 C 
ATOM      2  C2  UNL     1      15.438  31.471  21.964  0.00  0.00    -0.036 A 
ATOM      3  C3  UNL     1      15.489  32.870  22.084  0.00  0.00    -0.017 A 
ATOM      4  C4  UNL     1      14.660  33.677  21.310  0.00  0.00    +0.117 A 
ATOM      5  O1  UNL     1      14.762  35.026  21.473  0.00  0.00    -0.507 OA
ATOM      6  C5  UNL     1      13.761  33.123  20.407  0.00  0.00    -0.019 A 
ATOM      7  C6  UNL     1      13.690  31.735  20.280  0.00  0.00    -0.047 A 
ATOM      8  C7  UNL     1      14.528  30.909  21.048  0.00  0.00    +0.025 A 
ATOM      9  C8  UNL     1      14.411  29.435  20.900  0.00  0.00    +0.186 C 
ATOM     10  O2  UNL     1      14.275  28.712  21.880  0.00  0.00    -0.287 OA
ATOM     11  C9  UNL     1      14.491  28.902  19.512  0.00  0.00    -0.014 C 
ATOM     12  C10 UNL     1      14.297  27.592  19.294  0.00  0.00    -0.051 C 
ATOM     13  C11 UNL     1      14.379  26.956  17.973  0.00  0.00    -0.024 A 
ATOM     14  C12 UNL     1      13.912  27.584  16.808  0.00  0.00    -0.051 A 
ATOM     15  C13 UNL     1      13.985  26.936  15.572  0.00  0.00    -0.019 A 
ATOM     16  C14 UNL     1      14.515  25.654  15.496  0.00  0.00    +0.131 A 
ATOM     17  O3  UNL     1      14.561  25.071  14.261  0.00  0.00    -0.506 OA
ATOM     18  C15 UNL     1      14.969  25.011  16.647  0.00  0.00    +0.060 A 
ATOM     19 BR1  UNL     1      15.687  23.260  16.559  0.00  0.00    -0.047 Br
ATOM     20  C16 UNL     1      14.897  25.656  17.883  0.00  0.00    -0.037 A 
ATOM     21  H   UNL     1      15.376  35.379  22.087  0.00  0.00    +0.000 HD
ATOM     22  H   UNL     1      14.246  25.536  13.512  0.00  0.00    +0.000 HD
ENDROOT
TORSDOF 0
ENDMDL
