MODEL 1
REMARK VINA RESULT:    -4.187      0.000      0.000
REMARK INTER + INTRA:          -4.187
REMARK INTER:                  -4.187
REMARK INTRA:                   0.000
REMARK UNBOUND:                 0.000
REMARK  Name = /home/vital/Documents/PhD_2021/Malaria_codes/scripts/../data/pdbqt_ligands/ligand_443_temp.pdb
REMARK                            x       y       z     vdW  Elec       q    Type
REMARK                         _______ _______ _______ _____ _____    ______ ____
ROOT
ATOM      1  N   UNL     1      16.013  42.768  33.140  0.00  0.00    -0.326 N 
ATOM      2  C   UNL     1      16.319  43.958  33.922  0.00  0.00    +0.019 C 
ATOM      3  C   UNL     1      15.802  45.219  33.300  0.00  0.00    -0.028 C 
ATOM      4  C   UNL     1      15.519  45.403  32.042  0.00  0.00    -0.116 C 
ATOM      5  C   UNL     1      15.235  45.575  30.782  0.00  0.00    +0.039 C 
ATOM      6  C   UNL     1      13.978  46.190  30.285  0.00  0.00    +0.076 C 
ATOM      7  N   UNL     1      13.979  46.532  28.872  0.00  0.00    -0.260 N 
ATOM      8  C   UNL     1      14.871  46.065  28.078  0.00  0.00    +0.156 C 
ATOM      9  C   UNL     1      14.827  46.428  26.625  0.00  0.00    +0.020 A 
ATOM     10  C   UNL     1      13.795  47.244  26.143  0.00  0.00    -0.050 A 
ATOM     11  C   UNL     1      13.739  47.590  24.790  0.00  0.00    -0.041 A 
ATOM     12  C   UNL     1      14.716  47.124  23.906  0.00  0.00    +0.059 A 
ATOM     13 CL   UNL     1      14.586  47.590  22.248  0.00  0.00    -0.082 Cl
ATOM     14  C   UNL     1      15.750  46.309  24.381  0.00  0.00    +0.060 A 
ATOM     15 CL   UNL     1      16.991  45.697  23.346  0.00  0.00    -0.082 Cl
ATOM     16  C   UNL     1      15.806  45.964  25.736  0.00  0.00    -0.031 A 
ATOM     17  N   UNL     1      15.893  45.238  28.454  0.00  0.00    -0.229 NA
ATOM     18  CA  UNL     1      16.100  45.029  29.717  0.00  0.00    +0.081 C 
ATOM     19  C   UNL     1      17.285  44.131  30.094  0.00  0.00    +0.087 C 
ATOM     20  O   UNL     1      18.222  44.044  29.025  0.00  0.00    -0.389 OA
ATOM     21  H   UNL     1      16.388  41.945  33.612  0.00  0.00    +0.000 HD
ATOM     22  H   UNL     1      16.435  42.851  32.215  0.00  0.00    +0.000 HD
ATOM     23  H   UNL     1      15.002  42.673  33.045  0.00  0.00    +0.000 HD
ATOM     24  H   UNL     1      13.283  47.132  28.519  0.00  0.00    +0.000 HD
ATOM     25  H   UNL     1      17.789  43.661  28.247  0.00  0.00    +0.000 HD
ENDROOT
TORSDOF 0
ENDMDL
MODEL 2
REMARK VINA RESULT:    -3.888      1.215      1.451
REMARK INTER + INTRA:          -3.888
REMARK INTER:                  -3.888
REMARK INTRA:                   0.000
REMARK UNBOUND:                 0.000
REMARK  Name = /home/vital/Documents/PhD_2021/Malaria_codes/scripts/../data/pdbqt_ligands/ligand_443_temp.pdb
REMARK                            x       y       z     vdW  Elec       q    Type
REMARK                         _______ _______ _______ _____ _____    ______ ____
ROOT
ATOM      1  N   UNL     1      16.341  42.224  34.338  0.00  0.00    -0.326 N 
ATOM      2  C   UNL     1      16.465  43.384  35.210  0.00  0.00    +0.019 C 
ATOM      3  C   UNL     1      15.804  44.609  34.655  0.00  0.00    -0.028 C 
ATOM      4  C   UNL     1      15.535  44.845  33.402  0.00  0.00    -0.116 C 
ATOM      5  C   UNL     1      15.267  45.068  32.147  0.00  0.00    +0.039 C 
ATOM      6  C   UNL     1      13.955  45.548  31.646  0.00  0.00    +0.076 C 
ATOM      7  N   UNL     1      13.951  45.988  30.259  0.00  0.00    -0.260 N 
ATOM      8  C   UNL     1      14.920  45.699  29.471  0.00  0.00    +0.156 C 
ATOM      9  C   UNL     1      14.869  46.156  28.044  0.00  0.00    +0.020 A 
ATOM     10  C   UNL     1      13.752  46.863  27.580  0.00  0.00    -0.050 A 
ATOM     11  C   UNL     1      13.690  47.295  26.252  0.00  0.00    -0.041 A 
ATOM     12  C   UNL     1      14.744  47.025  25.376  0.00  0.00    +0.059 A 
ATOM     13 CL   UNL     1      14.602  47.587  23.750  0.00  0.00    -0.082 Cl
ATOM     14  C   UNL     1      15.864  46.319  25.834  0.00  0.00    +0.060 A 
ATOM     15 CL   UNL     1      17.204  45.949  24.807  0.00  0.00    -0.082 Cl
ATOM     16  C   UNL     1      15.925  45.887  27.164  0.00  0.00    -0.031 A 
ATOM     17  N   UNL     1      16.030  44.987  29.828  0.00  0.00    -0.229 NA
ATOM     18  CA  UNL     1      16.227  44.716  31.081  0.00  0.00    +0.081 C 
ATOM     19  C   UNL     1      17.509  43.954  31.441  0.00  0.00    +0.087 C 
ATOM     20  O   UNL     1      18.479  44.067  30.405  0.00  0.00    -0.389 OA
ATOM     21  H   UNL     1      16.808  41.425  34.768  0.00  0.00    +0.000 HD
ATOM     22  H   UNL     1      16.775  42.427  33.438  0.00  0.00    +0.000 HD
ATOM     23  H   UNL     1      15.355  42.006  34.199  0.00  0.00    +0.000 HD
ATOM     24  H   UNL     1      13.192  46.517  29.922  0.00  0.00    +0.000 HD
ATOM     25  H   UNL     1      18.123  43.687  29.587  0.00  0.00    +0.000 HD
ENDROOT
TORSDOF 0
ENDMDL
MODEL 3
REMARK VINA RESULT:    -3.868      3.767      7.107
REMARK INTER + INTRA:          -3.868
REMARK INTER:                  -3.868
REMARK INTRA:                   0.000
REMARK UNBOUND:                 0.000
REMARK  Name = /home/vital/Documents/PhD_2021/Malaria_codes/scripts/../data/pdbqt_ligands/ligand_443_temp.pdb
REMARK                            x       y       z     vdW  Elec       q    Type
REMARK                         _______ _______ _______ _____ _____    ______ ____
ROOT
ATOM      1  N   UNL     1      17.562  47.459  23.185  0.00  0.00    -0.326 N 
ATOM      2  C   UNL     1      16.603  46.668  22.425  0.00  0.00    +0.019 C 
ATOM      3  C   UNL     1      15.379  46.314  23.212  0.00  0.00    -0.028 C 
ATOM      4  C   UNL     1      15.279  46.264  24.511  0.00  0.00    -0.116 C 
ATOM      5  C   UNL     1      15.190  46.221  25.810  0.00  0.00    +0.039 C 
ATOM      6  C   UNL     1      14.096  46.848  26.593  0.00  0.00    +0.076 C 
ATOM      7  N   UNL     1      14.040  46.455  27.992  0.00  0.00    -0.260 N 
ATOM      8  C   UNL     1      15.028  45.860  28.553  0.00  0.00    +0.156 C 
ATOM      9  C   UNL     1      14.937  45.488  30.002  0.00  0.00    +0.020 A 
ATOM     10  C   UNL     1      13.791  45.822  30.735  0.00  0.00    -0.050 A 
ATOM     11  C   UNL     1      13.691  45.482  32.087  0.00  0.00    -0.041 A 
ATOM     12  C   UNL     1      14.737  44.804  32.718  0.00  0.00    +0.059 A 
ATOM     13 CL   UNL     1      14.549  44.416  34.391  0.00  0.00    -0.082 Cl
ATOM     14  C   UNL     1      15.885  44.467  31.992  0.00  0.00    +0.060 A 
ATOM     15 CL   UNL     1      17.217  43.629  32.707  0.00  0.00    -0.082 Cl
ATOM     16  C   UNL     1      15.984  44.807  30.638  0.00  0.00    -0.031 A 
ATOM     17  N   UNL     1      16.195  45.525  27.925  0.00  0.00    -0.229 NA
ATOM     18  CA  UNL     1      16.274  45.652  26.636  0.00  0.00    +0.081 C 
ATOM     19  C   UNL     1      17.586  45.223  25.969  0.00  0.00    +0.087 C 
ATOM     20  O   UNL     1      18.325  44.343  26.811  0.00  0.00    -0.389 OA
ATOM     21  H   UNL     1      18.369  47.668  22.598  0.00  0.00    +0.000 HD
ATOM     22  H   UNL     1      17.864  46.931  24.004  0.00  0.00    +0.000 HD
ATOM     23  H   UNL     1      17.124  48.330  23.484  0.00  0.00    +0.000 HD
ATOM     24  H   UNL     1      13.230  46.649  28.517  0.00  0.00    +0.000 HD
ATOM     25  H   UNL     1      18.543  44.797  27.639  0.00  0.00    +0.000 HD
ENDROOT
TORSDOF 0
ENDMDL
MODEL 4
REMARK VINA RESULT:    -3.762     21.816     22.787
REMARK INTER + INTRA:          -3.762
REMARK INTER:                  -3.762
REMARK INTRA:                   0.000
REMARK UNBOUND:                 0.000
REMARK  Name = /home/vital/Documents/PhD_2021/Malaria_codes/scripts/../data/pdbqt_ligands/ligand_443_temp.pdb
REMARK                            x       y       z     vdW  Elec       q    Type
REMARK                         _______ _______ _______ _____ _____    ______ ____
ROOT
ATOM      1  N   UNL     1      20.902  24.337  23.549  0.00  0.00    -0.326 N 
ATOM      2  C   UNL     1      20.039  23.496  24.368  0.00  0.00    +0.019 C 
ATOM      3  C   UNL     1      18.975  22.799  23.576  0.00  0.00    -0.028 C 
ATOM      4  C   UNL     1      18.505  23.165  22.418  0.00  0.00    -0.116 C 
ATOM      5  C   UNL     1      18.046  23.538  21.257  0.00  0.00    +0.039 C 
ATOM      6  C   UNL     1      17.876  22.630  20.095  0.00  0.00    +0.076 C 
ATOM      7  N   UNL     1      17.102  23.182  18.993  0.00  0.00    -0.260 N 
ATOM      8  C   UNL     1      16.857  24.438  18.921  0.00  0.00    +0.156 C 
ATOM      9  C   UNL     1      16.071  24.969  17.760  0.00  0.00    +0.020 A 
ATOM     10  C   UNL     1      15.643  24.094  16.752  0.00  0.00    -0.050 A 
ATOM     11  C   UNL     1      14.910  24.575  15.663  0.00  0.00    -0.041 A 
ATOM     12  C   UNL     1      14.598  25.933  15.572  0.00  0.00    +0.059 A 
ATOM     13 CL   UNL     1      13.690  26.458  14.200  0.00  0.00    -0.082 Cl
ATOM     14  C   UNL     1      15.021  26.812  16.576  0.00  0.00    +0.060 A 
ATOM     15 CL   UNL     1      14.671  28.504  16.529  0.00  0.00    -0.082 Cl
ATOM     16  C   UNL     1      15.754  26.330  17.667  0.00  0.00    -0.031 A 
ATOM     17  N   UNL     1      17.261  25.366  19.839  0.00  0.00    -0.229 NA
ATOM     18  CA  UNL     1      17.785  24.960  20.954  0.00  0.00    +0.081 C 
ATOM     19  C   UNL     1      18.183  26.034  21.974  0.00  0.00    +0.087 C 
ATOM     20  O   UNL     1      17.504  27.259  21.719  0.00  0.00    -0.389 OA
ATOM     21  H   UNL     1      21.603  24.783  24.141  0.00  0.00    +0.000 HD
ATOM     22  H   UNL     1      20.340  25.053  23.089  0.00  0.00    +0.000 HD
ATOM     23  H   UNL     1      21.366  23.764  22.845  0.00  0.00    +0.000 HD
ATOM     24  H   UNL     1      16.762  22.580  18.292  0.00  0.00    +0.000 HD
ATOM     25  H   UNL     1      17.739  27.581  20.835  0.00  0.00    +0.000 HD
ENDROOT
TORSDOF 0
ENDMDL
MODEL 5
REMARK VINA RESULT:    -3.760     20.599     22.638
REMARK INTER + INTRA:          -3.760
REMARK INTER:                  -3.760
REMARK INTRA:                   0.000
REMARK UNBOUND:                 0.000
REMARK  Name = /home/vital/Documents/PhD_2021/Malaria_codes/scripts/../data/pdbqt_ligands/ligand_443_temp.pdb
REMARK                            x       y       z     vdW  Elec       q    Type
REMARK                         _______ _______ _______ _____ _____    ______ ____
ROOT
ATOM      1  N   UNL     1      16.661  34.498  14.757  0.00  0.00    -0.326 N 
ATOM      2  C   UNL     1      16.894  34.605  13.323  0.00  0.00    +0.019 C 
ATOM      3  C   UNL     1      16.384  33.425  12.555  0.00  0.00    -0.028 C 
ATOM      4  C   UNL     1      16.168  32.228  13.024  0.00  0.00    -0.116 C 
ATOM      5  C   UNL     1      15.951  31.037  13.504  0.00  0.00    +0.039 C 
ATOM      6  C   UNL     1      14.710  30.256  13.273  0.00  0.00    +0.076 C 
ATOM      7  N   UNL     1      14.783  28.858  13.667  0.00  0.00    -0.260 N 
ATOM      8  C   UNL     1      15.729  28.430  14.420  0.00  0.00    +0.156 C 
ATOM      9  C   UNL     1      15.758  26.986  14.818  0.00  0.00    +0.020 A 
ATOM     10  C   UNL     1      14.736  26.127  14.393  0.00  0.00    -0.050 A 
ATOM     11  C   UNL     1      14.748  24.777  14.756  0.00  0.00    -0.041 A 
ATOM     12  C   UNL     1      15.783  24.274  15.547  0.00  0.00    +0.059 A 
ATOM     13 CL   UNL     1      15.737  22.598  15.960  0.00  0.00    -0.082 Cl
ATOM     14  C   UNL     1      16.809  25.126  15.975  0.00  0.00    +0.060 A 
ATOM     15 CL   UNL     1      18.120  24.573  16.955  0.00  0.00    -0.082 Cl
ATOM     16  C   UNL     1      16.796  26.477  15.610  0.00  0.00    -0.031 A 
ATOM     17  N   UNL     1      16.747  29.202  14.906  0.00  0.00    -0.229 NA
ATOM     18  CA  UNL     1      16.888  30.412  14.460  0.00  0.00    +0.081 C 
ATOM     19  C   UNL     1      18.070  31.225  15.001  0.00  0.00    +0.087 C 
ATOM     20  O   UNL     1      19.067  30.373  15.554  0.00  0.00    -0.389 OA
ATOM     21  H   UNL     1      17.028  35.327  15.224  0.00  0.00    +0.000 HD
ATOM     22  H   UNL     1      17.132  33.668  15.117  0.00  0.00    +0.000 HD
ATOM     23  H   UNL     1      15.659  34.424  14.934  0.00  0.00    +0.000 HD
ATOM     24  H   UNL     1      14.094  28.230  13.351  0.00  0.00    +0.000 HD
ATOM     25  H   UNL     1      18.688  29.868  16.290  0.00  0.00    +0.000 HD
ENDROOT
TORSDOF 0
ENDMDL
MODEL 6
REMARK VINA RESULT:    -3.738     18.647     20.666
REMARK INTER + INTRA:          -3.738
REMARK INTER:                  -3.738
REMARK INTRA:                   0.000
REMARK UNBOUND:                 0.000
REMARK  Name = /home/vital/Documents/PhD_2021/Malaria_codes/scripts/../data/pdbqt_ligands/ligand_443_temp.pdb
REMARK                            x       y       z     vdW  Elec       q    Type
REMARK                         _______ _______ _______ _____ _____    ______ ____
ROOT
ATOM      1  N   UNL     1      15.452  36.374  16.222  0.00  0.00    -0.326 N 
ATOM      2  C   UNL     1      16.896  36.528  16.106  0.00  0.00    +0.019 C 
ATOM      3  C   UNL     1      17.540  35.439  15.304  0.00  0.00    -0.028 C 
ATOM      4  C   UNL     1      17.060  34.248  15.087  0.00  0.00    -0.116 C 
ATOM      5  C   UNL     1      16.568  33.060  14.873  0.00  0.00    +0.039 C 
ATOM      6  C   UNL     1      16.501  32.412  13.539  0.00  0.00    +0.076 C 
ATOM      7  N   UNL     1      16.170  30.996  13.561  0.00  0.00    -0.260 N 
ATOM      8  C   UNL     1      15.687  30.445  14.614  0.00  0.00    +0.156 C 
ATOM      9  C   UNL     1      15.342  28.987  14.589  0.00  0.00    +0.020 A 
ATOM     10  C   UNL     1      15.519  28.250  13.411  0.00  0.00    -0.050 A 
ATOM     11  C   UNL     1      15.201  26.889  13.373  0.00  0.00    -0.041 A 
ATOM     12  C   UNL     1      14.704  26.253  14.513  0.00  0.00    +0.059 A 
ATOM     13 CL   UNL     1      14.332  24.571  14.396  0.00  0.00    -0.082 Cl
ATOM     14  C   UNL     1      14.526  26.983  15.694  0.00  0.00    +0.060 A 
ATOM     15 CL   UNL     1      13.915  26.262  17.141  0.00  0.00    -0.082 Cl
ATOM     16  C   UNL     1      14.845  28.345  15.732  0.00  0.00    -0.031 A 
ATOM     17  N   UNL     1      15.451  31.093  15.794  0.00  0.00    -0.229 NA
ATOM     18  CA  UNL     1      15.890  32.304  15.945  0.00  0.00    +0.081 C 
ATOM     19  C   UNL     1      15.642  32.976  17.302  0.00  0.00    +0.087 C 
ATOM     20  O   UNL     1      15.374  32.007  18.311  0.00  0.00    -0.389 OA
ATOM     21  H   UNL     1      15.072  37.141  16.776  0.00  0.00    +0.000 HD
ATOM     22  H   UNL     1      15.240  35.487  16.679  0.00  0.00    +0.000 HD
ATOM     23  H   UNL     1      15.033  36.387  15.292  0.00  0.00    +0.000 HD
ATOM     24  H   UNL     1      16.319  30.451  12.754  0.00  0.00    +0.000 HD
ATOM     25  H   UNL     1      14.579  31.505  18.073  0.00  0.00    +0.000 HD
ENDROOT
TORSDOF 0
ENDMDL
MODEL 7
REMARK VINA RESULT:    -3.736     19.221     20.110
REMARK INTER + INTRA:          -3.736
REMARK INTER:                  -3.736
REMARK INTRA:                   0.000
REMARK UNBOUND:                 0.000
REMARK  Name = /home/vital/Documents/PhD_2021/Malaria_codes/scripts/../data/pdbqt_ligands/ligand_443_temp.pdb
REMARK                            x       y       z     vdW  Elec       q    Type
REMARK                         _______ _______ _______ _____ _____    ______ ____
ROOT
ATOM      1  N   UNL     1      14.825  30.195  24.960  0.00  0.00    -0.326 N 
ATOM      2  C   UNL     1      15.833  31.203  24.662  0.00  0.00    +0.019 C 
ATOM      3  C   UNL     1      15.981  31.470  23.195  0.00  0.00    -0.028 C 
ATOM      4  C   UNL     1      15.653  30.666  22.224  0.00  0.00    -0.116 C 
ATOM      5  C   UNL     1      15.318  29.856  21.260  0.00  0.00    +0.039 C 
ATOM      6  C   UNL     1      14.524  30.256  20.071  0.00  0.00    +0.076 C 
ATOM      7  N   UNL     1      14.493  29.277  18.996  0.00  0.00    -0.260 N 
ATOM      8  C   UNL     1      14.866  28.065  19.193  0.00  0.00    +0.156 C 
ATOM      9  C   UNL     1      14.801  27.082  18.064  0.00  0.00    +0.020 A 
ATOM     10  C   UNL     1      14.305  27.487  16.817  0.00  0.00    -0.050 A 
ATOM     11  C   UNL     1      14.238  26.581  15.755  0.00  0.00    -0.041 A 
ATOM     12  C   UNL     1      14.668  25.263  15.928  0.00  0.00    +0.059 A 
ATOM     13 CL   UNL     1      14.556  24.197  14.574  0.00  0.00    -0.082 Cl
ATOM     14  C   UNL     1      15.165  24.853  17.171  0.00  0.00    +0.060 A 
ATOM     15 CL   UNL     1      15.714  23.239  17.458  0.00  0.00    -0.082 Cl
ATOM     16  C   UNL     1      15.233  25.760  18.234  0.00  0.00    -0.031 A 
ATOM     17  N   UNL     1      15.331  27.576  20.381  0.00  0.00    -0.229 NA
ATOM     18  CA  UNL     1      15.584  28.406  21.347  0.00  0.00    +0.081 C 
ATOM     19  C   UNL     1      16.147  27.818  22.646  0.00  0.00    +0.087 C 
ATOM     20  O   UNL     1      16.718  26.533  22.422  0.00  0.00    -0.389 OA
ATOM     21  H   UNL     1      14.769  30.057  25.969  0.00  0.00    +0.000 HD
ATOM     22  H   UNL     1      15.080  29.316  24.511  0.00  0.00    +0.000 HD
ATOM     23  H   UNL     1      13.919  30.506  24.610  0.00  0.00    +0.000 HD
ATOM     24  H   UNL     1      14.181  29.548  18.103  0.00  0.00    +0.000 HD
ATOM     25  H   UNL     1      16.036  25.930  22.090  0.00  0.00    +0.000 HD
ENDROOT
TORSDOF 0
ENDMDL
MODEL 8
REMARK VINA RESULT:    -3.575     19.027     20.816
REMARK INTER + INTRA:          -3.575
REMARK INTER:                  -3.575
REMARK INTRA:                   0.000
REMARK UNBOUND:                 0.000
REMARK  Name = /home/vital/Documents/PhD_2021/Malaria_codes/scripts/../data/pdbqt_ligands/ligand_443_temp.pdb
REMARK                            x       y       z     vdW  Elec       q    Type
REMARK                         _______ _______ _______ _____ _____    ______ ____
ROOT
ATOM      1  N   UNL     1      16.155  24.622  15.560  0.00  0.00    -0.326 N 
ATOM      2  C   UNL     1      14.908  24.366  14.853  0.00  0.00    +0.019 C 
ATOM      3  C   UNL     1      14.493  25.499  13.964  0.00  0.00    -0.028 C 
ATOM      4  C   UNL     1      14.858  26.745  14.075  0.00  0.00    -0.116 C 
ATOM      5  C   UNL     1      15.231  27.987  14.193  0.00  0.00    +0.039 C 
ATOM      6  C   UNL     1      15.731  28.820  13.070  0.00  0.00    +0.076 C 
ATOM      7  N   UNL     1      15.836  30.241  13.358  0.00  0.00    -0.260 N 
ATOM      8  C   UNL     1      15.788  30.677  14.563  0.00  0.00    +0.156 C 
ATOM      9  C   UNL     1      15.917  32.148  14.819  0.00  0.00    +0.020 A 
ATOM     10  C   UNL     1      16.122  33.026  13.746  0.00  0.00    -0.050 A 
ATOM     11  C   UNL     1      16.246  34.400  13.969  0.00  0.00    -0.041 A 
ATOM     12  C   UNL     1      16.164  34.910  15.267  0.00  0.00    +0.059 A 
ATOM     13 CL   UNL     1      16.326  36.617  15.471  0.00  0.00    -0.082 Cl
ATOM     14  C   UNL     1      15.958  34.039  16.344  0.00  0.00    +0.060 A 
ATOM     15 CL   UNL     1      15.848  34.599  17.975  0.00  0.00    -0.082 Cl
ATOM     16  C   UNL     1      15.834  32.663  16.120  0.00  0.00    -0.031 A 
ATOM     17  N   UNL     1      15.623  29.893  15.670  0.00  0.00    -0.229 NA
ATOM     18  CA  UNL     1      15.325  28.640  15.515  0.00  0.00    +0.081 C 
ATOM     19  C   UNL     1      15.106  27.809  16.784  0.00  0.00    +0.087 C 
ATOM     20  O   UNL     1      14.824  28.645  17.902  0.00  0.00    -0.389 OA
ATOM     21  H   UNL     1      16.384  23.819  16.146  0.00  0.00    +0.000 HD
ATOM     22  H   UNL     1      16.050  25.451  16.145  0.00  0.00    +0.000 HD
ATOM     23  H   UNL     1      16.904  24.775  14.885  0.00  0.00    +0.000 HD
ATOM     24  H   UNL     1      15.946  30.879  12.616  0.00  0.00    +0.000 HD
ATOM     25  H   UNL     1      15.573  29.240  18.057  0.00  0.00    +0.000 HD
ENDROOT
TORSDOF 0
ENDMDL
MODEL 9
REMARK VINA RESULT:    -3.438      2.061      2.134
REMARK INTER + INTRA:          -3.438
REMARK INTER:                  -3.438
REMARK INTRA:                   0.000
REMARK UNBOUND:                 0.000
REMARK  Name = /home/vital/Documents/PhD_2021/Malaria_codes/scripts/../data/pdbqt_ligands/ligand_443_temp.pdb
REMARK                            x       y       z     vdW  Elec       q    Type
REMARK                         _______ _______ _______ _____ _____    ______ ____
ROOT
ATOM      1  N   UNL     1      13.793  42.287  34.359  0.00  0.00    -0.326 N 
ATOM      2  C   UNL     1      14.972  42.971  34.872  0.00  0.00    +0.019 C 
ATOM      3  C   UNL     1      15.324  44.201  34.093  0.00  0.00    -0.028 C 
ATOM      4  C   UNL     1      14.986  44.461  32.861  0.00  0.00    -0.116 C 
ATOM      5  C   UNL     1      14.640  44.714  31.631  0.00  0.00    +0.039 C 
ATOM      6  C   UNL     1      14.056  46.000  31.175  0.00  0.00    +0.076 C 
ATOM      7  N   UNL     1      13.994  46.168  29.731  0.00  0.00    -0.260 N 
ATOM      8  C   UNL     1      14.150  45.170  28.942  0.00  0.00    +0.156 C 
ATOM      9  C   UNL     1      14.061  45.382  27.461  0.00  0.00    +0.020 A 
ATOM     10  C   UNL     1      13.777  46.659  26.957  0.00  0.00    -0.050 A 
ATOM     11  C   UNL     1      13.690  46.872  25.578  0.00  0.00    -0.041 A 
ATOM     12  C   UNL     1      13.888  45.812  24.691  0.00  0.00    +0.059 A 
ATOM     13 CL   UNL     1      13.766  46.145  23.000  0.00  0.00    -0.082 Cl
ATOM     14  C   UNL     1      14.174  44.534  25.187  0.00  0.00    +0.060 A 
ATOM     15 CL   UNL     1      14.430  43.177  24.149  0.00  0.00    -0.082 Cl
ATOM     16  C   UNL     1      14.261  44.321  26.568  0.00  0.00    -0.031 A 
ATOM     17  N   UNL     1      14.398  43.888  29.345  0.00  0.00    -0.229 NA
ATOM     18  CA  UNL     1      14.667  43.663  30.594  0.00  0.00    +0.081 C 
ATOM     19  C   UNL     1      14.983  42.216  30.993  0.00  0.00    +0.087 C 
ATOM     20  O   UNL     1      15.369  41.445  29.860  0.00  0.00    -0.389 OA
ATOM     21  H   UNL     1      13.604  41.462  34.928  0.00  0.00    +0.000 HD
ATOM     22  H   UNL     1      13.958  42.004  33.394  0.00  0.00    +0.000 HD
ATOM     23  H   UNL     1      12.991  42.916  34.397  0.00  0.00    +0.000 HD
ATOM     24  H   UNL     1      13.830  47.063  29.355  0.00  0.00    +0.000 HD
ATOM     25  H   UNL     1      14.643  41.428  29.218  0.00  0.00    +0.000 HD
ENDROOT
TORSDOF 0
ENDMDL
