MODEL 1
REMARK VINA RESULT:    -3.440      0.000      0.000
REMARK INTER + INTRA:          -3.440
REMARK INTER:                  -3.440
REMARK INTRA:                   0.000
REMARK UNBOUND:                 0.000
REMARK  Name = /home/vital/Documents/PhD_2021/Malaria_codes/scripts/../data/pdbqt_ligands/ligand_339_temp.pdb
REMARK                            x       y       z     vdW  Elec       q    Type
REMARK                         _______ _______ _______ _____ _____    ______ ____
ROOT
ATOM      1  C1  UNL     1      13.767  27.546  16.337  0.00  0.00    -0.016 C 
ATOM      2  C2  UNL     1      13.771  28.102  15.161  0.00  0.00    -0.001 C 
ATOM      3  C3  UNL     1      14.697  27.800  14.092  0.00  0.00    -0.053 C 
ATOM      4  C4  UNL     1      15.054  26.608  13.589  0.00  0.00    -0.060 C 
ATOM      5  C5  UNL     1      14.627  25.304  14.034  0.00  0.00    -0.044 C 
ATOM      6  C6  UNL     1      15.198  24.611  15.029  0.00  0.00    +0.029 C 
ATOM      7  N1  UNL     1      16.291  25.024  15.732  0.00  0.00    -0.248 NA
ATOM      8  C7  UNL     1      16.163  25.214  17.000  0.00  0.00    +0.083 C 
ATOM      9  N2  UNL     1      15.112  25.169  17.888  0.00  0.00    -0.316 N 
ATOM     10  C8  UNL     1      13.795  25.676  17.561  0.00  0.00    +0.112 C 
ATOM     11  N3  UNL     1      13.728  27.134  17.436  0.00  0.00    -0.223 N 
ATOM     12  H   UNL     1      15.261  24.777  18.779  0.00  0.00    +0.000 HD
ATOM     13  H   UNL     1      13.654  27.727  18.219  0.00  0.00    +0.000 HD
ENDROOT
TORSDOF 0
ENDMDL
MODEL 2
REMARK VINA RESULT:    -3.209      1.572      2.996
REMARK INTER + INTRA:          -3.209
REMARK INTER:                  -3.209
REMARK INTRA:                   0.000
REMARK UNBOUND:                 0.000
REMARK  Name = /home/vital/Documents/PhD_2021/Malaria_codes/scripts/../data/pdbqt_ligands/ligand_339_temp.pdb
REMARK                            x       y       z     vdW  Elec       q    Type
REMARK                         _______ _______ _______ _____ _____    ______ ____
ROOT
ATOM      1  C1  UNL     1      16.684  27.579  14.715  0.00  0.00    -0.016 C 
ATOM      2  C2  UNL     1      16.117  28.738  14.540  0.00  0.00    -0.001 C 
ATOM      3  C3  UNL     1      14.695  28.966  14.410  0.00  0.00    -0.053 C 
ATOM      4  C4  UNL     1      13.690  28.532  15.188  0.00  0.00    -0.060 C 
ATOM      5  C5  UNL     1      13.783  27.673  16.343  0.00  0.00    -0.044 C 
ATOM      6  C6  UNL     1      13.801  26.333  16.299  0.00  0.00    +0.029 C 
ATOM      7  N1  UNL     1      13.690  25.594  15.159  0.00  0.00    -0.248 NA
ATOM      8  C7  UNL     1      14.674  24.829  14.832  0.00  0.00    +0.083 C 
ATOM      9  N2  UNL     1      15.933  24.594  15.339  0.00  0.00    -0.316 N 
ATOM     10  C8  UNL     1      16.776  25.656  15.849  0.00  0.00    +0.112 C 
ATOM     11  N3  UNL     1      17.276  26.571  14.821  0.00  0.00    -0.223 N 
ATOM     12  H   UNL     1      16.273  23.670  15.355  0.00  0.00    +0.000 HD
ATOM     13  H   UNL     1      18.055  26.356  14.259  0.00  0.00    +0.000 HD
ENDROOT
TORSDOF 0
ENDMDL
MODEL 3
REMARK VINA RESULT:    -3.110      0.936      2.947
REMARK INTER + INTRA:          -3.110
REMARK INTER:                  -3.110
REMARK INTRA:                   0.000
REMARK UNBOUND:                 0.000
REMARK  Name = /home/vital/Documents/PhD_2021/Malaria_codes/scripts/../data/pdbqt_ligands/ligand_339_temp.pdb
REMARK                            x       y       z     vdW  Elec       q    Type
REMARK                         _______ _______ _______ _____ _____    ______ ____
ROOT
ATOM      1  C1  UNL     1      15.384  25.045  15.275  0.00  0.00    -0.016 C 
ATOM      2  C2  UNL     1      14.731  25.497  14.244  0.00  0.00    -0.001 C 
ATOM      3  C3  UNL     1      13.690  26.499  14.283  0.00  0.00    -0.053 C 
ATOM      4  C4  UNL     1      13.692  27.704  14.876  0.00  0.00    -0.060 C 
ATOM      5  C5  UNL     1      14.740  28.284  15.679  0.00  0.00    -0.044 C 
ATOM      6  C6  UNL     1      14.900  28.076  16.993  0.00  0.00    +0.029 C 
ATOM      7  N1  UNL     1      14.068  27.319  17.764  0.00  0.00    -0.248 NA
ATOM      8  C7  UNL     1      14.557  26.277  18.343  0.00  0.00    +0.083 C 
ATOM      9  N2  UNL     1      15.779  25.642  18.333  0.00  0.00    -0.316 N 
ATOM     10  C8  UNL     1      16.560  25.480  17.125  0.00  0.00    +0.112 C 
ATOM     11  N3  UNL     1      15.981  24.548  16.155  0.00  0.00    -0.223 N 
ATOM     12  H   UNL     1      16.134  25.285  19.179  0.00  0.00    +0.000 HD
ATOM     13  H   UNL     1      16.085  23.572  16.236  0.00  0.00    +0.000 HD
ENDROOT
TORSDOF 0
ENDMDL
MODEL 4
REMARK VINA RESULT:    -3.088      1.655      3.417
REMARK INTER + INTRA:          -3.088
REMARK INTER:                  -3.088
REMARK INTRA:                   0.000
REMARK UNBOUND:                 0.000
REMARK  Name = /home/vital/Documents/PhD_2021/Malaria_codes/scripts/../data/pdbqt_ligands/ligand_339_temp.pdb
REMARK                            x       y       z     vdW  Elec       q    Type
REMARK                         _______ _______ _______ _____ _____    ______ ____
ROOT
ATOM      1  C1  UNL     1      14.713  26.289  14.254  0.00  0.00    -0.016 C 
ATOM      2  C2  UNL     1      14.836  24.995  14.311  0.00  0.00    -0.001 C 
ATOM      3  C3  UNL     1      15.353  24.249  15.438  0.00  0.00    -0.053 C 
ATOM      4  C4  UNL     1      15.015  24.328  16.735  0.00  0.00    -0.060 C 
ATOM      5  C5  UNL     1      14.067  25.230  17.342  0.00  0.00    -0.044 C 
ATOM      6  C6  UNL     1      14.350  26.476  17.748  0.00  0.00    +0.029 C 
ATOM      7  N1  UNL     1      15.585  27.049  17.683  0.00  0.00    -0.248 NA
ATOM      8  C7  UNL     1      15.729  28.103  16.954  0.00  0.00    +0.083 C 
ATOM      9  N2  UNL     1      14.913  28.817  16.107  0.00  0.00    -0.316 N 
ATOM     10  C8  UNL     1      13.982  28.176  15.201  0.00  0.00    +0.112 C 
ATOM     11  N3  UNL     1      14.618  27.449  14.101  0.00  0.00    -0.223 N 
ATOM     12  H   UNL     1      14.964  29.801  16.116  0.00  0.00    +0.000 HD
ATOM     13  H   UNL     1      14.944  27.901  13.289  0.00  0.00    +0.000 HD
ENDROOT
TORSDOF 0
ENDMDL
MODEL 5
REMARK VINA RESULT:    -3.087      2.313      2.833
REMARK INTER + INTRA:          -3.087
REMARK INTER:                  -3.087
REMARK INTRA:                   0.000
REMARK UNBOUND:                 0.000
REMARK  Name = /home/vital/Documents/PhD_2021/Malaria_codes/scripts/../data/pdbqt_ligands/ligand_339_temp.pdb
REMARK                            x       y       z     vdW  Elec       q    Type
REMARK                         _______ _______ _______ _____ _____    ______ ____
ROOT
ATOM      1  C1  UNL     1      14.698  28.458  15.637  0.00  0.00    -0.016 C 
ATOM      2  C2  UNL     1      13.695  27.727  15.243  0.00  0.00    -0.001 C 
ATOM      3  C3  UNL     1      13.775  26.623  14.313  0.00  0.00    -0.053 C 
ATOM      4  C4  UNL     1      14.610  25.572  14.311  0.00  0.00    -0.060 C 
ATOM      5  C5  UNL     1      15.689  25.307  15.232  0.00  0.00    -0.044 C 
ATOM      6  C6  UNL     1      16.932  25.792  15.113  0.00  0.00    +0.029 C 
ATOM      7  N1  UNL     1      17.364  26.570  14.079  0.00  0.00    -0.248 NA
ATOM      8  C7  UNL     1      17.774  27.762  14.345  0.00  0.00    +0.083 C 
ATOM      9  N2  UNL     1      17.833  28.539  15.480  0.00  0.00    -0.316 N 
ATOM     10  C8  UNL     1      16.771  28.560  16.464  0.00  0.00    +0.112 C 
ATOM     11  N3  UNL     1      15.536  29.195  16.001  0.00  0.00    -0.223 N 
ATOM     12  H   UNL     1      18.628  29.102  15.628  0.00  0.00    +0.000 HD
ATOM     13  H   UNL     1      15.416  30.172  15.995  0.00  0.00    +0.000 HD
ENDROOT
TORSDOF 0
ENDMDL
MODEL 6
REMARK VINA RESULT:    -3.024      1.700      4.013
REMARK INTER + INTRA:          -3.024
REMARK INTER:                  -3.024
REMARK INTRA:                   0.000
REMARK UNBOUND:                 0.000
REMARK  Name = /home/vital/Documents/PhD_2021/Malaria_codes/scripts/../data/pdbqt_ligands/ligand_339_temp.pdb
REMARK                            x       y       z     vdW  Elec       q    Type
REMARK                         _______ _______ _______ _____ _____    ______ ____
ROOT
ATOM      1  C1  UNL     1      15.127  24.117  15.110  0.00  0.00    -0.016 C 
ATOM      2  C2  UNL     1      15.704  23.414  16.042  0.00  0.00    -0.001 C 
ATOM      3  C3  UNL     1      16.440  23.951  17.164  0.00  0.00    -0.053 C 
ATOM      4  C4  UNL     1      16.083  24.910  18.034  0.00  0.00    -0.060 C 
ATOM      5  C5  UNL     1      14.869  25.690  18.031  0.00  0.00    -0.044 C 
ATOM      6  C6  UNL     1      14.685  26.814  17.325  0.00  0.00    +0.029 C 
ATOM      7  N1  UNL     1      15.635  27.401  16.543  0.00  0.00    -0.248 NA
ATOM      8  C7  UNL     1      15.401  27.509  15.280  0.00  0.00    +0.083 C 
ATOM      9  N2  UNL     1      14.393  27.096  14.439  0.00  0.00    -0.316 N 
ATOM     10  C8  UNL     1      13.761  25.798  14.563  0.00  0.00    +0.112 C 
ATOM     11  N3  UNL     1      14.626  24.672  14.205  0.00  0.00    -0.223 N 
ATOM     12  H   UNL     1      14.090  27.705  13.727  0.00  0.00    +0.000 HD
ATOM     13  H   UNL     1      14.778  24.401  13.271  0.00  0.00    +0.000 HD
ENDROOT
TORSDOF 0
ENDMDL
MODEL 7
REMARK VINA RESULT:    -2.880      1.382      1.928
REMARK INTER + INTRA:          -2.880
REMARK INTER:                  -2.880
REMARK INTRA:                   0.000
REMARK UNBOUND:                 0.000
REMARK  Name = /home/vital/Documents/PhD_2021/Malaria_codes/scripts/../data/pdbqt_ligands/ligand_339_temp.pdb
REMARK                            x       y       z     vdW  Elec       q    Type
REMARK                         _______ _______ _______ _____ _____    ______ ____
ROOT
ATOM      1  C1  UNL     1      14.818  27.626  17.500  0.00  0.00    -0.016 C 
ATOM      2  C2  UNL     1      14.757  28.849  17.059  0.00  0.00    -0.001 C 
ATOM      3  C3  UNL     1      15.038  29.268  15.704  0.00  0.00    -0.053 C 
ATOM      4  C4  UNL     1      14.572  28.771  14.547  0.00  0.00    -0.060 C 
ATOM      5  C5  UNL     1      13.693  27.641  14.368  0.00  0.00    -0.044 C 
ATOM      6  C6  UNL     1      14.095  26.364  14.297  0.00  0.00    +0.029 C 
ATOM      7  N1  UNL     1      15.396  25.959  14.340  0.00  0.00    -0.248 NA
ATOM      8  C7  UNL     1      15.762  25.192  15.309  0.00  0.00    +0.083 C 
ATOM      9  N2  UNL     1      15.150  24.690  16.435  0.00  0.00    -0.316 N 
ATOM     10  C8  UNL     1      14.248  25.480  17.247  0.00  0.00    +0.112 C 
ATOM     11  N3  UNL     1      14.899  26.561  17.989  0.00  0.00    -0.223 N 
ATOM     12  H   UNL     1      15.333  23.758  16.699  0.00  0.00    +0.000 HD
ATOM     13  H   UNL     1      15.372  26.407  18.839  0.00  0.00    +0.000 HD
ENDROOT
TORSDOF 0
ENDMDL
MODEL 8
REMARK VINA RESULT:    -2.874      1.463      2.229
REMARK INTER + INTRA:          -2.874
REMARK INTER:                  -2.874
REMARK INTRA:                   0.000
REMARK UNBOUND:                 0.000
REMARK  Name = /home/vital/Documents/PhD_2021/Malaria_codes/scripts/../data/pdbqt_ligands/ligand_339_temp.pdb
REMARK                            x       y       z     vdW  Elec       q    Type
REMARK                         _______ _______ _______ _____ _____    ______ ____
ROOT
ATOM      1  C1  UNL     1      15.294  26.732  17.586  0.00  0.00    -0.016 C 
ATOM      2  C2  UNL     1      14.209  27.349  17.218  0.00  0.00    -0.001 C 
ATOM      3  C3  UNL     1      13.912  27.798  15.877  0.00  0.00    -0.053 C 
ATOM      4  C4  UNL     1      13.984  27.122  14.719  0.00  0.00    -0.060 C 
ATOM      5  C5  UNL     1      14.431  25.764  14.522  0.00  0.00    -0.044 C 
ATOM      6  C6  UNL     1      15.710  25.397  14.358  0.00  0.00    +0.029 C 
ATOM      7  N1  UNL     1      16.763  26.261  14.312  0.00  0.00    -0.248 NA
ATOM      8  C7  UNL     1      17.675  26.156  15.217  0.00  0.00    +0.083 C 
ATOM      9  N2  UNL     1      17.843  25.382  16.343  0.00  0.00    -0.316 N 
ATOM     10  C8  UNL     1      16.752  25.073  17.243  0.00  0.00    +0.112 C 
ATOM     11  N3  UNL     1      16.262  26.220  18.010  0.00  0.00    -0.223 N 
ATOM     12  H   UNL     1      18.739  25.026  16.544  0.00  0.00    +0.000 HD
ATOM     13  H   UNL     1      16.714  26.540  18.825  0.00  0.00    +0.000 HD
ENDROOT
TORSDOF 0
ENDMDL
MODEL 9
REMARK VINA RESULT:    -0.659      2.333      3.965
REMARK INTER + INTRA:          -0.659
REMARK INTER:                  -0.659
REMARK INTRA:                   0.000
REMARK UNBOUND:                 0.000
REMARK  Name = /home/vital/Documents/PhD_2021/Malaria_codes/scripts/../data/pdbqt_ligands/ligand_339_temp.pdb
REMARK                            x       y       z     vdW  Elec       q    Type
REMARK                         _______ _______ _______ _____ _____    ______ ____
ROOT
ATOM      1  C1  UNL     1      17.224  27.763  14.637  0.00  0.00    -0.016 C 
ATOM      2  C2  UNL     1      17.634  26.596  15.040  0.00  0.00    -0.001 C 
ATOM      3  C3  UNL     1      16.817  25.599  15.695  0.00  0.00    -0.053 C 
ATOM      4  C4  UNL     1      15.618  25.113  15.335  0.00  0.00    -0.060 C 
ATOM      5  C5  UNL     1      14.813  25.511  14.206  0.00  0.00    -0.044 C 
ATOM      6  C6  UNL     1      13.955  26.540  14.204  0.00  0.00    +0.029 C 
ATOM      7  N1  UNL     1      13.690  27.329  15.284  0.00  0.00    -0.248 NA
ATOM      8  C7  UNL     1      13.966  28.585  15.201  0.00  0.00    +0.083 C 
ATOM      9  N2  UNL     1      14.564  29.389  14.257  0.00  0.00    -0.316 N 
ATOM     10  C8  UNL     1      15.723  28.966  13.499  0.00  0.00    +0.112 C 
ATOM     11  N3  UNL     1      16.950  28.851  14.291  0.00  0.00    -0.223 N 
ATOM     12  H   UNL     1      14.190  30.285  14.092  0.00  0.00    +0.000 HD
ATOM     13  H   UNL     1      17.505  29.632  14.518  0.00  0.00    +0.000 HD
ENDROOT
TORSDOF 0
ENDMDL
