MODEL 1
REMARK VINA RESULT:    -4.207      0.000      0.000
REMARK INTER + INTRA:          -4.207
REMARK INTER:                  -4.207
REMARK INTRA:                   0.000
REMARK UNBOUND:                 0.000
REMARK  Name = /home/vital/Documents/PhD_2021/Malaria_codes/scripts/../data/pdbqt_ligands/ligand_472_temp.pdb
REMARK                            x       y       z     vdW  Elec       q    Type
REMARK                         _______ _______ _______ _____ _____    ______ ____
ROOT
ATOM      1  C   UNL     1      14.653  24.613  14.337  0.00  0.00    -0.047 C 
ATOM      2  C   UNL     1      13.703  25.759  14.204  0.00  0.00    -0.089 C 
ATOM      3  C   UNL     1      13.690  26.897  14.918  0.00  0.00    -0.064 C 
ATOM      4  C   UNL     1      14.649  27.317  16.000  0.00  0.00    +0.079 C 
ATOM      5  C   UNL     1      14.001  27.198  17.363  0.00  0.00    +0.029 C 
ATOM      6  C   UNL     1      15.010  27.775  18.316  0.00  0.00    +0.101 C 
ATOM      7  N   UNL     1      15.123  27.176  19.553  0.00  0.00    -0.330 N 
ATOM      8  C   UNL     1      15.763  27.845  20.679  0.00  0.00    +0.033 C 
ATOM      9  C   UNL     1      14.748  28.727  21.411  0.00  0.00    +0.060 C 
ATOM     10  O   UNL     1      13.690  27.925  21.945  0.00  0.00    -0.393 OA
ATOM     11  N   UNL     1      15.720  28.804  17.973  0.00  0.00    -0.204 N 
ATOM     12  C   UNL     1      15.526  29.368  16.734  0.00  0.00    +0.217 C 
ATOM     13  N   UNL     1      15.942  30.669  16.661  0.00  0.00    -0.284 N 
ATOM     14  C   UNL     1      15.985  31.573  15.589  0.00  0.00    +0.035 A 
ATOM     15  C   UNL     1      15.561  31.277  14.291  0.00  0.00    -0.040 A 
ATOM     16  C   UNL     1      15.615  32.235  13.269  0.00  0.00    -0.056 A 
ATOM     17  C   UNL     1      16.089  33.527  13.517  0.00  0.00    -0.032 A 
ATOM     18  C   UNL     1      16.132  34.531  12.402  0.00  0.00    -0.038 C 
ATOM     19  C   UNL     1      16.506  33.836  14.817  0.00  0.00    +0.046 A 
ATOM     20 CL   UNL     1      17.102  35.407  15.223  0.00  0.00    -0.083 Cl
ATOM     21  C   UNL     1      16.452  32.874  15.834  0.00  0.00    -0.022 A 
ATOM     22  N   UNL     1      15.002  28.710  15.757  0.00  0.00    -0.244 N 
ATOM     23  H   UNL     1      14.761  26.269  19.680  0.00  0.00    +0.000 HD
ATOM     24  H   UNL     1      13.239  27.463  21.222  0.00  0.00    +0.000 HD
ATOM     25  H   UNL     1      16.388  29.178  18.592  0.00  0.00    +0.000 HD
ATOM     26  H   UNL     1      16.269  31.037  17.513  0.00  0.00    +0.000 HD
ATOM     27  H   UNL     1      14.845  29.132  14.881  0.00  0.00    +0.000 HD
ENDROOT
TORSDOF 0
ENDMDL
MODEL 2
REMARK VINA RESULT:    -4.124      3.446      6.012
REMARK INTER + INTRA:          -4.124
REMARK INTER:                  -4.124
REMARK INTRA:                   0.000
REMARK UNBOUND:                 0.000
REMARK  Name = /home/vital/Documents/PhD_2021/Malaria_codes/scripts/../data/pdbqt_ligands/ligand_472_temp.pdb
REMARK                            x       y       z     vdW  Elec       q    Type
REMARK                         _______ _______ _______ _____ _____    ______ ____
ROOT
ATOM      1  C   UNL     1      16.064  32.070  12.272  0.00  0.00    -0.047 C 
ATOM      2  C   UNL     1      14.809  32.073  13.084  0.00  0.00    -0.089 C 
ATOM      3  C   UNL     1      14.484  31.243  14.089  0.00  0.00    -0.064 C 
ATOM      4  C   UNL     1      15.316  30.130  14.671  0.00  0.00    +0.079 C 
ATOM      5  C   UNL     1      14.788  28.782  14.228  0.00  0.00    +0.029 C 
ATOM      6  C   UNL     1      15.614  27.782  14.987  0.00  0.00    +0.101 C 
ATOM      7  N   UNL     1      15.951  26.616  14.331  0.00  0.00    -0.330 N 
ATOM      8  C   UNL     1      16.405  25.431  15.048  0.00  0.00    +0.033 C 
ATOM      9  C   UNL     1      15.202  24.601  15.506  0.00  0.00    +0.060 C 
ATOM     10  O   UNL     1      14.456  24.146  14.373  0.00  0.00    -0.393 OA
ATOM     11  N   UNL     1      15.968  28.020  16.211  0.00  0.00    -0.204 N 
ATOM     12  C   UNL     1      15.566  29.191  16.809  0.00  0.00    +0.217 C 
ATOM     13  N   UNL     1      15.569  29.129  18.175  0.00  0.00    -0.284 N 
ATOM     14  C   UNL     1      15.297  30.099  19.151  0.00  0.00    +0.035 A 
ATOM     15  C   UNL     1      14.930  31.418  18.869  0.00  0.00    -0.040 A 
ATOM     16  C   UNL     1      14.653  32.334  19.894  0.00  0.00    -0.056 A 
ATOM     17  C   UNL     1      14.728  31.954  21.239  0.00  0.00    -0.032 A 
ATOM     18  C   UNL     1      14.424  32.957  22.313  0.00  0.00    -0.038 C 
ATOM     19  C   UNL     1      15.085  30.632  21.530  0.00  0.00    +0.046 A 
ATOM     20 CL   UNL     1      15.198  30.067  23.160  0.00  0.00    -0.083 Cl
ATOM     21  C   UNL     1      15.361  29.722  20.501  0.00  0.00    -0.022 A 
ATOM     22  N   UNL     1      15.224  30.227  16.123  0.00  0.00    -0.244 N 
ATOM     23  H   UNL     1      15.883  26.583  13.350  0.00  0.00    +0.000 HD
ATOM     24  H   UNL     1      14.135  24.910  13.869  0.00  0.00    +0.000 HD
ATOM     25  H   UNL     1      16.518  27.370  16.706  0.00  0.00    +0.000 HD
ATOM     26  H   UNL     1      15.805  28.245  18.539  0.00  0.00    +0.000 HD
ATOM     27  H   UNL     1      14.914  31.052  16.561  0.00  0.00    +0.000 HD
ENDROOT
TORSDOF 0
ENDMDL
MODEL 3
REMARK VINA RESULT:    -3.966      3.162      3.916
REMARK INTER + INTRA:          -3.966
REMARK INTER:                  -3.966
REMARK INTRA:                   0.000
REMARK UNBOUND:                 0.000
REMARK  Name = /home/vital/Documents/PhD_2021/Malaria_codes/scripts/../data/pdbqt_ligands/ligand_472_temp.pdb
REMARK                            x       y       z     vdW  Elec       q    Type
REMARK                         _______ _______ _______ _____ _____    ______ ____
ROOT
ATOM      1  C   UNL     1      14.629  24.513  14.332  0.00  0.00    -0.047 C 
ATOM      2  C   UNL     1      13.792  25.372  15.224  0.00  0.00    -0.089 C 
ATOM      3  C   UNL     1      14.146  25.923  16.396  0.00  0.00    -0.064 C 
ATOM      4  C   UNL     1      15.483  25.843  17.086  0.00  0.00    +0.079 C 
ATOM      5  C   UNL     1      15.418  24.900  18.268  0.00  0.00    +0.029 C 
ATOM      6  C   UNL     1      16.761  25.029  18.931  0.00  0.00    +0.101 C 
ATOM      7  N   UNL     1      17.308  23.884  19.473  0.00  0.00    -0.330 N 
ATOM      8  C   UNL     1      18.388  23.933  20.451  0.00  0.00    +0.033 C 
ATOM      9  C   UNL     1      17.813  24.097  21.860  0.00  0.00    +0.060 C 
ATOM     10  O   UNL     1      16.995  22.971  22.194  0.00  0.00    -0.393 OA
ATOM     11  N   UNL     1      17.352  26.181  18.994  0.00  0.00    -0.204 N 
ATOM     12  C   UNL     1      16.728  27.283  18.460  0.00  0.00    +0.217 C 
ATOM     13  N   UNL     1      17.177  28.465  18.983  0.00  0.00    -0.284 N 
ATOM     14  C   UNL     1      16.861  29.797  18.678  0.00  0.00    +0.035 A 
ATOM     15  C   UNL     1      15.939  30.184  17.702  0.00  0.00    -0.040 A 
ATOM     16  C   UNL     1      15.655  31.536  17.460  0.00  0.00    -0.056 A 
ATOM     17  C   UNL     1      16.284  32.546  18.196  0.00  0.00    -0.032 A 
ATOM     18  C   UNL     1      15.959  33.984  17.914  0.00  0.00    -0.038 C 
ATOM     19  C   UNL     1      17.202  32.167  19.182  0.00  0.00    +0.046 A 
ATOM     20 CL   UNL     1      18.025  33.342  20.146  0.00  0.00    -0.083 Cl
ATOM     21  C   UNL     1      17.482  30.815  19.418  0.00  0.00    -0.022 A 
ATOM     22  N   UNL     1      15.813  27.182  17.557  0.00  0.00    -0.244 N 
ATOM     23  H   UNL     1      16.959  23.008  19.191  0.00  0.00    +0.000 HD
ATOM     24  H   UNL     1      16.262  22.906  21.563  0.00  0.00    +0.000 HD
ATOM     25  H   UNL     1      18.236  26.265  19.419  0.00  0.00    +0.000 HD
ATOM     26  H   UNL     1      17.840  28.362  19.703  0.00  0.00    +0.000 HD
ATOM     27  H   UNL     1      15.356  27.977  17.200  0.00  0.00    +0.000 HD
ENDROOT
TORSDOF 0
ENDMDL
MODEL 4
REMARK VINA RESULT:    -3.841      3.922      6.251
REMARK INTER + INTRA:          -3.841
REMARK INTER:                  -3.841
REMARK INTRA:                   0.000
REMARK UNBOUND:                 0.000
REMARK  Name = /home/vital/Documents/PhD_2021/Malaria_codes/scripts/../data/pdbqt_ligands/ligand_472_temp.pdb
REMARK                            x       y       z     vdW  Elec       q    Type
REMARK                         _______ _______ _______ _____ _____    ______ ____
ROOT
ATOM      1  C   UNL     1      13.690  34.389  19.939  0.00  0.00    -0.047 C 
ATOM      2  C   UNL     1      14.935  33.775  19.384  0.00  0.00    -0.089 C 
ATOM      3  C   UNL     1      15.311  32.487  19.452  0.00  0.00    -0.064 C 
ATOM      4  C   UNL     1      14.559  31.338  20.071  0.00  0.00    +0.079 C 
ATOM      5  C   UNL     1      15.188  30.936  21.387  0.00  0.00    +0.029 C 
ATOM      6  C   UNL     1      14.431  29.709  21.811  0.00  0.00    +0.101 C 
ATOM      7  N   UNL     1      14.186  29.554  23.160  0.00  0.00    -0.330 N 
ATOM      8  C   UNL     1      13.815  28.267  23.734  0.00  0.00    +0.033 C 
ATOM      9  C   UNL     1      15.071  27.457  24.064  0.00  0.00    +0.060 C 
ATOM     10  O   UNL     1      15.859  28.141  25.043  0.00  0.00    -0.393 OA
ATOM     11  N   UNL     1      14.050  28.838  20.930  0.00  0.00    -0.204 N 
ATOM     12  C   UNL     1      14.360  29.045  19.607  0.00  0.00    +0.217 C 
ATOM     13  N   UNL     1      14.350  27.897  18.863  0.00  0.00    -0.284 N 
ATOM     14  C   UNL     1      14.542  27.676  17.491  0.00  0.00    +0.035 A 
ATOM     15  C   UNL     1      14.813  28.683  16.561  0.00  0.00    -0.040 A 
ATOM     16  C   UNL     1      15.014  28.390  15.205  0.00  0.00    -0.056 A 
ATOM     17  C   UNL     1      14.956  27.073  14.737  0.00  0.00    -0.032 A 
ATOM     18  C   UNL     1      15.176  26.791  13.279  0.00  0.00    -0.038 C 
ATOM     19  C   UNL     1      14.695  26.056  15.663  0.00  0.00    +0.046 A 
ATOM     20 CL   UNL     1      14.609  24.398  15.181  0.00  0.00    -0.083 Cl
ATOM     21  C   UNL     1      14.494  26.356  17.016  0.00  0.00    -0.022 A 
ATOM     22  N   UNL     1      14.631  30.217  19.142  0.00  0.00    -0.244 N 
ATOM     23  H   UNL     1      14.265  30.336  23.753  0.00  0.00    +0.000 HD
ATOM     24  H   UNL     1      16.126  29.006  24.695  0.00  0.00    +0.000 HD
ATOM     25  H   UNL     1      13.546  28.038  21.205  0.00  0.00    +0.000 HD
ATOM     26  H   UNL     1      14.177  27.080  19.384  0.00  0.00    +0.000 HD
ATOM     27  H   UNL     1      14.876  30.350  18.198  0.00  0.00    +0.000 HD
ENDROOT
TORSDOF 0
ENDMDL
MODEL 5
REMARK VINA RESULT:    -3.601     18.103     18.732
REMARK INTER + INTRA:          -3.601
REMARK INTER:                  -3.601
REMARK INTRA:                   0.000
REMARK UNBOUND:                 0.000
REMARK  Name = /home/vital/Documents/PhD_2021/Malaria_codes/scripts/../data/pdbqt_ligands/ligand_472_temp.pdb
REMARK                            x       y       z     vdW  Elec       q    Type
REMARK                         _______ _______ _______ _____ _____    ______ ____
ROOT
ATOM      1  C   UNL     1      21.560  45.800  28.308  0.00  0.00    -0.047 C 
ATOM      2  C   UNL     1      21.609  44.786  27.211  0.00  0.00    -0.089 C 
ATOM      3  C   UNL     1      20.795  44.694  26.147  0.00  0.00    -0.064 C 
ATOM      4  C   UNL     1      19.656  45.607  25.775  0.00  0.00    +0.079 C 
ATOM      5  C   UNL     1      18.326  44.943  26.057  0.00  0.00    +0.029 C 
ATOM      6  C   UNL     1      17.301  45.899  25.513  0.00  0.00    +0.101 C 
ATOM      7  N   UNL     1      16.121  46.025  26.217  0.00  0.00    -0.330 N 
ATOM      8  C   UNL     1      14.924  46.604  25.620  0.00  0.00    +0.033 C 
ATOM      9  C   UNL     1      14.138  45.526  24.870  0.00  0.00    +0.060 C 
ATOM     10  O   UNL     1      13.704  44.508  25.777  0.00  0.00    -0.393 OA
ATOM     11  N   UNL     1      17.532  46.552  24.418  0.00  0.00    -0.204 N 
ATOM     12  C   UNL     1      18.718  46.348  23.754  0.00  0.00    +0.217 C 
ATOM     13  N   UNL     1      18.662  46.687  22.430  0.00  0.00    -0.284 N 
ATOM     14  C   UNL     1      19.645  46.695  21.429  0.00  0.00    +0.035 A 
ATOM     15  C   UNL     1      20.974  46.313  21.628  0.00  0.00    -0.040 A 
ATOM     16  C   UNL     1      21.903  46.327  20.578  0.00  0.00    -0.056 A 
ATOM     17  C   UNL     1      21.526  46.720  19.288  0.00  0.00    -0.032 A 
ATOM     18  C   UNL     1      22.544  46.723  18.185  0.00  0.00    -0.038 C 
ATOM     19  C   UNL     1      20.195  47.095  19.078  0.00  0.00    +0.046 A 
ATOM     20 CL   UNL     1      19.633  47.590  17.520  0.00  0.00    -0.083 Cl
ATOM     21  C   UNL     1      19.271  47.080  20.132  0.00  0.00    -0.022 A 
ATOM     22  N   UNL     1      19.763  45.880  24.347  0.00  0.00    -0.244 N 
ATOM     23  H   UNL     1      16.087  45.716  27.151  0.00  0.00    +0.000 HD
ATOM     24  H   UNL     1      14.477  44.098  26.195  0.00  0.00    +0.000 HD
ATOM     25  H   UNL     1      16.865  47.186  24.066  0.00  0.00    +0.000 HD
ATOM     26  H   UNL     1      17.772  46.977  22.124  0.00  0.00    +0.000 HD
ATOM     27  H   UNL     1      20.599  45.714  23.856  0.00  0.00    +0.000 HD
ENDROOT
TORSDOF 0
ENDMDL
MODEL 6
REMARK VINA RESULT:    -3.506      3.831      6.528
REMARK INTER + INTRA:          -3.506
REMARK INTER:                  -3.506
REMARK INTRA:                   0.000
REMARK UNBOUND:                 0.000
REMARK  Name = /home/vital/Documents/PhD_2021/Malaria_codes/scripts/../data/pdbqt_ligands/ligand_472_temp.pdb
REMARK                            x       y       z     vdW  Elec       q    Type
REMARK                         _______ _______ _______ _____ _____    ______ ____
ROOT
ATOM      1  C   UNL     1      14.969  27.866  24.300  0.00  0.00    -0.047 C 
ATOM      2  C   UNL     1      13.838  27.678  23.341  0.00  0.00    -0.089 C 
ATOM      3  C   UNL     1      13.691  28.243  22.131  0.00  0.00    -0.064 C 
ATOM      4  C   UNL     1      14.641  29.175  21.426  0.00  0.00    +0.079 C 
ATOM      5  C   UNL     1      14.116  30.594  21.455  0.00  0.00    +0.029 C 
ATOM      6  C   UNL     1      15.081  31.373  20.606  0.00  0.00    +0.101 C 
ATOM      7  N   UNL     1      15.375  32.661  21.007  0.00  0.00    -0.330 N 
ATOM      8  C   UNL     1      15.973  33.633  20.101  0.00  0.00    +0.033 C 
ATOM      9  C   UNL     1      14.881  34.338  19.292  0.00  0.00    +0.060 C 
ATOM     10  O   UNL     1      14.007  35.060  20.164  0.00  0.00    -0.393 OA
ATOM     11  N   UNL     1      15.589  30.844  19.538  0.00  0.00    -0.204 N 
ATOM     12  C   UNL     1      15.222  29.566  19.185  0.00  0.00    +0.217 C 
ATOM     13  N   UNL     1      15.414  29.296  17.859  0.00  0.00    -0.284 N 
ATOM     14  C   UNL     1      15.237  28.121  17.114  0.00  0.00    +0.035 A 
ATOM     15  C   UNL     1      14.778  26.913  17.645  0.00  0.00    -0.040 A 
ATOM     16  C   UNL     1      14.605  25.778  16.839  0.00  0.00    -0.056 A 
ATOM     17  C   UNL     1      14.879  25.821  15.468  0.00  0.00    -0.032 A 
ATOM     18  C   UNL     1      14.683  24.590  14.631  0.00  0.00    -0.038 C 
ATOM     19  C   UNL     1      15.329  27.030  14.925  0.00  0.00    +0.046 A 
ATOM     20 CL   UNL     1      15.689  27.183  13.241  0.00  0.00    -0.083 Cl
ATOM     21  C   UNL     1      15.502  28.159  15.735  0.00  0.00    -0.022 A 
ATOM     22  N   UNL     1      14.745  28.730  20.042  0.00  0.00    -0.244 N 
ATOM     23  H   UNL     1      15.174  32.931  21.932  0.00  0.00    +0.000 HD
ATOM     24  H   UNL     1      13.588  34.443  20.784  0.00  0.00    +0.000 HD
ATOM     25  H   UNL     1      16.228  31.349  18.986  0.00  0.00    +0.000 HD
ATOM     26  H   UNL     1      15.736  30.063  17.332  0.00  0.00    +0.000 HD
ATOM     27  H   UNL     1      14.462  27.826  19.773  0.00  0.00    +0.000 HD
ENDROOT
TORSDOF 0
ENDMDL
MODEL 7
REMARK VINA RESULT:    -3.375      2.191      4.430
REMARK INTER + INTRA:          -3.375
REMARK INTER:                  -3.375
REMARK INTRA:                   0.000
REMARK UNBOUND:                 0.000
REMARK  Name = /home/vital/Documents/PhD_2021/Malaria_codes/scripts/../data/pdbqt_ligands/ligand_472_temp.pdb
REMARK                            x       y       z     vdW  Elec       q    Type
REMARK                         _______ _______ _______ _____ _____    ______ ____
ROOT
ATOM      1  C   UNL     1      13.927  28.592  21.892  0.00  0.00    -0.047 C 
ATOM      2  C   UNL     1      15.342  28.816  21.466  0.00  0.00    -0.089 C 
ATOM      3  C   UNL     1      15.834  28.783  20.216  0.00  0.00    -0.064 C 
ATOM      4  C   UNL     1      15.079  28.551  18.934  0.00  0.00    +0.079 C 
ATOM      5  C   UNL     1      15.349  27.161  18.401  0.00  0.00    +0.029 C 
ATOM      6  C   UNL     1      14.654  27.123  17.068  0.00  0.00    +0.101 C 
ATOM      7  N   UNL     1      14.055  25.935  16.703  0.00  0.00    -0.330 N 
ATOM      8  C   UNL     1      13.691  25.646  15.322  0.00  0.00    +0.033 C 
ATOM      9  C   UNL     1      14.888  25.050  14.577  0.00  0.00    +0.060 C 
ATOM     10  O   UNL     1      15.276  23.810  15.176  0.00  0.00    -0.393 OA
ATOM     11  N   UNL     1      14.647  28.169  16.304  0.00  0.00    -0.204 N 
ATOM     12  C   UNL     1      15.295  29.308  16.722  0.00  0.00    +0.217 C 
ATOM     13  N   UNL     1      15.635  30.145  15.695  0.00  0.00    -0.284 N 
ATOM     14  C   UNL     1      16.235  31.412  15.687  0.00  0.00    +0.035 A 
ATOM     15  C   UNL     1      16.639  32.099  16.835  0.00  0.00    -0.040 A 
ATOM     16  C   UNL     1      17.251  33.358  16.756  0.00  0.00    -0.056 A 
ATOM     17  C   UNL     1      17.487  33.967  15.518  0.00  0.00    -0.032 A 
ATOM     18  C   UNL     1      18.146  35.315  15.466  0.00  0.00    -0.038 C 
ATOM     19  C   UNL     1      17.095  33.282  14.363  0.00  0.00    +0.046 A 
ATOM     20 CL   UNL     1      17.349  33.950  12.788  0.00  0.00    -0.083 Cl
ATOM     21  C   UNL     1      16.482  32.025  14.449  0.00  0.00    -0.022 A 
ATOM     22  N   UNL     1      15.546  29.535  17.966  0.00  0.00    -0.244 N 
ATOM     23  H   UNL     1      13.867  25.262  17.397  0.00  0.00    +0.000 HD
ATOM     24  H   UNL     1      15.527  23.963  16.101  0.00  0.00    +0.000 HD
ATOM     25  H   UNL     1      14.184  28.149  15.435  0.00  0.00    +0.000 HD
ATOM     26  H   UNL     1      15.419  29.795  14.800  0.00  0.00    +0.000 HD
ATOM     27  H   UNL     1      16.033  30.342  18.251  0.00  0.00    +0.000 HD
ENDROOT
TORSDOF 0
ENDMDL
MODEL 8
REMARK VINA RESULT:    -3.308      3.601      6.299
REMARK INTER + INTRA:          -3.308
REMARK INTER:                  -3.308
REMARK INTRA:                   0.000
REMARK UNBOUND:                 0.000
REMARK  Name = /home/vital/Documents/PhD_2021/Malaria_codes/scripts/../data/pdbqt_ligands/ligand_472_temp.pdb
REMARK                            x       y       z     vdW  Elec       q    Type
REMARK                         _______ _______ _______ _____ _____    ______ ____
ROOT
ATOM      1  C   UNL     1      14.682  24.585  14.228  0.00  0.00    -0.047 C 
ATOM      2  C   UNL     1      15.564  24.676  15.432  0.00  0.00    -0.089 C 
ATOM      3  C   UNL     1      16.094  25.785  15.974  0.00  0.00    -0.064 C 
ATOM      4  C   UNL     1      15.903  27.211  15.529  0.00  0.00    +0.079 C 
ATOM      5  C   UNL     1      17.143  27.722  14.829  0.00  0.00    +0.029 C 
ATOM      6  C   UNL     1      16.863  29.177  14.572  0.00  0.00    +0.101 C 
ATOM      7  N   UNL     1      17.334  29.709  13.389  0.00  0.00    -0.330 N 
ATOM      8  C   UNL     1      17.468  31.147  13.190  0.00  0.00    +0.033 C 
ATOM      9  C   UNL     1      18.820  31.627  13.723  0.00  0.00    +0.060 C 
ATOM     10  O   UNL     1      19.887  31.003  13.002  0.00  0.00    -0.393 OA
ATOM     11  N   UNL     1      16.220  29.884  15.447  0.00  0.00    -0.204 N 
ATOM     12  C   UNL     1      15.812  29.290  16.617  0.00  0.00    +0.217 C 
ATOM     13  N   UNL     1      15.592  30.183  17.629  0.00  0.00    -0.284 N 
ATOM     14  C   UNL     1      15.115  30.010  18.937  0.00  0.00    +0.035 A 
ATOM     15  C   UNL     1      14.759  28.776  19.488  0.00  0.00    -0.040 A 
ATOM     16  C   UNL     1      14.306  28.670  20.811  0.00  0.00    -0.056 A 
ATOM     17  C   UNL     1      14.203  29.801  21.629  0.00  0.00    -0.032 A 
ATOM     18  C   UNL     1      13.716  29.654  23.041  0.00  0.00    -0.038 C 
ATOM     19  C   UNL     1      14.568  31.039  21.089  0.00  0.00    +0.046 A 
ATOM     20 CL   UNL     1      14.481  32.491  22.023  0.00  0.00    -0.083 Cl
ATOM     21  C   UNL     1      15.018  31.138  19.766  0.00  0.00    -0.022 A 
ATOM     22  N   UNL     1      15.660  28.013  16.721  0.00  0.00    -0.244 N 
ATOM     23  H   UNL     1      17.588  29.101  12.658  0.00  0.00    +0.000 HD
ATOM     24  H   UNL     1      19.831  30.041  13.112  0.00  0.00    +0.000 HD
ATOM     25  H   UNL     1      16.028  30.834  15.276  0.00  0.00    +0.000 HD
ATOM     26  H   UNL     1      15.808  31.116  17.398  0.00  0.00    +0.000 HD
ATOM     27  H   UNL     1      15.391  27.597  17.572  0.00  0.00    +0.000 HD
ENDROOT
TORSDOF 0
ENDMDL
MODEL 9
REMARK VINA RESULT:    -3.289      3.738      5.024
REMARK INTER + INTRA:          -3.289
REMARK INTER:                  -3.289
REMARK INTRA:                   0.000
REMARK UNBOUND:                 0.000
REMARK  Name = /home/vital/Documents/PhD_2021/Malaria_codes/scripts/../data/pdbqt_ligands/ligand_472_temp.pdb
REMARK                            x       y       z     vdW  Elec       q    Type
REMARK                         _______ _______ _______ _____ _____    ______ ____
ROOT
ATOM      1  C   UNL     1      21.142  22.906  19.126  0.00  0.00    -0.047 C 
ATOM      2  C   UNL     1      19.794  22.717  18.508  0.00  0.00    -0.089 C 
ATOM      3  C   UNL     1      18.738  23.543  18.583  0.00  0.00    -0.064 C 
ATOM      4  C   UNL     1      18.659  24.880  19.273  0.00  0.00    +0.079 C 
ATOM      5  C   UNL     1      17.865  24.771  20.557  0.00  0.00    +0.029 C 
ATOM      6  C   UNL     1      17.752  26.184  21.055  0.00  0.00    +0.101 C 
ATOM      7  N   UNL     1      17.810  26.378  22.420  0.00  0.00    -0.330 N 
ATOM      8  C   UNL     1      17.344  27.609  23.045  0.00  0.00    +0.033 C 
ATOM      9  C   UNL     1      15.839  27.523  23.314  0.00  0.00    +0.060 C 
ATOM     10  O   UNL     1      15.559  26.457  24.226  0.00  0.00    -0.393 OA
ATOM     11  N   UNL     1      17.589  27.162  20.219  0.00  0.00    -0.204 N 
ATOM     12  C   UNL     1      17.506  26.886  18.875  0.00  0.00    +0.217 C 
ATOM     13  N   UNL     1      16.876  27.867  18.160  0.00  0.00    -0.284 N 
ATOM     14  C   UNL     1      16.642  28.011  16.784  0.00  0.00    +0.035 A 
ATOM     15  C   UNL     1      17.041  27.085  15.816  0.00  0.00    -0.040 A 
ATOM     16  C   UNL     1      16.759  27.282  14.457  0.00  0.00    -0.056 A 
ATOM     17  C   UNL     1      16.058  28.413  14.024  0.00  0.00    -0.032 A 
ATOM     18  C   UNL     1      15.771  28.595  12.562  0.00  0.00    -0.038 C 
ATOM     19  C   UNL     1      15.646  29.341  14.987  0.00  0.00    +0.046 A 
ATOM     20 CL   UNL     1      14.771  30.766  14.550  0.00  0.00    -0.083 Cl
ATOM     21  C   UNL     1      15.932  29.139  16.344  0.00  0.00    -0.022 A 
ATOM     22  N   UNL     1      17.984  25.801  18.368  0.00  0.00    -0.244 N 
ATOM     23  H   UNL     1      18.178  25.664  22.988  0.00  0.00    +0.000 HD
ATOM     24  H   UNL     1      15.857  25.618  23.843  0.00  0.00    +0.000 HD
ATOM     25  H   UNL     1      17.524  28.089  20.543  0.00  0.00    +0.000 HD
ATOM     26  H   UNL     1      16.523  28.604  18.709  0.00  0.00    +0.000 HD
ATOM     27  H   UNL     1      17.897  25.603  17.408  0.00  0.00    +0.000 HD
ENDROOT
TORSDOF 0
ENDMDL
