MODEL 1
REMARK VINA RESULT:    -4.360      0.000      0.000
REMARK INTER + INTRA:          -4.360
REMARK INTER:                  -4.360
REMARK INTRA:                   0.000
REMARK UNBOUND:                 0.000
REMARK  Name = /home/vital/Documents/PhD_2021/Malaria_codes/scripts/../data/pdbqt_ligands/ligand_390_temp.pdb
REMARK                            x       y       z     vdW  Elec       q    Type
REMARK                         _______ _______ _______ _____ _____    ______ ____
ROOT
ATOM      1  C1  UNL     1      15.823  38.446  13.947  0.00  0.00    +0.079 C 
ATOM      2  O1  UNL     1      16.104  37.231  14.626  0.00  0.00    -0.493 OA
ATOM      3  C2  UNL     1      15.463  37.015  15.823  0.00  0.00    +0.141 A 
ATOM      4  C3  UNL     1      14.549  37.894  16.412  0.00  0.00    -0.018 A 
ATOM      5  C4  UNL     1      13.945  37.567  17.628  0.00  0.00    -0.058 A 
ATOM      6  C5  UNL     1      14.254  36.366  18.264  0.00  0.00    -0.060 A 
ATOM      7  C6  UNL     1      15.168  35.486  17.682  0.00  0.00    -0.037 A 
ATOM      8  C7  UNL     1      15.769  35.786  16.452  0.00  0.00    +0.070 A 
ATOM      9  N1  UNL     1      16.735  34.931  15.877  0.00  0.00    -0.333 N 
ATOM     10  C8  UNL     1      16.395  33.504  15.832  0.00  0.00    +0.086 C 
ATOM     11  C9  UNL     1      17.107  32.818  14.648  0.00  0.00    +0.233 C 
ATOM     12  O2  UNL     1      17.616  33.478  13.738  0.00  0.00    -0.274 OA
ATOM     13  N2  UNL     1      17.132  31.427  14.635  0.00  0.00    -0.297 N 
ATOM     14  C10 UNL     1      17.872  30.758  13.559  0.00  0.00    +0.031 C 
ATOM     15  C11 UNL     1      18.211  29.300  13.885  0.00  0.00    +0.031 C 
ATOM     16  N3  UNL     1      17.029  28.520  14.266  0.00  0.00    -0.292 N 
ATOM     17  C12 UNL     1      17.109  27.124  14.173  0.00  0.00    +0.282 C 
ATOM     18  O3  UNL     1      18.178  26.587  13.875  0.00  0.00    -0.267 OA
ATOM     19  C13 UNL     1      15.905  26.346  14.420  0.00  0.00    +0.189 A 
ATOM     20  C14 UNL     1      14.569  26.532  14.101  0.00  0.00    -0.011 A 
ATOM     21  C15 UNL     1      13.867  25.404  14.590  0.00  0.00    -0.023 A 
ATOM     22  C16 UNL     1      14.811  24.584  15.159  0.00  0.00    +0.093 A 
ATOM     23  O4  UNL     1      16.043  25.139  15.056  0.00  0.00    -0.458 OA
ATOM     24  C17 UNL     1      15.954  29.248  14.951  0.00  0.00    +0.031 C 
ATOM     25  C18 UNL     1      16.427  30.566  15.589  0.00  0.00    +0.031 C 
ATOM     26  H   UNL     1      17.589  35.273  15.525  0.00  0.00    +0.000 HD
ENDROOT
TORSDOF 0
ENDMDL
MODEL 2
REMARK VINA RESULT:    -4.197      7.347     10.486
REMARK INTER + INTRA:          -4.197
REMARK INTER:                  -4.197
REMARK INTRA:                   0.000
REMARK UNBOUND:                 0.000
REMARK  Name = /home/vital/Documents/PhD_2021/Malaria_codes/scripts/../data/pdbqt_ligands/ligand_390_temp.pdb
REMARK                            x       y       z     vdW  Elec       q    Type
REMARK                         _______ _______ _______ _____ _____    ______ ____
ROOT
ATOM      1  C1  UNL     1      13.692  27.533  18.225  0.00  0.00    +0.079 C 
ATOM      2  O1  UNL     1      14.626  26.494  17.975  0.00  0.00    -0.493 OA
ATOM      3  C2  UNL     1      14.592  25.900  16.735  0.00  0.00    +0.141 A 
ATOM      4  C3  UNL     1      13.718  26.253  15.703  0.00  0.00    -0.018 A 
ATOM      5  C4  UNL     1      13.779  25.590  14.474  0.00  0.00    -0.058 A 
ATOM      6  C5  UNL     1      14.707  24.572  14.273  0.00  0.00    -0.060 A 
ATOM      7  C6  UNL     1      15.580  24.213  15.301  0.00  0.00    -0.037 A 
ATOM      8  C7  UNL     1      15.549  24.880  16.534  0.00  0.00    +0.070 A 
ATOM      9  N1  UNL     1      16.391  24.494  17.601  0.00  0.00    -0.333 N 
ATOM     10  C8  UNL     1      17.808  24.299  17.274  0.00  0.00    +0.086 C 
ATOM     11  C9  UNL     1      18.688  24.572  18.510  0.00  0.00    +0.233 C 
ATOM     12  O2  UNL     1      18.239  25.159  19.499  0.00  0.00    -0.274 OA
ATOM     13  N2  UNL     1      20.013  24.151  18.458  0.00  0.00    -0.297 N 
ATOM     14  C10 UNL     1      20.844  24.331  19.654  0.00  0.00    +0.031 C 
ATOM     15  C11 UNL     1      22.098  23.451  19.648  0.00  0.00    +0.031 C 
ATOM     16  N3  UNL     1      22.897  23.621  18.429  0.00  0.00    -0.292 N 
ATOM     17  C12 UNL     1      24.241  23.228  18.468  0.00  0.00    +0.282 C 
ATOM     18  O3  UNL     1      24.690  22.667  19.471  0.00  0.00    -0.267 OA
ATOM     19  C13 UNL     1      25.078  23.512  17.312  0.00  0.00    +0.189 A 
ATOM     20  C14 UNL     1      25.168  24.589  16.444  0.00  0.00    -0.011 A 
ATOM     21  C15 UNL     1      26.204  24.292  15.526  0.00  0.00    -0.023 A 
ATOM     22  C16 UNL     1      26.702  23.067  15.894  0.00  0.00    +0.093 A 
ATOM     23  O4  UNL     1      26.035  22.590  16.974  0.00  0.00    -0.458 OA
ATOM     24  C17 UNL     1      22.162  23.950  17.202  0.00  0.00    +0.031 C 
ATOM     25  C18 UNL     1      20.669  23.586  17.275  0.00  0.00    +0.031 C 
ATOM     26  H   UNL     1      16.046  24.363  18.514  0.00  0.00    +0.000 HD
ENDROOT
TORSDOF 0
ENDMDL
MODEL 3
REMARK VINA RESULT:    -4.024      1.891      2.673
REMARK INTER + INTRA:          -4.024
REMARK INTER:                  -4.024
REMARK INTRA:                   0.000
REMARK UNBOUND:                 0.000
REMARK  Name = /home/vital/Documents/PhD_2021/Malaria_codes/scripts/../data/pdbqt_ligands/ligand_390_temp.pdb
REMARK                            x       y       z     vdW  Elec       q    Type
REMARK                         _______ _______ _______ _____ _____    ______ ____
ROOT
ATOM      1  C1  UNL     1      16.661  40.765  13.191  0.00  0.00    +0.079 C 
ATOM      2  O1  UNL     1      16.650  39.643  14.062  0.00  0.00    -0.493 OA
ATOM      3  C2  UNL     1      15.679  39.611  15.035  0.00  0.00    +0.141 A 
ATOM      4  C3  UNL     1      14.699  40.590  15.221  0.00  0.00    -0.018 A 
ATOM      5  C4  UNL     1      13.749  40.449  16.237  0.00  0.00    -0.058 A 
ATOM      6  C5  UNL     1      13.778  39.334  17.072  0.00  0.00    -0.060 A 
ATOM      7  C6  UNL     1      14.756  38.355  16.893  0.00  0.00    -0.037 A 
ATOM      8  C7  UNL     1      15.704  38.468  15.867  0.00  0.00    +0.070 A 
ATOM      9  N1  UNL     1      16.732  37.512  15.706  0.00  0.00    -0.333 N 
ATOM     10  C8  UNL     1      16.319  36.104  15.733  0.00  0.00    +0.086 C 
ATOM     11  C9  UNL     1      17.290  35.243  14.900  0.00  0.00    +0.233 C 
ATOM     12  O2  UNL     1      18.084  35.758  14.108  0.00  0.00    -0.274 OA
ATOM     13  N2  UNL     1      17.221  33.862  15.060  0.00  0.00    -0.297 N 
ATOM     14  C10 UNL     1      18.189  33.031  14.335  0.00  0.00    +0.031 C 
ATOM     15  C11 UNL     1      18.317  31.620  14.917  0.00  0.00    +0.031 C 
ATOM     16  N3  UNL     1      17.023  30.937  15.024  0.00  0.00    -0.292 N 
ATOM     17  C12 UNL     1      17.028  29.540  15.124  0.00  0.00    +0.282 C 
ATOM     18  O3  UNL     1      18.097  28.933  15.219  0.00  0.00    -0.267 OA
ATOM     19  C13 UNL     1      15.752  28.841  15.097  0.00  0.00    +0.189 A 
ATOM     20  C14 UNL     1      14.580  29.027  14.381  0.00  0.00    -0.011 A 
ATOM     21  C15 UNL     1      13.690  27.998  14.773  0.00  0.00    -0.023 A 
ATOM     22  C16 UNL     1      14.371  27.231  15.687  0.00  0.00    +0.093 A 
ATOM     23  O4  UNL     1      15.618  27.727  15.885  0.00  0.00    -0.458 OA
ATOM     24  C17 UNL     1      15.851  31.785  15.272  0.00  0.00    +0.031 C 
ATOM     25  C18 UNL     1      16.213  33.160  15.860  0.00  0.00    +0.031 C 
ATOM     26  H   UNL     1      17.672  37.775  15.582  0.00  0.00    +0.000 HD
ENDROOT
TORSDOF 0
ENDMDL
MODEL 4
REMARK VINA RESULT:    -4.010      7.110      9.642
REMARK INTER + INTRA:          -4.010
REMARK INTER:                  -4.010
REMARK INTRA:                   0.000
REMARK UNBOUND:                 0.000
REMARK  Name = /home/vital/Documents/PhD_2021/Malaria_codes/scripts/../data/pdbqt_ligands/ligand_390_temp.pdb
REMARK                            x       y       z     vdW  Elec       q    Type
REMARK                         _______ _______ _______ _____ _____    ______ ____
ROOT
ATOM      1  C1  UNL     1      16.969  28.933  13.522  0.00  0.00    +0.079 C 
ATOM      2  O1  UNL     1      16.178  28.846  14.698  0.00  0.00    -0.493 OA
ATOM      3  C2  UNL     1      15.377  27.737  14.838  0.00  0.00    +0.141 A 
ATOM      4  C3  UNL     1      15.295  26.688  13.918  0.00  0.00    -0.018 A 
ATOM      5  C4  UNL     1      14.455  25.599  14.167  0.00  0.00    -0.058 A 
ATOM      6  C5  UNL     1      13.692  25.556  15.332  0.00  0.00    -0.060 A 
ATOM      7  C6  UNL     1      13.767  26.602  16.252  0.00  0.00    -0.037 A 
ATOM      8  C7  UNL     1      14.619  27.693  16.030  0.00  0.00    +0.070 A 
ATOM      9  N1  UNL     1      14.668  28.784  16.927  0.00  0.00    -0.333 N 
ATOM     10  C8  UNL     1      14.788  28.450  18.350  0.00  0.00    +0.086 C 
ATOM     11  C9  UNL     1      15.502  29.586  19.111  0.00  0.00    +0.233 C 
ATOM     12  O2  UNL     1      16.125  30.466  18.509  0.00  0.00    -0.274 OA
ATOM     13  N2  UNL     1      15.435  29.568  20.500  0.00  0.00    -0.297 N 
ATOM     14  C10 UNL     1      16.042  30.682  21.238  0.00  0.00    +0.031 C 
ATOM     15  C11 UNL     1      15.529  30.794  22.677  0.00  0.00    +0.031 C 
ATOM     16  N3  UNL     1      15.671  29.539  23.423  0.00  0.00    -0.292 N 
ATOM     17  C12 UNL     1      15.652  29.604  24.822  0.00  0.00    +0.282 C 
ATOM     18  O3  UNL     1      15.421  30.676  25.386  0.00  0.00    -0.267 OA
ATOM     19  C13 UNL     1      15.924  28.388  25.574  0.00  0.00    +0.189 A 
ATOM     20  C14 UNL     1      16.808  27.336  25.395  0.00  0.00    -0.011 A 
ATOM     21  C15 UNL     1      16.624  26.452  26.486  0.00  0.00    -0.023 A 
ATOM     22  C16 UNL     1      15.658  27.022  27.280  0.00  0.00    +0.093 A 
ATOM     23  O4  UNL     1      15.234  28.192  26.743  0.00  0.00    -0.458 OA
ATOM     24  C17 UNL     1      15.567  28.298  22.647  0.00  0.00    +0.031 C 
ATOM     25  C18 UNL     1      14.850  28.486  21.298  0.00  0.00    +0.031 C 
ATOM     26  H   UNL     1      14.623  29.717  16.614  0.00  0.00    +0.000 HD
ENDROOT
TORSDOF 0
ENDMDL
MODEL 5
REMARK VINA RESULT:    -4.001     20.388     21.147
REMARK INTER + INTRA:          -4.001
REMARK INTER:                  -4.001
REMARK INTRA:                   0.000
REMARK UNBOUND:                 0.000
REMARK  Name = /home/vital/Documents/PhD_2021/Malaria_codes/scripts/../data/pdbqt_ligands/ligand_390_temp.pdb
REMARK                            x       y       z     vdW  Elec       q    Type
REMARK                         _______ _______ _______ _____ _____    ______ ____
ROOT
ATOM      1  C1  UNL     1      38.271  36.349  17.677  0.00  0.00    +0.079 C 
ATOM      2  O1  UNL     1      37.578  35.336  16.964  0.00  0.00    -0.493 OA
ATOM      3  C2  UNL     1      37.411  35.519  15.611  0.00  0.00    +0.141 A 
ATOM      4  C3  UNL     1      37.883  36.618  14.888  0.00  0.00    -0.018 A 
ATOM      5  C4  UNL     1      37.667  36.697  13.509  0.00  0.00    -0.058 A 
ATOM      6  C5  UNL     1      36.977  35.682  12.850  0.00  0.00    -0.060 A 
ATOM      7  C6  UNL     1      36.501  34.584  13.567  0.00  0.00    -0.037 A 
ATOM      8  C7  UNL     1      36.726  34.476  14.946  0.00  0.00    +0.070 A 
ATOM      9  N1  UNL     1      36.205  33.397  15.695  0.00  0.00    -0.333 N 
ATOM     10  C8  UNL     1      36.419  32.057  15.137  0.00  0.00    +0.086 C 
ATOM     11  C9  UNL     1      36.464  31.006  16.265  0.00  0.00    +0.233 C 
ATOM     12  O2  UNL     1      36.604  31.339  17.445  0.00  0.00    -0.274 OA
ATOM     13  N2  UNL     1      36.362  29.668  15.897  0.00  0.00    -0.297 N 
ATOM     14  C10 UNL     1      36.324  28.658  16.962  0.00  0.00    +0.031 C 
ATOM     15  C11 UNL     1      35.768  27.312  16.488  0.00  0.00    +0.031 C 
ATOM     16  N3  UNL     1      36.473  26.798  15.308  0.00  0.00    -0.292 N 
ATOM     17  C12 UNL     1      36.372  25.427  15.033  0.00  0.00    +0.282 C 
ATOM     18  O3  UNL     1      35.629  24.715  15.712  0.00  0.00    -0.267 OA
ATOM     19  C13 UNL     1      37.171  24.881  13.946  0.00  0.00    +0.189 A 
ATOM     20  C14 UNL     1      38.460  25.122  13.498  0.00  0.00    -0.011 A 
ATOM     21  C15 UNL     1      38.687  24.250  12.406  0.00  0.00    -0.023 A 
ATOM     22  C16 UNL     1      37.537  23.512  12.261  0.00  0.00    +0.093 A 
ATOM     23  O4  UNL     1      36.619  23.880  13.189  0.00  0.00    -0.458 OA
ATOM     24  C17 UNL     1      37.012  27.796  14.378  0.00  0.00    +0.031 C 
ATOM     25  C18 UNL     1      36.345  29.175  14.517  0.00  0.00    +0.031 C 
ATOM     26  H   UNL     1      35.725  33.536  16.544  0.00  0.00    +0.000 HD
ENDROOT
TORSDOF 0
ENDMDL
MODEL 6
REMARK VINA RESULT:    -3.971      2.454      9.674
REMARK INTER + INTRA:          -3.971
REMARK INTER:                  -3.971
REMARK INTRA:                   0.000
REMARK UNBOUND:                 0.000
REMARK  Name = /home/vital/Documents/PhD_2021/Malaria_codes/scripts/../data/pdbqt_ligands/ligand_390_temp.pdb
REMARK                            x       y       z     vdW  Elec       q    Type
REMARK                         _______ _______ _______ _____ _____    ______ ____
ROOT
ATOM      1  C1  UNL     1      13.690  26.878  17.695  0.00  0.00    +0.079 C 
ATOM      2  O1  UNL     1      14.510  27.945  17.241  0.00  0.00    -0.493 OA
ATOM      3  C2  UNL     1      14.869  27.943  15.914  0.00  0.00    +0.141 A 
ATOM      4  C3  UNL     1      14.476  26.980  14.980  0.00  0.00    -0.018 A 
ATOM      5  C4  UNL     1      14.889  27.084  13.649  0.00  0.00    -0.058 A 
ATOM      6  C5  UNL     1      15.699  28.144  13.247  0.00  0.00    -0.060 A 
ATOM      7  C6  UNL     1      16.097  29.106  14.176  0.00  0.00    -0.037 A 
ATOM      8  C7  UNL     1      15.675  29.032  15.511  0.00  0.00    +0.070 A 
ATOM      9  N1  UNL     1      16.112  29.970  16.474  0.00  0.00    -0.333 N 
ATOM     10  C8  UNL     1      16.022  31.383  16.092  0.00  0.00    +0.086 C 
ATOM     11  C9  UNL     1      15.844  32.268  17.342  0.00  0.00    +0.233 C 
ATOM     12  O2  UNL     1      15.521  31.782  18.430  0.00  0.00    -0.274 OA
ATOM     13  N2  UNL     1      16.038  33.638  17.190  0.00  0.00    -0.297 N 
ATOM     14  C10 UNL     1      15.949  34.486  18.385  0.00  0.00    +0.031 C 
ATOM     15  C11 UNL     1      16.609  35.856  18.194  0.00  0.00    +0.031 C 
ATOM     16  N3  UNL     1      16.100  36.564  17.014  0.00  0.00    -0.292 N 
ATOM     17  C12 UNL     1      16.281  37.952  16.957  0.00  0.00    +0.282 C 
ATOM     18  O3  UNL     1      16.937  38.524  17.830  0.00  0.00    -0.267 OA
ATOM     19  C13 UNL     1      15.667  38.683  15.859  0.00  0.00    +0.189 A 
ATOM     20  C14 UNL     1      14.451  38.572  15.203  0.00  0.00    -0.011 A 
ATOM     21  C15 UNL     1      14.413  39.598  14.228  0.00  0.00    -0.023 A 
ATOM     22  C16 UNL     1      15.593  40.290  14.355  0.00  0.00    +0.093 A 
ATOM     23  O4  UNL     1      16.354  39.751  15.340  0.00  0.00    -0.458 OA
ATOM     24  C17 UNL     1      15.674  35.733  15.882  0.00  0.00    +0.031 C 
ATOM     25  C18 UNL     1      16.272  34.316  15.912  0.00  0.00    +0.031 C 
ATOM     26  H   UNL     1      16.457  29.690  17.353  0.00  0.00    +0.000 HD
ENDROOT
TORSDOF 0
ENDMDL
MODEL 7
REMARK VINA RESULT:    -3.754     17.220     20.143
REMARK INTER + INTRA:          -3.754
REMARK INTER:                  -3.754
REMARK INTRA:                   0.000
REMARK UNBOUND:                 0.000
REMARK  Name = /home/vital/Documents/PhD_2021/Malaria_codes/scripts/../data/pdbqt_ligands/ligand_390_temp.pdb
REMARK                            x       y       z     vdW  Elec       q    Type
REMARK                         _______ _______ _______ _____ _____    ______ ____
ROOT
ATOM      1  C1  UNL     1      14.768  41.003  34.190  0.00  0.00    +0.079 C 
ATOM      2  O1  UNL     1      14.673  42.129  33.330  0.00  0.00    -0.493 OA
ATOM      3  C2  UNL     1      15.353  43.265  33.702  0.00  0.00    +0.141 A 
ATOM      4  C3  UNL     1      16.136  43.388  34.853  0.00  0.00    -0.018 A 
ATOM      5  C4  UNL     1      16.796  44.588  35.129  0.00  0.00    -0.058 A 
ATOM      6  C5  UNL     1      16.672  45.671  34.261  0.00  0.00    -0.060 A 
ATOM      7  C6  UNL     1      15.888  45.555  33.112  0.00  0.00    -0.037 A 
ATOM      8  C7  UNL     1      15.236  44.353  32.807  0.00  0.00    +0.070 A 
ATOM      9  N1  UNL     1      14.397  44.236  31.675  0.00  0.00    -0.333 N 
ATOM     10  C8  UNL     1      14.940  44.743  30.410  0.00  0.00    +0.086 C 
ATOM     11  C9  UNL     1      14.321  43.985  29.218  0.00  0.00    +0.233 C 
ATOM     12  O2  UNL     1      13.712  42.925  29.381  0.00  0.00    -0.274 OA
ATOM     13  N2  UNL     1      14.498  44.532  27.951  0.00  0.00    -0.297 N 
ATOM     14  C10 UNL     1      13.850  43.868  26.813  0.00  0.00    +0.031 C 
ATOM     15  C11 UNL     1      13.730  44.772  25.583  0.00  0.00    +0.031 C 
ATOM     16  N3  UNL     1      15.017  45.351  25.184  0.00  0.00    -0.292 N 
ATOM     17  C12 UNL     1      15.139  45.830  23.872  0.00  0.00    +0.282 C 
ATOM     18  O3  UNL     1      14.156  45.847  23.129  0.00  0.00    -0.267 OA
ATOM     19  C13 UNL     1      16.446  46.284  23.422  0.00  0.00    +0.189 A 
ATOM     20  C14 UNL     1      17.737  45.826  23.632  0.00  0.00    -0.011 A 
ATOM     21  C15 UNL     1      18.601  46.676  22.900  0.00  0.00    -0.023 A 
ATOM     22  C16 UNL     1      17.792  47.589  22.268  0.00  0.00    +0.093 A 
ATOM     23  O4  UNL     1      16.491  47.358  22.571  0.00  0.00    -0.458 OA
ATOM     24  C17 UNL     1      15.983  45.611  26.257  0.00  0.00    +0.031 C 
ATOM     25  C18 UNL     1      15.331  45.699  27.648  0.00  0.00    +0.031 C 
ATOM     26  H   UNL     1      13.499  43.837  31.733  0.00  0.00    +0.000 HD
ENDROOT
TORSDOF 0
ENDMDL
MODEL 8
REMARK VINA RESULT:    -3.695     19.833     23.238
REMARK INTER + INTRA:          -3.695
REMARK INTER:                  -3.695
REMARK INTRA:                   0.000
REMARK UNBOUND:                 0.000
REMARK  Name = /home/vital/Documents/PhD_2021/Malaria_codes/scripts/../data/pdbqt_ligands/ligand_390_temp.pdb
REMARK                            x       y       z     vdW  Elec       q    Type
REMARK                         _______ _______ _______ _____ _____    ______ ____
ROOT
ATOM      1  C1  UNL     1      36.850  22.591  16.669  0.00  0.00    +0.079 C 
ATOM      2  O1  UNL     1      37.394  23.840  16.269  0.00  0.00    -0.493 OA
ATOM      3  C2  UNL     1      37.759  23.976  14.950  0.00  0.00    +0.141 A 
ATOM      4  C3  UNL     1      37.622  22.983  13.976  0.00  0.00    -0.018 A 
ATOM      5  C4  UNL     1      38.014  23.234  12.659  0.00  0.00    -0.058 A 
ATOM      6  C5  UNL     1      38.548  24.473  12.310  0.00  0.00    -0.060 A 
ATOM      7  C6  UNL     1      38.690  25.467  13.280  0.00  0.00    -0.037 A 
ATOM      8  C7  UNL     1      38.283  25.242  14.602  0.00  0.00    +0.070 A 
ATOM      9  N1  UNL     1      38.468  26.219  15.605  0.00  0.00    -0.333 N 
ATOM     10  C8  UNL     1      38.044  27.583  15.270  0.00  0.00    +0.086 C 
ATOM     11  C9  UNL     1      37.641  28.350  16.546  0.00  0.00    +0.233 C 
ATOM     12  O2  UNL     1      37.433  27.759  17.609  0.00  0.00    -0.274 OA
ATOM     13  N2  UNL     1      37.500  29.731  16.445  0.00  0.00    -0.297 N 
ATOM     14  C10 UNL     1      37.195  30.487  17.665  0.00  0.00    +0.031 C 
ATOM     15  C11 UNL     1      37.505  31.981  17.536  0.00  0.00    +0.031 C 
ATOM     16  N3  UNL     1      36.856  32.590  16.370  0.00  0.00    -0.292 N 
ATOM     17  C12 UNL     1      36.696  33.983  16.364  0.00  0.00    +0.282 C 
ATOM     18  O3  UNL     1      37.183  34.662  17.270  0.00  0.00    -0.267 OA
ATOM     19  C13 UNL     1      35.937  34.586  15.279  0.00  0.00    +0.189 A 
ATOM     20  C14 UNL     1      34.792  34.210  14.594  0.00  0.00    -0.011 A 
ATOM     21  C15 UNL     1      34.519  35.232  13.654  0.00  0.00    -0.023 A 
ATOM     22  C16 UNL     1      35.495  36.184  13.830  0.00  0.00    +0.093 A 
ATOM     23  O4  UNL     1      36.351  35.806  14.812  0.00  0.00    -0.458 OA
ATOM     24  C17 UNL     1      36.657  31.726  15.201  0.00  0.00    +0.031 C 
ATOM     25  C18 UNL     1      37.579  30.494  15.196  0.00  0.00    +0.031 C 
ATOM     26  H   UNL     1      38.860  25.998  16.481  0.00  0.00    +0.000 HD
ENDROOT
TORSDOF 0
ENDMDL
MODEL 9
REMARK VINA RESULT:    -3.599      2.145      2.285
REMARK INTER + INTRA:          -3.599
REMARK INTER:                  -3.599
REMARK INTRA:                   0.000
REMARK UNBOUND:                 0.000
REMARK  Name = /home/vital/Documents/PhD_2021/Malaria_codes/scripts/../data/pdbqt_ligands/ligand_390_temp.pdb
REMARK                            x       y       z     vdW  Elec       q    Type
REMARK                         _______ _______ _______ _____ _____    ______ ____
ROOT
ATOM      1  C1  UNL     1      15.808  38.622  12.887  0.00  0.00    +0.079 C 
ATOM      2  O1  UNL     1      16.377  37.382  13.280  0.00  0.00    -0.493 OA
ATOM      3  C2  UNL     1      16.988  37.331  14.511  0.00  0.00    +0.141 A 
ATOM      4  C3  UNL     1      17.078  38.402  15.405  0.00  0.00    -0.018 A 
ATOM      5  C4  UNL     1      17.712  38.235  16.639  0.00  0.00    -0.058 A 
ATOM      6  C5  UNL     1      18.262  37.002  16.983  0.00  0.00    -0.060 A 
ATOM      7  C6  UNL     1      18.178  35.930  16.093  0.00  0.00    -0.037 A 
ATOM      8  C7  UNL     1      17.527  36.071  14.859  0.00  0.00    +0.070 A 
ATOM      9  N1  UNL     1      17.480  35.011  13.926  0.00  0.00    -0.333 N 
ATOM     10  C8  UNL     1      17.084  33.700  14.453  0.00  0.00    +0.086 C 
ATOM     11  C9  UNL     1      16.414  32.857  13.349  0.00  0.00    +0.233 C 
ATOM     12  O2  UNL     1      16.022  33.374  12.299  0.00  0.00    -0.274 OA
ATOM     13  N2  UNL     1      16.250  31.497  13.593  0.00  0.00    -0.297 N 
ATOM     14  C10 UNL     1      15.686  30.665  12.523  0.00  0.00    +0.031 C 
ATOM     15  C11 UNL     1      15.966  29.172  12.718  0.00  0.00    +0.031 C 
ATOM     16  N3  UNL     1      15.538  28.688  14.035  0.00  0.00    -0.292 N 
ATOM     17  C12 UNL     1      15.336  27.310  14.191  0.00  0.00    +0.282 C 
ATOM     18  O3  UNL     1      15.613  26.539  13.269  0.00  0.00    -0.267 OA
ATOM     19  C13 UNL     1      14.784  26.831  15.449  0.00  0.00    +0.189 A 
ATOM     20  C14 UNL     1      13.809  27.315  16.306  0.00  0.00    -0.011 A 
ATOM     21  C15 UNL     1      13.691  26.383  17.366  0.00  0.00    -0.023 A 
ATOM     22  C16 UNL     1      14.581  25.374  17.087  0.00  0.00    +0.093 A 
ATOM     23  O4  UNL     1      15.241  25.631  15.931  0.00  0.00    -0.458 OA
ATOM     24  C17 UNL     1      15.600  29.649  15.142  0.00  0.00    +0.031 C 
ATOM     25  C18 UNL     1      16.546  30.830  14.864  0.00  0.00    +0.031 C 
ATOM     26  H   UNL     1      17.700  35.145  12.976  0.00  0.00    +0.000 HD
ENDROOT
TORSDOF 0
ENDMDL
