MODEL 1
REMARK VINA RESULT:    -3.017      0.000      0.000
REMARK INTER + INTRA:          -3.017
REMARK INTER:                  -3.017
REMARK INTRA:                   0.000
REMARK UNBOUND:                 0.000
REMARK  Name = /home/vital/Documents/PhD_2021/Malaria_codes/scripts/../data/pdbqt_ligands/ligand_338_temp.pdb
REMARK                            x       y       z     vdW  Elec       q    Type
REMARK                         _______ _______ _______ _____ _____    ______ ____
ROOT
ATOM      1  C1  UNL     1      14.678  24.748  14.301  0.00  0.00    -0.045 C 
ATOM      2  C2  UNL     1      13.966  25.429  15.423  0.00  0.00    -0.074 C 
ATOM      3  C3  UNL     1      14.014  26.728  15.741  0.00  0.00    -0.014 C 
ATOM      4  N1  UNL     1      14.712  27.732  15.116  0.00  0.00    -0.331 N 
ATOM      5  C4  UNL     1      14.484  29.149  15.302  0.00  0.00    +0.114 C 
ATOM      6 CL1  UNL     1      15.068  29.612  16.912  0.00  0.00    -0.096 Cl
ATOM      7  C5  UNL     1      15.280  29.882  14.263  0.00  0.00    -0.052 C 
ATOM      8  C6  UNL     1      14.750  30.581  13.243  0.00  0.00    -0.071 C 
ATOM      9  C7  UNL     1      15.555  31.320  12.221  0.00  0.00    +0.041 C 
ATOM     10 CL2  UNL     1      15.134  33.043  12.274  0.00  0.00    -0.121 Cl
ATOM     11  H   UNL     1      15.425  27.467  14.492  0.00  0.00    +0.000 HD
ENDROOT
TORSDOF 0
ENDMDL
MODEL 2
REMARK VINA RESULT:    -2.611      4.633      6.971
REMARK INTER + INTRA:          -2.611
REMARK INTER:                  -2.611
REMARK INTRA:                   0.000
REMARK UNBOUND:                 0.000
REMARK  Name = /home/vital/Documents/PhD_2021/Malaria_codes/scripts/../data/pdbqt_ligands/ligand_338_temp.pdb
REMARK                            x       y       z     vdW  Elec       q    Type
REMARK                         _______ _______ _______ _____ _____    ______ ____
ROOT
ATOM      1  C1  UNL     1      14.557  27.863  14.290  0.00  0.00    -0.045 C 
ATOM      2  C2  UNL     1      13.821  26.563  14.295  0.00  0.00    -0.074 C 
ATOM      3  C3  UNL     1      14.170  25.439  14.931  0.00  0.00    -0.014 C 
ATOM      4  N1  UNL     1      15.266  25.217  15.729  0.00  0.00    -0.331 N 
ATOM      5  C4  UNL     1      15.428  24.101  16.635  0.00  0.00    +0.114 C 
ATOM      6 CL1  UNL     1      15.701  22.630  15.681  0.00  0.00    -0.096 Cl
ATOM      7  C5  UNL     1      16.638  24.368  17.481  0.00  0.00    -0.052 C 
ATOM      8  C6  UNL     1      16.611  24.613  18.803  0.00  0.00    -0.071 C 
ATOM      9  C7  UNL     1      17.826  24.863  19.639  0.00  0.00    +0.041 C 
ATOM     10 CL2  UNL     1      17.934  23.627  20.907  0.00  0.00    -0.121 Cl
ATOM     11  H   UNL     1      16.001  25.870  15.679  0.00  0.00    +0.000 HD
ENDROOT
TORSDOF 0
ENDMDL
MODEL 3
REMARK VINA RESULT:    -2.603      2.390      2.807
REMARK INTER + INTRA:          -2.603
REMARK INTER:                  -2.603
REMARK INTRA:                   0.000
REMARK UNBOUND:                 0.000
REMARK  Name = /home/vital/Documents/PhD_2021/Malaria_codes/scripts/../data/pdbqt_ligands/ligand_338_temp.pdb
REMARK                            x       y       z     vdW  Elec       q    Type
REMARK                         _______ _______ _______ _____ _____    ______ ____
ROOT
ATOM      1  C1  UNL     1      16.091  26.952  19.216  0.00  0.00    -0.045 C 
ATOM      2  C2  UNL     1      16.176  26.019  18.054  0.00  0.00    -0.074 C 
ATOM      3  C3  UNL     1      15.748  26.239  16.807  0.00  0.00    -0.014 C 
ATOM      4  N1  UNL     1      15.145  27.364  16.300  0.00  0.00    -0.331 N 
ATOM      5  C4  UNL     1      14.991  27.670  14.894  0.00  0.00    +0.114 C 
ATOM      6 CL1  UNL     1      13.765  26.585  14.208  0.00  0.00    -0.096 Cl
ATOM      7  C5  UNL     1      14.508  29.086  14.782  0.00  0.00    -0.052 C 
ATOM      8  C6  UNL     1      15.226  30.102  14.269  0.00  0.00    -0.071 C 
ATOM      9  C7  UNL     1      14.728  31.508  14.149  0.00  0.00    +0.041 C 
ATOM     10 CL2  UNL     1      14.736  31.991  12.441  0.00  0.00    -0.121 Cl
ATOM     11  H   UNL     1      14.787  28.016  16.946  0.00  0.00    +0.000 HD
ENDROOT
TORSDOF 0
ENDMDL
MODEL 4
REMARK VINA RESULT:    -2.597     22.483     23.593
REMARK INTER + INTRA:          -2.597
REMARK INTER:                  -2.597
REMARK INTRA:                   0.000
REMARK UNBOUND:                 0.000
REMARK  Name = /home/vital/Documents/PhD_2021/Malaria_codes/scripts/../data/pdbqt_ligands/ligand_338_temp.pdb
REMARK                            x       y       z     vdW  Elec       q    Type
REMARK                         _______ _______ _______ _____ _____    ______ ____
ROOT
ATOM      1  C1  UNL     1      13.781  41.070  30.245  0.00  0.00    -0.045 C 
ATOM      2  C2  UNL     1      14.198  42.115  29.263  0.00  0.00    -0.074 C 
ATOM      3  C3  UNL     1      14.569  43.373  29.530  0.00  0.00    -0.014 C 
ATOM      4  N1  UNL     1      14.664  43.991  30.752  0.00  0.00    -0.331 N 
ATOM      5  C4  UNL     1      15.363  45.232  31.009  0.00  0.00    +0.114 C 
ATOM      6 CL1  UNL     1      14.434  46.566  30.296  0.00  0.00    -0.096 Cl
ATOM      7  C5  UNL     1      15.429  45.422  32.496  0.00  0.00    -0.052 C 
ATOM      8  C6  UNL     1      16.559  45.377  33.224  0.00  0.00    -0.071 C 
ATOM      9  C7  UNL     1      16.615  45.583  34.705  0.00  0.00    +0.041 C 
ATOM     10 CL2  UNL     1      17.651  46.977  35.067  0.00  0.00    -0.121 Cl
ATOM     11  H   UNL     1      14.220  43.556  31.515  0.00  0.00    +0.000 HD
ENDROOT
TORSDOF 0
ENDMDL
MODEL 5
REMARK VINA RESULT:    -2.580      3.782      6.085
REMARK INTER + INTRA:          -2.580
REMARK INTER:                  -2.580
REMARK INTRA:                   0.000
REMARK UNBOUND:                 0.000
REMARK  Name = /home/vital/Documents/PhD_2021/Malaria_codes/scripts/../data/pdbqt_ligands/ligand_338_temp.pdb
REMARK                            x       y       z     vdW  Elec       q    Type
REMARK                         _______ _______ _______ _____ _____    ______ ____
ROOT
ATOM      1  C1  UNL     1      14.654  29.581  14.407  0.00  0.00    -0.045 C 
ATOM      2  C2  UNL     1      14.071  28.216  14.566  0.00  0.00    -0.074 C 
ATOM      3  C3  UNL     1      14.009  27.488  15.687  0.00  0.00    -0.014 C 
ATOM      4  N1  UNL     1      14.452  27.822  16.943  0.00  0.00    -0.331 N 
ATOM      5  C4  UNL     1      14.083  27.144  18.167  0.00  0.00    +0.114 C 
ATOM      6 CL1  UNL     1      14.879  25.558  18.200  0.00  0.00    -0.096 Cl
ATOM      7  C5  UNL     1      14.584  27.967  19.317  0.00  0.00    -0.052 C 
ATOM      8  C6  UNL     1      13.798  28.618  20.193  0.00  0.00    -0.071 C 
ATOM      9  C7  UNL     1      14.310  29.424  21.345  0.00  0.00    +0.041 C 
ATOM     10 CL2  UNL     1      13.690  28.742  22.862  0.00  0.00    -0.121 Cl
ATOM     11  H   UNL     1      15.072  28.583  17.017  0.00  0.00    +0.000 HD
ENDROOT
TORSDOF 0
ENDMDL
MODEL 6
REMARK VINA RESULT:    -2.334      3.316      5.983
REMARK INTER + INTRA:          -2.334
REMARK INTER:                  -2.334
REMARK INTRA:                   0.000
REMARK UNBOUND:                 0.000
REMARK  Name = /home/vital/Documents/PhD_2021/Malaria_codes/scripts/../data/pdbqt_ligands/ligand_338_temp.pdb
REMARK                            x       y       z     vdW  Elec       q    Type
REMARK                         _______ _______ _______ _____ _____    ______ ____
ROOT
ATOM      1  C1  UNL     1      17.498  33.777  16.989  0.00  0.00    -0.045 C 
ATOM      2  C2  UNL     1      16.338  34.261  16.182  0.00  0.00    -0.074 C 
ATOM      3  C3  UNL     1      15.608  33.556  15.312  0.00  0.00    -0.014 C 
ATOM      4  N1  UNL     1      15.741  32.234  14.964  0.00  0.00    -0.331 N 
ATOM      5  C4  UNL     1      14.744  31.448  14.268  0.00  0.00    +0.114 C 
ATOM      6 CL1  UNL     1      14.673  31.988  12.579  0.00  0.00    -0.096 Cl
ATOM      7  C5  UNL     1      15.182  30.014  14.306  0.00  0.00    -0.052 C 
ATOM      8  C6  UNL     1      14.552  29.038  14.985  0.00  0.00    -0.071 C 
ATOM      9  C7  UNL     1      14.990  27.608  15.003  0.00  0.00    +0.041 C 
ATOM     10 CL2  UNL     1      13.692  26.586  14.354  0.00  0.00    -0.121 Cl
ATOM     11  H   UNL     1      16.582  31.784  15.206  0.00  0.00    +0.000 HD
ENDROOT
TORSDOF 0
ENDMDL
MODEL 7
REMARK VINA RESULT:    -2.132      3.130      4.276
REMARK INTER + INTRA:          -2.132
REMARK INTER:                  -2.132
REMARK INTRA:                   0.000
REMARK UNBOUND:                 0.000
REMARK  Name = /home/vital/Documents/PhD_2021/Malaria_codes/scripts/../data/pdbqt_ligands/ligand_338_temp.pdb
REMARK                            x       y       z     vdW  Elec       q    Type
REMARK                         _______ _______ _______ _____ _____    ______ ____
ROOT
ATOM      1  C1  UNL     1      15.687  23.611  16.546  0.00  0.00    -0.045 C 
ATOM      2  C2  UNL     1      15.688  24.478  15.330  0.00  0.00    -0.074 C 
ATOM      3  C3  UNL     1      15.393  25.781  15.266  0.00  0.00    -0.014 C 
ATOM      4  N1  UNL     1      15.034  26.624  16.289  0.00  0.00    -0.331 N 
ATOM      5  C4  UNL     1      15.036  28.070  16.221  0.00  0.00    +0.114 C 
ATOM      6 CL1  UNL     1      13.690  28.591  15.187  0.00  0.00    -0.096 Cl
ATOM      7  C5  UNL     1      14.818  28.595  17.610  0.00  0.00    -0.052 C 
ATOM      8  C6  UNL     1      15.737  29.265  18.328  0.00  0.00    -0.071 C 
ATOM      9  C7  UNL     1      15.503  29.797  19.707  0.00  0.00    +0.041 C 
ATOM     10 CL2  UNL     1      15.716  31.559  19.701  0.00  0.00    -0.121 Cl
ATOM     11  H   UNL     1      14.752  26.212  17.137  0.00  0.00    +0.000 HD
ENDROOT
TORSDOF 0
ENDMDL
MODEL 8
REMARK VINA RESULT:    -2.047      2.099      2.614
REMARK INTER + INTRA:          -2.047
REMARK INTER:                  -2.047
REMARK INTRA:                   0.000
REMARK UNBOUND:                 0.000
REMARK  Name = /home/vital/Documents/PhD_2021/Malaria_codes/scripts/../data/pdbqt_ligands/ligand_338_temp.pdb
REMARK                            x       y       z     vdW  Elec       q    Type
REMARK                         _______ _______ _______ _____ _____    ______ ____
ROOT
ATOM      1  C1  UNL     1      13.690  27.597  18.954  0.00  0.00    -0.045 C 
ATOM      2  C2  UNL     1      14.563  26.723  18.114  0.00  0.00    -0.074 C 
ATOM      3  C3  UNL     1      14.885  26.899  16.828  0.00  0.00    -0.014 C 
ATOM      4  N1  UNL     1      14.505  27.915  15.986  0.00  0.00    -0.331 N 
ATOM      5  C4  UNL     1      15.126  28.227  14.717  0.00  0.00    +0.114 C 
ATOM      6 CL1  UNL     1      14.692  26.964  13.548  0.00  0.00    -0.096 Cl
ATOM      7  C5  UNL     1      14.575  29.540  14.246  0.00  0.00    -0.052 C 
ATOM      8  C6  UNL     1      15.286  30.678  14.147  0.00  0.00    -0.071 C 
ATOM      9  C7  UNL     1      14.729  31.979  13.661  0.00  0.00    +0.041 C 
ATOM     10 CL2  UNL     1      15.623  32.501  12.220  0.00  0.00    -0.121 Cl
ATOM     11  H   UNL     1      13.748  28.478  16.269  0.00  0.00    +0.000 HD
ENDROOT
TORSDOF 0
ENDMDL
MODEL 9
REMARK VINA RESULT:    -1.759      3.875      6.445
REMARK INTER + INTRA:          -1.759
REMARK INTER:                  -1.759
REMARK INTRA:                   0.000
REMARK UNBOUND:                 0.000
REMARK  Name = /home/vital/Documents/PhD_2021/Malaria_codes/scripts/../data/pdbqt_ligands/ligand_338_temp.pdb
REMARK                            x       y       z     vdW  Elec       q    Type
REMARK                         _______ _______ _______ _____ _____    ______ ____
ROOT
ATOM      1  C1  UNL     1      14.721  29.644  15.085  0.00  0.00    -0.045 C 
ATOM      2  C2  UNL     1      13.690  28.566  15.028  0.00  0.00    -0.074 C 
ATOM      3  C3  UNL     1      13.891  27.248  15.136  0.00  0.00    -0.014 C 
ATOM      4  N1  UNL     1      15.075  26.581  15.332  0.00  0.00    -0.331 N 
ATOM      5  C4  UNL     1      15.199  25.202  15.754  0.00  0.00    +0.114 C 
ATOM      6 CL1  UNL     1      14.717  24.151  14.407  0.00  0.00    -0.096 Cl
ATOM      7  C5  UNL     1      16.641  24.949  16.080  0.00  0.00    -0.052 C 
ATOM      8  C6  UNL     1      17.115  24.700  17.314  0.00  0.00    -0.071 C 
ATOM      9  C7  UNL     1      18.554  24.434  17.625  0.00  0.00    +0.041 C 
ATOM     10 CL2  UNL     1      18.712  22.823  18.352  0.00  0.00    -0.121 Cl
ATOM     11  H   UNL     1      15.908  27.081  15.173  0.00  0.00    +0.000 HD
ENDROOT
TORSDOF 0
ENDMDL
