MODEL 1
REMARK VINA RESULT:    -4.243      0.000      0.000
REMARK INTER + INTRA:          -4.243
REMARK INTER:                  -4.243
REMARK INTRA:                   0.000
REMARK UNBOUND:                 0.000
REMARK  Name = /home/vital/Documents/PhD_2021/Malaria_codes/scripts/../data/pdbqt_ligands/ligand_236_temp.pdb
REMARK                            x       y       z     vdW  Elec       q    Type
REMARK                         _______ _______ _______ _____ _____    ______ ____
ROOT
ATOM      1  C   UNL     1      17.673  25.809  19.767  0.00  0.00    -0.064 C 
ATOM      2  C   UNL     1      17.360  27.237  19.334  0.00  0.00    -0.039 C 
ATOM      3  C   UNL     1      17.659  27.511  17.846  0.00  0.00    +0.017 C 
ATOM      4  N   UNL     1      19.090  27.326  17.548  0.00  0.00    -0.326 N 
ATOM      5  C   UNL     1      17.243  28.951  17.431  0.00  0.00    +0.012 C 
ATOM      6  N   UNL     1      15.825  29.261  17.664  0.00  0.00    -0.304 N 
ATOM      7  C   UNL     1      14.960  29.233  16.465  0.00  0.00    +0.061 C 
ATOM      8  C   UNL     1      14.883  27.821  15.870  0.00  0.00    -0.026 A 
ATOM      9  C   UNL     1      13.958  26.900  16.397  0.00  0.00    -0.055 A 
ATOM     10  C   UNL     1      13.876  25.599  15.895  0.00  0.00    -0.043 A 
ATOM     11  C   UNL     1      14.725  25.200  14.866  0.00  0.00    +0.041 A 
ATOM     12 CL   UNL     1      14.626  23.596  14.251  0.00  0.00    -0.084 Cl
ATOM     13  C   UNL     1      15.659  26.087  14.339  0.00  0.00    -0.043 A 
ATOM     14  C   UNL     1      15.742  27.389  14.842  0.00  0.00    -0.055 A 
ATOM     15  C   UNL     1      15.132  30.383  15.464  0.00  0.00    +0.009 A 
ATOM     16  C   UNL     1      14.497  30.328  14.205  0.00  0.00    -0.054 A 
ATOM     17  C   UNL     1      14.598  31.379  13.287  0.00  0.00    -0.061 A 
ATOM     18  C   UNL     1      15.313  32.526  13.614  0.00  0.00    -0.059 A 
ATOM     19  C   UNL     1      15.909  32.626  14.867  0.00  0.00    -0.026 A 
ATOM     20  C   UNL     1      15.804  31.573  15.777  0.00  0.00    +0.128 A 
ATOM     21  F   UNL     1      16.350  31.755  16.989  0.00  0.00    -0.205 F 
ATOM     22  H   UNL     1      19.639  27.999  18.084  0.00  0.00    +0.000 HD
ATOM     23  H   UNL     1      19.251  27.473  16.551  0.00  0.00    +0.000 HD
ATOM     24  H   UNL     1      19.370  26.379  17.802  0.00  0.00    +0.000 HD
ATOM     25  H   UNL     1      15.770  30.196  18.068  0.00  0.00    +0.000 HD
ATOM     26  H   UNL     1      15.475  28.526  18.278  0.00  0.00    +0.000 HD
ENDROOT
TORSDOF 0
ENDMDL
MODEL 2
REMARK VINA RESULT:    -4.153      3.222      4.458
REMARK INTER + INTRA:          -4.153
REMARK INTER:                  -4.153
REMARK INTRA:                   0.000
REMARK UNBOUND:                 0.000
REMARK  Name = /home/vital/Documents/PhD_2021/Malaria_codes/scripts/../data/pdbqt_ligands/ligand_236_temp.pdb
REMARK                            x       y       z     vdW  Elec       q    Type
REMARK                         _______ _______ _______ _____ _____    ______ ____
ROOT
ATOM      1  C   UNL     1      17.886  23.519  20.182  0.00  0.00    -0.064 C 
ATOM      2  C   UNL     1      17.934  24.190  18.814  0.00  0.00    -0.039 C 
ATOM      3  C   UNL     1      16.548  24.605  18.280  0.00  0.00    +0.017 C 
ATOM      4  N   UNL     1      15.675  23.432  18.100  0.00  0.00    -0.326 N 
ATOM      5  C   UNL     1      16.655  25.363  16.927  0.00  0.00    +0.012 C 
ATOM      6  N   UNL     1      17.492  26.570  16.975  0.00  0.00    -0.304 N 
ATOM      7  C   UNL     1      16.758  27.853  17.032  0.00  0.00    +0.061 C 
ATOM      8  C   UNL     1      15.952  27.973  18.330  0.00  0.00    -0.026 A 
ATOM      9  C   UNL     1      16.588  28.438  19.497  0.00  0.00    -0.055 A 
ATOM     10  C   UNL     1      15.890  28.538  20.703  0.00  0.00    -0.043 A 
ATOM     11  C   UNL     1      14.550  28.168  20.759  0.00  0.00    +0.041 A 
ATOM     12 CL   UNL     1      13.691  28.288  22.246  0.00  0.00    -0.084 Cl
ATOM     13  C   UNL     1      13.902  27.691  19.623  0.00  0.00    -0.043 A 
ATOM     14  C   UNL     1      14.600  27.589  18.416  0.00  0.00    -0.055 A 
ATOM     15  C   UNL     1      16.048  28.298  15.747  0.00  0.00    +0.009 A 
ATOM     16  C   UNL     1      15.164  29.398  15.769  0.00  0.00    -0.054 A 
ATOM     17  C   UNL     1      14.533  29.855  14.607  0.00  0.00    -0.061 A 
ATOM     18  C   UNL     1      14.791  29.243  13.386  0.00  0.00    -0.059 A 
ATOM     19  C   UNL     1      15.694  28.187  13.327  0.00  0.00    -0.026 A 
ATOM     20  C   UNL     1      16.319  27.736  14.491  0.00  0.00    +0.128 A 
ATOM     21  F   UNL     1      17.224  26.754  14.358  0.00  0.00    -0.205 F 
ATOM     22  H   UNL     1      16.081  22.809  17.401  0.00  0.00    +0.000 HD
ATOM     23  H   UNL     1      14.754  23.738  17.786  0.00  0.00    +0.000 HD
ATOM     24  H   UNL     1      15.585  22.935  18.986  0.00  0.00    +0.000 HD
ATOM     25  H   UNL     1      18.078  26.580  16.140  0.00  0.00    +0.000 HD
ATOM     26  H   UNL     1      18.019  26.511  17.846  0.00  0.00    +0.000 HD
ENDROOT
TORSDOF 0
ENDMDL
MODEL 3
REMARK VINA RESULT:    -3.972      1.602      1.708
REMARK INTER + INTRA:          -3.972
REMARK INTER:                  -3.972
REMARK INTRA:                   0.000
REMARK UNBOUND:                 0.000
REMARK  Name = /home/vital/Documents/PhD_2021/Malaria_codes/scripts/../data/pdbqt_ligands/ligand_236_temp.pdb
REMARK                            x       y       z     vdW  Elec       q    Type
REMARK                         _______ _______ _______ _____ _____    ______ ____
ROOT
ATOM      1  C   UNL     1      16.559  27.646  21.408  0.00  0.00    -0.064 C 
ATOM      2  C   UNL     1      16.185  28.687  20.359  0.00  0.00    -0.039 C 
ATOM      3  C   UNL     1      16.972  28.548  19.040  0.00  0.00    +0.017 C 
ATOM      4  N   UNL     1      18.418  28.733  19.263  0.00  0.00    -0.326 N 
ATOM      5  C   UNL     1      16.495  29.573  17.973  0.00  0.00    +0.012 C 
ATOM      6  N   UNL     1      15.064  29.483  17.647  0.00  0.00    -0.304 N 
ATOM      7  C   UNL     1      14.742  28.803  16.374  0.00  0.00    +0.061 C 
ATOM      8  C   UNL     1      15.152  27.326  16.414  0.00  0.00    -0.026 A 
ATOM      9  C   UNL     1      14.277  26.383  16.986  0.00  0.00    -0.055 A 
ATOM     10  C   UNL     1      14.628  25.033  17.061  0.00  0.00    -0.043 A 
ATOM     11  C   UNL     1      15.861  24.611  16.573  0.00  0.00    +0.041 A 
ATOM     12 CL   UNL     1      16.294  22.948  16.668  0.00  0.00    -0.084 Cl
ATOM     13  C   UNL     1      16.750  25.526  16.017  0.00  0.00    -0.043 A 
ATOM     14  C   UNL     1      16.400  26.877  15.942  0.00  0.00    -0.055 A 
ATOM     15  C   UNL     1      15.072  29.565  15.083  0.00  0.00    +0.009 A 
ATOM     16  C   UNL     1      14.986  28.914  13.834  0.00  0.00    -0.054 A 
ATOM     17  C   UNL     1      15.239  29.591  12.636  0.00  0.00    -0.061 A 
ATOM     18  C   UNL     1      15.556  30.945  12.652  0.00  0.00    -0.059 A 
ATOM     19  C   UNL     1      15.602  31.621  13.866  0.00  0.00    -0.026 A 
ATOM     20  C   UNL     1      15.349  30.939  15.058  0.00  0.00    +0.128 A 
ATOM     21  F   UNL     1      15.350  31.661  16.188  0.00  0.00    -0.205 F 
ATOM     22  H   UNL     1      18.591  29.677  19.607  0.00  0.00    +0.000 HD
ATOM     23  H   UNL     1      18.917  28.595  18.384  0.00  0.00    +0.000 HD
ATOM     24  H   UNL     1      18.745  28.055  19.950  0.00  0.00    +0.000 HD
ATOM     25  H   UNL     1      14.693  30.432  17.599  0.00  0.00    +0.000 HD
ATOM     26  H   UNL     1      14.645  28.914  18.381  0.00  0.00    +0.000 HD
ENDROOT
TORSDOF 0
ENDMDL
MODEL 4
REMARK VINA RESULT:    -3.952      2.981      5.345
REMARK INTER + INTRA:          -3.952
REMARK INTER:                  -3.952
REMARK INTRA:                   0.000
REMARK UNBOUND:                 0.000
REMARK  Name = /home/vital/Documents/PhD_2021/Malaria_codes/scripts/../data/pdbqt_ligands/ligand_236_temp.pdb
REMARK                            x       y       z     vdW  Elec       q    Type
REMARK                         _______ _______ _______ _____ _____    ______ ____
ROOT
ATOM      1  C   UNL     1      16.967  33.061  17.885  0.00  0.00    -0.064 C 
ATOM      2  C   UNL     1      16.374  32.116  16.845  0.00  0.00    -0.039 C 
ATOM      3  C   UNL     1      17.044  30.727  16.818  0.00  0.00    +0.017 C 
ATOM      4  N   UNL     1      18.472  30.832  16.468  0.00  0.00    -0.326 N 
ATOM      5  C   UNL     1      16.349  29.772  15.806  0.00  0.00    +0.012 C 
ATOM      6  N   UNL     1      14.915  29.568  16.055  0.00  0.00    -0.304 N 
ATOM      7  C   UNL     1      14.555  28.288  16.703  0.00  0.00    +0.061 C 
ATOM      8  C   UNL     1      15.139  28.201  18.118  0.00  0.00    -0.026 A 
ATOM      9  C   UNL     1      14.439  28.787  19.190  0.00  0.00    -0.055 A 
ATOM     10  C   UNL     1      14.952  28.746  20.489  0.00  0.00    -0.043 A 
ATOM     11  C   UNL     1      16.175  28.126  20.730  0.00  0.00    +0.041 A 
ATOM     12 CL   UNL     1      16.808  28.079  22.330  0.00  0.00    -0.084 Cl
ATOM     13  C   UNL     1      16.893  27.552  19.685  0.00  0.00    -0.043 A 
ATOM     14  C   UNL     1      16.380  27.593  18.385  0.00  0.00    -0.055 A 
ATOM     15  C   UNL     1      14.669  27.024  15.841  0.00  0.00    +0.009 A 
ATOM     16  C   UNL     1      14.542  25.749  16.432  0.00  0.00    -0.054 A 
ATOM     17  C   UNL     1      14.598  24.578  15.669  0.00  0.00    -0.061 A 
ATOM     18  C   UNL     1      14.754  24.651  14.289  0.00  0.00    -0.059 A 
ATOM     19  C   UNL     1      14.835  25.896  13.675  0.00  0.00    -0.026 A 
ATOM     20  C   UNL     1      14.778  27.060  14.443  0.00  0.00    +0.128 A 
ATOM     21  F   UNL     1      14.802  28.229  13.786  0.00  0.00    -0.205 F 
ATOM     22  H   UNL     1      18.564  31.219  15.529  0.00  0.00    +0.000 HD
ATOM     23  H   UNL     1      18.898  29.906  16.498  0.00  0.00    +0.000 HD
ATOM     24  H   UNL     1      18.941  31.445  17.135  0.00  0.00    +0.000 HD
ATOM     25  H   UNL     1      14.431  29.613  15.158  0.00  0.00    +0.000 HD
ATOM     26  H   UNL     1      14.637  30.300  16.708  0.00  0.00    +0.000 HD
ENDROOT
TORSDOF 0
ENDMDL
MODEL 5
REMARK VINA RESULT:    -3.810      3.611      5.691
REMARK INTER + INTRA:          -3.810
REMARK INTER:                  -3.810
REMARK INTRA:                   0.000
REMARK UNBOUND:                 0.000
REMARK  Name = /home/vital/Documents/PhD_2021/Malaria_codes/scripts/../data/pdbqt_ligands/ligand_236_temp.pdb
REMARK                            x       y       z     vdW  Elec       q    Type
REMARK                         _______ _______ _______ _____ _____    ______ ____
ROOT
ATOM      1  C   UNL     1      21.037  28.944  12.459  0.00  0.00    -0.064 C 
ATOM      2  C   UNL     1      20.310  27.901  13.301  0.00  0.00    -0.039 C 
ATOM      3  C   UNL     1      19.516  28.500  14.479  0.00  0.00    +0.017 C 
ATOM      4  N   UNL     1      20.409  29.196  15.422  0.00  0.00    -0.326 N 
ATOM      5  C   UNL     1      18.723  27.409  15.253  0.00  0.00    +0.012 C 
ATOM      6  N   UNL     1      17.779  26.646  14.424  0.00  0.00    -0.304 N 
ATOM      7  C   UNL     1      16.357  27.029  14.561  0.00  0.00    +0.061 C 
ATOM      8  C   UNL     1      16.120  28.464  14.074  0.00  0.00    -0.026 A 
ATOM      9  C   UNL     1      15.915  28.701  12.702  0.00  0.00    -0.055 A 
ATOM     10  C   UNL     1      15.719  29.998  12.220  0.00  0.00    -0.043 A 
ATOM     11  C   UNL     1      15.733  31.073  13.103  0.00  0.00    +0.041 A 
ATOM     12 CL   UNL     1      15.495  32.671  12.510  0.00  0.00    -0.084 Cl
ATOM     13  C   UNL     1      15.949  30.866  14.463  0.00  0.00    -0.043 A 
ATOM     14  C   UNL     1      16.147  29.569  14.945  0.00  0.00    -0.055 A 
ATOM     15  C   UNL     1      15.659  26.630  15.867  0.00  0.00    +0.009 A 
ATOM     16  C   UNL     1      14.371  27.128  16.164  0.00  0.00    -0.054 A 
ATOM     17  C   UNL     1      13.690  26.751  17.326  0.00  0.00    -0.061 A 
ATOM     18  C   UNL     1      14.264  25.843  18.209  0.00  0.00    -0.059 A 
ATOM     19  C   UNL     1      15.511  25.301  17.917  0.00  0.00    -0.026 A 
ATOM     20  C   UNL     1      16.186  25.682  16.756  0.00  0.00    +0.128 A 
ATOM     21  F   UNL     1      17.357  25.079  16.502  0.00  0.00    -0.205 F 
ATOM     22  H   UNL     1      21.067  28.528  15.824  0.00  0.00    +0.000 HD
ATOM     23  H   UNL     1      19.855  29.617  16.168  0.00  0.00    +0.000 HD
ATOM     24  H   UNL     1      20.924  29.925  14.928  0.00  0.00    +0.000 HD
ATOM     25  H   UNL     1      17.865  25.661  14.676  0.00  0.00    +0.000 HD
ATOM     26  H   UNL     1      18.031  26.846  13.457  0.00  0.00    +0.000 HD
ENDROOT
TORSDOF 0
ENDMDL
MODEL 6
REMARK VINA RESULT:    -3.778      2.391      2.764
REMARK INTER + INTRA:          -3.778
REMARK INTER:                  -3.778
REMARK INTRA:                   0.000
REMARK UNBOUND:                 0.000
REMARK  Name = /home/vital/Documents/PhD_2021/Malaria_codes/scripts/../data/pdbqt_ligands/ligand_236_temp.pdb
REMARK                            x       y       z     vdW  Elec       q    Type
REMARK                         _______ _______ _______ _____ _____    ______ ____
ROOT
ATOM      1  C   UNL     1      20.736  26.571  16.179  0.00  0.00    -0.064 C 
ATOM      2  C   UNL     1      20.309  28.001  15.869  0.00  0.00    -0.039 C 
ATOM      3  C   UNL     1      19.565  28.146  14.526  0.00  0.00    +0.017 C 
ATOM      4  N   UNL     1      20.425  27.751  13.396  0.00  0.00    -0.326 N 
ATOM      5  C   UNL     1      19.073  29.603  14.294  0.00  0.00    +0.012 C 
ATOM      6  N   UNL     1      18.188  30.117  15.350  0.00  0.00    -0.304 N 
ATOM      7  C   UNL     1      16.746  30.137  15.020  0.00  0.00    +0.061 C 
ATOM      8  C   UNL     1      16.204  28.718  14.813  0.00  0.00    -0.026 A 
ATOM      9  C   UNL     1      15.802  27.964  15.931  0.00  0.00    -0.055 A 
ATOM     10  C   UNL     1      15.324  26.659  15.782  0.00  0.00    -0.043 A 
ATOM     11  C   UNL     1      15.252  26.090  14.514  0.00  0.00    +0.041 A 
ATOM     12 CL   UNL     1      14.668  24.481  14.331  0.00  0.00    -0.084 Cl
ATOM     13  C   UNL     1      15.659  26.809  13.394  0.00  0.00    -0.043 A 
ATOM     14  C   UNL     1      16.137  28.115  13.543  0.00  0.00    -0.055 A 
ATOM     15  C   UNL     1      16.287  31.194  14.007  0.00  0.00    +0.009 A 
ATOM     16  C   UNL     1      14.976  31.155  13.486  0.00  0.00    -0.054 A 
ATOM     17  C   UNL     1      14.512  32.128  12.593  0.00  0.00    -0.061 A 
ATOM     18  C   UNL     1      15.337  33.183  12.221  0.00  0.00    -0.059 A 
ATOM     19  C   UNL     1      16.617  33.272  12.757  0.00  0.00    -0.026 A 
ATOM     20  C   UNL     1      17.073  32.298  13.645  0.00  0.00    +0.128 A 
ATOM     21  F   UNL     1      18.295  32.473  14.172  0.00  0.00    -0.205 F 
ATOM     22  H   UNL     1      21.233  28.372  13.350  0.00  0.00    +0.000 HD
ATOM     23  H   UNL     1      19.896  27.817  12.526  0.00  0.00    +0.000 HD
ATOM     24  H   UNL     1      20.741  26.791  13.530  0.00  0.00    +0.000 HD
ATOM     25  H   UNL     1      18.475  31.072  15.564  0.00  0.00    +0.000 HD
ATOM     26  H   UNL     1      18.285  29.473  16.135  0.00  0.00    +0.000 HD
ENDROOT
TORSDOF 0
ENDMDL
MODEL 7
REMARK VINA RESULT:    -3.742      3.473      4.783
REMARK INTER + INTRA:          -3.742
REMARK INTER:                  -3.742
REMARK INTRA:                   0.000
REMARK UNBOUND:                 0.000
REMARK  Name = /home/vital/Documents/PhD_2021/Malaria_codes/scripts/../data/pdbqt_ligands/ligand_236_temp.pdb
REMARK                            x       y       z     vdW  Elec       q    Type
REMARK                         _______ _______ _______ _____ _____    ______ ____
ROOT
ATOM      1  C   UNL     1      18.697  27.074  22.378  0.00  0.00    -0.064 C 
ATOM      2  C   UNL     1      17.486  27.280  21.475  0.00  0.00    -0.039 C 
ATOM      3  C   UNL     1      17.845  27.428  19.983  0.00  0.00    +0.017 C 
ATOM      4  N   UNL     1      18.696  28.609  19.755  0.00  0.00    -0.326 N 
ATOM      5  C   UNL     1      16.574  27.548  19.094  0.00  0.00    +0.012 C 
ATOM      6  N   UNL     1      15.642  26.417  19.217  0.00  0.00    -0.304 N 
ATOM      7  C   UNL     1      15.681  25.436  18.111  0.00  0.00    +0.061 C 
ATOM      8  C   UNL     1      17.038  24.724  18.049  0.00  0.00    -0.026 A 
ATOM      9  C   UNL     1      17.268  23.606  18.873  0.00  0.00    -0.055 A 
ATOM     10  C   UNL     1      18.500  22.947  18.859  0.00  0.00    -0.043 A 
ATOM     11  C   UNL     1      19.519  23.403  18.028  0.00  0.00    +0.041 A 
ATOM     12 CL   UNL     1      21.037  22.593  18.013  0.00  0.00    -0.084 Cl
ATOM     13  C   UNL     1      19.321  24.516  17.215  0.00  0.00    -0.043 A 
ATOM     14  C   UNL     1      18.089  25.176  17.229  0.00  0.00    -0.055 A 
ATOM     15  C   UNL     1      15.087  25.886  16.770  0.00  0.00    +0.009 A 
ATOM     16  C   UNL     1      15.263  25.093  15.615  0.00  0.00    -0.054 A 
ATOM     17  C   UNL     1      14.699  25.454  14.387  0.00  0.00    -0.061 A 
ATOM     18  C   UNL     1      13.919  26.600  14.285  0.00  0.00    -0.059 A 
ATOM     19  C   UNL     1      13.690  27.373  15.419  0.00  0.00    -0.026 A 
ATOM     20  C   UNL     1      14.257  27.009  16.641  0.00  0.00    +0.128 A 
ATOM     21  F   UNL     1      13.950  27.762  17.707  0.00  0.00    -0.205 F 
ATOM     22  H   UNL     1      18.185  29.452  20.017  0.00  0.00    +0.000 HD
ATOM     23  H   UNL     1      18.952  28.659  18.769  0.00  0.00    +0.000 HD
ATOM     24  H   UNL     1      19.541  28.534  20.322  0.00  0.00    +0.000 HD
ATOM     25  H   UNL     1      14.696  26.795  19.269  0.00  0.00    +0.000 HD
ATOM     26  H   UNL     1      15.928  25.908  20.053  0.00  0.00    +0.000 HD
ENDROOT
TORSDOF 0
ENDMDL
