MODEL 1
REMARK VINA RESULT:    -4.316      0.000      0.000
REMARK INTER + INTRA:          -4.316
REMARK INTER:                  -4.316
REMARK INTRA:                   0.000
REMARK UNBOUND:                 0.000
REMARK  Name = /home/vital/Documents/PhD_2021/Malaria_codes/scripts/../data/pdbqt_ligands/ligand_161_temp.pdb
REMARK                            x       y       z     vdW  Elec       q    Type
REMARK                         _______ _______ _______ _____ _____    ______ ____
ROOT
ATOM      1  C1  UNL     1      14.650  28.785  17.433  0.00  0.00    -0.038 C 
ATOM      2  C2  UNL     1      15.122  27.357  17.553  0.00  0.00    -0.024 A 
ATOM      3  C3  UNL     1      14.936  26.467  16.378  0.00  0.00    +0.002 A 
ATOM      4  C4  UNL     1      14.358  26.895  15.172  0.00  0.00    -0.052 A 
ATOM      5  C5  UNL     1      14.199  26.017  14.094  0.00  0.00    -0.061 A 
ATOM      6  C6  UNL     1      14.617  24.693  14.202  0.00  0.00    -0.060 A 
ATOM      7  C7  UNL     1      15.194  24.247  15.389  0.00  0.00    -0.038 A 
ATOM      8  C8  UNL     1      15.350  25.130  16.463  0.00  0.00    +0.049 A 
ATOM      9  N1  UNL     1      15.937  24.661  17.636  0.00  0.00    -0.321 N 
ATOM     10  C9  UNL     1      16.153  25.435  18.748  0.00  0.00    +0.262 A 
ATOM     11  O1  UNL     1      16.717  24.928  19.715  0.00  0.00    -0.267 OA
ATOM     12  C10 UNL     1      15.690  26.854  18.678  0.00  0.00    +0.108 A 
ATOM     13  C11 UNL     1      15.878  27.756  19.851  0.00  0.00    +0.294 C 
ATOM     14  O2  UNL     1      16.818  28.550  19.859  0.00  0.00    -0.266 OA
ATOM     15  N2  UNL     1      14.898  27.566  20.745  0.00  0.00    -0.058 NA
ATOM     16  O3  UNL     1      14.849  28.593  21.759  0.00  0.00    -0.257 OA
ATOM     17  C12 UNL     1      15.621  28.154  22.880  0.00  0.00    +0.078 C 
ATOM     18  C13 UNL     1      15.535  29.208  23.992  0.00  0.00    -0.021 C 
ATOM     19  C14 UNL     1      16.452  28.834  25.155  0.00  0.00    -0.061 C 
ATOM     20  C15 UNL     1      14.097  29.382  24.484  0.00  0.00    -0.061 C 
ATOM     21  H   UNL     1      16.213  23.717  17.670  0.00  0.00    +0.000 HD
ENDROOT
TORSDOF 0
ENDMDL
MODEL 2
REMARK VINA RESULT:    -4.152      2.117      3.387
REMARK INTER + INTRA:          -4.152
REMARK INTER:                  -4.152
REMARK INTRA:                   0.000
REMARK UNBOUND:                 0.000
REMARK  Name = /home/vital/Documents/PhD_2021/Malaria_codes/scripts/../data/pdbqt_ligands/ligand_161_temp.pdb
REMARK                            x       y       z     vdW  Elec       q    Type
REMARK                         _______ _______ _______ _____ _____    ______ ____
ROOT
ATOM      1  C1  UNL     1      14.562  26.073  18.153  0.00  0.00    -0.038 C 
ATOM      2  C2  UNL     1      14.784  27.556  17.979  0.00  0.00    -0.024 A 
ATOM      3  C3  UNL     1      14.788  28.095  16.594  0.00  0.00    +0.002 A 
ATOM      4  C4  UNL     1      14.586  27.298  15.457  0.00  0.00    -0.052 A 
ATOM      5  C5  UNL     1      14.604  27.852  14.172  0.00  0.00    -0.061 A 
ATOM      6  C6  UNL     1      14.825  29.216  14.001  0.00  0.00    -0.060 A 
ATOM      7  C7  UNL     1      15.028  30.027  15.116  0.00  0.00    -0.038 A 
ATOM      8  C8  UNL     1      15.008  29.466  16.398  0.00  0.00    +0.049 A 
ATOM      9  N1  UNL     1      15.206  30.299  17.497  0.00  0.00    -0.321 N 
ATOM     10  C9  UNL     1      15.196  29.867  18.799  0.00  0.00    +0.262 A 
ATOM     11  O1  UNL     1      15.341  30.698  19.693  0.00  0.00    -0.267 OA
ATOM     12  C10 UNL     1      14.991  28.404  19.018  0.00  0.00    +0.108 A 
ATOM     13  C11 UNL     1      14.979  27.855  20.404  0.00  0.00    +0.294 C 
ATOM     14  O2  UNL     1      13.904  27.616  20.952  0.00  0.00    -0.266 OA
ATOM     15  N2  UNL     1      16.233  27.660  20.838  0.00  0.00    -0.058 NA
ATOM     16  O3  UNL     1      16.299  26.870  22.045  0.00  0.00    -0.257 OA
ATOM     17  C12 UNL     1      16.312  27.759  23.164  0.00  0.00    +0.078 C 
ATOM     18  C13 UNL     1      16.440  26.938  24.455  0.00  0.00    -0.021 C 
ATOM     19  C14 UNL     1      16.326  27.847  25.678  0.00  0.00    -0.061 C 
ATOM     20  C15 UNL     1      17.756  26.160  24.492  0.00  0.00    -0.061 C 
ATOM     21  H   UNL     1      15.363  31.257  17.329  0.00  0.00    +0.000 HD
ENDROOT
TORSDOF 0
ENDMDL
MODEL 3
REMARK VINA RESULT:    -3.846      2.671      2.984
REMARK INTER + INTRA:          -3.846
REMARK INTER:                  -3.846
REMARK INTRA:                   0.000
REMARK UNBOUND:                 0.000
REMARK  Name = /home/vital/Documents/PhD_2021/Malaria_codes/scripts/../data/pdbqt_ligands/ligand_161_temp.pdb
REMARK                            x       y       z     vdW  Elec       q    Type
REMARK                         _______ _______ _______ _____ _____    ______ ____
ROOT
ATOM      1  C1  UNL     1      15.810  30.146  16.373  0.00  0.00    -0.038 C 
ATOM      2  C2  UNL     1      15.245  28.957  17.112  0.00  0.00    -0.024 A 
ATOM      3  C3  UNL     1      14.735  27.820  16.303  0.00  0.00    +0.002 A 
ATOM      4  C4  UNL     1      14.767  27.798  14.899  0.00  0.00    -0.052 A 
ATOM      5  C5  UNL     1      14.269  26.705  14.180  0.00  0.00    -0.061 A 
ATOM      6  C6  UNL     1      13.731  25.612  14.854  0.00  0.00    -0.060 A 
ATOM      7  C7  UNL     1      13.690  25.611  16.246  0.00  0.00    -0.038 A 
ATOM      8  C8  UNL     1      14.189  26.707  16.958  0.00  0.00    +0.049 A 
ATOM      9  N1  UNL     1      14.143  26.679  18.351  0.00  0.00    -0.321 N 
ATOM     10  C9  UNL     1      14.613  27.687  19.154  0.00  0.00    +0.262 A 
ATOM     11  O1  UNL     1      14.559  27.538  20.373  0.00  0.00    -0.267 OA
ATOM     12  C10 UNL     1      15.170  28.889  18.465  0.00  0.00    +0.108 A 
ATOM     13  C11 UNL     1      15.689  30.033  19.269  0.00  0.00    +0.294 C 
ATOM     14  O2  UNL     1      16.902  30.147  19.448  0.00  0.00    -0.266 OA
ATOM     15  N2  UNL     1      14.680  30.825  19.657  0.00  0.00    -0.058 NA
ATOM     16  O3  UNL     1      15.125  32.093  20.186  0.00  0.00    -0.257 OA
ATOM     17  C12 UNL     1      15.247  31.969  21.605  0.00  0.00    +0.078 C 
ATOM     18  C13 UNL     1      15.664  33.325  22.192  0.00  0.00    -0.021 C 
ATOM     19  C14 UNL     1      15.930  33.197  23.691  0.00  0.00    -0.061 C 
ATOM     20  C15 UNL     1      14.604  34.396  21.929  0.00  0.00    -0.061 C 
ATOM     21  H   UNL     1      13.750  25.888  18.784  0.00  0.00    +0.000 HD
ENDROOT
TORSDOF 0
ENDMDL
MODEL 4
REMARK VINA RESULT:    -3.742      3.669      5.192
REMARK INTER + INTRA:          -3.742
REMARK INTER:                  -3.742
REMARK INTRA:                   0.000
REMARK UNBOUND:                 0.000
REMARK  Name = /home/vital/Documents/PhD_2021/Malaria_codes/scripts/../data/pdbqt_ligands/ligand_161_temp.pdb
REMARK                            x       y       z     vdW  Elec       q    Type
REMARK                         _______ _______ _______ _____ _____    ______ ____
ROOT
ATOM      1  C1  UNL     1      17.160  26.572  14.214  0.00  0.00    -0.038 C 
ATOM      2  C2  UNL     1      16.298  27.557  14.964  0.00  0.00    -0.024 A 
ATOM      3  C3  UNL     1      15.833  28.764  14.232  0.00  0.00    +0.002 A 
ATOM      4  C4  UNL     1      16.149  29.019  12.888  0.00  0.00    -0.052 A 
ATOM      5  C5  UNL     1      15.692  30.174  12.243  0.00  0.00    -0.061 A 
ATOM      6  C6  UNL     1      14.910  31.096  12.932  0.00  0.00    -0.060 A 
ATOM      7  C7  UNL     1      14.584  30.864  14.267  0.00  0.00    -0.038 A 
ATOM      8  C8  UNL     1      15.044  29.708  14.905  0.00  0.00    +0.049 A 
ATOM      9  N1  UNL     1      14.698  29.495  16.238  0.00  0.00    -0.321 N 
ATOM     10  C9  UNL     1      15.079  28.395  16.963  0.00  0.00    +0.262 A 
ATOM     11  O1  UNL     1      14.681  28.290  18.122  0.00  0.00    -0.267 OA
ATOM     12  C10 UNL     1      15.944  27.398  16.264  0.00  0.00    +0.108 A 
ATOM     13  C11 UNL     1      16.409  26.181  16.989  0.00  0.00    +0.294 C 
ATOM     14  O2  UNL     1      15.829  25.110  16.810  0.00  0.00    -0.266 OA
ATOM     15  N2  UNL     1      17.485  26.467  17.736  0.00  0.00    -0.058 NA
ATOM     16  O3  UNL     1      18.159  25.291  18.234  0.00  0.00    -0.257 OA
ATOM     17  C12 UNL     1      17.641  24.993  19.533  0.00  0.00    +0.078 C 
ATOM     18  C13 UNL     1      18.387  23.779  20.103  0.00  0.00    -0.021 C 
ATOM     19  C14 UNL     1      17.772  23.352  21.436  0.00  0.00    -0.061 C 
ATOM     20  C15 UNL     1      19.879  24.072  20.276  0.00  0.00    -0.061 C 
ATOM     21  H   UNL     1      14.147  30.176  16.686  0.00  0.00    +0.000 HD
ENDROOT
TORSDOF 0
ENDMDL
MODEL 5
REMARK VINA RESULT:    -3.591     19.718     21.860
REMARK INTER + INTRA:          -3.591
REMARK INTER:                  -3.591
REMARK INTRA:                   0.000
REMARK UNBOUND:                 0.000
REMARK  Name = /home/vital/Documents/PhD_2021/Malaria_codes/scripts/../data/pdbqt_ligands/ligand_161_temp.pdb
REMARK                            x       y       z     vdW  Elec       q    Type
REMARK                         _______ _______ _______ _____ _____    ______ ____
ROOT
ATOM      1  C1  UNL     1      17.105  43.491  29.453  0.00  0.00    -0.038 C 
ATOM      2  C2  UNL     1      15.992  44.497  29.288  0.00  0.00    -0.024 A 
ATOM      3  C3  UNL     1      15.535  44.800  27.907  0.00  0.00    +0.002 A 
ATOM      4  C4  UNL     1      16.079  44.192  26.765  0.00  0.00    -0.052 A 
ATOM      5  C5  UNL     1      15.619  44.515  25.483  0.00  0.00    -0.061 A 
ATOM      6  C6  UNL     1      14.604  45.454  25.321  0.00  0.00    -0.060 A 
ATOM      7  C7  UNL     1      14.048  46.070  26.440  0.00  0.00    -0.038 A 
ATOM      8  C8  UNL     1      14.513  45.742  27.718  0.00  0.00    +0.049 A 
ATOM      9  N1  UNL     1      13.936  46.366  28.822  0.00  0.00    -0.321 N 
ATOM     10  C9  UNL     1      14.300  46.118  30.122  0.00  0.00    +0.262 A 
ATOM     11  O1  UNL     1      13.694  46.696  31.021  0.00  0.00    -0.267 OA
ATOM     12  C10 UNL     1      15.407  45.137  30.331  0.00  0.00    +0.108 A 
ATOM     13  C11 UNL     1      15.868  44.822  31.714  0.00  0.00    +0.294 C 
ATOM     14  O2  UNL     1      15.476  43.793  32.264  0.00  0.00    -0.266 OA
ATOM     15  N2  UNL     1      16.726  45.758  32.144  0.00  0.00    -0.058 NA
ATOM     16  O3  UNL     1      17.430  45.374  33.345  0.00  0.00    -0.257 OA
ATOM     17  C12 UNL     1      16.703  45.876  34.469  0.00  0.00    +0.078 C 
ATOM     18  C13 UNL     1      17.467  45.527  35.755  0.00  0.00    -0.021 C 
ATOM     19  C14 UNL     1      16.656  45.933  36.984  0.00  0.00    -0.061 C 
ATOM     20  C15 UNL     1      18.844  46.193  35.783  0.00  0.00    -0.061 C 
ATOM     21  H   UNL     1      13.225  47.027  28.660  0.00  0.00    +0.000 HD
ENDROOT
TORSDOF 0
ENDMDL
MODEL 6
REMARK VINA RESULT:    -3.569      3.975      5.148
REMARK INTER + INTRA:          -3.569
REMARK INTER:                  -3.569
REMARK INTRA:                   0.000
REMARK UNBOUND:                 0.000
REMARK  Name = /home/vital/Documents/PhD_2021/Malaria_codes/scripts/../data/pdbqt_ligands/ligand_161_temp.pdb
REMARK                            x       y       z     vdW  Elec       q    Type
REMARK                         _______ _______ _______ _____ _____    ______ ____
ROOT
ATOM      1  C1  UNL     1      14.497  29.795  14.195  0.00  0.00    -0.038 C 
ATOM      2  C2  UNL     1      15.155  28.994  15.291  0.00  0.00    -0.024 A 
ATOM      3  C3  UNL     1      14.883  27.533  15.337  0.00  0.00    +0.002 A 
ATOM      4  C4  UNL     1      14.059  26.874  14.411  0.00  0.00    -0.052 A 
ATOM      5  C5  UNL     1      13.828  25.497  14.499  0.00  0.00    -0.061 A 
ATOM      6  C6  UNL     1      14.418  24.753  15.517  0.00  0.00    -0.060 A 
ATOM      7  C7  UNL     1      15.240  25.386  16.447  0.00  0.00    -0.038 A 
ATOM      8  C8  UNL     1      15.467  26.763  16.352  0.00  0.00    +0.049 A 
ATOM      9  N1  UNL     1      16.299  27.371  17.290  0.00  0.00    -0.321 N 
ATOM     10  C9  UNL     1      16.604  28.709  17.292  0.00  0.00    +0.262 A 
ATOM     11  O1  UNL     1      17.383  29.131  18.143  0.00  0.00    -0.267 OA
ATOM     12  C10 UNL     1      15.964  29.543  16.231  0.00  0.00    +0.108 A 
ATOM     13  C11 UNL     1      16.237  31.008  16.173  0.00  0.00    +0.294 C 
ATOM     14  O2  UNL     1      17.060  31.440  15.366  0.00  0.00    -0.266 OA
ATOM     15  N2  UNL     1      15.455  31.662  17.044  0.00  0.00    -0.058 NA
ATOM     16  O3  UNL     1      15.454  33.092  16.843  0.00  0.00    -0.257 OA
ATOM     17  C12 UNL     1      16.454  33.664  17.689  0.00  0.00    +0.078 C 
ATOM     18  C13 UNL     1      16.429  35.191  17.531  0.00  0.00    -0.021 C 
ATOM     19  C14 UNL     1      17.571  35.828  18.323  0.00  0.00    -0.061 C 
ATOM     20  C15 UNL     1      15.086  35.775  17.974  0.00  0.00    -0.061 C 
ATOM     21  H   UNL     1      16.691  26.807  17.995  0.00  0.00    +0.000 HD
ENDROOT
TORSDOF 0
ENDMDL
MODEL 7
REMARK VINA RESULT:    -3.557      4.672      6.309
REMARK INTER + INTRA:          -3.557
REMARK INTER:                  -3.557
REMARK INTRA:                   0.000
REMARK UNBOUND:                 0.000
REMARK  Name = /home/vital/Documents/PhD_2021/Malaria_codes/scripts/../data/pdbqt_ligands/ligand_161_temp.pdb
REMARK                            x       y       z     vdW  Elec       q    Type
REMARK                         _______ _______ _______ _____ _____    ______ ____
ROOT
ATOM      1  C1  UNL     1      15.738  29.836  13.448  0.00  0.00    -0.038 C 
ATOM      2  C2  UNL     1      15.550  29.421  14.887  0.00  0.00    -0.024 A 
ATOM      3  C3  UNL     1      14.909  28.106  15.148  0.00  0.00    +0.002 A 
ATOM      4  C4  UNL     1      14.487  27.239  14.128  0.00  0.00    -0.052 A 
ATOM      5  C5  UNL     1      13.883  26.012  14.425  0.00  0.00    -0.061 A 
ATOM      6  C6  UNL     1      13.690  25.630  15.749  0.00  0.00    -0.060 A 
ATOM      7  C7  UNL     1      14.102  26.474  16.778  0.00  0.00    -0.038 A 
ATOM      8  C8  UNL     1      14.705  27.699  16.474  0.00  0.00    +0.049 A 
ATOM      9  N1  UNL     1      15.115  28.522  17.521  0.00  0.00    -0.321 N 
ATOM     10  C9  UNL     1      15.727  29.738  17.347  0.00  0.00    +0.262 A 
ATOM     11  O1  UNL     1      16.084  30.362  18.344  0.00  0.00    -0.267 OA
ATOM     12  C10 UNL     1      15.923  30.193  15.938  0.00  0.00    +0.108 A 
ATOM     13  C11 UNL     1      16.571  31.509  15.667  0.00  0.00    +0.294 C 
ATOM     14  O2  UNL     1      17.761  31.545  15.354  0.00  0.00    -0.266 OA
ATOM     15  N2  UNL     1      15.675  32.500  15.776  0.00  0.00    -0.058 NA
ATOM     16  O3  UNL     1      16.153  33.757  15.250  0.00  0.00    -0.257 OA
ATOM     17  C12 UNL     1      16.738  34.499  16.324  0.00  0.00    +0.078 C 
ATOM     18  C13 UNL     1      17.200  35.864  15.795  0.00  0.00    -0.021 C 
ATOM     19  C14 UNL     1      17.947  36.633  16.885  0.00  0.00    -0.061 C 
ATOM     20  C15 UNL     1      16.022  36.689  15.275  0.00  0.00    -0.061 C 
ATOM     21  H   UNL     1      14.954  28.213  18.442  0.00  0.00    +0.000 HD
ENDROOT
TORSDOF 0
ENDMDL
MODEL 8
REMARK VINA RESULT:    -3.523      5.119      7.126
REMARK INTER + INTRA:          -3.523
REMARK INTER:                  -3.523
REMARK INTRA:                   0.000
REMARK UNBOUND:                 0.000
REMARK  Name = /home/vital/Documents/PhD_2021/Malaria_codes/scripts/../data/pdbqt_ligands/ligand_161_temp.pdb
REMARK                            x       y       z     vdW  Elec       q    Type
REMARK                         _______ _______ _______ _____ _____    ______ ____
ROOT
ATOM      1  C1  UNL     1      15.673  29.538  17.155  0.00  0.00    -0.038 C 
ATOM      2  C2  UNL     1      15.548  28.940  15.774  0.00  0.00    -0.024 A 
ATOM      3  C3  UNL     1      15.178  27.504  15.675  0.00  0.00    +0.002 A 
ATOM      4  C4  UNL     1      14.932  26.693  16.794  0.00  0.00    -0.052 A 
ATOM      5  C5  UNL     1      14.591  25.343  16.649  0.00  0.00    -0.061 A 
ATOM      6  C6  UNL     1      14.490  24.780  15.380  0.00  0.00    -0.060 A 
ATOM      7  C7  UNL     1      14.729  25.566  14.255  0.00  0.00    -0.038 A 
ATOM      8  C8  UNL     1      15.069  26.915  14.407  0.00  0.00    +0.049 A 
ATOM      9  N1  UNL     1      15.296  27.682  13.266  0.00  0.00    -0.321 N 
ATOM     10  C9  UNL     1      15.623  29.014  13.290  0.00  0.00    +0.262 A 
ATOM     11  O1  UNL     1      15.760  29.603  12.220  0.00  0.00    -0.267 OA
ATOM     12  C10 UNL     1      15.769  29.645  14.636  0.00  0.00    +0.108 A 
ATOM     13  C11 UNL     1      16.134  31.086  14.745  0.00  0.00    +0.294 C 
ATOM     14  O2  UNL     1      15.255  31.919  14.964  0.00  0.00    -0.266 OA
ATOM     15  N2  UNL     1      17.459  31.241  14.620  0.00  0.00    -0.058 NA
ATOM     16  O3  UNL     1      17.915  32.558  14.999  0.00  0.00    -0.257 OA
ATOM     17  C12 UNL     1      17.956  33.374  13.826  0.00  0.00    +0.078 C 
ATOM     18  C13 UNL     1      18.494  34.762  14.200  0.00  0.00    -0.021 C 
ATOM     19  C14 UNL     1      18.430  35.701  12.996  0.00  0.00    -0.061 C 
ATOM     20  C15 UNL     1      19.925  34.681  14.735  0.00  0.00    -0.061 C 
ATOM     21  H   UNL     1      15.217  27.241  12.390  0.00  0.00    +0.000 HD
ENDROOT
TORSDOF 0
ENDMDL
