MODEL 1
REMARK VINA RESULT:    -4.888      0.000      0.000
REMARK INTER + INTRA:          -4.888
REMARK INTER:                  -4.888
REMARK INTRA:                   0.000
REMARK UNBOUND:                 0.000
REMARK  Name = /home/vital/Documents/PhD_2021/Malaria_codes/scripts/../data/pdbqt_ligands/ligand_75_temp.pdb
REMARK                            x       y       z     vdW  Elec       q    Type
REMARK                         _______ _______ _______ _____ _____    ______ ____
ROOT
ATOM      1  C   UNL     1      13.788  40.835  29.851  0.00  0.00    -0.009 C 
ATOM      2  N   UNL     1      13.955  40.205  28.737  0.00  0.00    -0.270 NA
ATOM      3  C   UNL     1      13.842  38.838  28.797  0.00  0.00    +0.041 C 
ATOM      4  C   UNL     1      14.044  38.066  27.721  0.00  0.00    +0.012 C 
ATOM      5  N   UNL     1      14.381  38.517  26.471  0.00  0.00    -0.325 N 
ATOM      6  C   UNL     1      14.668  37.795  25.345  0.00  0.00    -0.007 C 
ATOM      7  C   UNL     1      15.004  38.228  24.122  0.00  0.00    -0.048 C 
ATOM      8  C   UNL     1      15.093  39.613  23.719  0.00  0.00    -0.064 C 
ATOM      9  C   UNL     1      15.523  40.067  22.530  0.00  0.00    -0.080 C 
ATOM     10  C   UNL     1      16.077  39.283  21.373  0.00  0.00    -0.015 C 
ATOM     11  C   UNL     1      15.051  39.074  20.299  0.00  0.00    -0.062 C 
ATOM     12  C   UNL     1      14.936  37.995  19.513  0.00  0.00    +0.021 C 
ATOM     13  N   UNL     1      15.697  36.855  19.501  0.00  0.00    -0.273 N 
ATOM     14  O   UNL     1      15.197  35.740  18.825  0.00  0.00    -0.273 OA
ATOM     15  C   UNL     1      16.147  35.422  17.803  0.00  0.00    +0.091 C 
ATOM     16  C   UNL     1      15.580  34.306  16.923  0.00  0.00    +0.036 C 
ATOM     17  N   UNL     1      16.453  34.055  15.776  0.00  0.00    -0.333 N 
ATOM     18  C   UNL     1      16.123  33.140  14.805  0.00  0.00    +0.076 C 
ATOM     19  N   UNL     1      15.749  31.921  14.816  0.00  0.00    -0.269 NA
ATOM     20  C   UNL     1      15.691  31.189  16.084  0.00  0.00    +0.101 C 
ATOM     21  C   UNL     1      15.815  29.685  15.898  0.00  0.00    +0.151 A 
ATOM     22  N   UNL     1      17.036  29.135  16.041  0.00  0.00    -0.234 NA
ATOM     23  C   UNL     1      17.147  27.801  15.826  0.00  0.00    +0.054 A 
ATOM     24  C   UNL     1      18.551  27.263  15.976  0.00  0.00    +0.003 C 
ATOM     25  C   UNL     1      18.884  26.854  17.418  0.00  0.00    +0.001 C 
ATOM     26  N   UNL     1      18.407  25.514  17.796  0.00  0.00    -0.319 N 
ATOM     27  C   UNL     1      19.291  24.459  17.314  0.00  0.00    -0.016 C 
ATOM     28  C   UNL     1      16.048  26.998  15.482  0.00  0.00    +0.022 A 
ATOM     29  C   UNL     1      16.081  25.600  15.241  0.00  0.00    -0.051 A 
ATOM     30  C   UNL     1      14.926  24.903  14.889  0.00  0.00    -0.061 A 
ATOM     31  C   UNL     1      13.726  25.590  14.770  0.00  0.00    -0.060 A 
ATOM     32  C   UNL     1      13.690  26.964  15.015  0.00  0.00    -0.036 A 
ATOM     33  C   UNL     1      14.828  27.681  15.370  0.00  0.00    +0.075 A 
ATOM     34  N   UNL     1      14.703  28.995  15.581  0.00  0.00    -0.230 NA
ATOM     35  H   UNL     1      14.422  39.496  26.370  0.00  0.00    +0.000 HD
ATOM     36  H   UNL     1      16.569  36.823  19.956  0.00  0.00    +0.000 HD
ATOM     37  H   UNL     1      17.298  34.553  15.698  0.00  0.00    +0.000 HD
ATOM     38  H   UNL     1      17.478  25.372  17.399  0.00  0.00    +0.000 HD
ATOM     39  H   UNL     1      18.386  25.465  18.814  0.00  0.00    +0.000 HD
ENDROOT
TORSDOF 0
ENDMDL
MODEL 2
REMARK VINA RESULT:    -4.878     14.436     18.062
REMARK INTER + INTRA:          -4.878
REMARK INTER:                  -4.878
REMARK INTRA:                   0.000
REMARK UNBOUND:                 0.000
REMARK  Name = /home/vital/Documents/PhD_2021/Malaria_codes/scripts/../data/pdbqt_ligands/ligand_75_temp.pdb
REMARK                            x       y       z     vdW  Elec       q    Type
REMARK                         _______ _______ _______ _____ _____    ______ ____
ROOT
ATOM      1  C   UNL     1      29.582  45.174  17.156  0.00  0.00    -0.009 C 
ATOM      2  N   UNL     1      28.447  45.266  17.763  0.00  0.00    -0.270 NA
ATOM      3  C   UNL     1      28.410  44.775  19.044  0.00  0.00    +0.041 C 
ATOM      4  C   UNL     1      27.279  44.765  19.762  0.00  0.00    +0.012 C 
ATOM      5  N   UNL     1      26.059  45.221  19.331  0.00  0.00    -0.325 N 
ATOM      6  C   UNL     1      24.852  45.185  19.974  0.00  0.00    -0.007 C 
ATOM      7  C   UNL     1      23.655  45.623  19.557  0.00  0.00    -0.048 C 
ATOM      8  C   UNL     1      23.399  46.291  18.302  0.00  0.00    -0.064 C 
ATOM      9  C   UNL     1      22.195  46.647  17.824  0.00  0.00    -0.080 C 
ATOM     10  C   UNL     1      20.838  46.384  18.417  0.00  0.00    -0.015 C 
ATOM     11  C   UNL     1      20.297  47.590  19.127  0.00  0.00    -0.062 C 
ATOM     12  C   UNL     1      19.531  47.585  20.226  0.00  0.00    +0.021 C 
ATOM     13  N   UNL     1      19.075  46.514  20.950  0.00  0.00    -0.273 N 
ATOM     14  O   UNL     1      18.570  46.754  22.229  0.00  0.00    -0.273 OA
ATOM     15  C   UNL     1      17.211  46.306  22.224  0.00  0.00    +0.091 C 
ATOM     16  C   UNL     1      16.553  46.689  23.551  0.00  0.00    +0.036 C 
ATOM     17  N   UNL     1      15.122  46.383  23.528  0.00  0.00    -0.333 N 
ATOM     18  C   UNL     1      14.300  46.698  24.584  0.00  0.00    +0.076 C 
ATOM     19  N   UNL     1      14.346  46.496  25.842  0.00  0.00    -0.269 NA
ATOM     20  C   UNL     1      15.431  45.695  26.412  0.00  0.00    +0.101 C 
ATOM     21  C   UNL     1      15.056  45.062  27.744  0.00  0.00    +0.151 A 
ATOM     22  N   UNL     1      14.600  43.795  27.729  0.00  0.00    -0.234 NA
ATOM     23  C   UNL     1      14.222  43.256  28.914  0.00  0.00    +0.054 A 
ATOM     24  C   UNL     1      13.695  41.844  28.813  0.00  0.00    +0.003 C 
ATOM     25  C   UNL     1      14.800  40.784  28.913  0.00  0.00    +0.001 C 
ATOM     26  N   UNL     1      15.206  40.457  30.289  0.00  0.00    -0.319 N 
ATOM     27  C   UNL     1      14.284  39.527  30.929  0.00  0.00    -0.016 C 
ATOM     28  C   UNL     1      14.306  43.962  30.125  0.00  0.00    +0.022 A 
ATOM     29  C   UNL     1      13.932  43.470  31.402  0.00  0.00    -0.051 A 
ATOM     30  C   UNL     1      14.044  44.267  32.541  0.00  0.00    -0.061 A 
ATOM     31  C   UNL     1      14.526  45.562  32.420  0.00  0.00    -0.060 A 
ATOM     32  C   UNL     1      14.903  46.045  31.165  0.00  0.00    -0.036 A 
ATOM     33  C   UNL     1      14.803  45.269  30.015  0.00  0.00    +0.075 A 
ATOM     34  N   UNL     1      15.181  45.813  28.855  0.00  0.00    -0.230 NA
ATOM     35  H   UNL     1      26.052  45.630  18.436  0.00  0.00    +0.000 HD
ATOM     36  H   UNL     1      19.102  45.603  20.579  0.00  0.00    +0.000 HD
ATOM     37  H   UNL     1      14.738  45.942  22.737  0.00  0.00    +0.000 HD
ATOM     38  H   UNL     1      15.238  41.318  30.835  0.00  0.00    +0.000 HD
ATOM     39  H   UNL     1      16.123  40.011  30.247  0.00  0.00    +0.000 HD
ENDROOT
TORSDOF 0
ENDMDL
MODEL 3
REMARK VINA RESULT:    -4.751     17.136     22.453
REMARK INTER + INTRA:          -4.751
REMARK INTER:                  -4.751
REMARK INTRA:                   0.000
REMARK UNBOUND:                 0.000
REMARK  Name = /home/vital/Documents/PhD_2021/Malaria_codes/scripts/../data/pdbqt_ligands/ligand_75_temp.pdb
REMARK                            x       y       z     vdW  Elec       q    Type
REMARK                         _______ _______ _______ _____ _____    ______ ____
ROOT
ATOM      1  C   UNL     1      38.278  29.533  15.201  0.00  0.00    -0.009 C 
ATOM      2  N   UNL     1      37.786  30.720  15.321  0.00  0.00    -0.270 NA
ATOM      3  C   UNL     1      36.475  30.790  15.719  0.00  0.00    +0.041 C 
ATOM      4  C   UNL     1      35.834  31.961  15.832  0.00  0.00    +0.012 C 
ATOM      5  N   UNL     1      36.377  33.193  15.571  0.00  0.00    -0.325 N 
ATOM      6  C   UNL     1      35.775  34.421  15.597  0.00  0.00    -0.007 C 
ATOM      7  C   UNL     1      36.296  35.628  15.339  0.00  0.00    -0.048 C 
ATOM      8  C   UNL     1      37.678  35.889  15.006  0.00  0.00    -0.064 C 
ATOM      9  C   UNL     1      38.197  37.075  14.647  0.00  0.00    -0.080 C 
ATOM     10  C   UNL     1      37.486  38.382  14.432  0.00  0.00    -0.015 C 
ATOM     11  C   UNL     1      37.635  39.298  15.610  0.00  0.00    -0.062 C 
ATOM     12  C   UNL     1      36.719  40.167  16.059  0.00  0.00    +0.021 C 
ATOM     13  N   UNL     1      35.464  40.421  15.571  0.00  0.00    -0.273 N 
ATOM     14  O   UNL     1      34.574  41.125  16.384  0.00  0.00    -0.273 OA
ATOM     15  C   UNL     1      34.219  42.312  15.668  0.00  0.00    +0.091 C 
ATOM     16  C   UNL     1      33.369  43.207  16.574  0.00  0.00    +0.036 C 
ATOM     17  N   UNL     1      33.110  44.497  15.934  0.00  0.00    -0.333 N 
ATOM     18  C   UNL     1      32.422  45.497  16.579  0.00  0.00    +0.076 C 
ATOM     19  N   UNL     1      31.312  45.558  17.203  0.00  0.00    -0.269 NA
ATOM     20  C   UNL     1      30.438  44.383  17.251  0.00  0.00    +0.101 C 
ATOM     21  C   UNL     1      28.980  44.747  17.481  0.00  0.00    +0.151 A 
ATOM     22  N   UNL     1      28.184  44.857  16.401  0.00  0.00    -0.234 NA
ATOM     23  C   UNL     1      26.897  45.229  16.610  0.00  0.00    +0.054 A 
ATOM     24  C   UNL     1      26.076  45.359  15.349  0.00  0.00    +0.003 C 
ATOM     25  C   UNL     1      25.414  44.040  14.926  0.00  0.00    +0.001 C 
ATOM     26  N   UNL     1      24.157  43.739  15.629  0.00  0.00    -0.319 N 
ATOM     27  C   UNL     1      23.024  44.464  15.066  0.00  0.00    -0.016 C 
ATOM     28  C   UNL     1      26.384  45.480  17.893  0.00  0.00    +0.022 A 
ATOM     29  C   UNL     1      25.054  45.872  18.195  0.00  0.00    -0.051 A 
ATOM     30  C   UNL     1      24.656  46.111  19.510  0.00  0.00    -0.061 A 
ATOM     31  C   UNL     1      25.577  45.966  20.537  0.00  0.00    -0.060 A 
ATOM     32  C   UNL     1      26.884  45.573  20.242  0.00  0.00    -0.036 A 
ATOM     33  C   UNL     1      27.305  45.325  18.940  0.00  0.00    +0.075 A 
ATOM     34  N   UNL     1      28.575  44.958  18.749  0.00  0.00    -0.230 NA
ATOM     35  H   UNL     1      37.332  33.193  15.332  0.00  0.00    +0.000 HD
ATOM     36  H   UNL     1      35.197  40.115  14.674  0.00  0.00    +0.000 HD
ATOM     37  H   UNL     1      33.437  44.653  15.019  0.00  0.00    +0.000 HD
ATOM     38  H   UNL     1      24.258  43.998  16.610  0.00  0.00    +0.000 HD
ATOM     39  H   UNL     1      23.972  42.741  15.526  0.00  0.00    +0.000 HD
ENDROOT
TORSDOF 0
ENDMDL
MODEL 4
REMARK VINA RESULT:    -4.476      5.344      5.856
REMARK INTER + INTRA:          -4.476
REMARK INTER:                  -4.476
REMARK INTRA:                   0.000
REMARK UNBOUND:                 0.000
REMARK  Name = /home/vital/Documents/PhD_2021/Malaria_codes/scripts/../data/pdbqt_ligands/ligand_75_temp.pdb
REMARK                            x       y       z     vdW  Elec       q    Type
REMARK                         _______ _______ _______ _____ _____    ______ ____
ROOT
ATOM      1  C   UNL     1      20.842  45.611  20.797  0.00  0.00    -0.009 C 
ATOM      2  N   UNL     1      20.450  44.527  20.215  0.00  0.00    -0.270 NA
ATOM      3  C   UNL     1      20.417  43.402  21.001  0.00  0.00    +0.041 C 
ATOM      4  C   UNL     1      20.078  42.206  20.503  0.00  0.00    +0.012 C 
ATOM      5  N   UNL     1      19.737  41.954  19.199  0.00  0.00    -0.325 N 
ATOM      6  C   UNL     1      19.445  40.758  18.602  0.00  0.00    -0.007 C 
ATOM      7  C   UNL     1      19.117  40.503  17.328  0.00  0.00    -0.048 C 
ATOM      8  C   UNL     1      18.957  41.496  16.290  0.00  0.00    -0.064 C 
ATOM      9  C   UNL     1      18.727  41.253  14.988  0.00  0.00    -0.080 C 
ATOM     10  C   UNL     1      18.653  39.928  14.282  0.00  0.00    -0.015 C 
ATOM     11  C   UNL     1      17.235  39.502  14.043  0.00  0.00    -0.062 C 
ATOM     12  C   UNL     1      16.772  38.245  14.056  0.00  0.00    +0.021 C 
ATOM     13  N   UNL     1      17.456  37.081  14.287  0.00  0.00    -0.273 N 
ATOM     14  O   UNL     1      16.716  35.930  14.570  0.00  0.00    -0.273 OA
ATOM     15  C   UNL     1      17.040  34.976  13.553  0.00  0.00    +0.091 C 
ATOM     16  C   UNL     1      16.140  33.749  13.714  0.00  0.00    +0.036 C 
ATOM     17  N   UNL     1      16.333  32.814  12.606  0.00  0.00    -0.333 N 
ATOM     18  C   UNL     1      15.588  31.665  12.492  0.00  0.00    +0.076 C 
ATOM     19  N   UNL     1      15.302  30.705  13.281  0.00  0.00    -0.269 NA
ATOM     20  C   UNL     1      15.900  30.657  14.617  0.00  0.00    +0.101 C 
ATOM     21  C   UNL     1      15.955  29.248  15.185  0.00  0.00    +0.151 A 
ATOM     22  N   UNL     1      17.100  28.554  15.031  0.00  0.00    -0.234 NA
ATOM     23  C   UNL     1      17.124  27.281  15.496  0.00  0.00    +0.054 A 
ATOM     24  C   UNL     1      18.430  26.560  15.262  0.00  0.00    +0.003 C 
ATOM     25  C   UNL     1      19.447  26.778  16.391  0.00  0.00    +0.001 C 
ATOM     26  N   UNL     1      19.256  25.903  17.558  0.00  0.00    -0.319 N 
ATOM     27  C   UNL     1      19.810  24.571  17.344  0.00  0.00    -0.016 C 
ATOM     28  C   UNL     1      16.021  26.689  16.131  0.00  0.00    +0.022 A 
ATOM     29  C   UNL     1      15.966  25.368  16.644  0.00  0.00    -0.051 A 
ATOM     30  C   UNL     1      14.807  24.876  17.244  0.00  0.00    -0.061 A 
ATOM     31  C   UNL     1      13.690  25.693  17.337  0.00  0.00    -0.060 A 
ATOM     32  C   UNL     1      13.744  26.997  16.841  0.00  0.00    -0.036 A 
ATOM     33  C   UNL     1      14.889  27.511  16.240  0.00  0.00    +0.075 A 
ATOM     34  N   UNL     1      14.851  28.768  15.788  0.00  0.00    -0.230 NA
ATOM     35  H   UNL     1      19.697  42.743  18.612  0.00  0.00    +0.000 HD
ATOM     36  H   UNL     1      18.440  37.055  14.256  0.00  0.00    +0.000 HD
ATOM     37  H   UNL     1      17.014  33.013  11.923  0.00  0.00    +0.000 HD
ATOM     38  H   UNL     1      18.256  25.818  17.745  0.00  0.00    +0.000 HD
ATOM     39  H   UNL     1      19.745  26.323  18.348  0.00  0.00    +0.000 HD
ENDROOT
TORSDOF 0
ENDMDL
MODEL 5
REMARK VINA RESULT:    -4.416      7.958      9.206
REMARK INTER + INTRA:          -4.416
REMARK INTER:                  -4.416
REMARK INTRA:                   0.000
REMARK UNBOUND:                 0.000
REMARK  Name = /home/vital/Documents/PhD_2021/Malaria_codes/scripts/../data/pdbqt_ligands/ligand_75_temp.pdb
REMARK                            x       y       z     vdW  Elec       q    Type
REMARK                         _______ _______ _______ _____ _____    ______ ____
ROOT
ATOM      1  C   UNL     1      28.346  31.636  30.062  0.00  0.00    -0.009 C 
ATOM      2  N   UNL     1      27.281  31.369  29.384  0.00  0.00    -0.270 NA
ATOM      3  C   UNL     1      27.481  30.925  28.101  0.00  0.00    +0.041 C 
ATOM      4  C   UNL     1      26.457  30.662  27.278  0.00  0.00    +0.012 C 
ATOM      5  N   UNL     1      25.130  30.800  27.592  0.00  0.00    -0.325 N 
ATOM      6  C   UNL     1      24.034  30.618  26.794  0.00  0.00    -0.007 C 
ATOM      7  C   UNL     1      22.734  30.756  27.091  0.00  0.00    -0.048 C 
ATOM      8  C   UNL     1      22.205  31.100  28.391  0.00  0.00    -0.064 C 
ATOM      9  C   UNL     1      20.916  31.340  28.685  0.00  0.00    -0.080 C 
ATOM     10  C   UNL     1      19.736  31.385  27.754  0.00  0.00    -0.015 C 
ATOM     11  C   UNL     1      18.937  30.116  27.804  0.00  0.00    -0.062 C 
ATOM     12  C   UNL     1      18.291  29.546  26.779  0.00  0.00    +0.021 C 
ATOM     13  N   UNL     1      18.209  29.963  25.476  0.00  0.00    -0.273 N 
ATOM     14  O   UNL     1      17.758  29.049  24.522  0.00  0.00    -0.273 OA
ATOM     15  C   UNL     1      16.581  29.616  23.936  0.00  0.00    +0.091 C 
ATOM     16  C   UNL     1      15.947  28.590  22.994  0.00  0.00    +0.036 C 
ATOM     17  N   UNL     1      14.661  29.074  22.490  0.00  0.00    -0.333 N 
ATOM     18  C   UNL     1      13.868  28.300  21.676  0.00  0.00    +0.076 C 
ATOM     19  N   UNL     1      14.066  27.639  20.604  0.00  0.00    -0.269 NA
ATOM     20  C   UNL     1      15.373  27.695  19.945  0.00  0.00    +0.101 C 
ATOM     21  C   UNL     1      15.293  27.381  18.459  0.00  0.00    +0.151 A 
ATOM     22  N   UNL     1      15.209  28.418  17.603  0.00  0.00    -0.234 NA
ATOM     23  C   UNL     1      15.089  28.128  16.284  0.00  0.00    +0.054 A 
ATOM     24  C   UNL     1      14.972  29.341  15.391  0.00  0.00    +0.003 C 
ATOM     25  C   UNL     1      16.333  29.888  14.941  0.00  0.00    +0.001 C 
ATOM     26  N   UNL     1      16.920  29.185  13.789  0.00  0.00    -0.319 N 
ATOM     27  C   UNL     1      16.346  29.629  12.523  0.00  0.00    -0.016 C 
ATOM     28  C   UNL     1      15.067  26.811  15.800  0.00  0.00    +0.022 A 
ATOM     29  C   UNL     1      14.945  26.426  14.440  0.00  0.00    -0.051 A 
ATOM     30  C   UNL     1      14.917  25.080  14.072  0.00  0.00    -0.061 A 
ATOM     31  C   UNL     1      15.008  24.105  15.055  0.00  0.00    -0.060 A 
ATOM     32  C   UNL     1      15.137  24.482  16.393  0.00  0.00    -0.036 A 
ATOM     33  C   UNL     1      15.169  25.816  16.785  0.00  0.00    +0.075 A 
ATOM     34  N   UNL     1      15.289  26.086  18.088  0.00  0.00    -0.230 NA
ATOM     35  H   UNL     1      24.939  31.066  28.521  0.00  0.00    +0.000 HD
ATOM     36  H   UNL     1      18.460  30.880  25.221  0.00  0.00    +0.000 HD
ATOM     37  H   UNL     1      14.356  29.975  22.740  0.00  0.00    +0.000 HD
ATOM     38  H   UNL     1      16.751  28.185  13.893  0.00  0.00    +0.000 HD
ATOM     39  H   UNL     1      17.918  29.393  13.770  0.00  0.00    +0.000 HD
ENDROOT
TORSDOF 0
ENDMDL
MODEL 6
REMARK VINA RESULT:    -4.369      1.728      1.840
REMARK INTER + INTRA:          -4.369
REMARK INTER:                  -4.369
REMARK INTRA:                   0.000
REMARK UNBOUND:                 0.000
REMARK  Name = /home/vital/Documents/PhD_2021/Malaria_codes/scripts/../data/pdbqt_ligands/ligand_75_temp.pdb
REMARK                            x       y       z     vdW  Elec       q    Type
REMARK                         _______ _______ _______ _____ _____    ______ ____
ROOT
ATOM      1  C   UNL     1      14.278  42.525  27.684  0.00  0.00    -0.009 C 
ATOM      2  N   UNL     1      14.542  41.705  26.723  0.00  0.00    -0.270 NA
ATOM      3  C   UNL     1      14.030  40.439  26.856  0.00  0.00    +0.041 C 
ATOM      4  C   UNL     1      14.276  39.481  25.953  0.00  0.00    +0.012 C 
ATOM      5  N   UNL     1      15.043  39.628  24.825  0.00  0.00    -0.325 N 
ATOM      6  C   UNL     1      15.394  38.689  23.895  0.00  0.00    -0.007 C 
ATOM      7  C   UNL     1      16.147  38.824  22.795  0.00  0.00    -0.048 C 
ATOM      8  C   UNL     1      16.731  40.060  22.326  0.00  0.00    -0.064 C 
ATOM      9  C   UNL     1      17.569  40.197  21.285  0.00  0.00    -0.080 C 
ATOM     10  C   UNL     1      18.157  39.126  20.409  0.00  0.00    -0.015 C 
ATOM     11  C   UNL     1      17.432  39.015  19.100  0.00  0.00    -0.062 C 
ATOM     12  C   UNL     1      17.221  37.890  18.404  0.00  0.00    +0.021 C 
ATOM     13  N   UNL     1      17.599  36.608  18.708  0.00  0.00    -0.273 N 
ATOM     14  O   UNL     1      16.995  35.562  18.006  0.00  0.00    -0.273 OA
ATOM     15  C   UNL     1      18.046  34.858  17.338  0.00  0.00    +0.091 C 
ATOM     16  C   UNL     1      17.433  33.796  16.422  0.00  0.00    +0.036 C 
ATOM     17  N   UNL     1      18.465  33.155  15.607  0.00  0.00    -0.333 N 
ATOM     18  C   UNL     1      18.153  32.212  14.658  0.00  0.00    +0.076 C 
ATOM     19  N   UNL     1      17.456  31.144  14.656  0.00  0.00    -0.269 NA
ATOM     20  C   UNL     1      16.861  30.660  15.904  0.00  0.00    +0.101 C 
ATOM     21  C   UNL     1      16.593  29.163  15.885  0.00  0.00    +0.151 A 
ATOM     22  N   UNL     1      17.523  28.353  16.424  0.00  0.00    -0.234 NA
ATOM     23  C   UNL     1      17.299  27.017  16.358  0.00  0.00    +0.054 A 
ATOM     24  C   UNL     1      18.399  26.174  16.958  0.00  0.00    +0.003 C 
ATOM     25  C   UNL     1      18.213  25.927  18.462  0.00  0.00    +0.001 C 
ATOM     26  N   UNL     1      17.291  24.828  18.788  0.00  0.00    -0.319 N 
ATOM     27  C   UNL     1      17.928  23.522  18.673  0.00  0.00    -0.016 C 
ATOM     28  C   UNL     1      16.146  26.474  15.771  0.00  0.00    +0.022 A 
ATOM     29  C   UNL     1      15.838  25.093  15.663  0.00  0.00    -0.051 A 
ATOM     30  C   UNL     1      14.665  24.663  15.043  0.00  0.00    -0.061 A 
ATOM     31  C   UNL     1      13.788  25.603  14.522  0.00  0.00    -0.060 A 
ATOM     32  C   UNL     1      14.085  26.962  14.634  0.00  0.00    -0.036 A 
ATOM     33  C   UNL     1      15.246  27.416  15.251  0.00  0.00    +0.075 A 
ATOM     34  N   UNL     1      15.452  28.735  15.309  0.00  0.00    -0.230 NA
ATOM     35  H   UNL     1      15.387  40.536  24.663  0.00  0.00    +0.000 HD
ATOM     36  H   UNL     1      18.275  36.430  19.400  0.00  0.00    +0.000 HD
ATOM     37  H   UNL     1      19.408  33.406  15.742  0.00  0.00    +0.000 HD
ATOM     38  H   UNL     1      16.497  24.864  18.148  0.00  0.00    +0.000 HD
ATOM     39  H   UNL     1      16.991  24.947  19.755  0.00  0.00    +0.000 HD
ENDROOT
TORSDOF 0
ENDMDL
MODEL 7
REMARK VINA RESULT:    -4.257      8.903     15.513
REMARK INTER + INTRA:          -4.257
REMARK INTER:                  -4.257
REMARK INTRA:                   0.000
REMARK UNBOUND:                 0.000
REMARK  Name = /home/vital/Documents/PhD_2021/Malaria_codes/scripts/../data/pdbqt_ligands/ligand_75_temp.pdb
REMARK                            x       y       z     vdW  Elec       q    Type
REMARK                         _______ _______ _______ _____ _____    ______ ____
ROOT
ATOM      1  C   UNL     1      35.591  22.590  18.753  0.00  0.00    -0.009 C 
ATOM      2  N   UNL     1      34.317  22.745  18.883  0.00  0.00    -0.270 NA
ATOM      3  C   UNL     1      33.633  23.084  17.742  0.00  0.00    +0.041 C 
ATOM      4  C   UNL     1      32.315  23.321  17.755  0.00  0.00    +0.012 C 
ATOM      5  N   UNL     1      31.507  23.265  18.862  0.00  0.00    -0.325 N 
ATOM      6  C   UNL     1      30.175  23.557  18.970  0.00  0.00    -0.007 C 
ATOM      7  C   UNL     1      29.381  23.510  20.049  0.00  0.00    -0.048 C 
ATOM      8  C   UNL     1      29.785  23.079  21.368  0.00  0.00    -0.064 C 
ATOM      9  C   UNL     1      29.032  23.119  22.480  0.00  0.00    -0.080 C 
ATOM     10  C   UNL     1      27.646  23.674  22.653  0.00  0.00    -0.015 C 
ATOM     11  C   UNL     1      26.608  22.590  22.657  0.00  0.00    -0.062 C 
ATOM     12  C   UNL     1      25.365  22.682  22.167  0.00  0.00    +0.021 C 
ATOM     13  N   UNL     1      24.758  23.750  21.560  0.00  0.00    -0.273 N 
ATOM     14  O   UNL     1      23.580  23.517  20.846  0.00  0.00    -0.273 OA
ATOM     15  C   UNL     1      22.564  24.316  21.461  0.00  0.00    +0.091 C 
ATOM     16  C   UNL     1      21.213  23.983  20.824  0.00  0.00    +0.036 C 
ATOM     17  N   UNL     1      20.126  24.667  21.526  0.00  0.00    -0.333 N 
ATOM     18  C   UNL     1      18.810  24.474  21.180  0.00  0.00    +0.076 C 
ATOM     19  N   UNL     1      18.160  24.515  20.084  0.00  0.00    -0.269 NA
ATOM     20  C   UNL     1      18.836  24.924  18.851  0.00  0.00    +0.101 C 
ATOM     21  C   UNL     1      17.875  25.484  17.813  0.00  0.00    +0.151 A 
ATOM     22  N   UNL     1      17.723  26.820  17.757  0.00  0.00    -0.234 NA
ATOM     23  C   UNL     1      16.828  27.308  16.863  0.00  0.00    +0.054 A 
ATOM     24  C   UNL     1      16.693  28.813  16.879  0.00  0.00    +0.003 C 
ATOM     25  C   UNL     1      17.696  29.515  15.954  0.00  0.00    +0.001 C 
ATOM     26  N   UNL     1      17.288  29.565  14.541  0.00  0.00    -0.319 N 
ATOM     27  C   UNL     1      16.332  30.635  14.282  0.00  0.00    -0.016 C 
ATOM     28  C   UNL     1      16.088  26.478  16.007  0.00  0.00    +0.022 A 
ATOM     29  C   UNL     1      15.136  26.909  15.047  0.00  0.00    -0.051 A 
ATOM     30  C   UNL     1      14.444  25.991  14.257  0.00  0.00    -0.061 A 
ATOM     31  C   UNL     1      14.690  24.635  14.416  0.00  0.00    -0.060 A 
ATOM     32  C   UNL     1      15.633  24.209  15.354  0.00  0.00    -0.036 A 
ATOM     33  C   UNL     1      16.338  25.105  16.152  0.00  0.00    +0.075 A 
ATOM     34  N   UNL     1      17.217  24.609  17.027  0.00  0.00    -0.230 NA
ATOM     35  H   UNL     1      31.948  22.974  19.693  0.00  0.00    +0.000 HD
ATOM     36  H   UNL     1      25.140  24.655  21.625  0.00  0.00    +0.000 HD
ATOM     37  H   UNL     1      20.343  25.281  22.264  0.00  0.00    +0.000 HD
ATOM     38  H   UNL     1      16.860  28.674  14.291  0.00  0.00    +0.000 HD
ATOM     39  H   UNL     1      18.120  29.746  13.981  0.00  0.00    +0.000 HD
ENDROOT
TORSDOF 0
ENDMDL
