MODEL 1
REMARK VINA RESULT:    -4.530      0.000      0.000
REMARK INTER + INTRA:          -4.530
REMARK INTER:                  -4.530
REMARK INTRA:                   0.000
REMARK UNBOUND:                 0.000
REMARK  Name = /home/vital/Documents/PhD_2021/Malaria_codes/scripts/../data/pdbqt_ligands/ligand_67_temp.pdb
REMARK                            x       y       z     vdW  Elec       q    Type
REMARK                         _______ _______ _______ _____ _____    ______ ____
ROOT
ATOM      1  C1  UNL     1      14.819  31.969  12.249  0.00  0.00    -0.055 C 
ATOM      2  C2  UNL     1      14.816  31.651  13.549  0.00  0.00    +0.135 C 
ATOM      3  O1  UNL     1      14.423  32.586  14.495  0.00  0.00    -0.485 OA
ATOM      4  C3  UNL     1      15.548  33.186  15.167  0.00  0.00    +0.131 C 
ATOM      5  C4  UNL     1      16.313  32.095  15.914  0.00  0.00    +0.075 C 
ATOM      6  N1  UNL     1      15.685  31.590  16.909  0.00  0.00    -0.266 NA
ATOM      7  C5  UNL     1      15.924  30.256  17.398  0.00  0.00    +0.103 C 
ATOM      8  N2  UNL     1      14.643  29.538  17.441  0.00  0.00    -0.324 N 
ATOM      9  C6  UNL     1      14.552  28.352  16.690  0.00  0.00    +0.051 A 
ATOM     10  C7  UNL     1      14.818  27.128  17.321  0.00  0.00    -0.019 A 
ATOM     11  C8  UNL     1      14.791  25.926  16.604  0.00  0.00    +0.061 A 
ATOM     12 CL1  UNL     1      15.134  24.470  17.472  0.00  0.00    -0.082 Cl
ATOM     13  C9  UNL     1      14.508  25.933  15.236  0.00  0.00    +0.061 A 
ATOM     14 CL2  UNL     1      14.479  24.488  14.288  0.00  0.00    -0.082 Cl
ATOM     15  C10 UNL     1      14.252  27.142  14.588  0.00  0.00    -0.019 A 
ATOM     16  C11 UNL     1      14.258  28.351  15.301  0.00  0.00    +0.054 A 
ATOM     17  N3  UNL     1      14.049  29.558  14.559  0.00  0.00    -0.310 N 
ATOM     18  C12 UNL     1      15.126  30.287  14.026  0.00  0.00    +0.073 C 
ATOM     19  C13 UNL     1      16.405  29.849  14.096  0.00  0.00    -0.037 C 
ATOM     20  C14 UNL     1      17.560  30.702  14.291  0.00  0.00    -0.058 C 
ATOM     21  C15 UNL     1      17.580  31.668  15.228  0.00  0.00    -0.037 C 
ATOM     22  H   UNL     1      13.883  29.872  17.970  0.00  0.00    +0.000 HD
ATOM     23  H   UNL     1      13.131  29.884  14.419  0.00  0.00    +0.000 HD
ENDROOT
TORSDOF 0
ENDMDL
MODEL 2
REMARK VINA RESULT:    -4.147      3.713      6.112
REMARK INTER + INTRA:          -4.147
REMARK INTER:                  -4.147
REMARK INTRA:                   0.000
REMARK UNBOUND:                 0.000
REMARK  Name = /home/vital/Documents/PhD_2021/Malaria_codes/scripts/../data/pdbqt_ligands/ligand_67_temp.pdb
REMARK                            x       y       z     vdW  Elec       q    Type
REMARK                         _______ _______ _______ _____ _____    ______ ____
ROOT
ATOM      1  C1  UNL     1      17.398  26.852  19.994  0.00  0.00    -0.055 C 
ATOM      2  C2  UNL     1      16.536  26.758  18.974  0.00  0.00    +0.135 C 
ATOM      3  O1  UNL     1      15.549  25.785  18.983  0.00  0.00    -0.485 OA
ATOM      4  C3  UNL     1      15.880  24.665  18.138  0.00  0.00    +0.131 C 
ATOM      5  C4  UNL     1      16.006  25.156  16.697  0.00  0.00    +0.075 C 
ATOM      6  N1  UNL     1      14.903  25.535  16.166  0.00  0.00    -0.266 NA
ATOM      7  C5  UNL     1      14.832  26.499  15.099  0.00  0.00    +0.103 C 
ATOM      8  N2  UNL     1      13.909  27.570  15.499  0.00  0.00    -0.324 N 
ATOM      9  C6  UNL     1      14.425  28.879  15.529  0.00  0.00    +0.051 A 
ATOM     10  C7  UNL     1      14.271  29.695  14.399  0.00  0.00    -0.019 A 
ATOM     11  C8  UNL     1      14.813  30.985  14.361  0.00  0.00    +0.061 A 
ATOM     12 CL1  UNL     1      14.569  31.912  12.923  0.00  0.00    -0.082 Cl
ATOM     13  C9  UNL     1      15.530  31.475  15.455  0.00  0.00    +0.061 A 
ATOM     14 CL2  UNL     1      16.242  33.050  15.467  0.00  0.00    -0.082 Cl
ATOM     15  C10 UNL     1      15.705  30.674  16.584  0.00  0.00    -0.019 A 
ATOM     16  C11 UNL     1      15.150  29.385  16.640  0.00  0.00    +0.054 A 
ATOM     17  N3  UNL     1      15.422  28.596  17.804  0.00  0.00    -0.310 N 
ATOM     18  C12 UNL     1      16.527  27.729  17.860  0.00  0.00    +0.073 C 
ATOM     19  C13 UNL     1      17.446  27.658  16.868  0.00  0.00    -0.037 C 
ATOM     20  C14 UNL     1      18.106  26.440  16.441  0.00  0.00    -0.058 C 
ATOM     21  C15 UNL     1      17.426  25.300  16.228  0.00  0.00    -0.037 C 
ATOM     22  H   UNL     1      12.972  27.381  15.735  0.00  0.00    +0.000 HD
ATOM     23  H   UNL     1      14.823  28.664  18.582  0.00  0.00    +0.000 HD
ENDROOT
TORSDOF 0
ENDMDL
MODEL 3
REMARK VINA RESULT:    -4.093      4.136      6.356
REMARK INTER + INTRA:          -4.093
REMARK INTER:                  -4.093
REMARK INTRA:                   0.000
REMARK UNBOUND:                 0.000
REMARK  Name = /home/vital/Documents/PhD_2021/Malaria_codes/scripts/../data/pdbqt_ligands/ligand_67_temp.pdb
REMARK                            x       y       z     vdW  Elec       q    Type
REMARK                         _______ _______ _______ _____ _____    ______ ____
ROOT
ATOM      1  C1  UNL     1      16.226  28.599  15.331  0.00  0.00    -0.055 C 
ATOM      2  C2  UNL     1      16.344  27.276  15.494  0.00  0.00    +0.135 C 
ATOM      3  O1  UNL     1      16.558  26.455  14.397  0.00  0.00    -0.485 OA
ATOM      4  C3  UNL     1      15.354  25.782  13.978  0.00  0.00    +0.131 C 
ATOM      5  C4  UNL     1      14.871  24.885  15.116  0.00  0.00    +0.075 C 
ATOM      6  N1  UNL     1      15.629  23.882  15.361  0.00  0.00    -0.266 NA
ATOM      7  C5  UNL     1      15.703  23.246  16.652  0.00  0.00    +0.103 C 
ATOM      8  N2  UNL     1      17.111  23.206  17.072  0.00  0.00    -0.324 N 
ATOM      9  C6  UNL     1      17.431  23.836  18.289  0.00  0.00    +0.051 A 
ATOM     10  C7  UNL     1      17.460  23.070  19.463  0.00  0.00    -0.019 A 
ATOM     11  C8  UNL     1      17.722  23.661  20.704  0.00  0.00    +0.061 A 
ATOM     12 CL1  UNL     1      17.735  22.631  22.093  0.00  0.00    -0.082 Cl
ATOM     13  C9  UNL     1      17.948  25.036  20.791  0.00  0.00    +0.061 A 
ATOM     14 CL2  UNL     1      18.257  25.833  22.293  0.00  0.00    -0.082 Cl
ATOM     15  C10 UNL     1      17.912  25.818  19.635  0.00  0.00    -0.019 A 
ATOM     16  C11 UNL     1      17.668  25.233  18.383  0.00  0.00    +0.054 A 
ATOM     17  N3  UNL     1      17.584  26.105  17.250  0.00  0.00    -0.310 N 
ATOM     18  C12 UNL     1      16.356  26.645  16.830  0.00  0.00    +0.073 C 
ATOM     19  C13 UNL     1      15.206  26.456  17.519  0.00  0.00    -0.037 C 
ATOM     20  C14 UNL     1      13.900  26.281  16.914  0.00  0.00    -0.058 C 
ATOM     21  C15 UNL     1      13.705  25.448  15.877  0.00  0.00    -0.037 C 
ATOM     22  H   UNL     1      17.799  22.759  16.527  0.00  0.00    +0.000 HD
ATOM     23  H   UNL     1      18.403  26.331  16.754  0.00  0.00    +0.000 HD
ENDROOT
TORSDOF 0
ENDMDL
MODEL 4
REMARK VINA RESULT:    -4.024      2.078      3.355
REMARK INTER + INTRA:          -4.024
REMARK INTER:                  -4.024
REMARK INTRA:                   0.000
REMARK UNBOUND:                 0.000
REMARK  Name = /home/vital/Documents/PhD_2021/Malaria_codes/scripts/../data/pdbqt_ligands/ligand_67_temp.pdb
REMARK                            x       y       z     vdW  Elec       q    Type
REMARK                         _______ _______ _______ _____ _____    ______ ____
ROOT
ATOM      1  C1  UNL     1      16.311  33.401  16.186  0.00  0.00    -0.055 C 
ATOM      2  C2  UNL     1      16.773  32.444  15.373  0.00  0.00    +0.135 C 
ATOM      3  O1  UNL     1      17.986  32.608  14.722  0.00  0.00    -0.485 OA
ATOM      4  C3  UNL     1      17.817  32.987  13.342  0.00  0.00    +0.131 C 
ATOM      5  C4  UNL     1      17.070  31.871  12.614  0.00  0.00    +0.075 C 
ATOM      6  N1  UNL     1      17.736  30.785  12.481  0.00  0.00    -0.266 NA
ATOM      7  C5  UNL     1      17.116  29.491  12.348  0.00  0.00    +0.103 C 
ATOM      8  N2  UNL     1      17.679  28.597  13.368  0.00  0.00    -0.324 N 
ATOM      9  C6  UNL     1      16.775  28.015  14.275  0.00  0.00    +0.051 A 
ATOM     10  C7  UNL     1      16.260  26.740  13.996  0.00  0.00    -0.019 A 
ATOM     11  C8  UNL     1      15.317  26.142  14.840  0.00  0.00    +0.061 A 
ATOM     12 CL1  UNL     1      14.743  24.569  14.409  0.00  0.00    -0.082 Cl
ATOM     13  C9  UNL     1      14.866  26.818  15.976  0.00  0.00    +0.061 A 
ATOM     14 CL2  UNL     1      13.690  26.147  17.050  0.00  0.00    -0.082 Cl
ATOM     15  C10 UNL     1      15.358  28.092  16.265  0.00  0.00    -0.019 A 
ATOM     16  C11 UNL     1      16.316  28.695  15.435  0.00  0.00    +0.054 A 
ATOM     17  N3  UNL     1      16.729  30.027  15.757  0.00  0.00    -0.310 N 
ATOM     18  C12 UNL     1      16.082  31.148  15.210  0.00  0.00    +0.073 C 
ATOM     19  C13 UNL     1      14.980  31.042  14.430  0.00  0.00    -0.037 C 
ATOM     20  C14 UNL     1      14.690  31.890  13.291  0.00  0.00    -0.058 C 
ATOM     21  C15 UNL     1      15.621  32.176  12.364  0.00  0.00    -0.037 C 
ATOM     22  H   UNL     1      18.646  28.413  13.416  0.00  0.00    +0.000 HD
ATOM     23  H   UNL     1      17.482  30.161  16.377  0.00  0.00    +0.000 HD
ENDROOT
TORSDOF 0
ENDMDL
MODEL 5
REMARK VINA RESULT:    -4.001      3.538      5.695
REMARK INTER + INTRA:          -4.001
REMARK INTER:                  -4.001
REMARK INTRA:                   0.000
REMARK UNBOUND:                 0.000
REMARK  Name = /home/vital/Documents/PhD_2021/Malaria_codes/scripts/../data/pdbqt_ligands/ligand_67_temp.pdb
REMARK                            x       y       z     vdW  Elec       q    Type
REMARK                         _______ _______ _______ _____ _____    ______ ____
ROOT
ATOM      1  C1  UNL     1      14.632  25.072  14.248  0.00  0.00    -0.055 C 
ATOM      2  C2  UNL     1      15.412  25.925  14.923  0.00  0.00    +0.135 C 
ATOM      3  O1  UNL     1      16.513  25.457  15.624  0.00  0.00    -0.485 OA
ATOM      4  C3  UNL     1      16.259  25.368  17.040  0.00  0.00    +0.131 C 
ATOM      5  C4  UNL     1      15.954  26.766  17.574  0.00  0.00    +0.075 C 
ATOM      6  N1  UNL     1      16.952  27.568  17.564  0.00  0.00    -0.266 NA
ATOM      7  C5  UNL     1      16.811  29.000  17.487  0.00  0.00    +0.103 C 
ATOM      8  N2  UNL     1      17.620  29.488  16.361  0.00  0.00    -0.324 N 
ATOM      9  C6  UNL     1      16.945  30.201  15.353  0.00  0.00    +0.051 A 
ATOM     10  C7  UNL     1      16.901  31.601  15.426  0.00  0.00    -0.019 A 
ATOM     11  C8  UNL     1      16.198  32.351  14.477  0.00  0.00    +0.061 A 
ATOM     12 CL1  UNL     1      16.202  34.071  14.655  0.00  0.00    -0.082 Cl
ATOM     13  C9  UNL     1      15.515  31.708  13.442  0.00  0.00    +0.061 A 
ATOM     14 CL2  UNL     1      14.612  32.571  12.249  0.00  0.00    -0.082 Cl
ATOM     15  C10 UNL     1      15.538  30.315  13.358  0.00  0.00    -0.019 A 
ATOM     16  C11 UNL     1      16.255  29.553  14.295  0.00  0.00    +0.054 A 
ATOM     17  N3  UNL     1      16.182  28.127  14.184  0.00  0.00    -0.310 N 
ATOM     18  C12 UNL     1      15.206  27.387  14.873  0.00  0.00    +0.073 C 
ATOM     19  C13 UNL     1      14.226  27.976  15.598  0.00  0.00    -0.037 C 
ATOM     20  C14 UNL     1      13.693  27.456  16.842  0.00  0.00    -0.058 C 
ATOM     21  C15 UNL     1      14.494  27.012  17.827  0.00  0.00    -0.037 C 
ATOM     22  H   UNL     1      18.590  29.323  16.314  0.00  0.00    +0.000 HD
ATOM     23  H   UNL     1      16.830  27.655  13.613  0.00  0.00    +0.000 HD
ENDROOT
TORSDOF 0
ENDMDL
MODEL 6
REMARK VINA RESULT:    -3.993      4.021      5.679
REMARK INTER + INTRA:          -3.993
REMARK INTER:                  -3.993
REMARK INTRA:                   0.000
REMARK UNBOUND:                 0.000
REMARK  Name = /home/vital/Documents/PhD_2021/Malaria_codes/scripts/../data/pdbqt_ligands/ligand_67_temp.pdb
REMARK                            x       y       z     vdW  Elec       q    Type
REMARK                         _______ _______ _______ _____ _____    ______ ____
ROOT
ATOM      1  C1  UNL     1      15.812  28.540  13.441  0.00  0.00    -0.055 C 
ATOM      2  C2  UNL     1      15.730  27.358  14.064  0.00  0.00    +0.135 C 
ATOM      3  O1  UNL     1      14.992  26.326  13.506  0.00  0.00    -0.485 OA
ATOM      4  C3  UNL     1      13.706  26.172  14.137  0.00  0.00    +0.131 C 
ATOM      5  C4  UNL     1      13.919  25.820  15.608  0.00  0.00    +0.075 C 
ATOM      6  N1  UNL     1      14.421  24.659  15.809  0.00  0.00    -0.266 NA
ATOM      7  C5  UNL     1      15.192  24.326  16.979  0.00  0.00    +0.103 C 
ATOM      8  N2  UNL     1      16.479  23.764  16.546  0.00  0.00    -0.324 N 
ATOM      9  C6  UNL     1      17.642  24.421  16.986  0.00  0.00    +0.051 A 
ATOM     10  C7  UNL     1      18.277  23.969  18.152  0.00  0.00    -0.019 A 
ATOM     11  C8  UNL     1      19.406  24.623  18.659  0.00  0.00    +0.061 A 
ATOM     12 CL1  UNL     1      20.115  23.988  20.103  0.00  0.00    -0.082 Cl
ATOM     13  C9  UNL     1      19.912  25.751  18.010  0.00  0.00    +0.061 A 
ATOM     14 CL2  UNL     1      21.290  26.616  18.592  0.00  0.00    -0.082 Cl
ATOM     15  C10 UNL     1      19.288  26.223  16.854  0.00  0.00    -0.019 A 
ATOM     16  C11 UNL     1      18.166  25.565  16.327  0.00  0.00    +0.054 A 
ATOM     17  N3  UNL     1      17.539  26.142  15.176  0.00  0.00    -0.310 N 
ATOM     18  C12 UNL     1      16.487  27.065  15.299  0.00  0.00    +0.073 C 
ATOM     19  C13 UNL     1      16.069  27.535  16.498  0.00  0.00    -0.037 C 
ATOM     20  C14 UNL     1      14.690  27.826  16.835  0.00  0.00    -0.058 C 
ATOM     21  C15 UNL     1      13.692  26.972  16.545  0.00  0.00    -0.037 C 
ATOM     22  H   UNL     1      16.525  22.965  15.973  0.00  0.00    +0.000 HD
ATOM     23  H   UNL     1      17.853  25.887  14.278  0.00  0.00    +0.000 HD
ENDROOT
TORSDOF 0
ENDMDL
MODEL 7
REMARK VINA RESULT:    -3.831      3.512      6.009
REMARK INTER + INTRA:          -3.831
REMARK INTER:                  -3.831
REMARK INTRA:                   0.000
REMARK UNBOUND:                 0.000
REMARK  Name = /home/vital/Documents/PhD_2021/Malaria_codes/scripts/../data/pdbqt_ligands/ligand_67_temp.pdb
REMARK                            x       y       z     vdW  Elec       q    Type
REMARK                         _______ _______ _______ _____ _____    ______ ____
ROOT
ATOM      1  C1  UNL     1      17.450  24.828  17.169  0.00  0.00    -0.055 C 
ATOM      2  C2  UNL     1      16.600  25.844  16.971  0.00  0.00    +0.135 C 
ATOM      3  O1  UNL     1      15.548  26.053  17.850  0.00  0.00    -0.485 OA
ATOM      4  C3  UNL     1      14.296  25.573  17.322  0.00  0.00    +0.131 C 
ATOM      5  C4  UNL     1      13.970  26.348  16.047  0.00  0.00    +0.075 C 
ATOM      6  N1  UNL     1      13.690  27.584  16.233  0.00  0.00    -0.266 NA
ATOM      7  C5  UNL     1      13.887  28.597  15.228  0.00  0.00    +0.103 C 
ATOM      8  N2  UNL     1      14.703  29.675  15.805  0.00  0.00    -0.324 N 
ATOM      9  C6  UNL     1      15.915  29.974  15.156  0.00  0.00    +0.051 A 
ATOM     10  C7  UNL     1      15.936  30.996  14.196  0.00  0.00    -0.019 A 
ATOM     11  C8  UNL     1      17.105  31.295  13.487  0.00  0.00    +0.061 A 
ATOM     12 CL1  UNL     1      17.029  32.572  12.324  0.00  0.00    -0.082 Cl
ATOM     13  C9  UNL     1      18.272  30.564  13.720  0.00  0.00    +0.061 A 
ATOM     14 CL2  UNL     1      19.743  30.867  12.866  0.00  0.00    -0.082 Cl
ATOM     15  C10 UNL     1      18.268  29.535  14.663  0.00  0.00    -0.019 A 
ATOM     16  C11 UNL     1      17.106  29.238  15.394  0.00  0.00    +0.054 A 
ATOM     17  N3  UNL     1      17.158  28.130  16.299  0.00  0.00    -0.310 N 
ATOM     18  C12 UNL     1      16.795  26.834  15.892  0.00  0.00    +0.073 C 
ATOM     19  C13 UNL     1      16.472  26.539  14.611  0.00  0.00    -0.037 C 
ATOM     20  C14 UNL     1      15.451  25.588  14.216  0.00  0.00    -0.058 C 
ATOM     21  C15 UNL     1      14.233  25.576  14.786  0.00  0.00    -0.037 C 
ATOM     22  H   UNL     1      14.415  30.165  16.609  0.00  0.00    +0.000 HD
ATOM     23  H   UNL     1      17.454  28.278  17.226  0.00  0.00    +0.000 HD
ENDROOT
TORSDOF 0
ENDMDL
MODEL 8
REMARK VINA RESULT:    -3.756      3.601      5.083
REMARK INTER + INTRA:          -3.756
REMARK INTER:                  -3.756
REMARK INTRA:                   0.000
REMARK UNBOUND:                 0.000
REMARK  Name = /home/vital/Documents/PhD_2021/Malaria_codes/scripts/../data/pdbqt_ligands/ligand_67_temp.pdb
REMARK                            x       y       z     vdW  Elec       q    Type
REMARK                         _______ _______ _______ _____ _____    ______ ____
ROOT
ATOM      1  C1  UNL     1      18.209  28.649  14.096  0.00  0.00    -0.055 C 
ATOM      2  C2  UNL     1      17.274  27.946  14.745  0.00  0.00    +0.135 C 
ATOM      3  O1  UNL     1      16.941  26.669  14.319  0.00  0.00    -0.485 OA
ATOM      4  C3  UNL     1      15.710  26.648  13.571  0.00  0.00    +0.131 C 
ATOM      5  C4  UNL     1      14.576  27.123  14.477  0.00  0.00    +0.075 C 
ATOM      6  N1  UNL     1      14.286  26.319  15.432  0.00  0.00    -0.266 NA
ATOM      7  C5  UNL     1      13.690  26.749  16.671  0.00  0.00    +0.103 C 
ATOM      8  N2  UNL     1      14.520  26.262  17.781  0.00  0.00    -0.324 N 
ATOM      9  C6  UNL     1      15.041  27.229  18.660  0.00  0.00    +0.051 A 
ATOM     10  C7  UNL     1      14.333  27.534  19.831  0.00  0.00    -0.019 A 
ATOM     11  C8  UNL     1      14.784  28.526  20.709  0.00  0.00    +0.061 A 
ATOM     12 CL1  UNL     1      13.840  28.828  22.126  0.00  0.00    -0.082 Cl
ATOM     13  C9  UNL     1      15.950  29.240  20.421  0.00  0.00    +0.061 A 
ATOM     14 CL2  UNL     1      16.551  30.490  21.451  0.00  0.00    -0.082 Cl
ATOM     15  C10 UNL     1      16.662  28.959  19.254  0.00  0.00    -0.019 A 
ATOM     16  C11 UNL     1      16.229  27.954  18.375  0.00  0.00    +0.054 A 
ATOM     17  N3  UNL     1      16.974  27.764  17.167  0.00  0.00    -0.310 N 
ATOM     18  C12 UNL     1      16.635  28.440  15.982  0.00  0.00    +0.073 C 
ATOM     19  C13 UNL     1      15.657  29.374  15.934  0.00  0.00    -0.037 C 
ATOM     20  C14 UNL     1      14.756  29.568  14.815  0.00  0.00    -0.058 C 
ATOM     21  C15 UNL     1      14.140  28.536  14.212  0.00  0.00    -0.037 C 
ATOM     22  H   UNL     1      14.704  25.302  17.905  0.00  0.00    +0.000 HD
ATOM     23  H   UNL     1      17.741  27.147  17.166  0.00  0.00    +0.000 HD
ENDROOT
TORSDOF 0
ENDMDL
MODEL 9
REMARK VINA RESULT:    -3.483      4.178      5.719
REMARK INTER + INTRA:          -3.483
REMARK INTER:                  -3.483
REMARK INTRA:                   0.000
REMARK UNBOUND:                 0.000
REMARK  Name = /home/vital/Documents/PhD_2021/Malaria_codes/scripts/../data/pdbqt_ligands/ligand_67_temp.pdb
REMARK                            x       y       z     vdW  Elec       q    Type
REMARK                         _______ _______ _______ _____ _____    ______ ____
ROOT
ATOM      1  C1  UNL     1      17.634  27.438  14.219  0.00  0.00    -0.055 C 
ATOM      2  C2  UNL     1      16.898  27.071  15.275  0.00  0.00    +0.135 C 
ATOM      3  O1  UNL     1      16.825  25.737  15.644  0.00  0.00    -0.485 OA
ATOM      4  C3  UNL     1      15.593  25.122  15.217  0.00  0.00    +0.131 C 
ATOM      5  C4  UNL     1      14.426  25.835  15.898  0.00  0.00    +0.075 C 
ATOM      6  N1  UNL     1      14.356  25.652  17.163  0.00  0.00    -0.266 NA
ATOM      7  C5  UNL     1      13.739  26.592  18.063  0.00  0.00    +0.103 C 
ATOM      8  N2  UNL     1      14.702  26.926  19.121  0.00  0.00    -0.324 N 
ATOM      9  C6  UNL     1      15.046  28.283  19.265  0.00  0.00    +0.051 A 
ATOM     10  C7  UNL     1      14.342  29.067  20.192  0.00  0.00    -0.019 A 
ATOM     11  C8  UNL     1      14.612  30.432  20.333  0.00  0.00    +0.061 A 
ATOM     12 CL1  UNL     1      13.690  31.312  21.502  0.00  0.00    -0.082 Cl
ATOM     13  C9  UNL     1      15.586  31.040  19.538  0.00  0.00    +0.061 A 
ATOM     14 CL2  UNL     1      15.955  32.724  19.648  0.00  0.00    -0.082 Cl
ATOM     15  C10 UNL     1      16.289  30.280  18.602  0.00  0.00    -0.019 A 
ATOM     16  C11 UNL     1      16.039  28.905  18.464  0.00  0.00    +0.054 A 
ATOM     17  N3  UNL     1      16.753  28.202  17.441  0.00  0.00    -0.310 N 
ATOM     18  C12 UNL     1      16.226  28.057  16.146  0.00  0.00    +0.073 C 
ATOM     19  C13 UNL     1      15.070  28.650  15.762  0.00  0.00    -0.037 C 
ATOM     20  C14 UNL     1      14.100  28.059  14.862  0.00  0.00    -0.058 C 
ATOM     21  C15 UNL     1      13.690  26.785  14.997  0.00  0.00    -0.037 C 
ATOM     22  H   UNL     1      15.089  26.233  19.703  0.00  0.00    +0.000 HD
ATOM     23  H   UNL     1      17.632  27.811  17.649  0.00  0.00    +0.000 HD
ENDROOT
TORSDOF 0
ENDMDL
