MODEL 1
REMARK VINA RESULT:    -4.424      0.000      0.000
REMARK INTER + INTRA:          -4.424
REMARK INTER:                  -4.424
REMARK INTRA:                   0.000
REMARK UNBOUND:                 0.000
REMARK  Name = /home/vital/Documents/PhD_2021/Malaria_codes/scripts/../data/pdbqt_ligands/ligand_157_temp.pdb
REMARK                            x       y       z     vdW  Elec       q    Type
REMARK                         _______ _______ _______ _____ _____    ______ ____
ROOT
ATOM      1  C1  UNL     1      15.987  24.095  15.807  0.00  0.00    -0.050 C 
ATOM      2  C2  UNL     1      14.726  24.598  15.120  0.00  0.00    +0.008 C 
ATOM      3  N1  UNL     1      14.952  25.869  14.437  0.00  0.00    -0.329 N 
ATOM      4  C3  UNL     1      14.931  27.038  15.227  0.00  0.00    +0.132 A 
ATOM      5  N2  UNL     1      14.658  26.930  16.539  0.00  0.00    -0.199 NA
ATOM      6  C4  UNL     1      14.643  28.043  17.282  0.00  0.00    +0.222 A 
ATOM      7  N3  UNL     1      14.361  27.837  18.630  0.00  0.00    -0.284 N 
ATOM      8  C5  UNL     1      14.228  28.681  19.738  0.00  0.00    +0.035 A 
ATOM      9  C6  UNL     1      13.922  28.108  20.982  0.00  0.00    -0.039 A 
ATOM     10  C7  UNL     1      13.780  28.890  22.133  0.00  0.00    -0.045 A 
ATOM     11  C8  UNL     1      13.944  30.277  22.074  0.00  0.00    +0.023 A 
ATOM     12  S1  UNL     1      13.745  31.200  23.591  0.00  0.00    -0.141 S 
ATOM     13  C9  UNL     1      14.251  30.860  20.838  0.00  0.00    +0.056 A 
ATOM     14 CL1  UNL     1      14.473  32.569  20.662  0.00  0.00    -0.082 Cl
ATOM     15  C10 UNL     1      14.391  30.069  19.689  0.00  0.00    -0.021 A 
ATOM     16  N4  UNL     1      14.884  29.262  16.791  0.00  0.00    -0.214 NA
ATOM     17  C11 UNL     1      15.127  29.379  15.484  0.00  0.00    +0.078 A 
ATOM     18  C12 UNL     1      15.356  30.647  14.963  0.00  0.00    -0.036 A 
ATOM     19  C13 UNL     1      15.604  30.855  13.603  0.00  0.00    -0.060 A 
ATOM     20  C14 UNL     1      15.621  29.773  12.734  0.00  0.00    -0.061 A 
ATOM     21  C15 UNL     1      15.397  28.493  13.236  0.00  0.00    -0.049 A 
ATOM     22  C16 UNL     1      15.157  28.283  14.619  0.00  0.00    +0.040 A 
ATOM     23  H   UNL     1      15.112  25.908  13.466  0.00  0.00    +0.000 HD
ATOM     24  H   UNL     1      14.224  26.888  18.853  0.00  0.00    +0.000 HD
ATOM     25  H   UNL     1      13.452  30.345  24.607  0.00  0.00    +0.000 HD
ENDROOT
TORSDOF 0
ENDMDL
MODEL 2
REMARK VINA RESULT:    -4.062     17.234     20.102
REMARK INTER + INTRA:          -4.062
REMARK INTER:                  -4.062
REMARK INTRA:                   0.000
REMARK UNBOUND:                 0.000
REMARK  Name = /home/vital/Documents/PhD_2021/Malaria_codes/scripts/../data/pdbqt_ligands/ligand_157_temp.pdb
REMARK                            x       y       z     vdW  Elec       q    Type
REMARK                         _______ _______ _______ _____ _____    ______ ____
ROOT
ATOM      1  C1  UNL     1      15.557  45.443  33.110  0.00  0.00    -0.050 C 
ATOM      2  C2  UNL     1      14.150  44.866  33.159  0.00  0.00    +0.008 C 
ATOM      3  N1  UNL     1      14.104  43.505  32.630  0.00  0.00    -0.329 N 
ATOM      4  C3  UNL     1      14.064  43.360  31.228  0.00  0.00    +0.132 A 
ATOM      5  N2  UNL     1      14.018  44.465  30.461  0.00  0.00    -0.199 NA
ATOM      6  C4  UNL     1      13.983  44.319  29.131  0.00  0.00    +0.222 A 
ATOM      7  N3  UNL     1      13.946  45.514  28.417  0.00  0.00    -0.284 N 
ATOM      8  C5  UNL     1      13.887  45.834  27.057  0.00  0.00    +0.035 A 
ATOM      9  C6  UNL     1      13.857  47.189  26.690  0.00  0.00    -0.039 A 
ATOM     10  C7  UNL     1      13.803  47.583  25.349  0.00  0.00    -0.045 A 
ATOM     11  C8  UNL     1      13.781  46.628  24.329  0.00  0.00    +0.023 A 
ATOM     12  S1  UNL     1      13.713  47.218  22.643  0.00  0.00    -0.141 S 
ATOM     13  C9  UNL     1      13.812  45.273  24.683  0.00  0.00    +0.056 A 
ATOM     14 CL1  UNL     1      13.789  44.016  23.491  0.00  0.00    -0.082 Cl
ATOM     15  C10 UNL     1      13.866  44.887  26.029  0.00  0.00    -0.021 A 
ATOM     16  N4  UNL     1      13.988  43.131  28.518  0.00  0.00    -0.214 NA
ATOM     17  C11 UNL     1      14.004  42.032  29.273  0.00  0.00    +0.078 A 
ATOM     18  C12 UNL     1      13.987  40.793  28.642  0.00  0.00    -0.036 A 
ATOM     19  C13 UNL     1      13.988  39.595  29.362  0.00  0.00    -0.060 A 
ATOM     20  C14 UNL     1      14.001  39.627  30.749  0.00  0.00    -0.061 A 
ATOM     21  C15 UNL     1      14.021  40.857  31.403  0.00  0.00    -0.049 A 
ATOM     22  C16 UNL     1      14.032  42.072  30.669  0.00  0.00    +0.040 A 
ATOM     23  H   UNL     1      14.101  42.723  33.228  0.00  0.00    +0.000 HD
ATOM     24  H   UNL     1      13.966  46.309  28.997  0.00  0.00    +0.000 HD
ATOM     25  H   UNL     1      13.693  48.578  22.640  0.00  0.00    +0.000 HD
ENDROOT
TORSDOF 0
ENDMDL
MODEL 3
REMARK VINA RESULT:    -3.813      1.836      3.779
REMARK INTER + INTRA:          -3.813
REMARK INTER:                  -3.813
REMARK INTRA:                   0.000
REMARK UNBOUND:                 0.000
REMARK  Name = /home/vital/Documents/PhD_2021/Malaria_codes/scripts/../data/pdbqt_ligands/ligand_157_temp.pdb
REMARK                            x       y       z     vdW  Elec       q    Type
REMARK                         _______ _______ _______ _____ _____    ______ ____
ROOT
ATOM      1  C1  UNL     1      15.539  32.003  13.053  0.00  0.00    -0.050 C 
ATOM      2  C2  UNL     1      16.580  30.898  13.145  0.00  0.00    +0.008 C 
ATOM      3  N1  UNL     1      15.963  29.587  13.332  0.00  0.00    -0.329 N 
ATOM      4  C3  UNL     1      15.555  29.247  14.639  0.00  0.00    +0.132 A 
ATOM      5  N2  UNL     1      15.798  30.111  15.641  0.00  0.00    -0.199 NA
ATOM      6  C4  UNL     1      15.405  29.783  16.878  0.00  0.00    +0.222 A 
ATOM      7  N3  UNL     1      15.689  30.739  17.849  0.00  0.00    -0.284 N 
ATOM      8  C5  UNL     1      15.484  30.815  19.231  0.00  0.00    +0.035 A 
ATOM      9  C6  UNL     1      15.918  31.964  19.909  0.00  0.00    -0.039 A 
ATOM     10  C7  UNL     1      15.742  32.110  21.290  0.00  0.00    -0.045 A 
ATOM     11  C8  UNL     1      15.120  31.106  22.036  0.00  0.00    +0.023 A 
ATOM     12  S1  UNL     1      14.935  31.373  23.793  0.00  0.00    -0.141 S 
ATOM     13  C9  UNL     1      14.681  29.954  21.369  0.00  0.00    +0.056 A 
ATOM     14 CL1  UNL     1      13.899  28.655  22.206  0.00  0.00    -0.082 Cl
ATOM     15  C10 UNL     1      14.862  29.816  19.986  0.00  0.00    -0.021 A 
ATOM     16  N4  UNL     1      14.784  28.638  17.176  0.00  0.00    -0.214 NA
ATOM     17  C11 UNL     1      14.567  27.764  16.192  0.00  0.00    +0.078 A 
ATOM     18  C12 UNL     1      13.941  26.561  16.499  0.00  0.00    -0.036 A 
ATOM     19  C13 UNL     1      13.690  25.588  15.528  0.00  0.00    -0.060 A 
ATOM     20  C14 UNL     1      14.075  25.812  14.214  0.00  0.00    -0.061 A 
ATOM     21  C15 UNL     1      14.700  27.012  13.883  0.00  0.00    -0.049 A 
ATOM     22  C16 UNL     1      14.944  28.004  14.868  0.00  0.00    +0.040 A 
ATOM     23  H   UNL     1      15.837  28.967  12.577  0.00  0.00    +0.000 HD
ATOM     24  H   UNL     1      16.131  31.539  17.483  0.00  0.00    +0.000 HD
ATOM     25  H   UNL     1      15.462  32.582  24.125  0.00  0.00    +0.000 HD
ENDROOT
TORSDOF 0
ENDMDL
MODEL 4
REMARK VINA RESULT:    -3.782     15.033     18.241
REMARK INTER + INTRA:          -3.782
REMARK INTER:                  -3.782
REMARK INTRA:                   0.000
REMARK UNBOUND:                 0.000
REMARK  Name = /home/vital/Documents/PhD_2021/Malaria_codes/scripts/../data/pdbqt_ligands/ligand_157_temp.pdb
REMARK                            x       y       z     vdW  Elec       q    Type
REMARK                         _______ _______ _______ _____ _____    ______ ____
ROOT
ATOM      1  C1  UNL     1      15.164  43.347  25.458  0.00  0.00    -0.050 C 
ATOM      2  C2  UNL     1      13.756  43.739  25.881  0.00  0.00    +0.008 C 
ATOM      3  N1  UNL     1      13.729  44.283  27.236  0.00  0.00    -0.329 N 
ATOM      4  C3  UNL     1      13.739  43.357  28.301  0.00  0.00    +0.132 A 
ATOM      5  N2  UNL     1      13.722  42.042  28.020  0.00  0.00    -0.199 NA
ATOM      6  C4  UNL     1      13.735  41.171  29.036  0.00  0.00    +0.222 A 
ATOM      7  N3  UNL     1      13.725  39.832  28.653  0.00  0.00    -0.284 N 
ATOM      8  C5  UNL     1      13.715  38.620  29.350  0.00  0.00    +0.035 A 
ATOM      9  C6  UNL     1      13.699  37.426  28.613  0.00  0.00    -0.039 A 
ATOM     10  C7  UNL     1      13.694  36.176  29.243  0.00  0.00    -0.045 A 
ATOM     11  C8  UNL     1      13.708  36.085  30.637  0.00  0.00    +0.023 A 
ATOM     12  S1  UNL     1      13.701  34.450  31.360  0.00  0.00    -0.141 S 
ATOM     13  C9  UNL     1      13.726  37.270  31.384  0.00  0.00    +0.056 A 
ATOM     14 CL1  UNL     1      13.746  37.260  33.116  0.00  0.00    -0.082 Cl
ATOM     15  C10 UNL     1      13.731  38.518  30.744  0.00  0.00    -0.021 A 
ATOM     16  N4  UNL     1      13.763  41.536  30.321  0.00  0.00    -0.214 NA
ATOM     17  C11 UNL     1      13.750  42.839  30.608  0.00  0.00    +0.078 A 
ATOM     18  C12 UNL     1      13.756  43.226  31.943  0.00  0.00    -0.036 A 
ATOM     19  C13 UNL     1      13.730  44.570  32.325  0.00  0.00    -0.060 A 
ATOM     20  C14 UNL     1      13.693  45.560  31.354  0.00  0.00    -0.061 A 
ATOM     21  C15 UNL     1      13.690  45.196  30.009  0.00  0.00    -0.049 A 
ATOM     22  C16 UNL     1      13.728  43.830  29.623  0.00  0.00    +0.040 A 
ATOM     23  H   UNL     1      13.704  45.253  27.399  0.00  0.00    +0.000 HD
ATOM     24  H   UNL     1      13.724  39.713  27.676  0.00  0.00    +0.000 HD
ATOM     25  H   UNL     1      13.682  33.517  30.371  0.00  0.00    +0.000 HD
ENDROOT
TORSDOF 0
ENDMDL
MODEL 5
REMARK VINA RESULT:    -3.749      1.661      2.258
REMARK INTER + INTRA:          -3.749
REMARK INTER:                  -3.749
REMARK INTRA:                   0.000
REMARK UNBOUND:                 0.000
REMARK  Name = /home/vital/Documents/PhD_2021/Malaria_codes/scripts/../data/pdbqt_ligands/ligand_157_temp.pdb
REMARK                            x       y       z     vdW  Elec       q    Type
REMARK                         _______ _______ _______ _____ _____    ______ ____
ROOT
ATOM      1  C1  UNL     1      18.023  23.690  18.469  0.00  0.00    -0.050 C 
ATOM      2  C2  UNL     1      16.588  23.383  18.065  0.00  0.00    +0.008 C 
ATOM      3  N1  UNL     1      16.157  24.204  16.936  0.00  0.00    -0.329 N 
ATOM      4  C3  UNL     1      15.745  25.523  17.219  0.00  0.00    +0.132 A 
ATOM      5  N2  UNL     1      15.720  25.936  18.499  0.00  0.00    -0.199 NA
ATOM      6  C4  UNL     1      15.331  27.190  18.759  0.00  0.00    +0.222 A 
ATOM      7  N3  UNL     1      15.346  27.534  20.109  0.00  0.00    -0.284 N 
ATOM      8  C5  UNL     1      15.014  28.690  20.823  0.00  0.00    +0.035 A 
ATOM      9  C6  UNL     1      15.151  28.674  22.220  0.00  0.00    -0.039 A 
ATOM     10  C7  UNL     1      14.843  29.796  22.998  0.00  0.00    -0.045 A 
ATOM     11  C8  UNL     1      14.389  30.973  22.397  0.00  0.00    +0.023 A 
ATOM     12  S1  UNL     1      14.020  32.358  23.464  0.00  0.00    -0.141 S 
ATOM     13  C9  UNL     1      14.251  31.001  21.003  0.00  0.00    +0.056 A 
ATOM     14 CL1  UNL     1      13.696  32.413  20.167  0.00  0.00    -0.082 Cl
ATOM     15  C10 UNL     1      14.561  29.872  20.231  0.00  0.00    -0.021 A 
ATOM     16  N4  UNL     1      14.961  28.059  17.814  0.00  0.00    -0.214 NA
ATOM     17  C11 UNL     1      14.954  27.647  16.545  0.00  0.00    +0.078 A 
ATOM     18  C12 UNL     1      14.549  28.539  15.560  0.00  0.00    -0.036 A 
ATOM     19  C13 UNL     1      14.501  28.180  14.210  0.00  0.00    -0.060 A 
ATOM     20  C14 UNL     1      14.862  26.896  13.827  0.00  0.00    -0.061 A 
ATOM     21  C15 UNL     1      15.275  25.986  14.798  0.00  0.00    -0.049 A 
ATOM     22  C16 UNL     1      15.334  26.357  16.167  0.00  0.00    +0.040 A 
ATOM     23  H   UNL     1      16.154  23.851  16.017  0.00  0.00    +0.000 HD
ATOM     24  H   UNL     1      15.658  26.802  20.688  0.00  0.00    +0.000 HD
ATOM     25  H   UNL     1      14.257  32.010  24.757  0.00  0.00    +0.000 HD
ENDROOT
TORSDOF 0
ENDMDL
MODEL 6
REMARK VINA RESULT:    -3.666     15.264     17.923
REMARK INTER + INTRA:          -3.666
REMARK INTER:                  -3.666
REMARK INTRA:                   0.000
REMARK UNBOUND:                 0.000
REMARK  Name = /home/vital/Documents/PhD_2021/Malaria_codes/scripts/../data/pdbqt_ligands/ligand_157_temp.pdb
REMARK                            x       y       z     vdW  Elec       q    Type
REMARK                         _______ _______ _______ _____ _____    ______ ____
ROOT
ATOM      1  C1  UNL     1      15.688  40.746  22.867  0.00  0.00    -0.050 C 
ATOM      2  C2  UNL     1      14.225  41.144  22.740  0.00  0.00    +0.008 C 
ATOM      3  N1  UNL     1      14.070  42.584  22.553  0.00  0.00    -0.329 N 
ATOM      4  C3  UNL     1      14.141  43.394  23.705  0.00  0.00    +0.132 A 
ATOM      5  N2  UNL     1      14.294  42.806  24.905  0.00  0.00    -0.199 NA
ATOM      6  C4  UNL     1      14.363  43.583  25.993  0.00  0.00    +0.222 A 
ATOM      7  N3  UNL     1      14.531  42.891  27.190  0.00  0.00    -0.284 N 
ATOM      8  C5  UNL     1      14.634  43.274  28.531  0.00  0.00    +0.035 A 
ATOM      9  C6  UNL     1      14.794  42.273  29.502  0.00  0.00    -0.039 A 
ATOM     10  C7  UNL     1      14.909  42.584  30.862  0.00  0.00    -0.045 A 
ATOM     11  C8  UNL     1      14.869  43.913  31.292  0.00  0.00    +0.023 A 
ATOM     12  S1  UNL     1      15.024  44.222  33.045  0.00  0.00    -0.141 S 
ATOM     13  C9  UNL     1      14.711  44.921  30.331  0.00  0.00    +0.056 A 
ATOM     14 CL1  UNL     1      14.651  46.597  30.765  0.00  0.00    -0.082 Cl
ATOM     15  C10 UNL     1      14.596  44.600  28.971  0.00  0.00    -0.021 A 
ATOM     16  N4  UNL     1      14.287  44.916  25.955  0.00  0.00    -0.214 NA
ATOM     17  C11 UNL     1      14.106  45.504  24.771  0.00  0.00    +0.078 A 
ATOM     18  C12 UNL     1      14.004  46.890  24.727  0.00  0.00    -0.036 A 
ATOM     19  C13 UNL     1      13.800  47.579  23.529  0.00  0.00    -0.060 A 
ATOM     20  C14 UNL     1      13.690  46.873  22.340  0.00  0.00    -0.061 A 
ATOM     21  C15 UNL     1      13.793  45.485  22.360  0.00  0.00    -0.049 A 
ATOM     22  C16 UNL     1      14.012  44.787  23.576  0.00  0.00    +0.040 A 
ATOM     23  H   UNL     1      13.922  42.972  21.660  0.00  0.00    +0.000 HD
ATOM     24  H   UNL     1      14.590  41.916  27.065  0.00  0.00    +0.000 HD
ATOM     25  H   UNL     1      15.163  43.039  33.703  0.00  0.00    +0.000 HD
ENDROOT
TORSDOF 0
ENDMDL
MODEL 7
REMARK VINA RESULT:    -3.641      4.879      6.317
REMARK INTER + INTRA:          -3.641
REMARK INTER:                  -3.641
REMARK INTRA:                   0.000
REMARK UNBOUND:                 0.000
REMARK  Name = /home/vital/Documents/PhD_2021/Malaria_codes/scripts/../data/pdbqt_ligands/ligand_157_temp.pdb
REMARK                            x       y       z     vdW  Elec       q    Type
REMARK                         _______ _______ _______ _____ _____    ______ ____
ROOT
ATOM      1  C1  UNL     1      20.617  26.212  17.049  0.00  0.00    -0.050 C 
ATOM      2  C2  UNL     1      19.393  26.214  17.952  0.00  0.00    +0.008 C 
ATOM      3  N1  UNL     1      18.209  25.709  17.260  0.00  0.00    -0.329 N 
ATOM      4  C3  UNL     1      17.527  26.607  16.413  0.00  0.00    +0.132 A 
ATOM      5  N2  UNL     1      17.962  27.877  16.326  0.00  0.00    -0.199 NA
ATOM      6  C4  UNL     1      17.311  28.722  15.518  0.00  0.00    +0.222 A 
ATOM      7  N3  UNL     1      17.835  30.012  15.483  0.00  0.00    -0.284 N 
ATOM      8  C5  UNL     1      17.482  31.189  14.816  0.00  0.00    +0.035 A 
ATOM      9  C6  UNL     1      18.260  32.338  15.030  0.00  0.00    -0.039 A 
ATOM     10  C7  UNL     1      17.968  33.549  14.392  0.00  0.00    -0.045 A 
ATOM     11  C8  UNL     1      16.885  33.645  13.515  0.00  0.00    +0.023 A 
ATOM     12  S1  UNL     1      16.584  35.229  12.742  0.00  0.00    -0.141 S 
ATOM     13  C9  UNL     1      16.103  32.505  13.291  0.00  0.00    +0.056 A 
ATOM     14 CL1  UNL     1      14.742  32.525  12.220  0.00  0.00    -0.082 Cl
ATOM     15  C10 UNL     1      16.402  31.296  13.934  0.00  0.00    -0.021 A 
ATOM     16  N4  UNL     1      16.245  28.374  14.790  0.00  0.00    -0.214 NA
ATOM     17  C11 UNL     1      15.790  27.124  14.895  0.00  0.00    +0.078 A 
ATOM     18  C12 UNL     1      14.669  26.763  14.157  0.00  0.00    -0.036 A 
ATOM     19  C13 UNL     1      14.123  25.478  14.222  0.00  0.00    -0.060 A 
ATOM     20  C14 UNL     1      14.705  24.525  15.046  0.00  0.00    -0.061 A 
ATOM     21  C15 UNL     1      15.831  24.864  15.791  0.00  0.00    -0.049 A 
ATOM     22  C16 UNL     1      16.391  26.166  15.715  0.00  0.00    +0.040 A 
ATOM     23  H   UNL     1      17.901  24.782  17.380  0.00  0.00    +0.000 HD
ATOM     24  H   UNL     1      18.630  30.118  16.053  0.00  0.00    +0.000 HD
ATOM     25  H   UNL     1      17.516  36.124  13.166  0.00  0.00    +0.000 HD
ENDROOT
TORSDOF 0
ENDMDL
MODEL 8
REMARK VINA RESULT:    -3.530     15.447     18.422
REMARK INTER + INTRA:          -3.530
REMARK INTER:                  -3.530
REMARK INTRA:                   0.000
REMARK UNBOUND:                 0.000
REMARK  Name = /home/vital/Documents/PhD_2021/Malaria_codes/scripts/../data/pdbqt_ligands/ligand_157_temp.pdb
REMARK                            x       y       z     vdW  Elec       q    Type
REMARK                         _______ _______ _______ _____ _____    ______ ____
ROOT
ATOM      1  C1  UNL     1      15.647  41.145  23.973  0.00  0.00    -0.050 C 
ATOM      2  C2  UNL     1      14.212  41.616  23.797  0.00  0.00    +0.008 C 
ATOM      3  N1  UNL     1      14.085  43.057  24.006  0.00  0.00    -0.329 N 
ATOM      4  C3  UNL     1      14.021  43.511  25.340  0.00  0.00    +0.132 A 
ATOM      5  N2  UNL     1      14.027  42.607  26.335  0.00  0.00    -0.199 NA
ATOM      6  C4  UNL     1      13.970  43.047  27.598  0.00  0.00    +0.222 A 
ATOM      7  N3  UNL     1      13.991  42.043  28.564  0.00  0.00    -0.284 N 
ATOM      8  C5  UNL     1      13.934  42.034  29.961  0.00  0.00    +0.035 A 
ATOM      9  C6  UNL     1      13.974  40.797  30.624  0.00  0.00    -0.039 A 
ATOM     10  C7  UNL     1      13.928  40.713  32.020  0.00  0.00    -0.045 A 
ATOM     11  C8  UNL     1      13.841  41.870  32.798  0.00  0.00    +0.023 A 
ATOM     12  S1  UNL     1      13.787  41.672  34.573  0.00  0.00    -0.141 S 
ATOM     13  C9  UNL     1      13.803  43.111  32.148  0.00  0.00    +0.056 A 
ATOM     14 CL1  UNL     1      13.697  44.601  33.025  0.00  0.00    -0.082 Cl
ATOM     15  C10 UNL     1      13.850  43.186  30.748  0.00  0.00    -0.021 A 
ATOM     16  N4  UNL     1      13.904  44.340  27.928  0.00  0.00    -0.214 NA
ATOM     17  C11 UNL     1      13.867  45.241  26.944  0.00  0.00    +0.078 A 
ATOM     18  C12 UNL     1      13.776  46.587  27.280  0.00  0.00    -0.036 A 
ATOM     19  C13 UNL     1      13.719  47.589  26.308  0.00  0.00    -0.060 A 
ATOM     20  C14 UNL     1      13.749  47.247  24.964  0.00  0.00    -0.061 A 
ATOM     21  C15 UNL     1      13.844  45.905  24.605  0.00  0.00    -0.049 A 
ATOM     22  C16 UNL     1      13.913  44.888  25.593  0.00  0.00    +0.040 A 
ATOM     23  H   UNL     1      14.046  43.683  23.247  0.00  0.00    +0.000 HD
ATOM     24  H   UNL     1      14.060  41.140  28.177  0.00  0.00    +0.000 HD
ATOM     25  H   UNL     1      13.842  40.349  34.883  0.00  0.00    +0.000 HD
ENDROOT
TORSDOF 0
ENDMDL
