MODEL 1
REMARK VINA RESULT:    -5.087      0.000      0.000
REMARK INTER + INTRA:          -5.087
REMARK INTER:                  -5.087
REMARK INTRA:                   0.000
REMARK UNBOUND:                 0.000
REMARK  Name = /home/vital/Documents/PhD_2021/Malaria_codes/scripts/../data/pdbqt_ligands/ligand_194_temp.pdb
REMARK                            x       y       z     vdW  Elec       q    Type
REMARK                         _______ _______ _______ _____ _____    ______ ____
ROOT
ATOM      1  C1  UNL     1      18.074  43.734  30.449  0.00  0.00    +0.079 C 
ATOM      2  O1  UNL     1      16.824  44.408  30.492  0.00  0.00    -0.494 OA
ATOM      3  C2  UNL     1      16.399  45.057  29.366  0.00  0.00    +0.132 A 
ATOM      4  C3  UNL     1      17.172  45.222  28.211  0.00  0.00    -0.019 A 
ATOM      5  C4  UNL     1      16.673  45.945  27.121  0.00  0.00    -0.058 A 
ATOM      6  C5  UNL     1      15.406  46.521  27.175  0.00  0.00    -0.061 A 
ATOM      7  C6  UNL     1      14.625  46.364  28.317  0.00  0.00    -0.046 A 
ATOM      8  C7  UNL     1      15.107  45.613  29.400  0.00  0.00    +0.079 A 
ATOM      9  C8  UNL     1      14.231  45.496  30.594  0.00  0.00    +0.256 C 
ATOM     10  O2  UNL     1      13.789  46.559  31.042  0.00  0.00    -0.269 OA
ATOM     11  N1  UNL     1      14.014  44.266  31.228  0.00  0.00    -0.242 N 
ATOM     12  C9  UNL     1      13.795  44.314  32.672  0.00  0.00    +0.048 C 
ATOM     13  C10 UNL     1      15.085  44.373  33.450  0.00  0.00    -0.012 A 
ATOM     14  C11 UNL     1      15.679  45.592  33.787  0.00  0.00    -0.054 A 
ATOM     15  C12 UNL     1      16.881  45.606  34.486  0.00  0.00    -0.043 A 
ATOM     16  C13 UNL     1      17.457  44.392  34.823  0.00  0.00    +0.028 A 
ATOM     17  N2  UNL     1      16.922  43.193  34.508  0.00  0.00    -0.263 NA
ATOM     18  C14 UNL     1      15.753  43.212  33.824  0.00  0.00    +0.032 A 
ATOM     19  C15 UNL     1      14.012  43.027  30.585  0.00  0.00    +0.169 A 
ATOM     20  N3  UNL     1      14.096  41.884  31.231  0.00  0.00    -0.224 NA
ATOM     21  C16 UNL     1      14.018  40.824  30.345  0.00  0.00    +0.081 A 
ATOM     22  C17 UNL     1      14.129  39.459  30.675  0.00  0.00    -0.032 A 
ATOM     23  C18 UNL     1      14.027  38.470  29.679  0.00  0.00    -0.045 A 
ATOM     24  C19 UNL     1      14.154  37.024  30.074  0.00  0.00    -0.039 C 
ATOM     25  C20 UNL     1      13.807  38.849  28.341  0.00  0.00    -0.046 A 
ATOM     26  C21 UNL     1      13.690  37.818  27.248  0.00  0.00    -0.039 C 
ATOM     27  C22 UNL     1      13.690  40.210  28.003  0.00  0.00    -0.043 A 
ATOM     28  C23 UNL     1      13.800  41.174  29.017  0.00  0.00    +0.041 A 
ATOM     29  S1  UNL     1      13.690  42.884  28.909  0.00  0.00    -0.052 S 
ENDROOT
TORSDOF 0
ENDMDL
MODEL 2
REMARK VINA RESULT:    -4.973     17.012     22.026
REMARK INTER + INTRA:          -4.973
REMARK INTER:                  -4.973
REMARK INTRA:                   0.000
REMARK UNBOUND:                 0.000
REMARK  Name = /home/vital/Documents/PhD_2021/Malaria_codes/scripts/../data/pdbqt_ligands/ligand_194_temp.pdb
REMARK                            x       y       z     vdW  Elec       q    Type
REMARK                         _______ _______ _______ _____ _____    ______ ____
ROOT
ATOM      1  C1  UNL     1      17.832  27.852  15.816  0.00  0.00    +0.079 C 
ATOM      2  O1  UNL     1      17.735  26.514  16.285  0.00  0.00    -0.494 OA
ATOM      3  C2  UNL     1      18.878  25.888  16.697  0.00  0.00    +0.132 A 
ATOM      4  C3  UNL     1      20.164  26.423  16.562  0.00  0.00    -0.019 A 
ATOM      5  C4  UNL     1      21.284  25.688  16.968  0.00  0.00    -0.058 A 
ATOM      6  C5  UNL     1      21.136  24.410  17.501  0.00  0.00    -0.061 A 
ATOM      7  C6  UNL     1      19.862  23.865  17.643  0.00  0.00    -0.046 A 
ATOM      8  C7  UNL     1      18.734  24.610  17.267  0.00  0.00    +0.079 A 
ATOM      9  C8  UNL     1      17.405  23.965  17.430  0.00  0.00    +0.256 C 
ATOM     10  O2  UNL     1      17.291  22.838  16.938  0.00  0.00    -0.269 OA
ATOM     11  N1  UNL     1      16.326  24.644  18.010  0.00  0.00    -0.242 N 
ATOM     12  C9  UNL     1      14.998  24.291  17.512  0.00  0.00    +0.048 C 
ATOM     13  C10 UNL     1      14.645  25.021  16.242  0.00  0.00    -0.012 A 
ATOM     14  C11 UNL     1      14.945  24.488  14.985  0.00  0.00    -0.054 A 
ATOM     15  C12 UNL     1      14.624  25.203  13.836  0.00  0.00    -0.043 A 
ATOM     16  C13 UNL     1      14.013  26.438  13.982  0.00  0.00    +0.028 A 
ATOM     17  N2  UNL     1      13.715  26.993  15.176  0.00  0.00    -0.263 NA
ATOM     18  C14 UNL     1      14.043  26.275  16.276  0.00  0.00    +0.032 A 
ATOM     19  C15 UNL     1      16.438  25.625  18.996  0.00  0.00    +0.169 A 
ATOM     20  N3  UNL     1      15.456  26.442  19.311  0.00  0.00    -0.224 NA
ATOM     21  C16 UNL     1      15.833  27.269  20.354  0.00  0.00    +0.081 A 
ATOM     22  C17 UNL     1      15.057  28.303  20.913  0.00  0.00    -0.032 A 
ATOM     23  C18 UNL     1      15.554  29.076  21.979  0.00  0.00    -0.045 A 
ATOM     24  C19 UNL     1      14.692  30.173  22.545  0.00  0.00    -0.039 C 
ATOM     25  C20 UNL     1      16.837  28.810  22.494  0.00  0.00    -0.046 A 
ATOM     26  C21 UNL     1      17.400  29.615  23.636  0.00  0.00    -0.039 C 
ATOM     27  C22 UNL     1      17.617  27.776  21.944  0.00  0.00    -0.043 A 
ATOM     28  C23 UNL     1      17.097  27.024  20.880  0.00  0.00    +0.041 A 
ATOM     29  S1  UNL     1      17.804  25.712  20.026  0.00  0.00    -0.052 S 
ENDROOT
TORSDOF 0
ENDMDL
MODEL 3
REMARK VINA RESULT:    -4.865     18.608     21.373
REMARK INTER + INTRA:          -4.865
REMARK INTER:                  -4.865
REMARK INTRA:                   0.000
REMARK UNBOUND:                 0.000
REMARK  Name = /home/vital/Documents/PhD_2021/Malaria_codes/scripts/../data/pdbqt_ligands/ligand_194_temp.pdb
REMARK                            x       y       z     vdW  Elec       q    Type
REMARK                         _______ _______ _______ _____ _____    ______ ____
ROOT
ATOM      1  C1  UNL     1      16.786  30.674  17.870  0.00  0.00    +0.079 C 
ATOM      2  O1  UNL     1      16.065  29.906  16.917  0.00  0.00    -0.494 OA
ATOM      3  C2  UNL     1      15.773  30.479  15.711  0.00  0.00    +0.132 A 
ATOM      4  C3  UNL     1      16.013  31.821  15.395  0.00  0.00    -0.019 A 
ATOM      5  C4  UNL     1      15.635  32.335  14.150  0.00  0.00    -0.058 A 
ATOM      6  C5  UNL     1      15.005  31.523  13.211  0.00  0.00    -0.061 A 
ATOM      7  C6  UNL     1      14.760  30.185  13.510  0.00  0.00    -0.046 A 
ATOM      8  C7  UNL     1      15.166  29.656  14.745  0.00  0.00    +0.079 A 
ATOM      9  C8  UNL     1      14.861  28.225  15.008  0.00  0.00    +0.256 C 
ATOM     10  O2  UNL     1      13.690  27.881  14.819  0.00  0.00    -0.269 OA
ATOM     11  N1  UNL     1      15.823  27.356  15.539  0.00  0.00    -0.242 N 
ATOM     12  C9  UNL     1      15.321  26.285  16.397  0.00  0.00    +0.048 C 
ATOM     13  C10 UNL     1      15.094  26.739  17.816  0.00  0.00    -0.012 A 
ATOM     14  C11 UNL     1      13.864  27.258  18.229  0.00  0.00    -0.054 A 
ATOM     15  C12 UNL     1      13.700  27.689  19.541  0.00  0.00    -0.043 A 
ATOM     16  C13 UNL     1      14.780  27.590  20.402  0.00  0.00    +0.028 A 
ATOM     17  N2  UNL     1      15.987  27.105  20.042  0.00  0.00    -0.263 NA
ATOM     18  C14 UNL     1      16.117  26.697  18.757  0.00  0.00    +0.032 A 
ATOM     19  C15 UNL     1      17.197  27.458  15.321  0.00  0.00    +0.169 A 
ATOM     20  N3  UNL     1      18.089  26.822  16.049  0.00  0.00    -0.224 NA
ATOM     21  C16 UNL     1      19.365  27.068  15.573  0.00  0.00    +0.081 A 
ATOM     22  C17 UNL     1      20.565  26.599  16.141  0.00  0.00    -0.032 A 
ATOM     23  C18 UNL     1      21.806  26.916  15.557  0.00  0.00    -0.045 A 
ATOM     24  C19 UNL     1      23.065  26.396  16.197  0.00  0.00    -0.039 C 
ATOM     25  C20 UNL     1      21.847  27.707  14.393  0.00  0.00    -0.046 A 
ATOM     26  C21 UNL     1      23.157  28.065  13.740  0.00  0.00    -0.039 C 
ATOM     27  C22 UNL     1      20.652  28.177  13.817  0.00  0.00    -0.043 A 
ATOM     28  C23 UNL     1      19.430  27.847  14.423  0.00  0.00    +0.041 A 
ATOM     29  S1  UNL     1      17.832  28.261  13.948  0.00  0.00    -0.052 S 
ENDROOT
TORSDOF 0
ENDMDL
MODEL 4
REMARK VINA RESULT:    -4.837     16.333     21.423
REMARK INTER + INTRA:          -4.837
REMARK INTER:                  -4.837
REMARK INTRA:                   0.000
REMARK UNBOUND:                 0.000
REMARK  Name = /home/vital/Documents/PhD_2021/Malaria_codes/scripts/../data/pdbqt_ligands/ligand_194_temp.pdb
REMARK                            x       y       z     vdW  Elec       q    Type
REMARK                         _______ _______ _______ _____ _____    ______ ____
ROOT
ATOM      1  C1  UNL     1      18.605  28.567  16.044  0.00  0.00    +0.079 C 
ATOM      2  O1  UNL     1      17.621  27.547  15.939  0.00  0.00    -0.494 OA
ATOM      3  C2  UNL     1      17.920  26.306  16.428  0.00  0.00    +0.132 A 
ATOM      4  C3  UNL     1      19.180  25.927  16.904  0.00  0.00    -0.019 A 
ATOM      5  C4  UNL     1      19.409  24.618  17.342  0.00  0.00    -0.058 A 
ATOM      6  C5  UNL     1      18.390  23.670  17.299  0.00  0.00    -0.061 A 
ATOM      7  C6  UNL     1      17.130  24.032  16.829  0.00  0.00    -0.046 A 
ATOM      8  C7  UNL     1      16.886  25.352  16.419  0.00  0.00    +0.079 A 
ATOM      9  C8  UNL     1      15.526  25.669  15.914  0.00  0.00    +0.256 C 
ATOM     10  O2  UNL     1      15.088  24.918  15.037  0.00  0.00    -0.269 OA
ATOM     11  N1  UNL     1      14.835  26.813  16.335  0.00  0.00    -0.242 N 
ATOM     12  C9  UNL     1      13.936  27.421  15.356  0.00  0.00    +0.048 C 
ATOM     13  C10 UNL     1      14.657  28.332  14.397  0.00  0.00    -0.012 A 
ATOM     14  C11 UNL     1      15.184  27.856  13.193  0.00  0.00    -0.054 A 
ATOM     15  C12 UNL     1      15.864  28.723  12.344  0.00  0.00    -0.043 A 
ATOM     16  C13 UNL     1      16.000  30.046  12.732  0.00  0.00    +0.028 A 
ATOM     17  N2  UNL     1      15.516  30.544  13.889  0.00  0.00    -0.263 NA
ATOM     18  C14 UNL     1      14.863  29.675  14.696  0.00  0.00    +0.032 A 
ATOM     19  C15 UNL     1      14.963  27.404  17.593  0.00  0.00    +0.169 A 
ATOM     20  N3  UNL     1      14.537  28.620  17.861  0.00  0.00    -0.224 NA
ATOM     21  C16 UNL     1      14.749  28.921  19.195  0.00  0.00    +0.081 A 
ATOM     22  C17 UNL     1      14.469  30.152  19.820  0.00  0.00    -0.032 A 
ATOM     23  C18 UNL     1      14.726  30.333  21.192  0.00  0.00    -0.045 A 
ATOM     24  C19 UNL     1      14.414  31.665  21.821  0.00  0.00    -0.039 C 
ATOM     25  C20 UNL     1      15.263  29.273  21.947  0.00  0.00    -0.046 A 
ATOM     26  C21 UNL     1      15.550  29.430  23.418  0.00  0.00    -0.039 C 
ATOM     27  C22 UNL     1      15.542  28.038  21.331  0.00  0.00    -0.043 A 
ATOM     28  C23 UNL     1      15.279  27.888  19.961  0.00  0.00    +0.041 A 
ATOM     29  S1  UNL     1      15.502  26.515  18.953  0.00  0.00    -0.052 S 
ENDROOT
TORSDOF 0
ENDMDL
MODEL 5
REMARK VINA RESULT:    -4.766     16.585     21.547
REMARK INTER + INTRA:          -4.766
REMARK INTER:                  -4.766
REMARK INTRA:                   0.000
REMARK UNBOUND:                 0.000
REMARK  Name = /home/vital/Documents/PhD_2021/Malaria_codes/scripts/../data/pdbqt_ligands/ligand_194_temp.pdb
REMARK                            x       y       z     vdW  Elec       q    Type
REMARK                         _______ _______ _______ _____ _____    ______ ____
ROOT
ATOM      1  C1  UNL     1      19.016  27.257  17.009  0.00  0.00    +0.079 C 
ATOM      2  O1  UNL     1      17.858  26.871  16.282  0.00  0.00    -0.494 OA
ATOM      3  C2  UNL     1      17.381  25.601  16.451  0.00  0.00    +0.132 A 
ATOM      4  C3  UNL     1      18.031  24.605  17.188  0.00  0.00    -0.019 A 
ATOM      5  C4  UNL     1      17.492  23.315  17.267  0.00  0.00    -0.058 A 
ATOM      6  C5  UNL     1      16.308  23.002  16.605  0.00  0.00    -0.061 A 
ATOM      7  C6  UNL     1      15.649  23.984  15.868  0.00  0.00    -0.046 A 
ATOM      8  C7  UNL     1      16.167  25.286  15.812  0.00  0.00    +0.079 A 
ATOM      9  C8  UNL     1      15.425  26.282  14.997  0.00  0.00    +0.256 C 
ATOM     10  O2  UNL     1      15.152  25.937  13.843  0.00  0.00    -0.269 OA
ATOM     11  N1  UNL     1      15.151  27.568  15.481  0.00  0.00    -0.242 N 
ATOM     12  C9  UNL     1      15.103  28.636  14.484  0.00  0.00    +0.048 C 
ATOM     13  C10 UNL     1      16.472  29.166  14.140  0.00  0.00    -0.012 A 
ATOM     14  C11 UNL     1      17.227  28.618  13.100  0.00  0.00    -0.054 A 
ATOM     15  C12 UNL     1      18.496  29.119  12.827  0.00  0.00    -0.043 A 
ATOM     16  C13 UNL     1      18.972  30.156  13.612  0.00  0.00    +0.028 A 
ATOM     17  N2  UNL     1      18.280  30.707  14.632  0.00  0.00    -0.263 NA
ATOM     18  C14 UNL     1      17.050  30.195  14.875  0.00  0.00    +0.032 A 
ATOM     19  C15 UNL     1      14.944  27.888  16.823  0.00  0.00    +0.169 A 
ATOM     20  N3  UNL     1      14.978  29.121  17.281  0.00  0.00    -0.224 NA
ATOM     21  C16 UNL     1      14.687  29.141  18.633  0.00  0.00    +0.081 A 
ATOM     22  C17 UNL     1      14.688  30.279  19.464  0.00  0.00    -0.032 A 
ATOM     23  C18 UNL     1      14.368  30.169  20.830  0.00  0.00    -0.045 A 
ATOM     24  C19 UNL     1      14.384  31.410  21.682  0.00  0.00    -0.039 C 
ATOM     25  C20 UNL     1      14.040  28.911  21.370  0.00  0.00    -0.046 A 
ATOM     26  C21 UNL     1      13.691  28.756  22.828  0.00  0.00    -0.039 C 
ATOM     27  C22 UNL     1      14.032  27.770  20.546  0.00  0.00    -0.043 A 
ATOM     28  C23 UNL     1      14.358  27.909  19.189  0.00  0.00    +0.041 A 
ATOM     29  S1  UNL     1      14.421  26.715  17.956  0.00  0.00    -0.052 S 
ENDROOT
TORSDOF 0
ENDMDL
MODEL 6
REMARK VINA RESULT:    -4.657     16.978     21.323
REMARK INTER + INTRA:          -4.657
REMARK INTER:                  -4.657
REMARK INTRA:                   0.000
REMARK UNBOUND:                 0.000
REMARK  Name = /home/vital/Documents/PhD_2021/Malaria_codes/scripts/../data/pdbqt_ligands/ligand_194_temp.pdb
REMARK                            x       y       z     vdW  Elec       q    Type
REMARK                         _______ _______ _______ _____ _____    ______ ____
ROOT
ATOM      1  C1  UNL     1      18.717  25.766  16.750  0.00  0.00    +0.079 C 
ATOM      2  O1  UNL     1      17.792  26.440  15.908  0.00  0.00    -0.494 OA
ATOM      3  C2  UNL     1      16.673  25.766  15.504  0.00  0.00    +0.132 A 
ATOM      4  C3  UNL     1      16.439  24.408  15.747  0.00  0.00    -0.019 A 
ATOM      5  C4  UNL     1      15.287  23.786  15.252  0.00  0.00    -0.058 A 
ATOM      6  C5  UNL     1      14.363  24.508  14.500  0.00  0.00    -0.061 A 
ATOM      7  C6  UNL     1      14.582  25.860  14.251  0.00  0.00    -0.046 A 
ATOM      8  C7  UNL     1      15.719  26.496  14.772  0.00  0.00    +0.079 A 
ATOM      9  C8  UNL     1      15.901  27.936  14.456  0.00  0.00    +0.256 C 
ATOM     10  O2  UNL     1      15.816  28.240  13.263  0.00  0.00    -0.269 OA
ATOM     11  N1  UNL     1      16.253  28.864  15.445  0.00  0.00    -0.242 N 
ATOM     12  C9  UNL     1      17.075  29.992  15.007  0.00  0.00    +0.048 C 
ATOM     13  C10 UNL     1      18.541  29.649  14.949  0.00  0.00    -0.012 A 
ATOM     14  C11 UNL     1      19.126  29.140  13.786  0.00  0.00    -0.054 A 
ATOM     15  C12 UNL     1      20.479  28.814  13.777  0.00  0.00    -0.043 A 
ATOM     16  C13 UNL     1      21.205  29.004  14.941  0.00  0.00    +0.028 A 
ATOM     17  N2  UNL     1      20.677  29.483  16.088  0.00  0.00    -0.263 NA
ATOM     18  C14 UNL     1      19.358  29.788  16.066  0.00  0.00    +0.032 A 
ATOM     19  C15 UNL     1      15.893  28.773  16.790  0.00  0.00    +0.169 A 
ATOM     20  N3  UNL     1      16.468  29.484  17.736  0.00  0.00    -0.224 NA
ATOM     21  C16 UNL     1      15.875  29.226  18.959  0.00  0.00    +0.081 A 
ATOM     22  C17 UNL     1      16.268  29.764  20.200  0.00  0.00    -0.032 A 
ATOM     23  C18 UNL     1      15.578  29.426  21.379  0.00  0.00    -0.045 A 
ATOM     24  C19 UNL     1      16.033  30.022  22.684  0.00  0.00    -0.039 C 
ATOM     25  C20 UNL     1      14.482  28.545  21.317  0.00  0.00    -0.046 A 
ATOM     26  C21 UNL     1      13.718  28.161  22.558  0.00  0.00    -0.039 C 
ATOM     27  C22 UNL     1      14.079  28.006  20.080  0.00  0.00    -0.043 A 
ATOM     28  C23 UNL     1      14.788  28.358  18.922  0.00  0.00    +0.041 A 
ATOM     29  S1  UNL     1      14.526  27.875  17.295  0.00  0.00    -0.052 S 
ENDROOT
TORSDOF 0
ENDMDL
MODEL 7
REMARK VINA RESULT:    -4.533     18.509     22.135
REMARK INTER + INTRA:          -4.533
REMARK INTER:                  -4.533
REMARK INTRA:                   0.000
REMARK UNBOUND:                 0.000
REMARK  Name = /home/vital/Documents/PhD_2021/Malaria_codes/scripts/../data/pdbqt_ligands/ligand_194_temp.pdb
REMARK                            x       y       z     vdW  Elec       q    Type
REMARK                         _______ _______ _______ _____ _____    ______ ____
ROOT
ATOM      1  C1  UNL     1      17.405  28.529  17.906  0.00  0.00    +0.079 C 
ATOM      2  O1  UNL     1      16.510  28.882  16.861  0.00  0.00    -0.494 OA
ATOM      3  C2  UNL     1      16.286  30.209  16.620  0.00  0.00    +0.132 A 
ATOM      4  C3  UNL     1      16.770  31.249  17.421  0.00  0.00    -0.019 A 
ATOM      5  C4  UNL     1      16.450  32.580  17.126  0.00  0.00    -0.058 A 
ATOM      6  C5  UNL     1      15.635  32.886  16.039  0.00  0.00    -0.061 A 
ATOM      7  C6  UNL     1      15.147  31.861  15.232  0.00  0.00    -0.046 A 
ATOM      8  C7  UNL     1      15.491  30.529  15.504  0.00  0.00    +0.079 A 
ATOM      9  C8  UNL     1      14.925  29.482  14.615  0.00  0.00    +0.256 C 
ATOM     10  O2  UNL     1      13.703  29.526  14.443  0.00  0.00    -0.269 OA
ATOM     11  N1  UNL     1      15.720  28.452  14.095  0.00  0.00    -0.242 N 
ATOM     12  C9  UNL     1      15.054  27.169  13.881  0.00  0.00    +0.048 C 
ATOM     13  C10 UNL     1      14.978  26.340  15.137  0.00  0.00    -0.012 A 
ATOM     14  C11 UNL     1      13.891  26.435  16.010  0.00  0.00    -0.054 A 
ATOM     15  C12 UNL     1      13.867  25.671  17.172  0.00  0.00    -0.043 A 
ATOM     16  C13 UNL     1      14.942  24.835  17.428  0.00  0.00    +0.028 A 
ATOM     17  N2  UNL     1      16.016  24.721  16.617  0.00  0.00    -0.263 NA
ATOM     18  C14 UNL     1      16.011  25.481  15.496  0.00  0.00    +0.032 A 
ATOM     19  C15 UNL     1      17.078  28.567  13.795  0.00  0.00    +0.169 A 
ATOM     20  N3  UNL     1      17.857  27.527  13.588  0.00  0.00    -0.224 NA
ATOM     21  C16 UNL     1      19.136  27.942  13.260  0.00  0.00    +0.081 A 
ATOM     22  C17 UNL     1      20.244  27.103  13.029  0.00  0.00    -0.032 A 
ATOM     23  C18 UNL     1      21.498  27.649  12.696  0.00  0.00    -0.045 A 
ATOM     24  C19 UNL     1      22.657  26.718  12.459  0.00  0.00    -0.039 C 
ATOM     25  C20 UNL     1      21.645  29.045  12.589  0.00  0.00    -0.046 A 
ATOM     26  C21 UNL     1      22.971  29.665  12.233  0.00  0.00    -0.039 C 
ATOM     27  C22 UNL     1      20.541  29.890  12.815  0.00  0.00    -0.043 A 
ATOM     28  C23 UNL     1      19.304  29.318  13.148  0.00  0.00    +0.041 A 
ATOM     29  S1  UNL     1      17.800  30.084  13.464  0.00  0.00    -0.052 S 
ENDROOT
TORSDOF 0
ENDMDL
MODEL 8
REMARK VINA RESULT:    -4.127     17.415     20.900
REMARK INTER + INTRA:          -4.127
REMARK INTER:                  -4.127
REMARK INTRA:                   0.000
REMARK UNBOUND:                 0.000
REMARK  Name = /home/vital/Documents/PhD_2021/Malaria_codes/scripts/../data/pdbqt_ligands/ligand_194_temp.pdb
REMARK                            x       y       z     vdW  Elec       q    Type
REMARK                         _______ _______ _______ _____ _____    ______ ____
ROOT
ATOM      1  C1  UNL     1      18.433  31.310  16.061  0.00  0.00    +0.079 C 
ATOM      2  O1  UNL     1      18.240  29.984  15.589  0.00  0.00    -0.494 OA
ATOM      3  C2  UNL     1      19.253  29.082  15.759  0.00  0.00    +0.132 A 
ATOM      4  C3  UNL     1      20.525  29.405  16.244  0.00  0.00    -0.019 A 
ATOM      5  C4  UNL     1      21.519  28.424  16.339  0.00  0.00    -0.058 A 
ATOM      6  C5  UNL     1      21.259  27.114  15.942  0.00  0.00    -0.061 A 
ATOM      7  C6  UNL     1      19.997  26.777  15.458  0.00  0.00    -0.046 A 
ATOM      8  C7  UNL     1      18.988  27.750  15.391  0.00  0.00    +0.079 A 
ATOM      9  C8  UNL     1      17.669  27.329  14.851  0.00  0.00    +0.256 C 
ATOM     10  O2  UNL     1      17.695  26.740  13.766  0.00  0.00    -0.269 OA
ATOM     11  N1  UNL     1      16.471  27.678  15.488  0.00  0.00    -0.242 N 
ATOM     12  C9  UNL     1      15.313  27.879  14.619  0.00  0.00    +0.048 C 
ATOM     13  C10 UNL     1      15.277  29.259  14.016  0.00  0.00    -0.012 A 
ATOM     14  C11 UNL     1      15.887  29.536  12.789  0.00  0.00    -0.054 A 
ATOM     15  C12 UNL     1      15.853  30.829  12.275  0.00  0.00    -0.043 A 
ATOM     16  C13 UNL     1      15.209  31.809  13.012  0.00  0.00    +0.028 A 
ATOM     17  N2  UNL     1      14.616  31.586  14.204  0.00  0.00    -0.263 NA
ATOM     18  C14 UNL     1      14.670  30.320  14.680  0.00  0.00    +0.032 A 
ATOM     19  C15 UNL     1      16.322  27.858  16.864  0.00  0.00    +0.169 A 
ATOM     20  N3  UNL     1      15.282  28.459  17.400  0.00  0.00    -0.224 NA
ATOM     21  C16 UNL     1      15.378  28.447  18.781  0.00  0.00    +0.081 A 
ATOM     22  C17 UNL     1      14.473  29.047  19.678  0.00  0.00    -0.032 A 
ATOM     23  C18 UNL     1      14.679  28.961  21.068  0.00  0.00    -0.045 A 
ATOM     24  C19 UNL     1      13.690  29.618  21.992  0.00  0.00    -0.039 C 
ATOM     25  C20 UNL     1      15.797  28.264  21.565  0.00  0.00    -0.046 A 
ATOM     26  C21 UNL     1      16.049  28.149  23.046  0.00  0.00    -0.039 C 
ATOM     27  C22 UNL     1      16.704  27.657  20.675  0.00  0.00    -0.043 A 
ATOM     28  C23 UNL     1      16.474  27.763  19.294  0.00  0.00    +0.041 A 
ATOM     29  S1  UNL     1      17.388  27.126  17.987  0.00  0.00    -0.052 S 
ENDROOT
TORSDOF 0
ENDMDL
MODEL 9
REMARK VINA RESULT:    -3.831      1.449      1.868
REMARK INTER + INTRA:          -3.831
REMARK INTER:                  -3.831
REMARK INTRA:                   0.000
REMARK UNBOUND:                 0.000
REMARK  Name = /home/vital/Documents/PhD_2021/Malaria_codes/scripts/../data/pdbqt_ligands/ligand_194_temp.pdb
REMARK                            x       y       z     vdW  Elec       q    Type
REMARK                         _______ _______ _______ _____ _____    ______ ____
ROOT
ATOM      1  C1  UNL     1      18.298  42.924  30.562  0.00  0.00    +0.079 C 
ATOM      2  O1  UNL     1      17.326  43.781  29.981  0.00  0.00    -0.494 OA
ATOM      3  C2  UNL     1      17.590  44.321  28.753  0.00  0.00    +0.132 A 
ATOM      4  C3  UNL     1      18.812  44.200  28.084  0.00  0.00    -0.019 A 
ATOM      5  C4  UNL     1      19.010  44.829  26.849  0.00  0.00    -0.058 A 
ATOM      6  C5  UNL     1      17.998  45.594  26.275  0.00  0.00    -0.061 A 
ATOM      7  C6  UNL     1      16.775  45.723  26.929  0.00  0.00    -0.046 A 
ATOM      8  C7  UNL     1      16.560  45.068  28.152  0.00  0.00    +0.079 A 
ATOM      9  C8  UNL     1      15.239  45.258  28.805  0.00  0.00    +0.256 C 
ATOM     10  O2  UNL     1      14.868  46.429  28.937  0.00  0.00    -0.269 OA
ATOM     11  N1  UNL     1      14.519  44.178  29.332  0.00  0.00    -0.242 N 
ATOM     12  C9  UNL     1      13.693  44.464  30.503  0.00  0.00    +0.048 C 
ATOM     13  C10 UNL     1      14.481  44.434  31.787  0.00  0.00    -0.012 A 
ATOM     14  C11 UNL     1      15.095  45.583  32.295  0.00  0.00    -0.054 A 
ATOM     15  C12 UNL     1      15.834  45.510  33.471  0.00  0.00    -0.043 A 
ATOM     16  C13 UNL     1      15.940  44.282  34.103  0.00  0.00    +0.028 A 
ATOM     17  N2  UNL     1      15.372  43.148  33.642  0.00  0.00    -0.263 NA
ATOM     18  C14 UNL     1      14.663  43.249  32.493  0.00  0.00    +0.032 A 
ATOM     19  C15 UNL     1      14.554  42.876  28.832  0.00  0.00    +0.169 A 
ATOM     20  N3  UNL     1      14.109  41.837  29.504  0.00  0.00    -0.224 NA
ATOM     21  C16 UNL     1      14.222  40.687  28.743  0.00  0.00    +0.081 A 
ATOM     22  C17 UNL     1      13.896  39.382  29.162  0.00  0.00    -0.032 A 
ATOM     23  C18 UNL     1      14.052  38.289  28.288  0.00  0.00    -0.045 A 
ATOM     24  C19 UNL     1      13.694  36.911  28.777  0.00  0.00    -0.039 C 
ATOM     25  C20 UNL     1      14.534  38.503  26.983  0.00  0.00    -0.046 A 
ATOM     26  C21 UNL     1      14.713  37.358  26.021  0.00  0.00    -0.039 C 
ATOM     27  C22 UNL     1      14.858  39.805  26.555  0.00  0.00    -0.043 A 
ATOM     28  C23 UNL     1      14.696  40.874  27.449  0.00  0.00    +0.041 A 
ATOM     29  S1  UNL     1      14.993  42.548  27.209  0.00  0.00    -0.052 S 
ENDROOT
TORSDOF 0
ENDMDL
