MODEL 1
REMARK VINA RESULT:    -3.922      0.000      0.000
REMARK INTER + INTRA:          -3.922
REMARK INTER:                  -3.922
REMARK INTRA:                   0.000
REMARK UNBOUND:                 0.000
REMARK  Name = /home/vital/Documents/PhD_2021/Malaria_codes/scripts/../data/pdbqt_ligands/ligand_310_temp.pdb
REMARK                            x       y       z     vdW  Elec       q    Type
REMARK                         _______ _______ _______ _____ _____    ______ ____
ROOT
ATOM      1  N   UNL     1      15.598  23.067  17.909  0.00  0.00    -0.356 N 
ATOM      2  C   UNL     1      16.100  24.095  17.133  0.00  0.00    +0.050 C 
ATOM      3  C   UNL     1      17.208  24.821  17.482  0.00  0.00    +0.030 C 
ATOM      4  N   UNL     1      17.881  24.635  18.705  0.00  0.00    -0.343 N 
ATOM      5  C   UNL     1      17.296  25.146  19.950  0.00  0.00    +0.032 C 
ATOM      6  C   UNL     1      18.014  24.558  21.168  0.00  0.00    +0.060 C 
ATOM      7  O   UNL     1      17.502  25.110  22.377  0.00  0.00    -0.393 OA
ATOM      8  C   UNL     1      17.814  25.907  16.529  0.00  0.00    +0.017 C 
ATOM      9  C   UNL     1      16.996  26.104  15.256  0.00  0.00    -0.008 C 
ATOM     10  C   UNL     1      17.463  27.065  14.211  0.00  0.00    +0.025 C 
ATOM     11  N   UNL     1      17.315  28.472  14.583  0.00  0.00    -0.308 N 
ATOM     12  C   UNL     1      15.933  28.950  14.571  0.00  0.00    +0.016 C 
ATOM     13  C   UNL     1      15.502  29.337  13.189  0.00  0.00    -0.059 C 
ATOM     14  C   UNL     1      15.011  30.515  12.792  0.00  0.00    +0.002 C 
ATOM     15 CL   UNL     1      14.757  31.879  13.795  0.00  0.00    -0.092 Cl
ATOM     16  C   UNL     1      15.973  25.308  15.174  0.00  0.00    -0.117 C 
ATOM     17  C   UNL     1      15.420  24.366  15.866  0.00  0.00    +0.003 C 
ATOM     18  H   UNL     1      16.023  22.848  18.770  0.00  0.00    +0.000 HD
ATOM     19  H   UNL     1      14.817  22.554  17.602  0.00  0.00    +0.000 HD
ATOM     20  H   UNL     1      18.744  24.162  18.725  0.00  0.00    +0.000 HD
ATOM     21  H   UNL     1      17.642  26.070  22.380  0.00  0.00    +0.000 HD
ATOM     22  H   UNL     1      17.855  29.036  13.927  0.00  0.00    +0.000 HD
ATOM     23  H   UNL     1      17.647  28.559  15.544  0.00  0.00    +0.000 HD
ENDROOT
TORSDOF 0
ENDMDL
MODEL 2
REMARK VINA RESULT:    -3.656      4.570      7.259
REMARK INTER + INTRA:          -3.656
REMARK INTER:                  -3.656
REMARK INTRA:                   0.000
REMARK UNBOUND:                 0.000
REMARK  Name = /home/vital/Documents/PhD_2021/Malaria_codes/scripts/../data/pdbqt_ligands/ligand_310_temp.pdb
REMARK                            x       y       z     vdW  Elec       q    Type
REMARK                         _______ _______ _______ _____ _____    ______ ____
ROOT
ATOM      1  N   UNL     1      17.035  31.592  12.543  0.00  0.00    -0.356 N 
ATOM      2  C   UNL     1      16.279  30.588  13.121  0.00  0.00    +0.050 C 
ATOM      3  C   UNL     1      15.480  30.792  14.216  0.00  0.00    +0.030 C 
ATOM      4  N   UNL     1      15.429  32.024  14.897  0.00  0.00    -0.343 N 
ATOM      5  C   UNL     1      16.536  32.427  15.772  0.00  0.00    +0.032 C 
ATOM      6  C   UNL     1      16.424  33.908  16.140  0.00  0.00    +0.060 C 
ATOM      7  O   UNL     1      17.451  34.287  17.052  0.00  0.00    -0.393 OA
ATOM      8  C   UNL     1      14.555  29.662  14.781  0.00  0.00    +0.017 C 
ATOM      9  C   UNL     1      14.714  28.338  14.040  0.00  0.00    -0.008 C 
ATOM     10  C   UNL     1      13.864  27.167  14.416  0.00  0.00    +0.025 C 
ATOM     11  N   UNL     1      14.223  26.552  15.694  0.00  0.00    -0.308 N 
ATOM     12  C   UNL     1      15.468  25.785  15.657  0.00  0.00    +0.016 C 
ATOM     13  C   UNL     1      15.241  24.401  15.129  0.00  0.00    -0.059 C 
ATOM     14  C   UNL     1      15.547  23.245  15.726  0.00  0.00    +0.002 C 
ATOM     15 CL   UNL     1      16.285  23.079  17.262  0.00  0.00    -0.092 Cl
ATOM     16  C   UNL     1      15.554  28.398  13.052  0.00  0.00    -0.117 C 
ATOM     17  C   UNL     1      16.321  29.272  12.484  0.00  0.00    +0.003 C 
ATOM     18  H   UNL     1      17.038  32.494  12.937  0.00  0.00    +0.000 HD
ATOM     19  H   UNL     1      17.570  31.404  11.739  0.00  0.00    +0.000 HD
ATOM     20  H   UNL     1      14.650  32.616  14.785  0.00  0.00    +0.000 HD
ATOM     21  H   UNL     1      17.368  33.766  17.867  0.00  0.00    +0.000 HD
ATOM     22  H   UNL     1      13.468  25.925  15.971  0.00  0.00    +0.000 HD
ATOM     23  H   UNL     1      14.367  27.314  16.357  0.00  0.00    +0.000 HD
ENDROOT
TORSDOF 0
ENDMDL
MODEL 3
REMARK VINA RESULT:    -3.543      4.325      7.136
REMARK INTER + INTRA:          -3.543
REMARK INTER:                  -3.543
REMARK INTRA:                   0.000
REMARK UNBOUND:                 0.000
REMARK  Name = /home/vital/Documents/PhD_2021/Malaria_codes/scripts/../data/pdbqt_ligands/ligand_310_temp.pdb
REMARK                            x       y       z     vdW  Elec       q    Type
REMARK                         _______ _______ _______ _____ _____    ______ ____
ROOT
ATOM      1  N   UNL     1      15.966  29.740  12.494  0.00  0.00    -0.356 N 
ATOM      2  C   UNL     1      15.473  28.888  13.465  0.00  0.00    +0.050 C 
ATOM      3  C   UNL     1      14.856  29.333  14.604  0.00  0.00    +0.030 C 
ATOM      4  N   UNL     1      14.748  30.701  14.921  0.00  0.00    -0.343 N 
ATOM      5  C   UNL     1      15.921  31.437  15.407  0.00  0.00    +0.032 C 
ATOM      6  C   UNL     1      15.665  32.946  15.375  0.00  0.00    +0.060 C 
ATOM      7  O   UNL     1      16.770  33.663  15.918  0.00  0.00    -0.393 OA
ATOM      8  C   UNL     1      14.213  28.342  15.632  0.00  0.00    +0.017 C 
ATOM      9  C   UNL     1      14.428  26.878  15.261  0.00  0.00    -0.008 C 
ATOM     10  C   UNL     1      13.831  25.799  16.107  0.00  0.00    +0.025 C 
ATOM     11  N   UNL     1      14.491  25.620  17.400  0.00  0.00    -0.308 N 
ATOM     12  C   UNL     1      15.806  24.987  17.317  0.00  0.00    +0.016 C 
ATOM     13  C   UNL     1      15.691  23.495  17.241  0.00  0.00    -0.059 C 
ATOM     14  C   UNL     1      16.258  22.596  18.052  0.00  0.00    +0.002 C 
ATOM     15 CL   UNL     1      17.267  22.952  19.388  0.00  0.00    -0.092 Cl
ATOM     16  C   UNL     1      15.066  26.719  14.142  0.00  0.00    -0.117 C 
ATOM     17  C   UNL     1      15.591  27.451  13.213  0.00  0.00    +0.003 C 
ATOM     18  H   UNL     1      15.909  30.714  12.619  0.00  0.00    +0.000 HD
ATOM     19  H   UNL     1      16.375  29.371  11.678  0.00  0.00    +0.000 HD
ATOM     20  H   UNL     1      13.885  31.164  14.817  0.00  0.00    +0.000 HD
ATOM     21  H   UNL     1      16.905  33.399  16.842  0.00  0.00    +0.000 HD
ATOM     22  H   UNL     1      13.893  25.039  17.988  0.00  0.00    +0.000 HD
ATOM     23  H   UNL     1      14.637  26.552  17.788  0.00  0.00    +0.000 HD
ENDROOT
TORSDOF 0
ENDMDL
MODEL 4
REMARK VINA RESULT:    -3.533      2.996      3.837
REMARK INTER + INTRA:          -3.533
REMARK INTER:                  -3.533
REMARK INTRA:                   0.000
REMARK UNBOUND:                 0.000
REMARK  Name = /home/vital/Documents/PhD_2021/Malaria_codes/scripts/../data/pdbqt_ligands/ligand_310_temp.pdb
REMARK                            x       y       z     vdW  Elec       q    Type
REMARK                         _______ _______ _______ _____ _____    ______ ____
ROOT
ATOM      1  N   UNL     1      13.690  25.615  15.283  0.00  0.00    -0.356 N 
ATOM      2  C   UNL     1      14.432  26.776  15.159  0.00  0.00    +0.050 C 
ATOM      3  C   UNL     1      15.767  26.843  15.458  0.00  0.00    +0.030 C 
ATOM      4  N   UNL     1      16.478  25.754  15.999  0.00  0.00    -0.343 N 
ATOM      5  C   UNL     1      16.299  25.387  17.408  0.00  0.00    +0.032 C 
ATOM      6  C   UNL     1      16.900  24.008  17.690  0.00  0.00    +0.060 C 
ATOM      7  O   UNL     1      16.799  23.680  19.072  0.00  0.00    -0.393 OA
ATOM      8  C   UNL     1      16.602  28.144  15.204  0.00  0.00    +0.017 C 
ATOM      9  C   UNL     1      15.756  29.302  14.684  0.00  0.00    -0.008 C 
ATOM     10  C   UNL     1      16.405  30.602  14.336  0.00  0.00    +0.025 C 
ATOM     11  N   UNL     1      16.845  31.380  15.495  0.00  0.00    -0.308 N 
ATOM     12  C   UNL     1      15.754  31.993  16.252  0.00  0.00    +0.016 C 
ATOM     13  C   UNL     1      15.319  33.286  15.631  0.00  0.00    -0.059 C 
ATOM     14  C   UNL     1      15.257  34.486  16.217  0.00  0.00    +0.002 C 
ATOM     15 CL   UNL     1      15.668  34.825  17.843  0.00  0.00    -0.092 Cl
ATOM     16  C   UNL     1      14.508  28.988  14.507  0.00  0.00    -0.117 C 
ATOM     17  C   UNL     1      13.740  27.956  14.639  0.00  0.00    +0.003 C 
ATOM     18  H   UNL     1      14.113  24.796  15.629  0.00  0.00    +0.000 HD
ATOM     19  H   UNL     1      12.740  25.609  15.028  0.00  0.00    +0.000 HD
ATOM     20  H   UNL     1      17.096  25.239  15.431  0.00  0.00    +0.000 HD
ATOM     21  H   UNL     1      17.286  24.334  19.597  0.00  0.00    +0.000 HD
ATOM     22  H   UNL     1      17.464  32.121  15.168  0.00  0.00    +0.000 HD
ATOM     23  H   UNL     1      17.311  30.728  16.127  0.00  0.00    +0.000 HD
ENDROOT
TORSDOF 0
ENDMDL
MODEL 5
REMARK VINA RESULT:    -3.469      2.723      3.919
REMARK INTER + INTRA:          -3.469
REMARK INTER:                  -3.469
REMARK INTRA:                   0.000
REMARK UNBOUND:                 0.000
REMARK  Name = /home/vital/Documents/PhD_2021/Malaria_codes/scripts/../data/pdbqt_ligands/ligand_310_temp.pdb
REMARK                            x       y       z     vdW  Elec       q    Type
REMARK                         _______ _______ _______ _____ _____    ______ ____
ROOT
ATOM      1  N   UNL     1      13.860  26.484  16.699  0.00  0.00    -0.356 N 
ATOM      2  C   UNL     1      14.408  27.267  15.699  0.00  0.00    +0.050 C 
ATOM      3  C   UNL     1      15.547  26.920  15.021  0.00  0.00    +0.030 C 
ATOM      4  N   UNL     1      16.304  25.777  15.346  0.00  0.00    -0.343 N 
ATOM      5  C   UNL     1      17.153  25.774  16.543  0.00  0.00    +0.032 C 
ATOM      6  C   UNL     1      17.615  24.353  16.875  0.00  0.00    +0.060 C 
ATOM      7  O   UNL     1      18.502  24.352  17.990  0.00  0.00    -0.393 OA
ATOM      8  C   UNL     1      16.082  27.774  13.822  0.00  0.00    +0.017 C 
ATOM      9  C   UNL     1      15.256  29.032  13.572  0.00  0.00    -0.008 C 
ATOM     10  C   UNL     1      15.597  29.932  12.429  0.00  0.00    +0.025 C 
ATOM     11  N   UNL     1      16.817  30.714  12.626  0.00  0.00    -0.308 N 
ATOM     12  C   UNL     1      16.679  31.802  13.593  0.00  0.00    +0.016 C 
ATOM     13  C   UNL     1      16.078  33.021  12.962  0.00  0.00    -0.059 C 
ATOM     14  C   UNL     1      16.589  34.256  12.935  0.00  0.00    +0.002 C 
ATOM     15 CL   UNL     1      18.077  34.736  13.630  0.00  0.00    -0.092 Cl
ATOM     16  C   UNL     1      14.237  29.145  14.369  0.00  0.00    -0.117 C 
ATOM     17  C   UNL     1      13.691  28.491  15.342  0.00  0.00    +0.003 C 
ATOM     18  H   UNL     1      14.307  25.652  16.973  0.00  0.00    +0.000 HD
ATOM     19  H   UNL     1      13.023  26.761  17.136  0.00  0.00    +0.000 HD
ATOM     20  H   UNL     1      16.263  24.980  14.770  0.00  0.00    +0.000 HD
ATOM     21  H   UNL     1      19.286  24.883  17.780  0.00  0.00    +0.000 HD
ATOM     22  H   UNL     1      17.089  31.115  11.728  0.00  0.00    +0.000 HD
ATOM     23  H   UNL     1      17.519  30.075  13.000  0.00  0.00    +0.000 HD
ENDROOT
TORSDOF 0
ENDMDL
MODEL 6
REMARK VINA RESULT:    -3.355     22.123     23.688
REMARK INTER + INTRA:          -3.355
REMARK INTER:                  -3.355
REMARK INTRA:                   0.000
REMARK UNBOUND:                 0.000
REMARK  Name = /home/vital/Documents/PhD_2021/Malaria_codes/scripts/../data/pdbqt_ligands/ligand_310_temp.pdb
REMARK                            x       y       z     vdW  Elec       q    Type
REMARK                         _______ _______ _______ _____ _____    ______ ____
ROOT
ATOM      1  N   UNL     1      15.384  42.897  26.365  0.00  0.00    -0.356 N 
ATOM      2  C   UNL     1      15.006  43.448  27.576  0.00  0.00    +0.050 C 
ATOM      3  C   UNL     1      14.317  44.628  27.677  0.00  0.00    +0.030 C 
ATOM      4  N   UNL     1      14.011  45.423  26.556  0.00  0.00    -0.343 N 
ATOM      5  C   UNL     1      15.060  46.224  25.913  0.00  0.00    +0.032 C 
ATOM      6  C   UNL     1      14.590  46.739  24.551  0.00  0.00    +0.060 C 
ATOM      7  O   UNL     1      15.574  47.580  23.956  0.00  0.00    -0.393 OA
ATOM      8  C   UNL     1      13.811  45.169  29.056  0.00  0.00    +0.017 C 
ATOM      9  C   UNL     1      14.238  44.295  30.231  0.00  0.00    -0.008 C 
ATOM     10  C   UNL     1      13.793  44.638  31.616  0.00  0.00    +0.025 C 
ATOM     11  N   UNL     1      14.455  45.812  32.185  0.00  0.00    -0.308 N 
ATOM     12  C   UNL     1      15.849  45.585  32.564  0.00  0.00    +0.016 C 
ATOM     13  C   UNL     1      15.950  44.953  33.919  0.00  0.00    -0.059 C 
ATOM     14  C   UNL     1      16.630  45.406  34.977  0.00  0.00    +0.002 C 
ATOM     15 CL   UNL     1      17.561  46.841  35.025  0.00  0.00    -0.092 Cl
ATOM     16  C   UNL     1      14.907  43.241  29.873  0.00  0.00    -0.117 C 
ATOM     17  C   UNL     1      15.332  42.688  28.783  0.00  0.00    +0.003 C 
ATOM     18  H   UNL     1      15.186  43.372  25.526  0.00  0.00    +0.000 HD
ATOM     19  H   UNL     1      15.851  42.032  26.342  0.00  0.00    +0.000 HD
ATOM     20  H   UNL     1      13.092  45.443  26.203  0.00  0.00    +0.000 HD
ATOM     21  H   UNL     1      15.734  48.346  24.530  0.00  0.00    +0.000 HD
ATOM     22  H   UNL     1      13.939  46.100  33.016  0.00  0.00    +0.000 HD
ATOM     23  H   UNL     1      14.461  46.527  31.457  0.00  0.00    +0.000 HD
ENDROOT
TORSDOF 0
ENDMDL
MODEL 7
REMARK VINA RESULT:    -3.125      4.583      7.299
REMARK INTER + INTRA:          -3.125
REMARK INTER:                  -3.125
REMARK INTRA:                   0.000
REMARK UNBOUND:                 0.000
REMARK  Name = /home/vital/Documents/PhD_2021/Malaria_codes/scripts/../data/pdbqt_ligands/ligand_310_temp.pdb
REMARK                            x       y       z     vdW  Elec       q    Type
REMARK                         _______ _______ _______ _____ _____    ______ ____
ROOT
ATOM      1  N   UNL     1      15.221  31.458  13.351  0.00  0.00    -0.356 N 
ATOM      2  C   UNL     1      15.162  30.591  14.426  0.00  0.00    +0.050 C 
ATOM      3  C   UNL     1      15.780  30.844  15.623  0.00  0.00    +0.030 C 
ATOM      4  N   UNL     1      16.599  31.971  15.829  0.00  0.00    -0.343 N 
ATOM      5  C   UNL     1      17.948  32.014  15.254  0.00  0.00    +0.032 C 
ATOM      6  C   UNL     1      18.521  33.432  15.322  0.00  0.00    +0.060 C 
ATOM      7  O   UNL     1      19.860  33.466  14.837  0.00  0.00    -0.393 OA
ATOM      8  C   UNL     1      15.606  29.893  16.855  0.00  0.00    +0.017 C 
ATOM      9  C   UNL     1      14.766  28.659  16.540  0.00  0.00    -0.008 C 
ATOM     10  C   UNL     1      14.455  27.673  17.620  0.00  0.00    +0.025 C 
ATOM     11  N   UNL     1      15.596  26.854  18.029  0.00  0.00    -0.308 N 
ATOM     12  C   UNL     1      15.980  25.837  17.051  0.00  0.00    +0.016 C 
ATOM     13  C   UNL     1      15.133  24.607  17.181  0.00  0.00    -0.059 C 
ATOM     14  C   UNL     1      15.550  23.352  17.375  0.00  0.00    +0.002 C 
ATOM     15 CL   UNL     1      17.181  22.853  17.523  0.00  0.00    -0.092 Cl
ATOM     16  C   UNL     1      14.314  28.641  15.323  0.00  0.00    -0.117 C 
ATOM     17  C   UNL     1      14.360  29.378  14.261  0.00  0.00    +0.003 C 
ATOM     18  H   UNL     1      15.748  32.286  13.415  0.00  0.00    +0.000 HD
ATOM     19  H   UNL     1      14.735  31.247  12.521  0.00  0.00    +0.000 HD
ATOM     20  H   UNL     1      16.265  32.731  16.359  0.00  0.00    +0.000 HD
ATOM     21  H   UNL     1      20.416  32.889  15.384  0.00  0.00    +0.000 HD
ATOM     22  H   UNL     1      15.357  26.384  18.903  0.00  0.00    +0.000 HD
ATOM     23  H   UNL     1      16.392  27.485  18.125  0.00  0.00    +0.000 HD
ENDROOT
TORSDOF 0
ENDMDL
MODEL 8
REMARK VINA RESULT:    -3.064      2.569      3.118
REMARK INTER + INTRA:          -3.064
REMARK INTER:                  -3.064
REMARK INTRA:                   0.000
REMARK UNBOUND:                 0.000
REMARK  Name = /home/vital/Documents/PhD_2021/Malaria_codes/scripts/../data/pdbqt_ligands/ligand_310_temp.pdb
REMARK                            x       y       z     vdW  Elec       q    Type
REMARK                         _______ _______ _______ _____ _____    ______ ____
ROOT
ATOM      1  N   UNL     1      17.574  25.299  19.833  0.00  0.00    -0.356 N 
ATOM      2  C   UNL     1      16.845  25.642  18.709  0.00  0.00    +0.050 C 
ATOM      3  C   UNL     1      16.870  24.910  17.551  0.00  0.00    +0.030 C 
ATOM      4  N   UNL     1      17.707  23.790  17.381  0.00  0.00    -0.343 N 
ATOM      5  C   UNL     1      19.146  23.976  17.158  0.00  0.00    +0.032 C 
ATOM      6  C   UNL     1      19.896  22.652  17.326  0.00  0.00    +0.060 C 
ATOM      7  O   UNL     1      21.281  22.809  17.035  0.00  0.00    -0.393 OA
ATOM      8  C   UNL     1      15.951  25.265  16.334  0.00  0.00    +0.017 C 
ATOM      9  C   UNL     1      15.124  26.527  16.561  0.00  0.00    -0.008 C 
ATOM     10  C   UNL     1      14.151  26.978  15.519  0.00  0.00    +0.025 C 
ATOM     11  N   UNL     1      14.776  27.543  14.323  0.00  0.00    -0.308 N 
ATOM     12  C   UNL     1      15.356  28.870  14.523  0.00  0.00    +0.016 C 
ATOM     13  C   UNL     1      14.316  29.943  14.408  0.00  0.00    -0.059 C 
ATOM     14  C   UNL     1      14.328  31.001  13.590  0.00  0.00    +0.002 C 
ATOM     15 CL   UNL     1      15.561  31.377  12.464  0.00  0.00    -0.092 Cl
ATOM     16  C   UNL     1      15.300  27.052  17.735  0.00  0.00    -0.117 C 
ATOM     17  C   UNL     1      15.985  26.821  18.808  0.00  0.00    +0.003 C 
ATOM     18  H   UNL     1      18.167  24.514  19.813  0.00  0.00    +0.000 HD
ATOM     19  H   UNL     1      17.500  25.840  20.651  0.00  0.00    +0.000 HD
ATOM     20  H   UNL     1      17.328  22.882  17.412  0.00  0.00    +0.000 HD
ATOM     21  H   UNL     1      21.388  23.102  16.117  0.00  0.00    +0.000 HD
ATOM     22  H   UNL     1      14.067  27.610  13.593  0.00  0.00    +0.000 HD
ATOM     23  H   UNL     1      15.544  26.921  14.071  0.00  0.00    +0.000 HD
ENDROOT
TORSDOF 0
ENDMDL
MODEL 9
REMARK VINA RESULT:    -3.038      3.375      4.553
REMARK INTER + INTRA:          -3.038
REMARK INTER:                  -3.038
REMARK INTRA:                   0.000
REMARK UNBOUND:                 0.000
REMARK  Name = /home/vital/Documents/PhD_2021/Malaria_codes/scripts/../data/pdbqt_ligands/ligand_310_temp.pdb
REMARK                            x       y       z     vdW  Elec       q    Type
REMARK                         _______ _______ _______ _____ _____    ______ ____
ROOT
ATOM      1  N   UNL     1      13.692  27.328  16.463  0.00  0.00    -0.356 N 
ATOM      2  C   UNL     1      14.543  27.754  15.460  0.00  0.00    +0.050 C 
ATOM      3  C   UNL     1      15.289  26.893  14.699  0.00  0.00    +0.030 C 
ATOM      4  N   UNL     1      15.314  25.504  14.932  0.00  0.00    -0.343 N 
ATOM      5  C   UNL     1      16.065  24.965  16.072  0.00  0.00    +0.032 C 
ATOM      6  C   UNL     1      15.694  23.501  16.321  0.00  0.00    +0.060 C 
ATOM      7  O   UNL     1      16.476  22.948  17.376  0.00  0.00    -0.393 OA
ATOM      8  C   UNL     1      16.160  27.399  13.500  0.00  0.00    +0.017 C 
ATOM      9  C   UNL     1      16.140  28.917  13.349  0.00  0.00    -0.008 C 
ATOM     10  C   UNL     1      16.876  29.564  12.220  0.00  0.00    +0.025 C 
ATOM     11  N   UNL     1      18.331  29.548  12.368  0.00  0.00    -0.308 N 
ATOM     12  C   UNL     1      18.838  30.472  13.381  0.00  0.00    +0.016 C 
ATOM     13  C   UNL     1      18.974  31.861  12.834  0.00  0.00    -0.059 C 
ATOM     14  C   UNL     1      20.071  32.624  12.820  0.00  0.00    +0.002 C 
ATOM     15 CL   UNL     1      21.605  32.178  13.436  0.00  0.00    -0.092 Cl
ATOM     16  C   UNL     1      15.373  29.510  14.213  0.00  0.00    -0.117 C 
ATOM     17  C   UNL     1      14.593  29.192  15.195  0.00  0.00    +0.003 C 
ATOM     18  H   UNL     1      13.625  26.370  16.678  0.00  0.00    +0.000 HD
ATOM     19  H   UNL     1      13.154  27.983  16.963  0.00  0.00    +0.000 HD
ATOM     20  H   UNL     1      14.828  24.895  14.331  0.00  0.00    +0.000 HD
ATOM     21  H   UNL     1      17.415  22.985  17.136  0.00  0.00    +0.000 HD
ATOM     22  H   UNL     1      18.747  29.797  11.470  0.00  0.00    +0.000 HD
ATOM     23  H   UNL     1      18.586  28.609  12.673  0.00  0.00    +0.000 HD
ENDROOT
TORSDOF 0
ENDMDL
