MODEL 1
REMARK VINA RESULT:    -5.011      0.000      0.000
REMARK INTER + INTRA:          -5.011
REMARK INTER:                  -5.011
REMARK INTRA:                   0.000
REMARK UNBOUND:                 0.000
REMARK  Name = /home/vital/Documents/PhD_2021/Malaria_codes/scripts/../data/pdbqt_ligands/ligand_78_temp.pdb
REMARK                            x       y       z     vdW  Elec       q    Type
REMARK                         _______ _______ _______ _____ _____    ______ ____
ROOT
ATOM      1  C1  UNL     1      16.677  30.745  16.505  0.00  0.00    -0.038 C 
ATOM      2  C2  UNL     1      16.350  30.796  15.040  0.00  0.00    -0.028 A 
ATOM      3  C3  UNL     1      15.028  31.061  14.644  0.00  0.00    -0.057 A 
ATOM      4  C4  UNL     1      14.685  31.129  13.293  0.00  0.00    -0.061 A 
ATOM      5  C5  UNL     1      15.660  30.939  12.319  0.00  0.00    -0.060 A 
ATOM      6  C6  UNL     1      16.976  30.676  12.696  0.00  0.00    -0.039 A 
ATOM      7  C7  UNL     1      17.325  30.595  14.046  0.00  0.00    +0.051 A 
ATOM      8  N1  UNL     1      18.670  30.294  14.408  0.00  0.00    -0.216 N 
ATOM      9  S1  UNL     1      19.351  28.811  13.980  0.00  0.00    +0.072 S 
ATOM     10  O1  UNL     1      19.345  28.663  12.541  0.00  0.00    -0.150 OA
ATOM     11  O2  UNL     1      20.582  28.707  14.736  0.00  0.00    -0.150 OA
ATOM     12  C8  UNL     1      18.206  27.623  14.660  0.00  0.00    +0.109 A 
ATOM     13  C9  UNL     1      17.153  27.149  13.854  0.00  0.00    -0.030 A 
ATOM     14  C10 UNL     1      16.292  26.220  14.403  0.00  0.00    -0.022 A 
ATOM     15  C11 UNL     1      16.490  25.799  15.709  0.00  0.00    +0.043 A 
ATOM     16  C12 UNL     1      17.529  26.214  16.517  0.00  0.00    -0.023 A 
ATOM     17  C13 UNL     1      18.416  27.141  15.973  0.00  0.00    -0.030 A 
ATOM     18  C14 UNL     1      17.686  25.543  17.846  0.00  0.00    -0.018 C 
ATOM     19  C15 UNL     1      16.348  25.024  18.386  0.00  0.00    +0.029 C 
ATOM     20  C16 UNL     1      15.472  24.331  17.346  0.00  0.00    +0.220 C 
ATOM     21  O3  UNL     1      14.694  23.430  17.652  0.00  0.00    -0.275 OA
ATOM     22  N2  UNL     1      15.540  24.869  16.088  0.00  0.00    -0.271 N 
ATOM     23  C17 UNL     1      14.705  24.537  14.932  0.00  0.00    +0.024 C 
ATOM     24  C18 UNL     1      15.091  25.542  13.818  0.00  0.00    -0.010 C 
ATOM     25  H   UNL     1      19.203  30.952  14.908  0.00  0.00    +0.000 HD
ENDROOT
TORSDOF 0
ENDMDL
MODEL 2
REMARK VINA RESULT:    -4.806      3.570      5.151
REMARK INTER + INTRA:          -4.806
REMARK INTER:                  -4.806
REMARK INTRA:                   0.000
REMARK UNBOUND:                 0.000
REMARK  Name = /home/vital/Documents/PhD_2021/Malaria_codes/scripts/../data/pdbqt_ligands/ligand_78_temp.pdb
REMARK                            x       y       z     vdW  Elec       q    Type
REMARK                         _______ _______ _______ _____ _____    ______ ____
ROOT
ATOM      1  C1  UNL     1      17.793  28.160  15.585  0.00  0.00    -0.038 C 
ATOM      2  C2  UNL     1      16.367  28.418  15.191  0.00  0.00    -0.028 A 
ATOM      3  C3  UNL     1      15.926  29.746  15.052  0.00  0.00    -0.057 A 
ATOM      4  C4  UNL     1      14.613  30.028  14.675  0.00  0.00    -0.061 A 
ATOM      5  C5  UNL     1      13.723  28.988  14.425  0.00  0.00    -0.060 A 
ATOM      6  C6  UNL     1      14.146  27.666  14.556  0.00  0.00    -0.039 A 
ATOM      7  C7  UNL     1      15.456  27.376  14.945  0.00  0.00    +0.051 A 
ATOM      8  N1  UNL     1      15.856  26.017  15.104  0.00  0.00    -0.216 N 
ATOM      9  S1  UNL     1      15.126  25.049  16.277  0.00  0.00    +0.072 S 
ATOM     10  O1  UNL     1      13.705  24.956  16.023  0.00  0.00    -0.150 OA
ATOM     11  O2  UNL     1      15.946  23.860  16.376  0.00  0.00    -0.150 OA
ATOM     12  C8  UNL     1      15.357  25.982  17.779  0.00  0.00    +0.109 A 
ATOM     13  C9  UNL     1      14.356  26.887  18.183  0.00  0.00    -0.030 A 
ATOM     14  C10 UNL     1      14.557  27.583  19.358  0.00  0.00    -0.022 A 
ATOM     15  C11 UNL     1      15.720  27.375  20.082  0.00  0.00    +0.043 A 
ATOM     16  C12 UNL     1      16.706  26.474  19.737  0.00  0.00    -0.023 A 
ATOM     17  C13 UNL     1      16.513  25.751  18.561  0.00  0.00    -0.030 A 
ATOM     18  C14 UNL     1      17.823  26.259  20.710  0.00  0.00    -0.018 C 
ATOM     19  C15 UNL     1      18.075  27.500  21.574  0.00  0.00    +0.029 C 
ATOM     20  C16 UNL     1      16.809  28.178  22.092  0.00  0.00    +0.220 C 
ATOM     21  O3  UNL     1      16.792  28.787  23.159  0.00  0.00    -0.275 OA
ATOM     22  N2  UNL     1      15.748  28.151  21.226  0.00  0.00    -0.271 N 
ATOM     23  C17 UNL     1      14.470  28.850  21.363  0.00  0.00    +0.024 C 
ATOM     24  C18 UNL     1      13.700  28.605  20.042  0.00  0.00    -0.010 C 
ATOM     25  H   UNL     1      16.561  25.643  14.528  0.00  0.00    +0.000 HD
ENDROOT
TORSDOF 0
ENDMDL
MODEL 3
REMARK VINA RESULT:    -4.684      2.773      6.364
REMARK INTER + INTRA:          -4.684
REMARK INTER:                  -4.684
REMARK INTRA:                   0.000
REMARK UNBOUND:                 0.000
REMARK  Name = /home/vital/Documents/PhD_2021/Malaria_codes/scripts/../data/pdbqt_ligands/ligand_78_temp.pdb
REMARK                            x       y       z     vdW  Elec       q    Type
REMARK                         _______ _______ _______ _____ _____    ______ ____
ROOT
ATOM      1  C1  UNL     1      16.576  26.909  19.936  0.00  0.00    -0.038 C 
ATOM      2  C2  UNL     1      17.865  26.229  19.568  0.00  0.00    -0.028 A 
ATOM      3  C3  UNL     1      19.069  26.948  19.668  0.00  0.00    -0.057 A 
ATOM      4  C4  UNL     1      20.288  26.350  19.348  0.00  0.00    -0.061 A 
ATOM      5  C5  UNL     1      20.322  25.023  18.931  0.00  0.00    -0.060 A 
ATOM      6  C6  UNL     1      19.137  24.297  18.829  0.00  0.00    -0.039 A 
ATOM      7  C7  UNL     1      17.911  24.892  19.136  0.00  0.00    +0.051 A 
ATOM      8  N1  UNL     1      16.709  24.140  18.993  0.00  0.00    -0.216 N 
ATOM      9  S1  UNL     1      16.235  23.578  17.475  0.00  0.00    +0.072 S 
ATOM     10  O1  UNL     1      17.250  22.700  16.936  0.00  0.00    -0.150 OA
ATOM     11  O2  UNL     1      14.866  23.131  17.628  0.00  0.00    -0.150 OA
ATOM     12  C8  UNL     1      16.204  25.059  16.482  0.00  0.00    +0.109 A 
ATOM     13  C9  UNL     1      17.360  25.428  15.767  0.00  0.00    -0.030 A 
ATOM     14  C10 UNL     1      17.301  26.571  14.996  0.00  0.00    -0.022 A 
ATOM     15  C11 UNL     1      16.126  27.306  14.958  0.00  0.00    +0.043 A 
ATOM     16  C12 UNL     1      14.964  26.958  15.616  0.00  0.00    -0.023 A 
ATOM     17  C13 UNL     1      15.001  25.798  16.388  0.00  0.00    -0.030 A 
ATOM     18  C14 UNL     1      13.740  27.777  15.344  0.00  0.00    -0.018 C 
ATOM     19  C15 UNL     1      14.091  29.215  14.947  0.00  0.00    +0.029 C 
ATOM     20  C16 UNL     1      15.252  29.335  13.964  0.00  0.00    +0.220 C 
ATOM     21  O3  UNL     1      15.323  30.258  13.156  0.00  0.00    -0.275 OA
ATOM     22  N2  UNL     1      16.248  28.410  14.136  0.00  0.00    -0.271 N 
ATOM     23  C17 UNL     1      17.550  28.370  13.469  0.00  0.00    +0.024 C 
ATOM     24  C18 UNL     1      18.344  27.222  14.140  0.00  0.00    -0.010 C 
ATOM     25  H   UNL     1      16.154  23.947  19.783  0.00  0.00    +0.000 HD
ENDROOT
TORSDOF 0
ENDMDL
MODEL 4
REMARK VINA RESULT:    -4.470      2.877      4.326
REMARK INTER + INTRA:          -4.470
REMARK INTER:                  -4.470
REMARK INTRA:                   0.000
REMARK UNBOUND:                 0.000
REMARK  Name = /home/vital/Documents/PhD_2021/Malaria_codes/scripts/../data/pdbqt_ligands/ligand_78_temp.pdb
REMARK                            x       y       z     vdW  Elec       q    Type
REMARK                         _______ _______ _______ _____ _____    ______ ____
ROOT
ATOM      1  C1  UNL     1      18.650  28.955  13.180  0.00  0.00    -0.038 C 
ATOM      2  C2  UNL     1      19.004  29.915  14.280  0.00  0.00    -0.028 A 
ATOM      3  C3  UNL     1      20.018  29.566  15.190  0.00  0.00    -0.057 A 
ATOM      4  C4  UNL     1      20.385  30.435  16.219  0.00  0.00    -0.061 A 
ATOM      5  C5  UNL     1      19.750  31.666  16.348  0.00  0.00    -0.060 A 
ATOM      6  C6  UNL     1      18.745  32.026  15.452  0.00  0.00    -0.039 A 
ATOM      7  C7  UNL     1      18.363  31.157  14.427  0.00  0.00    +0.051 A 
ATOM      8  N1  UNL     1      17.311  31.534  13.543  0.00  0.00    -0.216 N 
ATOM      9  S1  UNL     1      15.749  31.773  14.136  0.00  0.00    +0.072 S 
ATOM     10  O1  UNL     1      15.755  32.829  15.125  0.00  0.00    -0.150 OA
ATOM     11  O2  UNL     1      14.890  31.845  12.972  0.00  0.00    -0.150 OA
ATOM     12  C8  UNL     1      15.389  30.239  14.971  0.00  0.00    +0.109 A 
ATOM     13  C9  UNL     1      15.681  30.122  16.344  0.00  0.00    -0.030 A 
ATOM     14  C10 UNL     1      15.377  28.927  16.965  0.00  0.00    -0.022 A 
ATOM     15  C11 UNL     1      14.810  27.901  16.225  0.00  0.00    +0.043 A 
ATOM     16  C12 UNL     1      14.478  27.990  14.889  0.00  0.00    -0.023 A 
ATOM     17  C13 UNL     1      14.765  29.194  14.249  0.00  0.00    -0.030 A 
ATOM     18  C14 UNL     1      13.730  26.844  14.281  0.00  0.00    -0.018 C 
ATOM     19  C15 UNL     1      14.035  25.520  14.992  0.00  0.00    +0.029 C 
ATOM     20  C16 UNL     1      14.067  25.613  16.515  0.00  0.00    +0.220 C 
ATOM     21  O3  UNL     1      13.760  24.660  17.228  0.00  0.00    -0.275 OA
ATOM     22  N2  UNL     1      14.572  26.787  17.009  0.00  0.00    -0.271 N 
ATOM     23  C17 UNL     1      14.882  27.105  18.403  0.00  0.00    +0.024 C 
ATOM     24  C18 UNL     1      15.570  28.493  18.387  0.00  0.00    -0.010 C 
ATOM     25  H   UNL     1      17.495  31.654  12.584  0.00  0.00    +0.000 HD
ENDROOT
TORSDOF 0
ENDMDL
MODEL 5
REMARK VINA RESULT:    -4.448      3.303      4.662
REMARK INTER + INTRA:          -4.448
REMARK INTER:                  -4.448
REMARK INTRA:                   0.000
REMARK UNBOUND:                 0.000
REMARK  Name = /home/vital/Documents/PhD_2021/Malaria_codes/scripts/../data/pdbqt_ligands/ligand_78_temp.pdb
REMARK                            x       y       z     vdW  Elec       q    Type
REMARK                         _______ _______ _______ _____ _____    ______ ____
ROOT
ATOM      1  C1  UNL     1      18.233  28.172  15.347  0.00  0.00    -0.038 C 
ATOM      2  C2  UNL     1      16.890  28.705  14.934  0.00  0.00    -0.028 A 
ATOM      3  C3  UNL     1      16.664  30.092  14.977  0.00  0.00    -0.057 A 
ATOM      4  C4  UNL     1      15.435  30.628  14.590  0.00  0.00    -0.061 A 
ATOM      5  C5  UNL     1      14.418  29.788  14.149  0.00  0.00    -0.060 A 
ATOM      6  C6  UNL     1      14.628  28.410  14.100  0.00  0.00    -0.039 A 
ATOM      7  C7  UNL     1      15.851  27.864  14.497  0.00  0.00    +0.051 A 
ATOM      8  N1  UNL     1      16.032  26.451  14.468  0.00  0.00    -0.216 N 
ATOM      9  S1  UNL     1      15.089  25.456  15.451  0.00  0.00    +0.072 S 
ATOM     10  O1  UNL     1      13.690  25.625  15.125  0.00  0.00    -0.150 OA
ATOM     11  O2  UNL     1      15.714  24.149  15.407  0.00  0.00    -0.150 OA
ATOM     12  C8  UNL     1      15.358  26.120  17.084  0.00  0.00    +0.109 A 
ATOM     13  C9  UNL     1      14.480  27.105  17.576  0.00  0.00    -0.030 A 
ATOM     14  C10 UNL     1      14.706  27.588  18.849  0.00  0.00    -0.022 A 
ATOM     15  C11 UNL     1      15.775  27.099  19.583  0.00  0.00    +0.043 A 
ATOM     16  C12 UNL     1      16.635  26.111  19.150  0.00  0.00    -0.023 A 
ATOM     17  C13 UNL     1      16.413  25.600  17.872  0.00  0.00    -0.030 A 
ATOM     18  C14 UNL     1      17.641  25.588  20.127  0.00  0.00    -0.018 C 
ATOM     19  C15 UNL     1      18.019  26.639  21.177  0.00  0.00    +0.029 C 
ATOM     20  C16 UNL     1      16.838  27.429  21.735  0.00  0.00    +0.220 C 
ATOM     21  O3  UNL     1      16.842  27.877  22.879  0.00  0.00    -0.275 OA
ATOM     22  N2  UNL     1      15.844  27.692  20.830  0.00  0.00    -0.271 N 
ATOM     23  C17 UNL     1      14.679  28.558  21.015  0.00  0.00    +0.024 C 
ATOM     24  C18 UNL     1      13.969  28.626  19.640  0.00  0.00    -0.010 C 
ATOM     25  H   UNL     1      16.709  26.055  13.874  0.00  0.00    +0.000 HD
ENDROOT
TORSDOF 0
ENDMDL
MODEL 6
REMARK VINA RESULT:    -4.364      3.871      6.550
REMARK INTER + INTRA:          -4.364
REMARK INTER:                  -4.364
REMARK INTRA:                   0.000
REMARK UNBOUND:                 0.000
REMARK  Name = /home/vital/Documents/PhD_2021/Malaria_codes/scripts/../data/pdbqt_ligands/ligand_78_temp.pdb
REMARK                            x       y       z     vdW  Elec       q    Type
REMARK                         _______ _______ _______ _____ _____    ______ ____
ROOT
ATOM      1  C1  UNL     1      20.130  27.123  18.037  0.00  0.00    -0.038 C 
ATOM      2  C2  UNL     1      20.348  25.643  18.169  0.00  0.00    -0.028 A 
ATOM      3  C3  UNL     1      21.014  24.956  17.139  0.00  0.00    -0.057 A 
ATOM      4  C4  UNL     1      21.246  23.583  17.228  0.00  0.00    -0.061 A 
ATOM      5  C5  UNL     1      20.823  22.878  18.350  0.00  0.00    -0.060 A 
ATOM      6  C6  UNL     1      20.162  23.545  19.380  0.00  0.00    -0.039 A 
ATOM      7  C7  UNL     1      19.915  24.918  19.293  0.00  0.00    +0.051 A 
ATOM      8  N1  UNL     1      19.209  25.573  20.344  0.00  0.00    -0.216 N 
ATOM      9  S1  UNL     1      17.613  25.147  20.688  0.00  0.00    +0.072 S 
ATOM     10  O1  UNL     1      17.545  23.749  21.053  0.00  0.00    -0.150 OA
ATOM     11  O2  UNL     1      17.111  26.176  21.575  0.00  0.00    -0.150 OA
ATOM     12  C8  UNL     1      16.789  25.347  19.119  0.00  0.00    +0.109 A 
ATOM     13  C9  UNL     1      16.690  24.241  18.252  0.00  0.00    -0.030 A 
ATOM     14  C10 UNL     1      16.033  24.424  17.052  0.00  0.00    -0.022 A 
ATOM     15  C11 UNL     1      15.509  25.670  16.746  0.00  0.00    +0.043 A 
ATOM     16  C12 UNL     1      15.556  26.766  17.583  0.00  0.00    -0.023 A 
ATOM     17  C13 UNL     1      16.202  26.596  18.806  0.00  0.00    -0.030 A 
ATOM     18  C14 UNL     1      14.805  27.992  17.165  0.00  0.00    -0.018 C 
ATOM     19  C15 UNL     1      14.682  28.095  15.640  0.00  0.00    +0.029 C 
ATOM     20  C16 UNL     1      14.333  26.782  14.944  0.00  0.00    +0.220 C 
ATOM     21  O3  UNL     1      13.691  26.757  13.895  0.00  0.00    -0.275 OA
ATOM     22  N2  UNL     1      14.887  25.666  15.511  0.00  0.00    -0.271 N 
ATOM     23  C17 UNL     1      14.876  24.301  14.984  0.00  0.00    +0.024 C 
ATOM     24  C18 UNL     1      15.773  23.464  15.930  0.00  0.00    -0.010 C 
ATOM     25  H   UNL     1      19.654  26.275  20.871  0.00  0.00    +0.000 HD
ENDROOT
TORSDOF 0
ENDMDL
MODEL 7
REMARK VINA RESULT:    -4.356      3.190      4.797
REMARK INTER + INTRA:          -4.356
REMARK INTER:                  -4.356
REMARK INTRA:                   0.000
REMARK UNBOUND:                 0.000
REMARK  Name = /home/vital/Documents/PhD_2021/Malaria_codes/scripts/../data/pdbqt_ligands/ligand_78_temp.pdb
REMARK                            x       y       z     vdW  Elec       q    Type
REMARK                         _______ _______ _______ _____ _____    ______ ____
ROOT
ATOM      1  C1  UNL     1      14.620  25.597  14.267  0.00  0.00    -0.038 C 
ATOM      2  C2  UNL     1      14.914  27.070  14.251  0.00  0.00    -0.028 A 
ATOM      3  C3  UNL     1      15.622  27.613  13.165  0.00  0.00    -0.057 A 
ATOM      4  C4  UNL     1      15.904  28.978  13.106  0.00  0.00    -0.061 A 
ATOM      5  C5  UNL     1      15.477  29.821  14.127  0.00  0.00    -0.060 A 
ATOM      6  C6  UNL     1      14.772  29.297  15.209  0.00  0.00    -0.039 A 
ATOM      7  C7  UNL     1      14.496  27.930  15.282  0.00  0.00    +0.051 A 
ATOM      8  N1  UNL     1      13.801  27.412  16.414  0.00  0.00    -0.216 N 
ATOM      9  S1  UNL     1      14.489  27.516  17.951  0.00  0.00    +0.072 S 
ATOM     10  O1  UNL     1      14.715  28.902  18.296  0.00  0.00    -0.150 OA
ATOM     11  O2  UNL     1      13.692  26.655  18.800  0.00  0.00    -0.150 OA
ATOM     12  C8  UNL     1      16.078  26.734  17.741  0.00  0.00    +0.109 A 
ATOM     13  C9  UNL     1      17.192  27.528  17.404  0.00  0.00    -0.030 A 
ATOM     14  C10 UNL     1      18.412  26.896  17.264  0.00  0.00    -0.022 A 
ATOM     15  C11 UNL     1      18.492  25.525  17.451  0.00  0.00    +0.043 A 
ATOM     16  C12 UNL     1      17.433  24.721  17.814  0.00  0.00    -0.023 A 
ATOM     17  C13 UNL     1      16.196  25.344  17.975  0.00  0.00    -0.030 A 
ATOM     18  C14 UNL     1      17.725  23.286  18.127  0.00  0.00    -0.018 C 
ATOM     19  C15 UNL     1      18.955  22.774  17.369  0.00  0.00    +0.029 C 
ATOM     20  C16 UNL     1      20.133  23.745  17.347  0.00  0.00    +0.220 C 
ATOM     21  O3  UNL     1      21.296  23.351  17.292  0.00  0.00    -0.275 OA
ATOM     22  N2  UNL     1      19.785  25.068  17.274  0.00  0.00    -0.271 N 
ATOM     23  C17 UNL     1      20.675  26.212  17.071  0.00  0.00    +0.024 C 
ATOM     24  C18 UNL     1      19.758  27.450  16.909  0.00  0.00    -0.010 C 
ATOM     25  H   UNL     1      12.918  26.993  16.299  0.00  0.00    +0.000 HD
ENDROOT
TORSDOF 0
ENDMDL
MODEL 8
REMARK VINA RESULT:    -4.290      2.397      6.370
REMARK INTER + INTRA:          -4.290
REMARK INTER:                  -4.290
REMARK INTRA:                   0.000
REMARK UNBOUND:                 0.000
REMARK  Name = /home/vital/Documents/PhD_2021/Malaria_codes/scripts/../data/pdbqt_ligands/ligand_78_temp.pdb
REMARK                            x       y       z     vdW  Elec       q    Type
REMARK                         _______ _______ _______ _____ _____    ______ ____
ROOT
ATOM      1  C1  UNL     1      15.587  27.908  19.276  0.00  0.00    -0.038 C 
ATOM      2  C2  UNL     1      16.749  26.965  19.141  0.00  0.00    -0.028 A 
ATOM      3  C3  UNL     1      18.022  27.386  19.564  0.00  0.00    -0.057 A 
ATOM      4  C4  UNL     1      19.125  26.537  19.467  0.00  0.00    -0.061 A 
ATOM      5  C5  UNL     1      18.971  25.253  18.953  0.00  0.00    -0.060 A 
ATOM      6  C6  UNL     1      17.714  24.821  18.532  0.00  0.00    -0.039 A 
ATOM      7  C7  UNL     1      16.607  25.669  18.614  0.00  0.00    +0.051 A 
ATOM      8  N1  UNL     1      15.339  25.217  18.148  0.00  0.00    -0.216 N 
ATOM      9  S1  UNL     1      15.122  24.833  16.519  0.00  0.00    +0.072 S 
ATOM     10  O1  UNL     1      16.023  23.767  16.141  0.00  0.00    -0.150 OA
ATOM     11  O2  UNL     1      13.692  24.705  16.329  0.00  0.00    -0.150 OA
ATOM     12  C8  UNL     1      15.641  26.317  15.677  0.00  0.00    +0.109 A 
ATOM     13  C9  UNL     1      16.983  26.437  15.267  0.00  0.00    -0.030 A 
ATOM     14  C10 UNL     1      17.350  27.591  14.604  0.00  0.00    -0.022 A 
ATOM     15  C11 UNL     1      16.402  28.576  14.375  0.00  0.00    +0.043 A 
ATOM     16  C12 UNL     1      15.072  28.479  14.730  0.00  0.00    -0.023 A 
ATOM     17  C13 UNL     1      14.680  27.314  15.387  0.00  0.00    -0.030 A 
ATOM     18  C14 UNL     1      14.149  29.565  14.270  0.00  0.00    -0.018 C 
ATOM     19  C15 UNL     1      14.882  30.899  14.086  0.00  0.00    +0.029 C 
ATOM     20  C16 UNL     1      16.239  30.785  13.395  0.00  0.00    +0.220 C 
ATOM     21  O3  UNL     1      16.692  31.697  12.705  0.00  0.00    -0.275 OA
ATOM     22  N2  UNL     1      16.945  29.652  13.699  0.00  0.00    -0.271 N 
ATOM     23  C17 UNL     1      18.327  29.340  13.332  0.00  0.00    +0.024 C 
ATOM     24  C18 UNL     1      18.679  28.018  14.057  0.00  0.00    -0.010 C 
ATOM     25  H   UNL     1      14.587  25.128  18.777  0.00  0.00    +0.000 HD
ENDROOT
TORSDOF 0
ENDMDL
MODEL 9
REMARK VINA RESULT:    -3.277      2.737      3.734
REMARK INTER + INTRA:          -3.277
REMARK INTER:                  -3.277
REMARK INTRA:                   0.000
REMARK UNBOUND:                 0.000
REMARK  Name = /home/vital/Documents/PhD_2021/Malaria_codes/scripts/../data/pdbqt_ligands/ligand_78_temp.pdb
REMARK                            x       y       z     vdW  Elec       q    Type
REMARK                         _______ _______ _______ _____ _____    ______ ____
ROOT
ATOM      1  C1  UNL     1      14.702  28.441  17.477  0.00  0.00    -0.038 C 
ATOM      2  C2  UNL     1      14.742  27.726  16.157  0.00  0.00    -0.028 A 
ATOM      3  C3  UNL     1      13.697  26.846  15.825  0.00  0.00    -0.057 A 
ATOM      4  C4  UNL     1      13.690  26.171  14.604  0.00  0.00    -0.061 A 
ATOM      5  C5  UNL     1      14.723  26.371  13.694  0.00  0.00    -0.060 A 
ATOM      6  C6  UNL     1      15.766  27.241  14.008  0.00  0.00    -0.039 A 
ATOM      7  C7  UNL     1      15.786  27.911  15.234  0.00  0.00    +0.051 A 
ATOM      8  N1  UNL     1      16.879  28.772  15.546  0.00  0.00    -0.216 N 
ATOM      9  S1  UNL     1      18.439  28.145  15.683  0.00  0.00    +0.072 S 
ATOM     10  O1  UNL     1      18.835  27.533  14.434  0.00  0.00    -0.150 OA
ATOM     11  O2  UNL     1      19.235  29.193  16.287  0.00  0.00    -0.150 OA
ATOM     12  C8  UNL     1      18.255  26.850  16.896  0.00  0.00    +0.109 A 
ATOM     13  C9  UNL     1      17.979  25.539  16.461  0.00  0.00    -0.030 A 
ATOM     14  C10 UNL     1      17.856  24.556  17.422  0.00  0.00    -0.022 A 
ATOM     15  C11 UNL     1      18.002  24.891  18.760  0.00  0.00    +0.043 A 
ATOM     16  C12 UNL     1      18.306  26.155  19.221  0.00  0.00    -0.023 A 
ATOM     17  C13 UNL     1      18.448  27.157  18.263  0.00  0.00    -0.030 A 
ATOM     18  C14 UNL     1      18.582  26.312  20.685  0.00  0.00    -0.018 C 
ATOM     19  C15 UNL     1      17.848  25.259  21.522  0.00  0.00    +0.029 C 
ATOM     20  C16 UNL     1      17.893  23.847  20.943  0.00  0.00    +0.220 C 
ATOM     21  O3  UNL     1      17.862  22.851  21.663  0.00  0.00    -0.275 OA
ATOM     22  N2  UNL     1      17.851  23.785  19.575  0.00  0.00    -0.271 N 
ATOM     23  C17 UNL     1      17.713  22.590  18.743  0.00  0.00    +0.024 C 
ATOM     24  C18 UNL     1      17.562  23.093  17.285  0.00  0.00    -0.010 C 
ATOM     25  H   UNL     1      16.723  29.734  15.682  0.00  0.00    +0.000 HD
ENDROOT
TORSDOF 0
ENDMDL
