MODEL 1
REMARK VINA RESULT:    -4.371      0.000      0.000
REMARK INTER + INTRA:          -4.371
REMARK INTER:                  -4.371
REMARK INTRA:                   0.000
REMARK UNBOUND:                 0.000
REMARK  Name = /home/vital/Documents/PhD_2021/Malaria_codes/scripts/../data/pdbqt_ligands/ligand_453_temp.pdb
REMARK                            x       y       z     vdW  Elec       q    Type
REMARK                         _______ _______ _______ _____ _____    ______ ____
ROOT
ATOM      1  C1  UNL     1      18.215  28.951  14.579  0.00  0.00    -0.002 C 
ATOM      2  C2  UNL     1      17.495  27.630  14.379  0.00  0.00    +0.154 C 
ATOM      3  O1  UNL     1      18.060  26.557  14.549  0.00  0.00    -0.293 OA
ATOM      4  C3  UNL     1      16.041  27.658  14.078  0.00  0.00    -0.003 C 
ATOM      5  C4  UNL     1      15.185  26.760  14.630  0.00  0.00    +0.011 C 
ATOM      6  C5  UNL     1      13.706  26.848  14.346  0.00  0.00    -0.026 C 
ATOM      7  N1  UNL     1      15.655  25.763  15.483  0.00  0.00    -0.287 N 
ATOM      8  C6  UNL     1      14.926  24.894  16.281  0.00  0.00    +0.246 C 
ATOM      9  O2  UNL     1      13.701  24.767  16.274  0.00  0.00    -0.273 OA
ATOM     10  C7  UNL     1      15.786  24.066  17.253  0.00  0.00    +0.135 C 
ATOM     11  O3  UNL     1      14.955  23.117  17.922  0.00  0.00    -0.382 OA
ATOM     12  C8  UNL     1      16.440  24.978  18.295  0.00  0.00    +0.009 C 
ATOM     13  C9  UNL     1      17.655  24.386  18.945  0.00  0.00    -0.019 A 
ATOM     14  C10 UNL     1      17.700  23.749  20.164  0.00  0.00    +0.006 A 
ATOM     15  N2  UNL     1      18.986  23.379  20.421  0.00  0.00    -0.360 N 
ATOM     16  C11 UNL     1      19.801  23.766  19.391  0.00  0.00    +0.047 A 
ATOM     17  C12 UNL     1      21.178  23.611  19.220  0.00  0.00    -0.038 A 
ATOM     18  C13 UNL     1      21.751  24.125  18.054  0.00  0.00    -0.060 A 
ATOM     19  C14 UNL     1      20.971  24.760  17.095  0.00  0.00    -0.061 A 
ATOM     20  C15 UNL     1      19.598  24.902  17.280  0.00  0.00    -0.052 A 
ATOM     21  C16 UNL     1      18.994  24.402  18.447  0.00  0.00    +0.003 A 
ATOM     22  H   UNL     1      16.633  25.661  15.524  0.00  0.00    +0.000 HD
ATOM     23  H   UNL     1      14.267  23.585  18.421  0.00  0.00    +0.000 HD
ATOM     24  H   UNL     1      19.286  22.903  21.230  0.00  0.00    +0.000 HD
ENDROOT
TORSDOF 0
ENDMDL
MODEL 2
REMARK VINA RESULT:    -4.336      2.036      6.037
REMARK INTER + INTRA:          -4.336
REMARK INTER:                  -4.336
REMARK INTRA:                   0.000
REMARK UNBOUND:                 0.000
REMARK  Name = /home/vital/Documents/PhD_2021/Malaria_codes/scripts/../data/pdbqt_ligands/ligand_453_temp.pdb
REMARK                            x       y       z     vdW  Elec       q    Type
REMARK                         _______ _______ _______ _____ _____    ______ ____
ROOT
ATOM      1  C1  UNL     1      20.951  27.924  17.423  0.00  0.00    -0.002 C 
ATOM      2  C2  UNL     1      19.985  27.204  18.345  0.00  0.00    +0.154 C 
ATOM      3  O1  UNL     1      18.818  27.557  18.458  0.00  0.00    -0.293 OA
ATOM      4  C3  UNL     1      20.453  25.974  19.034  0.00  0.00    -0.003 C 
ATOM      5  C4  UNL     1      19.647  24.891  19.178  0.00  0.00    +0.011 C 
ATOM      6  C5  UNL     1      20.169  23.638  19.836  0.00  0.00    -0.026 C 
ATOM      7  N1  UNL     1      18.338  24.912  18.699  0.00  0.00    -0.287 N 
ATOM      8  C6  UNL     1      17.445  23.857  18.580  0.00  0.00    +0.246 C 
ATOM      9  O2  UNL     1      17.618  22.716  19.009  0.00  0.00    -0.273 OA
ATOM     10  C7  UNL     1      16.158  24.212  17.812  0.00  0.00    +0.135 C 
ATOM     11  O3  UNL     1      15.260  23.103  17.867  0.00  0.00    -0.382 OA
ATOM     12  C8  UNL     1      16.480  24.520  16.347  0.00  0.00    +0.009 C 
ATOM     13  C9  UNL     1      15.435  25.343  15.655  0.00  0.00    -0.019 A 
ATOM     14  C10 UNL     1      14.428  24.872  14.844  0.00  0.00    +0.006 A 
ATOM     15  N2  UNL     1      13.703  25.928  14.380  0.00  0.00    -0.360 N 
ATOM     16  C11 UNL     1      14.217  27.100  14.868  0.00  0.00    +0.047 A 
ATOM     17  C12 UNL     1      13.813  28.421  14.660  0.00  0.00    -0.038 A 
ATOM     18  C13 UNL     1      14.545  29.432  15.287  0.00  0.00    -0.060 A 
ATOM     19  C14 UNL     1      15.633  29.128  16.097  0.00  0.00    -0.061 A 
ATOM     20  C15 UNL     1      16.020  27.805  16.297  0.00  0.00    -0.052 A 
ATOM     21  C16 UNL     1      15.307  26.767  15.673  0.00  0.00    +0.003 A 
ATOM     22  H   UNL     1      18.003  25.790  18.408  0.00  0.00    +0.000 HD
ATOM     23  H   UNL     1      15.676  22.328  17.457  0.00  0.00    +0.000 HD
ATOM     24  H   UNL     1      12.924  25.859  13.782  0.00  0.00    +0.000 HD
ENDROOT
TORSDOF 0
ENDMDL
MODEL 3
REMARK VINA RESULT:    -4.079      3.986      6.217
REMARK INTER + INTRA:          -4.079
REMARK INTER:                  -4.079
REMARK INTRA:                   0.000
REMARK UNBOUND:                 0.000
REMARK  Name = /home/vital/Documents/PhD_2021/Malaria_codes/scripts/../data/pdbqt_ligands/ligand_453_temp.pdb
REMARK                            x       y       z     vdW  Elec       q    Type
REMARK                         _______ _______ _______ _____ _____    ______ ____
ROOT
ATOM      1  C1  UNL     1      14.801  31.243  19.544  0.00  0.00    -0.002 C 
ATOM      2  C2  UNL     1      15.681  31.231  18.307  0.00  0.00    +0.154 C 
ATOM      3  O1  UNL     1      16.339  30.247  17.995  0.00  0.00    -0.293 OA
ATOM      4  C3  UNL     1      15.643  32.410  17.405  0.00  0.00    -0.003 C 
ATOM      5  C4  UNL     1      15.665  32.271  16.054  0.00  0.00    +0.011 C 
ATOM      6  C5  UNL     1      15.573  33.485  15.164  0.00  0.00    -0.026 C 
ATOM      7  N1  UNL     1      15.750  31.007  15.472  0.00  0.00    -0.287 N 
ATOM      8  C6  UNL     1      15.590  30.658  14.140  0.00  0.00    +0.246 C 
ATOM      9  O2  UNL     1      15.472  31.444  13.199  0.00  0.00    -0.273 OA
ATOM     10  C7  UNL     1      15.542  29.138  13.893  0.00  0.00    +0.135 C 
ATOM     11  O3  UNL     1      15.514  28.893  12.487  0.00  0.00    -0.382 OA
ATOM     12  C8  UNL     1      14.287  28.535  14.529  0.00  0.00    +0.009 C 
ATOM     13  C9  UNL     1      14.386  27.063  14.793  0.00  0.00    -0.019 A 
ATOM     14  C10 UNL     1      13.894  26.055  13.996  0.00  0.00    +0.006 A 
ATOM     15  N2  UNL     1      14.155  24.856  14.588  0.00  0.00    -0.360 N 
ATOM     16  C11 UNL     1      14.812  25.051  15.774  0.00  0.00    +0.047 A 
ATOM     17  C12 UNL     1      15.270  24.129  16.717  0.00  0.00    -0.038 A 
ATOM     18  C13 UNL     1      15.906  24.624  17.857  0.00  0.00    -0.060 A 
ATOM     19  C14 UNL     1      16.083  25.991  18.039  0.00  0.00    -0.061 A 
ATOM     20  C15 UNL     1      15.623  26.897  17.086  0.00  0.00    -0.052 A 
ATOM     21  C16 UNL     1      14.973  26.428  15.932  0.00  0.00    +0.003 A 
ATOM     22  H   UNL     1      15.948  30.265  16.088  0.00  0.00    +0.000 HD
ATOM     23  H   UNL     1      14.725  29.307  12.102  0.00  0.00    +0.000 HD
ATOM     24  H   UNL     1      13.908  23.977  14.218  0.00  0.00    +0.000 HD
ENDROOT
TORSDOF 0
ENDMDL
MODEL 4
REMARK VINA RESULT:    -4.069      4.858      7.059
REMARK INTER + INTRA:          -4.069
REMARK INTER:                  -4.069
REMARK INTRA:                   0.000
REMARK UNBOUND:                 0.000
REMARK  Name = /home/vital/Documents/PhD_2021/Malaria_codes/scripts/../data/pdbqt_ligands/ligand_453_temp.pdb
REMARK                            x       y       z     vdW  Elec       q    Type
REMARK                         _______ _______ _______ _____ _____    ______ ____
ROOT
ATOM      1  C1  UNL     1      14.692  33.531  18.352  0.00  0.00    -0.002 C 
ATOM      2  C2  UNL     1      15.762  33.037  17.397  0.00  0.00    +0.154 C 
ATOM      3  O1  UNL     1      16.254  31.921  17.503  0.00  0.00    -0.293 OA
ATOM      4  C3  UNL     1      16.129  33.898  16.244  0.00  0.00    -0.003 C 
ATOM      5  C4  UNL     1      16.370  33.373  15.015  0.00  0.00    +0.011 C 
ATOM      6  C5  UNL     1      16.689  34.279  13.852  0.00  0.00    -0.026 C 
ATOM      7  N1  UNL     1      16.303  31.996  14.805  0.00  0.00    -0.287 N 
ATOM      8  C6  UNL     1      16.323  31.304  13.604  0.00  0.00    +0.246 C 
ATOM      9  O2  UNL     1      16.540  31.793  12.495  0.00  0.00    -0.273 OA
ATOM     10  C7  UNL     1      16.015  29.801  13.743  0.00  0.00    +0.135 C 
ATOM     11  O3  UNL     1      16.197  29.167  12.477  0.00  0.00    -0.382 OA
ATOM     12  C8  UNL     1      14.570  29.594  14.202  0.00  0.00    +0.009 C 
ATOM     13  C9  UNL     1      14.320  28.262  14.844  0.00  0.00    -0.019 A 
ATOM     14  C10 UNL     1      13.789  27.148  14.234  0.00  0.00    +0.006 A 
ATOM     15  N2  UNL     1      13.690  26.147  15.153  0.00  0.00    -0.360 N 
ATOM     16  C11 UNL     1      14.145  26.580  16.370  0.00  0.00    +0.047 A 
ATOM     17  C12 UNL     1      14.227  25.913  17.594  0.00  0.00    -0.038 A 
ATOM     18  C13 UNL     1      14.730  26.621  18.689  0.00  0.00    -0.060 A 
ATOM     19  C14 UNL     1      15.141  27.941  18.557  0.00  0.00    -0.061 A 
ATOM     20  C15 UNL     1      15.056  28.590  17.327  0.00  0.00    -0.052 A 
ATOM     21  C16 UNL     1      14.548  27.905  16.209  0.00  0.00    +0.003 A 
ATOM     22  H   UNL     1      16.231  31.443  15.616  0.00  0.00    +0.000 HD
ATOM     23  H   UNL     1      15.592  29.560  11.829  0.00  0.00    +0.000 HD
ATOM     24  H   UNL     1      13.343  25.244  14.969  0.00  0.00    +0.000 HD
ENDROOT
TORSDOF 0
ENDMDL
MODEL 5
REMARK VINA RESULT:    -3.870      2.621      6.482
REMARK INTER + INTRA:          -3.870
REMARK INTER:                  -3.870
REMARK INTRA:                   0.000
REMARK UNBOUND:                 0.000
REMARK  Name = /home/vital/Documents/PhD_2021/Malaria_codes/scripts/../data/pdbqt_ligands/ligand_453_temp.pdb
REMARK                            x       y       z     vdW  Elec       q    Type
REMARK                         _______ _______ _______ _____ _____    ______ ____
ROOT
ATOM      1  C1  UNL     1      19.089  26.592  19.711  0.00  0.00    -0.002 C 
ATOM      2  C2  UNL     1      17.684  26.100  19.414  0.00  0.00    +0.154 C 
ATOM      3  O1  UNL     1      16.757  26.877  19.221  0.00  0.00    -0.293 OA
ATOM      4  C3  UNL     1      17.470  24.640  19.246  0.00  0.00    -0.003 C 
ATOM      5  C4  UNL     1      16.639  24.151  18.289  0.00  0.00    +0.011 C 
ATOM      6  C5  UNL     1      16.483  22.662  18.109  0.00  0.00    -0.026 C 
ATOM      7  N1  UNL     1      15.940  25.014  17.447  0.00  0.00    -0.287 N 
ATOM      8  C6  UNL     1      15.212  24.707  16.307  0.00  0.00    +0.246 C 
ATOM      9  O2  UNL     1      14.945  23.573  15.907  0.00  0.00    -0.273 OA
ATOM     10  C7  UNL     1      14.750  25.940  15.509  0.00  0.00    +0.135 C 
ATOM     11  O3  UNL     1      13.901  25.516  14.442  0.00  0.00    -0.382 OA
ATOM     12  C8  UNL     1      15.956  26.679  14.924  0.00  0.00    +0.009 C 
ATOM     13  C9  UNL     1      15.685  28.113  14.582  0.00  0.00    -0.019 A 
ATOM     14  C10 UNL     1      15.372  28.611  13.338  0.00  0.00    +0.006 A 
ATOM     15  N2  UNL     1      15.227  29.963  13.427  0.00  0.00    -0.360 N 
ATOM     16  C11 UNL     1      15.445  30.374  14.715  0.00  0.00    +0.047 A 
ATOM     17  C12 UNL     1      15.415  31.654  15.273  0.00  0.00    -0.038 A 
ATOM     18  C13 UNL     1      15.693  31.777  16.636  0.00  0.00    -0.060 A 
ATOM     19  C14 UNL     1      15.982  30.659  17.409  0.00  0.00    -0.061 A 
ATOM     20  C15 UNL     1      16.004  29.389  16.837  0.00  0.00    -0.052 A 
ATOM     21  C16 UNL     1      15.735  29.235  15.466  0.00  0.00    +0.003 A 
ATOM     22  H   UNL     1      15.965  25.966  17.694  0.00  0.00    +0.000 HD
ATOM     23  H   UNL     1      14.393  24.920  13.855  0.00  0.00    +0.000 HD
ATOM     24  H   UNL     1      15.000  30.558  12.675  0.00  0.00    +0.000 HD
ENDROOT
TORSDOF 0
ENDMDL
MODEL 6
REMARK VINA RESULT:    -3.813      4.220      6.679
REMARK INTER + INTRA:          -3.813
REMARK INTER:                  -3.813
REMARK INTRA:                   0.000
REMARK UNBOUND:                 0.000
REMARK  Name = /home/vital/Documents/PhD_2021/Malaria_codes/scripts/../data/pdbqt_ligands/ligand_453_temp.pdb
REMARK                            x       y       z     vdW  Elec       q    Type
REMARK                         _______ _______ _______ _____ _____    ______ ____
ROOT
ATOM      1  C1  UNL     1      17.596  32.605  18.772  0.00  0.00    -0.002 C 
ATOM      2  C2  UNL     1      16.287  31.865  18.979  0.00  0.00    +0.154 C 
ATOM      3  O1  UNL     1      15.518  31.644  18.053  0.00  0.00    -0.293 OA
ATOM      4  C3  UNL     1      16.000  31.305  20.325  0.00  0.00    -0.003 C 
ATOM      5  C4  UNL     1      15.421  30.087  20.478  0.00  0.00    +0.011 C 
ATOM      6  C5  UNL     1      15.190  29.523  21.857  0.00  0.00    -0.026 C 
ATOM      7  N1  UNL     1      15.053  29.332  19.365  0.00  0.00    -0.287 N 
ATOM      8  C6  UNL     1      14.637  28.009  19.318  0.00  0.00    +0.246 C 
ATOM      9  O2  UNL     1      14.391  27.297  20.292  0.00  0.00    -0.273 OA
ATOM     10  C7  UNL     1      14.516  27.442  17.891  0.00  0.00    +0.135 C 
ATOM     11  O3  UNL     1      13.955  26.131  17.955  0.00  0.00    -0.382 OA
ATOM     12  C8  UNL     1      15.895  27.363  17.232  0.00  0.00    +0.009 C 
ATOM     13  C9  UNL     1      15.852  27.319  15.733  0.00  0.00    -0.019 A 
ATOM     14  C10 UNL     1      15.931  26.192  14.947  0.00  0.00    +0.006 A 
ATOM     15  N2  UNL     1      15.886  26.564  13.637  0.00  0.00    -0.360 N 
ATOM     16  C11 UNL     1      15.782  27.926  13.539  0.00  0.00    +0.047 A 
ATOM     17  C12 UNL     1      15.713  28.750  12.414  0.00  0.00    -0.038 A 
ATOM     18  C13 UNL     1      15.622  30.129  12.620  0.00  0.00    -0.060 A 
ATOM     19  C14 UNL     1      15.592  30.658  13.905  0.00  0.00    -0.061 A 
ATOM     20  C15 UNL     1      15.658  29.821  15.017  0.00  0.00    -0.052 A 
ATOM     21  C16 UNL     1      15.758  28.430  14.840  0.00  0.00    +0.003 A 
ATOM     22  H   UNL     1      15.093  29.798  18.499  0.00  0.00    +0.000 HD
ATOM     23  H   UNL     1      14.533  25.557  18.481  0.00  0.00    +0.000 HD
ATOM     24  H   UNL     1      15.923  25.945  12.872  0.00  0.00    +0.000 HD
ENDROOT
TORSDOF 0
ENDMDL
MODEL 7
REMARK VINA RESULT:    -3.650      3.852      7.032
REMARK INTER + INTRA:          -3.650
REMARK INTER:                  -3.650
REMARK INTRA:                   0.000
REMARK UNBOUND:                 0.000
REMARK  Name = /home/vital/Documents/PhD_2021/Malaria_codes/scripts/../data/pdbqt_ligands/ligand_453_temp.pdb
REMARK                            x       y       z     vdW  Elec       q    Type
REMARK                         _______ _______ _______ _____ _____    ______ ____
ROOT
ATOM      1  C1  UNL     1      16.685  25.679  19.206  0.00  0.00    -0.002 C 
ATOM      2  C2  UNL     1      15.570  26.014  18.232  0.00  0.00    +0.154 C 
ATOM      3  O1  UNL     1      14.938  27.059  18.312  0.00  0.00    -0.293 OA
ATOM      4  C3  UNL     1      15.329  25.091  17.094  0.00  0.00    -0.003 C 
ATOM      5  C4  UNL     1      15.036  25.557  15.853  0.00  0.00    +0.011 C 
ATOM      6  C5  UNL     1      14.847  24.595  14.706  0.00  0.00    -0.026 C 
ATOM      7  N1  UNL     1      14.928  26.926  15.616  0.00  0.00    -0.287 N 
ATOM      8  C6  UNL     1      14.831  27.587  14.401  0.00  0.00    +0.246 C 
ATOM      9  O2  UNL     1      14.690  27.053  13.300  0.00  0.00    -0.273 OA
ATOM     10  C7  UNL     1      14.941  29.119  14.512  0.00  0.00    +0.135 C 
ATOM     11  O3  UNL     1      14.693  29.700  13.231  0.00  0.00    -0.382 OA
ATOM     12  C8  UNL     1      16.343  29.519  14.977  0.00  0.00    +0.009 C 
ATOM     13  C9  UNL     1      16.414  30.885  15.594  0.00  0.00    -0.019 A 
ATOM     14  C10 UNL     1      16.803  32.045  14.965  0.00  0.00    +0.006 A 
ATOM     15  N2  UNL     1      16.763  33.069  15.864  0.00  0.00    -0.360 N 
ATOM     16  C11 UNL     1      16.356  32.604  17.086  0.00  0.00    +0.047 A 
ATOM     17  C12 UNL     1      16.176  33.278  18.296  0.00  0.00    -0.038 A 
ATOM     18  C13 UNL     1      15.757  32.533  19.401  0.00  0.00    -0.060 A 
ATOM     19  C14 UNL     1      15.519  31.168  19.293  0.00  0.00    -0.061 A 
ATOM     20  C15 UNL     1      15.700  30.512  18.077  0.00  0.00    -0.052 A 
ATOM     21  C16 UNL     1      16.128  31.235  16.950  0.00  0.00    +0.003 A 
ATOM     22  H   UNL     1      14.919  27.499  16.416  0.00  0.00    +0.000 HD
ATOM     23  H   UNL     1      15.350  29.376  12.596  0.00  0.00    +0.000 HD
ATOM     24  H   UNL     1      16.994  34.005  15.664  0.00  0.00    +0.000 HD
ENDROOT
TORSDOF 0
ENDMDL
