MODEL 1
REMARK VINA RESULT:    -3.333      0.000      0.000
REMARK INTER + INTRA:          -3.333
REMARK INTER:                  -3.333
REMARK INTRA:                   0.000
REMARK UNBOUND:                 0.000
REMARK  Name = /home/vital/Documents/PhD_2021/Malaria_codes/scripts/../data/pdbqt_ligands/ligand_465_temp.pdb
REMARK                            x       y       z     vdW  Elec       q    Type
REMARK                         _______ _______ _______ _____ _____    ______ ____
ROOT
ATOM      1  N   UNL     1      13.690  27.923  23.640  0.00  0.00    -0.326 N 
ATOM      2  C   UNL     1      14.801  28.320  22.784  0.00  0.00    +0.019 C 
ATOM      3  C   UNL     1      14.292  28.718  21.438  0.00  0.00    -0.028 C 
ATOM      4  C   UNL     1      14.595  28.130  20.318  0.00  0.00    -0.125 C 
ATOM      5  C   UNL     1      14.899  27.545  19.197  0.00  0.00    -0.017 C 
ATOM      6  C   UNL     1      13.975  27.381  18.037  0.00  0.00    +0.074 C 
ATOM      7  O   UNL     1      14.738  27.556  16.846  0.00  0.00    -0.364 OA
ATOM      8  C   UNL     1      13.970  27.366  15.663  0.00  0.00    +0.098 C 
ATOM      9  C   UNL     1      13.903  25.921  15.228  0.00  0.00    -0.041 C 
ATOM     10  C   UNL     1      14.718  24.891  15.484  0.00  0.00    +0.003 C 
ATOM     11 CL   UNL     1      16.171  24.934  16.379  0.00  0.00    -0.092 Cl
ATOM     12  C   UNL     1      14.549  28.294  14.630  0.00  0.00    -0.041 C 
ATOM     13  C   UNL     1      15.088  27.974  13.448  0.00  0.00    +0.003 C 
ATOM     14 CL   UNL     1      15.702  29.153  12.364  0.00  0.00    -0.092 Cl
ATOM     15  H   UNL     1      14.047  27.652  24.556  0.00  0.00    +0.000 HD
ATOM     16  H   UNL     1      13.202  27.133  23.219  0.00  0.00    +0.000 HD
ATOM     17  H   UNL     1      13.044  28.706  23.744  0.00  0.00    +0.000 HD
ENDROOT
TORSDOF 0
ENDMDL
MODEL 2
REMARK VINA RESULT:    -3.068      4.115      4.869
REMARK INTER + INTRA:          -3.068
REMARK INTER:                  -3.068
REMARK INTRA:                   0.000
REMARK UNBOUND:                 0.000
REMARK  Name = /home/vital/Documents/PhD_2021/Malaria_codes/scripts/../data/pdbqt_ligands/ligand_465_temp.pdb
REMARK                            x       y       z     vdW  Elec       q    Type
REMARK                         _______ _______ _______ _____ _____    ______ ____
ROOT
ATOM      1  N   UNL     1      20.855  23.139  19.315  0.00  0.00    -0.326 N 
ATOM      2  C   UNL     1      20.895  23.690  17.967  0.00  0.00    +0.019 C 
ATOM      3  C   UNL     1      20.134  24.973  17.916  0.00  0.00    -0.028 C 
ATOM      4  C   UNL     1      19.079  25.190  17.186  0.00  0.00    -0.125 C 
ATOM      5  C   UNL     1      18.026  25.410  16.455  0.00  0.00    -0.017 C 
ATOM      6  C   UNL     1      16.875  26.275  16.847  0.00  0.00    +0.074 C 
ATOM      7  O   UNL     1      16.437  26.971  15.683  0.00  0.00    -0.364 OA
ATOM      8  C   UNL     1      15.300  27.792  15.921  0.00  0.00    +0.098 C 
ATOM      9  C   UNL     1      13.994  27.046  15.783  0.00  0.00    -0.041 C 
ATOM     10  C   UNL     1      13.691  25.928  15.113  0.00  0.00    +0.003 C 
ATOM     11 CL   UNL     1      14.740  25.010  14.127  0.00  0.00    -0.092 Cl
ATOM     12  C   UNL     1      15.434  28.976  15.003  0.00  0.00    -0.041 C 
ATOM     13  C   UNL     1      14.594  29.366  14.038  0.00  0.00    +0.003 C 
ATOM     14 CL   UNL     1      14.878  30.755  13.073  0.00  0.00    -0.092 Cl
ATOM     15  H   UNL     1      21.377  22.263  19.340  0.00  0.00    +0.000 HD
ATOM     16  H   UNL     1      19.887  22.965  19.583  0.00  0.00    +0.000 HD
ATOM     17  H   UNL     1      21.274  23.803  19.967  0.00  0.00    +0.000 HD
ENDROOT
TORSDOF 0
ENDMDL
MODEL 3
REMARK VINA RESULT:    -2.824      2.426      2.537
REMARK INTER + INTRA:          -2.824
REMARK INTER:                  -2.824
REMARK INTRA:                   0.000
REMARK UNBOUND:                 0.000
REMARK  Name = /home/vital/Documents/PhD_2021/Malaria_codes/scripts/../data/pdbqt_ligands/ligand_465_temp.pdb
REMARK                            x       y       z     vdW  Elec       q    Type
REMARK                         _______ _______ _______ _____ _____    ______ ____
ROOT
ATOM      1  N   UNL     1      18.018  25.421  23.280  0.00  0.00    -0.326 N 
ATOM      2  C   UNL     1      18.685  25.850  22.057  0.00  0.00    +0.019 C 
ATOM      3  C   UNL     1      17.811  26.795  21.302  0.00  0.00    -0.028 C 
ATOM      4  C   UNL     1      17.342  26.590  20.106  0.00  0.00    -0.125 C 
ATOM      5  C   UNL     1      16.875  26.387  18.909  0.00  0.00    -0.017 C 
ATOM      6  C   UNL     1      15.541  26.842  18.420  0.00  0.00    +0.074 C 
ATOM      7  O   UNL     1      15.693  27.260  17.066  0.00  0.00    -0.364 OA
ATOM      8  C   UNL     1      14.467  27.666  16.470  0.00  0.00    +0.098 C 
ATOM      9  C   UNL     1      13.693  26.516  15.870  0.00  0.00    -0.041 C 
ATOM     10  C   UNL     1      14.099  25.314  15.445  0.00  0.00    +0.003 C 
ATOM     11 CL   UNL     1      15.703  24.730  15.408  0.00  0.00    -0.092 Cl
ATOM     12  C   UNL     1      14.813  28.754  15.490  0.00  0.00    -0.041 C 
ATOM     13  C   UNL     1      14.607  28.764  14.169  0.00  0.00    +0.003 C 
ATOM     14 CL   UNL     1      15.050  30.091  13.176  0.00  0.00    -0.092 Cl
ATOM     15  H   UNL     1      18.623  24.776  23.789  0.00  0.00    +0.000 HD
ATOM     16  H   UNL     1      17.144  24.953  23.043  0.00  0.00    +0.000 HD
ATOM     17  H   UNL     1      17.821  26.235  23.863  0.00  0.00    +0.000 HD
ENDROOT
TORSDOF 0
ENDMDL
MODEL 4
REMARK VINA RESULT:    -2.758      5.083      6.617
REMARK INTER + INTRA:          -2.758
REMARK INTER:                  -2.758
REMARK INTRA:                   0.000
REMARK UNBOUND:                 0.000
REMARK  Name = /home/vital/Documents/PhD_2021/Malaria_codes/scripts/../data/pdbqt_ligands/ligand_465_temp.pdb
REMARK                            x       y       z     vdW  Elec       q    Type
REMARK                         _______ _______ _______ _____ _____    ______ ____
ROOT
ATOM      1  N   UNL     1      14.678  23.744  14.219  0.00  0.00    -0.326 N 
ATOM      2  C   UNL     1      15.188  24.623  15.263  0.00  0.00    +0.019 C 
ATOM      3  C   UNL     1      14.559  25.972  15.147  0.00  0.00    -0.028 C 
ATOM      4  C   UNL     1      15.201  27.080  14.918  0.00  0.00    -0.125 C 
ATOM      5  C   UNL     1      15.842  28.190  14.692  0.00  0.00    -0.017 C 
ATOM      6  C   UNL     1      15.318  29.334  13.890  0.00  0.00    +0.074 C 
ATOM      7  O   UNL     1      15.743  30.538  14.523  0.00  0.00    -0.364 OA
ATOM      8  C   UNL     1      15.349  31.707  13.813  0.00  0.00    +0.098 C 
ATOM      9  C   UNL     1      16.330  32.103  12.736  0.00  0.00    -0.041 C 
ATOM     10  C   UNL     1      17.632  31.831  12.595  0.00  0.00    +0.003 C 
ATOM     11 CL   UNL     1      18.618  30.954  13.679  0.00  0.00    -0.092 Cl
ATOM     12  C   UNL     1      15.108  32.770  14.851  0.00  0.00    -0.041 C 
ATOM     13  C   UNL     1      15.727  33.949  14.976  0.00  0.00    +0.003 C 
ATOM     14 CL   UNL     1      15.335  35.070  16.213  0.00  0.00    -0.092 Cl
ATOM     15  H   UNL     1      15.112  22.825  14.306  0.00  0.00    +0.000 HD
ATOM     16  H   UNL     1      14.898  24.139  13.305  0.00  0.00    +0.000 HD
ATOM     17  H   UNL     1      13.666  23.652  14.315  0.00  0.00    +0.000 HD
ENDROOT
TORSDOF 0
ENDMDL
MODEL 5
REMARK VINA RESULT:    -2.749     19.961     21.187
REMARK INTER + INTRA:          -2.749
REMARK INTER:                  -2.749
REMARK INTRA:                   0.000
REMARK UNBOUND:                 0.000
REMARK  Name = /home/vital/Documents/PhD_2021/Malaria_codes/scripts/../data/pdbqt_ligands/ligand_465_temp.pdb
REMARK                            x       y       z     vdW  Elec       q    Type
REMARK                         _______ _______ _______ _____ _____    ______ ____
ROOT
ATOM      1  N   UNL     1      24.440  47.178  15.749  0.00  0.00    -0.326 N 
ATOM      2  C   UNL     1      23.106  46.593  15.714  0.00  0.00    +0.019 C 
ATOM      3  C   UNL     1      22.184  47.369  16.595  0.00  0.00    -0.028 C 
ATOM      4  C   UNL     1      21.568  46.894  17.638  0.00  0.00    -0.125 C 
ATOM      5  C   UNL     1      20.950  46.420  18.680  0.00  0.00    -0.017 C 
ATOM      6  C   UNL     1      20.653  47.189  19.924  0.00  0.00    +0.074 C 
ATOM      7  O   UNL     1      19.365  46.790  20.384  0.00  0.00    -0.364 OA
ATOM      8  C   UNL     1      18.992  47.419  21.605  0.00  0.00    +0.098 C 
ATOM      9  C   UNL     1      19.490  46.681  22.824  0.00  0.00    -0.041 C 
ATOM     10  C   UNL     1      19.840  45.400  22.991  0.00  0.00    +0.003 C 
ATOM     11 CL   UNL     1      19.767  44.159  21.820  0.00  0.00    -0.092 Cl
ATOM     12  C   UNL     1      17.498  47.589  21.554  0.00  0.00    -0.041 C 
ATOM     13  C   UNL     1      16.586  47.085  22.392  0.00  0.00    +0.003 C 
ATOM     14 CL   UNL     1      14.906  47.377  22.210  0.00  0.00    -0.092 Cl
ATOM     15  H   UNL     1      25.063  46.642  15.145  0.00  0.00    +0.000 HD
ATOM     16  H   UNL     1      24.795  47.158  16.705  0.00  0.00    +0.000 HD
ATOM     17  H   UNL     1      24.398  48.144  15.422  0.00  0.00    +0.000 HD
ENDROOT
TORSDOF 0
ENDMDL
MODEL 6
REMARK VINA RESULT:    -2.649      1.717      1.794
REMARK INTER + INTRA:          -2.649
REMARK INTER:                  -2.649
REMARK INTRA:                   0.000
REMARK UNBOUND:                 0.000
REMARK  Name = /home/vital/Documents/PhD_2021/Malaria_codes/scripts/../data/pdbqt_ligands/ligand_465_temp.pdb
REMARK                            x       y       z     vdW  Elec       q    Type
REMARK                         _______ _______ _______ _____ _____    ______ ____
ROOT
ATOM      1  N   UNL     1      13.728  27.659  24.051  0.00  0.00    -0.326 N 
ATOM      2  C   UNL     1      14.250  28.803  23.315  0.00  0.00    +0.019 C 
ATOM      3  C   UNL     1      13.691  28.818  21.931  0.00  0.00    -0.028 C 
ATOM      4  C   UNL     1      14.391  28.724  20.839  0.00  0.00    -0.125 C 
ATOM      5  C   UNL     1      15.090  28.632  19.745  0.00  0.00    -0.017 C 
ATOM      6  C   UNL     1      14.644  27.946  18.497  0.00  0.00    +0.074 C 
ATOM      7  O   UNL     1      15.110  28.713  17.390  0.00  0.00    -0.364 OA
ATOM      8  C   UNL     1      14.791  28.125  16.134  0.00  0.00    +0.098 C 
ATOM      9  C   UNL     1      15.820  27.118  15.676  0.00  0.00    -0.041 C 
ATOM     10  C   UNL     1      17.111  26.977  15.998  0.00  0.00    +0.003 C 
ATOM     11 CL   UNL     1      18.023  27.983  17.033  0.00  0.00    -0.092 Cl
ATOM     12  C   UNL     1      14.574  29.264  15.176  0.00  0.00    -0.041 C 
ATOM     13  C   UNL     1      15.245  29.529  14.050  0.00  0.00    +0.003 C 
ATOM     14 CL   UNL     1      14.873  30.870  13.048  0.00  0.00    -0.092 Cl
ATOM     15  H   UNL     1      14.115  27.656  24.995  0.00  0.00    +0.000 HD
ATOM     16  H   UNL     1      13.991  26.798  23.573  0.00  0.00    +0.000 HD
ATOM     17  H   UNL     1      12.710  27.722  24.102  0.00  0.00    +0.000 HD
ENDROOT
TORSDOF 0
ENDMDL
MODEL 7
REMARK VINA RESULT:    -2.614      3.986      4.973
REMARK INTER + INTRA:          -2.614
REMARK INTER:                  -2.614
REMARK INTRA:                   0.000
REMARK UNBOUND:                 0.000
REMARK  Name = /home/vital/Documents/PhD_2021/Malaria_codes/scripts/../data/pdbqt_ligands/ligand_465_temp.pdb
REMARK                            x       y       z     vdW  Elec       q    Type
REMARK                         _______ _______ _______ _____ _____    ______ ____
ROOT
ATOM      1  N   UNL     1      16.831  34.640  19.752  0.00  0.00    -0.326 N 
ATOM      2  C   UNL     1      15.688  33.793  19.437  0.00  0.00    +0.019 C 
ATOM      3  C   UNL     1      16.154  32.425  19.062  0.00  0.00    -0.028 C 
ATOM      4  C   UNL     1      15.962  31.859  17.906  0.00  0.00    -0.125 C 
ATOM      5  C   UNL     1      15.769  31.291  16.752  0.00  0.00    -0.017 C 
ATOM      6  C   UNL     1      16.727  30.364  16.082  0.00  0.00    +0.074 C 
ATOM      7  O   UNL     1      15.966  29.341  15.443  0.00  0.00    -0.364 OA
ATOM      8  C   UNL     1      16.773  28.421  14.718  0.00  0.00    +0.098 C 
ATOM      9  C   UNL     1      17.065  28.876  13.308  0.00  0.00    -0.041 C 
ATOM     10  C   UNL     1      16.412  29.728  12.509  0.00  0.00    +0.003 C 
ATOM     11 CL   UNL     1      14.954  30.544  12.860  0.00  0.00    -0.092 Cl
ATOM     12  C   UNL     1      16.078  27.089  14.805  0.00  0.00    -0.041 C 
ATOM     13  C   UNL     1      15.614  26.339  13.800  0.00  0.00    +0.003 C 
ATOM     14 CL   UNL     1      14.847  24.826  14.056  0.00  0.00    -0.092 Cl
ATOM     15  H   UNL     1      16.504  35.572  20.007  0.00  0.00    +0.000 HD
ATOM     16  H   UNL     1      17.440  34.705  18.937  0.00  0.00    +0.000 HD
ATOM     17  H   UNL     1      17.350  34.237  20.533  0.00  0.00    +0.000 HD
ENDROOT
TORSDOF 0
ENDMDL
MODEL 8
REMARK VINA RESULT:    -2.409      5.135      6.929
REMARK INTER + INTRA:          -2.409
REMARK INTER:                  -2.409
REMARK INTRA:                   0.000
REMARK UNBOUND:                 0.000
REMARK  Name = /home/vital/Documents/PhD_2021/Malaria_codes/scripts/../data/pdbqt_ligands/ligand_465_temp.pdb
REMARK                            x       y       z     vdW  Elec       q    Type
REMARK                         _______ _______ _______ _____ _____    ______ ____
ROOT
ATOM      1  N   UNL     1      22.266  27.185  12.627  0.00  0.00    -0.326 N 
ATOM      2  C   UNL     1      21.602  28.267  13.342  0.00  0.00    +0.019 C 
ATOM      3  C   UNL     1      20.878  27.726  14.530  0.00  0.00    -0.028 C 
ATOM      4  C   UNL     1      19.593  27.794  14.720  0.00  0.00    -0.125 C 
ATOM      5  C   UNL     1      18.308  27.863  14.912  0.00  0.00    -0.017 C 
ATOM      6  C   UNL     1      17.485  26.819  15.590  0.00  0.00    +0.074 C 
ATOM      7  O   UNL     1      16.497  27.485  16.372  0.00  0.00    -0.364 OA
ATOM      8  C   UNL     1      15.610  26.586  17.027  0.00  0.00    +0.098 C 
ATOM      9  C   UNL     1      14.438  26.181  16.165  0.00  0.00    -0.041 C 
ATOM     10  C   UNL     1      13.874  26.786  15.113  0.00  0.00    +0.003 C 
ATOM     11 CL   UNL     1      14.312  28.295  14.445  0.00  0.00    -0.092 Cl
ATOM     12  C   UNL     1      15.223  27.243  18.324  0.00  0.00    -0.041 C 
ATOM     13  C   UNL     1      13.999  27.590  18.735  0.00  0.00    +0.003 C 
ATOM     14 CL   UNL     1      13.712  28.329  20.257  0.00  0.00    -0.092 Cl
ATOM     15  H   UNL     1      22.758  27.564  11.818  0.00  0.00    +0.000 HD
ATOM     16  H   UNL     1      21.571  26.507  12.316  0.00  0.00    +0.000 HD
ATOM     17  H   UNL     1      22.935  26.727  13.247  0.00  0.00    +0.000 HD
ENDROOT
TORSDOF 0
ENDMDL
