MODEL 1
REMARK VINA RESULT:    -5.757      0.000      0.000
REMARK INTER + INTRA:          -5.757
REMARK INTER:                  -5.757
REMARK INTRA:                   0.000
REMARK UNBOUND:                 0.000
REMARK  Name = /home/vital/Documents/PhD_2021/Malaria_codes/scripts/../data/pdbqt_ligands/ligand_330_temp.pdb
REMARK                            x       y       z     vdW  Elec       q    Type
REMARK                         _______ _______ _______ _____ _____    ______ ____
ROOT
ATOM      1 CL1  UNL     1     152.494 155.778 161.889  0.00  0.00    -0.057 Cl
ATOM      2  C1  UNL     1     151.334 156.484 160.868  0.00  0.00    +0.160 C 
ATOM      3  S1  UNL     1     149.940 155.575 160.358  0.00  0.00    -0.017 SA
ATOM      4  C2  UNL     1     150.218 155.625 158.691  0.00  0.00    -0.073 C 
ATOM      5  C3  UNL     1     150.517 155.762 157.434  0.00  0.00    -0.012 C 
ATOM      6  C4  UNL     1     151.875 155.553 156.988  0.00  0.00    -0.054 C 
ATOM      7  C5  UNL     1     152.517 156.246 156.036  0.00  0.00    -0.058 C 
ATOM      8  C6  UNL     1     152.036 157.379 155.275  0.00  0.00    -0.027 C 
ATOM      9  C7  UNL     1     151.540 158.519 155.776  0.00  0.00    +0.085 C 
ATOM     10  O1  UNL     1     151.343 158.744 157.111  0.00  0.00    -0.495 OA
ATOM     11  C8  UNL     1     151.595 160.098 157.496  0.00  0.00    +0.110 C 
ATOM     12  P1  UNL     1     151.099 160.533 159.233  0.00  0.00    -0.037 P 
ATOM     13  C9  UNL     1     152.485 159.746 160.130  0.00  0.00    +0.046 C 
ATOM     14  N1  UNL     1     152.497 158.545 160.616  0.00  0.00    -0.189 NA
ATOM     15  N2  UNL     1     151.401 157.771 160.401  0.00  0.00    -0.221 N 
ATOM     16  H   UNL     1     148.774 156.185 160.704  0.00  0.00    +0.000 HD
ATOM     17  H   UNL     1     149.881 159.983 159.577  0.00  0.00    +0.000 HD
ATOM     18  H   UNL     1     150.639 158.142 159.899  0.00  0.00    +0.000 HD
ENDROOT
TORSDOF 0
ENDMDL
MODEL 2
REMARK VINA RESULT:    -5.664      2.779      3.900
REMARK INTER + INTRA:          -5.664
REMARK INTER:                  -5.664
REMARK INTRA:                   0.000
REMARK UNBOUND:                 0.000
REMARK  Name = /home/vital/Documents/PhD_2021/Malaria_codes/scripts/../data/pdbqt_ligands/ligand_330_temp.pdb
REMARK                            x       y       z     vdW  Elec       q    Type
REMARK                         _______ _______ _______ _____ _____    ______ ____
ROOT
ATOM      1 CL1  UNL     1     149.456 160.504 160.871  0.00  0.00    -0.057 Cl
ATOM      2  C1  UNL     1     150.832 159.617 160.421  0.00  0.00    +0.160 C 
ATOM      3  S1  UNL     1     152.241 160.431 159.802  0.00  0.00    -0.017 SA
ATOM      4  C2  UNL     1     152.296 159.693 158.281  0.00  0.00    -0.073 C 
ATOM      5  C3  UNL     1     152.255 159.034 157.163  0.00  0.00    -0.012 C 
ATOM      6  C4  UNL     1     151.000 158.866 156.469  0.00  0.00    -0.054 C 
ATOM      7  C5  UNL     1     150.599 157.774 155.800  0.00  0.00    -0.058 C 
ATOM      8  C6  UNL     1     151.286 156.509 155.655  0.00  0.00    -0.027 C 
ATOM      9  C7  UNL     1     151.744 155.736 156.650  0.00  0.00    +0.085 C 
ATOM     10  O1  UNL     1     151.691 156.083 157.972  0.00  0.00    -0.495 OA
ATOM     11  C8  UNL     1     151.451 154.969 158.837  0.00  0.00    +0.110 C 
ATOM     12  P1  UNL     1     151.626 155.323 160.652  0.00  0.00    -0.037 P 
ATOM     13  C9  UNL     1     150.047 156.205 160.923  0.00  0.00    +0.046 C 
ATOM     14  N1  UNL     1     149.868 157.487 160.864  0.00  0.00    -0.189 NA
ATOM     15  N2  UNL     1     150.936 158.254 160.520  0.00  0.00    -0.221 N 
ATOM     16  H   UNL     1     153.352 160.169 160.541  0.00  0.00    +0.000 HD
ATOM     17  H   UNL     1     152.718 156.123 160.921  0.00  0.00    +0.000 HD
ATOM     18  H   UNL     1     151.802 157.822 160.338  0.00  0.00    +0.000 HD
ENDROOT
TORSDOF 0
ENDMDL
MODEL 3
REMARK VINA RESULT:    -5.561      2.762      4.124
REMARK INTER + INTRA:          -5.561
REMARK INTER:                  -5.561
REMARK INTRA:                   0.000
REMARK UNBOUND:                 0.000
REMARK  Name = /home/vital/Documents/PhD_2021/Malaria_codes/scripts/../data/pdbqt_ligands/ligand_330_temp.pdb
REMARK                            x       y       z     vdW  Elec       q    Type
REMARK                         _______ _______ _______ _____ _____    ______ ____
ROOT
ATOM      1 CL1  UNL     1     152.473 161.502 160.572  0.00  0.00    -0.057 Cl
ATOM      2  C1  UNL     1     151.205 160.582 159.915  0.00  0.00    +0.160 C 
ATOM      3  S1  UNL     1     149.710 160.396 160.786  0.00  0.00    -0.017 SA
ATOM      4  C2  UNL     1     149.733 158.712 160.945  0.00  0.00    -0.073 C 
ATOM      5  C3  UNL     1     149.844 157.418 160.970  0.00  0.00    -0.012 C 
ATOM      6  C4  UNL     1     151.107 156.808 161.314  0.00  0.00    -0.054 C 
ATOM      7  C5  UNL     1     151.628 155.695 160.776  0.00  0.00    -0.058 C 
ATOM      8  C6  UNL     1     151.089 154.880 159.709  0.00  0.00    -0.027 C 
ATOM      9  C7  UNL     1     150.727 155.305 158.490  0.00  0.00    +0.085 C 
ATOM     10  O1  UNL     1     150.746 156.617 158.103  0.00  0.00    -0.495 OA
ATOM     11  C8  UNL     1     151.116 156.793 156.732  0.00  0.00    +0.110 C 
ATOM     12  P1  UNL     1     150.910 158.518 156.072  0.00  0.00    -0.037 P 
ATOM     13  C9  UNL     1     152.379 159.293 156.838  0.00  0.00    +0.046 C 
ATOM     14  N1  UNL     1     152.409 159.915 157.974  0.00  0.00    -0.189 NA
ATOM     15  N2  UNL     1     151.259 159.957 158.697  0.00  0.00    -0.221 N 
ATOM     16  H   UNL     1     148.639 160.830 160.069  0.00  0.00    +0.000 HD
ATOM     17  H   UNL     1     149.734 159.100 156.501  0.00  0.00    +0.000 HD
ATOM     18  H   UNL     1     150.447 159.530 158.338  0.00  0.00    +0.000 HD
ENDROOT
TORSDOF 0
ENDMDL
MODEL 4
REMARK VINA RESULT:    -5.119      6.151      8.236
REMARK INTER + INTRA:          -5.119
REMARK INTER:                  -5.119
REMARK INTRA:                   0.000
REMARK UNBOUND:                 0.000
REMARK  Name = /home/vital/Documents/PhD_2021/Malaria_codes/scripts/../data/pdbqt_ligands/ligand_330_temp.pdb
REMARK                            x       y       z     vdW  Elec       q    Type
REMARK                         _______ _______ _______ _____ _____    ______ ____
ROOT
ATOM      1 CL1  UNL     1     150.006 153.942 167.242  0.00  0.00    -0.057 Cl
ATOM      2  C1  UNL     1     151.327 154.841 166.666  0.00  0.00    +0.160 C 
ATOM      3  S1  UNL     1     152.693 155.158 167.698  0.00  0.00    -0.017 SA
ATOM      4  C2  UNL     1     152.611 156.847 167.692  0.00  0.00    -0.073 C 
ATOM      5  C3  UNL     1     152.468 158.133 167.581  0.00  0.00    -0.012 C 
ATOM      6  C4  UNL     1     151.158 158.728 167.703  0.00  0.00    -0.054 C 
ATOM      7  C5  UNL     1     150.686 159.769 167.001  0.00  0.00    -0.058 C 
ATOM      8  C6  UNL     1     151.340 160.502 165.938  0.00  0.00    -0.027 C 
ATOM      9  C7  UNL     1     151.865 159.981 164.821  0.00  0.00    +0.085 C 
ATOM     10  O1  UNL     1     151.927 158.639 164.560  0.00  0.00    -0.495 OA
ATOM     11  C8  UNL     1     151.741 158.326 163.176  0.00  0.00    +0.110 C 
ATOM     12  P1  UNL     1     152.069 156.557 162.713  0.00  0.00    -0.037 P 
ATOM     13  C9  UNL     1     150.532 155.804 163.357  0.00  0.00    +0.046 C 
ATOM     14  N1  UNL     1     150.369 155.288 164.534  0.00  0.00    -0.189 NA
ATOM     15  N2  UNL     1     151.417 155.351 165.397  0.00  0.00    -0.221 N 
ATOM     16  H   UNL     1     153.856 154.697 167.166  0.00  0.00    +0.000 HD
ATOM     17  H   UNL     1     153.192 156.057 163.341  0.00  0.00    +0.000 HD
ATOM     18  H   UNL     1     152.258 155.771 165.105  0.00  0.00    +0.000 HD
ENDROOT
TORSDOF 0
ENDMDL
MODEL 5
REMARK VINA RESULT:    -4.891      7.127      9.634
REMARK INTER + INTRA:          -4.891
REMARK INTER:                  -4.891
REMARK INTRA:                   0.000
REMARK UNBOUND:                 0.000
REMARK  Name = /home/vital/Documents/PhD_2021/Malaria_codes/scripts/../data/pdbqt_ligands/ligand_330_temp.pdb
REMARK                            x       y       z     vdW  Elec       q    Type
REMARK                         _______ _______ _______ _____ _____    ______ ____
ROOT
ATOM      1 CL1  UNL     1     152.147 161.566 162.472  0.00  0.00    -0.057 Cl
ATOM      2  C1  UNL     1     151.329 161.051 163.868  0.00  0.00    +0.160 C 
ATOM      3  S1  UNL     1     150.230 162.122 164.689  0.00  0.00    -0.017 SA
ATOM      4  C2  UNL     1     151.019 162.176 166.184  0.00  0.00    -0.073 C 
ATOM      5  C3  UNL     1     151.693 162.109 167.293  0.00  0.00    -0.012 C 
ATOM      6  C4  UNL     1     153.131 162.225 167.272  0.00  0.00    -0.054 C 
ATOM      7  C5  UNL     1     153.997 161.551 168.044  0.00  0.00    -0.058 C 
ATOM      8  C6  UNL     1     153.712 160.530 169.029  0.00  0.00    -0.027 C 
ATOM      9  C7  UNL     1     153.011 159.406 168.826  0.00  0.00    +0.085 C 
ATOM     10  O1  UNL     1     152.387 159.098 167.648  0.00  0.00    -0.495 OA
ATOM     11  C8  UNL     1     152.418 157.700 167.344  0.00  0.00    +0.110 C 
ATOM     12  P1  UNL     1     151.369 157.180 165.901  0.00  0.00    -0.037 P 
ATOM     13  C9  UNL     1     152.446 157.763 164.542  0.00  0.00    +0.046 C 
ATOM     14  N1  UNL     1     152.379 158.917 163.957  0.00  0.00    -0.189 NA
ATOM     15  N2  UNL     1     151.459 159.804 164.421  0.00  0.00    -0.221 N 
ATOM     16  H   UNL     1     148.979 161.598 164.787  0.00  0.00    +0.000 HD
ATOM     17  H   UNL     1     150.142 157.812 165.897  0.00  0.00    +0.000 HD
ATOM     18  H   UNL     1     150.874 159.545 165.170  0.00  0.00    +0.000 HD
ENDROOT
TORSDOF 0
ENDMDL
MODEL 6
REMARK VINA RESULT:    -4.827      8.904     10.239
REMARK INTER + INTRA:          -4.827
REMARK INTER:                  -4.827
REMARK INTRA:                   0.000
REMARK UNBOUND:                 0.000
REMARK  Name = /home/vital/Documents/PhD_2021/Malaria_codes/scripts/../data/pdbqt_ligands/ligand_330_temp.pdb
REMARK                            x       y       z     vdW  Elec       q    Type
REMARK                         _______ _______ _______ _____ _____    ______ ____
ROOT
ATOM      1 CL1  UNL     1     148.546 163.146 164.932  0.00  0.00    -0.057 Cl
ATOM      2  C1  UNL     1     150.160 163.063 165.453  0.00  0.00    +0.160 C 
ATOM      3  S1  UNL     1     151.449 162.873 164.298  0.00  0.00    -0.017 SA
ATOM      4  C2  UNL     1     152.066 161.405 164.867  0.00  0.00    -0.073 C 
ATOM      5  C3  UNL     1     152.472 160.299 165.416  0.00  0.00    -0.012 C 
ATOM      6  C4  UNL     1     151.514 159.286 165.791  0.00  0.00    -0.054 C 
ATOM      7  C5  UNL     1     151.567 158.503 166.879  0.00  0.00    -0.058 C 
ATOM      8  C6  UNL     1     152.546 158.515 167.944  0.00  0.00    -0.027 C 
ATOM      9  C7  UNL     1     152.899 159.575 168.685  0.00  0.00    +0.085 C 
ATOM     10  O1  UNL     1     152.427 160.843 168.478  0.00  0.00    -0.495 OA
ATOM     11  C8  UNL     1     152.241 161.578 169.691  0.00  0.00    +0.110 C 
ATOM     12  P1  UNL     1     151.853 163.382 169.472  0.00  0.00    -0.037 P 
ATOM     13  C9  UNL     1     150.096 163.238 168.985  0.00  0.00    +0.046 C 
ATOM     14  N1  UNL     1     149.643 163.168 167.773  0.00  0.00    -0.189 NA
ATOM     15  N2  UNL     1     150.552 163.148 166.763  0.00  0.00    -0.221 N 
ATOM     16  H   UNL     1     152.361 163.879 164.376  0.00  0.00    +0.000 HD
ATOM     17  H   UNL     1     152.619 163.960 168.481  0.00  0.00    +0.000 HD
ATOM     18  H   UNL     1     151.512 163.196 166.977  0.00  0.00    +0.000 HD
ENDROOT
TORSDOF 0
ENDMDL
MODEL 7
REMARK VINA RESULT:    -4.672     13.607     15.144
REMARK INTER + INTRA:          -4.672
REMARK INTER:                  -4.672
REMARK INTRA:                   0.000
REMARK UNBOUND:                 0.000
REMARK  Name = /home/vital/Documents/PhD_2021/Malaria_codes/scripts/../data/pdbqt_ligands/ligand_330_temp.pdb
REMARK                            x       y       z     vdW  Elec       q    Type
REMARK                         _______ _______ _______ _____ _____    ______ ____
ROOT
ATOM      1 CL1  UNL     1     141.480 149.635 167.940  0.00  0.00    -0.057 Cl
ATOM      2  C1  UNL     1     141.898 148.883 166.476  0.00  0.00    +0.160 C 
ATOM      3  S1  UNL     1     140.754 147.861 165.653  0.00  0.00    -0.017 SA
ATOM      4  C2  UNL     1     141.651 146.427 165.680  0.00  0.00    -0.073 C 
ATOM      5  C3  UNL     1     142.446 145.401 165.728  0.00  0.00    -0.012 C 
ATOM      6  C4  UNL     1     143.139 145.082 166.954  0.00  0.00    -0.054 C 
ATOM      7  C5  UNL     1     144.390 144.611 167.064  0.00  0.00    -0.058 C 
ATOM      8  C6  UNL     1     145.348 144.360 166.009  0.00  0.00    -0.027 C 
ATOM      9  C7  UNL     1     145.755 145.238 165.081  0.00  0.00    +0.085 C 
ATOM     10  O1  UNL     1     145.250 146.503 164.953  0.00  0.00    -0.495 OA
ATOM     11  C8  UNL     1     146.234 147.464 164.556  0.00  0.00    +0.110 C 
ATOM     12  P1  UNL     1     145.568 149.141 164.113  0.00  0.00    -0.037 P 
ATOM     13  C9  UNL     1     145.252 149.776 165.799  0.00  0.00    +0.046 C 
ATOM     14  N1  UNL     1     144.135 149.693 166.450  0.00  0.00    -0.189 NA
ATOM     15  N2  UNL     1     143.109 149.029 165.853  0.00  0.00    -0.221 N 
ATOM     16  H   UNL     1     140.501 148.287 164.387  0.00  0.00    +0.000 HD
ATOM     17  H   UNL     1     144.411 149.059 163.366  0.00  0.00    +0.000 HD
ATOM     18  H   UNL     1     143.240 148.646 164.956  0.00  0.00    +0.000 HD
ENDROOT
TORSDOF 0
ENDMDL
MODEL 8
REMARK VINA RESULT:    -4.655      8.080     10.524
REMARK INTER + INTRA:          -4.655
REMARK INTER:                  -4.655
REMARK INTRA:                   0.000
REMARK UNBOUND:                 0.000
REMARK  Name = /home/vital/Documents/PhD_2021/Malaria_codes/scripts/../data/pdbqt_ligands/ligand_330_temp.pdb
REMARK                            x       y       z     vdW  Elec       q    Type
REMARK                         _______ _______ _______ _____ _____    ______ ____
ROOT
ATOM      1 CL1  UNL     1     151.511 162.370 163.165  0.00  0.00    -0.057 Cl
ATOM      2  C1  UNL     1     150.839 161.828 164.628  0.00  0.00    +0.160 C 
ATOM      3  S1  UNL     1     149.633 162.779 165.448  0.00  0.00    -0.017 SA
ATOM      4  C2  UNL     1     150.471 163.033 166.894  0.00  0.00    -0.073 C 
ATOM      5  C3  UNL     1     151.195 163.128 167.969  0.00  0.00    -0.012 C 
ATOM      6  C4  UNL     1     152.600 163.446 167.867  0.00  0.00    -0.054 C 
ATOM      7  C5  UNL     1     153.587 162.949 168.627  0.00  0.00    -0.058 C 
ATOM      8  C6  UNL     1     153.496 161.958 169.677  0.00  0.00    -0.027 C 
ATOM      9  C7  UNL     1     152.957 160.735 169.570  0.00  0.00    +0.085 C 
ATOM     10  O1  UNL     1     152.332 160.272 168.444  0.00  0.00    -0.495 OA
ATOM     11  C8  UNL     1     152.552 158.877 168.214  0.00  0.00    +0.110 C 
ATOM     12  P1  UNL     1     151.527 158.129 166.856  0.00  0.00    -0.037 P 
ATOM     13  C9  UNL     1     152.447 158.778 165.414  0.00  0.00    +0.046 C 
ATOM     14  N1  UNL     1     152.188 159.874 164.773  0.00  0.00    -0.189 NA
ATOM     15  N2  UNL     1     151.171 160.647 165.238  0.00  0.00    -0.221 N 
ATOM     16  H   UNL     1     148.476 162.090 165.638  0.00  0.00    +0.000 HD
ATOM     17  H   UNL     1     150.223 158.580 166.883  0.00  0.00    +0.000 HD
ATOM     18  H   UNL     1     150.663 160.352 166.029  0.00  0.00    +0.000 HD
ENDROOT
TORSDOF 0
ENDMDL
