MODEL 1
REMARK VINA RESULT:    -6.872      0.000      0.000
REMARK INTER + INTRA:          -6.872
REMARK INTER:                  -6.872
REMARK INTRA:                   0.000
REMARK UNBOUND:                 0.000
REMARK  Name = /home/vital/Documents/PhD_2021/Malaria_codes/scripts/../data/pdbqt_ligands/ligand_223_temp.pdb
REMARK                            x       y       z     vdW  Elec       q    Type
REMARK                         _______ _______ _______ _____ _____    ______ ____
ROOT
ATOM      1  O1  UNL     1     153.362 160.547 159.870  0.00  0.00    -0.393 OA
ATOM      2  C1  UNL     1     152.511 160.713 158.741  0.00  0.00    +0.060 C 
ATOM      3  C2  UNL     1     152.546 159.467 157.855  0.00  0.00    +0.033 C 
ATOM      4  N1  UNL     1     151.600 159.594 156.755  0.00  0.00    -0.333 N 
ATOM      5  C3  UNL     1     151.664 158.750 155.676  0.00  0.00    +0.083 C 
ATOM      6  N2  UNL     1     152.664 157.999 155.356  0.00  0.00    -0.224 NA
ATOM      7  C4  UNL     1     152.461 157.242 154.223  0.00  0.00    +0.135 C 
ATOM      8  C5  UNL     1     151.957 155.988 154.328  0.00  0.00    +0.062 C 
ATOM      9 CL1  UNL     1     151.580 155.332 155.924  0.00  0.00    -0.084 Cl
ATOM     10  C6  UNL     1     151.593 154.996 153.250  0.00  0.00    +0.005 C 
ATOM     11  C7  UNL     1     151.827 155.314 151.801  0.00  0.00    -0.081 C 
ATOM     12  C8  UNL     1     152.664 156.213 151.261  0.00  0.00    -0.071 C 
ATOM     13  C9  UNL     1     153.574 157.126 152.007  0.00  0.00    +0.029 C 
ATOM     14  N3  UNL     1     152.830 157.832 153.025  0.00  0.00    -0.325 N 
ATOM     15  H   UNL     1     153.327 161.345 160.420  0.00  0.00    +0.000 HD
ATOM     16  H   UNL     1     150.907 160.292 156.787  0.00  0.00    +0.000 HD
ATOM     17  H   UNL     1     152.574 158.768 152.861  0.00  0.00    +0.000 HD
ENDROOT
TORSDOF 0
ENDMDL
MODEL 2
REMARK VINA RESULT:    -6.432      3.056      3.492
REMARK INTER + INTRA:          -6.432
REMARK INTER:                  -6.432
REMARK INTRA:                   0.000
REMARK UNBOUND:                 0.000
REMARK  Name = /home/vital/Documents/PhD_2021/Malaria_codes/scripts/../data/pdbqt_ligands/ligand_223_temp.pdb
REMARK                            x       y       z     vdW  Elec       q    Type
REMARK                         _______ _______ _______ _____ _____    ______ ____
ROOT
ATOM      1  O1  UNL     1     149.482 155.893 160.830  0.00  0.00    -0.393 OA
ATOM      2  C1  UNL     1     150.655 155.402 160.191  0.00  0.00    +0.060 C 
ATOM      3  C2  UNL     1     150.822 156.041 158.812  0.00  0.00    +0.033 C 
ATOM      4  N1  UNL     1     152.074 155.617 158.200  0.00  0.00    -0.333 N 
ATOM      5  C3  UNL     1     152.302 155.815 156.862  0.00  0.00    +0.083 C 
ATOM      6  N2  UNL     1     151.409 156.090 155.971  0.00  0.00    -0.224 NA
ATOM      7  C4  UNL     1     151.911 156.245 154.698  0.00  0.00    +0.135 C 
ATOM      8  C5  UNL     1     152.274 157.476 154.259  0.00  0.00    +0.062 C 
ATOM      9 CL1  UNL     1     152.084 158.871 155.325  0.00  0.00    -0.084 Cl
ATOM     10  C6  UNL     1     152.897 157.893 152.949  0.00  0.00    +0.005 C 
ATOM     11  C7  UNL     1     153.155 156.885 151.864  0.00  0.00    -0.081 C 
ATOM     12  C8  UNL     1     152.591 155.682 151.682  0.00  0.00    -0.071 C 
ATOM     13  C9  UNL     1     151.552 155.057 152.547  0.00  0.00    +0.029 C 
ATOM     14  N3  UNL     1     151.979 155.096 153.928  0.00  0.00    -0.325 N 
ATOM     15  H   UNL     1     149.391 155.478 161.702  0.00  0.00    +0.000 HD
ATOM     16  H   UNL     1     152.765 155.185 158.752  0.00  0.00    +0.000 HD
ATOM     17  H   UNL     1     152.333 154.273 154.337  0.00  0.00    +0.000 HD
ENDROOT
TORSDOF 0
ENDMDL
MODEL 3
REMARK VINA RESULT:    -6.323      3.445      6.143
REMARK INTER + INTRA:          -6.323
REMARK INTER:                  -6.323
REMARK INTRA:                   0.000
REMARK UNBOUND:                 0.000
REMARK  Name = /home/vital/Documents/PhD_2021/Malaria_codes/scripts/../data/pdbqt_ligands/ligand_223_temp.pdb
REMARK                            x       y       z     vdW  Elec       q    Type
REMARK                         _______ _______ _______ _____ _____    ______ ____
ROOT
ATOM      1  O1  UNL     1     151.897 155.281 149.808  0.00  0.00    -0.393 OA
ATOM      2  C1  UNL     1     152.802 155.340 150.904  0.00  0.00    +0.060 C 
ATOM      3  C2  UNL     1     152.076 155.774 152.178  0.00  0.00    +0.033 C 
ATOM      4  N1  UNL     1     152.978 155.736 153.321  0.00  0.00    -0.333 N 
ATOM      5  C3  UNL     1     152.646 156.357 154.497  0.00  0.00    +0.083 C 
ATOM      6  N2  UNL     1     151.722 157.246 154.653  0.00  0.00    -0.224 NA
ATOM      7  C4  UNL     1     151.593 157.704 155.945  0.00  0.00    +0.135 C 
ATOM      8  C5  UNL     1     150.720 157.104 156.792  0.00  0.00    +0.062 C 
ATOM      9 CL1  UNL     1     149.745 155.747 156.220  0.00  0.00    -0.084 Cl
ATOM     10  C6  UNL     1     150.441 157.375 158.250  0.00  0.00    +0.005 C 
ATOM     11  C7  UNL     1     151.141 158.493 158.972  0.00  0.00    -0.081 C 
ATOM     12  C8  UNL     1     151.738 159.580 158.462  0.00  0.00    -0.071 C 
ATOM     13  C9  UNL     1     151.846 159.929 157.018  0.00  0.00    +0.029 C 
ATOM     14  N3  UNL     1     152.369 158.801 156.282  0.00  0.00    -0.325 N 
ATOM     15  H   UNL     1     152.373 155.005 149.010  0.00  0.00    +0.000 HD
ATOM     16  H   UNL     1     153.836 155.258 153.248  0.00  0.00    +0.000 HD
ATOM     17  H   UNL     1     153.315 158.812 156.008  0.00  0.00    +0.000 HD
ENDROOT
TORSDOF 0
ENDMDL
MODEL 4
REMARK VINA RESULT:    -6.229      4.337      4.982
REMARK INTER + INTRA:          -6.229
REMARK INTER:                  -6.229
REMARK INTRA:                   0.000
REMARK UNBOUND:                 0.000
REMARK  Name = /home/vital/Documents/PhD_2021/Malaria_codes/scripts/../data/pdbqt_ligands/ligand_223_temp.pdb
REMARK                            x       y       z     vdW  Elec       q    Type
REMARK                         _______ _______ _______ _____ _____    ______ ____
ROOT
ATOM      1  O1  UNL     1     148.478 153.900 162.497  0.00  0.00    -0.393 OA
ATOM      2  C1  UNL     1     149.812 154.246 162.144  0.00  0.00    +0.060 C 
ATOM      3  C2  UNL     1     149.833 155.035 160.834  0.00  0.00    +0.033 C 
ATOM      4  N1  UNL     1     151.185 155.477 160.523  0.00  0.00    -0.333 N 
ATOM      5  C3  UNL     1     151.502 155.935 159.271  0.00  0.00    +0.083 C 
ATOM      6  N2  UNL     1     150.802 155.765 158.199  0.00  0.00    -0.224 NA
ATOM      7  C4  UNL     1     151.348 156.337 157.071  0.00  0.00    +0.135 C 
ATOM      8  C5  UNL     1     151.004 157.600 156.718  0.00  0.00    +0.062 C 
ATOM      9 CL1  UNL     1     149.843 158.494 157.703  0.00  0.00    -0.084 Cl
ATOM     10  C6  UNL     1     151.501 158.458 155.580  0.00  0.00    +0.005 C 
ATOM     11  C7  UNL     1     152.494 157.920 154.588  0.00  0.00    -0.081 C 
ATOM     12  C8  UNL     1     152.781 156.644 154.291  0.00  0.00    -0.071 C 
ATOM     13  C9  UNL     1     152.158 155.437 154.903  0.00  0.00    +0.029 C 
ATOM     14  N3  UNL     1     152.215 155.537 156.344  0.00  0.00    -0.325 N 
ATOM     15  H   UNL     1     148.483 153.401 163.329  0.00  0.00    +0.000 HD
ATOM     16  H   UNL     1     151.880 155.447 161.221  0.00  0.00    +0.000 HD
ATOM     17  H   UNL     1     152.896 155.016 156.828  0.00  0.00    +0.000 HD
ENDROOT
TORSDOF 0
ENDMDL
MODEL 5
REMARK VINA RESULT:    -6.062      3.394      6.439
REMARK INTER + INTRA:          -6.062
REMARK INTER:                  -6.062
REMARK INTRA:                   0.000
REMARK UNBOUND:                 0.000
REMARK  Name = /home/vital/Documents/PhD_2021/Malaria_codes/scripts/../data/pdbqt_ligands/ligand_223_temp.pdb
REMARK                            x       y       z     vdW  Elec       q    Type
REMARK                         _______ _______ _______ _____ _____    ______ ____
ROOT
ATOM      1  O1  UNL     1     150.683 154.474 151.829  0.00  0.00    -0.393 OA
ATOM      2  C1  UNL     1     151.839 154.847 152.569  0.00  0.00    +0.060 C 
ATOM      3  C2  UNL     1     151.448 155.347 153.960  0.00  0.00    +0.033 C 
ATOM      4  N1  UNL     1     152.635 155.632 154.755  0.00  0.00    -0.333 N 
ATOM      5  C3  UNL     1     152.545 156.364 155.910  0.00  0.00    +0.083 C 
ATOM      6  N2  UNL     1     151.549 157.104 156.267  0.00  0.00    -0.224 NA
ATOM      7  C4  UNL     1     151.715 157.728 157.483  0.00  0.00    +0.135 C 
ATOM      8  C5  UNL     1     151.271 157.130 158.616  0.00  0.00    +0.062 C 
ATOM      9 CL1  UNL     1     150.467 155.561 158.516  0.00  0.00    -0.084 Cl
ATOM     10  C6  UNL     1     151.385 157.574 160.055  0.00  0.00    +0.005 C 
ATOM     11  C7  UNL     1     152.025 158.887 160.406  0.00  0.00    -0.081 C 
ATOM     12  C8  UNL     1     152.213 159.966 159.632  0.00  0.00    -0.071 C 
ATOM     13  C9  UNL     1     151.818 160.102 158.202  0.00  0.00    +0.029 C 
ATOM     14  N3  UNL     1     152.318 158.975 157.449  0.00  0.00    -0.325 N 
ATOM     15  H   UNL     1     150.949 154.160 150.951  0.00  0.00    +0.000 HD
ATOM     16  H   UNL     1     153.512 155.295 154.459  0.00  0.00    +0.000 HD
ATOM     17  H   UNL     1     153.119 159.097 156.889  0.00  0.00    +0.000 HD
ENDROOT
TORSDOF 0
ENDMDL
MODEL 6
REMARK VINA RESULT:    -5.988      3.842      6.429
REMARK INTER + INTRA:          -5.988
REMARK INTER:                  -5.988
REMARK INTRA:                   0.000
REMARK UNBOUND:                 0.000
REMARK  Name = /home/vital/Documents/PhD_2021/Malaria_codes/scripts/../data/pdbqt_ligands/ligand_223_temp.pdb
REMARK                            x       y       z     vdW  Elec       q    Type
REMARK                         _______ _______ _______ _____ _____    ______ ____
ROOT
ATOM      1  O1  UNL     1     154.569 156.566 151.968  0.00  0.00    -0.393 OA
ATOM      2  C1  UNL     1     153.297 156.140 152.440  0.00  0.00    +0.060 C 
ATOM      3  C2  UNL     1     152.991 156.768 153.801  0.00  0.00    +0.033 C 
ATOM      4  N1  UNL     1     151.648 156.415 154.238  0.00  0.00    -0.333 N 
ATOM      5  C3  UNL     1     151.262 156.608 155.540  0.00  0.00    +0.083 C 
ATOM      6  N2  UNL     1     152.048 156.813 156.544  0.00  0.00    -0.224 NA
ATOM      7  C4  UNL     1     151.397 156.981 157.745  0.00  0.00    +0.135 C 
ATOM      8  C5  UNL     1     151.055 158.226 158.161  0.00  0.00    +0.062 C 
ATOM      9 CL1  UNL     1     151.465 159.622 157.161  0.00  0.00    -0.084 Cl
ATOM     10  C6  UNL     1     150.295 158.662 159.391  0.00  0.00    +0.005 C 
ATOM     11  C7  UNL     1     149.839 157.657 160.411  0.00  0.00    -0.081 C 
ATOM     12  C8  UNL     1     150.300 156.418 160.636  0.00  0.00    -0.071 C 
ATOM     13  C9  UNL     1     151.403 155.742 159.897  0.00  0.00    +0.029 C 
ATOM     14  N3  UNL     1     151.160 155.827 158.475  0.00  0.00    -0.325 N 
ATOM     15  H   UNL     1     154.747 156.159 151.105  0.00  0.00    +0.000 HD
ATOM     16  H   UNL     1     151.009 156.035 153.592  0.00  0.00    +0.000 HD
ATOM     17  H   UNL     1     150.813 155.034 158.006  0.00  0.00    +0.000 HD
ENDROOT
TORSDOF 0
ENDMDL
MODEL 7
REMARK VINA RESULT:    -5.946      2.132      2.523
REMARK INTER + INTRA:          -5.946
REMARK INTER:                  -5.946
REMARK INTRA:                   0.000
REMARK UNBOUND:                 0.000
REMARK  Name = /home/vital/Documents/PhD_2021/Malaria_codes/scripts/../data/pdbqt_ligands/ligand_223_temp.pdb
REMARK                            x       y       z     vdW  Elec       q    Type
REMARK                         _______ _______ _______ _____ _____    ______ ____
ROOT
ATOM      1  O1  UNL     1     150.570 160.478 162.013  0.00  0.00    -0.393 OA
ATOM      2  C1  UNL     1     149.744 160.307 160.867  0.00  0.00    +0.060 C 
ATOM      3  C2  UNL     1     150.385 159.326 159.885  0.00  0.00    +0.033 C 
ATOM      4  N1  UNL     1     149.495 159.071 158.761  0.00  0.00    -0.333 N 
ATOM      5  C3  UNL     1     149.961 158.470 157.620  0.00  0.00    +0.083 C 
ATOM      6  N2  UNL     1     151.200 158.339 157.282  0.00  0.00    -0.224 NA
ATOM      7  C4  UNL     1     151.392 157.687 156.084  0.00  0.00    +0.135 C 
ATOM      8  C5  UNL     1     151.572 156.343 156.066  0.00  0.00    +0.062 C 
ATOM      9 CL1  UNL     1     151.572 155.444 157.586  0.00  0.00    -0.084 Cl
ATOM     10  C6  UNL     1     151.739 155.403 154.897  0.00  0.00    +0.005 C 
ATOM     11  C7  UNL     1     151.780 155.926 153.489  0.00  0.00    -0.081 C 
ATOM     12  C8  UNL     1     152.064 157.164 153.059  0.00  0.00    -0.071 C 
ATOM     13  C9  UNL     1     152.410 158.334 153.913  0.00  0.00    +0.029 C 
ATOM     14  N3  UNL     1     151.418 158.488 154.954  0.00  0.00    -0.325 N 
ATOM     15  H   UNL     1     150.150 161.103 162.624  0.00  0.00    +0.000 HD
ATOM     16  H   UNL     1     148.548 159.334 158.820  0.00  0.00    +0.000 HD
ATOM     17  H   UNL     1     150.734 159.189 154.856  0.00  0.00    +0.000 HD
ENDROOT
TORSDOF 0
ENDMDL
MODEL 8
REMARK VINA RESULT:    -5.551      3.242      4.463
REMARK INTER + INTRA:          -5.551
REMARK INTER:                  -5.551
REMARK INTRA:                   0.000
REMARK UNBOUND:                 0.000
REMARK  Name = /home/vital/Documents/PhD_2021/Malaria_codes/scripts/../data/pdbqt_ligands/ligand_223_temp.pdb
REMARK                            x       y       z     vdW  Elec       q    Type
REMARK                         _______ _______ _______ _____ _____    ______ ____
ROOT
ATOM      1  O1  UNL     1     150.994 161.883 163.730  0.00  0.00    -0.393 OA
ATOM      2  C1  UNL     1     150.084 161.574 162.681  0.00  0.00    +0.060 C 
ATOM      3  C2  UNL     1     150.598 160.396 161.853  0.00  0.00    +0.033 C 
ATOM      4  N1  UNL     1     149.620 160.014 160.844  0.00  0.00    -0.333 N 
ATOM      5  C3  UNL     1     149.972 159.193 159.803  0.00  0.00    +0.083 C 
ATOM      6  N2  UNL     1     151.176 158.920 159.423  0.00  0.00    -0.224 NA
ATOM      7  C4  UNL     1     151.248 158.060 158.351  0.00  0.00    +0.135 C 
ATOM      8  C5  UNL     1     151.346 156.723 158.560  0.00  0.00    +0.062 C 
ATOM      9 CL1  UNL     1     151.398 156.103 160.212  0.00  0.00    -0.084 Cl
ATOM     10  C6  UNL     1     151.379 155.586 157.568  0.00  0.00    +0.005 C 
ATOM     11  C7  UNL     1     151.355 155.854 156.089  0.00  0.00    -0.081 C 
ATOM     12  C8  UNL     1     151.681 156.977 155.432  0.00  0.00    -0.071 C 
ATOM     13  C9  UNL     1     152.151 158.250 156.046  0.00  0.00    +0.029 C 
ATOM     14  N3  UNL     1     151.243 158.650 157.097  0.00  0.00    -0.325 N 
ATOM     15  H   UNL     1     150.653 162.631 164.244  0.00  0.00    +0.000 HD
ATOM     16  H   UNL     1     148.696 160.347 160.909  0.00  0.00    +0.000 HD
ATOM     17  H   UNL     1     150.596 159.369 156.916  0.00  0.00    +0.000 HD
ENDROOT
TORSDOF 0
ENDMDL
