MODEL 1
REMARK VINA RESULT:    -4.713      0.000      0.000
REMARK INTER + INTRA:          -4.713
REMARK INTER:                  -4.713
REMARK INTRA:                   0.000
REMARK UNBOUND:                 0.000
REMARK  Name = /home/vital/Documents/PhD_2021/Malaria_codes/scripts/../data/pdbqt_ligands/ligand_25_temp.pdb
REMARK                            x       y       z     vdW  Elec       q    Type
REMARK                         _______ _______ _______ _____ _____    ______ ____
ROOT
ATOM      1  C1  UNL     1      -2.359   4.996 -20.937  0.00  0.00    -0.018 C 
ATOM      2  S1  UNL     1      -0.897   4.734 -19.906  0.00  0.00    -0.159 S 
ATOM      3  C2  UNL     1      -1.355   5.808 -18.512  0.00  0.00    +0.019 C 
ATOM      4  C3  UNL     1      -0.292   5.800 -17.443  0.00  0.00    -0.033 A 
ATOM      5  C4  UNL     1      -0.360   4.881 -16.382  0.00  0.00    -0.012 A 
ATOM      6  C5  UNL     1       0.643   4.902 -15.433  0.00  0.00    +0.168 A 
ATOM      7  C6  UNL     1       1.698   5.783 -15.500  0.00  0.00    +0.180 A 
ATOM      8  C7  UNL     1       1.797   6.691 -16.533  0.00  0.00    +0.064 A 
ATOM      9 BR1  UNL     1       3.238   7.906 -16.648  0.00  0.00    -0.046 Br
ATOM     10  C8  UNL     1       0.798   6.699 -17.513  0.00  0.00    -0.040 A 
ATOM     11  O1  UNL     1       2.561   5.622 -14.460  0.00  0.00    -0.451 OA
ATOM     12  C9  UNL     1       1.941   4.537 -13.745  0.00  0.00    +0.233 C 
ATOM     13  O2  UNL     1       0.714   4.081 -14.350  0.00  0.00    -0.453 OA
ENDROOT
TORSDOF 0
ENDMDL
MODEL 2
REMARK VINA RESULT:    -4.508      2.933      4.109
REMARK INTER + INTRA:          -4.508
REMARK INTER:                  -4.508
REMARK INTRA:                   0.000
REMARK UNBOUND:                 0.000
REMARK  Name = /home/vital/Documents/PhD_2021/Malaria_codes/scripts/../data/pdbqt_ligands/ligand_25_temp.pdb
REMARK                            x       y       z     vdW  Elec       q    Type
REMARK                         _______ _______ _______ _____ _____    ______ ____
ROOT
ATOM      1  C1  UNL     1       3.819  10.764 -18.456  0.00  0.00    -0.018 C 
ATOM      2  S1  UNL     1       2.769   9.855 -17.299  0.00  0.00    -0.159 S 
ATOM      3  C2  UNL     1       3.108   8.171 -17.894  0.00  0.00    +0.019 C 
ATOM      4  C3  UNL     1       2.347   7.144 -17.095  0.00  0.00    -0.033 A 
ATOM      5  C4  UNL     1       2.930   6.552 -15.963  0.00  0.00    -0.012 A 
ATOM      6  C5  UNL     1       2.190   5.626 -15.253  0.00  0.00    +0.168 A 
ATOM      7  C6  UNL     1       0.910   5.277 -15.617  0.00  0.00    +0.180 A 
ATOM      8  C7  UNL     1       0.306   5.847 -16.719  0.00  0.00    +0.064 A 
ATOM      9 BR1  UNL     1      -1.450   5.387 -17.233  0.00  0.00    -0.046 Br
ATOM     10  C8  UNL     1       1.027   6.789 -17.461  0.00  0.00    -0.040 A 
ATOM     11  O1  UNL     1       0.377   4.349 -14.775  0.00  0.00    -0.451 OA
ATOM     12  C9  UNL     1       1.456   4.167 -13.839  0.00  0.00    +0.233 C 
ATOM     13  O2  UNL     1       2.617   4.966 -14.143  0.00  0.00    -0.453 OA
ENDROOT
TORSDOF 0
ENDMDL
MODEL 3
REMARK VINA RESULT:    -4.484     19.084     21.036
REMARK INTER + INTRA:          -4.484
REMARK INTER:                  -4.484
REMARK INTRA:                   0.000
REMARK UNBOUND:                 0.000
REMARK  Name = /home/vital/Documents/PhD_2021/Malaria_codes/scripts/../data/pdbqt_ligands/ligand_25_temp.pdb
REMARK                            x       y       z     vdW  Elec       q    Type
REMARK                         _______ _______ _______ _____ _____    ______ ____
ROOT
ATOM      1  C1  UNL     1       5.603  -3.268 -31.319  0.00  0.00    -0.018 C 
ATOM      2  S1  UNL     1       4.000  -4.102 -31.377  0.00  0.00    -0.159 S 
ATOM      3  C2  UNL     1       4.180  -4.918 -32.991  0.00  0.00    +0.019 C 
ATOM      4  C3  UNL     1       2.954  -5.726 -33.335  0.00  0.00    -0.033 A 
ATOM      5  C4  UNL     1       2.877  -7.083 -32.981  0.00  0.00    -0.012 A 
ATOM      6  C5  UNL     1       1.729  -7.780 -33.305  0.00  0.00    +0.168 A 
ATOM      7  C6  UNL     1       0.670  -7.187 -33.952  0.00  0.00    +0.180 A 
ATOM      8  C7  UNL     1       0.712  -5.855 -34.307  0.00  0.00    +0.064 A 
ATOM      9 BR1  UNL     1      -0.731  -5.019 -35.190  0.00  0.00    -0.046 Br
ATOM     10  C8  UNL     1       1.860  -5.118 -33.994  0.00  0.00    -0.040 A 
ATOM     11  O1  UNL     1      -0.349  -8.064 -34.168  0.00  0.00    -0.451 OA
ATOM     12  C9  UNL     1       0.181  -9.264 -33.573  0.00  0.00    +0.233 C 
ATOM     13  O2  UNL     1       1.507  -9.095 -33.033  0.00  0.00    -0.453 OA
ENDROOT
TORSDOF 0
ENDMDL
MODEL 4
REMARK VINA RESULT:    -4.484     17.753     19.905
REMARK INTER + INTRA:          -4.484
REMARK INTER:                  -4.484
REMARK INTRA:                   0.000
REMARK UNBOUND:                 0.000
REMARK  Name = /home/vital/Documents/PhD_2021/Malaria_codes/scripts/../data/pdbqt_ligands/ligand_25_temp.pdb
REMARK                            x       y       z     vdW  Elec       q    Type
REMARK                         _______ _______ _______ _____ _____    ______ ____
ROOT
ATOM      1  C1  UNL     1       5.689  -1.339 -29.849  0.00  0.00    -0.018 C 
ATOM      2  S1  UNL     1       4.270  -2.319 -30.390  0.00  0.00    -0.159 S 
ATOM      3  C2  UNL     1       4.949  -2.930 -31.962  0.00  0.00    +0.019 C 
ATOM      4  C3  UNL     1       3.960  -3.815 -32.678  0.00  0.00    -0.033 A 
ATOM      5  C4  UNL     1       3.968  -5.204 -32.467  0.00  0.00    -0.012 A 
ATOM      6  C5  UNL     1       3.034  -5.973 -33.135  0.00  0.00    +0.168 A 
ATOM      7  C6  UNL     1       2.104  -5.422 -33.986  0.00  0.00    +0.180 A 
ATOM      8  C7  UNL     1       2.066  -4.061 -34.208  0.00  0.00    +0.064 A 
ATOM      9 BR1  UNL     1       0.795  -3.284 -35.367  0.00  0.00    -0.046 Br
ATOM     10  C8  UNL     1       2.997  -3.251 -33.548  0.00  0.00    -0.040 A 
ATOM     11  O1  UNL     1       1.291  -6.368 -34.530  0.00  0.00    -0.451 OA
ATOM     12  C9  UNL     1       1.802  -7.566 -33.916  0.00  0.00    +0.233 C 
ATOM     13  O2  UNL     1       2.919  -7.325 -33.037  0.00  0.00    -0.453 OA
ENDROOT
TORSDOF 0
ENDMDL
MODEL 5
REMARK VINA RESULT:    -4.410     10.047     11.055
REMARK INTER + INTRA:          -4.410
REMARK INTER:                  -4.410
REMARK INTRA:                   0.000
REMARK UNBOUND:                 0.000
REMARK  Name = /home/vital/Documents/PhD_2021/Malaria_codes/scripts/../data/pdbqt_ligands/ligand_25_temp.pdb
REMARK                            x       y       z     vdW  Elec       q    Type
REMARK                         _______ _______ _______ _____ _____    ______ ____
ROOT
ATOM      1  C1  UNL     1      -7.844   1.195 -24.802  0.00  0.00    -0.018 C 
ATOM      2  S1  UNL     1      -6.240   0.602 -24.215  0.00  0.00    -0.159 S 
ATOM      3  C2  UNL     1      -6.820  -0.816 -23.236  0.00  0.00    +0.019 C 
ATOM      4  C3  UNL     1      -5.667  -1.546 -22.594  0.00  0.00    -0.033 A 
ATOM      5  C4  UNL     1      -5.052  -2.622 -23.255  0.00  0.00    -0.012 A 
ATOM      6  C5  UNL     1      -3.991  -3.251 -22.634  0.00  0.00    +0.168 A 
ATOM      7  C6  UNL     1      -3.522  -2.855 -21.403  0.00  0.00    +0.180 A 
ATOM      8  C7  UNL     1      -4.099  -1.797 -20.733  0.00  0.00    +0.064 A 
ATOM      9 BR1  UNL     1      -3.468  -1.232 -19.046  0.00  0.00    -0.046 Br
ATOM     10  C8  UNL     1      -5.177  -1.135 -21.332  0.00  0.00    -0.040 A 
ATOM     11  O1  UNL     1      -2.474  -3.619 -20.989  0.00  0.00    -0.451 OA
ATOM     12  C9  UNL     1      -2.329  -4.525 -22.099  0.00  0.00    +0.233 C 
ATOM     13  O2  UNL     1      -3.298  -4.306 -23.144  0.00  0.00    -0.453 OA
ENDROOT
TORSDOF 0
ENDMDL
MODEL 6
REMARK VINA RESULT:    -4.166     19.862     20.465
REMARK INTER + INTRA:          -4.166
REMARK INTER:                  -4.166
REMARK INTRA:                   0.000
REMARK UNBOUND:                 0.000
REMARK  Name = /home/vital/Documents/PhD_2021/Malaria_codes/scripts/../data/pdbqt_ligands/ligand_25_temp.pdb
REMARK                            x       y       z     vdW  Elec       q    Type
REMARK                         _______ _______ _______ _____ _____    ______ ____
ROOT
ATOM      1  C1  UNL     1      -1.355  -0.899 -36.318  0.00  0.00    -0.018 C 
ATOM      2  S1  UNL     1      -0.156  -2.251 -36.274  0.00  0.00    -0.159 S 
ATOM      3  C2  UNL     1      -0.355  -2.729 -34.531  0.00  0.00    +0.019 C 
ATOM      4  C3  UNL     1       0.550  -3.881 -34.174  0.00  0.00    -0.033 A 
ATOM      5  C4  UNL     1       0.093  -5.205 -34.289  0.00  0.00    -0.012 A 
ATOM      6  C5  UNL     1       0.961  -6.228 -33.963  0.00  0.00    +0.168 A 
ATOM      7  C6  UNL     1       2.248  -5.990 -33.539  0.00  0.00    +0.180 A 
ATOM      8  C7  UNL     1       2.729  -4.703 -33.423  0.00  0.00    +0.064 A 
ATOM      9 BR1  UNL     1       4.492  -4.354 -32.848  0.00  0.00    -0.046 Br
ATOM     10  C8  UNL     1       1.877  -3.641 -33.745  0.00  0.00    -0.040 A 
ATOM     11  O1  UNL     1       2.917  -7.146 -33.274  0.00  0.00    -0.451 OA
ATOM     12  C9  UNL     1       1.915  -8.131 -33.593  0.00  0.00    +0.233 C 
ATOM     13  O2  UNL     1       0.664  -7.555 -34.020  0.00  0.00    -0.453 OA
ENDROOT
TORSDOF 0
ENDMDL
MODEL 7
REMARK VINA RESULT:    -4.093     12.728     13.167
REMARK INTER + INTRA:          -4.093
REMARK INTER:                  -4.093
REMARK INTRA:                   0.000
REMARK UNBOUND:                 0.000
REMARK  Name = /home/vital/Documents/PhD_2021/Malaria_codes/scripts/../data/pdbqt_ligands/ligand_25_temp.pdb
REMARK                            x       y       z     vdW  Elec       q    Type
REMARK                         _______ _______ _______ _____ _____    ______ ____
ROOT
ATOM      1  C1  UNL     1       2.737  -2.900 -19.362  0.00  0.00    -0.018 C 
ATOM      2  S1  UNL     1       3.475  -2.618 -20.987  0.00  0.00    -0.159 S 
ATOM      3  C2  UNL     1       4.907  -3.727 -20.828  0.00  0.00    +0.019 C 
ATOM      4  C3  UNL     1       5.752  -3.713 -22.076  0.00  0.00    -0.033 A 
ATOM      5  C4  UNL     1       5.514  -4.639 -23.105  0.00  0.00    -0.012 A 
ATOM      6  C5  UNL     1       6.305  -4.580 -24.236  0.00  0.00    +0.168 A 
ATOM      7  C6  UNL     1       7.304  -3.645 -24.383  0.00  0.00    +0.180 A 
ATOM      8  C7  UNL     1       7.557  -2.717 -23.395  0.00  0.00    +0.064 A 
ATOM      9 BR1  UNL     1       8.919  -1.423 -23.578  0.00  0.00    -0.046 Br
ATOM     10  C8  UNL     1       6.775  -2.748 -22.235  0.00  0.00    -0.040 A 
ATOM     11  O1  UNL     1       7.951  -3.777 -25.574  0.00  0.00    -0.451 OA
ATOM     12  C9  UNL     1       7.239  -4.883 -26.160  0.00  0.00    +0.233 C 
ATOM     13  O2  UNL     1       6.199  -5.408 -25.311  0.00  0.00    -0.453 OA
ENDROOT
TORSDOF 0
ENDMDL
MODEL 8
REMARK VINA RESULT:    -4.029     13.518     13.955
REMARK INTER + INTRA:          -4.029
REMARK INTER:                  -4.029
REMARK INTRA:                   0.000
REMARK UNBOUND:                 0.000
REMARK  Name = /home/vital/Documents/PhD_2021/Malaria_codes/scripts/../data/pdbqt_ligands/ligand_25_temp.pdb
REMARK                            x       y       z     vdW  Elec       q    Type
REMARK                         _______ _______ _______ _____ _____    ______ ____
ROOT
ATOM      1  C1  UNL     1      11.046   0.695 -25.375  0.00  0.00    -0.018 C 
ATOM      2  S1  UNL     1       9.396  -0.039 -25.300  0.00  0.00    -0.159 S 
ATOM      3  C2  UNL     1       9.842  -1.628 -24.538  0.00  0.00    +0.019 C 
ATOM      4  C3  UNL     1       8.628  -2.499 -24.337  0.00  0.00    -0.033 A 
ATOM      5  C4  UNL     1       7.913  -2.451 -23.129  0.00  0.00    -0.012 A 
ATOM      6  C5  UNL     1       6.799  -3.256 -22.994  0.00  0.00    +0.168 A 
ATOM      7  C6  UNL     1       6.373  -4.092 -24.001  0.00  0.00    +0.180 A 
ATOM      8  C7  UNL     1       7.050  -4.156 -25.201  0.00  0.00    +0.064 A 
ATOM      9 BR1  UNL     1       6.480  -5.291 -26.598  0.00  0.00    -0.046 Br
ATOM     10  C8  UNL     1       8.183  -3.354 -25.373  0.00  0.00    -0.040 A 
ATOM     11  O1  UNL     1       5.259  -4.789 -23.645  0.00  0.00    -0.451 OA
ATOM     12  C9  UNL     1       5.027  -4.289 -22.315  0.00  0.00    +0.233 C 
ATOM     13  O2  UNL     1       6.009  -3.323 -21.888  0.00  0.00    -0.453 OA
ENDROOT
TORSDOF 0
ENDMDL
