MODEL 1
REMARK VINA RESULT:    -6.227      0.000      0.000
REMARK INTER + INTRA:          -6.227
REMARK INTER:                  -6.227
REMARK INTRA:                   0.000
REMARK UNBOUND:                 0.000
REMARK  Name = /home/vital/Documents/PhD_2021/Malaria_codes/scripts/../data/pdbqt_ligands/ligand_256_temp.pdb
REMARK                            x       y       z     vdW  Elec       q    Type
REMARK                         _______ _______ _______ _____ _____    ______ ____
ROOT
ATOM      1  C1  UNL     1      11.737   4.030 -30.903  0.00  0.00    +0.000 C 
ATOM      2  C2  UNL     1      11.139   2.649 -30.870  0.00  0.00    +0.179 C 
ATOM      3  O1  UNL     1      11.792   1.736 -30.358  0.00  0.00    -0.291 OA
ATOM      4  C3  UNL     1       9.799   2.400 -31.440  0.00  0.00    +0.118 A 
ATOM      5  C4  UNL     1       8.937   3.301 -32.058  0.00  0.00    +0.019 A 
ATOM      6  C5  UNL     1       9.052   4.758 -32.347  0.00  0.00    -0.031 C 
ATOM      7  S1  UNL     1       7.502   2.481 -32.550  0.00  0.00    -0.057 S 
ATOM      8  C6  UNL     1       8.095   1.031 -31.909  0.00  0.00    +0.166 A 
ATOM      9  N1  UNL     1       7.421  -0.160 -31.962  0.00  0.00    -0.248 N 
ATOM     10  C7  UNL     1       6.112  -0.362 -32.354  0.00  0.00    +0.310 C 
ATOM     11  O2  UNL     1       5.325   0.520 -32.668  0.00  0.00    -0.252 OA
ATOM     12  N2  UNL     1       5.820  -1.722 -32.345  0.00  0.00    -0.269 N 
ATOM     13  C8  UNL     1       4.576  -2.354 -32.586  0.00  0.00    +0.038 A 
ATOM     14  C9  UNL     1       3.380  -1.636 -32.711  0.00  0.00    -0.037 A 
ATOM     15  C10 UNL     1       2.155  -2.284 -32.931  0.00  0.00    -0.049 A 
ATOM     16  C11 UNL     1       0.896  -1.486 -33.097  0.00  0.00    -0.040 C 
ATOM     17  C12 UNL     1       2.133  -3.674 -33.049  0.00  0.00    -0.058 A 
ATOM     18  C13 UNL     1       3.311  -4.406 -32.919  0.00  0.00    -0.057 A 
ATOM     19  C14 UNL     1       4.539  -3.763 -32.681  0.00  0.00    -0.029 A 
ATOM     20  C15 UNL     1       5.773  -4.617 -32.549  0.00  0.00    -0.038 C 
ATOM     21  N3  UNL     1       9.287   1.098 -31.375  0.00  0.00    -0.221 NA
ATOM     22  H   UNL     1       7.925  -0.960 -31.691  0.00  0.00    +0.000 HD
ATOM     23  H   UNL     1       6.575  -2.321 -32.145  0.00  0.00    +0.000 HD
ENDROOT
TORSDOF 0
ENDMDL
MODEL 2
REMARK VINA RESULT:    -6.120     11.283     13.903
REMARK INTER + INTRA:          -6.120
REMARK INTER:                  -6.120
REMARK INTRA:                   0.000
REMARK UNBOUND:                 0.000
REMARK  Name = /home/vital/Documents/PhD_2021/Malaria_codes/scripts/../data/pdbqt_ligands/ligand_256_temp.pdb
REMARK                            x       y       z     vdW  Elec       q    Type
REMARK                         _______ _______ _______ _____ _____    ______ ____
ROOT
ATOM      1  C1  UNL     1      -0.621  -7.967 -31.466  0.00  0.00    +0.000 C 
ATOM      2  C2  UNL     1      -0.326  -7.479 -30.073  0.00  0.00    +0.179 C 
ATOM      3  O1  UNL     1       0.835  -7.548 -29.658  0.00  0.00    -0.291 OA
ATOM      4  C3  UNL     1      -1.406  -6.932 -29.227  0.00  0.00    +0.118 A 
ATOM      5  C4  UNL     1      -2.757  -6.791 -29.527  0.00  0.00    +0.019 A 
ATOM      6  C5  UNL     1      -3.552  -7.123 -30.744  0.00  0.00    -0.031 C 
ATOM      7  S1  UNL     1      -3.579  -6.102 -28.177  0.00  0.00    -0.057 S 
ATOM      8  C6  UNL     1      -2.124  -6.021 -27.317  0.00  0.00    +0.166 A 
ATOM      9  N1  UNL     1      -2.019  -5.546 -26.036  0.00  0.00    -0.248 N 
ATOM     10  C7  UNL     1      -2.994  -4.895 -25.304  0.00  0.00    +0.310 C 
ATOM     11  O2  UNL     1      -4.103  -4.591 -25.719  0.00  0.00    -0.252 OA
ATOM     12  N2  UNL     1      -2.528  -4.640 -24.019  0.00  0.00    -0.269 N 
ATOM     13  C8  UNL     1      -3.164  -3.915 -22.982  0.00  0.00    +0.038 A 
ATOM     14  C9  UNL     1      -4.340  -3.183 -23.190  0.00  0.00    -0.037 A 
ATOM     15  C10 UNL     1      -4.946  -2.456 -22.153  0.00  0.00    -0.049 A 
ATOM     16  C11 UNL     1      -6.225  -1.711 -22.398  0.00  0.00    -0.040 C 
ATOM     17  C12 UNL     1      -4.372  -2.480 -20.882  0.00  0.00    -0.058 A 
ATOM     18  C13 UNL     1      -3.198  -3.195 -20.658  0.00  0.00    -0.057 A 
ATOM     19  C14 UNL     1      -2.578  -3.912 -21.698  0.00  0.00    -0.029 A 
ATOM     20  C15 UNL     1      -1.309  -4.661 -21.384  0.00  0.00    -0.038 C 
ATOM     21  N3  UNL     1      -1.073  -6.484 -27.942  0.00  0.00    -0.221 NA
ATOM     22  H   UNL     1      -1.154  -5.684 -25.587  0.00  0.00    +0.000 HD
ATOM     23  H   UNL     1      -1.642  -5.011 -23.801  0.00  0.00    +0.000 HD
ENDROOT
TORSDOF 0
ENDMDL
MODEL 3
REMARK VINA RESULT:    -6.101      6.193      9.521
REMARK INTER + INTRA:          -6.101
REMARK INTER:                  -6.101
REMARK INTRA:                   0.000
REMARK UNBOUND:                 0.000
REMARK  Name = /home/vital/Documents/PhD_2021/Malaria_codes/scripts/../data/pdbqt_ligands/ligand_256_temp.pdb
REMARK                            x       y       z     vdW  Elec       q    Type
REMARK                         _______ _______ _______ _____ _____    ______ ____
ROOT
ATOM      1  C1  UNL     1       1.500  -5.702 -33.353  0.00  0.00    +0.000 C 
ATOM      2  C2  UNL     1       1.927  -5.874 -31.920  0.00  0.00    +0.179 C 
ATOM      3  O1  UNL     1       1.438  -6.800 -31.266  0.00  0.00    -0.291 OA
ATOM      4  C3  UNL     1       2.909  -4.951 -31.315  0.00  0.00    +0.118 A 
ATOM      5  C4  UNL     1       3.546  -3.859 -31.897  0.00  0.00    +0.019 A 
ATOM      6  C5  UNL     1       3.469  -3.266 -33.263  0.00  0.00    -0.031 C 
ATOM      7  S1  UNL     1       4.592  -3.119 -30.742  0.00  0.00    -0.057 S 
ATOM      8  C6  UNL     1       4.156  -4.277 -29.588  0.00  0.00    +0.166 A 
ATOM      9  N1  UNL     1       4.638  -4.296 -28.306  0.00  0.00    -0.248 N 
ATOM     10  C7  UNL     1       5.667  -3.532 -27.789  0.00  0.00    +0.310 C 
ATOM     11  O2  UNL     1       6.351  -2.745 -28.427  0.00  0.00    -0.252 OA
ATOM     12  N2  UNL     1       5.806  -3.786 -26.428  0.00  0.00    -0.269 N 
ATOM     13  C8  UNL     1       6.791  -3.291 -25.539  0.00  0.00    +0.038 A 
ATOM     14  C9  UNL     1       7.908  -2.571 -25.982  0.00  0.00    -0.037 A 
ATOM     15  C10 UNL     1       8.883  -2.105 -25.085  0.00  0.00    -0.049 A 
ATOM     16  C11 UNL     1      10.050  -1.306 -25.585  0.00  0.00    -0.040 C 
ATOM     17  C12 UNL     1       8.723  -2.348 -23.722  0.00  0.00    -0.058 A 
ATOM     18  C13 UNL     1       7.623  -3.069 -23.264  0.00  0.00    -0.057 A 
ATOM     19  C14 UNL     1       6.652  -3.554 -24.159  0.00  0.00    -0.029 A 
ATOM     20  C15 UNL     1       5.490  -4.327 -23.594  0.00  0.00    -0.038 C 
ATOM     21  N3  UNL     1       3.278  -5.162 -29.981  0.00  0.00    -0.221 NA
ATOM     22  H   UNL     1       4.204  -4.923 -27.684  0.00  0.00    +0.000 HD
ATOM     23  H   UNL     1       5.134  -4.387 -26.032  0.00  0.00    +0.000 HD
ENDROOT
TORSDOF 0
ENDMDL
MODEL 4
REMARK VINA RESULT:    -6.061     15.031     15.245
REMARK INTER + INTRA:          -6.061
REMARK INTER:                  -6.061
REMARK INTRA:                   0.000
REMARK UNBOUND:                 0.000
REMARK  Name = /home/vital/Documents/PhD_2021/Malaria_codes/scripts/../data/pdbqt_ligands/ligand_256_temp.pdb
REMARK                            x       y       z     vdW  Elec       q    Type
REMARK                         _______ _______ _______ _____ _____    ______ ____
ROOT
ATOM      1  C1  UNL     1       1.391   6.269 -16.992  0.00  0.00    +0.000 C 
ATOM      2  C2  UNL     1       0.760   4.907 -17.103  0.00  0.00    +0.179 C 
ATOM      3  O1  UNL     1       0.960   4.089 -16.200  0.00  0.00    -0.291 OA
ATOM      4  C3  UNL     1      -0.078   4.563 -18.270  0.00  0.00    +0.118 A 
ATOM      5  C4  UNL     1      -0.398   5.351 -19.372  0.00  0.00    +0.019 A 
ATOM      6  C5  UNL     1      -0.028   6.745 -19.745  0.00  0.00    -0.031 C 
ATOM      7  S1  UNL     1      -1.405   4.456 -20.448  0.00  0.00    -0.057 S 
ATOM      8  C6  UNL     1      -1.367   3.128 -19.399  0.00  0.00    +0.166 A 
ATOM      9  N1  UNL     1      -2.001   1.940 -19.648  0.00  0.00    -0.248 N 
ATOM     10  C7  UNL     1      -2.906   1.671 -20.657  0.00  0.00    +0.310 C 
ATOM     11  O2  UNL     1      -3.327   2.488 -21.464  0.00  0.00    -0.252 OA
ATOM     12  N2  UNL     1      -3.265   0.328 -20.624  0.00  0.00    -0.269 N 
ATOM     13  C8  UNL     1      -4.231  -0.342 -21.413  0.00  0.00    +0.038 A 
ATOM     14  C9  UNL     1      -5.110   0.340 -22.264  0.00  0.00    -0.037 A 
ATOM     15  C10 UNL     1      -6.073  -0.342 -23.025  0.00  0.00    -0.049 A 
ATOM     16  C11 UNL     1      -6.977   0.414 -23.954  0.00  0.00    -0.040 C 
ATOM     17  C12 UNL     1      -6.140  -1.732 -22.947  0.00  0.00    -0.058 A 
ATOM     18  C13 UNL     1      -5.279  -2.428 -22.100  0.00  0.00    -0.057 A 
ATOM     19  C14 UNL     1      -4.324  -1.749 -21.323  0.00  0.00    -0.029 A 
ATOM     20  C15 UNL     1      -3.428  -2.564 -20.428  0.00  0.00    -0.038 C 
ATOM     21  N3  UNL     1      -0.648   3.284 -18.318  0.00  0.00    -0.221 NA
ATOM     22  H   UNL     1      -1.787   1.194 -19.042  0.00  0.00    +0.000 HD
ATOM     23  H   UNL     1      -2.787  -0.229 -19.967  0.00  0.00    +0.000 HD
ENDROOT
TORSDOF 0
ENDMDL
MODEL 5
REMARK VINA RESULT:    -6.049     12.827     13.870
REMARK INTER + INTRA:          -6.049
REMARK INTER:                  -6.049
REMARK INTRA:                   0.000
REMARK UNBOUND:                 0.000
REMARK  Name = /home/vital/Documents/PhD_2021/Malaria_codes/scripts/../data/pdbqt_ligands/ligand_256_temp.pdb
REMARK                            x       y       z     vdW  Elec       q    Type
REMARK                         _______ _______ _______ _____ _____    ______ ____
ROOT
ATOM      1  C1  UNL     1       5.652  -1.776 -19.305  0.00  0.00    +0.000 C 
ATOM      2  C2  UNL     1       4.256  -1.214 -19.280  0.00  0.00    +0.179 C 
ATOM      3  O1  UNL     1       4.057  -0.156 -18.675  0.00  0.00    -0.291 OA
ATOM      4  C3  UNL     1       3.153  -1.917 -19.966  0.00  0.00    +0.118 A 
ATOM      5  C4  UNL     1       3.196  -3.112 -20.679  0.00  0.00    +0.019 A 
ATOM      6  C5  UNL     1       4.310  -4.053 -20.988  0.00  0.00    -0.031 C 
ATOM      7  S1  UNL     1       1.620  -3.489 -21.268  0.00  0.00    -0.057 S 
ATOM      8  C6  UNL     1       1.008  -2.072 -20.574  0.00  0.00    +0.166 A 
ATOM      9  N1  UNL     1      -0.307  -1.697 -20.638  0.00  0.00    -0.248 N 
ATOM     10  C7  UNL     1      -1.303  -2.271 -21.405  0.00  0.00    +0.310 C 
ATOM     11  O2  UNL     1      -1.143  -3.186 -22.200  0.00  0.00    -0.252 OA
ATOM     12  N2  UNL     1      -2.521  -1.655 -21.134  0.00  0.00    -0.269 N 
ATOM     13  C8  UNL     1      -3.772  -1.870 -21.764  0.00  0.00    +0.038 A 
ATOM     14  C9  UNL     1      -3.908  -2.658 -22.913  0.00  0.00    -0.037 A 
ATOM     15  C10 UNL     1      -5.155  -2.843 -23.532  0.00  0.00    -0.049 A 
ATOM     16  C11 UNL     1      -5.276  -3.722 -24.742  0.00  0.00    -0.040 C 
ATOM     17  C12 UNL     1      -6.285  -2.245 -22.976  0.00  0.00    -0.058 A 
ATOM     18  C13 UNL     1      -6.167  -1.450 -21.837  0.00  0.00    -0.057 A 
ATOM     19  C14 UNL     1      -4.918  -1.247 -21.223  0.00  0.00    -0.029 A 
ATOM     20  C15 UNL     1      -4.865  -0.375 -19.997  0.00  0.00    -0.038 C 
ATOM     21  N3  UNL     1       1.876  -1.346 -19.918  0.00  0.00    -0.221 NA
ATOM     22  H   UNL     1      -0.573  -0.934 -20.075  0.00  0.00    +0.000 HD
ATOM     23  H   UNL     1      -2.513  -0.985 -20.413  0.00  0.00    +0.000 HD
ENDROOT
TORSDOF 0
ENDMDL
MODEL 6
REMARK VINA RESULT:    -5.898     14.660     16.152
REMARK INTER + INTRA:          -5.898
REMARK INTER:                  -5.898
REMARK INTRA:                   0.000
REMARK UNBOUND:                 0.000
REMARK  Name = /home/vital/Documents/PhD_2021/Malaria_codes/scripts/../data/pdbqt_ligands/ligand_256_temp.pdb
REMARK                            x       y       z     vdW  Elec       q    Type
REMARK                         _______ _______ _______ _____ _____    ______ ____
ROOT
ATOM      1  C1  UNL     1      -9.211   5.226 -26.645  0.00  0.00    +0.000 C 
ATOM      2  C2  UNL     1      -8.748   4.529 -25.394  0.00  0.00    +0.179 C 
ATOM      3  O1  UNL     1      -9.168   4.932 -24.305  0.00  0.00    -0.291 OA
ATOM      4  C3  UNL     1      -7.813   3.388 -25.475  0.00  0.00    +0.118 A 
ATOM      5  C4  UNL     1      -7.239   2.814 -26.605  0.00  0.00    +0.019 A 
ATOM      6  C5  UNL     1      -7.359   3.129 -28.057  0.00  0.00    -0.031 C 
ATOM      7  S1  UNL     1      -6.213   1.512 -26.133  0.00  0.00    -0.057 S 
ATOM      8  C6  UNL     1      -6.604   1.776 -24.508  0.00  0.00    +0.166 A 
ATOM      9  N1  UNL     1      -6.089   1.046 -23.470  0.00  0.00    -0.248 N 
ATOM     10  C7  UNL     1      -5.340  -0.112 -23.554  0.00  0.00    +0.310 C 
ATOM     11  O2  UNL     1      -5.065  -0.701 -24.589  0.00  0.00    -0.252 OA
ATOM     12  N2  UNL     1      -4.939  -0.508 -22.282  0.00  0.00    -0.269 N 
ATOM     13  C8  UNL     1      -4.241  -1.683 -21.908  0.00  0.00    +0.038 A 
ATOM     14  C9  UNL     1      -3.998  -2.730 -22.806  0.00  0.00    -0.037 A 
ATOM     15  C10 UNL     1      -3.320  -3.894 -22.410  0.00  0.00    -0.049 A 
ATOM     16  C11 UNL     1      -3.043  -4.983 -23.403  0.00  0.00    -0.040 C 
ATOM     17  C12 UNL     1      -2.861  -3.999 -21.097  0.00  0.00    -0.058 A 
ATOM     18  C13 UNL     1      -3.101  -2.971 -20.188  0.00  0.00    -0.057 A 
ATOM     19  C14 UNL     1      -3.795  -1.810 -20.574  0.00  0.00    -0.029 A 
ATOM     20  C15 UNL     1      -4.020  -0.741 -19.538  0.00  0.00    -0.038 C 
ATOM     21  N3  UNL     1      -7.422   2.770 -24.280  0.00  0.00    -0.221 NA
ATOM     22  H   UNL     1      -6.272   1.384 -22.564  0.00  0.00    +0.000 HD
ATOM     23  H   UNL     1      -5.169   0.106 -21.548  0.00  0.00    +0.000 HD
ENDROOT
TORSDOF 0
ENDMDL
MODEL 7
REMARK VINA RESULT:    -5.875      5.046      8.810
REMARK INTER + INTRA:          -5.875
REMARK INTER:                  -5.875
REMARK INTRA:                   0.000
REMARK UNBOUND:                 0.000
REMARK  Name = /home/vital/Documents/PhD_2021/Malaria_codes/scripts/../data/pdbqt_ligands/ligand_256_temp.pdb
REMARK                            x       y       z     vdW  Elec       q    Type
REMARK                         _______ _______ _______ _____ _____    ______ ____
ROOT
ATOM      1  C1  UNL     1       0.471  -4.445 -35.018  0.00  0.00    +0.000 C 
ATOM      2  C2  UNL     1       1.362  -5.024 -33.952  0.00  0.00    +0.179 C 
ATOM      3  O1  UNL     1       1.538  -6.246 -33.930  0.00  0.00    -0.291 OA
ATOM      4  C3  UNL     1       2.008  -4.144 -32.958  0.00  0.00    +0.118 A 
ATOM      5  C4  UNL     1       1.914  -2.761 -32.830  0.00  0.00    +0.019 A 
ATOM      6  C5  UNL     1       1.168  -1.733 -33.611  0.00  0.00    -0.031 C 
ATOM      7  S1  UNL     1       2.865  -2.239 -31.490  0.00  0.00    -0.057 S 
ATOM      8  C6  UNL     1       3.342  -3.835 -31.191  0.00  0.00    +0.166 A 
ATOM      9  N1  UNL     1       4.168  -4.205 -30.163  0.00  0.00    -0.248 N 
ATOM     10  C7  UNL     1       4.892  -3.372 -29.332  0.00  0.00    +0.310 C 
ATOM     11  O2  UNL     1       4.946  -2.154 -29.427  0.00  0.00    -0.252 OA
ATOM     12  N2  UNL     1       5.549  -4.125 -28.364  0.00  0.00    -0.269 N 
ATOM     13  C8  UNL     1       6.467  -3.682 -27.381  0.00  0.00    +0.038 A 
ATOM     14  C9  UNL     1       6.979  -2.378 -27.365  0.00  0.00    -0.037 A 
ATOM     15  C10 UNL     1       7.902  -1.964 -26.391  0.00  0.00    -0.049 A 
ATOM     16  C11 UNL     1       8.406  -0.551 -26.379  0.00  0.00    -0.040 C 
ATOM     17  C12 UNL     1       8.300  -2.867 -25.406  0.00  0.00    -0.058 A 
ATOM     18  C13 UNL     1       7.807  -4.170 -25.410  0.00  0.00    -0.057 A 
ATOM     19  C14 UNL     1       6.896  -4.595 -26.393  0.00  0.00    -0.029 A 
ATOM     20  C15 UNL     1       6.406  -6.018 -26.338  0.00  0.00    -0.038 C 
ATOM     21  N3  UNL     1       2.835  -4.734 -31.993  0.00  0.00    -0.221 NA
ATOM     22  H   UNL     1       4.256  -5.171 -29.998  0.00  0.00    +0.000 HD
ATOM     23  H   UNL     1       5.351  -5.089 -28.363  0.00  0.00    +0.000 HD
ENDROOT
TORSDOF 0
ENDMDL
MODEL 8
REMARK VINA RESULT:    -5.874     14.997     17.349
REMARK INTER + INTRA:          -5.874
REMARK INTER:                  -5.874
REMARK INTRA:                   0.000
REMARK UNBOUND:                 0.000
REMARK  Name = /home/vital/Documents/PhD_2021/Malaria_codes/scripts/../data/pdbqt_ligands/ligand_256_temp.pdb
REMARK                            x       y       z     vdW  Elec       q    Type
REMARK                         _______ _______ _______ _____ _____    ______ ____
ROOT
ATOM      1  C1  UNL     1      -5.989  -2.223 -23.314  0.00  0.00    +0.000 C 
ATOM      2  C2  UNL     1      -5.697  -0.804 -22.908  0.00  0.00    +0.179 C 
ATOM      3  O1  UNL     1      -6.477   0.084 -23.266  0.00  0.00    -0.291 OA
ATOM      4  C3  UNL     1      -4.503  -0.487 -22.099  0.00  0.00    +0.118 A 
ATOM      5  C4  UNL     1      -3.523  -1.353 -21.621  0.00  0.00    +0.019 A 
ATOM      6  C5  UNL     1      -3.342  -2.827 -21.749  0.00  0.00    -0.031 C 
ATOM      7  S1  UNL     1      -2.343  -0.459 -20.737  0.00  0.00    -0.057 S 
ATOM      8  C6  UNL     1      -3.199   0.974 -21.022  0.00  0.00    +0.166 A 
ATOM      9  N1  UNL     1      -2.793   2.205 -20.580  0.00  0.00    -0.248 N 
ATOM     10  C7  UNL     1      -1.766   2.480 -19.699  0.00  0.00    +0.310 C 
ATOM     11  O2  UNL     1      -1.084   1.642 -19.126  0.00  0.00    -0.252 OA
ATOM     12  N2  UNL     1      -1.617   3.857 -19.562  0.00  0.00    -0.269 N 
ATOM     13  C8  UNL     1      -0.752   4.563 -18.691  0.00  0.00    +0.038 A 
ATOM     14  C9  UNL     1      -0.012   3.926 -17.687  0.00  0.00    -0.037 A 
ATOM     15  C10 UNL     1       0.826   4.647 -16.822  0.00  0.00    -0.049 A 
ATOM     16  C11 UNL     1       1.633   3.932 -15.780  0.00  0.00    -0.040 C 
ATOM     17  C12 UNL     1       0.941   6.028 -16.983  0.00  0.00    -0.058 A 
ATOM     18  C13 UNL     1       0.206   6.680 -17.971  0.00  0.00    -0.057 A 
ATOM     19  C14 UNL     1      -0.648   5.965 -18.829  0.00  0.00    -0.029 A 
ATOM     20  C15 UNL     1      -1.413   6.736 -19.873  0.00  0.00    -0.038 C 
ATOM     21  N3  UNL     1      -4.283   0.849 -21.741  0.00  0.00    -0.221 NA
ATOM     22  H   UNL     1      -3.289   2.981 -20.930  0.00  0.00    +0.000 HD
ATOM     23  H   UNL     1      -2.186   4.410 -20.144  0.00  0.00    +0.000 HD
ENDROOT
TORSDOF 0
ENDMDL
MODEL 9
REMARK VINA RESULT:    -5.808      5.685      6.588
REMARK INTER + INTRA:          -5.808
REMARK INTER:                  -5.808
REMARK INTRA:                   0.000
REMARK UNBOUND:                 0.000
REMARK  Name = /home/vital/Documents/PhD_2021/Malaria_codes/scripts/../data/pdbqt_ligands/ligand_256_temp.pdb
REMARK                            x       y       z     vdW  Elec       q    Type
REMARK                         _______ _______ _______ _____ _____    ______ ____
ROOT
ATOM      1  C1  UNL     1       8.864  -2.310 -24.191  0.00  0.00    +0.000 C 
ATOM      2  C2  UNL     1       8.401  -2.193 -25.619  0.00  0.00    +0.179 C 
ATOM      3  O1  UNL     1       9.020  -1.442 -26.379  0.00  0.00    -0.291 OA
ATOM      4  C3  UNL     1       7.233  -2.962 -26.093  0.00  0.00    +0.118 A 
ATOM      5  C4  UNL     1       6.422  -3.839 -25.378  0.00  0.00    +0.019 A 
ATOM      6  C5  UNL     1       6.445  -4.289 -23.958  0.00  0.00    -0.031 C 
ATOM      7  S1  UNL     1       5.192  -4.461 -26.414  0.00  0.00    -0.057 S 
ATOM      8  C6  UNL     1       5.813  -3.567 -27.710  0.00  0.00    +0.166 A 
ATOM      9  N1  UNL     1       5.268  -3.565 -28.966  0.00  0.00    -0.248 N 
ATOM     10  C7  UNL     1       4.276  -4.397 -29.448  0.00  0.00    +0.310 C 
ATOM     11  O2  UNL     1       3.762  -5.316 -28.826  0.00  0.00    -0.252 OA
ATOM     12  N2  UNL     1       3.942  -4.030 -30.748  0.00  0.00    -0.269 N 
ATOM     13  C8  UNL     1       3.048  -4.672 -31.639  0.00  0.00    +0.038 A 
ATOM     14  C9  UNL     1       2.479  -5.922 -31.360  0.00  0.00    -0.037 A 
ATOM     15  C10 UNL     1       1.608  -6.549 -32.265  0.00  0.00    -0.049 A 
ATOM     16  C11 UNL     1       0.985  -7.871 -31.923  0.00  0.00    -0.040 C 
ATOM     17  C12 UNL     1       1.288  -5.903 -33.459  0.00  0.00    -0.058 A 
ATOM     18  C13 UNL     1       1.851  -4.664 -33.757  0.00  0.00    -0.057 A 
ATOM     19  C14 UNL     1       2.737  -4.038 -32.862  0.00  0.00    -0.029 A 
ATOM     20  C15 UNL     1       3.310  -2.701 -33.250  0.00  0.00    -0.038 C 
ATOM     21  N3  UNL     1       6.852  -2.822 -27.434  0.00  0.00    -0.221 NA
ATOM     22  H   UNL     1       5.623  -2.896 -29.596  0.00  0.00    +0.000 HD
ATOM     23  H   UNL     1       4.385  -3.221 -31.093  0.00  0.00    +0.000 HD
ENDROOT
TORSDOF 0
ENDMDL
