MODEL 1
REMARK VINA RESULT:    -6.275      0.000      0.000
REMARK INTER + INTRA:          -6.275
REMARK INTER:                  -6.275
REMARK INTRA:                   0.000
REMARK UNBOUND:                 0.000
REMARK  Name = /home/vital/Documents/PhD_2021/Malaria_codes/scripts/../data/pdbqt_ligands/ligand_136_temp.pdb
REMARK                            x       y       z     vdW  Elec       q    Type
REMARK                         _______ _______ _______ _____ _____    ______ ____
ROOT
ATOM      1  F1  UNL     1       0.827  -9.303 -32.461  0.00  0.00    -0.143 F 
ATOM      2  C1  UNL     1       1.619  -8.267 -32.780  0.00  0.00    +0.110 C 
ATOM      3  C2  UNL     1       2.327  -7.340 -33.064  0.00  0.00    -0.039 C 
ATOM      4  C3  UNL     1       3.162  -6.242 -33.410  0.00  0.00    -0.009 C 
ATOM      5  C4  UNL     1       4.025  -5.716 -32.530  0.00  0.00    -0.054 C 
ATOM      6  C5  UNL     1       4.886  -4.600 -32.851  0.00  0.00    -0.062 C 
ATOM      7  C6  UNL     1       5.774  -4.012 -32.033  0.00  0.00    -0.047 C 
ATOM      8  C7  UNL     1       6.104  -4.340 -30.609  0.00  0.00    +0.109 C 
ATOM      9  O1  UNL     1       5.938  -3.134 -29.850  0.00  0.00    -0.478 OA
ATOM     10  C8  UNL     1       6.196  -3.233 -28.526  0.00  0.00    +0.176 C 
ATOM     11  N1  UNL     1       6.584  -4.319 -27.954  0.00  0.00    -0.220 NA
ATOM     12  C9  UNL     1       6.799  -4.221 -26.573  0.00  0.00    +0.067 A 
ATOM     13  C10 UNL     1       5.761  -4.484 -25.675  0.00  0.00    -0.036 A 
ATOM     14  C11 UNL     1       5.977  -4.397 -24.299  0.00  0.00    -0.060 A 
ATOM     15  C12 UNL     1       7.239  -4.056 -23.813  0.00  0.00    -0.062 A 
ATOM     16  C13 UNL     1       8.284  -3.809 -24.701  0.00  0.00    -0.060 A 
ATOM     17  C14 UNL     1       8.065  -3.897 -26.078  0.00  0.00    -0.036 A 
ENDROOT
TORSDOF 0
ENDMDL
MODEL 2
REMARK VINA RESULT:    -6.155     13.702     16.906
REMARK INTER + INTRA:          -6.155
REMARK INTER:                  -6.155
REMARK INTRA:                   0.000
REMARK UNBOUND:                 0.000
REMARK  Name = /home/vital/Documents/PhD_2021/Malaria_codes/scripts/../data/pdbqt_ligands/ligand_136_temp.pdb
REMARK                            x       y       z     vdW  Elec       q    Type
REMARK                         _______ _______ _______ _____ _____    ______ ____
ROOT
ATOM      1  F1  UNL     1       1.872   3.895 -13.267  0.00  0.00    -0.143 F 
ATOM      2  C1  UNL     1       1.132   4.519 -14.196  0.00  0.00    +0.110 C 
ATOM      3  C2  UNL     1       0.469   5.077 -15.028  0.00  0.00    -0.039 C 
ATOM      4  C3  UNL     1      -0.311   5.746 -16.010  0.00  0.00    -0.009 C 
ATOM      5  C4  UNL     1      -1.116   5.070 -16.843  0.00  0.00    -0.054 C 
ATOM      6  C5  UNL     1      -1.921   5.722 -17.852  0.00  0.00    -0.062 C 
ATOM      7  C6  UNL     1      -2.748   5.124 -18.725  0.00  0.00    -0.047 C 
ATOM      8  C7  UNL     1      -3.052   3.666 -18.888  0.00  0.00    +0.109 C 
ATOM      9  O1  UNL     1      -2.793   3.334 -20.260  0.00  0.00    -0.478 OA
ATOM     10  C8  UNL     1      -3.016   2.044 -20.604  0.00  0.00    +0.176 C 
ATOM     11  N1  UNL     1      -3.447   1.152 -19.784  0.00  0.00    -0.220 NA
ATOM     12  C9  UNL     1      -3.614  -0.128 -20.329  0.00  0.00    +0.067 A 
ATOM     13  C10 UNL     1      -2.565  -1.051 -20.299  0.00  0.00    -0.036 A 
ATOM     14  C11 UNL     1      -2.734  -2.330 -20.833  0.00  0.00    -0.060 A 
ATOM     15  C12 UNL     1      -3.958  -2.696 -21.391  0.00  0.00    -0.062 A 
ATOM     16  C13 UNL     1      -5.015  -1.786 -21.409  0.00  0.00    -0.060 A 
ATOM     17  C14 UNL     1      -4.843  -0.508 -20.874  0.00  0.00    -0.036 A 
ENDROOT
TORSDOF 0
ENDMDL
MODEL 3
REMARK VINA RESULT:    -5.995      6.117      9.546
REMARK INTER + INTRA:          -5.995
REMARK INTER:                  -5.995
REMARK INTRA:                   0.000
REMARK UNBOUND:                 0.000
REMARK  Name = /home/vital/Documents/PhD_2021/Malaria_codes/scripts/../data/pdbqt_ligands/ligand_136_temp.pdb
REMARK                            x       y       z     vdW  Elec       q    Type
REMARK                         _______ _______ _______ _____ _____    ______ ____
ROOT
ATOM      1  F1  UNL     1       6.820  -4.736 -24.020  0.00  0.00    -0.143 F 
ATOM      2  C1  UNL     1       7.837  -3.883 -24.220  0.00  0.00    +0.110 C 
ATOM      3  C2  UNL     1       8.746  -3.120 -24.399  0.00  0.00    -0.039 C 
ATOM      4  C3  UNL     1       9.828  -2.220 -24.603  0.00  0.00    -0.009 C 
ATOM      5  C4  UNL     1       9.818  -1.332 -25.608  0.00  0.00    -0.054 C 
ATOM      6  C5  UNL     1      10.903  -0.404 -25.842  0.00  0.00    -0.062 C 
ATOM      7  C6  UNL     1      10.975   0.512 -26.820  0.00  0.00    -0.047 C 
ATOM      8  C7  UNL     1       9.985   0.814 -27.904  0.00  0.00    +0.109 C 
ATOM      9  O1  UNL     1      10.686   0.715 -29.153  0.00  0.00    -0.478 OA
ATOM     10  C8  UNL     1       9.948   0.959 -30.260  0.00  0.00    +0.176 C 
ATOM     11  N1  UNL     1       8.702   1.279 -30.231  0.00  0.00    -0.220 NA
ATOM     12  C9  UNL     1       8.112   1.493 -31.484  0.00  0.00    +0.067 A 
ATOM     13  C10 UNL     1       7.507   0.435 -32.169  0.00  0.00    -0.036 A 
ATOM     14  C11 UNL     1       6.909   0.649 -33.412  0.00  0.00    -0.060 A 
ATOM     15  C12 UNL     1       6.905   1.926 -33.973  0.00  0.00    -0.062 A 
ATOM     16  C13 UNL     1       7.492   2.989 -33.288  0.00  0.00    -0.060 A 
ATOM     17  C14 UNL     1       8.089   2.772 -32.044  0.00  0.00    -0.036 A 
ENDROOT
TORSDOF 0
ENDMDL
MODEL 4
REMARK VINA RESULT:    -5.926     15.036     16.132
REMARK INTER + INTRA:          -5.926
REMARK INTER:                  -5.926
REMARK INTRA:                   0.000
REMARK UNBOUND:                 0.000
REMARK  Name = /home/vital/Documents/PhD_2021/Malaria_codes/scripts/../data/pdbqt_ligands/ligand_136_temp.pdb
REMARK                            x       y       z     vdW  Elec       q    Type
REMARK                         _______ _______ _______ _____ _____    ______ ____
ROOT
ATOM      1  F1  UNL     1      -3.241  -2.616 -20.421  0.00  0.00    -0.143 F 
ATOM      2  C1  UNL     1      -4.286  -2.285 -21.195  0.00  0.00    +0.110 C 
ATOM      3  C2  UNL     1      -5.221  -1.988 -21.887  0.00  0.00    -0.039 C 
ATOM      4  C3  UNL     1      -6.332  -1.645 -22.706  0.00  0.00    -0.009 C 
ATOM      5  C4  UNL     1      -6.482  -0.406 -23.196  0.00  0.00    -0.054 C 
ATOM      6  C5  UNL     1      -7.601  -0.027 -24.031  0.00  0.00    -0.062 C 
ATOM      7  C6  UNL     1      -7.830   1.186 -24.560  0.00  0.00    -0.047 C 
ATOM      8  C7  UNL     1      -7.016   2.439 -24.433  0.00  0.00    +0.109 C 
ATOM      9  O1  UNL     1      -7.895   3.462 -23.941  0.00  0.00    -0.478 OA
ATOM     10  C8  UNL     1      -7.334   4.680 -23.762  0.00  0.00    +0.176 C 
ATOM     11  N1  UNL     1      -6.102   4.943 -24.021  0.00  0.00    -0.220 NA
ATOM     12  C9  UNL     1      -5.709   6.264 -23.770  0.00  0.00    +0.067 A 
ATOM     13  C10 UNL     1      -5.200   6.623 -22.518  0.00  0.00    -0.036 A 
ATOM     14  C11 UNL     1      -4.798   7.937 -22.269  0.00  0.00    -0.060 A 
ATOM     15  C12 UNL     1      -4.893   8.896 -23.276  0.00  0.00    -0.062 A 
ATOM     16  C13 UNL     1      -5.383   8.542 -24.532  0.00  0.00    -0.060 A 
ATOM     17  C14 UNL     1      -5.784   7.227 -24.779  0.00  0.00    -0.036 A 
ENDROOT
TORSDOF 0
ENDMDL
MODEL 5
REMARK VINA RESULT:    -5.714      4.482      8.962
REMARK INTER + INTRA:          -5.714
REMARK INTER:                  -5.714
REMARK INTRA:                   0.000
REMARK UNBOUND:                 0.000
REMARK  Name = /home/vital/Documents/PhD_2021/Malaria_codes/scripts/../data/pdbqt_ligands/ligand_136_temp.pdb
REMARK                            x       y       z     vdW  Elec       q    Type
REMARK                         _______ _______ _______ _____ _____    ______ ____
ROOT
ATOM      1  F1  UNL     1      10.430   1.235 -24.480  0.00  0.00    -0.143 F 
ATOM      2  C1  UNL     1       9.931  -0.008 -24.396  0.00  0.00    +0.110 C 
ATOM      3  C2  UNL     1       9.485  -1.120 -24.321  0.00  0.00    -0.039 C 
ATOM      4  C3  UNL     1       8.959  -2.438 -24.222  0.00  0.00    -0.009 C 
ATOM      5  C4  UNL     1       8.331  -3.018 -25.255  0.00  0.00    -0.054 C 
ATOM      6  C5  UNL     1       7.785  -4.356 -25.185  0.00  0.00    -0.062 C 
ATOM      7  C6  UNL     1       7.142  -5.009 -26.166  0.00  0.00    -0.047 C 
ATOM      8  C7  UNL     1       6.822  -4.547 -27.555  0.00  0.00    +0.109 C 
ATOM      9  O1  UNL     1       5.405  -4.696 -27.731  0.00  0.00    -0.478 OA
ATOM     10  C8  UNL     1       4.922  -4.326 -28.940  0.00  0.00    +0.176 C 
ATOM     11  N1  UNL     1       5.660  -3.883 -29.897  0.00  0.00    -0.220 NA
ATOM     12  C9  UNL     1       4.974  -3.553 -31.073  0.00  0.00    +0.067 A 
ATOM     13  C10 UNL     1       4.483  -2.258 -31.265  0.00  0.00    -0.036 A 
ATOM     14  C11 UNL     1       3.808  -1.925 -32.441  0.00  0.00    -0.060 A 
ATOM     15  C12 UNL     1       3.631  -2.885 -33.438  0.00  0.00    -0.062 A 
ATOM     16  C13 UNL     1       4.133  -4.173 -33.261  0.00  0.00    -0.060 A 
ATOM     17  C14 UNL     1       4.807  -4.504 -32.084  0.00  0.00    -0.036 A 
ENDROOT
TORSDOF 0
ENDMDL
MODEL 6
REMARK VINA RESULT:    -5.567      6.200     10.163
REMARK INTER + INTRA:          -5.567
REMARK INTER:                  -5.567
REMARK INTRA:                   0.000
REMARK UNBOUND:                 0.000
REMARK  Name = /home/vital/Documents/PhD_2021/Malaria_codes/scripts/../data/pdbqt_ligands/ligand_136_temp.pdb
REMARK                            x       y       z     vdW  Elec       q    Type
REMARK                         _______ _______ _______ _____ _____    ______ ____
ROOT
ATOM      1  F1  UNL     1      -0.808   0.496 -19.656  0.00  0.00    -0.143 F 
ATOM      2  C1  UNL     1       0.077  -0.445 -19.293  0.00  0.00    +0.110 C 
ATOM      3  C2  UNL     1       0.868  -1.288 -18.968  0.00  0.00    -0.039 C 
ATOM      4  C3  UNL     1       1.802  -2.285 -18.574  0.00  0.00    -0.009 C 
ATOM      5  C4  UNL     1       2.738  -2.739 -19.420  0.00  0.00    -0.054 C 
ATOM      6  C5  UNL     1       3.701  -3.753 -19.050  0.00  0.00    -0.062 C 
ATOM      7  C6  UNL     1       4.666  -4.263 -19.831  0.00  0.00    -0.047 C 
ATOM      8  C7  UNL     1       4.998  -3.935 -21.255  0.00  0.00    +0.109 C 
ATOM      9  O1  UNL     1       4.977  -5.169 -21.987  0.00  0.00    -0.478 OA
ATOM     10  C8  UNL     1       5.258  -5.074 -23.307  0.00  0.00    +0.176 C 
ATOM     11  N1  UNL     1       5.548  -3.967 -23.896  0.00  0.00    -0.220 NA
ATOM     12  C9  UNL     1       5.810  -4.073 -25.269  0.00  0.00    +0.067 A 
ATOM     13  C10 UNL     1       4.774  -3.938 -26.197  0.00  0.00    -0.036 A 
ATOM     14  C11 UNL     1       5.035  -4.033 -27.566  0.00  0.00    -0.060 A 
ATOM     15  C12 UNL     1       6.337  -4.253 -28.012  0.00  0.00    -0.062 A 
ATOM     16  C13 UNL     1       7.379  -4.371 -27.093  0.00  0.00    -0.060 A 
ATOM     17  C14 UNL     1       7.115  -4.275 -25.724  0.00  0.00    -0.036 A 
ENDROOT
TORSDOF 0
ENDMDL
MODEL 7
REMARK VINA RESULT:    -5.565      4.130      9.036
REMARK INTER + INTRA:          -5.565
REMARK INTER:                  -5.565
REMARK INTRA:                   0.000
REMARK UNBOUND:                 0.000
REMARK  Name = /home/vital/Documents/PhD_2021/Malaria_codes/scripts/../data/pdbqt_ligands/ligand_136_temp.pdb
REMARK                            x       y       z     vdW  Elec       q    Type
REMARK                         _______ _______ _______ _____ _____    ______ ____
ROOT
ATOM      1  F1  UNL     1       6.523  -4.672 -27.108  0.00  0.00    -0.143 F 
ATOM      2  C1  UNL     1       6.212  -4.296 -28.358  0.00  0.00    +0.110 C 
ATOM      3  C2  UNL     1       5.935  -3.960 -29.477  0.00  0.00    -0.039 C 
ATOM      4  C3  UNL     1       5.614  -3.556 -30.802  0.00  0.00    -0.009 C 
ATOM      5  C4  UNL     1       4.530  -4.030 -31.434  0.00  0.00    -0.054 C 
ATOM      6  C5  UNL     1       4.178  -3.639 -32.781  0.00  0.00    -0.062 C 
ATOM      7  C6  UNL     1       3.117  -4.065 -33.486  0.00  0.00    -0.047 C 
ATOM      8  C7  UNL     1       2.045  -5.031 -33.085  0.00  0.00    +0.109 C 
ATOM      9  O1  UNL     1       2.009  -6.059 -34.086  0.00  0.00    -0.478 OA
ATOM     10  C8  UNL     1       1.090  -7.033 -33.895  0.00  0.00    +0.176 C 
ATOM     11  N1  UNL     1       0.274  -7.058 -32.900  0.00  0.00    -0.220 NA
ATOM     12  C9  UNL     1      -0.604  -8.150 -32.877  0.00  0.00    +0.067 A 
ATOM     13  C10 UNL     1      -0.248  -9.328 -32.215  0.00  0.00    -0.036 A 
ATOM     14  C11 UNL     1      -1.126 -10.413 -32.182  0.00  0.00    -0.060 A 
ATOM     15  C12 UNL     1      -2.371 -10.320 -32.802  0.00  0.00    -0.062 A 
ATOM     16  C13 UNL     1      -2.741  -9.142 -33.449  0.00  0.00    -0.060 A 
ATOM     17  C14 UNL     1      -1.861  -8.058 -33.480  0.00  0.00    -0.036 A 
ENDROOT
TORSDOF 0
ENDMDL
MODEL 8
REMARK VINA RESULT:    -5.532      3.665      5.377
REMARK INTER + INTRA:          -5.532
REMARK INTER:                  -5.532
REMARK INTRA:                   0.000
REMARK UNBOUND:                 0.000
REMARK  Name = /home/vital/Documents/PhD_2021/Malaria_codes/scripts/../data/pdbqt_ligands/ligand_136_temp.pdb
REMARK                            x       y       z     vdW  Elec       q    Type
REMARK                         _______ _______ _______ _____ _____    ______ ____
ROOT
ATOM      1  F1  UNL     1       1.759  -4.251 -31.257  0.00  0.00    -0.143 F 
ATOM      2  C1  UNL     1       2.998  -4.227 -30.741  0.00  0.00    +0.110 C 
ATOM      3  C2  UNL     1       4.106  -4.206 -30.278  0.00  0.00    -0.039 C 
ATOM      4  C3  UNL     1       5.421  -4.179 -29.739  0.00  0.00    -0.009 C 
ATOM      5  C4  UNL     1       5.639  -4.300 -28.422  0.00  0.00    -0.054 C 
ATOM      6  C5  UNL     1       6.965  -4.276 -27.844  0.00  0.00    -0.062 C 
ATOM      7  C6  UNL     1       7.272  -4.387 -26.542  0.00  0.00    -0.047 C 
ATOM      8  C7  UNL     1       6.356  -4.560 -25.368  0.00  0.00    +0.109 C 
ATOM      9  O1  UNL     1       6.657  -3.505 -24.442  0.00  0.00    -0.478 OA
ATOM     10  C8  UNL     1       5.924  -3.496 -23.305  0.00  0.00    +0.176 C 
ATOM     11  N1  UNL     1       5.020  -4.371 -23.033  0.00  0.00    -0.220 NA
ATOM     12  C9  UNL     1       4.369  -4.192 -21.805  0.00  0.00    +0.067 A 
ATOM     13  C10 UNL     1       3.207  -3.419 -21.727  0.00  0.00    -0.036 A 
ATOM     14  C11 UNL     1       2.551  -3.249 -20.506  0.00  0.00    -0.060 A 
ATOM     15  C12 UNL     1       3.050  -3.861 -19.357  0.00  0.00    -0.062 A 
ATOM     16  C13 UNL     1       4.199  -4.647 -19.429  0.00  0.00    -0.060 A 
ATOM     17  C14 UNL     1       4.853  -4.816 -20.652  0.00  0.00    -0.036 A 
ENDROOT
TORSDOF 0
ENDMDL
MODEL 9
REMARK VINA RESULT:    -5.385      6.325      8.466
REMARK INTER + INTRA:          -5.385
REMARK INTER:                  -5.385
REMARK INTRA:                   0.000
REMARK UNBOUND:                 0.000
REMARK  Name = /home/vital/Documents/PhD_2021/Malaria_codes/scripts/../data/pdbqt_ligands/ligand_136_temp.pdb
REMARK                            x       y       z     vdW  Elec       q    Type
REMARK                         _______ _______ _______ _____ _____    ______ ____
ROOT
ATOM      1  F1  UNL     1      -3.042  -4.601 -25.057  0.00  0.00    -0.143 F 
ATOM      2  C1  UNL     1      -2.356  -4.581 -23.904  0.00  0.00    +0.110 C 
ATOM      3  C2  UNL     1      -1.741  -4.564 -22.872  0.00  0.00    -0.039 C 
ATOM      4  C3  UNL     1      -1.022  -4.545 -21.646  0.00  0.00    -0.009 C 
ATOM      5  C4  UNL     1       0.288  -4.259 -21.608  0.00  0.00    -0.054 C 
ATOM      6  C5  UNL     1       1.047  -4.233 -20.378  0.00  0.00    -0.062 C 
ATOM      7  C6  UNL     1       2.355  -3.960 -20.250  0.00  0.00    -0.047 C 
ATOM      8  C7  UNL     1       3.355  -3.620 -21.313  0.00  0.00    +0.109 C 
ATOM      9  O1  UNL     1       4.440  -4.550 -21.183  0.00  0.00    -0.478 OA
ATOM     10  C8  UNL     1       5.453  -4.398 -22.066  0.00  0.00    +0.176 C 
ATOM     11  N1  UNL     1       5.482  -3.479 -22.966  0.00  0.00    -0.220 NA
ATOM     12  C9  UNL     1       6.617  -3.485 -23.788  0.00  0.00    +0.067 A 
ATOM     13  C10 UNL     1       6.625  -4.219 -24.977  0.00  0.00    -0.036 A 
ATOM     14  C11 UNL     1       7.752  -4.218 -25.801  0.00  0.00    -0.060 A 
ATOM     15  C12 UNL     1       8.874  -3.472 -25.444  0.00  0.00    -0.062 A 
ATOM     16  C13 UNL     1       8.868  -2.723 -24.269  0.00  0.00    -0.060 A 
ATOM     17  C14 UNL     1       7.739  -2.726 -23.446  0.00  0.00    -0.036 A 
ENDROOT
TORSDOF 0
ENDMDL
