MODEL 1
REMARK VINA RESULT:    -6.880      0.000      0.000
REMARK INTER + INTRA:          -6.880
REMARK INTER:                  -6.880
REMARK INTRA:                   0.000
REMARK UNBOUND:                 0.000
REMARK  Name = /home/vital/Documents/PhD_2021/Malaria_codes/scripts/../data/pdbqt_ligands/ligand_148_temp.pdb
REMARK                            x       y       z     vdW  Elec       q    Type
REMARK                         _______ _______ _______ _____ _____    ______ ____
ROOT
ATOM      1  C1  UNL     1      -1.718  -2.964 -24.645  0.00  0.00    -0.049 C 
ATOM      2  C2  UNL     1      -0.767  -3.440 -23.556  0.00  0.00    +0.009 C 
ATOM      3  N1  UNL     1      -1.445  -3.976 -22.367  0.00  0.00    -0.329 N 
ATOM      4  C3  UNL     1      -1.656  -5.420 -22.220  0.00  0.00    +0.009 C 
ATOM      5  C4  UNL     1      -2.375  -6.073 -23.389  0.00  0.00    -0.049 C 
ATOM      6  C5  UNL     1      -2.291  -3.112 -21.657  0.00  0.00    +0.051 A 
ATOM      7  C6  UNL     1      -3.675  -3.108 -21.861  0.00  0.00    -0.037 A 
ATOM      8  C7  UNL     1      -4.500  -2.214 -21.172  0.00  0.00    -0.039 A 
ATOM      9  C8  UNL     1      -3.969  -1.334 -20.229  0.00  0.00    +0.026 A 
ATOM     10  N2  UNL     1      -4.785  -0.360 -19.639  0.00  0.00    -0.358 N 
ATOM     11  C9  UNL     1      -2.584  -1.298 -20.047  0.00  0.00    -0.018 A 
ATOM     12  C10 UNL     1      -1.750  -2.194 -20.722  0.00  0.00    +0.057 A 
ATOM     13  N3  UNL     1      -0.357  -2.287 -20.500  0.00  0.00    -0.280 N 
ATOM     14  C11 UNL     1       0.437  -1.512 -19.685  0.00  0.00    +0.248 C 
ATOM     15  O1  UNL     1       0.094  -0.529 -19.041  0.00  0.00    -0.270 OA
ATOM     16  C12 UNL     1       1.870  -1.924 -19.633  0.00  0.00    +0.038 A 
ATOM     17  C13 UNL     1       2.843  -0.929 -19.459  0.00  0.00    -0.050 A 
ATOM     18  C14 UNL     1       4.195  -1.269 -19.404  0.00  0.00    -0.060 A 
ATOM     19  C15 UNL     1       4.580  -2.605 -19.515  0.00  0.00    -0.043 A 
ATOM     20  C16 UNL     1       3.612  -3.595 -19.671  0.00  0.00    +0.042 A 
ATOM     21 CL1  UNL     1       4.091  -5.244 -19.792  0.00  0.00    -0.084 Cl
ATOM     22  C17 UNL     1       2.257  -3.266 -19.726  0.00  0.00    -0.031 A 
ATOM     23  H   UNL     1      -5.761  -0.390 -19.771  0.00  0.00    +0.000 HD
ATOM     24  H   UNL     1      -4.384   0.353 -19.093  0.00  0.00    +0.000 HD
ATOM     25  H   UNL     1       0.106  -3.002 -20.993  0.00  0.00    +0.000 HD
ENDROOT
TORSDOF 0
ENDMDL
MODEL 2
REMARK VINA RESULT:    -6.839      8.600     11.480
REMARK INTER + INTRA:          -6.839
REMARK INTER:                  -6.839
REMARK INTRA:                   0.000
REMARK UNBOUND:                 0.000
REMARK  Name = /home/vital/Documents/PhD_2021/Malaria_codes/scripts/../data/pdbqt_ligands/ligand_148_temp.pdb
REMARK                            x       y       z     vdW  Elec       q    Type
REMARK                         _______ _______ _______ _____ _____    ______ ____
ROOT
ATOM      1  C1  UNL     1      -0.609 -10.293 -32.364  0.00  0.00    -0.049 C 
ATOM      2  C2  UNL     1      -1.099  -9.221 -31.401  0.00  0.00    +0.009 C 
ATOM      3  N1  UNL     1      -1.100  -7.865 -31.971  0.00  0.00    -0.329 N 
ATOM      4  C3  UNL     1      -2.325  -7.305 -32.549  0.00  0.00    +0.009 C 
ATOM      5  C4  UNL     1      -2.965  -8.165 -33.626  0.00  0.00    -0.049 C 
ATOM      6  C5  UNL     1       0.129  -7.338 -32.393  0.00  0.00    +0.051 A 
ATOM      7  C6  UNL     1       0.529  -7.389 -33.732  0.00  0.00    -0.037 A 
ATOM      8  C7  UNL     1       1.773  -6.891 -34.130  0.00  0.00    -0.039 A 
ATOM      9  C8  UNL     1       2.629  -6.290 -33.208  0.00  0.00    +0.026 A 
ATOM     10  N2  UNL     1       3.921  -5.910 -33.593  0.00  0.00    -0.358 N 
ATOM     11  C9  UNL     1       2.261  -6.271 -31.860  0.00  0.00    -0.018 A 
ATOM     12  C10 UNL     1       1.014  -6.756 -31.452  0.00  0.00    +0.057 A 
ATOM     13  N3  UNL     1       0.534  -6.663 -30.126  0.00  0.00    -0.280 N 
ATOM     14  C11 UNL     1       1.180  -6.183 -29.009  0.00  0.00    +0.248 C 
ATOM     15  O1  UNL     1       2.343  -5.803 -28.936  0.00  0.00    -0.270 OA
ATOM     16  C12 UNL     1       0.356  -6.170 -27.766  0.00  0.00    +0.038 A 
ATOM     17  C13 UNL     1       0.998  -6.381 -26.538  0.00  0.00    -0.050 A 
ATOM     18  C14 UNL     1       0.266  -6.375 -25.350  0.00  0.00    -0.060 A 
ATOM     19  C15 UNL     1      -1.111  -6.152 -25.384  0.00  0.00    -0.043 A 
ATOM     20  C16 UNL     1      -1.746  -5.926 -26.604  0.00  0.00    +0.042 A 
ATOM     21 CL1  UNL     1      -3.443  -5.636 -26.640  0.00  0.00    -0.084 Cl
ATOM     22  C17 UNL     1      -1.023  -5.927 -27.797  0.00  0.00    -0.031 A 
ATOM     23  H   UNL     1       4.176  -5.926 -34.544  0.00  0.00    +0.000 HD
ATOM     24  H   UNL     1       4.574  -5.627 -32.914  0.00  0.00    +0.000 HD
ATOM     25  H   UNL     1      -0.384  -6.986 -29.982  0.00  0.00    +0.000 HD
ENDROOT
TORSDOF 0
ENDMDL
MODEL 3
REMARK VINA RESULT:    -6.771      8.932      9.647
REMARK INTER + INTRA:          -6.771
REMARK INTER:                  -6.771
REMARK INTRA:                   0.000
REMARK UNBOUND:                 0.000
REMARK  Name = /home/vital/Documents/PhD_2021/Malaria_codes/scripts/../data/pdbqt_ligands/ligand_148_temp.pdb
REMARK                            x       y       z     vdW  Elec       q    Type
REMARK                         _______ _______ _______ _____ _____    ______ ____
ROOT
ATOM      1  C1  UNL     1       2.624   8.733 -18.357  0.00  0.00    -0.049 C 
ATOM      2  C2  UNL     1       3.158   7.368 -17.947  0.00  0.00    +0.009 C 
ATOM      3  N1  UNL     1       2.456   6.240 -18.579  0.00  0.00    -0.329 N 
ATOM      4  C3  UNL     1       2.996   5.615 -19.790  0.00  0.00    +0.009 C 
ATOM      5  C4  UNL     1       3.260   6.580 -20.934  0.00  0.00    -0.049 C 
ATOM      6  C5  UNL     1       1.084   6.105 -18.323  0.00  0.00    +0.051 A 
ATOM      7  C6  UNL     1       0.120   6.588 -19.213  0.00  0.00    -0.037 A 
ATOM      8  C7  UNL     1      -1.244   6.477 -18.926  0.00  0.00    -0.039 A 
ATOM      9  C8  UNL     1      -1.678   5.841 -17.764  0.00  0.00    +0.026 A 
ATOM     10  N2  UNL     1      -3.038   5.847 -17.426  0.00  0.00    -0.358 N 
ATOM     11  C9  UNL     1      -0.726   5.392 -16.845  0.00  0.00    -0.018 A 
ATOM     12  C10 UNL     1       0.641   5.487 -17.127  0.00  0.00    +0.057 A 
ATOM     13  N3  UNL     1       1.650   4.952 -16.296  0.00  0.00    -0.280 N 
ATOM     14  C11 UNL     1       1.520   4.335 -15.072  0.00  0.00    +0.248 C 
ATOM     15  O1  UNL     1       0.490   4.195 -14.424  0.00  0.00    -0.270 OA
ATOM     16  C12 UNL     1       2.795   3.827 -14.488  0.00  0.00    +0.038 A 
ATOM     17  C13 UNL     1       2.938   3.832 -13.093  0.00  0.00    -0.050 A 
ATOM     18  C14 UNL     1       4.113   3.364 -12.504  0.00  0.00    -0.060 A 
ATOM     19  C15 UNL     1       5.148   2.882 -13.306  0.00  0.00    -0.043 A 
ATOM     20  C16 UNL     1       4.999   2.862 -14.692  0.00  0.00    +0.042 A 
ATOM     21 CL1  UNL     1       6.272   2.253 -15.677  0.00  0.00    -0.084 Cl
ATOM     22  C17 UNL     1       3.827   3.326 -15.291  0.00  0.00    -0.031 A 
ATOM     23  H   UNL     1      -3.705   6.165 -18.077  0.00  0.00    +0.000 HD
ATOM     24  H   UNL     1      -3.326   5.534 -16.539  0.00  0.00    +0.000 HD
ATOM     25  H   UNL     1       2.570   5.031 -16.638  0.00  0.00    +0.000 HD
ENDROOT
TORSDOF 0
ENDMDL
MODEL 4
REMARK VINA RESULT:    -6.621     11.584     14.452
REMARK INTER + INTRA:          -6.621
REMARK INTER:                  -6.621
REMARK INTRA:                   0.000
REMARK UNBOUND:                 0.000
REMARK  Name = /home/vital/Documents/PhD_2021/Malaria_codes/scripts/../data/pdbqt_ligands/ligand_148_temp.pdb
REMARK                            x       y       z     vdW  Elec       q    Type
REMARK                         _______ _______ _______ _____ _____    ______ ____
ROOT
ATOM      1  C1  UNL     1       4.883  -4.385 -33.327  0.00  0.00    -0.049 C 
ATOM      2  C2  UNL     1       3.661  -3.511 -33.078  0.00  0.00    +0.009 C 
ATOM      3  N1  UNL     1       2.610  -4.170 -32.288  0.00  0.00    -0.329 N 
ATOM      4  C3  UNL     1       2.528  -3.959 -30.839  0.00  0.00    +0.009 C 
ATOM      5  C4  UNL     1       3.812  -4.264 -30.084  0.00  0.00    -0.049 C 
ATOM      6  C5  UNL     1       2.033  -5.333 -32.818  0.00  0.00    +0.051 A 
ATOM      7  C6  UNL     1       2.462  -6.607 -32.431  0.00  0.00    -0.037 A 
ATOM      8  C7  UNL     1       1.901  -7.757 -32.996  0.00  0.00    -0.039 A 
ATOM      9  C8  UNL     1       0.868  -7.661 -33.928  0.00  0.00    +0.026 A 
ATOM     10  N2  UNL     1       0.401  -8.811 -34.578  0.00  0.00    -0.358 N 
ATOM     11  C9  UNL     1       0.459  -6.396 -34.355  0.00  0.00    -0.018 A 
ATOM     12  C10 UNL     1       1.005  -5.239 -33.788  0.00  0.00    +0.057 A 
ATOM     13  N3  UNL     1       0.558  -3.933 -34.092  0.00  0.00    -0.280 N 
ATOM     14  C11 UNL     1      -0.390  -3.540 -35.008  0.00  0.00    +0.248 C 
ATOM     15  O1  UNL     1      -0.988  -4.255 -35.803  0.00  0.00    -0.270 OA
ATOM     16  C12 UNL     1      -0.670  -2.075 -35.031  0.00  0.00    +0.038 A 
ATOM     17  C13 UNL     1      -1.020  -1.482 -36.253  0.00  0.00    -0.050 A 
ATOM     18  C14 UNL     1      -1.291  -0.115 -36.320  0.00  0.00    -0.060 A 
ATOM     19  C15 UNL     1      -1.219   0.665 -35.165  0.00  0.00    -0.043 A 
ATOM     20  C16 UNL     1      -0.888   0.072 -33.948  0.00  0.00    +0.042 A 
ATOM     21 CL1  UNL     1      -0.816   1.035 -32.523  0.00  0.00    -0.084 Cl
ATOM     22  C17 UNL     1      -0.617  -1.294 -33.869  0.00  0.00    -0.031 A 
ATOM     23  H   UNL     1       0.693  -9.701 -34.274  0.00  0.00    +0.000 HD
ATOM     24  H   UNL     1      -0.217  -8.730 -35.340  0.00  0.00    +0.000 HD
ATOM     25  H   UNL     1       0.982  -3.208 -33.579  0.00  0.00    +0.000 HD
ENDROOT
TORSDOF 0
ENDMDL
MODEL 5
REMARK VINA RESULT:    -6.463      5.730      8.870
REMARK INTER + INTRA:          -6.463
REMARK INTER:                  -6.463
REMARK INTRA:                   0.000
REMARK UNBOUND:                 0.000
REMARK  Name = /home/vital/Documents/PhD_2021/Malaria_codes/scripts/../data/pdbqt_ligands/ligand_148_temp.pdb
REMARK                            x       y       z     vdW  Elec       q    Type
REMARK                         _______ _______ _______ _____ _____    ______ ____
ROOT
ATOM      1  C1  UNL     1       6.783  -0.051 -25.989  0.00  0.00    -0.049 C 
ATOM      2  C2  UNL     1       6.777  -0.327 -24.493  0.00  0.00    +0.009 C 
ATOM      3  N1  UNL     1       7.651  -1.440 -24.090  0.00  0.00    -0.329 N 
ATOM      4  C3  UNL     1       9.009  -1.178 -23.605  0.00  0.00    +0.009 C 
ATOM      5  C4  UNL     1       9.867  -0.351 -24.548  0.00  0.00    -0.049 C 
ATOM      6  C5  UNL     1       7.374  -2.708 -24.621  0.00  0.00    +0.051 A 
ATOM      7  C6  UNL     1       8.055  -3.200 -25.738  0.00  0.00    -0.037 A 
ATOM      8  C7  UNL     1       7.741  -4.452 -26.278  0.00  0.00    -0.039 A 
ATOM      9  C8  UNL     1       6.770  -5.260 -25.687  0.00  0.00    +0.026 A 
ATOM     10  N2  UNL     1       6.377  -6.453 -26.308  0.00  0.00    -0.358 N 
ATOM     11  C9  UNL     1       6.051  -4.762 -24.597  0.00  0.00    -0.018 A 
ATOM     12  C10 UNL     1       6.364  -3.517 -24.042  0.00  0.00    +0.057 A 
ATOM     13  N3  UNL     1       5.756  -3.006 -22.874  0.00  0.00    -0.280 N 
ATOM     14  C11 UNL     1       4.735  -3.550 -22.127  0.00  0.00    +0.248 C 
ATOM     15  O1  UNL     1       4.098  -4.565 -22.379  0.00  0.00    -0.270 OA
ATOM     16  C12 UNL     1       4.370  -2.774 -20.907  0.00  0.00    +0.038 A 
ATOM     17  C13 UNL     1       3.032  -2.784 -20.485  0.00  0.00    -0.050 A 
ATOM     18  C14 UNL     1       2.647  -2.073 -19.348  0.00  0.00    -0.060 A 
ATOM     19  C15 UNL     1       3.598  -1.355 -18.623  0.00  0.00    -0.043 A 
ATOM     20  C16 UNL     1       4.930  -1.359 -19.032  0.00  0.00    +0.042 A 
ATOM     21 CL1  UNL     1       6.103  -0.483 -18.125  0.00  0.00    -0.084 Cl
ATOM     22  C17 UNL     1       5.326  -2.067 -20.167  0.00  0.00    -0.031 A 
ATOM     23  H   UNL     1       6.887  -6.799 -27.076  0.00  0.00    +0.000 HD
ATOM     24  H   UNL     1       5.592  -6.945 -25.976  0.00  0.00    +0.000 HD
ATOM     25  H   UNL     1       6.109  -2.145 -22.551  0.00  0.00    +0.000 HD
ENDROOT
TORSDOF 0
ENDMDL
MODEL 6
REMARK VINA RESULT:    -6.442      4.368      5.754
REMARK INTER + INTRA:          -6.442
REMARK INTER:                  -6.442
REMARK INTRA:                   0.000
REMARK UNBOUND:                 0.000
REMARK  Name = /home/vital/Documents/PhD_2021/Malaria_codes/scripts/../data/pdbqt_ligands/ligand_148_temp.pdb
REMARK                            x       y       z     vdW  Elec       q    Type
REMARK                         _______ _______ _______ _____ _____    ______ ____
ROOT
ATOM      1  C1  UNL     1      -3.774   1.056 -24.077  0.00  0.00    -0.049 C 
ATOM      2  C2  UNL     1      -3.805  -0.404 -24.506  0.00  0.00    +0.009 C 
ATOM      3  N1  UNL     1      -4.692  -1.245 -23.688  0.00  0.00    -0.329 N 
ATOM      4  C3  UNL     1      -6.061  -1.528 -24.129  0.00  0.00    +0.009 C 
ATOM      5  C4  UNL     1      -6.893  -0.293 -24.435  0.00  0.00    -0.049 C 
ATOM      6  C5  UNL     1      -4.406  -1.350 -22.319  0.00  0.00    +0.051 A 
ATOM      7  C6  UNL     1      -5.062  -0.559 -21.370  0.00  0.00    -0.037 A 
ATOM      8  C7  UNL     1      -4.739  -0.650 -20.012  0.00  0.00    -0.039 A 
ATOM      9  C8  UNL     1      -3.786  -1.564 -19.565  0.00  0.00    +0.026 A 
ATOM     10  N2  UNL     1      -3.381  -1.558 -18.224  0.00  0.00    -0.358 N 
ATOM     11  C9  UNL     1      -3.092  -2.329 -20.507  0.00  0.00    -0.018 A 
ATOM     12  C10 UNL     1      -3.414  -2.255 -21.866  0.00  0.00    +0.057 A 
ATOM     13  N3  UNL     1      -2.832  -3.080 -22.854  0.00  0.00    -0.280 N 
ATOM     14  C11 UNL     1      -1.832  -4.015 -22.714  0.00  0.00    +0.248 C 
ATOM     15  O1  UNL     1      -1.192  -4.264 -21.699  0.00  0.00    -0.270 OA
ATOM     16  C12 UNL     1      -1.495  -4.763 -23.960  0.00  0.00    +0.038 A 
ATOM     17  C13 UNL     1      -0.168  -5.175 -24.152  0.00  0.00    -0.050 A 
ATOM     18  C14 UNL     1       0.192  -5.877 -25.302  0.00  0.00    -0.060 A 
ATOM     19  C15 UNL     1      -0.773  -6.178 -26.263  0.00  0.00    -0.043 A 
ATOM     20  C16 UNL     1      -2.096  -5.783 -26.064  0.00  0.00    +0.042 A 
ATOM     21 CL1  UNL     1      -3.287  -6.170 -27.245  0.00  0.00    -0.084 Cl
ATOM     22  C17 UNL     1      -2.466  -5.082 -24.917  0.00  0.00    -0.031 A 
ATOM     23  H   UNL     1      -3.873  -1.017 -17.564  0.00  0.00    +0.000 HD
ATOM     24  H   UNL     1      -2.606  -2.094 -17.941  0.00  0.00    +0.000 HD
ATOM     25  H   UNL     1      -3.191  -2.972 -23.765  0.00  0.00    +0.000 HD
ENDROOT
TORSDOF 0
ENDMDL
MODEL 7
REMARK VINA RESULT:    -6.192      8.432     11.145
REMARK INTER + INTRA:          -6.192
REMARK INTER:                  -6.192
REMARK INTRA:                   0.000
REMARK UNBOUND:                 0.000
REMARK  Name = /home/vital/Documents/PhD_2021/Malaria_codes/scripts/../data/pdbqt_ligands/ligand_148_temp.pdb
REMARK                            x       y       z     vdW  Elec       q    Type
REMARK                         _______ _______ _______ _____ _____    ______ ____
ROOT
ATOM      1  C1  UNL     1       1.992  -8.033 -33.229  0.00  0.00    -0.049 C 
ATOM      2  C2  UNL     1       1.174  -7.409 -32.107  0.00  0.00    +0.009 C 
ATOM      3  N1  UNL     1       1.046  -5.947 -32.207  0.00  0.00    -0.329 N 
ATOM      4  C3  UNL     1      -0.138  -5.346 -32.830  0.00  0.00    +0.009 C 
ATOM      5  C4  UNL     1      -0.432  -5.845 -34.235  0.00  0.00    -0.049 C 
ATOM      6  C5  UNL     1       2.224  -5.188 -32.165  0.00  0.00    +0.051 A 
ATOM      7  C6  UNL     1       2.850  -4.739 -33.331  0.00  0.00    -0.037 A 
ATOM      8  C7  UNL     1       4.045  -4.014 -33.273  0.00  0.00    -0.039 A 
ATOM      9  C8  UNL     1       4.619  -3.683 -32.045  0.00  0.00    +0.026 A 
ATOM     10  N2  UNL     1       5.877  -3.068 -32.002  0.00  0.00    -0.358 N 
ATOM     11  C9  UNL     1       4.028  -4.162 -30.874  0.00  0.00    -0.018 A 
ATOM     12  C10 UNL     1       2.827  -4.878 -30.920  0.00  0.00    +0.057 A 
ATOM     13  N3  UNL     1       2.118  -5.293 -29.769  0.00  0.00    -0.280 N 
ATOM     14  C11 UNL     1       2.475  -5.162 -28.446  0.00  0.00    +0.248 C 
ATOM     15  O1  UNL     1       3.528  -4.717 -28.007  0.00  0.00    -0.270 OA
ATOM     16  C12 UNL     1       1.459  -5.656 -27.472  0.00  0.00    +0.038 A 
ATOM     17  C13 UNL     1       1.907  -6.210 -26.264  0.00  0.00    -0.050 A 
ATOM     18  C14 UNL     1       0.991  -6.683 -25.324  0.00  0.00    -0.060 A 
ATOM     19  C15 UNL     1      -0.376  -6.599 -25.583  0.00  0.00    -0.043 A 
ATOM     20  C16 UNL     1      -0.822  -6.034 -26.777  0.00  0.00    +0.042 A 
ATOM     21 CL1  UNL     1      -2.512  -5.918 -27.086  0.00  0.00    -0.084 Cl
ATOM     22  C17 UNL     1       0.085  -5.555 -27.723  0.00  0.00    -0.031 A 
ATOM     23  H   UNL     1       6.289  -2.732 -32.830  0.00  0.00    +0.000 HD
ATOM     24  H   UNL     1       6.348  -2.972 -31.143  0.00  0.00    +0.000 HD
ATOM     25  H   UNL     1       1.255  -5.734 -29.937  0.00  0.00    +0.000 HD
ENDROOT
TORSDOF 0
ENDMDL
MODEL 8
REMARK VINA RESULT:    -6.077     11.478     13.254
REMARK INTER + INTRA:          -6.077
REMARK INTER:                  -6.077
REMARK INTRA:                   0.000
REMARK UNBOUND:                 0.000
REMARK  Name = /home/vital/Documents/PhD_2021/Malaria_codes/scripts/../data/pdbqt_ligands/ligand_148_temp.pdb
REMARK                            x       y       z     vdW  Elec       q    Type
REMARK                         _______ _______ _______ _____ _____    ______ ____
ROOT
ATOM      1  C1  UNL     1       0.142  -1.165 -34.731  0.00  0.00    -0.049 C 
ATOM      2  C2  UNL     1      -0.021  -2.365 -33.808  0.00  0.00    +0.009 C 
ATOM      3  N1  UNL     1       0.577  -2.178 -32.478  0.00  0.00    -0.329 N 
ATOM      4  C3  UNL     1      -0.248  -1.737 -31.349  0.00  0.00    +0.009 C 
ATOM      5  C4  UNL     1      -1.019  -0.450 -31.597  0.00  0.00    -0.049 C 
ATOM      6  C5  UNL     1       1.958  -1.949 -32.414  0.00  0.00    +0.051 A 
ATOM      7  C6  UNL     1       2.484  -0.657 -32.310  0.00  0.00    -0.037 A 
ATOM      8  C7  UNL     1       3.865  -0.442 -32.285  0.00  0.00    -0.039 A 
ATOM      9  C8  UNL     1       4.754  -1.516 -32.317  0.00  0.00    +0.026 A 
ATOM     10  N2  UNL     1       6.132  -1.283 -32.418  0.00  0.00    -0.358 N 
ATOM     11  C9  UNL     1       4.245  -2.808 -32.465  0.00  0.00    -0.018 A 
ATOM     12  C10 UNL     1       2.865  -3.036 -32.480  0.00  0.00    +0.057 A 
ATOM     13  N3  UNL     1       2.285  -4.324 -32.512  0.00  0.00    -0.280 N 
ATOM     14  C11 UNL     1       2.909  -5.547 -32.611  0.00  0.00    +0.248 C 
ATOM     15  O1  UNL     1       4.107  -5.752 -32.766  0.00  0.00    -0.270 OA
ATOM     16  C12 UNL     1       1.995  -6.723 -32.553  0.00  0.00    +0.038 A 
ATOM     17  C13 UNL     1       2.335  -7.869 -33.287  0.00  0.00    -0.050 A 
ATOM     18  C14 UNL     1       1.509  -8.993 -33.261  0.00  0.00    -0.060 A 
ATOM     19  C15 UNL     1       0.343  -8.981 -32.495  0.00  0.00    -0.043 A 
ATOM     20  C16 UNL     1       0.014  -7.848 -31.752  0.00  0.00    +0.042 A 
ATOM     21 CL1  UNL     1      -1.418  -7.842 -30.797  0.00  0.00    -0.084 Cl
ATOM     22  C17 UNL     1       0.833  -6.719 -31.770  0.00  0.00    -0.031 A 
ATOM     23  H   UNL     1       6.486  -0.370 -32.314  0.00  0.00    +0.000 HD
ATOM     24  H   UNL     1       6.746  -2.032 -32.593  0.00  0.00    +0.000 HD
ATOM     25  H   UNL     1       1.302  -4.350 -32.456  0.00  0.00    +0.000 HD
ENDROOT
TORSDOF 0
ENDMDL
MODEL 9
REMARK VINA RESULT:    -5.829     12.357     14.191
REMARK INTER + INTRA:          -5.829
REMARK INTER:                  -5.829
REMARK INTRA:                   0.000
REMARK UNBOUND:                 0.000
REMARK  Name = /home/vital/Documents/PhD_2021/Malaria_codes/scripts/../data/pdbqt_ligands/ligand_148_temp.pdb
REMARK                            x       y       z     vdW  Elec       q    Type
REMARK                         _______ _______ _______ _____ _____    ______ ____
ROOT
ATOM      1  C1  UNL     1      -0.054  -2.445 -35.741  0.00  0.00    -0.049 C 
ATOM      2  C2  UNL     1      -0.744  -3.312 -34.697  0.00  0.00    +0.009 C 
ATOM      3  N1  UNL     1      -0.094  -3.283 -33.378  0.00  0.00    -0.329 N 
ATOM      4  C3  UNL     1      -0.580  -2.380 -32.331  0.00  0.00    +0.009 C 
ATOM      5  C4  UNL     1      -0.655  -0.919 -32.743  0.00  0.00    -0.049 C 
ATOM      6  C5  UNL     1       1.232  -3.731 -33.298  0.00  0.00    +0.051 A 
ATOM      7  C6  UNL     1       2.310  -2.840 -33.322  0.00  0.00    -0.037 A 
ATOM      8  C7  UNL     1       3.629  -3.305 -33.278  0.00  0.00    -0.039 A 
ATOM      9  C8  UNL     1       3.900  -4.668 -33.164  0.00  0.00    +0.026 A 
ATOM     10  N2  UNL     1       5.220  -5.130 -33.248  0.00  0.00    -0.358 N 
ATOM     11  C9  UNL     1       2.835  -5.572 -33.183  0.00  0.00    -0.018 A 
ATOM     12  C10 UNL     1       1.512  -5.118 -33.215  0.00  0.00    +0.057 A 
ATOM     13  N3  UNL     1       0.389  -5.971 -33.121  0.00  0.00    -0.280 N 
ATOM     14  C11 UNL     1       0.356  -7.346 -33.064  0.00  0.00    +0.248 C 
ATOM     15  O1  UNL     1       1.308  -8.111 -33.159  0.00  0.00    -0.270 OA
ATOM     16  C12 UNL     1      -1.005  -7.933 -32.904  0.00  0.00    +0.038 A 
ATOM     17  C13 UNL     1      -1.269  -9.177 -33.495  0.00  0.00    -0.050 A 
ATOM     18  C14 UNL     1      -2.529  -9.764 -33.370  0.00  0.00    -0.060 A 
ATOM     19  C15 UNL     1      -3.528  -9.114 -32.646  0.00  0.00    -0.043 A 
ATOM     20  C16 UNL     1      -3.261  -7.885 -32.044  0.00  0.00    +0.042 A 
ATOM     21 CL1  UNL     1      -4.493  -7.094 -31.139  0.00  0.00    -0.084 Cl
ATOM     22  C17 UNL     1      -2.005  -7.290 -32.162  0.00  0.00    -0.031 A 
ATOM     23  H   UNL     1       5.968  -4.489 -33.235  0.00  0.00    +0.000 HD
ATOM     24  H   UNL     1       5.400  -6.095 -33.320  0.00  0.00    +0.000 HD
ATOM     25  H   UNL     1      -0.486  -5.521 -33.092  0.00  0.00    +0.000 HD
ENDROOT
TORSDOF 0
ENDMDL
