MODEL 1
REMARK VINA RESULT:    -6.169      0.000      0.000
REMARK INTER + INTRA:          -6.169
REMARK INTER:                  -6.169
REMARK INTRA:                   0.000
REMARK UNBOUND:                 0.000
REMARK  Name = /home/vital/Documents/PhD_2021/Malaria_codes/scripts/../data/pdbqt_ligands/ligand_130_temp.pdb
REMARK                            x       y       z     vdW  Elec       q    Type
REMARK                         _______ _______ _______ _____ _____    ______ ____
ROOT
ATOM      1  C1  UNL     1       6.802  -5.037 -24.040  0.00  0.00    -0.040 C 
ATOM      2  C2  UNL     1       6.322  -4.779 -25.437  0.00  0.00    -0.050 A 
ATOM      3  C3  UNL     1       4.998  -5.053 -25.794  0.00  0.00    -0.057 A 
ATOM      4  C4  UNL     1       4.553  -4.846 -27.106  0.00  0.00    -0.040 A 
ATOM      5  C5  UNL     1       5.429  -4.376 -28.084  0.00  0.00    +0.035 A 
ATOM      6  N1  UNL     1       5.057  -4.130 -29.423  0.00  0.00    -0.269 N 
ATOM      7  C6  UNL     1       3.860  -4.461 -30.043  0.00  0.00    +0.308 C 
ATOM      8  O1  UNL     1       2.962  -5.119 -29.536  0.00  0.00    -0.252 OA
ATOM      9  N2  UNL     1       3.830  -3.935 -31.327  0.00  0.00    -0.269 N 
ATOM     10  C7  UNL     1       2.842  -4.141 -32.314  0.00  0.00    +0.038 A 
ATOM     11  C8  UNL     1       2.926  -3.360 -33.475  0.00  0.00    -0.040 A 
ATOM     12  C9  UNL     1       1.995  -3.505 -34.510  0.00  0.00    -0.054 A 
ATOM     13  C10 UNL     1       0.958  -4.435 -34.396  0.00  0.00    -0.015 A 
ATOM     14  C11 UNL     1      -0.035  -4.630 -35.500  0.00  0.00    -0.037 C 
ATOM     15  C12 UNL     1       0.896  -5.222 -33.244  0.00  0.00    +0.128 A 
ATOM     16  F1  UNL     1      -0.073  -6.143 -33.124  0.00  0.00    -0.205 F 
ATOM     17  C13 UNL     1       1.820  -5.082 -32.210  0.00  0.00    -0.005 A 
ATOM     18  C14 UNL     1       6.756  -4.109 -27.727  0.00  0.00    -0.040 A 
ATOM     19  C15 UNL     1       7.202  -4.315 -26.419  0.00  0.00    -0.057 A 
ATOM     20  H   UNL     1       5.725  -3.671 -29.983  0.00  0.00    +0.000 HD
ATOM     21  H   UNL     1       4.583  -3.352 -31.578  0.00  0.00    +0.000 HD
ENDROOT
TORSDOF 0
ENDMDL
MODEL 2
REMARK VINA RESULT:    -6.047     12.094     13.604
REMARK INTER + INTRA:          -6.047
REMARK INTER:                  -6.047
REMARK INTRA:                   0.000
REMARK UNBOUND:                 0.000
REMARK  Name = /home/vital/Documents/PhD_2021/Malaria_codes/scripts/../data/pdbqt_ligands/ligand_130_temp.pdb
REMARK                            x       y       z     vdW  Elec       q    Type
REMARK                         _______ _______ _______ _____ _____    ______ ____
ROOT
ATOM      1  C1  UNL     1      -9.449   4.905 -25.324  0.00  0.00    -0.040 C 
ATOM      2  C2  UNL     1      -8.874   3.522 -25.404  0.00  0.00    -0.050 A 
ATOM      3  C3  UNL     1      -8.156   2.990 -24.329  0.00  0.00    -0.057 A 
ATOM      4  C4  UNL     1      -7.589   1.712 -24.411  0.00  0.00    -0.040 A 
ATOM      5  C5  UNL     1      -7.719   0.953 -25.574  0.00  0.00    +0.035 A 
ATOM      6  N1  UNL     1      -7.188  -0.345 -25.733  0.00  0.00    -0.269 N 
ATOM      7  C6  UNL     1      -6.324  -1.016 -24.877  0.00  0.00    +0.308 C 
ATOM      8  O1  UNL     1      -5.803  -0.533 -23.881  0.00  0.00    -0.252 OA
ATOM      9  N2  UNL     1      -6.137  -2.319 -25.318  0.00  0.00    -0.269 N 
ATOM     10  C7  UNL     1      -5.251  -3.282 -24.792  0.00  0.00    +0.038 A 
ATOM     11  C8  UNL     1      -5.365  -4.591 -25.281  0.00  0.00    -0.040 A 
ATOM     12  C9  UNL     1      -4.520  -5.607 -24.822  0.00  0.00    -0.054 A 
ATOM     13  C10 UNL     1      -3.546  -5.330 -23.859  0.00  0.00    -0.015 A 
ATOM     14  C11 UNL     1      -2.610  -6.393 -23.372  0.00  0.00    -0.037 C 
ATOM     15  C12 UNL     1      -3.427  -4.019 -23.394  0.00  0.00    +0.128 A 
ATOM     16  F1  UNL     1      -2.480  -3.721 -22.492  0.00  0.00    -0.205 F 
ATOM     17  C13 UNL     1      -4.266  -3.002 -23.847  0.00  0.00    -0.005 A 
ATOM     18  C14 UNL     1      -8.432   1.490 -26.652  0.00  0.00    -0.040 A 
ATOM     19  C15 UNL     1      -8.999   2.766 -26.573  0.00  0.00    -0.057 A 
ATOM     20  H   UNL     1      -7.462  -0.831 -26.544  0.00  0.00    +0.000 HD
ATOM     21  H   UNL     1      -6.685  -2.603 -26.086  0.00  0.00    +0.000 HD
ENDROOT
TORSDOF 0
ENDMDL
MODEL 3
REMARK VINA RESULT:    -6.035      2.203      8.014
REMARK INTER + INTRA:          -6.035
REMARK INTER:                  -6.035
REMARK INTRA:                   0.000
REMARK UNBOUND:                 0.000
REMARK  Name = /home/vital/Documents/PhD_2021/Malaria_codes/scripts/../data/pdbqt_ligands/ligand_130_temp.pdb
REMARK                            x       y       z     vdW  Elec       q    Type
REMARK                         _______ _______ _______ _____ _____    ______ ____
ROOT
ATOM      1  C1  UNL     1      -0.271  -4.273 -35.301  0.00  0.00    -0.040 C 
ATOM      2  C2  UNL     1       0.826  -4.206 -34.279  0.00  0.00    -0.050 A 
ATOM      3  C3  UNL     1       0.670  -4.816 -33.031  0.00  0.00    -0.057 A 
ATOM      4  C4  UNL     1       1.676  -4.728 -32.061  0.00  0.00    -0.040 A 
ATOM      5  C5  UNL     1       2.848  -4.016 -32.320  0.00  0.00    +0.035 A 
ATOM      6  N1  UNL     1       3.912  -3.890 -31.403  0.00  0.00    -0.269 N 
ATOM      7  C6  UNL     1       3.930  -4.273 -30.069  0.00  0.00    +0.308 C 
ATOM      8  O1  UNL     1       2.968  -4.700 -29.445  0.00  0.00    -0.252 OA
ATOM      9  N2  UNL     1       5.203  -4.101 -29.542  0.00  0.00    -0.269 N 
ATOM     10  C7  UNL     1       5.604  -4.269 -28.200  0.00  0.00    +0.038 A 
ATOM     11  C8  UNL     1       6.980  -4.220 -27.933  0.00  0.00    -0.040 A 
ATOM     12  C9  UNL     1       7.466  -4.367 -26.629  0.00  0.00    -0.054 A 
ATOM     13  C10 UNL     1       6.580  -4.569 -25.568  0.00  0.00    -0.015 A 
ATOM     14  C11 UNL     1       7.072  -4.701 -24.159  0.00  0.00    -0.037 C 
ATOM     15  C12 UNL     1       5.211  -4.596 -25.842  0.00  0.00    +0.128 A 
ATOM     16  F1  UNL     1       4.339  -4.760 -24.835  0.00  0.00    -0.205 F 
ATOM     17  C13 UNL     1       4.720  -4.451 -27.138  0.00  0.00    -0.005 A 
ATOM     18  C14 UNL     1       3.000  -3.400 -33.568  0.00  0.00    -0.040 A 
ATOM     19  C15 UNL     1       1.995  -3.486 -34.537  0.00  0.00    -0.057 A 
ATOM     20  H   UNL     1       4.739  -3.482 -31.749  0.00  0.00    +0.000 HD
ATOM     21  H   UNL     1       5.905  -3.831 -30.178  0.00  0.00    +0.000 HD
ENDROOT
TORSDOF 0
ENDMDL
MODEL 4
REMARK VINA RESULT:    -6.008      8.422     11.154
REMARK INTER + INTRA:          -6.008
REMARK INTER:                  -6.008
REMARK INTRA:                   0.000
REMARK UNBOUND:                 0.000
REMARK  Name = /home/vital/Documents/PhD_2021/Malaria_codes/scripts/../data/pdbqt_ligands/ligand_130_temp.pdb
REMARK                            x       y       z     vdW  Elec       q    Type
REMARK                         _______ _______ _______ _____ _____    ______ ____
ROOT
ATOM      1  C1  UNL     1      13.276   6.218 -23.557  0.00  0.00    -0.040 C 
ATOM      2  C2  UNL     1      12.746   4.848 -23.859  0.00  0.00    -0.050 A 
ATOM      3  C3  UNL     1      11.489   4.456 -23.391  0.00  0.00    -0.057 A 
ATOM      4  C4  UNL     1      11.002   3.167 -23.642  0.00  0.00    -0.040 A 
ATOM      5  C5  UNL     1      11.772   2.246 -24.352  0.00  0.00    +0.035 A 
ATOM      6  N1  UNL     1      11.352   0.934 -24.657  0.00  0.00    -0.269 N 
ATOM      7  C6  UNL     1      10.226   0.275 -24.180  0.00  0.00    +0.308 C 
ATOM      8  O1  UNL     1       9.464   0.708 -23.328  0.00  0.00    -0.252 OA
ATOM      9  N2  UNL     1      10.092  -0.953 -24.815  0.00  0.00    -0.269 N 
ATOM     10  C7  UNL     1       9.148  -1.963 -24.534  0.00  0.00    +0.038 A 
ATOM     11  C8  UNL     1       9.082  -3.043 -25.426  0.00  0.00    -0.040 A 
ATOM     12  C9  UNL     1       8.182  -4.094 -25.218  0.00  0.00    -0.054 A 
ATOM     13  C10 UNL     1       7.328  -4.080 -24.113  0.00  0.00    -0.015 A 
ATOM     14  C11 UNL     1       6.375  -5.206 -23.852  0.00  0.00    -0.037 C 
ATOM     15  C12 UNL     1       7.416  -3.010 -23.220  0.00  0.00    +0.128 A 
ATOM     16  F1  UNL     1       6.627  -2.989 -22.135  0.00  0.00    -0.205 F 
ATOM     17  C13 UNL     1       8.310  -1.960 -23.421  0.00  0.00    -0.005 A 
ATOM     18  C14 UNL     1      13.034   2.638 -24.815  0.00  0.00    -0.040 A 
ATOM     19  C15 UNL     1      13.521   3.924 -24.565  0.00  0.00    -0.057 A 
ATOM     20  H   UNL     1      11.922   0.427 -25.279  0.00  0.00    +0.000 HD
ATOM     21  H   UNL     1      10.728  -1.140 -25.543  0.00  0.00    +0.000 HD
ENDROOT
TORSDOF 0
ENDMDL
MODEL 5
REMARK VINA RESULT:    -5.905      7.459     10.397
REMARK INTER + INTRA:          -5.905
REMARK INTER:                  -5.905
REMARK INTRA:                   0.000
REMARK UNBOUND:                 0.000
REMARK  Name = /home/vital/Documents/PhD_2021/Malaria_codes/scripts/../data/pdbqt_ligands/ligand_130_temp.pdb
REMARK                            x       y       z     vdW  Elec       q    Type
REMARK                         _______ _______ _______ _____ _____    ______ ____
ROOT
ATOM      1  C1  UNL     1      13.829   5.768 -25.572  0.00  0.00    -0.040 C 
ATOM      2  C2  UNL     1      13.102   4.488 -25.282  0.00  0.00    -0.050 A 
ATOM      3  C3  UNL     1      12.591   3.711 -26.326  0.00  0.00    -0.057 A 
ATOM      4  C4  UNL     1      11.883   2.533 -26.060  0.00  0.00    -0.040 A 
ATOM      5  C5  UNL     1      11.662   2.121 -24.746  0.00  0.00    +0.035 A 
ATOM      6  N1  UNL     1      10.970   0.943 -24.394  0.00  0.00    -0.269 N 
ATOM      7  C6  UNL     1      10.253   0.101 -25.233  0.00  0.00    +0.308 C 
ATOM      8  O1  UNL     1      10.026   0.311 -26.416  0.00  0.00    -0.252 OA
ATOM      9  N2  UNL     1       9.829  -1.019 -24.530  0.00  0.00    -0.269 N 
ATOM     10  C7  UNL     1       8.983  -2.050 -24.992  0.00  0.00    +0.038 A 
ATOM     11  C8  UNL     1       8.840  -3.176 -24.169  0.00  0.00    -0.040 A 
ATOM     12  C9  UNL     1       8.013  -4.241 -24.545  0.00  0.00    -0.054 A 
ATOM     13  C10 UNL     1       7.318  -4.198 -25.756  0.00  0.00    -0.015 A 
ATOM     14  C11 UNL     1       6.405  -5.312 -26.167  0.00  0.00    -0.037 C 
ATOM     15  C12 UNL     1       7.452  -3.063 -26.558  0.00  0.00    +0.128 A 
ATOM     16  F1  UNL     1       6.772  -2.985 -27.712  0.00  0.00    -0.205 F 
ATOM     17  C13 UNL     1       8.274  -1.999 -26.191  0.00  0.00    -0.005 A 
ATOM     18  C14 UNL     1      12.169   2.904 -23.701  0.00  0.00    -0.040 A 
ATOM     19  C15 UNL     1      12.876   4.081 -23.965  0.00  0.00    -0.057 A 
ATOM     20  H   UNL     1      10.998   0.689 -23.443  0.00  0.00    +0.000 HD
ATOM     21  H   UNL     1      10.155  -1.103 -23.605  0.00  0.00    +0.000 HD
ENDROOT
TORSDOF 0
ENDMDL
MODEL 6
REMARK VINA RESULT:    -5.732      3.165      8.439
REMARK INTER + INTRA:          -5.732
REMARK INTER:                  -5.732
REMARK INTRA:                   0.000
REMARK UNBOUND:                 0.000
REMARK  Name = /home/vital/Documents/PhD_2021/Malaria_codes/scripts/../data/pdbqt_ligands/ligand_130_temp.pdb
REMARK                            x       y       z     vdW  Elec       q    Type
REMARK                         _______ _______ _______ _____ _____    ______ ____
ROOT
ATOM      1  C1  UNL     1       0.835  -2.955 -34.821  0.00  0.00    -0.040 C 
ATOM      2  C2  UNL     1       1.702  -3.316 -33.651  0.00  0.00    -0.050 A 
ATOM      3  C3  UNL     1       2.209  -2.321 -32.810  0.00  0.00    -0.057 A 
ATOM      4  C4  UNL     1       3.046  -2.650 -31.737  0.00  0.00    -0.040 A 
ATOM      5  C5  UNL     1       3.402  -3.977 -31.497  0.00  0.00    +0.035 A 
ATOM      6  N1  UNL     1       4.229  -4.393 -30.433  0.00  0.00    -0.269 N 
ATOM      7  C6  UNL     1       4.962  -3.590 -29.568  0.00  0.00    +0.308 C 
ATOM      8  O1  UNL     1       5.080  -2.376 -29.663  0.00  0.00    -0.252 OA
ATOM      9  N2  UNL     1       5.543  -4.369 -28.577  0.00  0.00    -0.269 N 
ATOM     10  C7  UNL     1       6.449  -3.950 -27.580  0.00  0.00    +0.038 A 
ATOM     11  C8  UNL     1       6.762  -4.872 -26.571  0.00  0.00    -0.040 A 
ATOM     12  C9  UNL     1       7.659  -4.544 -25.548  0.00  0.00    -0.054 A 
ATOM     13  C10 UNL     1       8.256  -3.281 -25.516  0.00  0.00    -0.015 A 
ATOM     14  C11 UNL     1       9.241  -2.914 -24.449  0.00  0.00    -0.037 C 
ATOM     15  C12 UNL     1       7.953  -2.377 -26.537  0.00  0.00    +0.128 A 
ATOM     16  F1  UNL     1       8.537  -1.169 -26.544  0.00  0.00    -0.205 F 
ATOM     17  C13 UNL     1       7.060  -2.698 -27.558  0.00  0.00    -0.005 A 
ATOM     18  C14 UNL     1       2.899  -4.972 -32.345  0.00  0.00    -0.040 A 
ATOM     19  C15 UNL     1       2.063  -4.645 -33.417  0.00  0.00    -0.057 A 
ATOM     20  H   UNL     1       4.295  -5.364 -30.286  0.00  0.00    +0.000 HD
ATOM     21  H   UNL     1       5.295  -5.322 -28.569  0.00  0.00    +0.000 HD
ENDROOT
TORSDOF 0
ENDMDL
MODEL 7
REMARK VINA RESULT:    -5.725      8.065     11.561
REMARK INTER + INTRA:          -5.725
REMARK INTER:                  -5.725
REMARK INTRA:                   0.000
REMARK UNBOUND:                 0.000
REMARK  Name = /home/vital/Documents/PhD_2021/Malaria_codes/scripts/../data/pdbqt_ligands/ligand_130_temp.pdb
REMARK                            x       y       z     vdW  Elec       q    Type
REMARK                         _______ _______ _______ _____ _____    ______ ____
ROOT
ATOM      1  C1  UNL     1       6.088  -5.226 -26.342  0.00  0.00    -0.040 C 
ATOM      2  C2  UNL     1       6.996  -4.115 -25.905  0.00  0.00    -0.050 A 
ATOM      3  C3  UNL     1       7.140  -2.967 -26.689  0.00  0.00    -0.057 A 
ATOM      4  C4  UNL     1       8.011  -1.941 -26.303  0.00  0.00    -0.040 A 
ATOM      5  C5  UNL     1       8.763  -2.054 -25.133  0.00  0.00    +0.035 A 
ATOM      6  N1  UNL     1       9.653  -1.063 -24.668  0.00  0.00    -0.269 N 
ATOM      7  C6  UNL     1      10.071   0.079 -25.338  0.00  0.00    +0.308 C 
ATOM      8  O1  UNL     1       9.800   0.355 -26.498  0.00  0.00    -0.252 OA
ATOM      9  N2  UNL     1      10.844   0.866 -24.495  0.00  0.00    -0.269 N 
ATOM     10  C7  UNL     1      11.545   2.044 -24.827  0.00  0.00    +0.038 A 
ATOM     11  C8  UNL     1      12.109   2.773 -23.771  0.00  0.00    -0.040 A 
ATOM     12  C9  UNL     1      12.830   3.949 -24.011  0.00  0.00    -0.054 A 
ATOM     13  C10 UNL     1      12.995   4.417 -25.317  0.00  0.00    -0.015 A 
ATOM     14  C11 UNL     1      13.786   5.657 -25.603  0.00  0.00    -0.037 C 
ATOM     15  C12 UNL     1      12.447   3.673 -26.363  0.00  0.00    +0.128 A 
ATOM     16  F1  UNL     1      12.617   4.086 -27.628  0.00  0.00    -0.205 F 
ATOM     17  C13 UNL     1      11.727   2.501 -26.131  0.00  0.00    -0.005 A 
ATOM     18  C14 UNL     1       8.623  -3.208 -24.352  0.00  0.00    -0.040 A 
ATOM     19  C15 UNL     1       7.754  -4.233 -24.737  0.00  0.00    -0.057 A 
ATOM     20  H   UNL     1      10.020  -1.197 -23.764  0.00  0.00    +0.000 HD
ATOM     21  H   UNL     1      10.911   0.568 -23.559  0.00  0.00    +0.000 HD
ENDROOT
TORSDOF 0
ENDMDL
MODEL 8
REMARK VINA RESULT:    -5.532      4.416      5.548
REMARK INTER + INTRA:          -5.532
REMARK INTER:                  -5.532
REMARK INTRA:                   0.000
REMARK UNBOUND:                 0.000
REMARK  Name = /home/vital/Documents/PhD_2021/Malaria_codes/scripts/../data/pdbqt_ligands/ligand_130_temp.pdb
REMARK                            x       y       z     vdW  Elec       q    Type
REMARK                         _______ _______ _______ _____ _____    ______ ____
ROOT
ATOM      1  C1  UNL     1       7.022   3.550 -31.442  0.00  0.00    -0.040 C 
ATOM      2  C2  UNL     1       6.638   2.125 -31.708  0.00  0.00    -0.050 A 
ATOM      3  C3  UNL     1       5.315   1.704 -31.541  0.00  0.00    -0.057 A 
ATOM      4  C4  UNL     1       4.958   0.368 -31.756  0.00  0.00    -0.040 A 
ATOM      5  C5  UNL     1       5.920  -0.572 -32.126  0.00  0.00    +0.035 A 
ATOM      6  N1  UNL     1       5.640  -1.933 -32.373  0.00  0.00    -0.269 N 
ATOM      7  C6  UNL     1       4.451  -2.609 -32.132  0.00  0.00    +0.308 C 
ATOM      8  O1  UNL     1       3.475  -2.138 -31.566  0.00  0.00    -0.252 OA
ATOM      9  N2  UNL     1       4.533  -3.902 -32.630  0.00  0.00    -0.269 N 
ATOM     10  C7  UNL     1       3.583  -4.936 -32.488  0.00  0.00    +0.038 A 
ATOM     11  C8  UNL     1       3.794  -6.105 -33.232  0.00  0.00    -0.040 A 
ATOM     12  C9  UNL     1       2.907  -7.184 -33.143  0.00  0.00    -0.054 A 
ATOM     13  C10 UNL     1       1.789  -7.108 -32.309  0.00  0.00    -0.015 A 
ATOM     14  C11 UNL     1       0.840  -8.260 -32.175  0.00  0.00    -0.037 C 
ATOM     15  C12 UNL     1       1.599  -5.947 -31.557  0.00  0.00    +0.128 A 
ATOM     16  F1  UNL     1       0.549  -5.862 -30.726  0.00  0.00    -0.205 F 
ATOM     17  C13 UNL     1       2.478  -4.869 -31.640  0.00  0.00    -0.005 A 
ATOM     18  C14 UNL     1       7.245  -0.151 -32.286  0.00  0.00    -0.040 A 
ATOM     19  C15 UNL     1       7.604   1.183 -32.072  0.00  0.00    -0.057 A 
ATOM     20  H   UNL     1       6.373  -2.465 -32.760  0.00  0.00    +0.000 HD
ATOM     21  H   UNL     1       5.346  -4.123 -33.140  0.00  0.00    +0.000 HD
ENDROOT
TORSDOF 0
ENDMDL
MODEL 9
REMARK VINA RESULT:    -5.388      2.093      2.602
REMARK INTER + INTRA:          -5.388
REMARK INTER:                  -5.388
REMARK INTRA:                   0.000
REMARK UNBOUND:                 0.000
REMARK  Name = /home/vital/Documents/PhD_2021/Malaria_codes/scripts/../data/pdbqt_ligands/ligand_130_temp.pdb
REMARK                            x       y       z     vdW  Elec       q    Type
REMARK                         _______ _______ _______ _____ _____    ______ ____
ROOT
ATOM      1  C1  UNL     1       8.891  -2.532 -24.168  0.00  0.00    -0.040 C 
ATOM      2  C2  UNL     1       8.008  -2.947 -25.307  0.00  0.00    -0.050 A 
ATOM      3  C3  UNL     1       7.673  -2.036 -26.313  0.00  0.00    -0.057 A 
ATOM      4  C4  UNL     1       6.822  -2.408 -27.361  0.00  0.00    -0.040 A 
ATOM      5  C5  UNL     1       6.281  -3.693 -27.411  0.00  0.00    +0.035 A 
ATOM      6  N1  UNL     1       5.427  -4.149 -28.437  0.00  0.00    -0.269 N 
ATOM      7  C6  UNL     1       4.841  -3.398 -29.447  0.00  0.00    +0.308 C 
ATOM      8  O1  UNL     1       4.901  -2.180 -29.544  0.00  0.00    -0.252 OA
ATOM      9  N2  UNL     1       4.175  -4.233 -30.333  0.00  0.00    -0.269 N 
ATOM     10  C7  UNL     1       3.365  -3.853 -31.424  0.00  0.00    +0.038 A 
ATOM     11  C8  UNL     1       2.943  -4.869 -32.293  0.00  0.00    -0.040 A 
ATOM     12  C9  UNL     1       2.129  -4.583 -33.395  0.00  0.00    -0.054 A 
ATOM     13  C10 UNL     1       1.726  -3.269 -33.647  0.00  0.00    -0.015 A 
ATOM     14  C11 UNL     1       0.831  -2.940 -34.803  0.00  0.00    -0.037 C 
ATOM     15  C12 UNL     1       2.134  -2.268 -32.764  0.00  0.00    +0.128 A 
ATOM     16  F1  UNL     1       1.734  -1.003 -32.969  0.00  0.00    -0.205 F 
ATOM     17  C13 UNL     1       2.945  -2.546 -31.665  0.00  0.00    -0.005 A 
ATOM     18  C14 UNL     1       6.611  -4.602 -26.399  0.00  0.00    -0.040 A 
ATOM     19  C15 UNL     1       7.460  -4.232 -25.352  0.00  0.00    -0.057 A 
ATOM     20  H   UNL     1       5.221  -5.113 -28.436  0.00  0.00    +0.000 HD
ATOM     21  H   UNL     1       4.280  -5.201 -30.184  0.00  0.00    +0.000 HD
ENDROOT
TORSDOF 0
ENDMDL
