MODEL 1
REMARK VINA RESULT:    -6.269      0.000      0.000
REMARK INTER + INTRA:          -6.269
REMARK INTER:                  -6.269
REMARK INTRA:                   0.000
REMARK UNBOUND:                 0.000
REMARK  Name = /home/vital/Documents/PhD_2021/Malaria_codes/scripts/../data/pdbqt_ligands/ligand_64_temp.pdb
REMARK                            x       y       z     vdW  Elec       q    Type
REMARK                         _______ _______ _______ _____ _____    ______ ____
ROOT
ATOM      1  C   UNL     1       0.067  -3.885 -36.003  0.00  0.00    -0.061 C 
ATOM      2  C   UNL     1       1.071  -4.556 -35.069  0.00  0.00    -0.028 C 
ATOM      3  C   UNL     1       2.086  -3.535 -34.532  0.00  0.00    -0.045 C 
ATOM      4  C   UNL     1       2.912  -4.064 -33.343  0.00  0.00    -0.028 C 
ATOM      5  C   UNL     1       2.606  -3.266 -32.069  0.00  0.00    -0.061 C 
ATOM      6  C   UNL     1       2.704  -5.565 -33.107  0.00  0.00    +0.018 C 
ATOM      7  N   UNL     1       1.292  -5.920 -32.994  0.00  0.00    -0.297 N 
ATOM      8  C   UNL     1       0.956  -7.008 -32.196  0.00  0.00    +0.249 C 
ATOM      9  O   UNL     1       1.759  -7.706 -31.585  0.00  0.00    -0.270 OA
ATOM     10  C   UNL     1      -0.465  -7.348 -32.025  0.00  0.00    +0.068 A 
ATOM     11  C   UNL     1      -1.295  -6.458 -31.333  0.00  0.00    -0.029 A 
ATOM     12  C   UNL     1      -2.621  -6.811 -31.080  0.00  0.00    +0.042 A 
ATOM     13 CL   UNL     1      -3.647  -5.714 -30.243  0.00  0.00    -0.084 Cl
ATOM     14  C   UNL     1      -3.122  -8.050 -31.492  0.00  0.00    -0.041 A 
ATOM     15  C   UNL     1      -2.294  -8.949 -32.168  0.00  0.00    -0.029 A 
ATOM     16  C   UNL     1      -0.965  -8.588 -32.428  0.00  0.00    +0.138 A 
ATOM     17  N   UNL     1      -0.135  -9.508 -33.183  0.00  0.00    +0.057 N 
ATOM     18  O   UNL     1      -0.092 -10.680 -32.790  0.00  0.00    -0.126 OA
ATOM     19  O   UNL     1       0.398  -9.069 -34.211  0.00  0.00    -0.126 OA
ATOM     20  C   UNL     1       0.358  -5.269 -33.917  0.00  0.00    +0.018 C 
ENDROOT
TORSDOF 0
ENDMDL
MODEL 2
REMARK VINA RESULT:    -6.155     18.833     20.989
REMARK INTER + INTRA:          -6.155
REMARK INTER:                  -6.155
REMARK INTRA:                   0.000
REMARK UNBOUND:                 0.000
REMARK  Name = /home/vital/Documents/PhD_2021/Malaria_codes/scripts/../data/pdbqt_ligands/ligand_64_temp.pdb
REMARK                            x       y       z     vdW  Elec       q    Type
REMARK                         _______ _______ _______ _____ _____    ______ ____
ROOT
ATOM      1  C   UNL     1       1.843   8.469 -17.261  0.00  0.00    -0.061 C 
ATOM      2  C   UNL     1       1.160   7.115 -17.085  0.00  0.00    -0.028 C 
ATOM      3  C   UNL     1       0.347   6.745 -18.335  0.00  0.00    -0.045 C 
ATOM      4  C   UNL     1      -0.092   5.267 -18.364  0.00  0.00    -0.028 C 
ATOM      5  C   UNL     1       0.574   4.524 -19.528  0.00  0.00    -0.061 C 
ATOM      6  C   UNL     1       0.180   4.551 -17.035  0.00  0.00    +0.018 C 
ATOM      7  N   UNL     1       1.563   4.704 -16.593  0.00  0.00    -0.297 N 
ATOM      8  C   UNL     1       2.122   3.679 -15.836  0.00  0.00    +0.249 C 
ATOM      9  O   UNL     1       1.537   2.657 -15.497  0.00  0.00    -0.270 OA
ATOM     10  C   UNL     1       3.532   3.789 -15.427  0.00  0.00    +0.068 A 
ATOM     11  C   UNL     1       4.526   3.740 -16.412  0.00  0.00    -0.029 A 
ATOM     12  C   UNL     1       5.869   3.746 -16.031  0.00  0.00    +0.042 A 
ATOM     13 CL   UNL     1       7.093   3.699 -17.237  0.00  0.00    -0.084 Cl
ATOM     14  C   UNL     1       6.229   3.782 -14.680  0.00  0.00    -0.041 A 
ATOM     15  C   UNL     1       5.241   3.814 -13.694  0.00  0.00    -0.029 A 
ATOM     16  C   UNL     1       3.893   3.816 -14.080  0.00  0.00    +0.138 A 
ATOM     17  N   UNL     1       2.879   3.911 -13.046  0.00  0.00    +0.057 N 
ATOM     18  O   UNL     1       2.957   3.110 -12.106  0.00  0.00    -0.126 OA
ATOM     19  O   UNL     1       2.066   4.841 -13.140  0.00  0.00    -0.126 OA
ATOM     20  C   UNL     1       2.183   6.022 -16.762  0.00  0.00    +0.018 C 
ENDROOT
TORSDOF 0
ENDMDL
MODEL 3
REMARK VINA RESULT:    -6.093      1.689      1.903
REMARK INTER + INTRA:          -6.093
REMARK INTER:                  -6.093
REMARK INTRA:                   0.000
REMARK UNBOUND:                 0.000
REMARK  Name = /home/vital/Documents/PhD_2021/Malaria_codes/scripts/../data/pdbqt_ligands/ligand_64_temp.pdb
REMARK                            x       y       z     vdW  Elec       q    Type
REMARK                         _______ _______ _______ _____ _____    ______ ____
ROOT
ATOM      1  C   UNL     1       0.909  -2.477 -33.604  0.00  0.00    -0.061 C 
ATOM      2  C   UNL     1       1.890  -3.645 -33.680  0.00  0.00    -0.028 C 
ATOM      3  C   UNL     1       3.326  -3.173 -33.410  0.00  0.00    -0.045 C 
ATOM      4  C   UNL     1       4.310  -4.330 -33.145  0.00  0.00    -0.028 C 
ATOM      5  C   UNL     1       4.847  -4.270 -31.709  0.00  0.00    -0.061 C 
ATOM      6  C   UNL     1       3.690  -5.702 -33.436  0.00  0.00    +0.018 C 
ATOM      7  N   UNL     1       2.417  -5.897 -32.748  0.00  0.00    -0.297 N 
ATOM      8  C   UNL     1       2.063  -7.192 -32.386  0.00  0.00    +0.249 C 
ATOM      9  O   UNL     1       2.734  -8.193 -32.613  0.00  0.00    -0.270 OA
ATOM     10  C   UNL     1       0.810  -7.401 -31.643  0.00  0.00    +0.068 A 
ATOM     11  C   UNL     1       0.706  -6.902 -30.339  0.00  0.00    -0.029 A 
ATOM     12  C   UNL     1      -0.438  -7.176 -29.589  0.00  0.00    +0.042 A 
ATOM     13 CL   UNL     1      -0.575  -6.553 -27.992  0.00  0.00    -0.084 Cl
ATOM     14  C   UNL     1      -1.470  -7.958 -30.117  0.00  0.00    -0.041 A 
ATOM     15  C   UNL     1      -1.364  -8.473 -31.411  0.00  0.00    -0.029 A 
ATOM     16  C   UNL     1      -0.217  -8.189 -32.166  0.00  0.00    +0.138 A 
ATOM     17  N   UNL     1      -0.148  -8.681 -33.529  0.00  0.00    +0.057 N 
ATOM     18  O   UNL     1      -0.376  -9.884 -33.706  0.00  0.00    -0.126 OA
ATOM     19  O   UNL     1       0.047  -7.842 -34.419  0.00  0.00    -0.126 OA
ATOM     20  C   UNL     1       1.493  -4.759 -32.707  0.00  0.00    +0.018 C 
ENDROOT
TORSDOF 0
ENDMDL
MODEL 4
REMARK VINA RESULT:    -6.073     19.733     21.400
REMARK INTER + INTRA:          -6.073
REMARK INTER:                  -6.073
REMARK INTRA:                   0.000
REMARK UNBOUND:                 0.000
REMARK  Name = /home/vital/Documents/PhD_2021/Malaria_codes/scripts/../data/pdbqt_ligands/ligand_64_temp.pdb
REMARK                            x       y       z     vdW  Elec       q    Type
REMARK                         _______ _______ _______ _____ _____    ______ ____
ROOT
ATOM      1  C   UNL     1       5.939   3.339 -16.208  0.00  0.00    -0.061 C 
ATOM      2  C   UNL     1       4.798   3.527 -15.210  0.00  0.00    -0.028 C 
ATOM      3  C   UNL     1       5.343   3.732 -13.788  0.00  0.00    -0.045 C 
ATOM      4  C   UNL     1       4.282   4.252 -12.797  0.00  0.00    -0.028 C 
ATOM      5  C   UNL     1       4.642   5.659 -12.303  0.00  0.00    -0.061 C 
ATOM      6  C   UNL     1       2.868   4.230 -13.390  0.00  0.00    +0.018 C 
ATOM      7  N   UNL     1       2.793   4.910 -14.680  0.00  0.00    -0.297 N 
ATOM      8  C   UNL     1       1.592   5.519 -15.026  0.00  0.00    +0.249 C 
ATOM      9  O   UNL     1       0.578   5.517 -14.336  0.00  0.00    -0.270 OA
ATOM     10  C   UNL     1       1.513   6.257 -16.297  0.00  0.00    +0.068 A 
ATOM     11  C   UNL     1       2.264   7.429 -16.446  0.00  0.00    -0.029 A 
ATOM     12  C   UNL     1       2.126   8.190 -17.607  0.00  0.00    +0.042 A 
ATOM     13 CL   UNL     1       3.057   9.622 -17.799  0.00  0.00    -0.084 Cl
ATOM     14  C   UNL     1       1.234   7.805 -18.613  0.00  0.00    -0.041 A 
ATOM     15  C   UNL     1       0.469   6.645 -18.462  0.00  0.00    -0.029 A 
ATOM     16  C   UNL     1       0.616   5.878 -17.298  0.00  0.00    +0.138 A 
ATOM     17  N   UNL     1      -0.140   4.646 -17.183  0.00  0.00    +0.057 N 
ATOM     18  O   UNL     1      -1.359   4.712 -17.389  0.00  0.00    -0.126 OA
ATOM     19  O   UNL     1       0.504   3.609 -16.973  0.00  0.00    -0.126 OA
ATOM     20  C   UNL     1       3.897   4.695 -15.619  0.00  0.00    +0.018 C 
ENDROOT
TORSDOF 0
ENDMDL
MODEL 5
REMARK VINA RESULT:    -5.984     19.154     20.612
REMARK INTER + INTRA:          -5.984
REMARK INTER:                  -5.984
REMARK INTRA:                   0.000
REMARK UNBOUND:                 0.000
REMARK  Name = /home/vital/Documents/PhD_2021/Malaria_codes/scripts/../data/pdbqt_ligands/ligand_64_temp.pdb
REMARK                            x       y       z     vdW  Elec       q    Type
REMARK                         _______ _______ _______ _____ _____    ______ ____
ROOT
ATOM      1  C   UNL     1       4.195   8.086 -17.856  0.00  0.00    -0.061 C 
ATOM      2  C   UNL     1       2.862   7.531 -17.361  0.00  0.00    -0.028 C 
ATOM      3  C   UNL     1       1.736   7.838 -18.360  0.00  0.00    -0.045 C 
ATOM      4  C   UNL     1       0.448   7.034 -18.095  0.00  0.00    -0.028 C 
ATOM      5  C   UNL     1       0.158   6.072 -19.254  0.00  0.00    -0.061 C 
ATOM      6  C   UNL     1       0.493   6.280 -16.761  0.00  0.00    +0.018 C 
ATOM      7  N   UNL     1       1.691   5.455 -16.628  0.00  0.00    -0.297 N 
ATOM      8  C   UNL     1       1.603   4.298 -15.862  0.00  0.00    +0.249 C 
ATOM      9  O   UNL     1       0.595   3.919 -15.274  0.00  0.00    -0.270 OA
ATOM     10  C   UNL     1       2.783   3.425 -15.761  0.00  0.00    +0.068 A 
ATOM     11  C   UNL     1       3.226   2.752 -16.907  0.00  0.00    -0.029 A 
ATOM     12  C   UNL     1       4.284   1.848 -16.805  0.00  0.00    +0.042 A 
ATOM     13 CL   UNL     1       4.840   1.031 -18.212  0.00  0.00    -0.084 Cl
ATOM     14  C   UNL     1       4.891   1.592 -15.571  0.00  0.00    -0.041 A 
ATOM     15  C   UNL     1       4.442   2.248 -14.422  0.00  0.00    -0.029 A 
ATOM     16  C   UNL     1       3.384   3.162 -14.529  0.00  0.00    +0.138 A 
ATOM     17  N   UNL     1       2.969   3.879 -13.338  0.00  0.00    +0.057 N 
ATOM     18  O   UNL     1       2.727   3.203 -12.330  0.00  0.00    -0.126 OA
ATOM     19  O   UNL     1       2.972   5.116 -13.397  0.00  0.00    -0.126 OA
ATOM     20  C   UNL     1       2.957   6.025 -17.099  0.00  0.00    +0.018 C 
ENDROOT
TORSDOF 0
ENDMDL
MODEL 6
REMARK VINA RESULT:    -5.914      3.941      6.105
REMARK INTER + INTRA:          -5.914
REMARK INTER:                  -5.914
REMARK INTRA:                   0.000
REMARK UNBOUND:                 0.000
REMARK  Name = /home/vital/Documents/PhD_2021/Malaria_codes/scripts/../data/pdbqt_ligands/ligand_64_temp.pdb
REMARK                            x       y       z     vdW  Elec       q    Type
REMARK                         _______ _______ _______ _____ _____    ______ ____
ROOT
ATOM      1  C   UNL     1       1.575  -8.396 -32.857  0.00  0.00    -0.061 C 
ATOM      2  C   UNL     1       1.766  -7.018 -33.485  0.00  0.00    -0.028 C 
ATOM      3  C   UNL     1       0.488  -6.561 -34.205  0.00  0.00    -0.045 C 
ATOM      4  C   UNL     1       0.496  -5.064 -34.571  0.00  0.00    -0.028 C 
ATOM      5  C   UNL     1      -0.597  -4.310 -33.803  0.00  0.00    -0.061 C 
ATOM      6  C   UNL     1       1.866  -4.414 -34.346  0.00  0.00    +0.018 C 
ATOM      7  N   UNL     1       2.381  -4.651 -33.000  0.00  0.00    -0.297 N 
ATOM      8  C   UNL     1       3.210  -3.685 -32.440  0.00  0.00    +0.249 C 
ATOM      9  O   UNL     1       3.557  -2.649 -32.997  0.00  0.00    -0.270 OA
ATOM     10  C   UNL     1       3.694  -3.880 -31.064  0.00  0.00    +0.068 A 
ATOM     11  C   UNL     1       2.772  -3.841 -30.011  0.00  0.00    -0.029 A 
ATOM     12  C   UNL     1       3.229  -3.927 -28.696  0.00  0.00    +0.042 A 
ATOM     13 CL   UNL     1       2.098  -3.894 -27.401  0.00  0.00    -0.084 Cl
ATOM     14  C   UNL     1       4.595  -4.033 -28.419  0.00  0.00    -0.041 A 
ATOM     15  C   UNL     1       5.521  -4.055 -29.464  0.00  0.00    -0.029 A 
ATOM     16  C   UNL     1       5.058  -3.976 -30.786  0.00  0.00    +0.138 A 
ATOM     17  N   UNL     1       6.028  -4.061 -31.862  0.00  0.00    +0.057 N 
ATOM     18  O   UNL     1       7.003  -3.302 -31.803  0.00  0.00    -0.126 OA
ATOM     19  O   UNL     1       5.848  -4.945 -32.710  0.00  0.00    -0.126 OA
ATOM     20  C   UNL     1       2.193  -5.990 -32.434  0.00  0.00    +0.018 C 
ENDROOT
TORSDOF 0
ENDMDL
MODEL 7
REMARK VINA RESULT:    -5.883      4.726      6.289
REMARK INTER + INTRA:          -5.883
REMARK INTER:                  -5.883
REMARK INTRA:                   0.000
REMARK UNBOUND:                 0.000
REMARK  Name = /home/vital/Documents/PhD_2021/Malaria_codes/scripts/../data/pdbqt_ligands/ligand_64_temp.pdb
REMARK                            x       y       z     vdW  Elec       q    Type
REMARK                         _______ _______ _______ _____ _____    ______ ____
ROOT
ATOM      1  C   UNL     1       2.707  -7.207 -33.324  0.00  0.00    -0.061 C 
ATOM      2  C   UNL     1       2.953  -5.706 -33.200  0.00  0.00    -0.028 C 
ATOM      3  C   UNL     1       1.931  -4.913 -34.028  0.00  0.00    -0.045 C 
ATOM      4  C   UNL     1       1.909  -3.408 -33.692  0.00  0.00    -0.028 C 
ATOM      5  C   UNL     1       0.561  -3.007 -33.079  0.00  0.00    -0.061 C 
ATOM      6  C   UNL     1       3.067  -2.996 -32.776  0.00  0.00    +0.018 C 
ATOM      7  N   UNL     1       3.150  -3.824 -31.576  0.00  0.00    -0.297 N 
ATOM      8  C   UNL     1       3.662  -3.246 -30.419  0.00  0.00    +0.249 C 
ATOM      9  O   UNL     1       4.065  -2.091 -30.330  0.00  0.00    -0.270 OA
ATOM     10  C   UNL     1       3.702  -4.047 -29.186  0.00  0.00    +0.068 A 
ATOM     11  C   UNL     1       2.494  -4.421 -28.583  0.00  0.00    -0.029 A 
ATOM     12  C   UNL     1       2.517  -5.097 -27.363  0.00  0.00    +0.042 A 
ATOM     13 CL   UNL     1       1.037  -5.571 -26.627  0.00  0.00    -0.084 Cl
ATOM     14  C   UNL     1       3.729  -5.387 -26.728  0.00  0.00    -0.041 A 
ATOM     15  C   UNL     1       4.936  -5.001 -27.317  0.00  0.00    -0.029 A 
ATOM     16  C   UNL     1       4.910  -4.329 -28.547  0.00  0.00    +0.138 A 
ATOM     17  N   UNL     1       6.173  -3.988 -29.173  0.00  0.00    +0.057 N 
ATOM     18  O   UNL     1       7.001  -3.384 -28.479  0.00  0.00    -0.126 OA
ATOM     19  O   UNL     1       6.358  -4.402 -30.325  0.00  0.00    -0.126 OA
ATOM     20  C   UNL     1       2.923  -5.264 -31.734  0.00  0.00    +0.018 C 
ENDROOT
TORSDOF 0
ENDMDL
MODEL 8
REMARK VINA RESULT:    -5.849      2.306      5.630
REMARK INTER + INTRA:          -5.849
REMARK INTER:                  -5.849
REMARK INTRA:                   0.000
REMARK UNBOUND:                 0.000
REMARK  Name = /home/vital/Documents/PhD_2021/Malaria_codes/scripts/../data/pdbqt_ligands/ligand_64_temp.pdb
REMARK                            x       y       z     vdW  Elec       q    Type
REMARK                         _______ _______ _______ _____ _____    ______ ____
ROOT
ATOM      1  C   UNL     1      -3.333  -6.418 -31.283  0.00  0.00    -0.061 C 
ATOM      2  C   UNL     1      -2.393  -7.387 -31.996  0.00  0.00    -0.028 C 
ATOM      3  C   UNL     1      -3.187  -8.433 -32.793  0.00  0.00    -0.045 C 
ATOM      4  C   UNL     1      -2.321  -9.228 -33.791  0.00  0.00    -0.028 C 
ATOM      5  C   UNL     1      -2.749  -8.938 -35.235  0.00  0.00    -0.061 C 
ATOM      6  C   UNL     1      -0.822  -8.963 -33.604  0.00  0.00    +0.018 C 
ATOM      7  N   UNL     1      -0.503  -7.537 -33.616  0.00  0.00    -0.297 N 
ATOM      8  C   UNL     1       0.749  -7.154 -34.084  0.00  0.00    +0.249 C 
ATOM      9  O   UNL     1       1.618  -7.924 -34.479  0.00  0.00    -0.270 OA
ATOM     10  C   UNL     1       1.068  -5.719 -34.156  0.00  0.00    +0.068 A 
ATOM     11  C   UNL     1       0.371  -4.916 -35.066  0.00  0.00    -0.029 A 
ATOM     12  C   UNL     1       0.730  -3.575 -35.213  0.00  0.00    +0.042 A 
ATOM     13 CL   UNL     1      -0.133  -2.582 -36.320  0.00  0.00    -0.084 Cl
ATOM     14  C   UNL     1       1.788  -3.033 -34.476  0.00  0.00    -0.041 A 
ATOM     15  C   UNL     1       2.497  -3.834 -33.578  0.00  0.00    -0.029 A 
ATOM     16  C   UNL     1       2.130  -5.179 -33.427  0.00  0.00    +0.138 A 
ATOM     17  N   UNL     1       2.837  -5.982 -32.448  0.00  0.00    +0.057 N 
ATOM     18  O   UNL     1       4.073  -5.977 -32.503  0.00  0.00    -0.126 OA
ATOM     19  O   UNL     1       2.153  -6.540 -31.580  0.00  0.00    -0.126 OA
ATOM     20  C   UNL     1      -1.418  -6.637 -32.908  0.00  0.00    +0.018 C 
ENDROOT
TORSDOF 0
ENDMDL
MODEL 9
REMARK VINA RESULT:    -5.823     19.150     21.208
REMARK INTER + INTRA:          -5.823
REMARK INTER:                  -5.823
REMARK INTRA:                   0.000
REMARK UNBOUND:                 0.000
REMARK  Name = /home/vital/Documents/PhD_2021/Malaria_codes/scripts/../data/pdbqt_ligands/ligand_64_temp.pdb
REMARK                            x       y       z     vdW  Elec       q    Type
REMARK                         _______ _______ _______ _____ _____    ______ ____
ROOT
ATOM      1  C   UNL     1       3.218  10.066 -17.016  0.00  0.00    -0.061 C 
ATOM      2  C   UNL     1       2.460   8.869 -17.584  0.00  0.00    -0.028 C 
ATOM      3  C   UNL     1       2.475   8.889 -19.120  0.00  0.00    -0.045 C 
ATOM      4  C   UNL     1       2.024   7.557 -19.752  0.00  0.00    -0.028 C 
ATOM      5  C   UNL     1       3.177   6.903 -20.523  0.00  0.00    -0.061 C 
ATOM      6  C   UNL     1       1.442   6.586 -18.718  0.00  0.00    +0.018 C 
ATOM      7  N   UNL     1       2.337   6.378 -17.583  0.00  0.00    -0.297 N 
ATOM      8  C   UNL     1       2.291   5.149 -16.934  0.00  0.00    +0.249 C 
ATOM      9  O   UNL     1       1.544   4.224 -17.233  0.00  0.00    -0.270 OA
ATOM     10  C   UNL     1       3.224   4.901 -15.823  0.00  0.00    +0.068 A 
ATOM     11  C   UNL     1       4.595   4.818 -16.097  0.00  0.00    -0.029 A 
ATOM     12  C   UNL     1       5.481   4.488 -15.071  0.00  0.00    +0.042 A 
ATOM     13 CL   UNL     1       7.166   4.399 -15.400  0.00  0.00    -0.084 Cl
ATOM     14  C   UNL     1       5.013   4.221 -13.780  0.00  0.00    -0.041 A 
ATOM     15  C   UNL     1       3.645   4.285 -13.505  0.00  0.00    -0.029 A 
ATOM     16  C   UNL     1       2.758   4.625 -14.537  0.00  0.00    +0.138 A 
ATOM     17  N   UNL     1       1.347   4.747 -14.221  0.00  0.00    +0.057 N 
ATOM     18  O   UNL     1       0.820   3.799 -13.625  0.00  0.00    -0.126 OA
ATOM     19  O   UNL     1       0.801   5.824 -14.496  0.00  0.00    -0.126 OA
ATOM     20  C   UNL     1       3.037   7.553 -17.053  0.00  0.00    +0.018 C 
ENDROOT
TORSDOF 0
ENDMDL
