MODEL 1
REMARK VINA RESULT:    -3.898      0.000      0.000
REMARK INTER + INTRA:          -3.898
REMARK INTER:                  -3.898
REMARK INTRA:                   0.000
REMARK UNBOUND:                 0.000
REMARK  Name = /home/vital/Documents/PhD_2021/Malaria_codes/scripts/../data/pdbqt_ligands/ligand_129_temp.pdb
REMARK                            x       y       z     vdW  Elec       q    Type
REMARK                         _______ _______ _______ _____ _____    ______ ____
ROOT
ATOM      1 CL1  UNL     1       2.802   8.824 -19.130  0.00  0.00    -0.092 Cl
ATOM      2  C1  UNL     1       2.568   8.757 -17.434  0.00  0.00    +0.005 C 
ATOM      3  C2  UNL     1       1.780   7.898 -16.779  0.00  0.00    -0.049 C 
ATOM      4  C3  UNL     1       0.958   6.860 -17.371  0.00  0.00    -0.042 C 
ATOM      5  C4  UNL     1       0.205   5.975 -16.681  0.00  0.00    +0.027 C 
ATOM      6  C5  UNL     1      -0.672   5.000 -17.452  0.00  0.00    +0.061 C 
ATOM      7 CL2  UNL     1      -2.367   5.123 -16.916  0.00  0.00    -0.119 Cl
ATOM      8  N1  UNL     1       0.133   5.915 -15.283  0.00  0.00    -0.290 N 
ATOM      9  I1  UNL     1       1.619   4.863 -14.385  0.00  0.00    +0.042 I 
ATOM     10  H   UNL     1      -0.587   6.350 -14.773  0.00  0.00    +0.000 HD
ENDROOT
TORSDOF 0
ENDMDL
MODEL 2
REMARK VINA RESULT:    -3.767     20.072     20.777
REMARK INTER + INTRA:          -3.767
REMARK INTER:                  -3.767
REMARK INTRA:                   0.000
REMARK UNBOUND:                 0.000
REMARK  Name = /home/vital/Documents/PhD_2021/Malaria_codes/scripts/../data/pdbqt_ligands/ligand_129_temp.pdb
REMARK                            x       y       z     vdW  Elec       q    Type
REMARK                         _______ _______ _______ _____ _____    ______ ____
ROOT
ATOM      1 CL1  UNL     1       0.035  -1.236 -35.427  0.00  0.00    -0.092 Cl
ATOM      2  C1  UNL     1       0.257  -2.827 -36.021  0.00  0.00    +0.005 C 
ATOM      3  C2  UNL     1       0.972  -3.794 -35.439  0.00  0.00    -0.049 C 
ATOM      4  C3  UNL     1       1.712  -3.690 -34.196  0.00  0.00    -0.042 C 
ATOM      5  C4  UNL     1       2.390  -4.699 -33.607  0.00  0.00    +0.027 C 
ATOM      6  C5  UNL     1       3.191  -4.407 -32.346  0.00  0.00    +0.061 C 
ATOM      7 CL2  UNL     1       4.889  -4.909 -32.551  0.00  0.00    -0.119 Cl
ATOM      8  N1  UNL     1       2.452  -6.008 -34.100  0.00  0.00    -0.290 N 
ATOM      9  I1  UNL     1       0.885  -7.197 -33.599  0.00  0.00    +0.042 I 
ATOM     10  H   UNL     1       3.203  -6.330 -34.650  0.00  0.00    +0.000 HD
ENDROOT
TORSDOF 0
ENDMDL
MODEL 3
REMARK VINA RESULT:    -3.722     19.857     20.383
REMARK INTER + INTRA:          -3.722
REMARK INTER:                  -3.722
REMARK INTRA:                   0.000
REMARK UNBOUND:                 0.000
REMARK  Name = /home/vital/Documents/PhD_2021/Malaria_codes/scripts/../data/pdbqt_ligands/ligand_129_temp.pdb
REMARK                            x       y       z     vdW  Elec       q    Type
REMARK                         _______ _______ _______ _____ _____    ______ ____
ROOT
ATOM      1 CL1  UNL     1       6.142  -4.083 -30.683  0.00  0.00    -0.092 Cl
ATOM      2  C1  UNL     1       5.711  -3.935 -32.334  0.00  0.00    +0.005 C 
ATOM      3  C2  UNL     1       4.674  -4.526 -32.935  0.00  0.00    -0.049 C 
ATOM      4  C3  UNL     1       3.714  -5.420 -32.315  0.00  0.00    -0.042 C 
ATOM      5  C4  UNL     1       2.647  -5.969 -32.937  0.00  0.00    +0.027 C 
ATOM      6  C5  UNL     1       1.781  -6.958 -32.172  0.00  0.00    +0.061 C 
ATOM      7 CL2  UNL     1       1.650  -8.497 -33.062  0.00  0.00    -0.119 Cl
ATOM      8  N1  UNL     1       2.296  -5.729 -34.272  0.00  0.00    -0.290 N 
ATOM      9  I1  UNL     1       1.211  -4.044 -34.592  0.00  0.00    +0.042 I 
ATOM     10  H   UNL     1       2.557  -6.335 -35.003  0.00  0.00    +0.000 HD
ENDROOT
TORSDOF 0
ENDMDL
MODEL 4
REMARK VINA RESULT:    -3.658     14.072     14.322
REMARK INTER + INTRA:          -3.658
REMARK INTER:                  -3.658
REMARK INTRA:                   0.000
REMARK UNBOUND:                 0.000
REMARK  Name = /home/vital/Documents/PhD_2021/Malaria_codes/scripts/../data/pdbqt_ligands/ligand_129_temp.pdb
REMARK                            x       y       z     vdW  Elec       q    Type
REMARK                         _______ _______ _______ _____ _____    ______ ____
ROOT
ATOM      1 CL1  UNL     1       9.587  -0.528 -24.537  0.00  0.00    -0.092 Cl
ATOM      2  C1  UNL     1       9.708  -2.171 -25.006  0.00  0.00    +0.005 C 
ATOM      3  C2  UNL     1       8.800  -3.126 -24.778  0.00  0.00    -0.049 C 
ATOM      4  C3  UNL     1       7.540  -2.967 -24.079  0.00  0.00    -0.042 C 
ATOM      5  C4  UNL     1       6.620  -3.941 -23.901  0.00  0.00    +0.027 C 
ATOM      6  C5  UNL     1       5.383  -3.639 -23.068  0.00  0.00    +0.061 C 
ATOM      7 CL2  UNL     1       5.217  -4.819 -21.743  0.00  0.00    -0.119 Cl
ATOM      8  N1  UNL     1       6.739  -5.245 -24.397  0.00  0.00    -0.290 N 
ATOM      9  I1  UNL     1       6.162  -5.495 -26.327  0.00  0.00    +0.042 I 
ATOM     10  H   UNL     1       7.078  -5.989 -23.848  0.00  0.00    +0.000 HD
ENDROOT
TORSDOF 0
ENDMDL
MODEL 5
REMARK VINA RESULT:    -3.538     11.432     11.921
REMARK INTER + INTRA:          -3.538
REMARK INTER:                  -3.538
REMARK INTRA:                   0.000
REMARK UNBOUND:                 0.000
REMARK  Name = /home/vital/Documents/PhD_2021/Malaria_codes/scripts/../data/pdbqt_ligands/ligand_129_temp.pdb
REMARK                            x       y       z     vdW  Elec       q    Type
REMARK                         _______ _______ _______ _____ _____    ______ ____
ROOT
ATOM      1 CL1  UNL     1      -6.011  -1.672 -24.791  0.00  0.00    -0.092 Cl
ATOM      2  C1  UNL     1      -6.283  -1.934 -23.120  0.00  0.00    +0.005 C 
ATOM      3  C2  UNL     1      -5.362  -2.277 -22.214  0.00  0.00    -0.049 C 
ATOM      4  C3  UNL     1      -3.952  -2.508 -22.464  0.00  0.00    -0.042 C 
ATOM      5  C4  UNL     1      -3.034  -2.810 -21.520  0.00  0.00    +0.027 C 
ATOM      6  C5  UNL     1      -1.606  -3.109 -21.955  0.00  0.00    +0.061 C 
ATOM      7 CL2  UNL     1      -1.085  -4.700 -21.342  0.00  0.00    -0.119 Cl
ATOM      8  N1  UNL     1      -3.308  -2.915 -20.151  0.00  0.00    -0.290 N 
ATOM      9  I1  UNL     1      -3.309  -1.161 -19.130  0.00  0.00    +0.042 I 
ATOM     10  H   UNL     1      -3.487  -3.779 -19.714  0.00  0.00    +0.000 HD
ENDROOT
TORSDOF 0
ENDMDL
MODEL 6
REMARK VINA RESULT:    -3.424      3.540      4.281
REMARK INTER + INTRA:          -3.424
REMARK INTER:                  -3.424
REMARK INTRA:                   0.000
REMARK UNBOUND:                 0.000
REMARK  Name = /home/vital/Documents/PhD_2021/Malaria_codes/scripts/../data/pdbqt_ligands/ligand_129_temp.pdb
REMARK                            x       y       z     vdW  Elec       q    Type
REMARK                         _______ _______ _______ _____ _____    ______ ____
ROOT
ATOM      1 CL1  UNL     1      -2.209   3.432 -19.381  0.00  0.00    -0.092 Cl
ATOM      2  C1  UNL     1      -2.135   5.017 -18.737  0.00  0.00    +0.005 C 
ATOM      3  C2  UNL     1      -1.314   5.439 -17.771  0.00  0.00    -0.049 C 
ATOM      4  C3  UNL     1      -0.330   4.640 -17.065  0.00  0.00    -0.042 C 
ATOM      5  C4  UNL     1       0.519   5.104 -16.123  0.00  0.00    +0.027 C 
ATOM      6  C5  UNL     1       1.435   4.118 -15.412  0.00  0.00    +0.061 C 
ATOM      7 CL2  UNL     1       1.224   4.229 -13.645  0.00  0.00    -0.119 Cl
ATOM      8  N1  UNL     1       0.592   6.440 -15.709  0.00  0.00    -0.290 N 
ATOM      9  I1  UNL     1       1.736   7.646 -16.874  0.00  0.00    +0.042 I 
ATOM     10  H   UNL     1       0.123   6.770 -14.909  0.00  0.00    +0.000 HD
ENDROOT
TORSDOF 0
ENDMDL
MODEL 7
REMARK VINA RESULT:    -3.317      3.887      3.999
REMARK INTER + INTRA:          -3.317
REMARK INTER:                  -3.317
REMARK INTRA:                   0.000
REMARK UNBOUND:                 0.000
REMARK  Name = /home/vital/Documents/PhD_2021/Malaria_codes/scripts/../data/pdbqt_ligands/ligand_129_temp.pdb
REMARK                            x       y       z     vdW  Elec       q    Type
REMARK                         _______ _______ _______ _____ _____    ______ ____
ROOT
ATOM      1 CL1  UNL     1       1.709   4.731 -13.710  0.00  0.00    -0.092 Cl
ATOM      2  C1  UNL     1       2.086   4.246 -15.309  0.00  0.00    +0.005 C 
ATOM      3  C2  UNL     1       1.301   4.385 -16.382  0.00  0.00    -0.049 C 
ATOM      4  C3  UNL     1      -0.029   4.961 -16.407  0.00  0.00    -0.042 C 
ATOM      5  C4  UNL     1      -0.784   5.131 -17.515  0.00  0.00    +0.027 C 
ATOM      6  C5  UNL     1      -2.198   5.672 -17.364  0.00  0.00    +0.061 C 
ATOM      7 CL2  UNL     1      -3.376   4.567 -18.119  0.00  0.00    -0.119 Cl
ATOM      8  N1  UNL     1      -0.374   4.798 -18.812  0.00  0.00    -0.290 N 
ATOM      9  I1  UNL     1       0.750   6.202 -19.753  0.00  0.00    +0.042 I 
ATOM     10  H   UNL     1      -0.615   3.943 -19.238  0.00  0.00    +0.000 HD
ENDROOT
TORSDOF 0
ENDMDL
MODEL 8
REMARK VINA RESULT:    -3.178      2.662      2.779
REMARK INTER + INTRA:          -3.178
REMARK INTER:                  -3.178
REMARK INTRA:                   0.000
REMARK UNBOUND:                 0.000
REMARK  Name = /home/vital/Documents/PhD_2021/Malaria_codes/scripts/../data/pdbqt_ligands/ligand_129_temp.pdb
REMARK                            x       y       z     vdW  Elec       q    Type
REMARK                         _______ _______ _______ _____ _____    ______ ____
ROOT
ATOM      1 CL1  UNL     1       3.399  10.008 -17.760  0.00  0.00    -0.092 Cl
ATOM      2  C1  UNL     1       2.753   8.806 -18.795  0.00  0.00    +0.005 C 
ATOM      3  C2  UNL     1       2.096   7.706 -18.415  0.00  0.00    -0.049 C 
ATOM      4  C3  UNL     1       1.809   7.302 -17.051  0.00  0.00    -0.042 C 
ATOM      5  C4  UNL     1       1.102   6.206 -16.696  0.00  0.00    +0.027 C 
ATOM      6  C5  UNL     1       0.961   5.871 -15.219  0.00  0.00    +0.061 C 
ATOM      7 CL2  UNL     1       1.523   4.211 -14.896  0.00  0.00    -0.119 Cl
ATOM      8  N1  UNL     1       0.517   5.312 -17.601  0.00  0.00    -0.290 N 
ATOM      9  I1  UNL     1      -1.305   5.864 -18.307  0.00  0.00    +0.042 I 
ATOM     10  H   UNL     1       0.957   4.475 -17.876  0.00  0.00    +0.000 HD
ENDROOT
TORSDOF 0
ENDMDL
MODEL 9
REMARK VINA RESULT:    -3.105     20.845     21.390
REMARK INTER + INTRA:          -3.105
REMARK INTER:                  -3.105
REMARK INTRA:                   0.000
REMARK UNBOUND:                 0.000
REMARK  Name = /home/vital/Documents/PhD_2021/Malaria_codes/scripts/../data/pdbqt_ligands/ligand_129_temp.pdb
REMARK                            x       y       z     vdW  Elec       q    Type
REMARK                         _______ _______ _______ _____ _____    ______ ____
ROOT
ATOM      1 CL1  UNL     1      -0.073  -1.562 -35.490  0.00  0.00    -0.092 Cl
ATOM      2  C1  UNL     1      -0.642  -3.054 -36.111  0.00  0.00    +0.005 C 
ATOM      3  C2  UNL     1      -0.392  -4.266 -35.607  0.00  0.00    -0.049 C 
ATOM      4  C3  UNL     1       0.420  -4.564 -34.442  0.00  0.00    -0.042 C 
ATOM      5  C4  UNL     1       0.620  -5.797 -33.927  0.00  0.00    +0.027 C 
ATOM      6  C5  UNL     1       1.571  -5.955 -32.750  0.00  0.00    +0.061 C 
ATOM      7 CL2  UNL     1       2.837  -7.153 -33.123  0.00  0.00    -0.119 Cl
ATOM      8  N1  UNL     1       0.044  -6.970 -34.430  0.00  0.00    -0.290 N 
ATOM      9  I1  UNL     1      -1.841  -7.356 -33.784  0.00  0.00    +0.042 I 
ATOM     10  H   UNL     1       0.520  -7.566 -35.053  0.00  0.00    +0.000 HD
ENDROOT
TORSDOF 0
ENDMDL
