MODEL 1
REMARK VINA RESULT:    -6.152      0.000      0.000
REMARK INTER + INTRA:          -6.152
REMARK INTER:                  -6.152
REMARK INTRA:                   0.000
REMARK UNBOUND:                 0.000
REMARK  Name = /home/vital/Documents/PhD_2021/Malaria_codes/scripts/../data/pdbqt_ligands/ligand_281_temp.pdb
REMARK                            x       y       z     vdW  Elec       q    Type
REMARK                         _______ _______ _______ _____ _____    ______ ____
ROOT
ATOM      1  O   UNL     1       1.041  -5.355 -32.564  0.00  0.00    -0.394 OA
ATOM      2  C   UNL     1       2.296  -5.376 -33.241  0.00  0.00    +0.058 C 
ATOM      3  C   UNL     1       2.733  -4.025 -33.813  0.00  0.00    +0.065 C 
ATOM      4  C   UNL     1       2.969  -2.969 -32.699  0.00  0.00    +0.108 C 
ATOM      5  N   UNL     1       3.949  -3.109 -31.723  0.00  0.00    -0.312 N 
ATOM      6  C   UNL     1       5.233  -3.730 -32.064  0.00  0.00    +0.033 C 
ATOM      7  C   UNL     1       5.999  -4.076 -30.824  0.00  0.00    -0.051 C 
ATOM      8  C   UNL     1       5.714  -3.586 -29.608  0.00  0.00    +0.035 C 
ATOM      9 CL   UNL     1       6.580  -4.182 -28.232  0.00  0.00    -0.087 Cl
ATOM     10  C   UNL     1       4.608  -2.592 -29.371  0.00  0.00    +0.085 C 
ATOM     11 CL   UNL     1       5.159  -1.210 -28.371  0.00  0.00    -0.114 Cl
ATOM     12  C   UNL     1       4.057  -2.044 -30.700  0.00  0.00    +0.035 C 
ATOM     13  N   UNL     1       2.145  -1.956 -32.773  0.00  0.00    -0.236 N 
ATOM     14  C   UNL     1       1.361  -2.143 -33.921  0.00  0.00    +0.070 A 
ATOM     15  C   UNL     1       0.390  -1.285 -34.399  0.00  0.00    -0.036 A 
ATOM     16  C   UNL     1      -0.286  -1.636 -35.571  0.00  0.00    -0.060 A 
ATOM     17  C   UNL     1       0.018  -2.832 -36.242  0.00  0.00    -0.061 A 
ATOM     18  C   UNL     1       1.002  -3.695 -35.751  0.00  0.00    -0.056 A 
ATOM     19  C   UNL     1       1.660  -3.330 -34.591  0.00  0.00    -0.010 A 
ATOM     20  H   UNL     1       0.837  -6.244 -32.233  0.00  0.00    +0.000 HD
ATOM     21  H   UNL     1       2.087  -1.203 -32.142  0.00  0.00    +0.000 HD
ENDROOT
TORSDOF 0
ENDMDL
MODEL 2
REMARK VINA RESULT:    -5.919     10.032     11.691
REMARK INTER + INTRA:          -5.919
REMARK INTER:                  -5.919
REMARK INTRA:                   0.000
REMARK UNBOUND:                 0.000
REMARK  Name = /home/vital/Documents/PhD_2021/Malaria_codes/scripts/../data/pdbqt_ligands/ligand_281_temp.pdb
REMARK                            x       y       z     vdW  Elec       q    Type
REMARK                         _______ _______ _______ _____ _____    ______ ____
ROOT
ATOM      1  O   UNL     1       4.118  -2.731 -24.516  0.00  0.00    -0.394 OA
ATOM      2  C   UNL     1       4.184  -3.901 -23.702  0.00  0.00    +0.058 C 
ATOM      3  C   UNL     1       5.481  -4.047 -22.902  0.00  0.00    +0.065 C 
ATOM      4  C   UNL     1       5.658  -2.904 -21.865  0.00  0.00    +0.108 C 
ATOM      5  N   UNL     1       4.782  -2.705 -20.805  0.00  0.00    -0.312 N 
ATOM      6  C   UNL     1       4.174  -3.860 -20.135  0.00  0.00    +0.033 C 
ATOM      7  C   UNL     1       3.036  -3.428 -19.263  0.00  0.00    -0.051 C 
ATOM      8  C   UNL     1       2.824  -2.158 -18.885  0.00  0.00    +0.035 C 
ATOM      9 CL   UNL     1       1.387  -1.767 -18.001  0.00  0.00    -0.087 Cl
ATOM     10  C   UNL     1       3.746  -1.031 -19.269  0.00  0.00    +0.085 C 
ATOM     11 CL   UNL     1       4.175  -0.013 -17.857  0.00  0.00    -0.114 Cl
ATOM     12  C   UNL     1       5.046  -1.565 -19.899  0.00  0.00    +0.035 C 
ATOM     13  N   UNL     1       6.702  -2.154 -22.106  0.00  0.00    -0.236 N 
ATOM     14  C   UNL     1       7.366  -2.710 -23.209  0.00  0.00    +0.070 A 
ATOM     15  C   UNL     1       8.542  -2.256 -23.772  0.00  0.00    -0.036 A 
ATOM     16  C   UNL     1       9.064  -2.949 -24.868  0.00  0.00    -0.060 A 
ATOM     17  C   UNL     1       8.404  -4.079 -25.380  0.00  0.00    -0.061 A 
ATOM     18  C   UNL     1       7.214  -4.532 -24.804  0.00  0.00    -0.056 A 
ATOM     19  C   UNL     1       6.715  -3.833 -23.721  0.00  0.00    -0.010 A 
ATOM     20  H   UNL     1       3.270  -2.712 -24.987  0.00  0.00    +0.000 HD
ATOM     21  H   UNL     1       6.971  -1.350 -21.606  0.00  0.00    +0.000 HD
ENDROOT
TORSDOF 0
ENDMDL
MODEL 3
REMARK VINA RESULT:    -5.788     16.433     19.417
REMARK INTER + INTRA:          -5.788
REMARK INTER:                  -5.788
REMARK INTRA:                   0.000
REMARK UNBOUND:                 0.000
REMARK  Name = /home/vital/Documents/PhD_2021/Malaria_codes/scripts/../data/pdbqt_ligands/ligand_281_temp.pdb
REMARK                            x       y       z     vdW  Elec       q    Type
REMARK                         _______ _______ _______ _____ _____    ______ ____
ROOT
ATOM      1  O   UNL     1       2.848   8.196 -16.204  0.00  0.00    -0.394 OA
ATOM      2  C   UNL     1       3.273   7.138 -17.061  0.00  0.00    +0.058 C 
ATOM      3  C   UNL     1       3.049   5.733 -16.497  0.00  0.00    +0.065 C 
ATOM      4  C   UNL     1       1.541   5.419 -16.297  0.00  0.00    +0.108 C 
ATOM      5  N   UNL     1       0.635   5.368 -17.350  0.00  0.00    -0.312 N 
ATOM      6  C   UNL     1       1.059   4.838 -18.651  0.00  0.00    +0.033 C 
ATOM      7  C   UNL     1       0.055   5.172 -19.711  0.00  0.00    -0.051 C 
ATOM      8  C   UNL     1      -1.194   5.587 -19.453  0.00  0.00    +0.035 C 
ATOM      9 CL   UNL     1      -2.207   6.087 -20.766  0.00  0.00    -0.087 Cl
ATOM     10  C   UNL     1      -1.735   5.720 -18.055  0.00  0.00    +0.085 C 
ATOM     11 CL   UNL     1      -3.346   4.951 -17.888  0.00  0.00    -0.114 Cl
ATOM     12  C   UNL     1      -0.782   5.084 -17.026  0.00  0.00    +0.035 C 
ATOM     13  N   UNL     1       1.222   5.225 -15.044  0.00  0.00    -0.236 N 
ATOM     14  C   UNL     1       2.408   5.291 -14.300  0.00  0.00    +0.070 A 
ATOM     15  C   UNL     1       2.533   5.100 -12.938  0.00  0.00    -0.036 A 
ATOM     16  C   UNL     1       3.807   5.195 -12.369  0.00  0.00    -0.060 A 
ATOM     17  C   UNL     1       4.928   5.478 -13.166  0.00  0.00    -0.061 A 
ATOM     18  C   UNL     1       4.792   5.670 -14.544  0.00  0.00    -0.056 A 
ATOM     19  C   UNL     1       3.525   5.571 -15.088  0.00  0.00    -0.010 A 
ATOM     20  H   UNL     1       3.024   9.049 -16.631  0.00  0.00    +0.000 HD
ATOM     21  H   UNL     1       0.317   5.063 -14.690  0.00  0.00    +0.000 HD
ENDROOT
TORSDOF 0
ENDMDL
MODEL 4
REMARK VINA RESULT:    -5.786      8.188      9.949
REMARK INTER + INTRA:          -5.786
REMARK INTER:                  -5.786
REMARK INTRA:                   0.000
REMARK UNBOUND:                 0.000
REMARK  Name = /home/vital/Documents/PhD_2021/Malaria_codes/scripts/../data/pdbqt_ligands/ligand_281_temp.pdb
REMARK                            x       y       z     vdW  Elec       q    Type
REMARK                         _______ _______ _______ _____ _____    ______ ____
ROOT
ATOM      1  O   UNL     1       4.954  -5.647 -22.365  0.00  0.00    -0.394 OA
ATOM      2  C   UNL     1       4.523  -4.287 -22.399  0.00  0.00    +0.058 C 
ATOM      3  C   UNL     1       4.450  -3.678 -23.801  0.00  0.00    +0.065 C 
ATOM      4  C   UNL     1       3.393  -4.388 -24.691  0.00  0.00    +0.108 C 
ATOM      5  N   UNL     1       2.035  -4.390 -24.394  0.00  0.00    -0.312 N 
ATOM      6  C   UNL     1       1.420  -3.205 -23.787  0.00  0.00    +0.033 C 
ATOM      7  C   UNL     1       0.058  -3.530 -23.255  0.00  0.00    -0.051 C 
ATOM      8  C   UNL     1      -0.631  -4.632 -23.587  0.00  0.00    +0.035 C 
ATOM      9 CL   UNL     1      -2.130  -4.966 -22.787  0.00  0.00    -0.087 Cl
ATOM     10  C   UNL     1      -0.115  -5.648 -24.571  0.00  0.00    +0.085 C 
ATOM     11 CL   UNL     1      -1.355  -6.082 -25.791  0.00  0.00    -0.114 Cl
ATOM     12  C   UNL     1       1.133  -5.126 -25.309  0.00  0.00    +0.035 C 
ATOM     13  N   UNL     1       3.919  -4.986 -25.728  0.00  0.00    -0.236 N 
ATOM     14  C   UNL     1       5.292  -4.700 -25.719  0.00  0.00    +0.070 A 
ATOM     15  C   UNL     1       6.219  -5.100 -26.662  0.00  0.00    -0.036 A 
ATOM     16  C   UNL     1       7.550  -4.708 -26.490  0.00  0.00    -0.060 A 
ATOM     17  C   UNL     1       7.930  -3.927 -25.387  0.00  0.00    -0.061 A 
ATOM     18  C   UNL     1       6.985  -3.526 -24.438  0.00  0.00    -0.056 A 
ATOM     19  C   UNL     1       5.674  -3.923 -24.625  0.00  0.00    -0.010 A 
ATOM     20  H   UNL     1       4.973  -5.957 -21.447  0.00  0.00    +0.000 HD
ATOM     21  H   UNL     1       3.440  -5.534 -26.392  0.00  0.00    +0.000 HD
ENDROOT
TORSDOF 0
ENDMDL
MODEL 5
REMARK VINA RESULT:    -5.785      3.638      5.333
REMARK INTER + INTRA:          -5.785
REMARK INTER:                  -5.785
REMARK INTRA:                   0.000
REMARK UNBOUND:                 0.000
REMARK  Name = /home/vital/Documents/PhD_2021/Malaria_codes/scripts/../data/pdbqt_ligands/ligand_281_temp.pdb
REMARK                            x       y       z     vdW  Elec       q    Type
REMARK                         _______ _______ _______ _____ _____    ______ ____
ROOT
ATOM      1  O   UNL     1       3.322  -1.918 -29.277  0.00  0.00    -0.394 OA
ATOM      2  C   UNL     1       2.989  -3.174 -28.689  0.00  0.00    +0.058 C 
ATOM      3  C   UNL     1       3.879  -4.339 -29.131  0.00  0.00    +0.065 C 
ATOM      4  C   UNL     1       5.356  -4.143 -28.693  0.00  0.00    +0.108 C 
ATOM      5  N   UNL     1       5.745  -4.078 -27.360  0.00  0.00    -0.312 N 
ATOM      6  C   UNL     1       5.063  -4.906 -26.360  0.00  0.00    +0.033 C 
ATOM      7  C   UNL     1       5.402  -4.450 -24.975  0.00  0.00    -0.051 C 
ATOM      8  C   UNL     1       6.430  -3.639 -24.685  0.00  0.00    +0.035 C 
ATOM      9 CL   UNL     1       6.623  -3.064 -23.063  0.00  0.00    -0.087 Cl
ATOM     10  C   UNL     1       7.386  -3.133 -25.732  0.00  0.00    +0.085 C 
ATOM     11 CL   UNL     1       9.095  -3.338 -25.229  0.00  0.00    -0.114 Cl
ATOM     12  C   UNL     1       7.182  -3.863 -27.073  0.00  0.00    +0.035 C 
ATOM     13  N   UNL     1       6.178  -4.034 -29.704  0.00  0.00    -0.236 N 
ATOM     14  C   UNL     1       5.424  -4.219 -30.872  0.00  0.00    +0.070 A 
ATOM     15  C   UNL     1       5.906  -4.226 -32.166  0.00  0.00    -0.036 A 
ATOM     16  C   UNL     1       5.000  -4.438 -33.210  0.00  0.00    -0.060 A 
ATOM     17  C   UNL     1       3.636  -4.637 -32.944  0.00  0.00    -0.061 A 
ATOM     18  C   UNL     1       3.156  -4.628 -31.631  0.00  0.00    -0.056 A 
ATOM     19  C   UNL     1       4.068  -4.419 -30.613  0.00  0.00    -0.010 A 
ATOM     20  H   UNL     1       2.716  -1.236 -28.948  0.00  0.00    +0.000 HD
ATOM     21  H   UNL     1       7.145  -3.856 -29.654  0.00  0.00    +0.000 HD
ENDROOT
TORSDOF 0
ENDMDL
MODEL 6
REMARK VINA RESULT:    -5.580      2.665      4.156
REMARK INTER + INTRA:          -5.580
REMARK INTER:                  -5.580
REMARK INTRA:                   0.000
REMARK UNBOUND:                 0.000
REMARK  Name = /home/vital/Documents/PhD_2021/Malaria_codes/scripts/../data/pdbqt_ligands/ligand_281_temp.pdb
REMARK                            x       y       z     vdW  Elec       q    Type
REMARK                         _______ _______ _______ _____ _____    ______ ____
ROOT
ATOM      1  O   UNL     1       6.429  -2.428 -32.187  0.00  0.00    -0.394 OA
ATOM      2  C   UNL     1       5.680  -1.593 -31.306  0.00  0.00    +0.058 C 
ATOM      3  C   UNL     1       4.355  -2.196 -30.831  0.00  0.00    +0.065 C 
ATOM      4  C   UNL     1       4.571  -3.477 -29.979  0.00  0.00    +0.108 C 
ATOM      5  N   UNL     1       5.244  -3.470 -28.764  0.00  0.00    -0.312 N 
ATOM      6  C   UNL     1       5.107  -2.322 -27.862  0.00  0.00    +0.033 C 
ATOM      7  C   UNL     1       6.149  -2.366 -26.786  0.00  0.00    -0.051 C 
ATOM      8  C   UNL     1       6.871  -3.457 -26.490  0.00  0.00    +0.035 C 
ATOM      9 CL   UNL     1       8.149  -3.335 -25.328  0.00  0.00    -0.087 Cl
ATOM     10  C   UNL     1       6.675  -4.776 -27.189  0.00  0.00    +0.085 C 
ATOM     11 CL   UNL     1       6.551  -6.134 -26.024  0.00  0.00    -0.114 Cl
ATOM     12  C   UNL     1       5.405  -4.763 -28.059  0.00  0.00    +0.035 C 
ATOM     13  N   UNL     1       4.067  -4.549 -30.534  0.00  0.00    -0.236 N 
ATOM     14  C   UNL     1       3.414  -4.142 -31.706  0.00  0.00    +0.070 A 
ATOM     15  C   UNL     1       2.709  -4.950 -32.576  0.00  0.00    -0.036 A 
ATOM     16  C   UNL     1       2.114  -4.360 -33.695  0.00  0.00    -0.060 A 
ATOM     17  C   UNL     1       2.233  -2.980 -33.925  0.00  0.00    -0.061 A 
ATOM     18  C   UNL     1       2.948  -2.169 -33.040  0.00  0.00    -0.056 A 
ATOM     19  C   UNL     1       3.529  -2.771 -31.939  0.00  0.00    -0.010 A 
ATOM     20  H   UNL     1       7.250  -1.976 -32.440  0.00  0.00    +0.000 HD
ATOM     21  H   UNL     1       4.132  -5.470 -30.191  0.00  0.00    +0.000 HD
ENDROOT
TORSDOF 0
ENDMDL
MODEL 7
REMARK VINA RESULT:    -5.441      3.637      4.572
REMARK INTER + INTRA:          -5.441
REMARK INTER:                  -5.441
REMARK INTRA:                   0.000
REMARK UNBOUND:                 0.000
REMARK  Name = /home/vital/Documents/PhD_2021/Malaria_codes/scripts/../data/pdbqt_ligands/ligand_281_temp.pdb
REMARK                            x       y       z     vdW  Elec       q    Type
REMARK                         _______ _______ _______ _____ _____    ______ ____
ROOT
ATOM      1  O   UNL     1       1.785  -9.176 -32.538  0.00  0.00    -0.394 OA
ATOM      2  C   UNL     1       1.808  -8.245 -33.619  0.00  0.00    +0.058 C 
ATOM      3  C   UNL     1       0.774  -7.122 -33.514  0.00  0.00    +0.065 C 
ATOM      4  C   UNL     1       1.025  -6.212 -32.281  0.00  0.00    +0.108 C 
ATOM      5  N   UNL     1       2.176  -5.449 -32.128  0.00  0.00    -0.312 N 
ATOM      6  C   UNL     1       2.804  -4.835 -33.303  0.00  0.00    +0.033 C 
ATOM      7  C   UNL     1       4.181  -4.347 -32.973  0.00  0.00    -0.051 C 
ATOM      8  C   UNL     1       4.637  -4.185 -31.721  0.00  0.00    +0.035 C 
ATOM      9 CL   UNL     1       6.297  -3.760 -31.474  0.00  0.00    -0.087 Cl
ATOM     10  C   UNL     1       3.784  -4.439 -30.507  0.00  0.00    +0.085 C 
ATOM     11 CL   UNL     1       3.883  -3.090 -29.330  0.00  0.00    -0.114 Cl
ATOM     12  C   UNL     1       2.307  -4.641 -30.894  0.00  0.00    +0.035 C 
ATOM     13  N   UNL     1       0.051  -6.254 -31.409  0.00  0.00    -0.236 N 
ATOM     14  C   UNL     1      -0.952  -7.074 -31.947  0.00  0.00    +0.070 A 
ATOM     15  C   UNL     1      -2.176  -7.357 -31.373  0.00  0.00    -0.036 A 
ATOM     16  C   UNL     1      -3.057  -8.191 -32.067  0.00  0.00    -0.060 A 
ATOM     17  C   UNL     1      -2.702  -8.726 -33.316  0.00  0.00    -0.061 A 
ATOM     18  C   UNL     1      -1.461  -8.435 -33.890  0.00  0.00    -0.056 A 
ATOM     19  C   UNL     1      -0.604  -7.607 -33.189  0.00  0.00    -0.010 A 
ATOM     20  H   UNL     1       2.466  -9.852 -32.679  0.00  0.00    +0.000 HD
ATOM     21  H   UNL     1       0.027  -5.796 -30.537  0.00  0.00    +0.000 HD
ENDROOT
TORSDOF 0
ENDMDL
MODEL 8
REMARK VINA RESULT:    -5.399     11.108     12.103
REMARK INTER + INTRA:          -5.399
REMARK INTER:                  -5.399
REMARK INTRA:                   0.000
REMARK UNBOUND:                 0.000
REMARK  Name = /home/vital/Documents/PhD_2021/Malaria_codes/scripts/../data/pdbqt_ligands/ligand_281_temp.pdb
REMARK                            x       y       z     vdW  Elec       q    Type
REMARK                         _______ _______ _______ _____ _____    ______ ____
ROOT
ATOM      1  O   UNL     1      -2.186  -5.234 -21.316  0.00  0.00    -0.394 OA
ATOM      2  C   UNL     1      -1.563  -4.607 -22.435  0.00  0.00    +0.058 C 
ATOM      3  C   UNL     1      -1.705  -3.083 -22.472  0.00  0.00    +0.065 C 
ATOM      4  C   UNL     1      -0.998  -2.403 -21.268  0.00  0.00    +0.108 C 
ATOM      5  N   UNL     1       0.374  -2.478 -21.058  0.00  0.00    -0.312 N 
ATOM      6  C   UNL     1       1.288  -2.475 -22.206  0.00  0.00    +0.033 C 
ATOM      7  C   UNL     1       2.665  -2.890 -21.787  0.00  0.00    -0.051 C 
ATOM      8  C   UNL     1       3.080  -2.924 -20.511  0.00  0.00    +0.035 C 
ATOM      9 CL   UNL     1       4.646  -3.566 -20.148  0.00  0.00    -0.087 Cl
ATOM     10  C   UNL     1       2.205  -2.503 -19.361  0.00  0.00    +0.085 C 
ATOM     11 CL   UNL     1       3.061  -1.388 -18.247  0.00  0.00    -0.114 Cl
ATOM     12  C   UNL     1       0.924  -1.807 -19.859  0.00  0.00    +0.035 C 
ATOM     13  N   UNL     1      -1.827  -1.771 -20.479  0.00  0.00    -0.236 N 
ATOM     14  C   UNL     1      -3.101  -1.864 -21.058  0.00  0.00    +0.070 A 
ATOM     15  C   UNL     1      -4.265  -1.299 -20.574  0.00  0.00    -0.036 A 
ATOM     16  C   UNL     1      -5.446  -1.492 -21.297  0.00  0.00    -0.060 A 
ATOM     17  C   UNL     1      -5.444  -2.241 -22.485  0.00  0.00    -0.061 A 
ATOM     18  C   UNL     1      -4.262  -2.810 -22.967  0.00  0.00    -0.056 A 
ATOM     19  C   UNL     1      -3.105  -2.607 -22.239  0.00  0.00    -0.010 A 
ATOM     20  H   UNL     1      -2.051  -6.193 -21.366  0.00  0.00    +0.000 HD
ATOM     21  H   UNL     1      -1.600  -1.316 -19.636  0.00  0.00    +0.000 HD
ENDROOT
TORSDOF 0
ENDMDL
MODEL 9
REMARK VINA RESULT:    -5.354      4.036      7.903
REMARK INTER + INTRA:          -5.354
REMARK INTER:                  -5.354
REMARK INTRA:                   0.000
REMARK UNBOUND:                 0.000
REMARK  Name = /home/vital/Documents/PhD_2021/Malaria_codes/scripts/../data/pdbqt_ligands/ligand_281_temp.pdb
REMARK                            x       y       z     vdW  Elec       q    Type
REMARK                         _______ _______ _______ _____ _____    ______ ____
ROOT
ATOM      1  O   UNL     1       3.971  -6.336 -26.549  0.00  0.00    -0.394 OA
ATOM      2  C   UNL     1       3.308  -5.074 -26.551  0.00  0.00    +0.058 C 
ATOM      3  C   UNL     1       4.228  -3.872 -26.782  0.00  0.00    +0.065 C 
ATOM      4  C   UNL     1       4.891  -3.907 -28.186  0.00  0.00    +0.108 C 
ATOM      5  N   UNL     1       4.161  -3.839 -29.367  0.00  0.00    -0.312 N 
ATOM      6  C   UNL     1       2.958  -3.001 -29.433  0.00  0.00    +0.033 C 
ATOM      7  C   UNL     1       2.156  -3.323 -30.656  0.00  0.00    -0.051 C 
ATOM      8  C   UNL     1       2.631  -4.018 -31.701  0.00  0.00    +0.035 C 
ATOM      9 CL   UNL     1       1.556  -4.453 -32.987  0.00  0.00    -0.087 Cl
ATOM     10  C   UNL     1       4.051  -4.515 -31.768  0.00  0.00    +0.085 C 
ATOM     11 CL   UNL     1       4.818  -4.126 -33.341  0.00  0.00    -0.114 Cl
ATOM     12  C   UNL     1       4.909  -3.907 -30.643  0.00  0.00    +0.035 C 
ATOM     13  N   UNL     1       6.192  -4.018 -28.133  0.00  0.00    -0.236 N 
ATOM     14  C   UNL     1       6.556  -3.986 -26.779  0.00  0.00    +0.070 A 
ATOM     15  C   UNL     1       7.841  -4.033 -26.274  0.00  0.00    -0.036 A 
ATOM     16  C   UNL     1       8.010  -3.979 -24.887  0.00  0.00    -0.060 A 
ATOM     17  C   UNL     1       6.899  -3.879 -24.034  0.00  0.00    -0.061 A 
ATOM     18  C   UNL     1       5.603  -3.832 -24.553  0.00  0.00    -0.056 A 
ATOM     19  C   UNL     1       5.456  -3.886 -25.927  0.00  0.00    -0.010 A 
ATOM     20  H   UNL     1       3.323  -7.042 -26.398  0.00  0.00    +0.000 HD
ATOM     21  H   UNL     1       6.803  -4.107 -28.901  0.00  0.00    +0.000 HD
ENDROOT
TORSDOF 0
ENDMDL
