MODEL 1
REMARK VINA RESULT:    -6.659      0.000      0.000
REMARK INTER + INTRA:          -6.659
REMARK INTER:                  -6.659
REMARK INTRA:                   0.000
REMARK UNBOUND:                 0.000
REMARK  Name = /home/vital/Documents/PhD_2021/Malaria_codes/scripts/../data/pdbqt_ligands/ligand_161_temp.pdb
REMARK                            x       y       z     vdW  Elec       q    Type
REMARK                         _______ _______ _______ _____ _____    ______ ____
ROOT
ATOM      1  C1  UNL     1       0.310   5.893 -21.500  0.00  0.00    -0.038 C 
ATOM      2  C2  UNL     1       0.159   6.110 -20.014  0.00  0.00    -0.024 A 
ATOM      3  C3  UNL     1       1.020   7.139 -19.375  0.00  0.00    +0.002 A 
ATOM      4  C4  UNL     1       1.948   7.916 -20.086  0.00  0.00    -0.052 A 
ATOM      5  C5  UNL     1       2.741   8.870 -19.439  0.00  0.00    -0.061 A 
ATOM      6  C6  UNL     1       2.620   9.064 -18.065  0.00  0.00    -0.060 A 
ATOM      7  C7  UNL     1       1.705   8.304 -17.339  0.00  0.00    -0.038 A 
ATOM      8  C8  UNL     1       0.915   7.353 -17.994  0.00  0.00    +0.049 A 
ATOM      9  N1  UNL     1       0.003   6.611 -17.246  0.00  0.00    -0.321 N 
ATOM     10  C9  UNL     1      -0.832   5.661 -17.778  0.00  0.00    +0.262 A 
ATOM     11  O1  UNL     1      -1.628   5.096 -17.031  0.00  0.00    -0.267 OA
ATOM     12  C10 UNL     1      -0.708   5.405 -19.245  0.00  0.00    +0.108 A 
ATOM     13  C11 UNL     1      -1.573   4.379 -19.895  0.00  0.00    +0.294 C 
ATOM     14  O2  UNL     1      -2.576   4.735 -20.513  0.00  0.00    -0.266 OA
ATOM     15  N2  UNL     1      -1.053   3.155 -19.721  0.00  0.00    -0.058 NA
ATOM     16  O3  UNL     1      -1.670   2.153 -20.558  0.00  0.00    -0.257 OA
ATOM     17  C12 UNL     1      -2.729   1.540 -19.818  0.00  0.00    +0.078 C 
ATOM     18  C13 UNL     1      -3.360   0.431 -20.672  0.00  0.00    -0.021 C 
ATOM     19  C14 UNL     1      -4.578  -0.159 -19.964  0.00  0.00    -0.061 C 
ATOM     20  C15 UNL     1      -2.347  -0.670 -20.993  0.00  0.00    -0.061 C 
ATOM     21  H   UNL     1      -0.046   6.779 -16.277  0.00  0.00    +0.000 HD
ENDROOT
TORSDOF 0
ENDMDL
MODEL 2
REMARK VINA RESULT:    -6.495     13.439     16.428
REMARK INTER + INTRA:          -6.495
REMARK INTER:                  -6.495
REMARK INTRA:                   0.000
REMARK UNBOUND:                 0.000
REMARK  Name = /home/vital/Documents/PhD_2021/Malaria_codes/scripts/../data/pdbqt_ligands/ligand_161_temp.pdb
REMARK                            x       y       z     vdW  Elec       q    Type
REMARK                         _______ _______ _______ _____ _____    ______ ____
ROOT
ATOM      1  C1  UNL     1       2.323  -0.774 -31.595  0.00  0.00    -0.038 C 
ATOM      2  C2  UNL     1       2.511  -2.003 -32.450  0.00  0.00    -0.024 A 
ATOM      3  C3  UNL     1       1.631  -2.159 -33.638  0.00  0.00    +0.002 A 
ATOM      4  C4  UNL     1       0.652  -1.220 -33.999  0.00  0.00    -0.052 A 
ATOM      5  C5  UNL     1      -0.157  -1.413 -35.124  0.00  0.00    -0.061 A 
ATOM      6  C6  UNL     1      -0.002  -2.552 -35.910  0.00  0.00    -0.060 A 
ATOM      7  C7  UNL     1       0.964  -3.498 -35.570  0.00  0.00    -0.038 A 
ATOM      8  C8  UNL     1       1.769  -3.297 -34.444  0.00  0.00    +0.049 A 
ATOM      9  N1  UNL     1       2.732  -4.254 -34.130  0.00  0.00    -0.321 N 
ATOM     10  C9  UNL     1       3.586  -4.161 -33.060  0.00  0.00    +0.262 A 
ATOM     11  O1  UNL     1       4.426  -5.044 -32.902  0.00  0.00    -0.267 OA
ATOM     12  C10 UNL     1       3.428  -2.965 -32.179  0.00  0.00    +0.108 A 
ATOM     13  C11 UNL     1       4.311  -2.798 -30.989  0.00  0.00    +0.294 C 
ATOM     14  O2  UNL     1       5.280  -2.043 -31.055  0.00  0.00    -0.266 OA
ATOM     15  N2  UNL     1       3.845  -3.518 -29.959  0.00  0.00    -0.058 NA
ATOM     16  O3  UNL     1       4.474  -3.184 -28.702  0.00  0.00    -0.257 OA
ATOM     17  C12 UNL     1       5.577  -4.070 -28.503  0.00  0.00    +0.078 C 
ATOM     18  C13 UNL     1       6.224  -3.768 -27.144  0.00  0.00    -0.021 C 
ATOM     19  C14 UNL     1       7.486  -4.608 -26.955  0.00  0.00    -0.061 C 
ATOM     20  C15 UNL     1       5.246  -4.012 -25.994  0.00  0.00    -0.061 C 
ATOM     21  H   UNL     1       2.804  -5.045 -34.711  0.00  0.00    +0.000 HD
ENDROOT
TORSDOF 0
ENDMDL
MODEL 3
REMARK VINA RESULT:    -6.222     12.485     13.113
REMARK INTER + INTRA:          -6.222
REMARK INTER:                  -6.222
REMARK INTRA:                   0.000
REMARK UNBOUND:                 0.000
REMARK  Name = /home/vital/Documents/PhD_2021/Malaria_codes/scripts/../data/pdbqt_ligands/ligand_161_temp.pdb
REMARK                            x       y       z     vdW  Elec       q    Type
REMARK                         _______ _______ _______ _____ _____    ______ ____
ROOT
ATOM      1  C1  UNL     1       6.670  -5.236 -24.523  0.00  0.00    -0.038 C 
ATOM      2  C2  UNL     1       6.701  -4.131 -25.551  0.00  0.00    -0.024 A 
ATOM      3  C3  UNL     1       7.807  -3.143 -25.469  0.00  0.00    +0.002 A 
ATOM      4  C4  UNL     1       8.818  -3.198 -24.496  0.00  0.00    -0.052 A 
ATOM      5  C5  UNL     1       9.838  -2.240 -24.457  0.00  0.00    -0.061 A 
ATOM      6  C6  UNL     1       9.864  -1.207 -25.390  0.00  0.00    -0.060 A 
ATOM      7  C7  UNL     1       8.871  -1.134 -26.365  0.00  0.00    -0.038 A 
ATOM      8  C8  UNL     1       7.855  -2.095 -26.399  0.00  0.00    +0.049 A 
ATOM      9  N1  UNL     1       6.878  -2.003 -27.388  0.00  0.00    -0.321 N 
ATOM     10  C9  UNL     1       5.843  -2.892 -27.528  0.00  0.00    +0.262 A 
ATOM     11  O1  UNL     1       5.060  -2.738 -28.463  0.00  0.00    -0.267 OA
ATOM     12  C10 UNL     1       5.766  -3.996 -26.525  0.00  0.00    +0.108 A 
ATOM     13  C11 UNL     1       4.663  -4.996 -26.603  0.00  0.00    +0.294 C 
ATOM     14  O2  UNL     1       4.877  -6.097 -27.110  0.00  0.00    -0.266 OA
ATOM     15  N2  UNL     1       3.553  -4.510 -26.031  0.00  0.00    -0.058 NA
ATOM     16  O3  UNL     1       2.540  -5.516 -25.811  0.00  0.00    -0.257 OA
ATOM     17  C12 UNL     1       1.661  -5.520 -26.939  0.00  0.00    +0.078 C 
ATOM     18  C13 UNL     1       0.543  -6.544 -26.698  0.00  0.00    -0.021 C 
ATOM     19  C14 UNL     1      -0.342  -6.669 -27.937  0.00  0.00    -0.061 C 
ATOM     20  C15 UNL     1      -0.301  -6.171 -25.478  0.00  0.00    -0.061 C 
ATOM     21  H   UNL     1       6.934  -1.254 -28.024  0.00  0.00    +0.000 HD
ENDROOT
TORSDOF 0
ENDMDL
MODEL 4
REMARK VINA RESULT:    -6.183     15.927     17.588
REMARK INTER + INTRA:          -6.183
REMARK INTER:                  -6.183
REMARK INTRA:                   0.000
REMARK UNBOUND:                 0.000
REMARK  Name = /home/vital/Documents/PhD_2021/Malaria_codes/scripts/../data/pdbqt_ligands/ligand_161_temp.pdb
REMARK                            x       y       z     vdW  Elec       q    Type
REMARK                         _______ _______ _______ _____ _____    ______ ____
ROOT
ATOM      1  C1  UNL     1       1.498  -5.295 -30.046  0.00  0.00    -0.038 C 
ATOM      2  C2  UNL     1       2.280  -5.673 -31.279  0.00  0.00    -0.024 A 
ATOM      3  C3  UNL     1       3.630  -5.077 -31.450  0.00  0.00    +0.002 A 
ATOM      4  C4  UNL     1       4.207  -4.197 -30.520  0.00  0.00    -0.052 A 
ATOM      5  C5  UNL     1       5.481  -3.656 -30.728  0.00  0.00    -0.061 A 
ATOM      6  C6  UNL     1       6.202  -3.986 -31.872  0.00  0.00    -0.060 A 
ATOM      7  C7  UNL     1       5.651  -4.858 -32.808  0.00  0.00    -0.038 A 
ATOM      8  C8  UNL     1       4.377  -5.395 -32.593  0.00  0.00    +0.049 A 
ATOM      9  N1  UNL     1       3.850  -6.270 -33.541  0.00  0.00    -0.321 N 
ATOM     10  C9  UNL     1       2.620  -6.868 -33.434  0.00  0.00    +0.262 A 
ATOM     11  O1  UNL     1       2.272  -7.656 -34.310  0.00  0.00    -0.267 OA
ATOM     12  C10 UNL     1       1.805  -6.513 -32.233  0.00  0.00    +0.108 A 
ATOM     13  C11 UNL     1       0.451  -7.112 -32.051  0.00  0.00    +0.294 C 
ATOM     14  O2  UNL     1       0.310  -8.068 -31.289  0.00  0.00    -0.266 OA
ATOM     15  N2  UNL     1      -0.457  -6.434 -32.766  0.00  0.00    -0.058 NA
ATOM     16  O3  UNL     1      -1.818  -6.769 -32.418  0.00  0.00    -0.257 OA
ATOM     17  C12 UNL     1      -2.263  -7.807 -33.295  0.00  0.00    +0.078 C 
ATOM     18  C13 UNL     1      -3.728  -8.137 -32.978  0.00  0.00    -0.021 C 
ATOM     19  C14 UNL     1      -4.198  -9.331 -33.809  0.00  0.00    -0.061 C 
ATOM     20  C15 UNL     1      -4.637  -6.931 -33.221  0.00  0.00    -0.061 C 
ATOM     21  H   UNL     1       4.394  -6.472 -34.336  0.00  0.00    +0.000 HD
ENDROOT
TORSDOF 0
ENDMDL
MODEL 5
REMARK VINA RESULT:    -6.043     12.862     15.493
REMARK INTER + INTRA:          -6.043
REMARK INTER:                  -6.043
REMARK INTRA:                   0.000
REMARK UNBOUND:                 0.000
REMARK  Name = /home/vital/Documents/PhD_2021/Malaria_codes/scripts/../data/pdbqt_ligands/ligand_161_temp.pdb
REMARK                            x       y       z     vdW  Elec       q    Type
REMARK                         _______ _______ _______ _____ _____    ______ ____
ROOT
ATOM      1  C1  UNL     1       3.321  -0.906 -29.603  0.00  0.00    -0.038 C 
ATOM      2  C2  UNL     1       3.944  -1.935 -30.514  0.00  0.00    -0.024 A 
ATOM      3  C3  UNL     1       3.208  -2.293 -31.755  0.00  0.00    +0.002 A 
ATOM      4  C4  UNL     1       1.981  -1.716 -32.117  0.00  0.00    -0.052 A 
ATOM      5  C5  UNL     1       1.324  -2.090 -33.294  0.00  0.00    -0.061 A 
ATOM      6  C6  UNL     1       1.883  -3.051 -34.133  0.00  0.00    -0.060 A 
ATOM      7  C7  UNL     1       3.101  -3.637 -33.794  0.00  0.00    -0.038 A 
ATOM      8  C8  UNL     1       3.753  -3.257 -32.616  0.00  0.00    +0.049 A 
ATOM      9  N1  UNL     1       4.973  -3.853 -32.303  0.00  0.00    -0.321 N 
ATOM     10  C9  UNL     1       5.708  -3.554 -31.184  0.00  0.00    +0.262 A 
ATOM     11  O1  UNL     1       6.793  -4.111 -31.029  0.00  0.00    -0.267 OA
ATOM     12  C10 UNL     1       5.124  -2.548 -30.247  0.00  0.00    +0.108 A 
ATOM     13  C11 UNL     1       5.858  -2.179 -29.002  0.00  0.00    +0.294 C 
ATOM     14  O2  UNL     1       6.514  -1.138 -28.973  0.00  0.00    -0.266 OA
ATOM     15  N2  UNL     1       5.630  -3.085 -28.041  0.00  0.00    -0.058 NA
ATOM     16  O3  UNL     1       6.066  -2.649 -26.735  0.00  0.00    -0.257 OA
ATOM     17  C12 UNL     1       7.398  -3.123 -26.526  0.00  0.00    +0.078 C 
ATOM     18  C13 UNL     1       7.859  -2.718 -25.119  0.00  0.00    -0.021 C 
ATOM     19  C14 UNL     1       9.324  -3.096 -24.907  0.00  0.00    -0.061 C 
ATOM     20  C15 UNL     1       6.984  -3.360 -24.040  0.00  0.00    -0.061 C 
ATOM     21  H   UNL     1       5.328  -4.531 -32.922  0.00  0.00    +0.000 HD
ENDROOT
TORSDOF 0
ENDMDL
MODEL 6
REMARK VINA RESULT:    -6.034     13.901     17.176
REMARK INTER + INTRA:          -6.034
REMARK INTER:                  -6.034
REMARK INTRA:                   0.000
REMARK UNBOUND:                 0.000
REMARK  Name = /home/vital/Documents/PhD_2021/Malaria_codes/scripts/../data/pdbqt_ligands/ligand_161_temp.pdb
REMARK                            x       y       z     vdW  Elec       q    Type
REMARK                         _______ _______ _______ _____ _____    ______ ____
ROOT
ATOM      1  C1  UNL     1       5.009  -5.233 -33.275  0.00  0.00    -0.038 C 
ATOM      2  C2  UNL     1       4.045  -5.152 -32.118  0.00  0.00    -0.024 A 
ATOM      3  C3  UNL     1       2.937  -6.141 -32.073  0.00  0.00    +0.002 A 
ATOM      4  C4  UNL     1       2.757  -7.141 -33.041  0.00  0.00    -0.052 A 
ATOM      5  C5  UNL     1       1.694  -8.048 -32.958  0.00  0.00    -0.061 A 
ATOM      6  C6  UNL     1       0.790  -7.970 -31.903  0.00  0.00    -0.060 A 
ATOM      7  C7  UNL     1       0.948  -6.986 -30.929  0.00  0.00    -0.038 A 
ATOM      8  C8  UNL     1       2.014  -6.084 -31.019  0.00  0.00    +0.049 A 
ATOM      9  N1  UNL     1       2.155  -5.113 -30.029  0.00  0.00    -0.321 N 
ATOM     10  C9  UNL     1       3.164  -4.184 -30.003  0.00  0.00    +0.262 A 
ATOM     11  O1  UNL     1       3.215  -3.400 -29.058  0.00  0.00    -0.267 OA
ATOM     12  C10 UNL     1       4.136  -4.220 -31.137  0.00  0.00    +0.108 A 
ATOM     13  C11 UNL     1       5.255  -3.234 -31.187  0.00  0.00    +0.294 C 
ATOM     14  O2  UNL     1       6.379  -3.576 -30.821  0.00  0.00    -0.266 OA
ATOM     15  N2  UNL     1       4.828  -2.071 -31.697  0.00  0.00    -0.058 NA
ATOM     16  O3  UNL     1       5.905  -1.174 -32.043  0.00  0.00    -0.257 OA
ATOM     17  C12 UNL     1       6.147  -0.313 -30.928  0.00  0.00    +0.078 C 
ATOM     18  C13 UNL     1       7.252   0.687 -31.298  0.00  0.00    -0.021 C 
ATOM     19  C14 UNL     1       7.627   1.539 -30.086  0.00  0.00    -0.061 C 
ATOM     20  C15 UNL     1       6.827   1.581 -32.464  0.00  0.00    -0.061 C 
ATOM     21  H   UNL     1       1.489  -5.093 -29.304  0.00  0.00    +0.000 HD
ENDROOT
TORSDOF 0
ENDMDL
MODEL 7
REMARK VINA RESULT:    -5.723     12.764     14.333
REMARK INTER + INTRA:          -5.723
REMARK INTER:                  -5.723
REMARK INTRA:                   0.000
REMARK UNBOUND:                 0.000
REMARK  Name = /home/vital/Documents/PhD_2021/Malaria_codes/scripts/../data/pdbqt_ligands/ligand_161_temp.pdb
REMARK                            x       y       z     vdW  Elec       q    Type
REMARK                         _______ _______ _______ _____ _____    ______ ____
ROOT
ATOM      1  C1  UNL     1       2.646  -4.294 -26.542  0.00  0.00    -0.038 C 
ATOM      2  C2  UNL     1       4.115  -4.256 -26.885  0.00  0.00    -0.024 A 
ATOM      3  C3  UNL     1       5.085  -4.196 -25.760  0.00  0.00    +0.002 A 
ATOM      4  C4  UNL     1       4.700  -4.184 -24.411  0.00  0.00    -0.052 A 
ATOM      5  C5  UNL     1       5.651  -4.121 -23.386  0.00  0.00    -0.061 A 
ATOM      6  C6  UNL     1       7.008  -4.068 -23.694  0.00  0.00    -0.060 A 
ATOM      7  C7  UNL     1       7.413  -4.079 -25.027  0.00  0.00    -0.038 A 
ATOM      8  C8  UNL     1       6.457  -4.143 -26.045  0.00  0.00    +0.049 A 
ATOM      9  N1  UNL     1       6.889  -4.159 -27.370  0.00  0.00    -0.321 N 
ATOM     10  C9  UNL     1       6.047  -4.231 -28.451  0.00  0.00    +0.262 A 
ATOM     11  O1  UNL     1       6.539  -4.282 -29.576  0.00  0.00    -0.267 OA
ATOM     12  C10 UNL     1       4.582  -4.260 -28.158  0.00  0.00    +0.108 A 
ATOM     13  C11 UNL     1       3.602  -4.327 -29.281  0.00  0.00    +0.294 C 
ATOM     14  O2  UNL     1       3.092  -5.407 -29.577  0.00  0.00    -0.266 OA
ATOM     15  N2  UNL     1       3.393  -3.104 -29.789  0.00  0.00    -0.058 NA
ATOM     16  O3  UNL     1       2.254  -3.045 -30.675  0.00  0.00    -0.257 OA
ATOM     17  C12 UNL     1       2.715  -3.254 -32.012  0.00  0.00    +0.078 C 
ATOM     18  C13 UNL     1       1.525  -3.138 -32.975  0.00  0.00    -0.021 C 
ATOM     19  C14 UNL     1       1.956  -3.483 -34.400  0.00  0.00    -0.061 C 
ATOM     20  C15 UNL     1       0.908  -1.739 -32.932  0.00  0.00    -0.061 C 
ATOM     21  H   UNL     1       7.857  -4.116 -27.541  0.00  0.00    +0.000 HD
ENDROOT
TORSDOF 0
ENDMDL
MODEL 8
REMARK VINA RESULT:    -5.708     13.963     15.579
REMARK INTER + INTRA:          -5.708
REMARK INTER:                  -5.708
REMARK INTRA:                   0.000
REMARK UNBOUND:                 0.000
REMARK  Name = /home/vital/Documents/PhD_2021/Malaria_codes/scripts/../data/pdbqt_ligands/ligand_161_temp.pdb
REMARK                            x       y       z     vdW  Elec       q    Type
REMARK                         _______ _______ _______ _____ _____    ______ ____
ROOT
ATOM      1  C1  UNL     1       2.164  -4.327 -28.569  0.00  0.00    -0.038 C 
ATOM      2  C2  UNL     1       3.578  -4.292 -29.093  0.00  0.00    -0.024 A 
ATOM      3  C3  UNL     1       4.683  -4.335 -28.100  0.00  0.00    +0.002 A 
ATOM      4  C4  UNL     1       4.471  -4.416 -26.715  0.00  0.00    -0.052 A 
ATOM      5  C5  UNL     1       5.545  -4.449 -25.818  0.00  0.00    -0.061 A 
ATOM      6  C6  UNL     1       6.853  -4.399 -26.292  0.00  0.00    -0.060 A 
ATOM      7  C7  UNL     1       7.088  -4.319 -27.663  0.00  0.00    -0.038 A 
ATOM      8  C8  UNL     1       6.009  -4.288 -28.553  0.00  0.00    +0.049 A 
ATOM      9  N1  UNL     1       6.271  -4.214 -29.920  0.00  0.00    -0.321 N 
ATOM     10  C9  UNL     1       5.297  -4.189 -30.887  0.00  0.00    +0.262 A 
ATOM     11  O1  UNL     1       5.643  -4.166 -32.066  0.00  0.00    -0.267 OA
ATOM     12  C10 UNL     1       3.881  -4.211 -30.413  0.00  0.00    +0.108 A 
ATOM     13  C11 UNL     1       2.766  -4.175 -31.403  0.00  0.00    +0.294 C 
ATOM     14  O2  UNL     1       2.192  -5.220 -31.707  0.00  0.00    -0.266 OA
ATOM     15  N2  UNL     1       2.530  -2.914 -31.792  0.00  0.00    -0.058 NA
ATOM     16  O3  UNL     1       1.291  -2.766 -32.519  0.00  0.00    -0.257 OA
ATOM     17  C12 UNL     1       1.574  -2.885 -33.915  0.00  0.00    +0.078 C 
ATOM     18  C13 UNL     1       0.276  -2.673 -34.708  0.00  0.00    -0.021 C 
ATOM     19  C14 UNL     1       0.514  -2.920 -36.197  0.00  0.00    -0.061 C 
ATOM     20  C15 UNL     1      -0.291  -1.270 -34.486  0.00  0.00    -0.061 C 
ATOM     21  H   UNL     1       7.211  -4.177 -30.209  0.00  0.00    +0.000 HD
ENDROOT
TORSDOF 0
ENDMDL
MODEL 9
REMARK VINA RESULT:    -5.687      3.484      5.086
REMARK INTER + INTRA:          -5.687
REMARK INTER:                  -5.687
REMARK INTRA:                   0.000
REMARK UNBOUND:                 0.000
REMARK  Name = /home/vital/Documents/PhD_2021/Malaria_codes/scripts/../data/pdbqt_ligands/ligand_161_temp.pdb
REMARK                            x       y       z     vdW  Elec       q    Type
REMARK                         _______ _______ _______ _____ _____    ______ ____
ROOT
ATOM      1  C1  UNL     1      -1.247   5.004 -16.432  0.00  0.00    -0.038 C 
ATOM      2  C2  UNL     1       0.185   5.211 -16.862  0.00  0.00    -0.024 A 
ATOM      3  C3  UNL     1       1.230   5.213 -15.806  0.00  0.00    +0.002 A 
ATOM      4  C4  UNL     1       0.948   5.022 -14.444  0.00  0.00    -0.052 A 
ATOM      5  C5  UNL     1       1.967   5.037 -13.485  0.00  0.00    -0.061 A 
ATOM      6  C6  UNL     1       3.289   5.245 -13.871  0.00  0.00    -0.060 A 
ATOM      7  C7  UNL     1       3.591   5.436 -15.218  0.00  0.00    -0.038 A 
ATOM      8  C8  UNL     1       2.568   5.419 -16.171  0.00  0.00    +0.049 A 
ATOM      9  N1  UNL     1       2.898   5.605 -17.512  0.00  0.00    -0.321 N 
ATOM     10  C9  UNL     1       1.984   5.597 -18.535  0.00  0.00    +0.262 A 
ATOM     11  O1  UNL     1       2.392   5.730 -19.687  0.00  0.00    -0.267 OA
ATOM     12  C10 UNL     1       0.552   5.406 -18.153  0.00  0.00    +0.108 A 
ATOM     13  C11 UNL     1      -0.503   5.397 -19.208  0.00  0.00    +0.294 C 
ATOM     14  O2  UNL     1      -0.949   4.322 -19.609  0.00  0.00    -0.266 OA
ATOM     15  N2  UNL     1      -0.842   6.651 -19.537  0.00  0.00    -0.058 NA
ATOM     16  O3  UNL     1      -2.047   6.723 -20.331  0.00  0.00    -0.257 OA
ATOM     17  C12 UNL     1      -1.675   6.723 -21.711  0.00  0.00    +0.078 C 
ATOM     18  C13 UNL     1      -2.940   6.857 -22.571  0.00  0.00    -0.021 C 
ATOM     19  C14 UNL     1      -2.593   6.730 -24.053  0.00  0.00    -0.061 C 
ATOM     20  C15 UNL     1      -3.658   8.181 -22.304  0.00  0.00    -0.061 C 
ATOM     21  H   UNL     1       3.844   5.753 -17.739  0.00  0.00    +0.000 HD
ENDROOT
TORSDOF 0
ENDMDL
