MODEL 1
REMARK VINA RESULT:    -6.237      0.000      0.000
REMARK INTER + INTRA:          -6.237
REMARK INTER:                  -6.237
REMARK INTRA:                   0.000
REMARK UNBOUND:                 0.000
REMARK  Name = /home/vital/Documents/PhD_2021/Malaria_codes/scripts/../data/pdbqt_ligands/ligand_50_temp.pdb
REMARK                            x       y       z     vdW  Elec       q    Type
REMARK                         _______ _______ _______ _____ _____    ______ ____
ROOT
ATOM      1  C1  UNL     1       5.586  -1.244 -31.993  0.00  0.00    -0.062 C 
ATOM      2  C2  UNL     1       4.507  -2.311 -32.055  0.00  0.00    -0.021 C 
ATOM      3  C3  UNL     1       4.924  -3.578 -31.318  0.00  0.00    +0.093 C 
ATOM      4  O1  UNL     1       3.854  -4.541 -31.354  0.00  0.00    -0.461 OA
ATOM      5  C4  UNL     1       3.831  -5.353 -32.443  0.00  0.00    +0.343 C 
ATOM      6  O2  UNL     1       4.629  -5.317 -33.367  0.00  0.00    -0.245 OA
ATOM      7  C5  UNL     1       2.692  -6.312 -32.373  0.00  0.00    +0.104 A 
ATOM      8  C6  UNL     1       2.607  -7.247 -33.407  0.00  0.00    -0.002 A 
ATOM      9  C7  UNL     1       1.572  -8.178 -33.438  0.00  0.00    +0.126 A 
ATOM     10  O3  UNL     1       1.582  -9.017 -34.522  0.00  0.00    -0.506 OA
ATOM     11  C8  UNL     1       0.590  -8.237 -32.426  0.00  0.00    +0.027 A 
ATOM     12  C9  UNL     1      -0.449  -9.200 -32.396  0.00  0.00    -0.050 A 
ATOM     13  C10 UNL     1      -1.406  -9.213 -31.380  0.00  0.00    -0.061 A 
ATOM     14  C11 UNL     1      -1.347  -8.268 -30.366  0.00  0.00    -0.061 A 
ATOM     15  C12 UNL     1      -0.325  -7.320 -30.365  0.00  0.00    -0.050 A 
ATOM     16  C13 UNL     1       0.660  -7.285 -31.377  0.00  0.00    +0.028 A 
ATOM     17  C14 UNL     1       1.711  -6.331 -31.366  0.00  0.00    +0.139 A 
ATOM     18  O4  UNL     1       1.715  -5.438 -30.318  0.00  0.00    -0.505 OA
ATOM     19  H   UNL     1       2.255  -8.939 -35.169  0.00  0.00    +0.000 HD
ATOM     20  H   UNL     1       2.386  -4.786 -30.260  0.00  0.00    +0.000 HD
ENDROOT
TORSDOF 0
ENDMDL
MODEL 2
REMARK VINA RESULT:    -6.146     17.836     19.521
REMARK INTER + INTRA:          -6.146
REMARK INTER:                  -6.146
REMARK INTRA:                   0.000
REMARK UNBOUND:                 0.000
REMARK  Name = /home/vital/Documents/PhD_2021/Malaria_codes/scripts/../data/pdbqt_ligands/ligand_50_temp.pdb
REMARK                            x       y       z     vdW  Elec       q    Type
REMARK                         _______ _______ _______ _____ _____    ______ ____
ROOT
ATOM      1  C1  UNL     1       4.969   3.036 -13.331  0.00  0.00    -0.062 C 
ATOM      2  C2  UNL     1       3.933   3.339 -14.400  0.00  0.00    -0.021 C 
ATOM      3  C3  UNL     1       3.479   4.793 -14.348  0.00  0.00    +0.093 C 
ATOM      4  O1  UNL     1       2.542   5.051 -15.410  0.00  0.00    -0.461 OA
ATOM      5  C4  UNL     1       1.240   4.784 -15.122  0.00  0.00    +0.343 C 
ATOM      6  O2  UNL     1       0.829   4.347 -14.058  0.00  0.00    -0.245 OA
ATOM      7  C5  UNL     1       0.360   5.093 -16.284  0.00  0.00    +0.104 A 
ATOM      8  C6  UNL     1      -1.013   4.924 -16.081  0.00  0.00    -0.002 A 
ATOM      9  C7  UNL     1      -1.918   5.177 -17.110  0.00  0.00    +0.126 A 
ATOM     10  O3  UNL     1      -3.230   4.940 -16.795  0.00  0.00    -0.506 OA
ATOM     11  C8  UNL     1      -1.499   5.634 -18.378  0.00  0.00    +0.027 A 
ATOM     12  C9  UNL     1      -2.391   5.950 -19.432  0.00  0.00    -0.050 A 
ATOM     13  C10 UNL     1      -1.931   6.389 -20.674  0.00  0.00    -0.061 A 
ATOM     14  C11 UNL     1      -0.568   6.529 -20.893  0.00  0.00    -0.061 A 
ATOM     15  C12 UNL     1       0.329   6.241 -19.866  0.00  0.00    -0.050 A 
ATOM     16  C13 UNL     1      -0.107   5.799 -18.598  0.00  0.00    +0.028 A 
ATOM     17  C14 UNL     1       0.806   5.523 -17.546  0.00  0.00    +0.139 A 
ATOM     18  O4  UNL     1       2.141   5.704 -17.832  0.00  0.00    -0.505 OA
ATOM     19  H   UNL     1      -3.459   4.635 -15.939  0.00  0.00    +0.000 HD
ATOM     20  H   UNL     1       2.788   5.537 -17.175  0.00  0.00    +0.000 HD
ENDROOT
TORSDOF 0
ENDMDL
MODEL 3
REMARK VINA RESULT:    -6.111      1.630      6.060
REMARK INTER + INTRA:          -6.111
REMARK INTER:                  -6.111
REMARK INTRA:                   0.000
REMARK UNBOUND:                 0.000
REMARK  Name = /home/vital/Documents/PhD_2021/Malaria_codes/scripts/../data/pdbqt_ligands/ligand_50_temp.pdb
REMARK                            x       y       z     vdW  Elec       q    Type
REMARK                         _______ _______ _______ _____ _____    ______ ____
ROOT
ATOM      1  C1  UNL     1      -1.240 -10.313 -32.792  0.00  0.00    -0.062 C 
ATOM      2  C2  UNL     1      -0.145  -9.370 -32.323  0.00  0.00    -0.021 C 
ATOM      3  C3  UNL     1      -0.411  -7.935 -32.762  0.00  0.00    +0.093 C 
ATOM      4  O1  UNL     1       0.619  -7.069 -32.250  0.00  0.00    -0.461 OA
ATOM      5  C4  UNL     1       1.727  -6.950 -33.029  0.00  0.00    +0.343 C 
ATOM      6  O2  UNL     1       1.903  -7.517 -34.096  0.00  0.00    -0.245 OA
ATOM      7  C5  UNL     1       2.720  -6.027 -32.410  0.00  0.00    +0.104 A 
ATOM      8  C6  UNL     1       3.873  -5.771 -33.156  0.00  0.00    -0.002 A 
ATOM      9  C7  UNL     1       4.867  -4.931 -32.660  0.00  0.00    +0.126 A 
ATOM     10  O3  UNL     1       5.962  -4.789 -33.472  0.00  0.00    -0.506 OA
ATOM     11  C8  UNL     1       4.744  -4.286 -31.410  0.00  0.00    +0.027 A 
ATOM     12  C9  UNL     1       5.709  -3.386 -30.894  0.00  0.00    -0.050 A 
ATOM     13  C10 UNL     1       5.551  -2.779 -29.647  0.00  0.00    -0.061 A 
ATOM     14  C11 UNL     1       4.424  -3.053 -28.886  0.00  0.00    -0.061 A 
ATOM     15  C12 UNL     1       3.453  -3.922 -29.380  0.00  0.00    -0.050 A 
ATOM     16  C13 UNL     1       3.583  -4.547 -30.640  0.00  0.00    +0.028 A 
ATOM     17  C14 UNL     1       2.585  -5.418 -31.150  0.00  0.00    +0.139 A 
ATOM     18  O4  UNL     1       1.485  -5.626 -30.347  0.00  0.00    -0.505 OA
ATOM     19  H   UNL     1       5.998  -5.239 -34.293  0.00  0.00    +0.000 HD
ATOM     20  H   UNL     1       0.796  -6.191 -30.634  0.00  0.00    +0.000 HD
ENDROOT
TORSDOF 0
ENDMDL
MODEL 4
REMARK VINA RESULT:    -6.094      9.404     11.927
REMARK INTER + INTRA:          -6.094
REMARK INTER:                  -6.094
REMARK INTRA:                   0.000
REMARK UNBOUND:                 0.000
REMARK  Name = /home/vital/Documents/PhD_2021/Malaria_codes/scripts/../data/pdbqt_ligands/ligand_50_temp.pdb
REMARK                            x       y       z     vdW  Elec       q    Type
REMARK                         _______ _______ _______ _____ _____    ______ ____
ROOT
ATOM      1  C1  UNL     1       1.802  -2.225 -18.204  0.00  0.00    -0.062 C 
ATOM      2  C2  UNL     1       2.654  -2.372 -19.453  0.00  0.00    -0.021 C 
ATOM      3  C3  UNL     1       3.724  -3.443 -19.283  0.00  0.00    +0.093 C 
ATOM      4  O1  UNL     1       4.470  -3.588 -20.505  0.00  0.00    -0.461 OA
ATOM      5  C4  UNL     1       5.533  -2.752 -20.647  0.00  0.00    +0.343 C 
ATOM      6  O2  UNL     1       5.880  -1.909 -19.835  0.00  0.00    -0.245 OA
ATOM      7  C5  UNL     1       6.236  -2.994 -21.939  0.00  0.00    +0.104 A 
ATOM      8  C6  UNL     1       7.390  -2.239 -22.165  0.00  0.00    -0.002 A 
ATOM      9  C7  UNL     1       8.111  -2.383 -23.348  0.00  0.00    +0.126 A 
ATOM     10  O3  UNL     1       9.202  -1.561 -23.462  0.00  0.00    -0.506 OA
ATOM     11  C8  UNL     1       7.731  -3.305 -24.347  0.00  0.00    +0.027 A 
ATOM     12  C9  UNL     1       8.465  -3.516 -25.540  0.00  0.00    -0.050 A 
ATOM     13  C10 UNL     1       8.045  -4.431 -26.506  0.00  0.00    -0.061 A 
ATOM     14  C11 UNL     1       6.883  -5.162 -26.304  0.00  0.00    -0.061 A 
ATOM     15  C12 UNL     1       6.152  -4.983 -25.131  0.00  0.00    -0.050 A 
ATOM     16  C13 UNL     1       6.555  -4.068 -24.133  0.00  0.00    +0.028 A 
ATOM     17  C14 UNL     1       5.820  -3.900 -22.930  0.00  0.00    +0.139 A 
ATOM     18  O4  UNL     1       4.689  -4.674 -22.791  0.00  0.00    -0.505 OA
ATOM     19  H   UNL     1       9.414  -0.965 -22.772  0.00  0.00    +0.000 HD
ATOM     20  H   UNL     1       4.165  -4.604 -22.017  0.00  0.00    +0.000 HD
ENDROOT
TORSDOF 0
ENDMDL
MODEL 5
REMARK VINA RESULT:    -6.048      9.711     12.421
REMARK INTER + INTRA:          -6.048
REMARK INTER:                  -6.048
REMARK INTRA:                   0.000
REMARK UNBOUND:                 0.000
REMARK  Name = /home/vital/Documents/PhD_2021/Malaria_codes/scripts/../data/pdbqt_ligands/ligand_50_temp.pdb
REMARK                            x       y       z     vdW  Elec       q    Type
REMARK                         _______ _______ _______ _____ _____    ______ ____
ROOT
ATOM      1  C1  UNL     1      -3.231  -6.691 -28.560  0.00  0.00    -0.062 C 
ATOM      2  C2  UNL     1      -3.330  -5.707 -27.407  0.00  0.00    -0.021 C 
ATOM      3  C3  UNL     1      -4.239  -6.226 -26.299  0.00  0.00    +0.093 C 
ATOM      4  O1  UNL     1      -4.260  -5.290 -25.204  0.00  0.00    -0.461 OA
ATOM      5  C4  UNL     1      -5.182  -4.296 -25.299  0.00  0.00    +0.343 C 
ATOM      6  O2  UNL     1      -5.964  -4.146 -26.225  0.00  0.00    -0.245 OA
ATOM      7  C5  UNL     1      -5.121  -3.395 -24.114  0.00  0.00    +0.104 A 
ATOM      8  C6  UNL     1      -6.073  -2.373 -24.066  0.00  0.00    -0.002 A 
ATOM      9  C7  UNL     1      -6.093  -1.471 -23.006  0.00  0.00    +0.126 A 
ATOM     10  O3  UNL     1      -7.051  -0.496 -23.094  0.00  0.00    -0.506 OA
ATOM     11  C8  UNL     1      -5.182  -1.562 -21.931  0.00  0.00    +0.027 A 
ATOM     12  C9  UNL     1      -5.201  -0.696 -20.810  0.00  0.00    -0.050 A 
ATOM     13  C10 UNL     1      -4.273  -0.816 -19.775  0.00  0.00    -0.061 A 
ATOM     14  C11 UNL     1      -3.305  -1.809 -19.830  0.00  0.00    -0.061 A 
ATOM     15  C12 UNL     1      -3.276  -2.684 -20.914  0.00  0.00    -0.050 A 
ATOM     16  C13 UNL     1      -4.205  -2.589 -21.974  0.00  0.00    +0.028 A 
ATOM     17  C14 UNL     1      -4.186  -3.493 -23.069  0.00  0.00    +0.139 A 
ATOM     18  O4  UNL     1      -3.209  -4.462 -23.045  0.00  0.00    -0.505 OA
ATOM     19  H   UNL     1      -7.633  -0.476 -23.828  0.00  0.00    +0.000 HD
ATOM     20  H   UNL     1      -3.149  -5.086 -23.743  0.00  0.00    +0.000 HD
ENDROOT
TORSDOF 0
ENDMDL
MODEL 6
REMARK VINA RESULT:    -6.009     11.070     12.767
REMARK INTER + INTRA:          -6.009
REMARK INTER:                  -6.009
REMARK INTRA:                   0.000
REMARK UNBOUND:                 0.000
REMARK  Name = /home/vital/Documents/PhD_2021/Malaria_codes/scripts/../data/pdbqt_ligands/ligand_50_temp.pdb
REMARK                            x       y       z     vdW  Elec       q    Type
REMARK                         _______ _______ _______ _____ _____    ______ ____
ROOT
ATOM      1  C1  UNL     1       3.759  -4.284 -20.140  0.00  0.00    -0.062 C 
ATOM      2  C2  UNL     1       2.276  -4.065 -20.382  0.00  0.00    -0.021 C 
ATOM      3  C3  UNL     1       2.021  -2.826 -21.232  0.00  0.00    +0.093 C 
ATOM      4  O1  UNL     1       0.610  -2.687 -21.484  0.00  0.00    -0.461 OA
ATOM      5  C4  UNL     1      -0.092  -2.007 -20.538  0.00  0.00    +0.343 C 
ATOM      6  O2  UNL     1       0.380  -1.529 -19.518  0.00  0.00    -0.245 OA
ATOM      7  C5  UNL     1      -1.534  -1.917 -20.903  0.00  0.00    +0.104 A 
ATOM      8  C6  UNL     1      -2.344  -1.177 -20.037  0.00  0.00    -0.002 A 
ATOM      9  C7  UNL     1      -3.708  -1.043 -20.284  0.00  0.00    +0.126 A 
ATOM     10  O3  UNL     1      -4.398  -0.324 -19.344  0.00  0.00    -0.506 OA
ATOM     11  C8  UNL     1      -4.322  -1.616 -21.420  0.00  0.00    +0.027 A 
ATOM     12  C9  UNL     1      -5.694  -1.460 -21.732  0.00  0.00    -0.050 A 
ATOM     13  C10 UNL     1      -6.261  -2.055 -22.861  0.00  0.00    -0.061 A 
ATOM     14  C11 UNL     1      -5.469  -2.817 -23.708  0.00  0.00    -0.061 A 
ATOM     15  C12 UNL     1      -4.112  -2.972 -23.431  0.00  0.00    -0.050 A 
ATOM     16  C13 UNL     1      -3.511  -2.378 -22.299  0.00  0.00    +0.028 A 
ATOM     17  C14 UNL     1      -2.124  -2.520 -22.027  0.00  0.00    +0.139 A 
ATOM     18  O4  UNL     1      -1.399  -3.274 -22.923  0.00  0.00    -0.505 OA
ATOM     19  H   UNL     1      -3.946   0.037 -18.606  0.00  0.00    +0.000 HD
ATOM     20  H   UNL     1      -0.480  -3.402 -22.792  0.00  0.00    +0.000 HD
ENDROOT
TORSDOF 0
ENDMDL
MODEL 7
REMARK VINA RESULT:    -5.920     10.424     12.725
REMARK INTER + INTRA:          -5.920
REMARK INTER:                  -5.920
REMARK INTRA:                   0.000
REMARK UNBOUND:                 0.000
REMARK  Name = /home/vital/Documents/PhD_2021/Malaria_codes/scripts/../data/pdbqt_ligands/ligand_50_temp.pdb
REMARK                            x       y       z     vdW  Elec       q    Type
REMARK                         _______ _______ _______ _____ _____    ______ ____
ROOT
ATOM      1  C1  UNL     1       7.800   0.523 -16.389  0.00  0.00    -0.062 C 
ATOM      2  C2  UNL     1       7.872  -0.323 -17.648  0.00  0.00    -0.021 C 
ATOM      3  C3  UNL     1       6.950   0.210 -18.739  0.00  0.00    +0.093 C 
ATOM      4  O1  UNL     1       7.091  -0.586 -19.931  0.00  0.00    -0.461 OA
ATOM      5  C4  UNL     1       6.297  -1.688 -19.998  0.00  0.00    +0.343 C 
ATOM      6  O2  UNL     1       5.504  -2.039 -19.139  0.00  0.00    -0.245 OA
ATOM      7  C5  UNL     1       6.518  -2.429 -21.272  0.00  0.00    +0.104 A 
ATOM      8  C6  UNL     1       5.705  -3.545 -21.485  0.00  0.00    -0.002 A 
ATOM      9  C7  UNL     1       5.841  -4.312 -22.640  0.00  0.00    +0.126 A 
ATOM     10  O3  UNL     1       5.009  -5.398 -22.714  0.00  0.00    -0.506 OA
ATOM     11  C8  UNL     1       6.776  -3.986 -23.647  0.00  0.00    +0.027 A 
ATOM     12  C9  UNL     1       6.910  -4.710 -24.856  0.00  0.00    -0.050 A 
ATOM     13  C10 UNL     1       7.857  -4.358 -25.820  0.00  0.00    -0.061 A 
ATOM     14  C11 UNL     1       8.690  -3.271 -25.601  0.00  0.00    -0.061 A 
ATOM     15  C12 UNL     1       8.566  -2.532 -24.426  0.00  0.00    -0.050 A 
ATOM     16  C13 UNL     1       7.614  -2.862 -23.435  0.00  0.00    +0.028 A 
ATOM     17  C14 UNL     1       7.475  -2.098 -22.246  0.00  0.00    +0.139 A 
ATOM     18  O4  UNL     1       8.323  -1.022 -22.108  0.00  0.00    -0.505 OA
ATOM     19  H   UNL     1       4.406  -5.574 -22.019  0.00  0.00    +0.000 HD
ATOM     20  H   UNL     1       8.276  -0.483 -21.344  0.00  0.00    +0.000 HD
ENDROOT
TORSDOF 0
ENDMDL
MODEL 8
REMARK VINA RESULT:    -5.672      3.618      5.915
REMARK INTER + INTRA:          -5.672
REMARK INTER:                  -5.672
REMARK INTRA:                   0.000
REMARK UNBOUND:                 0.000
REMARK  Name = /home/vital/Documents/PhD_2021/Malaria_codes/scripts/../data/pdbqt_ligands/ligand_50_temp.pdb
REMARK                            x       y       z     vdW  Elec       q    Type
REMARK                         _______ _______ _______ _____ _____    ______ ____
ROOT
ATOM      1  C1  UNL     1       6.195  -4.880 -23.736  0.00  0.00    -0.062 C 
ATOM      2  C2  UNL     1       5.538  -4.511 -25.055  0.00  0.00    -0.021 C 
ATOM      3  C3  UNL     1       5.949  -5.460 -26.174  0.00  0.00    +0.093 C 
ATOM      4  O1  UNL     1       5.263  -5.110 -27.391  0.00  0.00    -0.461 OA
ATOM      5  C4  UNL     1       5.873  -4.169 -28.159  0.00  0.00    +0.343 C 
ATOM      6  O2  UNL     1       6.927  -3.614 -27.890  0.00  0.00    -0.245 OA
ATOM      7  C5  UNL     1       5.083  -3.890 -29.392  0.00  0.00    +0.104 A 
ATOM      8  C6  UNL     1       5.649  -2.987 -30.296  0.00  0.00    -0.002 A 
ATOM      9  C7  UNL     1       4.984  -2.652 -31.473  0.00  0.00    +0.126 A 
ATOM     10  O3  UNL     1       5.627  -1.730 -32.257  0.00  0.00    -0.506 OA
ATOM     11  C8  UNL     1       3.738  -3.221 -31.815  0.00  0.00    +0.027 A 
ATOM     12  C9  UNL     1       3.055  -2.944 -33.024  0.00  0.00    -0.050 A 
ATOM     13  C10 UNL     1       1.818  -3.522 -33.316  0.00  0.00    -0.061 A 
ATOM     14  C11 UNL     1       1.235  -4.395 -32.409  0.00  0.00    -0.061 A 
ATOM     15  C12 UNL     1       1.896  -4.696 -31.219  0.00  0.00    -0.050 A 
ATOM     16  C13 UNL     1       3.150  -4.130 -30.899  0.00  0.00    +0.028 A 
ATOM     17  C14 UNL     1       3.831  -4.452 -29.696  0.00  0.00    +0.139 A 
ATOM     18  O4  UNL     1       3.200  -5.340 -28.854  0.00  0.00    -0.505 OA
ATOM     19  H   UNL     1       6.453  -1.380 -31.987  0.00  0.00    +0.000 HD
ATOM     20  H   UNL     1       3.603  -5.588 -28.046  0.00  0.00    +0.000 HD
ENDROOT
TORSDOF 0
ENDMDL
MODEL 9
REMARK VINA RESULT:    -5.536     10.541     12.519
REMARK INTER + INTRA:          -5.536
REMARK INTER:                  -5.536
REMARK INTRA:                   0.000
REMARK UNBOUND:                 0.000
REMARK  Name = /home/vital/Documents/PhD_2021/Malaria_codes/scripts/../data/pdbqt_ligands/ligand_50_temp.pdb
REMARK                            x       y       z     vdW  Elec       q    Type
REMARK                         _______ _______ _______ _____ _____    ______ ____
ROOT
ATOM      1  C1  UNL     1      -7.693   1.691 -25.827  0.00  0.00    -0.062 C 
ATOM      2  C2  UNL     1      -6.649   0.687 -25.370  0.00  0.00    -0.021 C 
ATOM      3  C3  UNL     1      -7.196  -0.249 -24.299  0.00  0.00    +0.093 C 
ATOM      4  O1  UNL     1      -6.194  -1.217 -23.936  0.00  0.00    -0.461 OA
ATOM      5  C4  UNL     1      -5.334  -0.832 -22.956  0.00  0.00    +0.343 C 
ATOM      6  O2  UNL     1      -5.351   0.249 -22.388  0.00  0.00    -0.245 OA
ATOM      7  C5  UNL     1      -4.348  -1.908 -22.655  0.00  0.00    +0.104 A 
ATOM      8  C6  UNL     1      -3.454  -1.653 -21.612  0.00  0.00    -0.002 A 
ATOM      9  C7  UNL     1      -2.487  -2.592 -21.261  0.00  0.00    +0.126 A 
ATOM     10  O3  UNL     1      -1.650  -2.207 -20.247  0.00  0.00    -0.506 OA
ATOM     11  C8  UNL     1      -2.385  -3.839 -21.915  0.00  0.00    +0.027 A 
ATOM     12  C9  UNL     1      -1.449  -4.839 -21.555  0.00  0.00    -0.050 A 
ATOM     13  C10 UNL     1      -1.376  -6.054 -22.238  0.00  0.00    -0.061 A 
ATOM     14  C11 UNL     1      -2.239  -6.303 -23.295  0.00  0.00    -0.061 A 
ATOM     15  C12 UNL     1      -3.180  -5.340 -23.658  0.00  0.00    -0.050 A 
ATOM     16  C13 UNL     1      -3.280  -4.104 -22.982  0.00  0.00    +0.028 A 
ATOM     17  C14 UNL     1      -4.251  -3.132 -23.341  0.00  0.00    +0.139 A 
ATOM     18  O4  UNL     1      -5.086  -3.457 -24.386  0.00  0.00    -0.505 OA
ATOM     19  H   UNL     1      -1.757  -1.368 -19.844  0.00  0.00    +0.000 HD
ATOM     20  H   UNL     1      -5.745  -2.853 -24.665  0.00  0.00    +0.000 HD
ENDROOT
TORSDOF 0
ENDMDL
