MODEL 1
REMARK VINA RESULT:    -6.377      0.000      0.000
REMARK INTER + INTRA:          -6.377
REMARK INTER:                  -6.377
REMARK INTRA:                   0.000
REMARK UNBOUND:                 0.000
REMARK  Name = /home/vital/Documents/PhD_2021/Malaria_codes/scripts/../data/pdbqt_ligands/ligand_143_temp.pdb
REMARK                            x       y       z     vdW  Elec       q    Type
REMARK                         _______ _______ _______ _____ _____    ______ ____
ROOT
ATOM      1  O   UNL     1       2.315   1.074 -17.282  0.00  0.00    -0.393 OA
ATOM      2  C   UNL     1       1.448   1.960 -17.984  0.00  0.00    +0.060 C 
ATOM      3  C   UNL     1       0.928   3.097 -17.103  0.00  0.00    +0.034 C 
ATOM      4  N   UNL     1      -0.071   3.907 -17.773  0.00  0.00    -0.327 N 
ATOM      5  C   UNL     1      -0.667   5.048 -17.264  0.00  0.00    +0.116 C 
ATOM      6  N   UNL     1      -0.692   5.598 -16.100  0.00  0.00    -0.250 N 
ATOM      7  C   UNL     1       0.339   5.288 -15.113  0.00  0.00    +0.110 C 
ATOM      8  N   UNL     1       1.656   5.926 -15.419  0.00  0.00    -0.289 N 
ATOM      9  C   UNL     1       2.871   5.450 -14.822  0.00  0.00    +0.023 C 
ATOM     10  C   UNL     1       4.076   5.980 -15.167  0.00  0.00    -0.043 C 
ATOM     11  C   UNL     1       5.381   5.579 -14.675  0.00  0.00    -0.045 C 
ATOM     12  C   UNL     1       6.550   6.222 -14.841  0.00  0.00    +0.033 C 
ATOM     13 CL   UNL     1       6.665   7.769 -15.625  0.00  0.00    -0.087 Cl
ATOM     14  C   UNL     1       7.837   5.700 -14.275  0.00  0.00    +0.058 C 
ATOM     15 CL   UNL     1       8.986   5.246 -15.558  0.00  0.00    -0.119 Cl
ATOM     16  C   UNL     1       2.778   4.389 -13.708  0.00  0.00    +0.042 C 
ATOM     17  S   UNL     1       3.061   2.690 -14.367  0.00  0.00    -0.087 S 
ATOM     18  C   UNL     1       1.570   7.238 -15.909  0.00  0.00    -0.002 C 
ATOM     19  C   UNL     1       1.557   7.723 -17.161  0.00  0.00    -0.048 C 
ATOM     20  C   UNL     1       1.752   6.988 -18.392  0.00  0.00    -0.061 C 
ATOM     21  C   UNL     1       0.822   6.566 -19.265  0.00  0.00    -0.062 C 
ATOM     22  C   UNL     1      -0.624   6.620 -19.140  0.00  0.00    -0.059 C 
ATOM     23  C   UNL     1      -1.362   5.916 -18.263  0.00  0.00    -0.022 C 
ATOM     24  H   UNL     1       2.616   0.374 -17.881  0.00  0.00    +0.000 HD
ATOM     25  H   UNL     1      -0.351   3.619 -18.671  0.00  0.00    +0.000 HD
ATOM     26  H   UNL     1      -1.411   6.231 -15.874  0.00  0.00    +0.000 HD
ATOM     27  H   UNL     1       2.110   2.401 -15.295  0.00  0.00    +0.000 HD
ATOM     28  H   UNL     1       2.991   1.791 -13.350  0.00  0.00    +0.000 HD
ENDROOT
TORSDOF 0
ENDMDL
MODEL 2
REMARK VINA RESULT:    -5.996     17.939     19.939
REMARK INTER + INTRA:          -5.996
REMARK INTER:                  -5.996
REMARK INTRA:                   0.000
REMARK UNBOUND:                 0.000
REMARK  Name = /home/vital/Documents/PhD_2021/Malaria_codes/scripts/../data/pdbqt_ligands/ligand_143_temp.pdb
REMARK                            x       y       z     vdW  Elec       q    Type
REMARK                         _______ _______ _______ _____ _____    ______ ____
ROOT
ATOM      1  O   UNL     1      -2.492  -2.765 -31.308  0.00  0.00    -0.393 OA
ATOM      2  C   UNL     1      -2.490  -4.183 -31.175  0.00  0.00    +0.060 C 
ATOM      3  C   UNL     1      -1.808  -4.883 -32.352  0.00  0.00    +0.034 C 
ATOM      4  N   UNL     1      -1.940  -6.327 -32.292  0.00  0.00    -0.327 N 
ATOM      5  C   UNL     1      -1.368  -7.233 -33.168  0.00  0.00    +0.116 C 
ATOM      6  N   UNL     1      -0.770  -7.120 -34.303  0.00  0.00    -0.250 N 
ATOM      7  C   UNL     1      -0.185  -5.844 -34.708  0.00  0.00    +0.110 C 
ATOM      8  N   UNL     1       1.077  -5.518 -33.977  0.00  0.00    -0.289 N 
ATOM      9  C   UNL     1       1.586  -4.177 -33.931  0.00  0.00    +0.023 C 
ATOM     10  C   UNL     1       2.689  -3.871 -33.196  0.00  0.00    -0.043 C 
ATOM     11  C   UNL     1       3.294  -2.562 -33.029  0.00  0.00    -0.045 C 
ATOM     12  C   UNL     1       4.490  -2.278 -32.486  0.00  0.00    +0.033 C 
ATOM     13 CL   UNL     1       5.600  -3.511 -31.967  0.00  0.00    -0.087 Cl
ATOM     14  C   UNL     1       5.005  -0.874 -32.375  0.00  0.00    +0.058 C 
ATOM     15 CL   UNL     1       5.170  -0.364 -30.677  0.00  0.00    -0.119 Cl
ATOM     16  C   UNL     1       0.914  -3.103 -34.809  0.00  0.00    +0.042 C 
ATOM     17  S   UNL     1      -0.304  -2.109 -33.846  0.00  0.00    -0.087 S 
ATOM     18  C   UNL     1       1.932  -6.611 -33.770  0.00  0.00    -0.002 C 
ATOM     19  C   UNL     1       2.078  -7.444 -32.727  0.00  0.00    -0.048 C 
ATOM     20  C   UNL     1       1.437  -7.355 -31.434  0.00  0.00    -0.061 C 
ATOM     21  C   UNL     1       0.381  -8.052 -30.979  0.00  0.00    -0.062 C 
ATOM     22  C   UNL     1      -0.470  -8.978 -31.705  0.00  0.00    -0.059 C 
ATOM     23  C   UNL     1      -1.319  -8.650 -32.695  0.00  0.00    -0.022 C 
ATOM     24  H   UNL     1      -2.934  -2.370 -30.540  0.00  0.00    +0.000 HD
ATOM     25  H   UNL     1      -2.488  -6.695 -31.562  0.00  0.00    +0.000 HD
ATOM     26  H   UNL     1      -0.706  -7.899 -34.902  0.00  0.00    +0.000 HD
ATOM     27  H   UNL     1      -1.282  -2.926 -33.371  0.00  0.00    +0.000 HD
ATOM     28  H   UNL     1      -0.856  -1.163 -34.652  0.00  0.00    +0.000 HD
ENDROOT
TORSDOF 0
ENDMDL
MODEL 3
REMARK VINA RESULT:    -5.972      4.236      6.810
REMARK INTER + INTRA:          -5.972
REMARK INTER:                  -5.972
REMARK INTRA:                   0.000
REMARK UNBOUND:                 0.000
REMARK  Name = /home/vital/Documents/PhD_2021/Malaria_codes/scripts/../data/pdbqt_ligands/ligand_143_temp.pdb
REMARK                            x       y       z     vdW  Elec       q    Type
REMARK                         _______ _______ _______ _____ _____    ______ ____
ROOT
ATOM      1  O   UNL     1       4.963   4.626 -20.137  0.00  0.00    -0.393 OA
ATOM      2  C   UNL     1       5.080   4.126 -18.809  0.00  0.00    +0.060 C 
ATOM      3  C   UNL     1       4.476   5.071 -17.768  0.00  0.00    +0.034 C 
ATOM      4  N   UNL     1       4.731   4.636 -16.408  0.00  0.00    -0.327 N 
ATOM      5  C   UNL     1       4.250   5.238 -15.259  0.00  0.00    +0.116 C 
ATOM      6  N   UNL     1       3.659   6.357 -15.018  0.00  0.00    -0.250 N 
ATOM      7  C   UNL     1       2.974   7.078 -16.088  0.00  0.00    +0.110 C 
ATOM      8  N   UNL     1       1.679   6.446 -16.484  0.00  0.00    -0.289 N 
ATOM      9  C   UNL     1       1.057   6.749 -17.742  0.00  0.00    +0.023 C 
ATOM     10  C   UNL     1      -0.079   6.110 -18.134  0.00  0.00    -0.043 C 
ATOM     11  C   UNL     1      -0.795   6.287 -19.384  0.00  0.00    -0.045 C 
ATOM     12  C   UNL     1      -2.019   5.826 -19.697  0.00  0.00    +0.033 C 
ATOM     13 CL   UNL     1      -3.026   4.992 -18.553  0.00  0.00    -0.087 Cl
ATOM     14  C   UNL     1      -2.653   6.083 -21.031  0.00  0.00    +0.058 C 
ATOM     15 CL   UNL     1      -2.884   4.577 -21.953  0.00  0.00    -0.119 Cl
ATOM     16  C   UNL     1       1.647   7.885 -18.602  0.00  0.00    +0.042 C 
ATOM     17  S   UNL     1       2.762   7.228 -19.915  0.00  0.00    -0.087 S 
ATOM     18  C   UNL     1       0.917   5.952 -15.415  0.00  0.00    -0.002 C 
ATOM     19  C   UNL     1       0.828   4.726 -14.876  0.00  0.00    -0.048 C 
ATOM     20  C   UNL     1       1.442   3.507 -15.355  0.00  0.00    -0.061 C 
ATOM     21  C   UNL     1       2.547   2.895 -14.895  0.00  0.00    -0.062 C 
ATOM     22  C   UNL     1       3.484   3.360 -13.888  0.00  0.00    -0.059 C 
ATOM     23  C   UNL     1       4.316   4.409 -14.017  0.00  0.00    -0.022 C 
ATOM     24  H   UNL     1       5.359   3.993 -20.757  0.00  0.00    +0.000 HD
ATOM     25  H   UNL     1       5.297   3.840 -16.292  0.00  0.00    +0.000 HD
ATOM     26  H   UNL     1       3.671   6.730 -14.107  0.00  0.00    +0.000 HD
ATOM     27  H   UNL     1       3.799   6.563 -19.337  0.00  0.00    +0.000 HD
ATOM     28  H   UNL     1       3.242   8.259 -20.660  0.00  0.00    +0.000 HD
ENDROOT
TORSDOF 0
ENDMDL
MODEL 4
REMARK VINA RESULT:    -5.888     18.075     20.669
REMARK INTER + INTRA:          -5.888
REMARK INTER:                  -5.888
REMARK INTRA:                   0.000
REMARK UNBOUND:                 0.000
REMARK  Name = /home/vital/Documents/PhD_2021/Malaria_codes/scripts/../data/pdbqt_ligands/ligand_143_temp.pdb
REMARK                            x       y       z     vdW  Elec       q    Type
REMARK                         _______ _______ _______ _____ _____    ______ ____
ROOT
ATOM      1  O   UNL     1       1.319  -6.309 -28.715  0.00  0.00    -0.393 OA
ATOM      2  C   UNL     1       2.069  -5.213 -29.231  0.00  0.00    +0.060 C 
ATOM      3  C   UNL     1       2.459  -5.405 -30.698  0.00  0.00    +0.034 C 
ATOM      4  N   UNL     1       3.349  -4.364 -31.176  0.00  0.00    -0.327 N 
ATOM      5  C   UNL     1       3.811  -4.223 -32.473  0.00  0.00    +0.116 C 
ATOM      6  N   UNL     1       3.782  -4.976 -33.517  0.00  0.00    -0.250 N 
ATOM      7  C   UNL     1       2.804  -6.056 -33.624  0.00  0.00    +0.110 C 
ATOM      8  N   UNL     1       1.419  -5.567 -33.900  0.00  0.00    -0.289 N 
ATOM      9  C   UNL     1       0.274  -6.398 -33.656  0.00  0.00    +0.023 C 
ATOM     10  C   UNL     1      -0.988  -5.921 -33.830  0.00  0.00    -0.043 C 
ATOM     11  C   UNL     1      -2.232  -6.629 -33.592  0.00  0.00    -0.045 C 
ATOM     12  C   UNL     1      -3.470  -6.251 -33.954  0.00  0.00    +0.033 C 
ATOM     13 CL   UNL     1      -3.775  -4.831 -34.908  0.00  0.00    -0.087 Cl
ATOM     14  C   UNL     1      -4.681  -7.081 -33.648  0.00  0.00    +0.058 C 
ATOM     15 CL   UNL     1      -5.781  -6.252 -32.519  0.00  0.00    -0.119 Cl
ATOM     16  C   UNL     1       0.502  -7.876 -33.282  0.00  0.00    +0.042 C 
ATOM     17  S   UNL     1       0.415  -8.132 -31.458  0.00  0.00    -0.087 S 
ATOM     18  C   UNL     1       1.344  -4.504 -34.812  0.00  0.00    -0.002 C 
ATOM     19  C   UNL     1       1.288  -3.175 -34.629  0.00  0.00    -0.048 C 
ATOM     20  C   UNL     1       1.169  -2.463 -33.375  0.00  0.00    -0.061 C 
ATOM     21  C   UNL     1       2.135  -1.842 -32.677  0.00  0.00    -0.062 C 
ATOM     22  C   UNL     1       3.566  -1.830 -32.927  0.00  0.00    -0.059 C 
ATOM     23  C   UNL     1       4.389  -2.887 -32.813  0.00  0.00    -0.022 C 
ATOM     24  H   UNL     1       1.097  -6.140 -27.786  0.00  0.00    +0.000 HD
ATOM     25  H   UNL     1       3.653  -3.698 -30.518  0.00  0.00    +0.000 HD
ATOM     26  H   UNL     1       4.423  -4.823 -34.248  0.00  0.00    +0.000 HD
ATOM     27  H   UNL     1       1.385  -7.397 -30.851  0.00  0.00    +0.000 HD
ATOM     28  H   UNL     1       0.601  -9.450 -31.176  0.00  0.00    +0.000 HD
ENDROOT
TORSDOF 0
ENDMDL
MODEL 5
REMARK VINA RESULT:    -5.866     17.073     19.659
REMARK INTER + INTRA:          -5.866
REMARK INTER:                  -5.866
REMARK INTRA:                   0.000
REMARK UNBOUND:                 0.000
REMARK  Name = /home/vital/Documents/PhD_2021/Malaria_codes/scripts/../data/pdbqt_ligands/ligand_143_temp.pdb
REMARK                            x       y       z     vdW  Elec       q    Type
REMARK                         _______ _______ _______ _____ _____    ______ ____
ROOT
ATOM      1  O   UNL     1      -1.553  -6.281 -28.568  0.00  0.00    -0.393 OA
ATOM      2  C   UNL     1      -1.639  -7.264 -29.595  0.00  0.00    +0.060 C 
ATOM      3  C   UNL     1      -1.446  -6.674 -30.994  0.00  0.00    +0.034 C 
ATOM      4  N   UNL     1      -1.684  -7.646 -32.044  0.00  0.00    -0.327 N 
ATOM      5  C   UNL     1      -1.515  -7.434 -33.401  0.00  0.00    +0.116 C 
ATOM      6  N   UNL     1      -1.312  -6.385 -34.121  0.00  0.00    -0.250 N 
ATOM      7  C   UNL     1      -0.776  -5.166 -33.521  0.00  0.00    +0.110 C 
ATOM      8  N   UNL     1       0.679  -5.263 -33.197  0.00  0.00    -0.289 N 
ATOM      9  C   UNL     1       1.297  -4.359 -32.269  0.00  0.00    +0.023 C 
ATOM     10  C   UNL     1       2.603  -4.502 -31.915  0.00  0.00    -0.043 C 
ATOM     11  C   UNL     1       3.348  -3.691 -30.969  0.00  0.00    -0.045 C 
ATOM     12  C   UNL     1       4.677  -3.684 -30.767  0.00  0.00    +0.033 C 
ATOM     13 CL   UNL     1       5.776  -4.622 -31.733  0.00  0.00    -0.087 Cl
ATOM     14  C   UNL     1       5.327  -2.790 -29.754  0.00  0.00    +0.058 C 
ATOM     15 CL   UNL     1       6.084  -3.722 -28.439  0.00  0.00    -0.119 Cl
ATOM     16  C   UNL     1       0.477  -3.161 -31.750  0.00  0.00    +0.042 C 
ATOM     17  S   UNL     1      -0.262  -3.514 -30.098  0.00  0.00    -0.087 S 
ATOM     18  C   UNL     1       1.450  -5.928 -34.162  0.00  0.00    -0.002 C 
ATOM     19  C   UNL     1       1.851  -7.206 -34.256  0.00  0.00    -0.048 C 
ATOM     20  C   UNL     1       1.678  -8.257 -33.278  0.00  0.00    -0.061 C 
ATOM     21  C   UNL     1       0.769  -9.247 -33.272  0.00  0.00    -0.062 C 
ATOM     22  C   UNL     1      -0.355  -9.446 -34.171  0.00  0.00    -0.059 C 
ATOM     23  C   UNL     1      -1.446  -8.664 -34.246  0.00  0.00    -0.022 C 
ATOM     24  H   UNL     1      -1.681  -6.703 -27.705  0.00  0.00    +0.000 HD
ATOM     25  H   UNL     1      -1.995  -8.537 -31.766  0.00  0.00    +0.000 HD
ATOM     26  H   UNL     1      -1.520  -6.406 -35.083  0.00  0.00    +0.000 HD
ATOM     27  H   UNL     1      -1.102  -4.579 -30.196  0.00  0.00    +0.000 HD
ATOM     28  H   UNL     1      -0.957  -2.426 -29.670  0.00  0.00    +0.000 HD
ENDROOT
TORSDOF 0
ENDMDL
MODEL 6
REMARK VINA RESULT:    -5.852     10.050     13.021
REMARK INTER + INTRA:          -5.852
REMARK INTER:                  -5.852
REMARK INTRA:                   0.000
REMARK UNBOUND:                 0.000
REMARK  Name = /home/vital/Documents/PhD_2021/Malaria_codes/scripts/../data/pdbqt_ligands/ligand_143_temp.pdb
REMARK                            x       y       z     vdW  Elec       q    Type
REMARK                         _______ _______ _______ _____ _____    ______ ____
ROOT
ATOM      1  O   UNL     1      -4.083   2.491 -23.891  0.00  0.00    -0.393 OA
ATOM      2  C   UNL     1      -3.079   2.162 -22.935  0.00  0.00    +0.060 C 
ATOM      3  C   UNL     1      -3.543   1.102 -21.934  0.00  0.00    +0.034 C 
ATOM      4  N   UNL     1      -2.579   0.880 -20.873  0.00  0.00    -0.327 N 
ATOM      5  C   UNL     1      -2.681  -0.066 -19.868  0.00  0.00    +0.116 C 
ATOM      6  N   UNL     1      -3.629  -0.836 -19.460  0.00  0.00    -0.250 N 
ATOM      7  C   UNL     1      -4.754  -1.154 -20.337  0.00  0.00    +0.110 C 
ATOM      8  N   UNL     1      -4.397  -2.119 -21.421  0.00  0.00    -0.289 N 
ATOM      9  C   UNL     1      -5.215  -2.257 -22.593  0.00  0.00    +0.023 C 
ATOM     10  C   UNL     1      -4.843  -3.075 -23.614  0.00  0.00    -0.043 C 
ATOM     11  C   UNL     1      -5.547  -3.288 -24.866  0.00  0.00    -0.045 C 
ATOM     12  C   UNL     1      -5.309  -4.239 -25.786  0.00  0.00    +0.033 C 
ATOM     13 CL   UNL     1      -4.126  -5.491 -25.555  0.00  0.00    -0.087 Cl
ATOM     14  C   UNL     1      -6.116  -4.353 -27.044  0.00  0.00    +0.058 C 
ATOM     15 CL   UNL     1      -5.129  -4.037 -28.493  0.00  0.00    -0.119 Cl
ATOM     16  C   UNL     1      -6.575  -1.532 -22.632  0.00  0.00    +0.042 C 
ATOM     17  S   UNL     1      -6.462   0.065 -23.547  0.00  0.00    -0.087 S 
ATOM     18  C   UNL     1      -3.544  -3.158 -21.023  0.00  0.00    -0.002 C 
ATOM     19  C   UNL     1      -2.210  -3.292 -21.089  0.00  0.00    -0.048 C 
ATOM     20  C   UNL     1      -1.266  -2.399 -21.726  0.00  0.00    -0.061 C 
ATOM     21  C   UNL     1      -0.471  -1.480 -21.150  0.00  0.00    -0.062 C 
ATOM     22  C   UNL     1      -0.443  -1.053 -19.762  0.00  0.00    -0.059 C 
ATOM     23  C   UNL     1      -1.415  -0.369 -19.133  0.00  0.00    -0.022 C 
ATOM     24  H   UNL     1      -3.741   3.164 -24.499  0.00  0.00    +0.000 HD
ATOM     25  H   UNL     1      -1.781   1.455 -20.867  0.00  0.00    +0.000 HD
ATOM     26  H   UNL     1      -3.596  -1.212 -18.551  0.00  0.00    +0.000 HD
ATOM     27  H   UNL     1      -5.574   0.884 -22.921  0.00  0.00    +0.000 HD
ATOM     28  H   UNL     1      -7.685   0.659 -23.575  0.00  0.00    +0.000 HD
ENDROOT
TORSDOF 0
ENDMDL
MODEL 7
REMARK VINA RESULT:    -5.829     17.336     19.961
REMARK INTER + INTRA:          -5.829
REMARK INTER:                  -5.829
REMARK INTRA:                   0.000
REMARK UNBOUND:                 0.000
REMARK  Name = /home/vital/Documents/PhD_2021/Malaria_codes/scripts/../data/pdbqt_ligands/ligand_143_temp.pdb
REMARK                            x       y       z     vdW  Elec       q    Type
REMARK                         _______ _______ _______ _____ _____    ______ ____
ROOT
ATOM      1  O   UNL     1      -1.271  -2.817 -34.541  0.00  0.00    -0.393 OA
ATOM      2  C   UNL     1      -1.880  -4.098 -34.410  0.00  0.00    +0.060 C 
ATOM      3  C   UNL     1      -0.858  -5.236 -34.391  0.00  0.00    +0.034 C 
ATOM      4  N   UNL     1      -1.484  -6.545 -34.412  0.00  0.00    -0.327 N 
ATOM      5  C   UNL     1      -0.829  -7.761 -34.325  0.00  0.00    +0.116 C 
ATOM      6  N   UNL     1       0.408  -8.114 -34.392  0.00  0.00    -0.250 N 
ATOM      7  C   UNL     1       1.470  -7.141 -34.150  0.00  0.00    +0.110 C 
ATOM      8  N   UNL     1       1.620  -6.782 -32.707  0.00  0.00    -0.289 N 
ATOM      9  C   UNL     1       2.309  -5.590 -32.303  0.00  0.00    +0.023 C 
ATOM     10  C   UNL     1       2.370  -5.225 -30.994  0.00  0.00    -0.043 C 
ATOM     11  C   UNL     1       2.999  -4.037 -30.446  0.00  0.00    -0.045 C 
ATOM     12  C   UNL     1       3.251  -3.769 -29.153  0.00  0.00    +0.033 C 
ATOM     13 CL   UNL     1       2.941  -4.912 -27.881  0.00  0.00    -0.087 Cl
ATOM     14  C   UNL     1       3.913  -2.497 -28.714  0.00  0.00    +0.058 C 
ATOM     15 CL   UNL     1       2.822  -1.489 -27.731  0.00  0.00    -0.119 Cl
ATOM     16  C   UNL     1       3.062  -4.776 -33.374  0.00  0.00    +0.042 C 
ATOM     17  S   UNL     1       2.054  -3.355 -33.976  0.00  0.00    -0.087 S 
ATOM     18  C   UNL     1       1.484  -7.860 -31.819  0.00  0.00    -0.002 C 
ATOM     19  C   UNL     1       0.428  -8.317 -31.127  0.00  0.00    -0.048 C 
ATOM     20  C   UNL     1      -0.885  -7.718 -31.026  0.00  0.00    -0.061 C 
ATOM     21  C   UNL     1      -2.011  -8.065 -31.673  0.00  0.00    -0.062 C 
ATOM     22  C   UNL     1      -2.177  -9.043 -32.734  0.00  0.00    -0.059 C 
ATOM     23  C   UNL     1      -1.686  -8.936 -33.982  0.00  0.00    -0.022 C 
ATOM     24  H   UNL     1      -1.957  -2.132 -34.548  0.00  0.00    +0.000 HD
ATOM     25  H   UNL     1      -2.464  -6.570 -34.496  0.00  0.00    +0.000 HD
ATOM     26  H   UNL     1       0.639  -9.046 -34.608  0.00  0.00    +0.000 HD
ATOM     27  H   UNL     1       0.907  -3.819 -34.540  0.00  0.00    +0.000 HD
ATOM     28  H   UNL     1       2.763  -2.655 -34.901  0.00  0.00    +0.000 HD
ENDROOT
TORSDOF 0
ENDMDL
MODEL 8
REMARK VINA RESULT:    -5.597     10.044     11.300
REMARK INTER + INTRA:          -5.597
REMARK INTER:                  -5.597
REMARK INTRA:                   0.000
REMARK UNBOUND:                 0.000
REMARK  Name = /home/vital/Documents/PhD_2021/Malaria_codes/scripts/../data/pdbqt_ligands/ligand_143_temp.pdb
REMARK                            x       y       z     vdW  Elec       q    Type
REMARK                         _______ _______ _______ _____ _____    ______ ____
ROOT
ATOM      1  O   UNL     1      -1.315   0.455 -25.757  0.00  0.00    -0.393 OA
ATOM      2  C   UNL     1      -2.553   0.373 -25.057  0.00  0.00    +0.060 C 
ATOM      3  C   UNL     1      -2.893  -1.055 -24.625  0.00  0.00    +0.034 C 
ATOM      4  N   UNL     1      -4.220  -1.161 -24.050  0.00  0.00    -0.327 N 
ATOM      5  C   UNL     1      -4.780  -2.301 -23.500  0.00  0.00    +0.116 C 
ATOM      6  N   UNL     1      -4.444  -3.544 -23.493  0.00  0.00    -0.250 N 
ATOM      7  C   UNL     1      -3.063  -3.940 -23.756  0.00  0.00    +0.110 C 
ATOM      8  N   UNL     1      -2.143  -3.654 -22.613  0.00  0.00    -0.289 N 
ATOM      9  C   UNL     1      -0.721  -3.596 -22.799  0.00  0.00    +0.023 C 
ATOM     10  C   UNL     1       0.107  -3.253 -21.774  0.00  0.00    -0.043 C 
ATOM     11  C   UNL     1       1.551  -3.122 -21.822  0.00  0.00    -0.045 C 
ATOM     12  C   UNL     1       2.395  -2.993 -20.784  0.00  0.00    +0.033 C 
ATOM     13 CL   UNL     1       1.865  -3.074 -19.130  0.00  0.00    -0.087 Cl
ATOM     14  C   UNL     1       3.878  -2.867 -20.969  0.00  0.00    +0.058 C 
ATOM     15 CL   UNL     1       4.478  -1.278 -20.435  0.00  0.00    -0.119 Cl
ATOM     16  C   UNL     1      -0.137  -4.022 -24.161  0.00  0.00    +0.042 C 
ATOM     17  S   UNL     1       0.196  -2.564 -25.239  0.00  0.00    -0.087 S 
ATOM     18  C   UNL     1      -2.684  -3.916 -21.346  0.00  0.00    -0.002 C 
ATOM     19  C   UNL     1      -3.301  -3.120 -20.458  0.00  0.00    -0.048 C 
ATOM     20  C   UNL     1      -3.473  -1.686 -20.533  0.00  0.00    -0.061 C 
ATOM     21  C   UNL     1      -4.569  -0.997 -20.897  0.00  0.00    -0.062 C 
ATOM     22  C   UNL     1      -5.820  -1.508 -21.431  0.00  0.00    -0.059 C 
ATOM     23  C   UNL     1      -5.980  -2.083 -22.637  0.00  0.00    -0.022 C 
ATOM     24  H   UNL     1      -1.146   1.376 -26.007  0.00  0.00    +0.000 HD
ATOM     25  H   UNL     1      -4.774  -0.346 -24.050  0.00  0.00    +0.000 HD
ATOM     26  H   UNL     1      -5.123  -4.233 -23.309  0.00  0.00    +0.000 HD
ATOM     27  H   UNL     1      -0.968  -1.901 -25.476  0.00  0.00    +0.000 HD
ATOM     28  H   UNL     1       0.728  -2.983 -26.418  0.00  0.00    +0.000 HD
ENDROOT
TORSDOF 0
ENDMDL
MODEL 9
REMARK VINA RESULT:    -5.509     12.049     14.850
REMARK INTER + INTRA:          -5.509
REMARK INTER:                  -5.509
REMARK INTRA:                   0.000
REMARK UNBOUND:                 0.000
REMARK  Name = /home/vital/Documents/PhD_2021/Malaria_codes/scripts/../data/pdbqt_ligands/ligand_143_temp.pdb
REMARK                            x       y       z     vdW  Elec       q    Type
REMARK                         _______ _______ _______ _____ _____    ______ ____
ROOT
ATOM      1  O   UNL     1       2.415  -0.173 -25.119  0.00  0.00    -0.393 OA
ATOM      2  C   UNL     1       3.681  -0.183 -24.465  0.00  0.00    +0.060 C 
ATOM      3  C   UNL     1       4.245  -1.595 -24.298  0.00  0.00    +0.034 C 
ATOM      4  N   UNL     1       5.457  -1.618 -23.499  0.00  0.00    -0.327 N 
ATOM      5  C   UNL     1       6.237  -2.731 -23.238  0.00  0.00    +0.116 C 
ATOM      6  N   UNL     1       6.074  -3.996 -23.417  0.00  0.00    -0.250 N 
ATOM      7  C   UNL     1       5.102  -4.488 -24.389  0.00  0.00    +0.110 C 
ATOM      8  N   UNL     1       5.548  -4.315 -25.805  0.00  0.00    -0.289 N 
ATOM      9  C   UNL     1       4.612  -4.361 -26.892  0.00  0.00    +0.023 C 
ATOM     10  C   UNL     1       5.011  -4.121 -28.170  0.00  0.00    -0.043 C 
ATOM     11  C   UNL     1       4.176  -4.100 -29.357  0.00  0.00    -0.045 C 
ATOM     12  C   UNL     1       4.579  -4.074 -30.639  0.00  0.00    +0.033 C 
ATOM     13 CL   UNL     1       6.253  -4.174 -31.097  0.00  0.00    -0.087 Cl
ATOM     14  C   UNL     1       3.609  -4.057 -31.783  0.00  0.00    +0.058 C 
ATOM     15 CL   UNL     1       3.706  -2.539 -32.709  0.00  0.00    -0.119 Cl
ATOM     16  C   UNL     1       3.159  -4.782 -26.595  0.00  0.00    +0.042 C 
ATOM     17  S   UNL     1       2.057  -3.316 -26.405  0.00  0.00    -0.087 S 
ATOM     18  C   UNL     1       6.908  -4.580 -26.025  0.00  0.00    -0.002 C 
ATOM     19  C   UNL     1       7.978  -3.771 -26.066  0.00  0.00    -0.048 C 
ATOM     20  C   UNL     1       7.993  -2.326 -26.003  0.00  0.00    -0.061 C 
ATOM     21  C   UNL     1       8.282  -1.542 -24.949  0.00  0.00    -0.062 C 
ATOM     22  C   UNL     1       8.527  -1.934 -23.573  0.00  0.00    -0.059 C 
ATOM     23  C   UNL     1       7.615  -2.451 -22.731  0.00  0.00    -0.022 C 
ATOM     24  H   UNL     1       2.101   0.741 -25.200  0.00  0.00    +0.000 HD
ATOM     25  H   UNL     1       5.749  -0.764 -23.107  0.00  0.00    +0.000 HD
ATOM     26  H   UNL     1       6.610  -4.636 -22.894  0.00  0.00    +0.000 HD
ATOM     27  H   UNL     1       2.488  -2.557 -25.363  0.00  0.00    +0.000 HD
ATOM     28  H   UNL     1       0.785  -3.733 -26.167  0.00  0.00    +0.000 HD
ENDROOT
TORSDOF 0
ENDMDL
