MODEL 1
REMARK VINA RESULT:    -6.925      0.000      0.000
REMARK INTER + INTRA:          -6.925
REMARK INTER:                  -6.925
REMARK INTRA:                   0.000
REMARK UNBOUND:                 0.000
REMARK  Name = /home/vital/Documents/PhD_2021/Malaria_codes/scripts/../data/pdbqt_ligands/ligand_352_temp.pdb
REMARK                            x       y       z     vdW  Elec       q    Type
REMARK                         _______ _______ _______ _____ _____    ______ ____
ROOT
ATOM      1  C   UNL     1       1.865   4.189 -16.576  0.00  0.00    -0.046 C 
ATOM      2  C   UNL     1       1.019   5.427 -16.896  0.00  0.00    +0.030 C 
ATOM      3  N   UNL     1       1.878   6.444 -17.517  0.00  0.00    -0.306 N 
ATOM      4  C   UNL     1       1.226   7.752 -17.593  0.00  0.00    +0.022 C 
ATOM      5  C   UNL     1       2.172   8.778 -18.175  0.00  0.00    -0.033 A 
ATOM      6  C   UNL     1       2.714   9.791 -17.373  0.00  0.00    -0.057 A 
ATOM      7  C   UNL     1       3.596  10.726 -17.915  0.00  0.00    -0.061 A 
ATOM      8  C   UNL     1       3.947  10.658 -19.263  0.00  0.00    -0.050 A 
ATOM      9  C   UNL     1       3.416   9.656 -20.088  0.00  0.00    +0.055 A 
ATOM     10  C   UNL     1       3.816   9.561 -21.539  0.00  0.00    +0.417 C 
ATOM     11  F   UNL     1       2.831   9.064 -22.337  0.00  0.00    -0.166 F 
ATOM     12  F   UNL     1       4.156  10.765 -22.080  0.00  0.00    -0.166 F 
ATOM     13  F   UNL     1       4.895   8.751 -21.728  0.00  0.00    -0.166 F 
ATOM     14  C   UNL     1       2.535   8.715 -19.529  0.00  0.00    -0.046 A 
ATOM     15  C   UNL     1      -0.157   5.037 -17.774  0.00  0.00    -0.028 A 
ATOM     16  C   UNL     1      -1.457   5.006 -17.241  0.00  0.00    -0.057 A 
ATOM     17  C   UNL     1      -2.548   4.642 -18.036  0.00  0.00    -0.059 A 
ATOM     18  C   UNL     1      -2.352   4.303 -19.373  0.00  0.00    -0.026 A 
ATOM     19  C   UNL     1      -1.068   4.330 -19.904  0.00  0.00    +0.124 A 
ATOM     20  F   UNL     1      -0.881   4.002 -21.190  0.00  0.00    -0.205 F 
ATOM     21  C   UNL     1       0.023   4.689 -19.122  0.00  0.00    -0.022 A 
ATOM     22  H   UNL     1       2.115   6.140 -18.462  0.00  0.00    +0.000 HD
ATOM     23  H   UNL     1       2.712   6.545 -16.939  0.00  0.00    +0.000 HD
ENDROOT
TORSDOF 0
ENDMDL
MODEL 2
REMARK VINA RESULT:    -6.763     16.080     17.911
REMARK INTER + INTRA:          -6.763
REMARK INTER:                  -6.763
REMARK INTRA:                   0.000
REMARK UNBOUND:                 0.000
REMARK  Name = /home/vital/Documents/PhD_2021/Malaria_codes/scripts/../data/pdbqt_ligands/ligand_352_temp.pdb
REMARK                            x       y       z     vdW  Elec       q    Type
REMARK                         _______ _______ _______ _____ _____    ______ ____
ROOT
ATOM      1  C   UNL     1       1.288  -6.011 -31.815  0.00  0.00    -0.046 C 
ATOM      2  C   UNL     1       2.028  -5.199 -32.885  0.00  0.00    +0.030 C 
ATOM      3  N   UNL     1       1.200  -4.044 -33.264  0.00  0.00    -0.306 N 
ATOM      4  C   UNL     1       1.692  -3.380 -34.471  0.00  0.00    +0.022 C 
ATOM      5  C   UNL     1       0.771  -2.246 -34.859  0.00  0.00    -0.033 A 
ATOM      6  C   UNL     1      -0.043  -2.338 -35.995  0.00  0.00    -0.057 A 
ATOM      7  C   UNL     1      -0.899  -1.291 -36.339  0.00  0.00    -0.061 A 
ATOM      8  C   UNL     1      -0.952  -0.142 -35.550  0.00  0.00    -0.050 A 
ATOM      9  C   UNL     1      -0.145  -0.024 -34.409  0.00  0.00    +0.055 A 
ATOM     10  C   UNL     1      -0.221   1.204 -33.537  0.00  0.00    +0.417 C 
ATOM     11  F   UNL     1       0.961   1.508 -32.932  0.00  0.00    -0.166 F 
ATOM     12  F   UNL     1      -0.584   2.325 -34.222  0.00  0.00    -0.166 F 
ATOM     13  F   UNL     1      -1.133   1.072 -32.533  0.00  0.00    -0.166 F 
ATOM     14  C   UNL     1       0.707  -1.087 -34.069  0.00  0.00    -0.046 A 
ATOM     15  C   UNL     1       3.398  -4.793 -32.371  0.00  0.00    -0.028 A 
ATOM     16  C   UNL     1       4.554  -5.414 -32.877  0.00  0.00    -0.057 A 
ATOM     17  C   UNL     1       5.822  -5.055 -32.409  0.00  0.00    -0.059 A 
ATOM     18  C   UNL     1       5.949  -4.074 -31.428  0.00  0.00    -0.026 A 
ATOM     19  C   UNL     1       4.810  -3.460 -30.923  0.00  0.00    +0.124 A 
ATOM     20  F   UNL     1       4.934  -2.517 -29.979  0.00  0.00    -0.205 F 
ATOM     21  C   UNL     1       3.545  -3.810 -31.381  0.00  0.00    -0.022 A 
ATOM     22  H   UNL     1       1.203  -3.373 -32.495  0.00  0.00    +0.000 HD
ATOM     23  H   UNL     1       0.259  -4.385 -33.457  0.00  0.00    +0.000 HD
ENDROOT
TORSDOF 0
ENDMDL
MODEL 3
REMARK VINA RESULT:    -6.680      4.614      8.983
REMARK INTER + INTRA:          -6.680
REMARK INTER:                  -6.680
REMARK INTRA:                   0.000
REMARK UNBOUND:                 0.000
REMARK  Name = /home/vital/Documents/PhD_2021/Malaria_codes/scripts/../data/pdbqt_ligands/ligand_352_temp.pdb
REMARK                            x       y       z     vdW  Elec       q    Type
REMARK                         _______ _______ _______ _____ _____    ______ ____
ROOT
ATOM      1  C   UNL     1       2.040   2.751 -16.321  0.00  0.00    -0.046 C 
ATOM      2  C   UNL     1       1.587   2.910 -17.777  0.00  0.00    +0.030 C 
ATOM      3  N   UNL     1       0.782   1.740 -18.157  0.00  0.00    -0.306 N 
ATOM      4  C   UNL     1       0.550   1.671 -19.600  0.00  0.00    +0.022 C 
ATOM      5  C   UNL     1      -0.219   0.416 -19.948  0.00  0.00    -0.033 A 
ATOM      6  C   UNL     1       0.399  -0.641 -20.627  0.00  0.00    -0.057 A 
ATOM      7  C   UNL     1      -0.315  -1.800 -20.932  0.00  0.00    -0.061 A 
ATOM      8  C   UNL     1      -1.656  -1.914 -20.562  0.00  0.00    -0.050 A 
ATOM      9  C   UNL     1      -2.299  -0.868 -19.885  0.00  0.00    +0.055 A 
ATOM     10  C   UNL     1      -3.739  -1.000 -19.456  0.00  0.00    +0.417 C 
ATOM     11  F   UNL     1      -4.407   0.187 -19.444  0.00  0.00    -0.166 F 
ATOM     12  F   UNL     1      -4.464  -1.823 -20.266  0.00  0.00    -0.166 F 
ATOM     13  F   UNL     1      -3.862  -1.512 -18.201  0.00  0.00    -0.166 F 
ATOM     14  C   UNL     1      -1.567   0.290 -19.575  0.00  0.00    -0.046 A 
ATOM     15  C   UNL     1       0.833   4.219 -17.944  0.00  0.00    -0.028 A 
ATOM     16  C   UNL     1       1.430   5.295 -18.623  0.00  0.00    -0.057 A 
ATOM     17  C   UNL     1       0.750   6.508 -18.779  0.00  0.00    -0.059 A 
ATOM     18  C   UNL     1      -0.532   6.659 -18.254  0.00  0.00    -0.026 A 
ATOM     19  C   UNL     1      -1.125   5.598 -17.580  0.00  0.00    +0.124 A 
ATOM     20  F   UNL     1      -2.357   5.745 -17.075  0.00  0.00    -0.205 F 
ATOM     21  C   UNL     1      -0.457   4.389 -17.419  0.00  0.00    -0.022 A 
ATOM     22  H   UNL     1      -0.119   1.794 -17.682  0.00  0.00    +0.000 HD
ATOM     23  H   UNL     1       1.298   0.905 -17.883  0.00  0.00    +0.000 HD
ENDROOT
TORSDOF 0
ENDMDL
MODEL 4
REMARK VINA RESULT:    -6.382      8.971     10.322
REMARK INTER + INTRA:          -6.382
REMARK INTER:                  -6.382
REMARK INTRA:                   0.000
REMARK UNBOUND:                 0.000
REMARK  Name = /home/vital/Documents/PhD_2021/Malaria_codes/scripts/../data/pdbqt_ligands/ligand_352_temp.pdb
REMARK                            x       y       z     vdW  Elec       q    Type
REMARK                         _______ _______ _______ _____ _____    ______ ____
ROOT
ATOM      1  C   UNL     1      -3.258  -1.524 -18.127  0.00  0.00    -0.046 C 
ATOM      2  C   UNL     1      -2.421  -1.000 -19.300  0.00  0.00    +0.030 C 
ATOM      3  N   UNL     1      -1.006  -1.310 -19.051  0.00  0.00    -0.306 N 
ATOM      4  C   UNL     1      -0.112  -0.602 -19.969  0.00  0.00    +0.022 C 
ATOM      5  C   UNL     1       1.331  -0.898 -19.629  0.00  0.00    -0.033 A 
ATOM      6  C   UNL     1       2.152   0.085 -19.063  0.00  0.00    -0.057 A 
ATOM      7  C   UNL     1       3.480  -0.200 -18.741  0.00  0.00    -0.061 A 
ATOM      8  C   UNL     1       4.000  -1.473 -18.981  0.00  0.00    -0.050 A 
ATOM      9  C   UNL     1       3.200  -2.474 -19.551  0.00  0.00    +0.055 A 
ATOM     10  C   UNL     1       3.749  -3.858 -19.784  0.00  0.00    +0.417 C 
ATOM     11  F   UNL     1       3.197  -4.482 -20.862  0.00  0.00    -0.166 F 
ATOM     12  F   UNL     1       5.095  -3.869 -20.001  0.00  0.00    -0.166 F 
ATOM     13  F   UNL     1       3.538  -4.687 -18.723  0.00  0.00    -0.166 F 
ATOM     14  C   UNL     1       1.863  -2.176 -19.863  0.00  0.00    -0.046 A 
ATOM     15  C   UNL     1      -2.929  -1.589 -20.604  0.00  0.00    -0.028 A 
ATOM     16  C   UNL     1      -3.640  -0.786 -21.512  0.00  0.00    -0.057 A 
ATOM     17  C   UNL     1      -4.120  -1.317 -22.714  0.00  0.00    -0.059 A 
ATOM     18  C   UNL     1      -3.898  -2.658 -23.019  0.00  0.00    -0.026 A 
ATOM     19  C   UNL     1      -3.198  -3.457 -22.124  0.00  0.00    +0.124 A 
ATOM     20  F   UNL     1      -2.985  -4.746 -22.418  0.00  0.00    -0.205 F 
ATOM     21  C   UNL     1      -2.717  -2.939 -20.926  0.00  0.00    -0.022 A 
ATOM     22  H   UNL     1      -0.865  -2.314 -19.166  0.00  0.00    +0.000 HD
ATOM     23  H   UNL     1      -0.782  -1.009 -18.103  0.00  0.00    +0.000 HD
ENDROOT
TORSDOF 0
ENDMDL
MODEL 5
REMARK VINA RESULT:    -6.338     11.684     13.781
REMARK INTER + INTRA:          -6.338
REMARK INTER:                  -6.338
REMARK INTRA:                   0.000
REMARK UNBOUND:                 0.000
REMARK  Name = /home/vital/Documents/PhD_2021/Malaria_codes/scripts/../data/pdbqt_ligands/ligand_352_temp.pdb
REMARK                            x       y       z     vdW  Elec       q    Type
REMARK                         _______ _______ _______ _____ _____    ______ ____
ROOT
ATOM      1  C   UNL     1       6.287  -5.410 -26.556  0.00  0.00    -0.046 C 
ATOM      2  C   UNL     1       5.803  -4.026 -26.108  0.00  0.00    +0.030 C 
ATOM      3  N   UNL     1       4.921  -4.182 -24.943  0.00  0.00    -0.306 N 
ATOM      4  C   UNL     1       4.192  -2.953 -24.629  0.00  0.00    +0.022 C 
ATOM      5  C   UNL     1       3.249  -3.184 -23.470  0.00  0.00    -0.033 A 
ATOM      6  C   UNL     1       1.862  -3.215 -23.667  0.00  0.00    -0.057 A 
ATOM      7  C   UNL     1       1.000  -3.441 -22.594  0.00  0.00    -0.061 A 
ATOM      8  C   UNL     1       1.514  -3.640 -21.312  0.00  0.00    -0.050 A 
ATOM      9  C   UNL     1       2.898  -3.610 -21.087  0.00  0.00    +0.055 A 
ATOM     10  C   UNL     1       3.459  -3.854 -19.709  0.00  0.00    +0.417 C 
ATOM     11  F   UNL     1       4.620  -3.181 -19.474  0.00  0.00    -0.166 F 
ATOM     12  F   UNL     1       2.608  -3.479 -18.712  0.00  0.00    -0.166 F 
ATOM     13  F   UNL     1       3.736  -5.169 -19.486  0.00  0.00    -0.166 F 
ATOM     14  C   UNL     1       3.756  -3.389 -22.177  0.00  0.00    -0.046 A 
ATOM     15  C   UNL     1       6.995  -3.128 -25.824  0.00  0.00    -0.028 A 
ATOM     16  C   UNL     1       7.320  -2.085 -26.709  0.00  0.00    -0.057 A 
ATOM     17  C   UNL     1       8.418  -1.255 -26.464  0.00  0.00    -0.059 A 
ATOM     18  C   UNL     1       9.206  -1.459 -25.333  0.00  0.00    -0.026 A 
ATOM     19  C   UNL     1       8.890  -2.491 -24.457  0.00  0.00    +0.124 A 
ATOM     20  F   UNL     1       9.649  -2.687 -23.370  0.00  0.00    -0.205 F 
ATOM     21  C   UNL     1       7.801  -3.322 -24.692  0.00  0.00    -0.022 A 
ATOM     22  H   UNL     1       5.488  -4.444 -24.136  0.00  0.00    +0.000 HD
ATOM     23  H   UNL     1       4.235  -4.903 -25.166  0.00  0.00    +0.000 HD
ENDROOT
TORSDOF 0
ENDMDL
MODEL 6
REMARK VINA RESULT:    -6.338     14.157     16.488
REMARK INTER + INTRA:          -6.338
REMARK INTER:                  -6.338
REMARK INTRA:                   0.000
REMARK UNBOUND:                 0.000
REMARK  Name = /home/vital/Documents/PhD_2021/Malaria_codes/scripts/../data/pdbqt_ligands/ligand_352_temp.pdb
REMARK                            x       y       z     vdW  Elec       q    Type
REMARK                         _______ _______ _______ _____ _____    ______ ____
ROOT
ATOM      1  C   UNL     1       0.794  -6.696 -30.700  0.00  0.00    -0.046 C 
ATOM      2  C   UNL     1       1.271  -5.289 -30.319  0.00  0.00    +0.030 C 
ATOM      3  N   UNL     1       2.115  -5.381 -29.118  0.00  0.00    -0.306 N 
ATOM      4  C   UNL     1       2.377  -4.070 -28.522  0.00  0.00    +0.022 C 
ATOM      5  C   UNL     1       3.187  -4.223 -27.255  0.00  0.00    -0.033 A 
ATOM      6  C   UNL     1       2.611  -3.984 -26.001  0.00  0.00    -0.057 A 
ATOM      7  C   UNL     1       3.363  -4.139 -24.835  0.00  0.00    -0.061 A 
ATOM      8  C   UNL     1       4.698  -4.536 -24.911  0.00  0.00    -0.050 A 
ATOM      9  C   UNL     1       5.299  -4.779 -26.155  0.00  0.00    +0.055 A 
ATOM     10  C   UNL     1       6.733  -5.237 -26.240  0.00  0.00    +0.417 C 
ATOM     11  F   UNL     1       7.369  -4.811 -27.367  0.00  0.00    -0.166 F 
ATOM     12  F   UNL     1       7.497  -4.800 -25.198  0.00  0.00    -0.166 F 
ATOM     13  F   UNL     1       6.846  -6.595 -26.238  0.00  0.00    -0.166 F 
ATOM     14  C   UNL     1       4.530  -4.627 -27.320  0.00  0.00    -0.046 A 
ATOM     15  C   UNL     1       1.992  -4.651 -31.494  0.00  0.00    -0.028 A 
ATOM     16  C   UNL     1       1.381  -3.614 -32.218  0.00  0.00    -0.057 A 
ATOM     17  C   UNL     1       2.030  -3.022 -33.307  0.00  0.00    -0.059 A 
ATOM     18  C   UNL     1       3.297  -3.462 -33.685  0.00  0.00    -0.026 A 
ATOM     19  C   UNL     1       3.904  -4.490 -32.973  0.00  0.00    +0.124 A 
ATOM     20  F   UNL     1       5.122  -4.913 -33.337  0.00  0.00    -0.205 F 
ATOM     21  C   UNL     1       3.267  -5.085 -31.890  0.00  0.00    -0.022 A 
ATOM     22  H   UNL     1       3.005  -5.809 -29.375  0.00  0.00    +0.000 HD
ATOM     23  H   UNL     1       1.616  -5.943 -28.429  0.00  0.00    +0.000 HD
ENDROOT
TORSDOF 0
ENDMDL
MODEL 7
REMARK VINA RESULT:    -6.270     10.582     12.402
REMARK INTER + INTRA:          -6.270
REMARK INTER:                  -6.270
REMARK INTRA:                   0.000
REMARK UNBOUND:                 0.000
REMARK  Name = /home/vital/Documents/PhD_2021/Malaria_codes/scripts/../data/pdbqt_ligands/ligand_352_temp.pdb
REMARK                            x       y       z     vdW  Elec       q    Type
REMARK                         _______ _______ _______ _____ _____    ______ ____
ROOT
ATOM      1  C   UNL     1       3.823  -4.381 -19.405  0.00  0.00    -0.046 C 
ATOM      2  C   UNL     1       3.972  -3.212 -20.387  0.00  0.00    +0.030 C 
ATOM      3  N   UNL     1       4.935  -3.588 -21.432  0.00  0.00    -0.306 N 
ATOM      4  C   UNL     1       5.353  -2.441 -22.240  0.00  0.00    +0.022 C 
ATOM      5  C   UNL     1       6.393  -2.864 -23.253  0.00  0.00    -0.033 A 
ATOM      6  C   UNL     1       7.728  -2.463 -23.121  0.00  0.00    -0.057 A 
ATOM      7  C   UNL     1       8.684  -2.868 -24.053  0.00  0.00    -0.061 A 
ATOM      8  C   UNL     1       8.315  -3.680 -25.127  0.00  0.00    -0.050 A 
ATOM      9  C   UNL     1       6.984  -4.092 -25.283  0.00  0.00    +0.055 A 
ATOM     10  C   UNL     1       6.587  -4.993 -26.425  0.00  0.00    +0.417 C 
ATOM     11  F   UNL     1       5.312  -4.786 -26.856  0.00  0.00    -0.166 F 
ATOM     12  F   UNL     1       7.377  -4.841 -27.526  0.00  0.00    -0.166 F 
ATOM     13  F   UNL     1       6.661  -6.313 -26.095  0.00  0.00    -0.166 F 
ATOM     14  C   UNL     1       6.033  -3.684 -24.334  0.00  0.00    -0.046 A 
ATOM     15  C   UNL     1       2.614  -2.833 -20.951  0.00  0.00    -0.028 A 
ATOM     16  C   UNL     1       1.986  -1.644 -20.539  0.00  0.00    -0.057 A 
ATOM     17  C   UNL     1       0.732  -1.286 -21.045  0.00  0.00    -0.059 A 
ATOM     18  C   UNL     1       0.091  -2.112 -21.966  0.00  0.00    -0.026 A 
ATOM     19  C   UNL     1       0.707  -3.289 -22.373  0.00  0.00    +0.124 A 
ATOM     20  F   UNL     1       0.089  -4.083 -23.258  0.00  0.00    -0.205 F 
ATOM     21  C   UNL     1       1.953  -3.655 -21.876  0.00  0.00    -0.022 A 
ATOM     22  H   UNL     1       4.502  -4.280 -22.043  0.00  0.00    +0.000 HD
ATOM     23  H   UNL     1       5.764  -3.963 -20.972  0.00  0.00    +0.000 HD
ENDROOT
TORSDOF 0
ENDMDL
MODEL 8
REMARK VINA RESULT:    -6.261     10.060     12.449
REMARK INTER + INTRA:          -6.261
REMARK INTER:                  -6.261
REMARK INTRA:                   0.000
REMARK UNBOUND:                 0.000
REMARK  Name = /home/vital/Documents/PhD_2021/Malaria_codes/scripts/../data/pdbqt_ligands/ligand_352_temp.pdb
REMARK                            x       y       z     vdW  Elec       q    Type
REMARK                         _______ _______ _______ _____ _____    ______ ____
ROOT
ATOM      1  C   UNL     1      -4.319   0.515 -26.700  0.00  0.00    -0.046 C 
ATOM      2  C   UNL     1      -5.252  -0.373 -25.868  0.00  0.00    +0.030 C 
ATOM      3  N   UNL     1      -4.565  -0.753 -24.625  0.00  0.00    -0.306 N 
ATOM      4  C   UNL     1      -5.262  -1.822 -23.909  0.00  0.00    +0.022 C 
ATOM      5  C   UNL     1      -4.482  -2.224 -22.677  0.00  0.00    -0.033 A 
ATOM      6  C   UNL     1      -3.826  -3.460 -22.614  0.00  0.00    -0.057 A 
ATOM      7  C   UNL     1      -3.098  -3.818 -21.478  0.00  0.00    -0.061 A 
ATOM      8  C   UNL     1      -3.017  -2.943 -20.395  0.00  0.00    -0.050 A 
ATOM      9  C   UNL     1      -3.668  -1.701 -20.432  0.00  0.00    +0.055 A 
ATOM     10  C   UNL     1      -3.558  -0.740 -19.275  0.00  0.00    +0.417 C 
ATOM     11  F   UNL     1      -4.665   0.038 -19.114  0.00  0.00    -0.166 F 
ATOM     12  F   UNL     1      -3.370  -1.364 -18.077  0.00  0.00    -0.166 F 
ATOM     13  F   UNL     1      -2.511   0.121 -19.412  0.00  0.00    -0.166 F 
ATOM     14  C   UNL     1      -4.390  -1.349 -21.583  0.00  0.00    -0.046 A 
ATOM     15  C   UNL     1      -6.564   0.348 -25.615  0.00  0.00    -0.028 A 
ATOM     16  C   UNL     1      -7.732  -0.057 -26.284  0.00  0.00    -0.057 A 
ATOM     17  C   UNL     1      -8.946   0.603 -26.067  0.00  0.00    -0.059 A 
ATOM     18  C   UNL     1      -9.006   1.675 -25.180  0.00  0.00    -0.026 A 
ATOM     19  C   UNL     1      -7.854   2.080 -24.517  0.00  0.00    +0.124 A 
ATOM     20  F   UNL     1      -7.912   3.112 -23.665  0.00  0.00    -0.205 F 
ATOM     21  C   UNL     1      -6.642   1.432 -24.728  0.00  0.00    -0.022 A 
ATOM     22  H   UNL     1      -4.509   0.066 -24.018  0.00  0.00    +0.000 HD
ATOM     23  H   UNL     1      -3.637  -1.096 -24.873  0.00  0.00    +0.000 HD
ENDROOT
TORSDOF 0
ENDMDL
MODEL 9
REMARK VINA RESULT:    -5.875     10.512     12.304
REMARK INTER + INTRA:          -5.875
REMARK INTER:                  -5.875
REMARK INTRA:                   0.000
REMARK UNBOUND:                 0.000
REMARK  Name = /home/vital/Documents/PhD_2021/Malaria_codes/scripts/../data/pdbqt_ligands/ligand_352_temp.pdb
REMARK                            x       y       z     vdW  Elec       q    Type
REMARK                         _______ _______ _______ _____ _____    ______ ____
ROOT
ATOM      1  C   UNL     1       1.329  -2.209 -23.766  0.00  0.00    -0.046 C 
ATOM      2  C   UNL     1       2.333  -3.164 -23.110  0.00  0.00    +0.030 C 
ATOM      3  N   UNL     1       3.591  -3.127 -23.869  0.00  0.00    -0.306 N 
ATOM      4  C   UNL     1       4.501  -4.210 -23.490  0.00  0.00    +0.022 C 
ATOM      5  C   UNL     1       5.747  -4.172 -24.345  0.00  0.00    -0.033 A 
ATOM      6  C   UNL     1       5.983  -5.154 -25.315  0.00  0.00    -0.057 A 
ATOM      7  C   UNL     1       7.130  -5.105 -26.108  0.00  0.00    -0.061 A 
ATOM      8  C   UNL     1       8.053  -4.071 -25.941  0.00  0.00    -0.050 A 
ATOM      9  C   UNL     1       7.842  -3.077 -24.974  0.00  0.00    +0.055 A 
ATOM     10  C   UNL     1       8.821  -1.943 -24.811  0.00  0.00    +0.417 C 
ATOM     11  F   UNL     1       8.899  -1.479 -23.532  0.00  0.00    -0.166 F 
ATOM     12  F   UNL     1      10.095  -2.282 -25.158  0.00  0.00    -0.166 F 
ATOM     13  F   UNL     1       8.502  -0.865 -25.581  0.00  0.00    -0.166 F 
ATOM     14  C   UNL     1       6.679  -3.134 -24.188  0.00  0.00    -0.046 A 
ATOM     15  C   UNL     1       2.520  -2.794 -21.648  0.00  0.00    -0.028 A 
ATOM     16  C   UNL     1       1.976  -3.607 -20.640  0.00  0.00    -0.057 A 
ATOM     17  C   UNL     1       2.134  -3.276 -19.290  0.00  0.00    -0.059 A 
ATOM     18  C   UNL     1       2.837  -2.126 -18.934  0.00  0.00    -0.026 A 
ATOM     19  C   UNL     1       3.375  -1.318 -19.928  0.00  0.00    +0.124 A 
ATOM     20  F   UNL     1       4.049  -0.213 -19.584  0.00  0.00    -0.205 F 
ATOM     21  C   UNL     1       3.222  -1.638 -21.272  0.00  0.00    -0.022 A 
ATOM     22  H   UNL     1       4.054  -2.234 -23.695  0.00  0.00    +0.000 HD
ATOM     23  H   UNL     1       3.364  -3.243 -24.856  0.00  0.00    +0.000 HD
ENDROOT
TORSDOF 0
ENDMDL
