MODEL 1
REMARK VINA RESULT:    -5.714      0.000      0.000
REMARK INTER + INTRA:          -5.714
REMARK INTER:                  -5.714
REMARK INTRA:                   0.000
REMARK UNBOUND:                 0.000
REMARK  Name = /home/vital/Documents/PhD_2021/Malaria_codes/scripts/../data/pdbqt_ligands/ligand_245_temp.pdb
REMARK                            x       y       z     vdW  Elec       q    Type
REMARK                         _______ _______ _______ _____ _____    ______ ____
ROOT
ATOM      1  C1  UNL     1       2.626  -3.031 -19.425  0.00  0.00    -0.055 C 
ATOM      2  C2  UNL     1       2.718  -4.302 -20.246  0.00  0.00    +0.043 C 
ATOM      3  C3  UNL     1       4.072  -4.423 -20.899  0.00  0.00    +0.312 C 
ATOM      4  O1  UNL     1       4.978  -5.126 -20.472  0.00  0.00    -0.250 OA
ATOM      5  O2  UNL     1       4.108  -3.609 -22.026  0.00  0.00    -0.426 OA
ATOM      6  C4  UNL     1       5.328  -3.622 -22.709  0.00  0.00    +0.135 A 
ATOM      7  C5  UNL     1       5.728  -4.749 -23.430  0.00  0.00    -0.018 A 
ATOM      8  C6  UNL     1       6.931  -4.720 -24.143  0.00  0.00    -0.048 A 
ATOM      9  C7  UNL     1       7.714  -3.563 -24.143  0.00  0.00    +0.018 A 
ATOM     10  C8  UNL     1       8.973  -3.485 -24.866  0.00  0.00    -0.044 A 
ATOM     11  C9  UNL     1       9.680  -2.352 -24.838  0.00  0.00    +0.024 A 
ATOM     12  C10 UNL     1       9.234  -1.159 -24.099  0.00  0.00    +0.337 A 
ATOM     13  O3  UNL     1       9.907  -0.134 -24.102  0.00  0.00    -0.245 OA
ATOM     14  O4  UNL     1       8.031  -1.255 -23.413  0.00  0.00    -0.422 OA
ATOM     15  C11 UNL     1       7.277  -2.446 -23.430  0.00  0.00    +0.143 A 
ATOM     16  C12 UNL     1       6.084  -2.454 -22.713  0.00  0.00    +0.024 A 
ENDROOT
TORSDOF 0
ENDMDL
MODEL 2
REMARK VINA RESULT:    -5.617      1.857      6.215
REMARK INTER + INTRA:          -5.617
REMARK INTER:                  -5.617
REMARK INTRA:                   0.000
REMARK UNBOUND:                 0.000
REMARK  Name = /home/vital/Documents/PhD_2021/Malaria_codes/scripts/../data/pdbqt_ligands/ligand_245_temp.pdb
REMARK                            x       y       z     vdW  Elec       q    Type
REMARK                         _______ _______ _______ _____ _____    ______ ____
ROOT
ATOM      1  C1  UNL     1      11.439   0.933 -25.397  0.00  0.00    -0.055 C 
ATOM      2  C2  UNL     1      11.171  -0.165 -26.406  0.00  0.00    +0.043 C 
ATOM      3  C3  UNL     1       9.874  -0.871 -26.101  0.00  0.00    +0.312 C 
ATOM      4  O1  UNL     1       8.821  -0.650 -26.683  0.00  0.00    -0.250 OA
ATOM      5  O2  UNL     1      10.081  -1.776 -25.065  0.00  0.00    -0.426 OA
ATOM      6  C4  UNL     1       8.938  -2.481 -24.677  0.00  0.00    +0.135 A 
ATOM      7  C5  UNL     1       8.388  -3.459 -25.509  0.00  0.00    -0.018 A 
ATOM      8  C6  UNL     1       7.272  -4.183 -25.078  0.00  0.00    -0.048 A 
ATOM      9  C7  UNL     1       6.725  -3.936 -23.816  0.00  0.00    +0.018 A 
ATOM     10  C8  UNL     1       5.564  -4.660 -23.325  0.00  0.00    -0.044 A 
ATOM     11  C9  UNL     1       5.085  -4.389 -22.107  0.00  0.00    +0.024 A 
ATOM     12  C10 UNL     1       5.690  -3.376 -21.226  0.00  0.00    +0.337 A 
ATOM     13  O3  UNL     1       5.227  -3.159 -20.112  0.00  0.00    -0.245 OA
ATOM     14  O4  UNL     1       6.796  -2.695 -21.715  0.00  0.00    -0.422 OA
ATOM     15  C11 UNL     1       7.310  -2.967 -22.999  0.00  0.00    +0.143 A 
ATOM     16  C12 UNL     1       8.420  -2.234 -23.410  0.00  0.00    +0.024 A 
ENDROOT
TORSDOF 0
ENDMDL
MODEL 3
REMARK VINA RESULT:    -5.531      5.123      8.174
REMARK INTER + INTRA:          -5.531
REMARK INTER:                  -5.531
REMARK INTRA:                   0.000
REMARK UNBOUND:                 0.000
REMARK  Name = /home/vital/Documents/PhD_2021/Malaria_codes/scripts/../data/pdbqt_ligands/ligand_245_temp.pdb
REMARK                            x       y       z     vdW  Elec       q    Type
REMARK                         _______ _______ _______ _____ _____    ______ ____
ROOT
ATOM      1  C1  UNL     1       8.845  -3.005 -25.283  0.00  0.00    -0.055 C 
ATOM      2  C2  UNL     1       9.216  -1.992 -24.219  0.00  0.00    +0.043 C 
ATOM      3  C3  UNL     1       9.517  -0.650 -24.835  0.00  0.00    +0.312 C 
ATOM      4  O1  UNL     1       8.727   0.285 -24.860  0.00  0.00    -0.250 OA
ATOM      5  O2  UNL     1      10.803  -0.669 -25.364  0.00  0.00    -0.426 OA
ATOM      6  C4  UNL     1      11.191   0.522 -25.985  0.00  0.00    +0.135 A 
ATOM      7  C5  UNL     1      11.450   1.667 -25.228  0.00  0.00    -0.018 A 
ATOM      8  C6  UNL     1      11.881   2.833 -25.869  0.00  0.00    -0.048 A 
ATOM      9  C7  UNL     1      12.066   2.841 -27.254  0.00  0.00    +0.018 A 
ATOM     10  C8  UNL     1      12.510   4.029 -27.965  0.00  0.00    -0.044 A 
ATOM     11  C9  UNL     1      12.677   3.980 -29.290  0.00  0.00    +0.024 A 
ATOM     12  C10 UNL     1      12.430   2.758 -30.074  0.00  0.00    +0.337 A 
ATOM     13  O3  UNL     1      12.601   2.750 -31.288  0.00  0.00    -0.245 OA
ATOM     14  O4  UNL     1      12.004   1.637 -29.376  0.00  0.00    -0.422 OA
ATOM     15  C11 UNL     1      11.819   1.674 -27.979  0.00  0.00    +0.143 A 
ATOM     16  C12 UNL     1      11.388   0.504 -27.362  0.00  0.00    +0.024 A 
ENDROOT
TORSDOF 0
ENDMDL
MODEL 4
REMARK VINA RESULT:    -5.441     12.003     12.811
REMARK INTER + INTRA:          -5.441
REMARK INTER:                  -5.441
REMARK INTRA:                   0.000
REMARK UNBOUND:                 0.000
REMARK  Name = /home/vital/Documents/PhD_2021/Malaria_codes/scripts/../data/pdbqt_ligands/ligand_245_temp.pdb
REMARK                            x       y       z     vdW  Elec       q    Type
REMARK                         _______ _______ _______ _____ _____    ______ ____
ROOT
ATOM      1  C1  UNL     1      -3.030   4.081 -19.181  0.00  0.00    -0.055 C 
ATOM      2  C2  UNL     1      -2.199   5.294 -19.549  0.00  0.00    +0.043 C 
ATOM      3  C3  UNL     1      -0.864   5.263 -18.848  0.00  0.00    +0.312 C 
ATOM      4  O1  UNL     1       0.179   4.904 -19.376  0.00  0.00    -0.250 OA
ATOM      5  O2  UNL     1      -1.030   5.688 -17.533  0.00  0.00    -0.426 OA
ATOM      6  C4  UNL     1       0.142   5.683 -16.772  0.00  0.00    +0.135 A 
ATOM      7  C5  UNL     1       1.152   6.616 -17.014  0.00  0.00    -0.018 A 
ATOM      8  C6  UNL     1       2.295   6.620 -16.208  0.00  0.00    -0.048 A 
ATOM      9  C7  UNL     1       2.412   5.704 -15.159  0.00  0.00    +0.018 A 
ATOM     10  C8  UNL     1       3.581   5.668 -14.296  0.00  0.00    -0.044 A 
ATOM     11  C9  UNL     1       3.639   4.776 -13.303  0.00  0.00    +0.024 A 
ATOM     12  C10 UNL     1       2.555   3.815 -13.037  0.00  0.00    +0.337 A 
ATOM     13  O3  UNL     1       2.642   3.015 -12.112  0.00  0.00    -0.245 OA
ATOM     14  O4  UNL     1       1.449   3.866 -13.875  0.00  0.00    -0.422 OA
ATOM     15  C11 UNL     1       1.376   4.798 -14.929  0.00  0.00    +0.143 A 
ATOM     16  C12 UNL     1       0.231   4.776 -15.720  0.00  0.00    +0.024 A 
ENDROOT
TORSDOF 0
ENDMDL
MODEL 5
REMARK VINA RESULT:    -5.373     11.850     13.821
REMARK INTER + INTRA:          -5.373
REMARK INTER:                  -5.373
REMARK INTRA:                   0.000
REMARK UNBOUND:                 0.000
REMARK  Name = /home/vital/Documents/PhD_2021/Malaria_codes/scripts/../data/pdbqt_ligands/ligand_245_temp.pdb
REMARK                            x       y       z     vdW  Elec       q    Type
REMARK                         _______ _______ _______ _____ _____    ______ ____
ROOT
ATOM      1  C1  UNL     1       4.740  -4.374 -32.414  0.00  0.00    -0.055 C 
ATOM      2  C2  UNL     1       3.708  -3.743 -33.327  0.00  0.00    +0.043 C 
ATOM      3  C3  UNL     1       2.360  -4.394 -33.146  0.00  0.00    +0.312 C 
ATOM      4  O1  UNL     1       1.454  -3.917 -32.477  0.00  0.00    -0.250 OA
ATOM      5  O2  UNL     1       2.339  -5.600 -33.839  0.00  0.00    -0.426 OA
ATOM      6  C4  UNL     1       1.140  -6.309 -33.729  0.00  0.00    +0.135 A 
ATOM      7  C5  UNL     1      -0.018  -5.852 -34.361  0.00  0.00    -0.018 A 
ATOM      8  C6  UNL     1      -1.194  -6.604 -34.274  0.00  0.00    -0.048 A 
ATOM      9  C7  UNL     1      -1.199  -7.812 -33.572  0.00  0.00    +0.018 A 
ATOM     10  C8  UNL     1      -2.396  -8.628 -33.452  0.00  0.00    -0.044 A 
ATOM     11  C9  UNL     1      -2.344  -9.779 -32.775  0.00  0.00    +0.024 A 
ATOM     12  C10 UNL     1      -1.109 -10.267 -32.137  0.00  0.00    +0.337 A 
ATOM     13  O3  UNL     1      -1.099 -11.332 -31.530  0.00  0.00    -0.245 OA
ATOM     14  O4  UNL     1       0.021  -9.472 -32.263  0.00  0.00    -0.422 OA
ATOM     15  C11 UNL     1      -0.020  -8.253 -32.970  0.00  0.00    +0.143 A 
ATOM     16  C12 UNL     1       1.161  -7.519 -33.043  0.00  0.00    +0.024 A 
ENDROOT
TORSDOF 0
ENDMDL
MODEL 6
REMARK VINA RESULT:    -5.329     17.566     19.725
REMARK INTER + INTRA:          -5.329
REMARK INTER:                  -5.329
REMARK INTRA:                   0.000
REMARK UNBOUND:                 0.000
REMARK  Name = /home/vital/Documents/PhD_2021/Malaria_codes/scripts/../data/pdbqt_ligands/ligand_245_temp.pdb
REMARK                            x       y       z     vdW  Elec       q    Type
REMARK                         _______ _______ _______ _____ _____    ______ ____
ROOT
ATOM      1  C1  UNL     1      -8.519  -9.199 -35.012  0.00  0.00    -0.055 C 
ATOM      2  C2  UNL     1      -8.607 -10.693 -35.250  0.00  0.00    +0.043 C 
ATOM      3  C3  UNL     1      -8.955 -11.421 -33.976  0.00  0.00    +0.312 C 
ATOM      4  O1  UNL     1     -10.078 -11.818 -33.699  0.00  0.00    -0.250 OA
ATOM      5  O2  UNL     1      -7.811 -11.542 -33.194  0.00  0.00    -0.426 OA
ATOM      6  C4  UNL     1      -8.013 -12.186 -31.970  0.00  0.00    +0.135 A 
ATOM      7  C5  UNL     1      -8.270 -13.558 -31.922  0.00  0.00    -0.018 A 
ATOM      8  C6  UNL     1      -8.422 -14.188 -30.682  0.00  0.00    -0.048 A 
ATOM      9  C7  UNL     1      -8.301 -13.447 -29.504  0.00  0.00    +0.018 A 
ATOM     10  C8  UNL     1      -8.454 -14.056 -28.192  0.00  0.00    -0.044 A 
ATOM     11  C9  UNL     1      -8.322 -13.302 -27.096  0.00  0.00    +0.024 A 
ATOM     12  C10 UNL     1      -8.021 -11.862 -27.158  0.00  0.00    +0.337 A 
ATOM     13  O3  UNL     1      -7.900 -11.205 -26.130  0.00  0.00    -0.245 OA
ATOM     14  O4  UNL     1      -7.882 -11.301 -28.420  0.00  0.00    -0.422 OA
ATOM     15  C11 UNL     1      -8.023 -12.082 -29.584  0.00  0.00    +0.143 A 
ATOM     16  C12 UNL     1      -7.869 -11.436 -30.807  0.00  0.00    +0.024 A 
ENDROOT
TORSDOF 0
ENDMDL
MODEL 7
REMARK VINA RESULT:    -5.323     10.562     12.511
REMARK INTER + INTRA:          -5.323
REMARK INTER:                  -5.323
REMARK INTRA:                   0.000
REMARK UNBOUND:                 0.000
REMARK  Name = /home/vital/Documents/PhD_2021/Malaria_codes/scripts/../data/pdbqt_ligands/ligand_245_temp.pdb
REMARK                            x       y       z     vdW  Elec       q    Type
REMARK                         _______ _______ _______ _____ _____    ______ ____
ROOT
ATOM      1  C1  UNL     1       3.711  -2.244 -30.729  0.00  0.00    -0.055 C 
ATOM      2  C2  UNL     1       4.313  -2.846 -31.982  0.00  0.00    +0.043 C 
ATOM      3  C3  UNL     1       3.390  -3.878 -32.580  0.00  0.00    +0.312 C 
ATOM      4  O1  UNL     1       2.654  -3.667 -33.534  0.00  0.00    -0.250 OA
ATOM      5  O2  UNL     1       3.511  -5.066 -31.866  0.00  0.00    -0.426 OA
ATOM      6  C4  UNL     1       2.683  -6.098 -32.317  0.00  0.00    +0.135 A 
ATOM      7  C5  UNL     1       2.934  -6.730 -33.537  0.00  0.00    -0.018 A 
ATOM      8  C6  UNL     1       2.119  -7.791 -33.944  0.00  0.00    -0.048 A 
ATOM      9  C7  UNL     1       1.073  -8.222 -33.124  0.00  0.00    +0.018 A 
ATOM     10  C8  UNL     1       0.197  -9.318 -33.505  0.00  0.00    -0.044 A 
ATOM     11  C9  UNL     1      -0.784  -9.694 -32.680  0.00  0.00    +0.024 A 
ATOM     12  C10 UNL     1      -1.022  -9.040 -31.382  0.00  0.00    +0.337 A 
ATOM     13  O3  UNL     1      -1.929  -9.418 -30.649  0.00  0.00    -0.245 OA
ATOM     14  O4  UNL     1      -0.176  -7.994 -31.039  0.00  0.00    -0.422 OA
ATOM     15  C11 UNL     1       0.861  -7.584 -31.901  0.00  0.00    +0.143 A 
ATOM     16  C12 UNL     1       1.659  -6.525 -31.478  0.00  0.00    +0.024 A 
ENDROOT
TORSDOF 0
ENDMDL
MODEL 8
REMARK VINA RESULT:    -5.291     10.813     11.763
REMARK INTER + INTRA:          -5.291
REMARK INTER:                  -5.291
REMARK INTRA:                   0.000
REMARK UNBOUND:                 0.000
REMARK  Name = /home/vital/Documents/PhD_2021/Malaria_codes/scripts/../data/pdbqt_ligands/ligand_245_temp.pdb
REMARK                            x       y       z     vdW  Elec       q    Type
REMARK                         _______ _______ _______ _____ _____    ______ ____
ROOT
ATOM      1  C1  UNL     1      -1.098 -10.440 -32.071  0.00  0.00    -0.055 C 
ATOM      2  C2  UNL     1      -1.279  -9.732 -33.399  0.00  0.00    +0.043 C 
ATOM      3  C3  UNL     1      -0.151  -8.764 -33.650  0.00  0.00    +0.312 C 
ATOM      4  O1  UNL     1       0.804  -8.999 -34.377  0.00  0.00    -0.250 OA
ATOM      5  O2  UNL     1      -0.376  -7.602 -32.919  0.00  0.00    -0.426 OA
ATOM      6  C4  UNL     1       0.620  -6.631 -33.056  0.00  0.00    +0.135 A 
ATOM      7  C5  UNL     1       0.768  -5.927 -34.253  0.00  0.00    -0.018 A 
ATOM      8  C6  UNL     1       1.742  -4.928 -34.349  0.00  0.00    -0.048 A 
ATOM      9  C7  UNL     1       2.547  -4.630 -33.246  0.00  0.00    +0.018 A 
ATOM     10  C8  UNL     1       3.574  -3.602 -33.299  0.00  0.00    -0.044 A 
ATOM     11  C9  UNL     1       4.312  -3.353 -32.213  0.00  0.00    +0.024 A 
ATOM     12  C10 UNL     1       4.128  -4.081 -30.946  0.00  0.00    +0.337 A 
ATOM     13  O3  UNL     1       4.820  -3.819 -29.968  0.00  0.00    -0.245 OA
ATOM     14  O4  UNL     1       3.143  -5.059 -30.919  0.00  0.00    -0.422 OA
ATOM     15  C11 UNL     1       2.360  -5.336 -32.058  0.00  0.00    +0.143 A 
ATOM     16  C12 UNL     1       1.398  -6.335 -31.941  0.00  0.00    +0.024 A 
ENDROOT
TORSDOF 0
ENDMDL
MODEL 9
REMARK VINA RESULT:    -5.246      9.761     12.543
REMARK INTER + INTRA:          -5.246
REMARK INTER:                  -5.246
REMARK INTRA:                   0.000
REMARK UNBOUND:                 0.000
REMARK  Name = /home/vital/Documents/PhD_2021/Malaria_codes/scripts/../data/pdbqt_ligands/ligand_245_temp.pdb
REMARK                            x       y       z     vdW  Elec       q    Type
REMARK                         _______ _______ _______ _____ _____    ______ ____
ROOT
ATOM      1  C1  UNL     1      -7.788   0.700 -26.738  0.00  0.00    -0.055 C 
ATOM      2  C2  UNL     1      -7.949   1.195 -25.314  0.00  0.00    +0.043 C 
ATOM      3  C3  UNL     1      -6.849   0.660 -24.432  0.00  0.00    +0.312 C 
ATOM      4  O1  UNL     1      -5.861   1.302 -24.104  0.00  0.00    -0.250 OA
ATOM      5  O2  UNL     1      -7.143  -0.654 -24.083  0.00  0.00    -0.426 OA
ATOM      6  C4  UNL     1      -6.179  -1.268 -23.278  0.00  0.00    +0.135 A 
ATOM      7  C5  UNL     1      -6.016  -0.883 -21.946  0.00  0.00    -0.018 A 
ATOM      8  C6  UNL     1      -5.077  -1.544 -21.148  0.00  0.00    -0.048 A 
ATOM      9  C7  UNL     1      -4.322  -2.592 -21.681  0.00  0.00    +0.018 A 
ATOM     10  C8  UNL     1      -3.333  -3.308 -20.891  0.00  0.00    -0.044 A 
ATOM     11  C9  UNL     1      -2.644  -4.308 -21.449  0.00  0.00    +0.024 A 
ATOM     12  C10 UNL     1      -2.846  -4.726 -22.847  0.00  0.00    +0.337 A 
ATOM     13  O3  UNL     1      -2.199  -5.653 -23.321  0.00  0.00    -0.245 OA
ATOM     14  O4  UNL     1      -3.793  -4.028 -23.582  0.00  0.00    -0.422 OA
ATOM     15  C11 UNL     1      -4.525  -2.968 -23.009  0.00  0.00    +0.143 A 
ATOM     16  C12 UNL     1      -5.452  -2.322 -23.821  0.00  0.00    +0.024 A 
ENDROOT
TORSDOF 0
ENDMDL
