MODEL 1
REMARK VINA RESULT:    -6.209      0.000      0.000
REMARK INTER + INTRA:          -6.209
REMARK INTER:                  -6.209
REMARK INTRA:                   0.000
REMARK UNBOUND:                 0.000
REMARK  Name = /home/vital/Documents/PhD_2021/Malaria_codes/scripts/../data/pdbqt_ligands/ligand_266_temp.pdb
REMARK                            x       y       z     vdW  Elec       q    Type
REMARK                         _______ _______ _______ _____ _____    ______ ____
ROOT
ATOM      1  C1  UNL     1       4.167   2.881 -14.947  0.00  0.00    -0.044 C 
ATOM      2  C2  UNL     1       3.567   4.256 -15.172  0.00  0.00    +0.082 C 
ATOM      3  S1  UNL     1       2.015   4.439 -14.291  0.00  0.00    +0.043 S 
ATOM      4  O1  UNL     1       1.028   3.580 -14.908  0.00  0.00    -0.155 OA
ATOM      5  O2  UNL     1       2.301   4.357 -12.874  0.00  0.00    -0.155 OA
ATOM      6  N1  UNL     1       1.618   6.053 -14.587  0.00  0.00    -0.217 N 
ATOM      7  C3  UNL     1       1.353   6.446 -15.936  0.00  0.00    +0.090 A 
ATOM      8  C4  UNL     1       0.214   6.006 -16.607  0.00  0.00    -0.022 A 
ATOM      9  C5  UNL     1      -0.007   6.401 -17.932  0.00  0.00    +0.061 A 
ATOM     10  C6  UNL     1      -1.202   5.969 -18.706  0.00  0.00    +0.339 C 
ATOM     11  O3  UNL     1      -1.382   6.262 -19.878  0.00  0.00    -0.245 OA
ATOM     12  O4  UNL     1      -2.035   5.233 -17.932  0.00  0.00    -0.464 OA
ATOM     13  C7  UNL     1      -3.206   4.773 -18.608  0.00  0.00    +0.082 C 
ATOM     14  C8  UNL     1       0.927   7.235 -18.572  0.00  0.00    -0.044 A 
ATOM     15  C9  UNL     1       2.070   7.676 -17.901  0.00  0.00    -0.018 A 
ATOM     16  C10 UNL     1       2.275   7.278 -16.584  0.00  0.00    +0.139 A 
ATOM     17  O5  UNL     1       3.387   7.678 -15.892  0.00  0.00    -0.505 OA
ATOM     18  H   UNL     1       1.569   6.706 -13.852  0.00  0.00    +0.000 HD
ATOM     19  H   UNL     1       3.512   7.402 -15.006  0.00  0.00    +0.000 HD
ENDROOT
TORSDOF 0
ENDMDL
MODEL 2
REMARK VINA RESULT:    -6.110     19.508     20.989
REMARK INTER + INTRA:          -6.110
REMARK INTER:                  -6.110
REMARK INTRA:                   0.000
REMARK UNBOUND:                 0.000
REMARK  Name = /home/vital/Documents/PhD_2021/Malaria_codes/scripts/../data/pdbqt_ligands/ligand_266_temp.pdb
REMARK                            x       y       z     vdW  Elec       q    Type
REMARK                         _______ _______ _______ _____ _____    ______ ____
ROOT
ATOM      1  C1  UNL     1      -1.452  -8.171 -31.366  0.00  0.00    -0.044 C 
ATOM      2  C2  UNL     1      -0.883  -7.467 -32.584  0.00  0.00    +0.082 C 
ATOM      3  S1  UNL     1       0.633  -8.249 -33.136  0.00  0.00    +0.043 S 
ATOM      4  O1  UNL     1       1.664  -8.012 -32.149  0.00  0.00    -0.155 OA
ATOM      5  O2  UNL     1       0.304  -9.590 -33.571  0.00  0.00    -0.155 OA
ATOM      6  N1  UNL     1       0.996  -7.387 -34.542  0.00  0.00    -0.217 N 
ATOM      7  C3  UNL     1       1.293  -5.993 -34.420  0.00  0.00    +0.090 A 
ATOM      8  C4  UNL     1       2.465  -5.555 -33.808  0.00  0.00    -0.022 A 
ATOM      9  C5  UNL     1       2.717  -4.182 -33.695  0.00  0.00    +0.061 A 
ATOM     10  C6  UNL     1       3.949  -3.647 -33.054  0.00  0.00    +0.339 C 
ATOM     11  O3  UNL     1       4.159  -2.453 -32.902  0.00  0.00    -0.245 OA
ATOM     12  O4  UNL     1       4.777  -4.653 -32.686  0.00  0.00    -0.464 OA
ATOM     13  C7  UNL     1       5.981  -4.219 -32.055  0.00  0.00    +0.082 C 
ATOM     14  C8  UNL     1       1.783  -3.261 -34.199  0.00  0.00    -0.044 A 
ATOM     15  C9  UNL     1       0.607  -3.699 -34.813  0.00  0.00    -0.018 A 
ATOM     16  C10 UNL     1       0.370  -5.066 -34.920  0.00  0.00    +0.139 A 
ATOM     17  O5  UNL     1      -0.775  -5.538 -35.505  0.00  0.00    -0.505 OA
ATOM     18  H   UNL     1       1.002  -7.830 -35.421  0.00  0.00    +0.000 HD
ATOM     19  H   UNL     1      -0.921  -6.462 -35.570  0.00  0.00    +0.000 HD
ENDROOT
TORSDOF 0
ENDMDL
MODEL 3
REMARK VINA RESULT:    -5.914     19.373     21.079
REMARK INTER + INTRA:          -5.914
REMARK INTER:                  -5.914
REMARK INTRA:                   0.000
REMARK UNBOUND:                 0.000
REMARK  Name = /home/vital/Documents/PhD_2021/Malaria_codes/scripts/../data/pdbqt_ligands/ligand_266_temp.pdb
REMARK                            x       y       z     vdW  Elec       q    Type
REMARK                         _______ _______ _______ _____ _____    ______ ____
ROOT
ATOM      1  C1  UNL     1      -3.388  -7.921 -34.357  0.00  0.00    -0.044 C 
ATOM      2  C2  UNL     1      -1.937  -8.284 -34.105  0.00  0.00    +0.082 C 
ATOM      3  S1  UNL     1      -1.736  -9.082 -32.511  0.00  0.00    +0.043 S 
ATOM      4  O1  UNL     1      -1.983  -8.108 -31.470  0.00  0.00    -0.155 OA
ATOM      5  O2  UNL     1      -2.457 -10.336 -32.553  0.00  0.00    -0.155 OA
ATOM      6  N1  UNL     1      -0.098  -9.494 -32.515  0.00  0.00    -0.217 N 
ATOM      7  C3  UNL     1       0.863  -8.436 -32.550  0.00  0.00    +0.090 A 
ATOM      8  C4  UNL     1       1.044  -7.587 -31.459  0.00  0.00    -0.022 A 
ATOM      9  C5  UNL     1       1.986  -6.553 -31.534  0.00  0.00    +0.061 A 
ATOM     10  C6  UNL     1       2.230  -5.613 -30.406  0.00  0.00    +0.339 C 
ATOM     11  O3  UNL     1       3.010  -4.676 -30.475  0.00  0.00    -0.245 OA
ATOM     12  O4  UNL     1       1.484  -5.952 -29.328  0.00  0.00    -0.464 OA
ATOM     13  C7  UNL     1       1.657  -5.089 -28.203  0.00  0.00    +0.082 C 
ATOM     14  C8  UNL     1       2.737  -6.382 -32.709  0.00  0.00    -0.044 A 
ATOM     15  C9  UNL     1       2.557  -7.232 -33.804  0.00  0.00    -0.018 A 
ATOM     16  C10 UNL     1       1.619  -8.255 -33.715  0.00  0.00    +0.139 A 
ATOM     17  O5  UNL     1       1.402  -9.105 -34.768  0.00  0.00    -0.505 OA
ATOM     18  H   UNL     1       0.188 -10.436 -32.495  0.00  0.00    +0.000 HD
ATOM     19  H   UNL     1       0.768  -9.790 -34.694  0.00  0.00    +0.000 HD
ENDROOT
TORSDOF 0
ENDMDL
MODEL 4
REMARK VINA RESULT:    -5.740      3.490      4.492
REMARK INTER + INTRA:          -5.740
REMARK INTER:                  -5.740
REMARK INTRA:                   0.000
REMARK UNBOUND:                 0.000
REMARK  Name = /home/vital/Documents/PhD_2021/Malaria_codes/scripts/../data/pdbqt_ligands/ligand_266_temp.pdb
REMARK                            x       y       z     vdW  Elec       q    Type
REMARK                         _______ _______ _______ _____ _____    ______ ____
ROOT
ATOM      1  C1  UNL     1       7.361   5.635 -13.983  0.00  0.00    -0.044 C 
ATOM      2  C2  UNL     1       5.946   5.256 -13.585  0.00  0.00    +0.082 C 
ATOM      3  S1  UNL     1       5.785   3.481 -13.380  0.00  0.00    +0.043 S 
ATOM      4  O1  UNL     1       5.906   2.851 -14.677  0.00  0.00    -0.155 OA
ATOM      5  O2  UNL     1       6.628   3.088 -12.272  0.00  0.00    -0.155 OA
ATOM      6  N1  UNL     1       4.197   3.323 -12.827  0.00  0.00    -0.217 N 
ATOM      7  C3  UNL     1       3.136   3.717 -13.702  0.00  0.00    +0.090 A 
ATOM      8  C4  UNL     1       2.843   2.992 -14.855  0.00  0.00    -0.022 A 
ATOM      9  C5  UNL     1       1.805   3.415 -15.695  0.00  0.00    +0.061 A 
ATOM     10  C6  UNL     1       1.439   2.687 -16.940  0.00  0.00    +0.339 C 
ATOM     11  O3  UNL     1       0.572   3.072 -17.709  0.00  0.00    -0.245 OA
ATOM     12  O4  UNL     1       2.186   1.566 -17.079  0.00  0.00    -0.464 OA
ATOM     13  C7  UNL     1       1.899   0.814 -18.259  0.00  0.00    +0.082 C 
ATOM     14  C8  UNL     1       1.072   4.568 -15.366  0.00  0.00    -0.044 A 
ATOM     15  C9  UNL     1       1.364   5.296 -14.209  0.00  0.00    -0.018 A 
ATOM     16  C10 UNL     1       2.397   4.864 -13.383  0.00  0.00    +0.139 A 
ATOM     17  O5  UNL     1       2.724   5.553 -12.246  0.00  0.00    -0.505 OA
ATOM     18  H   UNL     1       4.006   2.970 -11.928  0.00  0.00    +0.000 HD
ATOM     19  H   UNL     1       3.422   5.250 -11.699  0.00  0.00    +0.000 HD
ENDROOT
TORSDOF 0
ENDMDL
MODEL 5
REMARK VINA RESULT:    -5.709      1.096      1.212
REMARK INTER + INTRA:          -5.709
REMARK INTER:                  -5.709
REMARK INTRA:                   0.000
REMARK UNBOUND:                 0.000
REMARK  Name = /home/vital/Documents/PhD_2021/Malaria_codes/scripts/../data/pdbqt_ligands/ligand_266_temp.pdb
REMARK                            x       y       z     vdW  Elec       q    Type
REMARK                         _______ _______ _______ _____ _____    ______ ____
ROOT
ATOM      1  C1  UNL     1       4.838   2.049 -15.322  0.00  0.00    -0.044 C 
ATOM      2  C2  UNL     1       4.337   3.476 -15.207  0.00  0.00    +0.082 C 
ATOM      3  S1  UNL     1       2.905   3.575 -14.131  0.00  0.00    +0.043 S 
ATOM      4  O1  UNL     1       1.790   2.921 -14.782  0.00  0.00    -0.155 OA
ATOM      5  O2  UNL     1       3.327   3.194 -12.801  0.00  0.00    -0.155 OA
ATOM      6  N1  UNL     1       2.616   5.238 -14.063  0.00  0.00    -0.217 N 
ATOM      7  C3  UNL     1       2.248   5.908 -15.271  0.00  0.00    +0.090 A 
ATOM      8  C4  UNL     1       1.013   5.683 -15.875  0.00  0.00    -0.022 A 
ATOM      9  C5  UNL     1       0.691   6.349 -17.065  0.00  0.00    +0.061 A 
ATOM     10  C6  UNL     1      -0.610   6.155 -17.761  0.00  0.00    +0.339 C 
ATOM     11  O3  UNL     1      -0.884   6.687 -18.826  0.00  0.00    -0.245 OA
ATOM     12  O4  UNL     1      -1.418   5.333 -17.051  0.00  0.00    -0.464 OA
ATOM     13  C7  UNL     1      -2.687   5.091 -17.659  0.00  0.00    +0.082 C 
ATOM     14  C8  UNL     1       1.620   7.233 -17.639  0.00  0.00    -0.044 A 
ATOM     15  C9  UNL     1       2.860   7.460 -17.034  0.00  0.00    -0.018 A 
ATOM     16  C10 UNL     1       3.165   6.794 -15.852  0.00  0.00    +0.139 A 
ATOM     17  O5  UNL     1       4.372   6.978 -15.231  0.00  0.00    -0.505 OA
ATOM     18  H   UNL     1       2.699   5.732 -13.216  0.00  0.00    +0.000 HD
ATOM     19  H   UNL     1       4.564   6.522 -14.435  0.00  0.00    +0.000 HD
ENDROOT
TORSDOF 0
ENDMDL
MODEL 6
REMARK VINA RESULT:    -5.654      2.144      5.199
REMARK INTER + INTRA:          -5.654
REMARK INTER:                  -5.654
REMARK INTRA:                   0.000
REMARK UNBOUND:                 0.000
REMARK  Name = /home/vital/Documents/PhD_2021/Malaria_codes/scripts/../data/pdbqt_ligands/ligand_266_temp.pdb
REMARK                            x       y       z     vdW  Elec       q    Type
REMARK                         _______ _______ _______ _____ _____    ______ ____
ROOT
ATOM      1  C1  UNL     1      -0.796   3.525 -19.595  0.00  0.00    -0.044 C 
ATOM      2  C2  UNL     1      -0.344   4.022 -18.234  0.00  0.00    +0.082 C 
ATOM      3  S1  UNL     1      -1.113   5.591 -17.829  0.00  0.00    +0.043 S 
ATOM      4  O1  UNL     1      -0.580   6.610 -18.708  0.00  0.00    -0.155 OA
ATOM      5  O2  UNL     1      -2.539   5.367 -17.717  0.00  0.00    -0.155 OA
ATOM      6  N1  UNL     1      -0.566   5.868 -16.255  0.00  0.00    -0.217 N 
ATOM      7  C3  UNL     1       0.837   6.053 -16.052  0.00  0.00    +0.090 A 
ATOM      8  C4  UNL     1       1.491   7.192 -16.517  0.00  0.00    -0.022 A 
ATOM      9  C5  UNL     1       2.869   7.333 -16.310  0.00  0.00    +0.061 A 
ATOM     10  C6  UNL     1       3.628   8.524 -16.779  0.00  0.00    +0.339 C 
ATOM     11  O3  UNL     1       4.838   8.638 -16.653  0.00  0.00    -0.245 OA
ATOM     12  O4  UNL     1       2.797   9.435 -17.340  0.00  0.00    -0.464 OA
ATOM     13  C7  UNL     1       3.454  10.607 -17.823  0.00  0.00    +0.082 C 
ATOM     14  C8  UNL     1       3.578   6.322 -15.640  0.00  0.00    -0.044 A 
ATOM     15  C9  UNL     1       2.923   5.179 -15.173  0.00  0.00    -0.018 A 
ATOM     16  C10 UNL     1       1.554   5.052 -15.383  0.00  0.00    +0.139 A 
ATOM     17  O5  UNL     1       0.875   3.944 -14.953  0.00  0.00    -0.505 OA
ATOM     18  H   UNL     1      -1.195   5.901 -15.499  0.00  0.00    +0.000 HD
ATOM     19  H   UNL     1      -0.047   3.872 -15.101  0.00  0.00    +0.000 HD
ENDROOT
TORSDOF 0
ENDMDL
MODEL 7
REMARK VINA RESULT:    -5.566      8.436      9.898
REMARK INTER + INTRA:          -5.566
REMARK INTER:                  -5.566
REMARK INTRA:                   0.000
REMARK UNBOUND:                 0.000
REMARK  Name = /home/vital/Documents/PhD_2021/Malaria_codes/scripts/../data/pdbqt_ligands/ligand_266_temp.pdb
REMARK                            x       y       z     vdW  Elec       q    Type
REMARK                         _______ _______ _______ _____ _____    ______ ____
ROOT
ATOM      1  C1  UNL     1       1.054  -3.143 -22.082  0.00  0.00    -0.044 C 
ATOM      2  C2  UNL     1      -0.113  -2.699 -21.221  0.00  0.00    +0.082 C 
ATOM      3  S1  UNL     1      -1.547  -3.744 -21.484  0.00  0.00    +0.043 S 
ATOM      4  O1  UNL     1      -2.056  -3.506 -22.818  0.00  0.00    -0.155 OA
ATOM      5  O2  UNL     1      -1.208  -5.078 -21.036  0.00  0.00    -0.155 OA
ATOM      6  N1  UNL     1      -2.646  -3.144 -20.350  0.00  0.00    -0.217 N 
ATOM      7  C3  UNL     1      -3.105  -1.799 -20.503  0.00  0.00    +0.090 A 
ATOM      8  C4  UNL     1      -3.941  -1.436 -21.557  0.00  0.00    -0.022 A 
ATOM      9  C5  UNL     1      -4.362  -0.105 -21.682  0.00  0.00    +0.061 A 
ATOM     10  C6  UNL     1      -5.255   0.349 -22.782  0.00  0.00    +0.339 C 
ATOM     11  O3  UNL     1      -5.587   1.515 -22.934  0.00  0.00    -0.245 OA
ATOM     12  O4  UNL     1      -5.635  -0.695 -23.556  0.00  0.00    -0.464 OA
ATOM     13  C7  UNL     1      -6.490  -0.337 -24.642  0.00  0.00    +0.082 C 
ATOM     14  C8  UNL     1      -3.932   0.849 -20.744  0.00  0.00    -0.044 A 
ATOM     15  C9  UNL     1      -3.094   0.486 -19.687  0.00  0.00    -0.018 A 
ATOM     16  C10 UNL     1      -2.686  -0.838 -19.574  0.00  0.00    +0.139 A 
ATOM     17  O5  UNL     1      -1.855  -1.235 -18.559  0.00  0.00    -0.505 OA
ATOM     18  H   UNL     1      -2.961  -3.705 -19.605  0.00  0.00    +0.000 HD
ATOM     19  H   UNL     1      -1.589  -2.131 -18.496  0.00  0.00    +0.000 HD
ENDROOT
TORSDOF 0
ENDMDL
MODEL 8
REMARK VINA RESULT:    -5.452     17.486     18.410
REMARK INTER + INTRA:          -5.452
REMARK INTER:                  -5.452
REMARK INTRA:                   0.000
REMARK UNBOUND:                 0.000
REMARK  Name = /home/vital/Documents/PhD_2021/Malaria_codes/scripts/../data/pdbqt_ligands/ligand_266_temp.pdb
REMARK                            x       y       z     vdW  Elec       q    Type
REMARK                         _______ _______ _______ _____ _____    ______ ____
ROOT
ATOM      1  C1  UNL     1       6.450  -4.445 -27.526  0.00  0.00    -0.044 C 
ATOM      2  C2  UNL     1       5.838  -4.120 -28.875  0.00  0.00    +0.082 C 
ATOM      3  S1  UNL     1       4.115  -3.649 -28.709  0.00  0.00    +0.043 S 
ATOM      4  O1  UNL     1       3.352  -4.812 -28.310  0.00  0.00    -0.155 OA
ATOM      5  O2  UNL     1       4.066  -2.421 -27.944  0.00  0.00    -0.155 OA
ATOM      6  N1  UNL     1       3.701  -3.222 -30.289  0.00  0.00    -0.217 N 
ATOM      7  C3  UNL     1       3.735  -4.240 -31.293  0.00  0.00    +0.090 A 
ATOM      8  C4  UNL     1       2.813  -5.284 -31.296  0.00  0.00    -0.022 A 
ATOM      9  C5  UNL     1       2.885  -6.270 -32.289  0.00  0.00    +0.061 A 
ATOM     10  C6  UNL     1       1.931  -7.410 -32.351  0.00  0.00    +0.339 C 
ATOM     11  O3  UNL     1       2.012  -8.306 -33.178  0.00  0.00    -0.245 OA
ATOM     12  O4  UNL     1       0.986  -7.301 -31.387  0.00  0.00    -0.464 OA
ATOM     13  C7  UNL     1       0.035  -8.366 -31.376  0.00  0.00    +0.082 C 
ATOM     14  C8  UNL     1       3.890  -6.197 -33.268  0.00  0.00    -0.044 A 
ATOM     15  C9  UNL     1       4.816  -5.150 -33.266  0.00  0.00    -0.018 A 
ATOM     16  C10 UNL     1       4.731  -4.177 -32.276  0.00  0.00    +0.139 A 
ATOM     17  O5  UNL     1       5.625  -3.140 -32.230  0.00  0.00    -0.505 OA
ATOM     18  H   UNL     1       3.443  -2.299 -30.514  0.00  0.00    +0.000 HD
ATOM     19  H   UNL     1       5.555  -2.491 -31.558  0.00  0.00    +0.000 HD
ENDROOT
TORSDOF 0
ENDMDL
MODEL 9
REMARK VINA RESULT:    -5.293      8.762     10.149
REMARK INTER + INTRA:          -5.293
REMARK INTER:                  -5.293
REMARK INTRA:                   0.000
REMARK UNBOUND:                 0.000
REMARK  Name = /home/vital/Documents/PhD_2021/Malaria_codes/scripts/../data/pdbqt_ligands/ligand_266_temp.pdb
REMARK                            x       y       z     vdW  Elec       q    Type
REMARK                         _______ _______ _______ _____ _____    ______ ____
ROOT
ATOM      1  C1  UNL     1       1.552  -0.972 -21.547  0.00  0.00    -0.044 C 
ATOM      2  C2  UNL     1       0.249  -1.347 -20.867  0.00  0.00    +0.082 C 
ATOM      3  S1  UNL     1      -0.370  -2.917 -21.476  0.00  0.00    +0.043 S 
ATOM      4  O1  UNL     1      -0.792  -2.748 -22.850  0.00  0.00    -0.155 OA
ATOM      5  O2  UNL     1       0.583  -3.941 -21.103  0.00  0.00    -0.155 OA
ATOM      6  N1  UNL     1      -1.726  -3.175 -20.502  0.00  0.00    -0.217 N 
ATOM      7  C3  UNL     1      -2.815  -2.254 -20.606  0.00  0.00    +0.090 A 
ATOM      8  C4  UNL     1      -3.606  -2.197 -21.752  0.00  0.00    -0.022 A 
ATOM      9  C5  UNL     1      -4.657  -1.274 -21.823  0.00  0.00    +0.061 A 
ATOM     10  C6  UNL     1      -5.540  -1.161 -23.016  0.00  0.00    +0.339 C 
ATOM     11  O3  UNL     1      -6.427  -0.326 -23.114  0.00  0.00    -0.245 OA
ATOM     12  O4  UNL     1      -5.224  -2.099 -23.939  0.00  0.00    -0.464 OA
ATOM     13  C7  UNL     1      -6.025  -2.050 -25.120  0.00  0.00    +0.082 C 
ATOM     14  C8  UNL     1      -4.900  -0.413 -20.739  0.00  0.00    -0.044 A 
ATOM     15  C9  UNL     1      -4.108  -0.470 -19.589  0.00  0.00    -0.018 A 
ATOM     16  C10 UNL     1      -3.069  -1.393 -19.531  0.00  0.00    +0.139 A 
ATOM     17  O5  UNL     1      -2.261  -1.475 -18.428  0.00  0.00    -0.505 OA
ATOM     18  H   UNL     1      -1.765  -3.937 -19.880  0.00  0.00    +0.000 HD
ATOM     19  H   UNL     1      -1.564  -2.101 -18.403  0.00  0.00    +0.000 HD
ENDROOT
TORSDOF 0
ENDMDL
