MODEL 1
REMARK VINA RESULT:    -6.925      0.000      0.000
REMARK INTER + INTRA:         -10.050
REMARK INTER:                  -8.949
REMARK INTRA:                  -1.101
REMARK UNBOUND:                -1.101
REMARK  Name = /home/vital/Documents/PhD_2021/Malaria_codes/data/pdb_ligands/ligand_441.pdb
REMARK  7 active torsions:
REMARK  status: ('A' for Active; 'I' for Inactive)
REMARK    1  A    between atoms: C1_1  and  C2_2
REMARK    2  A    between atoms: C5_6  and  C6_7
REMARK    3  A    between atoms: C7_9  and  N2_10
REMARK    4  A    between atoms: N2_10  and  C8_11
REMARK    5  A    between atoms: C8_11  and  C9_12
REMARK    6  A    between atoms: C9_12  and  O1_13
REMARK    7  A    between atoms: C16_21  and  N4_22
REMARK                            x       y       z     vdW  Elec       q    Type
REMARK                         _______ _______ _______ _____ _____    ______ ____
ROOT
ATOM      1  C6  UNL     1     151.436 159.253 159.147  0.00  0.00    +0.164 A 
ATOM      2  N1  UNL     1     151.785 160.482 158.731  0.00  0.00    -0.212 NA
ATOM      3  C7  UNL     1     151.983 161.408 159.679  0.00  0.00    +0.130 A 
ATOM      4  C10 UNL     1     151.812 161.150 161.047  0.00  0.00    +0.040 A 
ATOM      5  C11 UNL     1     151.932 162.111 162.082  0.00  0.00    +0.013 A 
ATOM      6  C12 UNL     1     151.747 161.753 163.415  0.00  0.00    +0.001 A 
ATOM      7  C13 UNL     1     151.430 160.438 163.725  0.00  0.00    +0.002 A 
ATOM      8  C14 UNL     1     151.291 159.497 162.702  0.00  0.00    +0.028 A 
ATOM      9  C15 UNL     1     151.467 159.832 161.364  0.00  0.00    +0.077 A 
ATOM     10  N3  UNL     1     151.297 158.887 160.435  0.00  0.00    -0.227 NA
ENDROOT
BRANCH   1  16
ATOM     11  C1  UNL     1     152.229 156.630 155.190  0.00  0.00    +0.019 C 
ATOM     12  C2  UNL     1     151.047 157.101 156.035  0.00  0.00    +0.072 C 
ATOM     13  C3  UNL     1     150.753 156.189 157.188  0.00  0.00    +0.028 C 
ATOM     14 CL1  UNL     1     150.275 154.575 156.988  0.00  0.00    -0.088 Cl
ATOM     15  C4  UNL     1     150.877 156.838 158.348  0.00  0.00    +0.029 C 
ATOM     16  C5  UNL     1     151.243 158.227 158.102  0.00  0.00    +0.037 C 
ATOM     17  C16 UNL     1     151.346 158.413 156.764  0.00  0.00    +0.020 C 
BRANCH  17  18
ATOM     18  N4  UNL     1     151.653 159.555 156.056  0.00  0.00    -0.360 N 
ATOM     19  H16 UNL     1     150.857 160.172 155.911  0.00  0.00    +0.142 HD
ATOM     20  H17 UNL     1     152.452 160.044 156.471  0.00  0.00    +0.142 HD
ENDBRANCH  17  18
ENDBRANCH   1  16
BRANCH   3  21
ATOM     21  N2  UNL     1     152.393 162.658 159.184  0.00  0.00    -0.326 N 
ATOM     22  H6  UNL     1     152.412 163.250 160.018  0.00  0.00    +0.148 HD
BRANCH  21  23
ATOM     23  C8  UNL     1     151.445 163.241 158.223  0.00  0.00    +0.130 C 
BRANCH  23  24
ATOM     24  C9  UNL     1     152.075 163.549 156.856  0.00  0.00    +0.174 C 
BRANCH  24  25
ATOM     25  O1  UNL     1     152.453 162.345 156.195  0.00  0.00    -0.393 OA
ATOM     26  H11 UNL     1     153.132 161.912 156.742  0.00  0.00    +0.209 HD
ENDBRANCH  24  25
ENDBRANCH  23  24
ENDBRANCH  21  23
ENDBRANCH   3  21
TORSDOF 6
ENDMDL
MODEL 2
REMARK VINA RESULT:    -6.906      3.978      5.594
REMARK INTER + INTRA:         -10.026
REMARK INTER:                  -9.496
REMARK INTRA:                  -0.531
REMARK UNBOUND:                -1.101
REMARK  Name = /home/vital/Documents/PhD_2021/Malaria_codes/data/pdb_ligands/ligand_441.pdb
REMARK  7 active torsions:
REMARK  status: ('A' for Active; 'I' for Inactive)
REMARK    1  A    between atoms: C1_1  and  C2_2
REMARK    2  A    between atoms: C5_6  and  C6_7
REMARK    3  A    between atoms: C7_9  and  N2_10
REMARK    4  A    between atoms: N2_10  and  C8_11
REMARK    5  A    between atoms: C8_11  and  C9_12
REMARK    6  A    between atoms: C9_12  and  O1_13
REMARK    7  A    between atoms: C16_21  and  N4_22
REMARK                            x       y       z     vdW  Elec       q    Type
REMARK                         _______ _______ _______ _____ _____    ______ ____
ROOT
ATOM      1  C6  UNL     1     151.407 161.405 162.536  0.00  0.00    +0.164 A 
ATOM      2  N1  UNL     1     150.496 162.258 163.033  0.00  0.00    -0.212 NA
ATOM      3  C7  UNL     1     150.681 162.675 164.293  0.00  0.00    +0.130 A 
ATOM      4  C10 UNL     1     151.746 162.238 165.095  0.00  0.00    +0.040 A 
ATOM      5  C11 UNL     1     151.943 162.587 166.454  0.00  0.00    +0.013 A 
ATOM      6  C12 UNL     1     153.039 162.102 167.164  0.00  0.00    +0.001 A 
ATOM      7  C13 UNL     1     153.939 161.259 166.528  0.00  0.00    +0.002 A 
ATOM      8  C14 UNL     1     153.731 160.900 165.194  0.00  0.00    +0.028 A 
ATOM      9  C15 UNL     1     152.643 161.368 164.467  0.00  0.00    +0.077 A 
ATOM     10  N3  UNL     1     152.493 160.966 163.201  0.00  0.00    -0.227 NA
ENDROOT
BRANCH   1  16
ATOM     11  C1  UNL     1     152.465 160.100 158.027  0.00  0.00    +0.019 C 
ATOM     12  C2  UNL     1     151.321 160.767 158.788  0.00  0.00    +0.072 C 
ATOM     13  C3  UNL     1     150.361 159.780 159.382  0.00  0.00    +0.028 C 
ATOM     14 CL1  UNL     1     149.433 158.717 158.442  0.00  0.00    -0.088 Cl
ATOM     15  C4  UNL     1     150.320 159.900 160.711  0.00  0.00    +0.029 C 
ATOM     16  C5  UNL     1     151.216 160.967 161.140  0.00  0.00    +0.037 C 
ATOM     17  C16 UNL     1     151.811 161.495 160.042  0.00  0.00    +0.020 C 
BRANCH  17  18
ATOM     18  N4  UNL     1     152.718 162.527 159.946  0.00  0.00    -0.360 N 
ATOM     19  H16 UNL     1     152.698 163.005 159.049  0.00  0.00    +0.142 HD
ATOM     20  H17 UNL     1     152.627 163.176 160.734  0.00  0.00    +0.142 HD
ENDBRANCH  17  18
ENDBRANCH   1  16
BRANCH   3  21
ATOM     21  N2  UNL     1     149.722 163.603 164.738  0.00  0.00    -0.326 N 
ATOM     22  H6  UNL     1     150.194 164.082 165.509  0.00  0.00    +0.148 HD
BRANCH  21  23
ATOM     23  C8  UNL     1     148.502 162.971 165.261  0.00  0.00    +0.130 C 
BRANCH  23  24
ATOM     24  C9  UNL     1     148.207 163.334 166.724  0.00  0.00    +0.174 C 
BRANCH  24  25
ATOM     25  O1  UNL     1     146.850 163.052 167.048  0.00  0.00    -0.393 OA
ATOM     26  H11 UNL     1     146.295 163.444 166.351  0.00  0.00    +0.209 HD
ENDBRANCH  24  25
ENDBRANCH  23  24
ENDBRANCH  21  23
ENDBRANCH   3  21
TORSDOF 6
ENDMDL
MODEL 3
REMARK VINA RESULT:    -6.860      5.633      8.105
REMARK INTER + INTRA:          -9.966
REMARK INTER:                  -9.002
REMARK INTRA:                  -0.965
REMARK UNBOUND:                -1.101
REMARK  Name = /home/vital/Documents/PhD_2021/Malaria_codes/data/pdb_ligands/ligand_441.pdb
REMARK  7 active torsions:
REMARK  status: ('A' for Active; 'I' for Inactive)
REMARK    1  A    between atoms: C1_1  and  C2_2
REMARK    2  A    between atoms: C5_6  and  C6_7
REMARK    3  A    between atoms: C7_9  and  N2_10
REMARK    4  A    between atoms: N2_10  and  C8_11
REMARK    5  A    between atoms: C8_11  and  C9_12
REMARK    6  A    between atoms: C9_12  and  O1_13
REMARK    7  A    between atoms: C16_21  and  N4_22
REMARK                            x       y       z     vdW  Elec       q    Type
REMARK                         _______ _______ _______ _____ _____    ______ ____
ROOT
ATOM      1  C6  UNL     1     152.857 155.080 153.903  0.00  0.00    +0.164 A 
ATOM      2  N1  UNL     1     151.957 154.192 154.357  0.00  0.00    -0.212 NA
ATOM      3  C7  UNL     1     151.016 154.656 155.191  0.00  0.00    +0.130 A 
ATOM      4  C10 UNL     1     150.962 155.992 155.616  0.00  0.00    +0.040 A 
ATOM      5  C11 UNL     1     150.038 156.516 156.555  0.00  0.00    +0.013 A 
ATOM      6  C12 UNL     1     150.064 157.862 156.908  0.00  0.00    +0.001 A 
ATOM      7  C13 UNL     1     151.017 158.694 156.338  0.00  0.00    +0.002 A 
ATOM      8  C14 UNL     1     151.941 158.171 155.429  0.00  0.00    +0.028 A 
ATOM      9  C15 UNL     1     151.937 156.830 155.064  0.00  0.00    +0.077 A 
ATOM     10  N3  UNL     1     152.863 156.392 154.206  0.00  0.00    -0.227 NA
ENDROOT
BRANCH   1  16
ATOM     11  C1  UNL     1     157.004 154.753 151.484  0.00  0.00    +0.019 C 
ATOM     12  C2  UNL     1     155.532 154.395 151.288  0.00  0.00    +0.072 C 
ATOM     13  C3  UNL     1     155.177 153.053 151.855  0.00  0.00    +0.028 C 
ATOM     14 CL1  UNL     1     155.851 151.605 151.287  0.00  0.00    -0.088 Cl
ATOM     15  C4  UNL     1     154.248 153.172 152.807  0.00  0.00    +0.029 C 
ATOM     16  C5  UNL     1     153.877 154.573 152.965  0.00  0.00    +0.037 C 
ATOM     17  C16 UNL     1     154.605 155.311 152.092  0.00  0.00    +0.020 C 
BRANCH  17  18
ATOM     18  N4  UNL     1     154.592 156.669 151.866  0.00  0.00    -0.360 N 
ATOM     19  H16 UNL     1     155.072 156.946 151.013  0.00  0.00    +0.142 HD
ATOM     20  H17 UNL     1     153.639 157.044 151.912  0.00  0.00    +0.142 HD
ENDBRANCH  17  18
ENDBRANCH   1  16
BRANCH   3  21
ATOM     21  N2  UNL     1     150.076 153.690 155.592  0.00  0.00    -0.326 N 
ATOM     22  H6  UNL     1     150.625 152.828 155.636  0.00  0.00    +0.148 HD
BRANCH  21  23
ATOM     23  C8  UNL     1     148.990 153.498 154.619  0.00  0.00    +0.130 C 
BRANCH  23  24
ATOM     24  C9  UNL     1     149.037 152.135 153.914  0.00  0.00    +0.174 C 
BRANCH  24  25
ATOM     25  O1  UNL     1     150.061 152.115 152.925  0.00  0.00    -0.393 OA
ATOM     26  H11 UNL     1     149.662 152.402 152.085  0.00  0.00    +0.209 HD
ENDBRANCH  24  25
ENDBRANCH  23  24
ENDBRANCH  21  23
ENDBRANCH   3  21
TORSDOF 6
ENDMDL
MODEL 4
REMARK VINA RESULT:    -6.842      1.689      2.023
REMARK INTER + INTRA:          -9.944
REMARK INTER:                  -9.003
REMARK INTRA:                  -0.940
REMARK UNBOUND:                -1.101
REMARK  Name = /home/vital/Documents/PhD_2021/Malaria_codes/data/pdb_ligands/ligand_441.pdb
REMARK  7 active torsions:
REMARK  status: ('A' for Active; 'I' for Inactive)
REMARK    1  A    between atoms: C1_1  and  C2_2
REMARK    2  A    between atoms: C5_6  and  C6_7
REMARK    3  A    between atoms: C7_9  and  N2_10
REMARK    4  A    between atoms: N2_10  and  C8_11
REMARK    5  A    between atoms: C8_11  and  C9_12
REMARK    6  A    between atoms: C9_12  and  O1_13
REMARK    7  A    between atoms: C16_21  and  N4_22
REMARK                            x       y       z     vdW  Elec       q    Type
REMARK                         _______ _______ _______ _____ _____    ______ ____
ROOT
ATOM      1  C6  UNL     1     151.696 159.069 158.114  0.00  0.00    +0.164 A 
ATOM      2  N1  UNL     1     151.854 160.391 157.937  0.00  0.00    -0.212 NA
ATOM      3  C7  UNL     1     151.814 161.157 159.037  0.00  0.00    +0.130 A 
ATOM      4  C10 UNL     1     151.588 160.641 160.321  0.00  0.00    +0.040 A 
ATOM      5  C11 UNL     1     151.458 161.413 161.502  0.00  0.00    +0.013 A 
ATOM      6  C12 UNL     1     151.239 160.803 162.735  0.00  0.00    +0.001 A 
ATOM      7  C13 UNL     1     151.136 159.420 162.797  0.00  0.00    +0.002 A 
ATOM      8  C14 UNL     1     151.242 158.662 161.628  0.00  0.00    +0.028 A 
ATOM      9  C15 UNL     1     151.457 159.250 160.386  0.00  0.00    +0.077 A 
ATOM     10  N3  UNL     1     151.527 158.466 159.306  0.00  0.00    -0.227 NA
ENDROOT
BRANCH   1  16
ATOM     11  C1  UNL     1     150.882 155.388 155.123  0.00  0.00    +0.019 C 
ATOM     12  C2  UNL     1     151.986 156.400 155.419  0.00  0.00    +0.072 C 
ATOM     13  C3  UNL     1     151.807 157.693 154.681  0.00  0.00    +0.028 C 
ATOM     14 CL1  UNL     1     151.835 157.800 152.990  0.00  0.00    -0.088 Cl
ATOM     15  C4  UNL     1     151.675 158.712 155.535  0.00  0.00    +0.029 C 
ATOM     16  C5  UNL     1     151.766 158.224 156.905  0.00  0.00    +0.037 C 
ATOM     17  C16 UNL     1     151.952 156.882 156.872  0.00  0.00    +0.020 C 
BRANCH  17  18
ATOM     18  N4  UNL     1     152.107 155.990 157.911  0.00  0.00    -0.360 N 
ATOM     19  H16 UNL     1     153.000 155.504 157.901  0.00  0.00    +0.142 HD
ATOM     20  H17 UNL     1     151.919 156.437 158.814  0.00  0.00    +0.142 HD
ENDBRANCH  17  18
ENDBRANCH   1  16
BRANCH   3  21
ATOM     21  N2  UNL     1     152.034 162.524 158.792  0.00  0.00    -0.326 N 
ATOM     22  H6  UNL     1     151.687 162.977 159.641  0.00  0.00    +0.148 HD
BRANCH  21  23
ATOM     23  C8  UNL     1     151.271 163.039 157.646  0.00  0.00    +0.130 C 
BRANCH  23  24
ATOM     24  C9  UNL     1     152.158 163.604 156.527  0.00  0.00    +0.174 C 
BRANCH  24  25
ATOM     25  O1  UNL     1     152.730 162.550 155.759  0.00  0.00    -0.393 OA
ATOM     26  H11 UNL     1     152.027 161.899 155.586  0.00  0.00    +0.209 HD
ENDBRANCH  24  25
ENDBRANCH  23  24
ENDBRANCH  21  23
ENDBRANCH   3  21
TORSDOF 6
ENDMDL
MODEL 5
REMARK VINA RESULT:    -6.670      2.397      5.711
REMARK INTER + INTRA:          -9.721
REMARK INTER:                  -8.510
REMARK INTRA:                  -1.211
REMARK UNBOUND:                -1.101
REMARK  Name = /home/vital/Documents/PhD_2021/Malaria_codes/data/pdb_ligands/ligand_441.pdb
REMARK  7 active torsions:
REMARK  status: ('A' for Active; 'I' for Inactive)
REMARK    1  A    between atoms: C1_1  and  C2_2
REMARK    2  A    between atoms: C5_6  and  C6_7
REMARK    3  A    between atoms: C7_9  and  N2_10
REMARK    4  A    between atoms: N2_10  and  C8_11
REMARK    5  A    between atoms: C8_11  and  C9_12
REMARK    6  A    between atoms: C9_12  and  O1_13
REMARK    7  A    between atoms: C16_21  and  N4_22
REMARK                            x       y       z     vdW  Elec       q    Type
REMARK                         _______ _______ _______ _____ _____    ______ ____
ROOT
ATOM      1  C6  UNL     1     151.572 159.361 160.221  0.00  0.00    +0.164 A 
ATOM      2  N1  UNL     1     152.038 160.336 159.423  0.00  0.00    -0.212 NA
ATOM      3  C7  UNL     1     151.985 160.113 158.102  0.00  0.00    +0.130 A 
ATOM      4  C10 UNL     1     151.502 158.920 157.546  0.00  0.00    +0.040 A 
ATOM      5  C11 UNL     1     151.496 158.603 156.165  0.00  0.00    +0.013 A 
ATOM      6  C12 UNL     1     150.988 157.388 155.712  0.00  0.00    +0.001 A 
ATOM      7  C13 UNL     1     150.493 156.476 156.632  0.00  0.00    +0.002 A 
ATOM      8  C14 UNL     1     150.519 156.781 157.996  0.00  0.00    +0.028 A 
ATOM      9  C15 UNL     1     151.024 157.985 158.471  0.00  0.00    +0.077 A 
ATOM     10  N3  UNL     1     151.039 158.202 159.790  0.00  0.00    -0.227 NA
ENDROOT
BRANCH   1  16
ATOM     11  C1  UNL     1     150.502 161.305 164.491  0.00  0.00    +0.019 C 
ATOM     12  C2  UNL     1     151.697 160.655 163.795  0.00  0.00    +0.072 C 
ATOM     13  C3  UNL     1     151.699 159.160 163.913  0.00  0.00    +0.028 C 
ATOM     14 CL1  UNL     1     151.823 158.353 165.399  0.00  0.00    -0.088 Cl
ATOM     15  C4  UNL     1     151.639 158.590 162.707  0.00  0.00    +0.029 C 
ATOM     16  C5  UNL     1     151.607 159.618 161.674  0.00  0.00    +0.037 C 
ATOM     17  C16 UNL     1     151.643 160.832 162.276  0.00  0.00    +0.020 C 
BRANCH  17  18
ATOM     18  N4  UNL     1     151.647 162.090 161.715  0.00  0.00    -0.360 N 
ATOM     19  H16 UNL     1     152.543 162.566 161.784  0.00  0.00    +0.142 HD
ATOM     20  H17 UNL     1     151.292 162.069 160.754  0.00  0.00    +0.142 HD
ENDBRANCH  17  18
ENDBRANCH   1  16
BRANCH   3  21
ATOM     21  N2  UNL     1     152.442 161.188 157.320  0.00  0.00    -0.326 N 
ATOM     22  H6  UNL     1     153.281 161.502 157.813  0.00  0.00    +0.148 HD
BRANCH  21  23
ATOM     23  C8  UNL     1     151.492 162.309 157.262  0.00  0.00    +0.130 C 
BRANCH  23  24
ATOM     24  C9  UNL     1     152.038 163.604 157.882  0.00  0.00    +0.174 C 
BRANCH  24  25
ATOM     25  O1  UNL     1     152.501 163.369 159.208  0.00  0.00    -0.393 OA
ATOM     26  H11 UNL     1     153.129 164.080 159.430  0.00  0.00    +0.209 HD
ENDBRANCH  24  25
ENDBRANCH  23  24
ENDBRANCH  21  23
ENDBRANCH   3  21
TORSDOF 6
ENDMDL
MODEL 6
REMARK VINA RESULT:    -6.564      3.004      6.517
REMARK INTER + INTRA:          -9.584
REMARK INTER:                  -8.898
REMARK INTRA:                  -0.685
REMARK UNBOUND:                -1.101
REMARK  Name = /home/vital/Documents/PhD_2021/Malaria_codes/data/pdb_ligands/ligand_441.pdb
REMARK  7 active torsions:
REMARK  status: ('A' for Active; 'I' for Inactive)
REMARK    1  A    between atoms: C1_1  and  C2_2
REMARK    2  A    between atoms: C5_6  and  C6_7
REMARK    3  A    between atoms: C7_9  and  N2_10
REMARK    4  A    between atoms: N2_10  and  C8_11
REMARK    5  A    between atoms: C8_11  and  C9_12
REMARK    6  A    between atoms: C9_12  and  O1_13
REMARK    7  A    between atoms: C16_21  and  N4_22
REMARK                            x       y       z     vdW  Elec       q    Type
REMARK                         _______ _______ _______ _____ _____    ______ ____
ROOT
ATOM      1  C6  UNL     1     151.140 157.839 157.849  0.00  0.00    +0.164 A 
ATOM      2  N1  UNL     1     151.462 158.034 156.559  0.00  0.00    -0.212 NA
ATOM      3  C7  UNL     1     151.357 156.977 155.743  0.00  0.00    +0.130 A 
ATOM      4  C10 UNL     1     150.965 155.705 156.185  0.00  0.00    +0.040 A 
ATOM      5  C11 UNL     1     150.913 154.538 155.381  0.00  0.00    +0.013 A 
ATOM      6  C12 UNL     1     150.504 153.319 155.916  0.00  0.00    +0.001 A 
ATOM      7  C13 UNL     1     150.154 153.251 157.257  0.00  0.00    +0.002 A 
ATOM      8  C14 UNL     1     150.226 154.397 158.053  0.00  0.00    +0.028 A 
ATOM      9  C15 UNL     1     150.635 155.624 157.542  0.00  0.00    +0.077 A 
ATOM     10  N3  UNL     1     150.702 156.675 158.365  0.00  0.00    -0.227 NA
ENDROOT
BRANCH   1  16
ATOM     11  C1  UNL     1     151.994 162.340 159.320  0.00  0.00    +0.019 C 
ATOM     12  C2  UNL     1     151.979 160.928 159.902  0.00  0.00    +0.072 C 
ATOM     13  C3  UNL     1     150.618 160.501 160.364  0.00  0.00    +0.028 C 
ATOM     14 CL1  UNL     1     149.782 161.283 161.615  0.00  0.00    -0.088 Cl
ATOM     15  C4  UNL     1     150.207 159.423 159.693  0.00  0.00    +0.029 C 
ATOM     16  C5  UNL     1     151.232 159.011 158.742  0.00  0.00    +0.037 C 
ATOM     17  C16 UNL     1     152.279 159.865 158.842  0.00  0.00    +0.020 C 
BRANCH  17  18
ATOM     18  N4  UNL     1     153.476 159.872 158.161  0.00  0.00    -0.360 N 
ATOM     19  H16 UNL     1     153.531 160.584 157.438  0.00  0.00    +0.142 HD
ATOM     20  H17 UNL     1     154.270 159.914 158.808  0.00  0.00    +0.142 HD
ENDBRANCH  17  18
ENDBRANCH   1  16
BRANCH   3  21
ATOM     21  N2  UNL     1     151.660 157.257 154.399  0.00  0.00    -0.326 N 
ATOM     22  H6  UNL     1     151.212 156.491 153.889  0.00  0.00    +0.148 HD
BRANCH  21  23
ATOM     23  C8  UNL     1     153.101 157.225 154.110  0.00  0.00    +0.130 C 
BRANCH  23  24
ATOM     24  C9  UNL     1     153.455 157.764 152.716  0.00  0.00    +0.174 C 
BRANCH  24  25
ATOM     25  O1  UNL     1     154.424 156.931 152.086  0.00  0.00    -0.393 OA
ATOM     26  H11 UNL     1     153.966 156.424 151.392  0.00  0.00    +0.209 HD
ENDBRANCH  24  25
ENDBRANCH  23  24
ENDBRANCH  21  23
ENDBRANCH   3  21
TORSDOF 6
ENDMDL
MODEL 7
REMARK VINA RESULT:    -6.464      5.162      7.701
REMARK INTER + INTRA:          -9.455
REMARK INTER:                  -8.703
REMARK INTRA:                  -0.752
REMARK UNBOUND:                -1.101
REMARK  Name = /home/vital/Documents/PhD_2021/Malaria_codes/data/pdb_ligands/ligand_441.pdb
REMARK  7 active torsions:
REMARK  status: ('A' for Active; 'I' for Inactive)
REMARK    1  A    between atoms: C1_1  and  C2_2
REMARK    2  A    between atoms: C5_6  and  C6_7
REMARK    3  A    between atoms: C7_9  and  N2_10
REMARK    4  A    between atoms: N2_10  and  C8_11
REMARK    5  A    between atoms: C8_11  and  C9_12
REMARK    6  A    between atoms: C9_12  and  O1_13
REMARK    7  A    between atoms: C16_21  and  N4_22
REMARK                            x       y       z     vdW  Elec       q    Type
REMARK                         _______ _______ _______ _____ _____    ______ ____
ROOT
ATOM      1  C6  UNL     1     152.597 155.608 154.214  0.00  0.00    +0.164 A 
ATOM      2  N1  UNL     1     151.584 154.827 154.623  0.00  0.00    -0.212 NA
ATOM      3  C7  UNL     1     150.697 155.378 155.463  0.00  0.00    +0.130 A 
ATOM      4  C10 UNL     1     150.807 156.694 155.938  0.00  0.00    +0.040 A 
ATOM      5  C11 UNL     1     149.943 157.298 156.885  0.00  0.00    +0.013 A 
ATOM      6  C12 UNL     1     150.135 158.616 157.289  0.00  0.00    +0.001 A 
ATOM      7  C13 UNL     1     151.196 159.339 156.761  0.00  0.00    +0.002 A 
ATOM      8  C14 UNL     1     152.060 158.734 155.844  0.00  0.00    +0.028 A 
ATOM      9  C15 UNL     1     151.890 157.419 155.429  0.00  0.00    +0.077 A 
ATOM     10  N3  UNL     1     152.766 156.897 154.566  0.00  0.00    -0.227 NA
ENDROOT
BRANCH   1  16
ATOM     11  C1  UNL     1     154.377 152.699 150.818  0.00  0.00    +0.019 C 
ATOM     12  C2  UNL     1     154.876 153.489 152.027  0.00  0.00    +0.072 C 
ATOM     13  C3  UNL     1     155.217 154.911 151.696  0.00  0.00    +0.028 C 
ATOM     14 CL1  UNL     1     156.448 155.334 150.611  0.00  0.00    -0.088 Cl
ATOM     15  C4  UNL     1     154.458 155.756 152.399  0.00  0.00    +0.029 C 
ATOM     16  C5  UNL     1     153.560 155.008 153.269  0.00  0.00    +0.037 C 
ATOM     17  C16 UNL     1     153.781 153.684 153.079  0.00  0.00    +0.020 C 
BRANCH  17  18
ATOM     18  N4  UNL     1     153.186 152.598 153.683  0.00  0.00    -0.360 N 
ATOM     19  H16 UNL     1     153.564 151.705 153.380  0.00  0.00    +0.142 HD
ATOM     20  H17 UNL     1     153.189 152.694 154.704  0.00  0.00    +0.142 HD
ENDBRANCH  17  18
ENDBRANCH   1  16
BRANCH   3  21
ATOM     21  N2  UNL     1     149.634 154.527 155.816  0.00  0.00    -0.326 N 
ATOM     22  H6  UNL     1     149.471 154.746 156.802  0.00  0.00    +0.148 HD
BRANCH  21  23
ATOM     23  C8  UNL     1     149.973 153.101 155.708  0.00  0.00    +0.130 C 
BRANCH  23  24
ATOM     24  C9  UNL     1     149.566 152.282 156.942  0.00  0.00    +0.174 C 
BRANCH  24  25
ATOM     25  O1  UNL     1     149.013 153.128 157.946  0.00  0.00    -0.393 OA
ATOM     26  H11 UNL     1     149.596 153.079 158.724  0.00  0.00    +0.209 HD
ENDBRANCH  24  25
ENDBRANCH  23  24
ENDBRANCH  21  23
ENDBRANCH   3  21
TORSDOF 6
ENDMDL
MODEL 8
REMARK VINA RESULT:    -6.374      2.647      4.185
REMARK INTER + INTRA:          -9.339
REMARK INTER:                  -8.260
REMARK INTRA:                  -1.079
REMARK UNBOUND:                -1.101
REMARK  Name = /home/vital/Documents/PhD_2021/Malaria_codes/data/pdb_ligands/ligand_441.pdb
REMARK  7 active torsions:
REMARK  status: ('A' for Active; 'I' for Inactive)
REMARK    1  A    between atoms: C1_1  and  C2_2
REMARK    2  A    between atoms: C5_6  and  C6_7
REMARK    3  A    between atoms: C7_9  and  N2_10
REMARK    4  A    between atoms: N2_10  and  C8_11
REMARK    5  A    between atoms: C8_11  and  C9_12
REMARK    6  A    between atoms: C9_12  and  O1_13
REMARK    7  A    between atoms: C16_21  and  N4_22
REMARK                            x       y       z     vdW  Elec       q    Type
REMARK                         _______ _______ _______ _____ _____    ______ ____
ROOT
ATOM      1  C6  UNL     1     151.305 157.250 158.796  0.00  0.00    +0.164 A 
ATOM      2  N1  UNL     1     151.116 157.566 157.504  0.00  0.00    -0.212 NA
ATOM      3  C7  UNL     1     151.228 158.860 157.174  0.00  0.00    +0.130 A 
ATOM      4  C10 UNL     1     151.497 159.867 158.112  0.00  0.00    +0.040 A 
ATOM      5  C11 UNL     1     151.549 161.255 157.830  0.00  0.00    +0.013 A 
ATOM      6  C12 UNL     1     151.829 162.179 158.834  0.00  0.00    +0.001 A 
ATOM      7  C13 UNL     1     152.050 161.727 160.128  0.00  0.00    +0.002 A 
ATOM      8  C14 UNL     1     151.978 160.360 160.408  0.00  0.00    +0.028 A 
ATOM      9  C15 UNL     1     151.695 159.420 159.423  0.00  0.00    +0.077 A 
ATOM     10  N3  UNL     1     151.620 158.131 159.765  0.00  0.00    -0.227 NA
ENDROOT
BRANCH   1  16
ATOM     11  C1  UNL     1     152.537 152.626 159.303  0.00  0.00    +0.019 C 
ATOM     12  C2  UNL     1     151.272 153.460 159.109  0.00  0.00    +0.072 C 
ATOM     13  C3  UNL     1     150.705 153.971 160.399  0.00  0.00    +0.028 C 
ATOM     14 CL1  UNL     1     150.129 152.947 161.622  0.00  0.00    -0.088 Cl
ATOM     15  C4  UNL     1     150.683 155.305 160.412  0.00  0.00    +0.029 C 
ATOM     16  C5  UNL     1     151.207 155.821 159.153  0.00  0.00    +0.037 C 
ATOM     17  C16 UNL     1     151.555 154.771 158.370  0.00  0.00    +0.020 C 
BRANCH  17  18
ATOM     18  N4  UNL     1     152.078 154.760 157.096  0.00  0.00    -0.360 N 
ATOM     19  H16 UNL     1     151.418 155.054 156.381  0.00  0.00    +0.142 HD
ATOM     20  H17 UNL     1     152.956 155.287 157.052  0.00  0.00    +0.142 HD
ENDBRANCH  17  18
ENDBRANCH   1  16
BRANCH   3  21
ATOM     21  N2  UNL     1     151.068 159.119 155.802  0.00  0.00    -0.326 N 
ATOM     22  H6  UNL     1     150.078 159.361 155.719  0.00  0.00    +0.148 HD
BRANCH  21  23
ATOM     23  C8  UNL     1     151.332 157.946 154.955  0.00  0.00    +0.130 C 
BRANCH  23  24
ATOM     24  C9  UNL     1     152.809 157.797 154.563  0.00  0.00    +0.174 C 
BRANCH  24  25
ATOM     25  O1  UNL     1     153.550 157.192 155.618  0.00  0.00    -0.393 OA
ATOM     26  H11 UNL     1     153.972 157.908 156.127  0.00  0.00    +0.209 HD
ENDBRANCH  24  25
ENDBRANCH  23  24
ENDBRANCH  21  23
ENDBRANCH   3  21
TORSDOF 6
ENDMDL
MODEL 9
REMARK VINA RESULT:    -6.366      4.646      6.763
REMARK INTER + INTRA:          -9.329
REMARK INTER:                  -8.735
REMARK INTRA:                  -0.593
REMARK UNBOUND:                -1.101
REMARK  Name = /home/vital/Documents/PhD_2021/Malaria_codes/data/pdb_ligands/ligand_441.pdb
REMARK  7 active torsions:
REMARK  status: ('A' for Active; 'I' for Inactive)
REMARK    1  A    between atoms: C1_1  and  C2_2
REMARK    2  A    between atoms: C5_6  and  C6_7
REMARK    3  A    between atoms: C7_9  and  N2_10
REMARK    4  A    between atoms: N2_10  and  C8_11
REMARK    5  A    between atoms: C8_11  and  C9_12
REMARK    6  A    between atoms: C9_12  and  O1_13
REMARK    7  A    between atoms: C16_21  and  N4_22
REMARK                            x       y       z     vdW  Elec       q    Type
REMARK                         _______ _______ _______ _____ _____    ______ ____
ROOT
ATOM      1  C6  UNL     1     150.579 154.836 155.419  0.00  0.00    +0.164 A 
ATOM      2  N1  UNL     1     151.594 155.264 154.650  0.00  0.00    -0.212 NA
ATOM      3  C7  UNL     1     151.978 156.539 154.809  0.00  0.00    +0.130 A 
ATOM      4  C10 UNL     1     151.351 157.420 155.703  0.00  0.00    +0.040 A 
ATOM      5  C11 UNL     1     151.665 158.794 155.853  0.00  0.00    +0.013 A 
ATOM      6  C12 UNL     1     150.986 159.586 156.775  0.00  0.00    +0.001 A 
ATOM      7  C13 UNL     1     149.982 159.017 157.546  0.00  0.00    +0.002 A 
ATOM      8  C14 UNL     1     149.659 157.668 157.381  0.00  0.00    +0.028 A 
ATOM      9  C15 UNL     1     150.321 156.859 156.465  0.00  0.00    +0.077 A 
ATOM     10  N3  UNL     1     149.946 155.582 156.344  0.00  0.00    -0.227 NA
ENDROOT
BRANCH   1  16
ATOM     11  C1  UNL     1     149.314 150.342 156.586  0.00  0.00    +0.019 C 
ATOM     12  C2  UNL     1     150.015 151.075 155.443  0.00  0.00    +0.072 C 
ATOM     13  C3  UNL     1     149.059 151.614 154.422  0.00  0.00    +0.028 C 
ATOM     14 CL1  UNL     1     148.053 150.621 153.485  0.00  0.00    -0.088 Cl
ATOM     15  C4  UNL     1     149.156 152.943 154.337  0.00  0.00    +0.029 C 
ATOM     16  C5  UNL     1     150.175 153.425 155.261  0.00  0.00    +0.037 C 
ATOM     17  C16 UNL     1     150.698 152.360 155.917  0.00  0.00    +0.020 C 
BRANCH  17  18
ATOM     18  N4  UNL     1     151.692 152.316 156.869  0.00  0.00    -0.360 N 
ATOM     19  H16 UNL     1     151.626 151.515 157.492  0.00  0.00    +0.142 HD
ATOM     20  H17 UNL     1     152.619 152.399 156.441  0.00  0.00    +0.142 HD
ENDBRANCH  17  18
ENDBRANCH   1  16
BRANCH   3  21
ATOM     21  N2  UNL     1     153.074 156.912 154.013  0.00  0.00    -0.326 N 
ATOM     22  H6  UNL     1     152.677 157.599 153.367  0.00  0.00    +0.148 HD
BRANCH  21  23
ATOM     23  C8  UNL     1     153.625 155.800 153.225  0.00  0.00    +0.130 C 
BRANCH  23  24
ATOM     24  C9  UNL     1     153.966 156.188 151.778  0.00  0.00    +0.174 C 
BRANCH  24  25
ATOM     25  O1  UNL     1     152.786 156.534 151.059  0.00  0.00    -0.393 OA
ATOM     26  H11 UNL     1     152.566 157.455 151.284  0.00  0.00    +0.209 HD
ENDBRANCH  24  25
ENDBRANCH  23  24
ENDBRANCH  21  23
ENDBRANCH   3  21
TORSDOF 6
ENDMDL
