MODEL 1
REMARK VINA RESULT:    -8.584      0.000      0.000
REMARK INTER + INTRA:         -12.896
REMARK INTER:                 -12.096
REMARK INTRA:                  -0.800
REMARK UNBOUND:                -0.800
REMARK  Name = /home/vital/Documents/PhD_2021/Malaria_codes/data/pdb_ligands/ligand_447.pdb
REMARK  10 active torsions:
REMARK  status: ('A' for Active; 'I' for Inactive)
REMARK    1  A    between atoms: C1_1  and  C2_2
REMARK    2  A    between atoms: C3_3  and  C4_4
REMARK    3  A    between atoms: C4_4  and  S1_5
REMARK    4  A    between atoms: S1_5  and  C5_8
REMARK    5  A    between atoms: C9_12  and  C10_13
REMARK    6  A    between atoms: C12_18  and  C13_19
REMARK    7  A    between atoms: C16_22  and  O4_23
REMARK    8  A    between atoms: O4_23  and  C17_24
REMARK    9  A    between atoms: C17_24  and  C18_25
REMARK   10  A    between atoms: C21_28  and  C22_29
REMARK                            x       y       z     vdW  Elec       q    Type
REMARK                         _______ _______ _______ _____ _____    ______ ____
ROOT
ATOM      1  C10 UNL     1     152.035 155.945 155.789  0.00  0.00    +0.250 C 
ATOM      2  O3  UNL     1     151.534 154.836 155.924  0.00  0.00    -0.270 OA
ATOM      3  N1  UNL     1     152.001 156.990 156.683  0.00  0.00    -0.261 N 
ATOM      4  C11 UNL     1     151.452 156.984 157.940  0.00  0.00    +0.165 A 
ATOM      5  N2  UNL     1     151.414 158.084 158.652  0.00  0.00    -0.224 NA
ATOM      6  C12 UNL     1     150.851 157.822 159.893  0.00  0.00    +0.083 A 
ATOM      7  C21 UNL     1     150.429 156.515 160.081  0.00  0.00    +0.016 A 
ATOM      8  C22 UNL     1     149.742 155.866 161.231  0.00  0.00    +0.054 C 
ATOM      9  S2  UNL     1     150.818 155.594 158.683  0.00  0.00    -0.057 S 
ATOM     10  H9  UNL     1     152.338 157.905 156.425  0.00  0.00    +0.157 HD
ENDROOT
BRANCH   1  15
ATOM     11  C5  UNL     1     153.979 155.591 152.536  0.00  0.00    +0.090 A 
ATOM     12  C6  UNL     1     153.971 156.909 152.070  0.00  0.00    +0.027 A 
ATOM     13  C7  UNL     1     153.344 157.897 152.826  0.00  0.00    +0.003 A 
ATOM     14  C8  UNL     1     152.729 157.565 154.035  0.00  0.00    +0.013 A 
ATOM     15  C9  UNL     1     152.732 156.241 154.501  0.00  0.00    +0.039 A 
ATOM     16  C23 UNL     1     153.350 155.243 153.737  0.00  0.00    +0.040 A 
BRANCH  11  17
ATOM     17  S1  UNL     1     154.754 154.325 151.541  0.00  0.00    +0.008 S 
ATOM     18  O1  UNL     1     153.859 154.086 150.422  0.00  0.00    -0.168 OA
ATOM     19  O2  UNL     1     155.115 153.254 152.454  0.00  0.00    -0.168 OA
BRANCH  17  20
ATOM     20  C4  UNL     1     156.242 155.147 150.968  0.00  0.00    +0.260 C 
BRANCH  20  23
ATOM     21  C1  UNL     1     158.702 152.385 149.127  0.00  0.00    +0.106 C 
ATOM     22  C2  UNL     1     157.822 153.361 149.774  0.00  0.00    -0.104 C 
ATOM     23  C3  UNL     1     157.111 154.163 150.315  0.00  0.00    -0.079 C 
ENDBRANCH  20  23
ENDBRANCH  17  20
ENDBRANCH  11  17
ENDBRANCH   1  15
BRANCH   6  24
ATOM     24  C13 UNL     1     150.708 158.892 160.867  0.00  0.00    +0.001 A 
ATOM     25  C14 UNL     1     151.411 158.878 162.078  0.00  0.00    +0.013 A 
ATOM     26  C15 UNL     1     151.266 159.924 162.999  0.00  0.00    +0.046 A 
ATOM     27  C16 UNL     1     150.424 160.999 162.715  0.00  0.00    +0.121 A 
ATOM     28  C19 UNL     1     149.730 161.017 161.503  0.00  0.00    +0.046 A 
ATOM     29  C20 UNL     1     149.875 159.977 160.580  0.00  0.00    +0.013 A 
BRANCH  27  30
ATOM     30  O4  UNL     1     150.182 162.075 163.521  0.00  0.00    -0.492 OA
BRANCH  30  31
ATOM     31  C17 UNL     1     151.237 163.003 163.770  0.00  0.00    +0.225 C 
ATOM     32  C18 UNL     1     151.595 163.029 165.247  0.00  0.00    +0.048 C 
ENDBRANCH  30  31
ENDBRANCH  27  30
ENDBRANCH   6  24
TORSDOF 7
ENDMDL
MODEL 2
REMARK VINA RESULT:    -8.052      2.258     11.730
REMARK INTER + INTRA:         -12.147
REMARK INTER:                 -11.531
REMARK INTRA:                  -0.616
REMARK UNBOUND:                -0.800
REMARK  Name = /home/vital/Documents/PhD_2021/Malaria_codes/data/pdb_ligands/ligand_447.pdb
REMARK  10 active torsions:
REMARK  status: ('A' for Active; 'I' for Inactive)
REMARK    1  A    between atoms: C1_1  and  C2_2
REMARK    2  A    between atoms: C3_3  and  C4_4
REMARK    3  A    between atoms: C4_4  and  S1_5
REMARK    4  A    between atoms: S1_5  and  C5_8
REMARK    5  A    between atoms: C9_12  and  C10_13
REMARK    6  A    between atoms: C12_18  and  C13_19
REMARK    7  A    between atoms: C16_22  and  O4_23
REMARK    8  A    between atoms: O4_23  and  C17_24
REMARK    9  A    between atoms: C17_24  and  C18_25
REMARK   10  A    between atoms: C21_28  and  C22_29
REMARK                            x       y       z     vdW  Elec       q    Type
REMARK                         _______ _______ _______ _____ _____    ______ ____
ROOT
ATOM      1  C10 UNL     1     151.196 157.911 157.985  0.00  0.00    +0.250 C 
ATOM      2  O3  UNL     1     150.410 158.749 157.565  0.00  0.00    -0.270 OA
ATOM      3  N1  UNL     1     152.009 157.085 157.243  0.00  0.00    -0.261 N 
ATOM      4  C11 UNL     1     152.153 157.075 155.879  0.00  0.00    +0.165 A 
ATOM      5  N2  UNL     1     152.901 156.169 155.298  0.00  0.00    -0.224 NA
ATOM      6  C12 UNL     1     152.922 156.385 153.928  0.00  0.00    +0.083 A 
ATOM      7  C21 UNL     1     152.142 157.443 153.489  0.00  0.00    +0.016 A 
ATOM      8  C22 UNL     1     151.865 157.950 152.117  0.00  0.00    +0.054 C 
ATOM      9  S2  UNL     1     151.427 158.213 154.849  0.00  0.00    -0.057 S 
ATOM     10  H9  UNL     1     152.530 156.340 157.681  0.00  0.00    +0.157 HD
ENDROOT
BRANCH   1  15
ATOM     11  C5  UNL     1     151.356 158.514 161.740  0.00  0.00    +0.090 A 
ATOM     12  C6  UNL     1     151.370 157.203 162.225  0.00  0.00    +0.027 A 
ATOM     13  C7  UNL     1     151.340 156.141 161.325  0.00  0.00    +0.003 A 
ATOM     14  C8  UNL     1     151.292 156.391 159.951  0.00  0.00    +0.013 A 
ATOM     15  C9  UNL     1     151.272 157.707 159.463  0.00  0.00    +0.039 A 
ATOM     16  C23 UNL     1     151.290 158.778 160.366  0.00  0.00    +0.040 A 
BRANCH  11  17
ATOM     17  S1  UNL     1     151.357 159.869 162.904  0.00  0.00    +0.008 S 
ATOM     18  O1  UNL     1     149.991 160.356 162.959  0.00  0.00    -0.168 OA
ATOM     19  O2  UNL     1     152.449 160.743 162.511  0.00  0.00    -0.168 OA
BRANCH  17  20
ATOM     20  C4  UNL     1     151.775 159.048 164.444  0.00  0.00    +0.260 C 
BRANCH  20  23
ATOM     21  C1  UNL     1     154.266 161.507 166.641  0.00  0.00    +0.106 C 
ATOM     22  C2  UNL     1     153.391 160.631 165.857  0.00  0.00    -0.104 C 
ATOM     23  C3  UNL     1     152.663 159.917 165.224  0.00  0.00    -0.079 C 
ENDBRANCH  20  23
ENDBRANCH  17  20
ENDBRANCH  11  17
ENDBRANCH   1  15
BRANCH   6  24
ATOM     24  C13 UNL     1     153.697 155.508 153.065  0.00  0.00    +0.001 A 
ATOM     25  C14 UNL     1     154.530 156.015 152.062  0.00  0.00    +0.013 A 
ATOM     26  C15 UNL     1     155.275 155.152 151.248  0.00  0.00    +0.046 A 
ATOM     27  C16 UNL     1     155.202 153.772 151.434  0.00  0.00    +0.121 A 
ATOM     28  C19 UNL     1     154.377 153.266 152.442  0.00  0.00    +0.046 A 
ATOM     29  C20 UNL     1     153.635 154.124 153.258  0.00  0.00    +0.013 A 
BRANCH  27  30
ATOM     30  O4  UNL     1     155.862 152.820 150.711  0.00  0.00    -0.492 OA
BRANCH  30  31
ATOM     31  C17 UNL     1     157.249 152.601 150.960  0.00  0.00    +0.225 C 
ATOM     32  C18 UNL     1     158.093 153.120 149.808  0.00  0.00    +0.048 C 
ENDBRANCH  30  31
ENDBRANCH  27  30
ENDBRANCH   6  24
TORSDOF 7
ENDMDL
MODEL 3
REMARK VINA RESULT:    -8.033      2.933      3.950
REMARK INTER + INTRA:         -12.119
REMARK INTER:                 -11.296
REMARK INTRA:                  -0.823
REMARK UNBOUND:                -0.800
REMARK  Name = /home/vital/Documents/PhD_2021/Malaria_codes/data/pdb_ligands/ligand_447.pdb
REMARK  10 active torsions:
REMARK  status: ('A' for Active; 'I' for Inactive)
REMARK    1  A    between atoms: C1_1  and  C2_2
REMARK    2  A    between atoms: C3_3  and  C4_4
REMARK    3  A    between atoms: C4_4  and  S1_5
REMARK    4  A    between atoms: S1_5  and  C5_8
REMARK    5  A    between atoms: C9_12  and  C10_13
REMARK    6  A    between atoms: C12_18  and  C13_19
REMARK    7  A    between atoms: C16_22  and  O4_23
REMARK    8  A    between atoms: O4_23  and  C17_24
REMARK    9  A    between atoms: C17_24  and  C18_25
REMARK   10  A    between atoms: C21_28  and  C22_29
REMARK                            x       y       z     vdW  Elec       q    Type
REMARK                         _______ _______ _______ _____ _____    ______ ____
ROOT
ATOM      1  C10 UNL     1     153.236 155.864 153.515  0.00  0.00    +0.250 C 
ATOM      2  O3  UNL     1     152.948 156.872 152.883  0.00  0.00    -0.270 OA
ATOM      3  N1  UNL     1     152.948 155.597 154.834  0.00  0.00    -0.261 N 
ATOM      4  C11 UNL     1     152.222 156.379 155.696  0.00  0.00    +0.165 A 
ATOM      5  N2  UNL     1     152.100 156.039 156.956  0.00  0.00    -0.224 NA
ATOM      6  C12 UNL     1     151.296 156.957 157.615  0.00  0.00    +0.083 A 
ATOM      7  C21 UNL     1     150.852 158.014 156.835  0.00  0.00    +0.016 A 
ATOM      8  C22 UNL     1     150.032 159.206 157.181  0.00  0.00    +0.054 C 
ATOM      9  S2  UNL     1     151.413 157.795 155.225  0.00  0.00    -0.057 S 
ATOM     10  H9  UNL     1     153.338 154.790 155.297  0.00  0.00    +0.157 HD
ENDROOT
BRANCH   1  15
ATOM     11  C5  UNL     1     155.717 154.069 151.254  0.00  0.00    +0.090 A 
ATOM     12  C6  UNL     1     155.483 152.735 151.600  0.00  0.00    +0.027 A 
ATOM     13  C7  UNL     1     154.514 152.436 152.555  0.00  0.00    +0.003 A 
ATOM     14  C8  UNL     1     153.789 153.465 153.159  0.00  0.00    +0.013 A 
ATOM     15  C9  UNL     1     154.026 154.806 152.816  0.00  0.00    +0.039 A 
ATOM     16  C23 UNL     1     155.009 155.111 151.866  0.00  0.00    +0.040 A 
BRANCH  11  17
ATOM     17  S1  UNL     1     156.987 154.443 150.055  0.00  0.00    +0.008 S 
ATOM     18  O1  UNL     1     157.984 153.395 150.182  0.00  0.00    -0.168 OA
ATOM     19  O2  UNL     1     157.337 155.839 150.256  0.00  0.00    -0.168 OA
BRANCH  17  20
ATOM     20  C4  UNL     1     156.109 154.266 148.501  0.00  0.00    +0.260 C 
BRANCH  20  23
ATOM     21  C1  UNL     1     156.853 150.502 146.969  0.00  0.00    +0.106 C 
ATOM     22  C2  UNL     1     156.588 151.840 147.502  0.00  0.00    -0.104 C 
ATOM     23  C3  UNL     1     156.370 152.931 147.954  0.00  0.00    -0.079 C 
ENDBRANCH  20  23
ENDBRANCH  17  20
ENDBRANCH  11  17
ENDBRANCH   1  15
BRANCH   6  24
ATOM     24  C13 UNL     1     151.007 156.788 159.030  0.00  0.00    +0.001 A 
ATOM     25  C14 UNL     1     150.261 155.701 159.500  0.00  0.00    +0.013 A 
ATOM     26  C15 UNL     1     150.002 155.552 160.869  0.00  0.00    +0.046 A 
ATOM     27  C16 UNL     1     150.494 156.483 161.783  0.00  0.00    +0.121 A 
ATOM     28  C19 UNL     1     151.246 157.562 161.314  0.00  0.00    +0.046 A 
ATOM     29  C20 UNL     1     151.510 157.713 159.950  0.00  0.00    +0.013 A 
BRANCH  27  30
ATOM     30  O4  UNL     1     150.310 156.466 163.136  0.00  0.00    -0.492 OA
BRANCH  30  31
ATOM     31  C17 UNL     1     151.392 156.846 163.985  0.00  0.00    +0.225 C 
ATOM     32  C18 UNL     1     151.285 156.158 165.336  0.00  0.00    +0.048 C 
ENDBRANCH  30  31
ENDBRANCH  27  30
ENDBRANCH   6  24
TORSDOF 7
ENDMDL
MODEL 4
REMARK VINA RESULT:    -7.975      2.402     11.454
REMARK INTER + INTRA:         -12.039
REMARK INTER:                 -11.427
REMARK INTRA:                  -0.612
REMARK UNBOUND:                -0.800
REMARK  Name = /home/vital/Documents/PhD_2021/Malaria_codes/data/pdb_ligands/ligand_447.pdb
REMARK  10 active torsions:
REMARK  status: ('A' for Active; 'I' for Inactive)
REMARK    1  A    between atoms: C1_1  and  C2_2
REMARK    2  A    between atoms: C3_3  and  C4_4
REMARK    3  A    between atoms: C4_4  and  S1_5
REMARK    4  A    between atoms: S1_5  and  C5_8
REMARK    5  A    between atoms: C9_12  and  C10_13
REMARK    6  A    between atoms: C12_18  and  C13_19
REMARK    7  A    between atoms: C16_22  and  O4_23
REMARK    8  A    between atoms: O4_23  and  C17_24
REMARK    9  A    between atoms: C17_24  and  C18_25
REMARK   10  A    between atoms: C21_28  and  C22_29
REMARK                            x       y       z     vdW  Elec       q    Type
REMARK                         _______ _______ _______ _____ _____    ______ ____
ROOT
ATOM      1  C10 UNL     1     150.917 158.626 159.151  0.00  0.00    +0.250 C 
ATOM      2  O3  UNL     1     149.960 157.968 159.538  0.00  0.00    -0.270 OA
ATOM      3  N1  UNL     1     151.701 158.387 158.046  0.00  0.00    -0.261 N 
ATOM      4  C11 UNL     1     151.531 157.397 157.112  0.00  0.00    +0.165 A 
ATOM      5  N2  UNL     1     152.411 157.233 156.154  0.00  0.00    -0.224 NA
ATOM      6  C12 UNL     1     152.007 156.203 155.317  0.00  0.00    +0.083 A 
ATOM      7  C21 UNL     1     150.832 155.570 155.691  0.00  0.00    +0.016 A 
ATOM      8  C22 UNL     1     150.115 154.410 155.095  0.00  0.00    +0.054 C 
ATOM      9  S2  UNL     1     150.199 156.345 157.089  0.00  0.00    -0.057 S 
ATOM     10  H9  UNL     1     152.543 158.917 157.884  0.00  0.00    +0.157 HD
ENDROOT
BRANCH   1  15
ATOM     11  C5  UNL     1     151.531 160.993 162.069  0.00  0.00    +0.090 A 
ATOM     12  C6  UNL     1     152.197 162.043 161.431  0.00  0.00    +0.027 A 
ATOM     13  C7  UNL     1     152.427 161.973 160.058  0.00  0.00    +0.003 A 
ATOM     14  C8  UNL     1     151.997 160.859 159.334  0.00  0.00    +0.013 A 
ATOM     15  C9  UNL     1     151.332 159.801 159.976  0.00  0.00    +0.039 A 
ATOM     16  C23 UNL     1     151.110 159.862 161.357  0.00  0.00    +0.040 A 
BRANCH  11  17
ATOM     17  S1  UNL     1     151.274 161.076 163.835  0.00  0.00    +0.008 S 
ATOM     18  O1  UNL     1     149.932 160.575 164.072  0.00  0.00    -0.168 OA
ATOM     19  O2  UNL     1     151.655 162.418 164.239  0.00  0.00    -0.168 OA
BRANCH  17  20
ATOM     20  C4  UNL     1     152.482 159.902 164.451  0.00  0.00    +0.260 C 
BRANCH  20  23
ATOM     21  C1  UNL     1     154.751 161.731 167.381  0.00  0.00    +0.106 C 
ATOM     22  C2  UNL     1     153.954 161.075 166.342  0.00  0.00    -0.104 C 
ATOM     23  C3  UNL     1     153.288 160.547 165.493  0.00  0.00    -0.079 C 
ENDBRANCH  20  23
ENDBRANCH  17  20
ENDBRANCH  11  17
ENDBRANCH   1  15
BRANCH   6  24
ATOM     24  C13 UNL     1     152.821 155.837 154.169  0.00  0.00    +0.001 A 
ATOM     25  C14 UNL     1     153.153 154.504 153.901  0.00  0.00    +0.013 A 
ATOM     26  C15 UNL     1     153.931 154.172 152.783  0.00  0.00    +0.046 A 
ATOM     27  C16 UNL     1     154.377 155.170 151.917  0.00  0.00    +0.121 A 
ATOM     28  C19 UNL     1     154.038 156.499 152.180  0.00  0.00    +0.046 A 
ATOM     29  C20 UNL     1     153.260 156.833 153.292  0.00  0.00    +0.013 A 
BRANCH  27  30
ATOM     30  O4  UNL     1     155.146 154.991 150.802  0.00  0.00    -0.492 OA
BRANCH  30  31
ATOM     31  C17 UNL     1     156.551 155.221 150.889  0.00  0.00    +0.225 C 
ATOM     32  C18 UNL     1     157.290 153.931 151.204  0.00  0.00    +0.048 C 
ENDBRANCH  30  31
ENDBRANCH  27  30
ENDBRANCH   6  24
TORSDOF 7
ENDMDL
MODEL 5
REMARK VINA RESULT:    -7.738      1.618      2.047
REMARK INTER + INTRA:         -11.704
REMARK INTER:                 -10.870
REMARK INTRA:                  -0.834
REMARK UNBOUND:                -0.800
REMARK  Name = /home/vital/Documents/PhD_2021/Malaria_codes/data/pdb_ligands/ligand_447.pdb
REMARK  10 active torsions:
REMARK  status: ('A' for Active; 'I' for Inactive)
REMARK    1  A    between atoms: C1_1  and  C2_2
REMARK    2  A    between atoms: C3_3  and  C4_4
REMARK    3  A    between atoms: C4_4  and  S1_5
REMARK    4  A    between atoms: S1_5  and  C5_8
REMARK    5  A    between atoms: C9_12  and  C10_13
REMARK    6  A    between atoms: C12_18  and  C13_19
REMARK    7  A    between atoms: C16_22  and  O4_23
REMARK    8  A    between atoms: O4_23  and  C17_24
REMARK    9  A    between atoms: C17_24  and  C18_25
REMARK   10  A    between atoms: C21_28  and  C22_29
REMARK                            x       y       z     vdW  Elec       q    Type
REMARK                         _______ _______ _______ _____ _____    ______ ____
ROOT
ATOM      1  C10 UNL     1     152.044 156.033 155.801  0.00  0.00    +0.250 C 
ATOM      2  O3  UNL     1     151.592 154.905 155.949  0.00  0.00    -0.270 OA
ATOM      3  N1  UNL     1     151.984 157.079 156.692  0.00  0.00    -0.261 N 
ATOM      4  C11 UNL     1     151.462 157.055 157.960  0.00  0.00    +0.165 A 
ATOM      5  N2  UNL     1     151.394 158.155 158.670  0.00  0.00    -0.224 NA
ATOM      6  C12 UNL     1     150.868 157.875 159.922  0.00  0.00    +0.083 A 
ATOM      7  C21 UNL     1     150.505 156.552 160.123  0.00  0.00    +0.016 A 
ATOM      8  C22 UNL     1     149.869 155.880 161.289  0.00  0.00    +0.054 C 
ATOM      9  S2  UNL     1     150.902 155.643 158.720  0.00  0.00    -0.057 S 
ATOM     10  H9  UNL     1     152.277 158.006 156.424  0.00  0.00    +0.157 HD
ENDROOT
BRANCH   1  15
ATOM     11  C5  UNL     1     153.874 155.737 152.476  0.00  0.00    +0.090 A 
ATOM     12  C6  UNL     1     153.866 157.066 152.043  0.00  0.00    +0.027 A 
ATOM     13  C7  UNL     1     153.277 158.043 152.843  0.00  0.00    +0.003 A 
ATOM     14  C8  UNL     1     152.698 157.688 154.063  0.00  0.00    +0.013 A 
ATOM     15  C9  UNL     1     152.700 156.353 154.497  0.00  0.00    +0.039 A 
ATOM     16  C23 UNL     1     153.280 155.367 153.689  0.00  0.00    +0.040 A 
BRANCH  11  17
ATOM     17  S1  UNL     1     154.599 154.487 151.425  0.00  0.00    +0.008 S 
ATOM     18  O1  UNL     1     155.754 155.106 150.800  0.00  0.00    -0.168 OA
ATOM     19  O2  UNL     1     153.513 153.947 150.626  0.00  0.00    -0.168 OA
BRANCH  17  20
ATOM     20  C4  UNL     1     155.135 153.255 152.613  0.00  0.00    +0.260 C 
BRANCH  20  23
ATOM     21  C1  UNL     1     152.610 149.990 152.406  0.00  0.00    +0.106 C 
ATOM     22  C2  UNL     1     153.513 151.141 152.476  0.00  0.00    -0.104 C 
ATOM     23  C3  UNL     1     154.241 152.095 152.535  0.00  0.00    -0.079 C 
ENDBRANCH  20  23
ENDBRANCH  17  20
ENDBRANCH  11  17
ENDBRANCH   1  15
BRANCH   6  24
ATOM     24  C13 UNL     1     150.701 158.941 160.897  0.00  0.00    +0.001 A 
ATOM     25  C14 UNL     1     151.373 158.923 162.124  0.00  0.00    +0.013 A 
ATOM     26  C15 UNL     1     151.205 159.966 163.046  0.00  0.00    +0.046 A 
ATOM     27  C16 UNL     1     150.371 161.042 162.744  0.00  0.00    +0.121 A 
ATOM     28  C19 UNL     1     149.708 161.064 161.515  0.00  0.00    +0.046 A 
ATOM     29  C20 UNL     1     149.875 160.028 160.592  0.00  0.00    +0.013 A 
BRANCH  27  30
ATOM     30  O4  UNL     1     150.109 162.115 163.547  0.00  0.00    -0.492 OA
BRANCH  30  31
ATOM     31  C17 UNL     1     150.542 162.083 164.907  0.00  0.00    +0.225 C 
ATOM     32  C18 UNL     1     149.354 161.990 165.849  0.00  0.00    +0.048 C 
ENDBRANCH  30  31
ENDBRANCH  27  30
ENDBRANCH   6  24
TORSDOF 7
ENDMDL
MODEL 6
REMARK VINA RESULT:    -7.702      2.570     11.695
REMARK INTER + INTRA:         -11.654
REMARK INTER:                 -10.750
REMARK INTRA:                  -0.904
REMARK UNBOUND:                -0.800
REMARK  Name = /home/vital/Documents/PhD_2021/Malaria_codes/data/pdb_ligands/ligand_447.pdb
REMARK  10 active torsions:
REMARK  status: ('A' for Active; 'I' for Inactive)
REMARK    1  A    between atoms: C1_1  and  C2_2
REMARK    2  A    between atoms: C3_3  and  C4_4
REMARK    3  A    between atoms: C4_4  and  S1_5
REMARK    4  A    between atoms: S1_5  and  C5_8
REMARK    5  A    between atoms: C9_12  and  C10_13
REMARK    6  A    between atoms: C12_18  and  C13_19
REMARK    7  A    between atoms: C16_22  and  O4_23
REMARK    8  A    between atoms: O4_23  and  C17_24
REMARK    9  A    between atoms: C17_24  and  C18_25
REMARK   10  A    between atoms: C21_28  and  C22_29
REMARK                            x       y       z     vdW  Elec       q    Type
REMARK                         _______ _______ _______ _____ _____    ______ ____
ROOT
ATOM      1  C10 UNL     1     150.952 155.490 156.151  0.00  0.00    +0.250 C 
ATOM      2  O3  UNL     1     150.319 154.494 156.474  0.00  0.00    -0.270 OA
ATOM      3  N1  UNL     1     151.957 155.571 155.214  0.00  0.00    -0.261 N 
ATOM      4  C11 UNL     1     152.412 154.565 154.402  0.00  0.00    +0.165 A 
ATOM      5  N2  UNL     1     153.441 154.763 153.614  0.00  0.00    -0.224 NA
ATOM      6  C12 UNL     1     153.689 153.621 152.868  0.00  0.00    +0.083 A 
ATOM      7  C21 UNL     1     152.855 152.548 153.143  0.00  0.00    +0.016 A 
ATOM      8  C22 UNL     1     152.837 151.161 152.603  0.00  0.00    +0.054 C 
ATOM      9  S2  UNL     1     151.696 153.027 154.319  0.00  0.00    -0.057 S 
ATOM     10  H9  UNL     1     152.502 156.414 155.111  0.00  0.00    +0.157 HD
ENDROOT
BRANCH   1  15
ATOM     11  C5  UNL     1     150.185 158.052 158.860  0.00  0.00    +0.090 A 
ATOM     12  C6  UNL     1     150.145 159.233 158.113  0.00  0.00    +0.027 A 
ATOM     13  C7  UNL     1     150.356 159.179 156.737  0.00  0.00    +0.003 A 
ATOM     14  C8  UNL     1     150.608 157.953 156.117  0.00  0.00    +0.013 A 
ATOM     15  C9  UNL     1     150.654 156.767 156.867  0.00  0.00    +0.039 A 
ATOM     16  C23 UNL     1     150.455 156.819 158.253  0.00  0.00    +0.040 A 
BRANCH  11  17
ATOM     17  S1  UNL     1     149.950 158.137 160.629  0.00  0.00    +0.008 S 
ATOM     18  O1  UNL     1     149.598 156.794 161.055  0.00  0.00    -0.168 OA
ATOM     19  O2  UNL     1     149.057 159.258 160.868  0.00  0.00    -0.168 OA
BRANCH  17  20
ATOM     20  C4  UNL     1     151.595 158.551 161.212  0.00  0.00    +0.260 C 
BRANCH  20  23
ATOM     21  C1  UNL     1     151.459 162.154 163.230  0.00  0.00    +0.106 C 
ATOM     22  C2  UNL     1     151.497 160.875 162.517  0.00  0.00    -0.104 C 
ATOM     23  C3  UNL     1     151.542 159.831 161.927  0.00  0.00    -0.079 C 
ENDBRANCH  20  23
ENDBRANCH  17  20
ENDBRANCH  11  17
ENDBRANCH   1  15
BRANCH   6  24
ATOM     24  C13 UNL     1     154.783 153.600 151.910  0.00  0.00    +0.001 A 
ATOM     25  C14 UNL     1     154.648 154.154 150.632  0.00  0.00    +0.013 A 
ATOM     26  C15 UNL     1     155.719 154.132 149.728  0.00  0.00    +0.046 A 
ATOM     27  C16 UNL     1     156.938 153.565 150.096  0.00  0.00    +0.121 A 
ATOM     28  C19 UNL     1     157.076 153.020 151.375  0.00  0.00    +0.046 A 
ATOM     29  C20 UNL     1     156.011 153.043 152.281  0.00  0.00    +0.013 A 
BRANCH  27  30
ATOM     30  O4  UNL     1     158.055 153.467 149.317  0.00  0.00    -0.492 OA
BRANCH  30  31
ATOM     31  C17 UNL     1     158.401 152.199 148.761  0.00  0.00    +0.225 C 
ATOM     32  C18 UNL     1     157.686 151.977 147.439  0.00  0.00    +0.048 C 
ENDBRANCH  30  31
ENDBRANCH  27  30
ENDBRANCH   6  24
TORSDOF 7
ENDMDL
MODEL 7
REMARK VINA RESULT:    -7.658      2.468     11.896
REMARK INTER + INTRA:         -11.592
REMARK INTER:                 -11.027
REMARK INTRA:                  -0.565
REMARK UNBOUND:                -0.800
REMARK  Name = /home/vital/Documents/PhD_2021/Malaria_codes/data/pdb_ligands/ligand_447.pdb
REMARK  10 active torsions:
REMARK  status: ('A' for Active; 'I' for Inactive)
REMARK    1  A    between atoms: C1_1  and  C2_2
REMARK    2  A    between atoms: C3_3  and  C4_4
REMARK    3  A    between atoms: C4_4  and  S1_5
REMARK    4  A    between atoms: S1_5  and  C5_8
REMARK    5  A    between atoms: C9_12  and  C10_13
REMARK    6  A    between atoms: C12_18  and  C13_19
REMARK    7  A    between atoms: C16_22  and  O4_23
REMARK    8  A    between atoms: O4_23  and  C17_24
REMARK    9  A    between atoms: C17_24  and  C18_25
REMARK   10  A    between atoms: C21_28  and  C22_29
REMARK                            x       y       z     vdW  Elec       q    Type
REMARK                         _______ _______ _______ _____ _____    ______ ____
ROOT
ATOM      1  C10 UNL     1     150.863 158.560 159.313  0.00  0.00    +0.250 C 
ATOM      2  O3  UNL     1     149.922 157.874 159.692  0.00  0.00    -0.270 OA
ATOM      3  N1  UNL     1     151.639 158.366 158.195  0.00  0.00    -0.261 N 
ATOM      4  C11 UNL     1     151.480 157.398 157.236  0.00  0.00    +0.165 A 
ATOM      5  N2  UNL     1     152.352 157.277 156.265  0.00  0.00    -0.224 NA
ATOM      6  C12 UNL     1     151.961 156.262 155.405  0.00  0.00    +0.083 A 
ATOM      7  C21 UNL     1     150.801 155.596 155.773  0.00  0.00    +0.016 A 
ATOM      8  C22 UNL     1     150.101 154.439 155.153  0.00  0.00    +0.054 C 
ATOM      9  S2  UNL     1     150.168 156.321 157.197  0.00  0.00    -0.057 S 
ATOM     10  H9  UNL     1     152.470 158.916 158.038  0.00  0.00    +0.157 HD
ENDROOT
BRANCH   1  15
ATOM     11  C5  UNL     1     151.335 160.923 162.261  0.00  0.00    +0.090 A 
ATOM     12  C6  UNL     1     152.111 161.930 161.679  0.00  0.00    +0.027 A 
ATOM     13  C7  UNL     1     152.460 161.833 160.334  0.00  0.00    +0.003 A 
ATOM     14  C8  UNL     1     152.038 160.736 159.581  0.00  0.00    +0.013 A 
ATOM     15  C9  UNL     1     151.263 159.721 160.165  0.00  0.00    +0.039 A 
ATOM     16  C23 UNL     1     150.921 159.808 161.520  0.00  0.00    +0.040 A 
BRANCH  11  17
ATOM     17  S1  UNL     1     150.924 161.038 163.995  0.00  0.00    +0.008 S 
ATOM     18  O1  UNL     1     152.019 161.756 164.623  0.00  0.00    -0.168 OA
ATOM     19  O2  UNL     1     150.568 159.695 164.419  0.00  0.00    -0.168 OA
BRANCH  17  20
ATOM     20  C4  UNL     1     149.454 162.065 163.972  0.00  0.00    +0.260 C 
BRANCH  20  23
ATOM     21  C1  UNL     1     147.809 162.178 167.760  0.00  0.00    +0.106 C 
ATOM     22  C2  UNL     1     148.402 162.141 166.422  0.00  0.00    -0.104 C 
ATOM     23  C3  UNL     1     148.875 162.103 165.318  0.00  0.00    -0.079 C 
ENDBRANCH  20  23
ENDBRANCH  17  20
ENDBRANCH  11  17
ENDBRANCH   1  15
BRANCH   6  24
ATOM     24  C13 UNL     1     152.770 155.943 154.240  0.00  0.00    +0.001 A 
ATOM     25  C14 UNL     1     153.136 154.626 153.941  0.00  0.00    +0.013 A 
ATOM     26  C15 UNL     1     153.909 154.339 152.807  0.00  0.00    +0.046 A 
ATOM     27  C16 UNL     1     154.315 155.366 151.956  0.00  0.00    +0.121 A 
ATOM     28  C19 UNL     1     153.941 156.680 152.249  0.00  0.00    +0.046 A 
ATOM     29  C20 UNL     1     153.168 156.969 153.377  0.00  0.00    +0.013 A 
BRANCH  27  30
ATOM     30  O4  UNL     1     155.074 155.232 150.828  0.00  0.00    -0.492 OA
BRANCH  30  31
ATOM     31  C17 UNL     1     155.993 154.145 150.739  0.00  0.00    +0.225 C 
ATOM     32  C18 UNL     1     157.166 154.352 151.683  0.00  0.00    +0.048 C 
ENDBRANCH  30  31
ENDBRANCH  27  30
ENDBRANCH   6  24
TORSDOF 7
ENDMDL
MODEL 8
REMARK VINA RESULT:    -7.534      4.711     11.773
REMARK INTER + INTRA:         -11.417
REMARK INTER:                 -10.632
REMARK INTRA:                  -0.785
REMARK UNBOUND:                -0.800
REMARK  Name = /home/vital/Documents/PhD_2021/Malaria_codes/data/pdb_ligands/ligand_447.pdb
REMARK  10 active torsions:
REMARK  status: ('A' for Active; 'I' for Inactive)
REMARK    1  A    between atoms: C1_1  and  C2_2
REMARK    2  A    between atoms: C3_3  and  C4_4
REMARK    3  A    between atoms: C4_4  and  S1_5
REMARK    4  A    between atoms: S1_5  and  C5_8
REMARK    5  A    between atoms: C9_12  and  C10_13
REMARK    6  A    between atoms: C12_18  and  C13_19
REMARK    7  A    between atoms: C16_22  and  O4_23
REMARK    8  A    between atoms: O4_23  and  C17_24
REMARK    9  A    between atoms: C17_24  and  C18_25
REMARK   10  A    between atoms: C21_28  and  C22_29
REMARK                            x       y       z     vdW  Elec       q    Type
REMARK                         _______ _______ _______ _____ _____    ______ ____
ROOT
ATOM      1  C10 UNL     1     150.492 155.446 157.855  0.00  0.00    +0.250 C 
ATOM      2  O3  UNL     1     150.629 154.798 158.884  0.00  0.00    -0.270 OA
ATOM      3  N1  UNL     1     150.282 154.960 156.585  0.00  0.00    -0.261 N 
ATOM      4  C11 UNL     1     150.118 153.648 156.220  0.00  0.00    +0.165 A 
ATOM      5  N2  UNL     1     150.012 153.321 154.955  0.00  0.00    -0.224 NA
ATOM      6  C12 UNL     1     149.816 151.952 154.838  0.00  0.00    +0.083 A 
ATOM      7  C21 UNL     1     149.820 151.255 156.037  0.00  0.00    +0.016 A 
ATOM      8  C22 UNL     1     149.699 149.799 156.320  0.00  0.00    +0.054 C 
ATOM      9  S2  UNL     1     150.008 152.369 157.332  0.00  0.00    -0.057 S 
ATOM     10  H9  UNL     1     150.307 155.572 155.784  0.00  0.00    +0.157 HD
ENDROOT
BRANCH   1  15
ATOM     11  C5  UNL     1     151.183 158.973 159.109  0.00  0.00    +0.090 A 
ATOM     12  C6  UNL     1     150.817 159.734 157.995  0.00  0.00    +0.027 A 
ATOM     13  C7  UNL     1     150.339 159.091 156.855  0.00  0.00    +0.003 A 
ATOM     14  C8  UNL     1     150.233 157.699 156.832  0.00  0.00    +0.013 A 
ATOM     15  C9  UNL     1     150.606 156.933 157.949  0.00  0.00    +0.039 A 
ATOM     16  C23 UNL     1     151.099 157.575 159.092  0.00  0.00    +0.040 A 
BRANCH  11  17
ATOM     17  S1  UNL     1     151.830 159.805 160.552  0.00  0.00    +0.008 S 
ATOM     18  O1  UNL     1     152.677 160.875 160.056  0.00  0.00    -0.168 OA
ATOM     19  O2  UNL     1     152.362 158.766 161.416  0.00  0.00    -0.168 OA
BRANCH  17  20
ATOM     20  C4  UNL     1     150.347 160.494 161.291  0.00  0.00    +0.260 C 
BRANCH  20  23
ATOM     21  C1  UNL     1     151.417 163.138 164.280  0.00  0.00    +0.106 C 
ATOM     22  C2  UNL     1     151.047 162.202 163.216  0.00  0.00    -0.104 C 
ATOM     23  C3  UNL     1     150.732 161.431 162.352  0.00  0.00    -0.079 C 
ENDBRANCH  20  23
ENDBRANCH  17  20
ENDBRANCH  11  17
ENDBRANCH   1  15
BRANCH   6  24
ATOM     24  C13 UNL     1     149.662 151.349 153.524  0.00  0.00    +0.001 A 
ATOM     25  C14 UNL     1     148.478 150.703 153.149  0.00  0.00    +0.013 A 
ATOM     26  C15 UNL     1     148.347 150.136 151.874  0.00  0.00    +0.046 A 
ATOM     27  C16 UNL     1     149.395 150.218 150.958  0.00  0.00    +0.121 A 
ATOM     28  C19 UNL     1     150.573 150.870 151.330  0.00  0.00    +0.046 A 
ATOM     29  C20 UNL     1     150.706 151.440 152.599  0.00  0.00    +0.013 A 
BRANCH  27  30
ATOM     30  O4  UNL     1     149.408 149.705 149.692  0.00  0.00    -0.492 OA
BRANCH  30  31
ATOM     31  C17 UNL     1     148.440 150.165 148.750  0.00  0.00    +0.225 C 
ATOM     32  C18 UNL     1     147.536 149.028 148.307  0.00  0.00    +0.048 C 
ENDBRANCH  30  31
ENDBRANCH  27  30
ENDBRANCH   6  24
TORSDOF 7
ENDMDL
MODEL 9
REMARK VINA RESULT:    -7.496      6.115      7.428
REMARK INTER + INTRA:         -11.364
REMARK INTER:                 -10.516
REMARK INTRA:                  -0.848
REMARK UNBOUND:                -0.800
REMARK  Name = /home/vital/Documents/PhD_2021/Malaria_codes/data/pdb_ligands/ligand_447.pdb
REMARK  10 active torsions:
REMARK  status: ('A' for Active; 'I' for Inactive)
REMARK    1  A    between atoms: C1_1  and  C2_2
REMARK    2  A    between atoms: C3_3  and  C4_4
REMARK    3  A    between atoms: C4_4  and  S1_5
REMARK    4  A    between atoms: S1_5  and  C5_8
REMARK    5  A    between atoms: C9_12  and  C10_13
REMARK    6  A    between atoms: C12_18  and  C13_19
REMARK    7  A    between atoms: C16_22  and  O4_23
REMARK    8  A    between atoms: O4_23  and  C17_24
REMARK    9  A    between atoms: C17_24  and  C18_25
REMARK   10  A    between atoms: C21_28  and  C22_29
REMARK                            x       y       z     vdW  Elec       q    Type
REMARK                         _______ _______ _______ _____ _____    ______ ____
ROOT
ATOM      1  C10 UNL     1     150.640 152.279 154.347  0.00  0.00    +0.250 C 
ATOM      2  O3  UNL     1     151.598 152.440 153.603  0.00  0.00    -0.270 OA
ATOM      3  N1  UNL     1     150.200 153.128 155.336  0.00  0.00    -0.261 N 
ATOM      4  C11 UNL     1     150.707 154.363 155.650  0.00  0.00    +0.165 A 
ATOM      5  N2  UNL     1     150.241 155.028 156.679  0.00  0.00    -0.224 NA
ATOM      6  C12 UNL     1     150.878 156.257 156.772  0.00  0.00    +0.083 A 
ATOM      7  C21 UNL     1     151.859 156.483 155.818  0.00  0.00    +0.016 A 
ATOM      8  C22 UNL     1     152.783 157.632 155.621  0.00  0.00    +0.054 C 
ATOM      9  S2  UNL     1     151.920 155.137 154.750  0.00  0.00    -0.057 S 
ATOM     10  H9  UNL     1     149.475 152.845 155.978  0.00  0.00    +0.157 HD
ENDROOT
BRANCH   1  15
ATOM     11  C5  UNL     1     149.347 148.737 154.872  0.00  0.00    +0.090 A 
ATOM     12  C6  UNL     1     148.322 148.679 153.923  0.00  0.00    +0.027 A 
ATOM     13  C7  UNL     1     148.073 149.788 153.117  0.00  0.00    +0.003 A 
ATOM     14  C8  UNL     1     148.842 150.944 153.265  0.00  0.00    +0.013 A 
ATOM     15  C9  UNL     1     149.868 151.005 154.221  0.00  0.00    +0.039 A 
ATOM     16  C23 UNL     1     150.113 149.897 155.042  0.00  0.00    +0.040 A 
BRANCH  11  17
ATOM     17  S1  UNL     1     149.634 147.322 155.925  0.00  0.00    +0.008 S 
ATOM     18  O1  UNL     1     148.329 146.907 156.408  0.00  0.00    -0.168 OA
ATOM     19  O2  UNL     1     150.686 147.709 156.849  0.00  0.00    -0.168 OA
BRANCH  17  20
ATOM     20  C4  UNL     1     150.272 146.109 154.769  0.00  0.00    +0.260 C 
BRANCH  20  23
ATOM     21  C1  UNL     1     149.840 142.330 156.383  0.00  0.00    +0.106 C 
ATOM     22  C2  UNL     1     149.983 143.671 155.812  0.00  0.00    -0.104 C 
ATOM     23  C3  UNL     1     150.115 144.769 155.345  0.00  0.00    -0.079 C 
ENDBRANCH  20  23
ENDBRANCH  17  20
ENDBRANCH  11  17
ENDBRANCH   1  15
BRANCH   6  24
ATOM     24  C13 UNL     1     150.524 157.182 157.837  0.00  0.00    +0.001 A 
ATOM     25  C14 UNL     1     149.746 158.319 157.590  0.00  0.00    +0.013 A 
ATOM     26  C15 UNL     1     149.408 159.193 158.633  0.00  0.00    +0.046 A 
ATOM     27  C16 UNL     1     149.836 158.932 159.934  0.00  0.00    +0.121 A 
ATOM     28  C19 UNL     1     150.604 157.792 160.181  0.00  0.00    +0.046 A 
ATOM     29  C20 UNL     1     150.940 156.917 159.145  0.00  0.00    +0.013 A 
BRANCH  27  30
ATOM     30  O4  UNL     1     149.589 159.698 161.038  0.00  0.00    -0.492 OA
BRANCH  30  31
ATOM     31  C17 UNL     1     150.074 161.040 161.069  0.00  0.00    +0.225 C 
ATOM     32  C18 UNL     1     151.170 161.193 162.110  0.00  0.00    +0.048 C 
ENDBRANCH  30  31
ENDBRANCH  27  30
ENDBRANCH   6  24
TORSDOF 7
ENDMDL
