MODEL 1
REMARK VINA RESULT:    -6.770      0.000      0.000
REMARK INTER + INTRA:         -11.111
REMARK INTER:                 -10.530
REMARK INTRA:                  -0.581
REMARK UNBOUND:                -0.581
REMARK  Name = /home/vital/Documents/PhD_2021/Malaria_codes/data/pdb_ligands/ligand_283.pdb
REMARK  13 active torsions:
REMARK  status: ('A' for Active; 'I' for Inactive)
REMARK    1  A    between atoms: C1_1  and  C2_2
REMARK    2  A    between atoms: C2_2  and  O1_3
REMARK    3  A    between atoms: O1_3  and  C3_4
REMARK    4  A    between atoms: C4_5  and  O2_6
REMARK    5  A    between atoms: O2_6  and  C5_7
REMARK    6  A    between atoms: C7_9  and  C8_10
REMARK    7  A    between atoms: C8_10  and  N1_11
REMARK    8  A    between atoms: N1_11  and  C9_12
REMARK    9  A    between atoms: C9_12  and  C10_13
REMARK   10  A    between atoms: C10_13  and  O3_14
REMARK   11  A    between atoms: C10_13  and  C11_15
REMARK   12  A    between atoms: C18_23  and  O4_24
REMARK   13  A    between atoms: O4_24  and  C19_25
REMARK                            x       y       z     vdW  Elec       q    Type
REMARK                         _______ _______ _______ _____ _____    ______ ____
ROOT
ATOM      1  C8  UNL     1     152.975 157.816 153.345  0.00  0.00    +0.116 C 
ENDROOT
BRANCH   1   5
ATOM      2  C3  UNL     1     150.931 157.266 157.092  0.00  0.00    +0.204 A 
ATOM      3  C4  UNL     1     151.500 156.154 156.450  0.00  0.00    +0.165 A 
ATOM      4  C6  UNL     1     152.159 156.345 155.234  0.00  0.00    +0.054 A 
ATOM      5  C7  UNL     1     152.259 157.627 154.663  0.00  0.00    -0.026 A 
ATOM      6  C17 UNL     1     151.699 158.727 155.333  0.00  0.00    +0.054 A 
ATOM      7  C18 UNL     1     151.041 158.559 156.553  0.00  0.00    +0.165 A 
BRANCH   3   8
ATOM      8  O2  UNL     1     151.351 154.945 157.080  0.00  0.00    -0.491 OA
ATOM      9  C5  UNL     1     150.411 154.033 156.533  0.00  0.00    +0.277 C 
ENDBRANCH   3   8
BRANCH   7  10
ATOM     10  O4  UNL     1     150.461 159.570 157.276  0.00  0.00    -0.491 OA
ATOM     11  C19 UNL     1     151.312 160.604 157.753  0.00  0.00    +0.277 C 
ENDBRANCH   7  10
BRANCH   2  12
ATOM     12  O1  UNL     1     150.317 157.098 158.315  0.00  0.00    -0.485 OA
BRANCH  12  14
ATOM     13  C1  UNL     1     150.567 157.773 160.589  0.00  0.00    +0.048 C 
ATOM     14  C2  UNL     1     151.280 157.228 159.366  0.00  0.00    +0.226 C 
ENDBRANCH  12  14
ENDBRANCH   2  12
ENDBRANCH   1   5
BRANCH   1  15
ATOM     15  N1  UNL     1     152.888 156.644 152.467  0.00  0.00    -0.309 NA
ATOM     16  H12 UNL     1     152.409 155.901 152.980  0.00  0.00    +0.122 HD
BRANCH  15  17
ATOM     17  C9  UNL     1     154.229 156.139 152.090  0.00  0.00    +0.117 C 
BRANCH  17  18
ATOM     18  C10 UNL     1     154.226 154.590 152.008  0.00  0.00    +0.158 C 
BRANCH  18  19
ATOM     19  C11 UNL     1     155.446 154.032 151.296  0.00  0.00    -0.018 A 
ATOM     20  C12 UNL     1     155.818 152.692 151.506  0.00  0.00    +0.007 A 
ATOM     21  C13 UNL     1     156.924 152.147 150.849  0.00  0.00    +0.020 A 
ATOM     22  C14 UNL     1     157.671 152.936 149.977  0.00  0.00    +0.041 A 
ATOM     23 CL1  UNL     1     159.032 152.264 149.167  0.00  0.00    -0.084 Cl
ATOM     24  C15 UNL     1     157.322 154.266 149.760  0.00  0.00    +0.020 A 
ATOM     25  C16 UNL     1     156.215 154.810 150.417  0.00  0.00    +0.007 A 
ENDBRANCH  18  19
BRANCH  18  26
ATOM     26  O3  UNL     1     154.117 154.053 153.332  0.00  0.00    -0.386 OA
ATOM     27  H16 UNL     1     154.854 154.465 153.827  0.00  0.00    +0.210 HD
ENDBRANCH  18  26
ENDBRANCH  17  18
ENDBRANCH  15  17
ENDBRANCH   1  15
TORSDOF 10
ENDMDL
MODEL 2
REMARK VINA RESULT:    -6.751      0.387      2.738
REMARK INTER + INTRA:         -11.081
REMARK INTER:                 -10.515
REMARK INTRA:                  -0.566
REMARK UNBOUND:                -0.581
REMARK  Name = /home/vital/Documents/PhD_2021/Malaria_codes/data/pdb_ligands/ligand_283.pdb
REMARK  13 active torsions:
REMARK  status: ('A' for Active; 'I' for Inactive)
REMARK    1  A    between atoms: C1_1  and  C2_2
REMARK    2  A    between atoms: C2_2  and  O1_3
REMARK    3  A    between atoms: O1_3  and  C3_4
REMARK    4  A    between atoms: C4_5  and  O2_6
REMARK    5  A    between atoms: O2_6  and  C5_7
REMARK    6  A    between atoms: C7_9  and  C8_10
REMARK    7  A    between atoms: C8_10  and  N1_11
REMARK    8  A    between atoms: N1_11  and  C9_12
REMARK    9  A    between atoms: C9_12  and  C10_13
REMARK   10  A    between atoms: C10_13  and  O3_14
REMARK   11  A    between atoms: C10_13  and  C11_15
REMARK   12  A    between atoms: C18_23  and  O4_24
REMARK   13  A    between atoms: O4_24  and  C19_25
REMARK                            x       y       z     vdW  Elec       q    Type
REMARK                         _______ _______ _______ _____ _____    ______ ____
ROOT
ATOM      1  C8  UNL     1     152.951 157.796 153.116  0.00  0.00    +0.116 C 
ENDROOT
BRANCH   1   5
ATOM      2  C3  UNL     1     150.872 157.225 156.840  0.00  0.00    +0.204 A 
ATOM      3  C4  UNL     1     151.237 158.524 156.450  0.00  0.00    +0.165 A 
ATOM      4  C6  UNL     1     151.913 158.695 155.240  0.00  0.00    +0.054 A 
ATOM      5  C7  UNL     1     152.217 157.592 154.422  0.00  0.00    -0.026 A 
ATOM      6  C17 UNL     1     151.825 156.304 154.824  0.00  0.00    +0.054 A 
ATOM      7  C18 UNL     1     151.144 156.111 156.028  0.00  0.00    +0.165 A 
BRANCH   3   8
ATOM      8  O2  UNL     1     150.900 159.536 157.311  0.00  0.00    -0.491 OA
ATOM      9  C5  UNL     1     151.881 160.531 157.567  0.00  0.00    +0.277 C 
ENDBRANCH   3   8
BRANCH   7  10
ATOM     10  O4  UNL     1     150.725 154.895 156.504  0.00  0.00    -0.491 OA
ATOM     11  C19 UNL     1     150.267 153.943 155.553  0.00  0.00    +0.277 C 
ENDBRANCH   7  10
BRANCH   2  12
ATOM     12  O1  UNL     1     150.165 157.046 158.010  0.00  0.00    -0.485 OA
BRANCH  12  14
ATOM     13  C1  UNL     1     150.507 157.730 160.270  0.00  0.00    +0.048 C 
ATOM     14  C2  UNL     1     151.070 156.926 159.113  0.00  0.00    +0.226 C 
ENDBRANCH  12  14
ENDBRANCH   2  12
ENDBRANCH   1   5
BRANCH   1  15
ATOM     15  N1  UNL     1     152.929 156.613 152.250  0.00  0.00    -0.309 NA
ATOM     16  H12 UNL     1     152.361 155.897 152.709  0.00  0.00    +0.122 HD
BRANCH  15  17
ATOM     17  C9  UNL     1     154.286 156.052 152.052  0.00  0.00    +0.117 C 
BRANCH  17  18
ATOM     18  C10 UNL     1     154.229 154.504 151.957  0.00  0.00    +0.158 C 
BRANCH  18  19
ATOM     19  C11 UNL     1     155.426 153.909 151.238  0.00  0.00    -0.018 A 
ATOM     20  C12 UNL     1     156.182 154.714 150.367  0.00  0.00    +0.007 A 
ATOM     21  C13 UNL     1     157.300 154.198 149.707  0.00  0.00    +0.020 A 
ATOM     22  C14 UNL     1     157.674 152.872 149.910  0.00  0.00    +0.041 A 
ATOM     23 CL1  UNL     1     159.053 152.238 149.099  0.00  0.00    -0.084 Cl
ATOM     24  C15 UNL     1     156.937 152.057 150.766  0.00  0.00    +0.020 A 
ATOM     25  C16 UNL     1     155.819 152.574 151.425  0.00  0.00    +0.007 A 
ENDBRANCH  18  19
BRANCH  18  26
ATOM     26  O3  UNL     1     154.104 153.961 153.277  0.00  0.00    -0.386 OA
ATOM     27  H16 UNL     1     154.693 153.180 153.279  0.00  0.00    +0.210 HD
ENDBRANCH  18  26
ENDBRANCH  17  18
ENDBRANCH  15  17
ENDBRANCH   1  15
TORSDOF 10
ENDMDL
MODEL 3
REMARK VINA RESULT:    -6.694      1.948      2.785
REMARK INTER + INTRA:         -10.993
REMARK INTER:                 -10.568
REMARK INTRA:                  -0.424
REMARK UNBOUND:                -0.581
REMARK  Name = /home/vital/Documents/PhD_2021/Malaria_codes/data/pdb_ligands/ligand_283.pdb
REMARK  13 active torsions:
REMARK  status: ('A' for Active; 'I' for Inactive)
REMARK    1  A    between atoms: C1_1  and  C2_2
REMARK    2  A    between atoms: C2_2  and  O1_3
REMARK    3  A    between atoms: O1_3  and  C3_4
REMARK    4  A    between atoms: C4_5  and  O2_6
REMARK    5  A    between atoms: O2_6  and  C5_7
REMARK    6  A    between atoms: C7_9  and  C8_10
REMARK    7  A    between atoms: C8_10  and  N1_11
REMARK    8  A    between atoms: N1_11  and  C9_12
REMARK    9  A    between atoms: C9_12  and  C10_13
REMARK   10  A    between atoms: C10_13  and  O3_14
REMARK   11  A    between atoms: C10_13  and  C11_15
REMARK   12  A    between atoms: C18_23  and  O4_24
REMARK   13  A    between atoms: O4_24  and  C19_25
REMARK                            x       y       z     vdW  Elec       q    Type
REMARK                         _______ _______ _______ _____ _____    ______ ____
ROOT
ATOM      1  C8  UNL     1     152.167 158.363 154.956  0.00  0.00    +0.116 C 
ENDROOT
BRANCH   1   5
ATOM      2  C3  UNL     1     150.915 159.816 158.808  0.00  0.00    +0.204 A 
ATOM      3  C4  UNL     1     150.751 158.455 158.501  0.00  0.00    +0.165 A 
ATOM      4  C6  UNL     1     151.159 157.997 157.247  0.00  0.00    +0.054 A 
ATOM      5  C7  UNL     1     151.731 158.876 156.310  0.00  0.00    -0.026 A 
ATOM      6  C17 UNL     1     151.902 160.229 156.646  0.00  0.00    +0.054 A 
ATOM      7  C18 UNL     1     151.505 160.707 157.897  0.00  0.00    +0.165 A 
BRANCH   3   8
ATOM      8  O2  UNL     1     150.184 157.675 159.475  0.00  0.00    -0.491 OA
ATOM      9  C5  UNL     1     150.587 156.314 159.540  0.00  0.00    +0.277 C 
ENDBRANCH   3   8
BRANCH   7  10
ATOM     10  O4  UNL     1     151.629 162.008 158.313  0.00  0.00    -0.491 OA
ATOM     11  C19 UNL     1     151.633 163.018 157.313  0.00  0.00    +0.277 C 
ENDBRANCH   7  10
BRANCH   2  12
ATOM     12  O1  UNL     1     150.557 160.272 160.059  0.00  0.00    -0.485 OA
BRANCH  12  14
ATOM     13  C1  UNL     1     151.799 161.434 161.732  0.00  0.00    +0.048 C 
ATOM     14  C2  UNL     1     151.658 160.134 160.962  0.00  0.00    +0.226 C 
ENDBRANCH  12  14
ENDBRANCH   2  12
ENDBRANCH   1   5
BRANCH   1  15
ATOM     15  N1  UNL     1     153.201 157.327 155.035  0.00  0.00    -0.309 NA
ATOM     16  H12 UNL     1     154.094 157.754 154.776  0.00  0.00    +0.122 HD
BRANCH  15  17
ATOM     17  C9  UNL     1     152.941 156.217 154.089  0.00  0.00    +0.117 C 
BRANCH  17  18
ATOM     18  C10 UNL     1     153.698 156.447 152.754  0.00  0.00    +0.158 C 
BRANCH  18  19
ATOM     19  C11 UNL     1     154.510 155.240 152.318  0.00  0.00    -0.018 A 
ATOM     20  C12 UNL     1     154.217 153.976 152.858  0.00  0.00    +0.007 A 
ATOM     21  C13 UNL     1     154.935 152.845 152.459  0.00  0.00    +0.020 A 
ATOM     22  C14 UNL     1     155.955 152.968 151.519  0.00  0.00    +0.041 A 
ATOM     23 CL1  UNL     1     156.837 151.575 151.027  0.00  0.00    -0.084 Cl
ATOM     24  C15 UNL     1     156.264 154.212 150.975  0.00  0.00    +0.020 A 
ATOM     25  C16 UNL     1     155.544 155.342 151.374  0.00  0.00    +0.007 A 
ENDBRANCH  18  19
BRANCH  18  26
ATOM     26  O3  UNL     1     152.755 156.822 151.743  0.00  0.00    -0.386 OA
ATOM     27  H16 UNL     1     151.882 156.604 152.127  0.00  0.00    +0.210 HD
ENDBRANCH  18  26
ENDBRANCH  17  18
ENDBRANCH  15  17
ENDBRANCH   1  15
TORSDOF 10
ENDMDL
MODEL 4
REMARK VINA RESULT:    -6.657      1.970      3.704
REMARK INTER + INTRA:         -10.935
REMARK INTER:                 -10.541
REMARK INTRA:                  -0.394
REMARK UNBOUND:                -0.581
REMARK  Name = /home/vital/Documents/PhD_2021/Malaria_codes/data/pdb_ligands/ligand_283.pdb
REMARK  13 active torsions:
REMARK  status: ('A' for Active; 'I' for Inactive)
REMARK    1  A    between atoms: C1_1  and  C2_2
REMARK    2  A    between atoms: C2_2  and  O1_3
REMARK    3  A    between atoms: O1_3  and  C3_4
REMARK    4  A    between atoms: C4_5  and  O2_6
REMARK    5  A    between atoms: O2_6  and  C5_7
REMARK    6  A    between atoms: C7_9  and  C8_10
REMARK    7  A    between atoms: C8_10  and  N1_11
REMARK    8  A    between atoms: N1_11  and  C9_12
REMARK    9  A    between atoms: C9_12  and  C10_13
REMARK   10  A    between atoms: C10_13  and  O3_14
REMARK   11  A    between atoms: C10_13  and  C11_15
REMARK   12  A    between atoms: C18_23  and  O4_24
REMARK   13  A    between atoms: O4_24  and  C19_25
REMARK                            x       y       z     vdW  Elec       q    Type
REMARK                         _______ _______ _______ _____ _____    ______ ____
ROOT
ATOM      1  C8  UNL     1     152.077 158.391 154.964  0.00  0.00    +0.116 C 
ENDROOT
BRANCH   1   5
ATOM      2  C3  UNL     1     151.037 159.847 158.878  0.00  0.00    +0.204 A 
ATOM      3  C4  UNL     1     151.513 160.750 157.913  0.00  0.00    +0.165 A 
ATOM      4  C6  UNL     1     151.849 160.264 156.647  0.00  0.00    +0.054 A 
ATOM      5  C7  UNL     1     151.707 158.900 156.339  0.00  0.00    -0.026 A 
ATOM      6  C17 UNL     1     151.212 158.018 157.314  0.00  0.00    +0.054 A 
ATOM      7  C18 UNL     1     150.865 158.484 158.584  0.00  0.00    +0.165 A 
BRANCH   3   8
ATOM      8  O2  UNL     1     151.618 162.060 158.304  0.00  0.00    -0.491 OA
ATOM      9  C5  UNL     1     151.602 163.050 157.287  0.00  0.00    +0.277 C 
ENDBRANCH   3   8
BRANCH   7  10
ATOM     10  O4  UNL     1     150.377 157.700 159.599  0.00  0.00    -0.491 OA
ATOM     11  C19 UNL     1     150.569 156.297 159.492  0.00  0.00    +0.277 C 
ENDBRANCH   7  10
BRANCH   2  12
ATOM     12  O1  UNL     1     150.660 160.320 160.116  0.00  0.00    -0.485 OA
BRANCH  12  14
ATOM     13  C1  UNL     1     151.521 161.454 162.031  0.00  0.00    +0.048 C 
ATOM     14  C2  UNL     1     151.802 160.401 160.975  0.00  0.00    +0.226 C 
ENDBRANCH  12  14
ENDBRANCH   2  12
ENDBRANCH   1   5
BRANCH   1  15
ATOM     15  N1  UNL     1     153.199 157.447 154.979  0.00  0.00    -0.309 NA
ATOM     16  H12 UNL     1     154.030 157.941 154.645  0.00  0.00    +0.122 HD
BRANCH  15  17
ATOM     17  C9  UNL     1     152.964 156.298 154.073  0.00  0.00    +0.117 C 
BRANCH  17  18
ATOM     18  C10 UNL     1     153.719 156.495 152.732  0.00  0.00    +0.158 C 
BRANCH  18  19
ATOM     19  C11 UNL     1     154.514 155.271 152.314  0.00  0.00    -0.018 A 
ATOM     20  C12 UNL     1     154.192 154.016 152.860  0.00  0.00    +0.007 A 
ATOM     21  C13 UNL     1     154.895 152.870 152.478  0.00  0.00    +0.020 A 
ATOM     22  C14 UNL     1     155.927 152.967 151.548  0.00  0.00    +0.041 A 
ATOM     23 CL1  UNL     1     156.790 151.555 151.078  0.00  0.00    -0.084 Cl
ATOM     24  C15 UNL     1     156.264 154.201 150.999  0.00  0.00    +0.020 A 
ATOM     25  C16 UNL     1     155.560 155.347 151.381  0.00  0.00    +0.007 A 
ENDBRANCH  18  19
BRANCH  18  26
ATOM     26  O3  UNL     1     152.777 156.864 151.717  0.00  0.00    -0.386 OA
ATOM     27  H16 UNL     1     153.216 156.626 150.876  0.00  0.00    +0.210 HD
ENDBRANCH  18  26
ENDBRANCH  17  18
ENDBRANCH  15  17
ENDBRANCH   1  15
TORSDOF 10
ENDMDL
MODEL 5
REMARK VINA RESULT:    -6.604      2.772      4.237
REMARK INTER + INTRA:         -10.852
REMARK INTER:                 -10.187
REMARK INTRA:                  -0.665
REMARK UNBOUND:                -0.581
REMARK  Name = /home/vital/Documents/PhD_2021/Malaria_codes/data/pdb_ligands/ligand_283.pdb
REMARK  13 active torsions:
REMARK  status: ('A' for Active; 'I' for Inactive)
REMARK    1  A    between atoms: C1_1  and  C2_2
REMARK    2  A    between atoms: C2_2  and  O1_3
REMARK    3  A    between atoms: O1_3  and  C3_4
REMARK    4  A    between atoms: C4_5  and  O2_6
REMARK    5  A    between atoms: O2_6  and  C5_7
REMARK    6  A    between atoms: C7_9  and  C8_10
REMARK    7  A    between atoms: C8_10  and  N1_11
REMARK    8  A    between atoms: N1_11  and  C9_12
REMARK    9  A    between atoms: C9_12  and  C10_13
REMARK   10  A    between atoms: C10_13  and  O3_14
REMARK   11  A    between atoms: C10_13  and  C11_15
REMARK   12  A    between atoms: C18_23  and  O4_24
REMARK   13  A    between atoms: O4_24  and  C19_25
REMARK                            x       y       z     vdW  Elec       q    Type
REMARK                         _______ _______ _______ _____ _____    ______ ____
ROOT
ATOM      1  C8  UNL     1     150.377 158.766 156.805  0.00  0.00    +0.116 C 
ENDROOT
BRANCH   1   5
ATOM      2  C3  UNL     1     152.067 158.039 160.696  0.00  0.00    +0.204 A 
ATOM      3  C4  UNL     1     151.584 156.956 159.943  0.00  0.00    +0.165 A 
ATOM      4  C6  UNL     1     151.036 157.206 158.683  0.00  0.00    +0.054 A 
ATOM      5  C7  UNL     1     150.975 158.514 158.171  0.00  0.00    -0.026 A 
ATOM      6  C17 UNL     1     151.481 159.580 158.934  0.00  0.00    +0.054 A 
ATOM      7  C18 UNL     1     152.038 159.351 160.194  0.00  0.00    +0.165 A 
BRANCH   3   8
ATOM      8  O2  UNL     1     151.685 155.718 160.524  0.00  0.00    -0.491 OA
ATOM      9  C5  UNL     1     150.485 155.107 160.975  0.00  0.00    +0.277 C 
ENDBRANCH   3   8
BRANCH   7  10
ATOM     10  O4  UNL     1     152.553 160.325 161.010  0.00  0.00    -0.491 OA
ATOM     11  C19 UNL     1     151.737 161.458 161.273  0.00  0.00    +0.277 C 
ENDBRANCH   7  10
BRANCH   2  12
ATOM     12  O1  UNL     1     152.650 157.801 161.922  0.00  0.00    -0.485 OA
BRANCH  12  14
ATOM     13  C1  UNL     1     152.469 158.340 164.239  0.00  0.00    +0.048 C 
ATOM     14  C2  UNL     1     151.700 158.034 162.967  0.00  0.00    +0.226 C 
ENDBRANCH  12  14
ENDBRANCH   2  12
ENDBRANCH   1   5
BRANCH   1  15
ATOM     15  N1  UNL     1     151.377 159.122 155.793  0.00  0.00    -0.309 NA
ATOM     16  H12 UNL     1     151.084 160.000 155.356  0.00  0.00    +0.122 HD
BRANCH  15  17
ATOM     17  C9  UNL     1     151.469 158.097 154.727  0.00  0.00    +0.117 C 
BRANCH  17  18
ATOM     18  C10 UNL     1     152.501 157.003 155.109  0.00  0.00    +0.158 C 
BRANCH  18  19
ATOM     19  C11 UNL     1     153.126 156.329 153.900  0.00  0.00    -0.018 A 
ATOM     20  C12 UNL     1     153.580 157.116 152.826  0.00  0.00    +0.007 A 
ATOM     21  C13 UNL     1     154.176 156.524 151.710  0.00  0.00    +0.020 A 
ATOM     22  C14 UNL     1     154.323 155.140 151.655  0.00  0.00    +0.041 A 
ATOM     23 CL1  UNL     1     155.060 154.412 150.280  0.00  0.00    -0.084 Cl
ATOM     24  C15 UNL     1     153.877 154.343 152.706  0.00  0.00    +0.020 A 
ATOM     25  C16 UNL     1     153.281 154.936 153.822  0.00  0.00    +0.007 A 
ENDBRANCH  18  19
BRANCH  18  26
ATOM     26  O3  UNL     1     153.508 157.584 155.947  0.00  0.00    -0.386 OA
ATOM     27  H16 UNL     1     153.043 157.792 156.783  0.00  0.00    +0.210 HD
ENDBRANCH  18  26
ENDBRANCH  17  18
ENDBRANCH  15  17
ENDBRANCH   1  15
TORSDOF 10
ENDMDL
MODEL 6
REMARK VINA RESULT:    -6.602      2.765      4.932
REMARK INTER + INTRA:         -10.849
REMARK INTER:                 -10.282
REMARK INTRA:                  -0.567
REMARK UNBOUND:                -0.581
REMARK  Name = /home/vital/Documents/PhD_2021/Malaria_codes/data/pdb_ligands/ligand_283.pdb
REMARK  13 active torsions:
REMARK  status: ('A' for Active; 'I' for Inactive)
REMARK    1  A    between atoms: C1_1  and  C2_2
REMARK    2  A    between atoms: C2_2  and  O1_3
REMARK    3  A    between atoms: O1_3  and  C3_4
REMARK    4  A    between atoms: C4_5  and  O2_6
REMARK    5  A    between atoms: O2_6  and  C5_7
REMARK    6  A    between atoms: C7_9  and  C8_10
REMARK    7  A    between atoms: C8_10  and  N1_11
REMARK    8  A    between atoms: N1_11  and  C9_12
REMARK    9  A    between atoms: C9_12  and  C10_13
REMARK   10  A    between atoms: C10_13  and  O3_14
REMARK   11  A    between atoms: C10_13  and  C11_15
REMARK   12  A    between atoms: C18_23  and  O4_24
REMARK   13  A    between atoms: O4_24  and  C19_25
REMARK                            x       y       z     vdW  Elec       q    Type
REMARK                         _______ _______ _______ _____ _____    ______ ____
ROOT
ATOM      1  C8  UNL     1     150.141 158.315 156.776  0.00  0.00    +0.116 C 
ENDROOT
BRANCH   1   5
ATOM      2  C3  UNL     1     152.126 160.508 159.901  0.00  0.00    +0.204 A 
ATOM      3  C4  UNL     1     151.615 161.203 158.792  0.00  0.00    +0.165 A 
ATOM      4  C6  UNL     1     150.975 160.479 157.784  0.00  0.00    +0.054 A 
ATOM      5  C7  UNL     1     150.836 159.083 157.878  0.00  0.00    -0.026 A 
ATOM      6  C17 UNL     1     151.338 158.412 159.005  0.00  0.00    +0.054 A 
ATOM      7  C18 UNL     1     151.977 159.117 160.027  0.00  0.00    +0.165 A 
BRANCH   3   8
ATOM      8  O2  UNL     1     151.799 162.562 158.788  0.00  0.00    -0.491 OA
ATOM      9  C5  UNL     1     151.619 163.242 157.555  0.00  0.00    +0.277 C 
ENDBRANCH   3   8
BRANCH   7  10
ATOM     10  O4  UNL     1     152.501 158.550 161.161  0.00  0.00    -0.491 OA
ATOM     11  C19 UNL     1     152.091 157.227 161.479  0.00  0.00    +0.277 C 
ENDBRANCH   7  10
BRANCH   2  12
ATOM     12  O1  UNL     1     152.721 161.215 160.925  0.00  0.00    -0.485 OA
BRANCH  12  14
ATOM     13  C1  UNL     1     152.297 161.443 163.261  0.00  0.00    +0.048 C 
ATOM     14  C2  UNL     1     151.729 161.636 161.867  0.00  0.00    +0.226 C 
ENDBRANCH  12  14
ENDBRANCH   2  12
ENDBRANCH   1   5
BRANCH   1  15
ATOM     15  N1  UNL     1     150.988 158.099 155.599  0.00  0.00    -0.309 NA
ATOM     16  H12 UNL     1     150.493 158.467 154.783  0.00  0.00    +0.122 HD
BRANCH  15  17
ATOM     17  C9  UNL     1     151.241 156.658 155.360  0.00  0.00    +0.117 C 
BRANCH  17  18
ATOM     18  C10 UNL     1     152.765 156.368 155.334  0.00  0.00    +0.158 C 
BRANCH  18  19
ATOM     19  C11 UNL     1     153.262 155.939 153.964  0.00  0.00    -0.018 A 
ATOM     20  C12 UNL     1     153.411 154.570 153.679  0.00  0.00    +0.007 A 
ATOM     21  C13 UNL     1     153.848 154.147 152.421  0.00  0.00    +0.020 A 
ATOM     22  C14 UNL     1     154.143 155.088 151.437  0.00  0.00    +0.041 A 
ATOM     23 CL1  UNL     1     154.679 154.565 149.888  0.00  0.00    -0.084 Cl
ATOM     24  C15 UNL     1     154.006 156.448 151.701  0.00  0.00    +0.020 A 
ATOM     25  C16 UNL     1     153.568 156.870 152.959  0.00  0.00    +0.007 A 
ENDBRANCH  18  19
BRANCH  18  26
ATOM     26  O3  UNL     1     153.468 157.528 155.793  0.00  0.00    -0.386 OA
ATOM     27  H16 UNL     1     152.855 157.955 156.425  0.00  0.00    +0.210 HD
ENDBRANCH  18  26
ENDBRANCH  17  18
ENDBRANCH  15  17
ENDBRANCH   1  15
TORSDOF 10
ENDMDL
MODEL 7
REMARK VINA RESULT:    -6.384      6.336     11.088
REMARK INTER + INTRA:         -10.510
REMARK INTER:                  -9.908
REMARK INTRA:                  -0.602
REMARK UNBOUND:                -0.581
REMARK  Name = /home/vital/Documents/PhD_2021/Malaria_codes/data/pdb_ligands/ligand_283.pdb
REMARK  13 active torsions:
REMARK  status: ('A' for Active; 'I' for Inactive)
REMARK    1  A    between atoms: C1_1  and  C2_2
REMARK    2  A    between atoms: C2_2  and  O1_3
REMARK    3  A    between atoms: O1_3  and  C3_4
REMARK    4  A    between atoms: C4_5  and  O2_6
REMARK    5  A    between atoms: O2_6  and  C5_7
REMARK    6  A    between atoms: C7_9  and  C8_10
REMARK    7  A    between atoms: C8_10  and  N1_11
REMARK    8  A    between atoms: N1_11  and  C9_12
REMARK    9  A    between atoms: C9_12  and  C10_13
REMARK   10  A    between atoms: C10_13  and  O3_14
REMARK   11  A    between atoms: C10_13  and  C11_15
REMARK   12  A    between atoms: C18_23  and  O4_24
REMARK   13  A    between atoms: O4_24  and  C19_25
REMARK                            x       y       z     vdW  Elec       q    Type
REMARK                         _______ _______ _______ _____ _____    ______ ____
ROOT
ATOM      1  C8  UNL     1     151.966 161.243 158.889  0.00  0.00    +0.116 C 
ENDROOT
BRANCH   1   5
ATOM      2  C3  UNL     1     150.639 157.429 157.402  0.00  0.00    +0.204 A 
ATOM      3  C4  UNL     1     150.611 157.675 158.784  0.00  0.00    +0.165 A 
ATOM      4  C6  UNL     1     151.046 158.915 159.254  0.00  0.00    +0.054 A 
ATOM      5  C7  UNL     1     151.497 159.905 158.363  0.00  0.00    -0.026 A 
ATOM      6  C17 UNL     1     151.499 159.644 156.983  0.00  0.00    +0.054 A 
ATOM      7  C18 UNL     1     151.063 158.412 156.491  0.00  0.00    +0.165 A 
BRANCH   3   8
ATOM      8  O2  UNL     1     150.156 156.651 159.575  0.00  0.00    -0.491 OA
ATOM      9  C5  UNL     1     150.320 156.787 160.979  0.00  0.00    +0.277 C 
ENDBRANCH   3   8
BRANCH   7  10
ATOM     10  O4  UNL     1     151.032 158.065 155.165  0.00  0.00    -0.491 OA
ATOM     11  C19 UNL     1     152.239 158.192 154.426  0.00  0.00    +0.277 C 
ENDBRANCH   7  10
BRANCH   2  12
ATOM     12  O1  UNL     1     150.171 156.225 156.921  0.00  0.00    -0.485 OA
BRANCH  12  14
ATOM     13  C1  UNL     1     151.069 154.570 155.456  0.00  0.00    +0.048 C 
ATOM     14  C2  UNL     1     151.257 155.305 156.770  0.00  0.00    +0.226 C 
ENDBRANCH  12  14
ENDBRANCH   2  12
ENDBRANCH   1   5
BRANCH   1  15
ATOM     15  N1  UNL     1     152.816 161.130 160.079  0.00  0.00    -0.309 NA
ATOM     16  H12 UNL     1     152.679 160.198 160.477  0.00  0.00    +0.122 HD
BRANCH  15  17
ATOM     17  C9  UNL     1     152.445 162.121 161.116  0.00  0.00    +0.117 C 
BRANCH  17  18
ATOM     18  C10 UNL     1     151.455 161.499 162.137  0.00  0.00    +0.158 C 
BRANCH  18  19
ATOM     19  C11 UNL     1     151.690 161.981 163.558  0.00  0.00    -0.018 A 
ATOM     20  C12 UNL     1     152.572 161.273 164.393  0.00  0.00    +0.007 A 
ATOM     21  C13 UNL     1     152.821 161.705 165.698  0.00  0.00    +0.020 A 
ATOM     22  C14 UNL     1     152.189 162.847 166.182  0.00  0.00    +0.041 A 
ATOM     23 CL1  UNL     1     152.498 163.379 167.789  0.00  0.00    -0.084 Cl
ATOM     24  C15 UNL     1     151.309 163.560 165.373  0.00  0.00    +0.020 A 
ATOM     25  C16 UNL     1     151.061 163.128 164.068  0.00  0.00    +0.007 A 
ENDBRANCH  18  19
BRANCH  18  26
ATOM     26  O3  UNL     1     150.115 161.780 161.716  0.00  0.00    -0.386 OA
ATOM     27  H16 UNL     1     149.891 161.051 161.103  0.00  0.00    +0.210 HD
ENDBRANCH  18  26
ENDBRANCH  17  18
ENDBRANCH  15  17
ENDBRANCH   1  15
TORSDOF 10
ENDMDL
MODEL 8
REMARK VINA RESULT:    -6.378      6.361     11.117
REMARK INTER + INTRA:         -10.501
REMARK INTER:                  -9.892
REMARK INTRA:                  -0.609
REMARK UNBOUND:                -0.581
REMARK  Name = /home/vital/Documents/PhD_2021/Malaria_codes/data/pdb_ligands/ligand_283.pdb
REMARK  13 active torsions:
REMARK  status: ('A' for Active; 'I' for Inactive)
REMARK    1  A    between atoms: C1_1  and  C2_2
REMARK    2  A    between atoms: C2_2  and  O1_3
REMARK    3  A    between atoms: O1_3  and  C3_4
REMARK    4  A    between atoms: C4_5  and  O2_6
REMARK    5  A    between atoms: O2_6  and  C5_7
REMARK    6  A    between atoms: C7_9  and  C8_10
REMARK    7  A    between atoms: C8_10  and  N1_11
REMARK    8  A    between atoms: N1_11  and  C9_12
REMARK    9  A    between atoms: C9_12  and  C10_13
REMARK   10  A    between atoms: C10_13  and  O3_14
REMARK   11  A    between atoms: C10_13  and  C11_15
REMARK   12  A    between atoms: C18_23  and  O4_24
REMARK   13  A    between atoms: O4_24  and  C19_25
REMARK                            x       y       z     vdW  Elec       q    Type
REMARK                         _______ _______ _______ _____ _____    ______ ____
ROOT
ATOM      1  C8  UNL     1     152.043 161.245 158.857  0.00  0.00    +0.116 C 
ENDROOT
BRANCH   1   5
ATOM      2  C3  UNL     1     150.527 157.491 157.397  0.00  0.00    +0.204 A 
ATOM      3  C4  UNL     1     150.967 158.459 156.478  0.00  0.00    +0.165 A 
ATOM      4  C6  UNL     1     151.455 159.673 156.965  0.00  0.00    +0.054 A 
ATOM      5  C7  UNL     1     151.514 159.924 158.348  0.00  0.00    -0.026 A 
ATOM      6  C17 UNL     1     151.086 158.934 159.248  0.00  0.00    +0.054 A 
ATOM      7  C18 UNL     1     150.599 157.711 158.783  0.00  0.00    +0.165 A 
BRANCH   3   8
ATOM      8  O2  UNL     1     150.871 158.126 155.152  0.00  0.00    -0.491 OA
ATOM      9  C5  UNL     1     152.080 158.022 154.414  0.00  0.00    +0.277 C 
ENDBRANCH   3   8
BRANCH   7  10
ATOM     10  O4  UNL     1     150.157 156.688 159.584  0.00  0.00    -0.491 OA
ATOM     11  C19 UNL     1     150.019 156.958 160.972  0.00  0.00    +0.277 C 
ENDBRANCH   7  10
BRANCH   2  12
ATOM     12  O1  UNL     1     150.085 156.271 156.932  0.00  0.00    -0.485 OA
BRANCH  12  14
ATOM     13  C1  UNL     1     150.902 154.436 155.645  0.00  0.00    +0.048 C 
ATOM     14  C2  UNL     1     151.188 155.368 156.808  0.00  0.00    +0.226 C 
ENDBRANCH  12  14
ENDBRANCH   2  12
ENDBRANCH   1   5
BRANCH   1  15
ATOM     15  N1  UNL     1     152.834 161.116 160.086  0.00  0.00    -0.309 NA
ATOM     16  H12 UNL     1     152.659 160.187 160.476  0.00  0.00    +0.122 HD
BRANCH  15  17
ATOM     17  C9  UNL     1     152.433 162.115 161.104  0.00  0.00    +0.117 C 
BRANCH  17  18
ATOM     18  C10 UNL     1     151.426 161.497 162.109  0.00  0.00    +0.158 C 
BRANCH  18  19
ATOM     19  C11 UNL     1     151.643 161.974 163.535  0.00  0.00    -0.018 A 
ATOM     20  C12 UNL     1     152.552 161.291 164.363  0.00  0.00    +0.007 A 
ATOM     21  C13 UNL     1     152.785 161.720 165.672  0.00  0.00    +0.020 A 
ATOM     22  C14 UNL     1     152.112 162.834 166.167  0.00  0.00    +0.041 A 
ATOM     23 CL1  UNL     1     152.402 163.363 167.778  0.00  0.00    -0.084 Cl
ATOM     24  C15 UNL     1     151.206 163.522 165.364  0.00  0.00    +0.020 A 
ATOM     25  C16 UNL     1     150.973 163.092 164.055  0.00  0.00    +0.007 A 
ENDBRANCH  18  19
BRANCH  18  26
ATOM     26  O3  UNL     1     150.093 161.786 161.671  0.00  0.00    -0.386 OA
ATOM     27  H16 UNL     1     149.636 160.921 161.684  0.00  0.00    +0.210 HD
ENDBRANCH  18  26
ENDBRANCH  17  18
ENDBRANCH  15  17
ENDBRANCH   1  15
TORSDOF 10
ENDMDL
MODEL 9
REMARK VINA RESULT:    -6.333      6.357     11.633
REMARK INTER + INTRA:         -10.431
REMARK INTER:                  -9.918
REMARK INTRA:                  -0.513
REMARK UNBOUND:                -0.581
REMARK  Name = /home/vital/Documents/PhD_2021/Malaria_codes/data/pdb_ligands/ligand_283.pdb
REMARK  13 active torsions:
REMARK  status: ('A' for Active; 'I' for Inactive)
REMARK    1  A    between atoms: C1_1  and  C2_2
REMARK    2  A    between atoms: C2_2  and  O1_3
REMARK    3  A    between atoms: O1_3  and  C3_4
REMARK    4  A    between atoms: C4_5  and  O2_6
REMARK    5  A    between atoms: O2_6  and  C5_7
REMARK    6  A    between atoms: C7_9  and  C8_10
REMARK    7  A    between atoms: C8_10  and  N1_11
REMARK    8  A    between atoms: N1_11  and  C9_12
REMARK    9  A    between atoms: C9_12  and  C10_13
REMARK   10  A    between atoms: C10_13  and  O3_14
REMARK   11  A    between atoms: C10_13  and  C11_15
REMARK   12  A    between atoms: C18_23  and  O4_24
REMARK   13  A    between atoms: O4_24  and  C19_25
REMARK                            x       y       z     vdW  Elec       q    Type
REMARK                         _______ _______ _______ _____ _____    ______ ____
ROOT
ATOM      1  C8  UNL     1     149.580 159.867 160.951  0.00  0.00    +0.116 C 
ENDROOT
BRANCH   1   5
ATOM      2  C3  UNL     1     151.654 158.854 157.319  0.00  0.00    +0.204 A 
ATOM      3  C4  UNL     1     151.602 160.196 157.729  0.00  0.00    +0.165 A 
ATOM      4  C6  UNL     1     150.925 160.512 158.909  0.00  0.00    +0.054 A 
ATOM      5  C7  UNL     1     150.311 159.507 159.678  0.00  0.00    -0.026 A 
ATOM      6  C17 UNL     1     150.391 158.169 159.258  0.00  0.00    +0.054 A 
ATOM      7  C18 UNL     1     151.069 157.831 158.085  0.00  0.00    +0.165 A 
BRANCH   3   8
ATOM      8  O2  UNL     1     152.228 161.106 156.916  0.00  0.00    -0.491 OA
ATOM      9  C5  UNL     1     151.819 162.462 157.015  0.00  0.00    +0.277 C 
ENDBRANCH   3   8
BRANCH   7  10
ATOM     10  O4  UNL     1     151.197 156.556 157.594  0.00  0.00    -0.491 OA
ATOM     11  C19 UNL     1     151.655 155.554 158.491  0.00  0.00    +0.277 C 
ENDBRANCH   7  10
BRANCH   2  12
ATOM     12  O1  UNL     1     152.357 158.523 156.181  0.00  0.00    -0.485 OA
BRANCH  12  14
ATOM     13  C1  UNL     1     152.275 158.020 153.851  0.00  0.00    +0.048 C 
ATOM     14  C2  UNL     1     151.462 158.411 155.070  0.00  0.00    +0.226 C 
ENDBRANCH  12  14
ENDBRANCH   2  12
ENDBRANCH   1   5
BRANCH   1  15
ATOM     15  N1  UNL     1     149.801 161.255 161.373  0.00  0.00    -0.309 NA
ATOM     16  H12 UNL     1     150.571 161.634 160.817  0.00  0.00    +0.122 HD
BRANCH  15  17
ATOM     17  C9  UNL     1     150.190 161.341 162.800  0.00  0.00    +0.117 C 
BRANCH  17  18
ATOM     18  C10 UNL     1     151.534 162.102 162.954  0.00  0.00    +0.158 C 
BRANCH  18  19
ATOM     19  C11 UNL     1     152.095 162.034 164.364  0.00  0.00    -0.018 A 
ATOM     20  C12 UNL     1     153.071 161.071 164.676  0.00  0.00    +0.007 A 
ATOM     21  C13 UNL     1     153.618 160.999 165.960  0.00  0.00    +0.020 A 
ATOM     22  C14 UNL     1     153.194 161.888 166.944  0.00  0.00    +0.041 A 
ATOM     23 CL1  UNL     1     153.870 161.800 168.524  0.00  0.00    -0.084 Cl
ATOM     24  C15 UNL     1     152.226 162.846 166.657  0.00  0.00    +0.020 A 
ATOM     25  C16 UNL     1     151.679 162.917 165.373  0.00  0.00    +0.007 A 
ENDBRANCH  18  19
BRANCH  18  26
ATOM     26  O3  UNL     1     152.474 161.585 162.005  0.00  0.00    -0.386 OA
ATOM     27  H16 UNL     1     153.204 161.227 162.550  0.00  0.00    +0.210 HD
ENDBRANCH  18  26
ENDBRANCH  17  18
ENDBRANCH  15  17
ENDBRANCH   1  15
TORSDOF 10
ENDMDL
