MODEL 1
REMARK VINA RESULT:    -8.139      0.000      0.000
REMARK INTER + INTRA:         -10.196
REMARK INTER:                  -9.804
REMARK INTRA:                  -0.391
REMARK UNBOUND:                -0.391
REMARK  Name = /home/vital/Documents/PhD_2021/Malaria_codes/data/pdb_ligands/ligand_212.pdb
REMARK  5 active torsions:
REMARK  status: ('A' for Active; 'I' for Inactive)
REMARK    1  A    between atoms: C1_1  and  S1_2
REMARK    2  A    between atoms: S1_2  and  C2_5
REMARK    3  A    between atoms: C6_9  and  C7_10
REMARK    4  A    between atoms: C9_15  and  C10_16
REMARK    5  A    between atoms: C13_19  and  O4_20
REMARK                            x       y       z     vdW  Elec       q    Type
REMARK                         _______ _______ _______ _____ _____    ______ ____
ROOT
ATOM      1  C7  UNL     1     151.576 157.335 155.935  0.00  0.00    +0.250 C 
ATOM      2  O3  UNL     1     151.006 158.238 155.336  0.00  0.00    -0.270 OA
ATOM      3  N1  UNL     1     152.516 156.466 155.431  0.00  0.00    -0.261 N 
ATOM      4  C8  UNL     1     153.050 156.471 154.167  0.00  0.00    +0.165 A 
ATOM      5  N2  UNL     1     153.892 155.535 153.797  0.00  0.00    -0.225 NA
ATOM      6  C9  UNL     1     154.313 155.760 152.491  0.00  0.00    +0.080 A 
ATOM      7  C16 UNL     1     153.751 156.875 151.899  0.00  0.00    +0.076 A 
ATOM      8  S2  UNL     1     152.701 157.660 153.004  0.00  0.00    -0.060 S 
ATOM      9  H7  UNL     1     152.845 155.685 155.976  0.00  0.00    +0.157 HD
ENDROOT
BRANCH   1  14
ATOM     10  C2  UNL     1     150.450 157.848 159.539  0.00  0.00    +0.089 A 
ATOM     11  C3  UNL     1     150.473 156.534 160.018  0.00  0.00    +0.027 A 
ATOM     12  C4  UNL     1     150.864 155.503 159.168  0.00  0.00    +0.003 A 
ATOM     13  C5  UNL     1     151.225 155.785 157.849  0.00  0.00    +0.013 A 
ATOM     14  C6  UNL     1     151.198 157.103 157.364  0.00  0.00    +0.039 A 
ATOM     15  C17 UNL     1     150.793 158.140 158.213  0.00  0.00    +0.040 A 
BRANCH  10  17
ATOM     16  C1  UNL     1     150.979 160.511 160.185  0.00  0.00    +0.200 C 
ATOM     17  S1  UNL     1     149.926 159.153 160.626  0.00  0.00    -0.006 S 
ATOM     18  O1  UNL     1     148.570 159.508 160.253  0.00  0.00    -0.170 OA
ATOM     19  O2  UNL     1     150.249 158.739 161.976  0.00  0.00    -0.170 OA
ENDBRANCH  10  17
ENDBRANCH   1  14
BRANCH   6  20
ATOM     20  C10 UNL     1     155.259 154.854 151.839  0.00  0.00    +0.001 A 
ATOM     21  C11 UNL     1     155.398 153.511 152.220  0.00  0.00    +0.013 A 
ATOM     22  C12 UNL     1     156.314 152.677 151.570  0.00  0.00    +0.046 A 
ATOM     23  C13 UNL     1     157.092 153.178 150.536  0.00  0.00    +0.117 A 
ATOM     24  C14 UNL     1     156.972 154.503 150.135  0.00  0.00    +0.046 A 
ATOM     25  C15 UNL     1     156.056 155.334 150.785  0.00  0.00    +0.013 A 
BRANCH  23  26
ATOM     26  O4  UNL     1     157.971 152.328 149.932  0.00  0.00    -0.507 OA
ATOM     27  H10 UNL     1     158.834 152.414 150.368  0.00  0.00    +0.292 HD
ENDBRANCH  23  26
ENDBRANCH   6  20
TORSDOF 4
ENDMDL
MODEL 2
REMARK VINA RESULT:    -8.131      2.109      9.875
REMARK INTER + INTRA:         -10.186
REMARK INTER:                  -9.787
REMARK INTRA:                  -0.400
REMARK UNBOUND:                -0.391
REMARK  Name = /home/vital/Documents/PhD_2021/Malaria_codes/data/pdb_ligands/ligand_212.pdb
REMARK  5 active torsions:
REMARK  status: ('A' for Active; 'I' for Inactive)
REMARK    1  A    between atoms: C1_1  and  S1_2
REMARK    2  A    between atoms: S1_2  and  C2_5
REMARK    3  A    between atoms: C6_9  and  C7_10
REMARK    4  A    between atoms: C9_15  and  C10_16
REMARK    5  A    between atoms: C13_19  and  O4_20
REMARK                            x       y       z     vdW  Elec       q    Type
REMARK                         _______ _______ _______ _____ _____    ______ ____
ROOT
ATOM      1  C7  UNL     1     153.920 155.827 152.626  0.00  0.00    +0.250 C 
ATOM      2  O3  UNL     1     154.022 156.817 151.913  0.00  0.00    -0.270 OA
ATOM      3  N1  UNL     1     153.335 155.754 153.869  0.00  0.00    -0.261 N 
ATOM      4  C8  UNL     1     152.693 156.764 154.540  0.00  0.00    +0.165 A 
ATOM      5  N2  UNL     1     152.240 156.572 155.756  0.00  0.00    -0.225 NA
ATOM      6  C9  UNL     1     151.612 157.723 156.219  0.00  0.00    +0.080 A 
ATOM      7  C16 UNL     1     151.625 158.775 155.323  0.00  0.00    +0.076 A 
ATOM      8  S2  UNL     1     152.415 158.304 153.876  0.00  0.00    -0.060 S 
ATOM      9  H7  UNL     1     153.401 154.915 154.424  0.00  0.00    +0.157 HD
ENDROOT
BRANCH   1  14
ATOM     10  C2  UNL     1     155.951 153.280 150.650  0.00  0.00    +0.089 A 
ATOM     11  C3  UNL     1     155.633 152.098 151.327  0.00  0.00    +0.027 A 
ATOM     12  C4  UNL     1     154.756 152.143 152.407  0.00  0.00    +0.003 A 
ATOM     13  C5  UNL     1     154.206 153.363 152.808  0.00  0.00    +0.013 A 
ATOM     14  C6  UNL     1     154.527 154.552 152.134  0.00  0.00    +0.039 A 
ATOM     15  C17 UNL     1     155.418 154.511 151.054  0.00  0.00    +0.040 A 
BRANCH  10  17
ATOM     16  C1  UNL     1     156.719 151.662 148.509  0.00  0.00    +0.200 C 
ATOM     17  S1  UNL     1     157.090 153.213 149.286  0.00  0.00    -0.006 S 
ATOM     18  O1  UNL     1     156.720 154.268 148.363  0.00  0.00    -0.170 OA
ATOM     19  O2  UNL     1     158.423 153.139 149.848  0.00  0.00    -0.170 OA
ENDBRANCH  10  17
ENDBRANCH   1  14
BRANCH   6  20
ATOM     20  C10 UNL     1     151.018 157.770 157.555  0.00  0.00    +0.001 A 
ATOM     21  C11 UNL     1     151.180 156.734 158.487  0.00  0.00    +0.013 A 
ATOM     22  C12 UNL     1     150.596 156.818 159.755  0.00  0.00    +0.046 A 
ATOM     23  C13 UNL     1     149.850 157.936 160.101  0.00  0.00    +0.117 A 
ATOM     24  C14 UNL     1     149.677 158.979 159.199  0.00  0.00    +0.046 A 
ATOM     25  C15 UNL     1     150.262 158.893 157.932  0.00  0.00    +0.013 A 
BRANCH  23  26
ATOM     26  O4  UNL     1     149.301 157.973 161.348  0.00  0.00    -0.507 OA
ATOM     27  H10 UNL     1     149.137 157.063 161.641  0.00  0.00    +0.292 HD
ENDBRANCH  23  26
ENDBRANCH   6  20
TORSDOF 4
ENDMDL
MODEL 3
REMARK VINA RESULT:    -7.867      1.927      2.642
REMARK INTER + INTRA:          -9.868
REMARK INTER:                  -9.474
REMARK INTRA:                  -0.394
REMARK UNBOUND:                -0.391
REMARK  Name = /home/vital/Documents/PhD_2021/Malaria_codes/data/pdb_ligands/ligand_212.pdb
REMARK  5 active torsions:
REMARK  status: ('A' for Active; 'I' for Inactive)
REMARK    1  A    between atoms: C1_1  and  S1_2
REMARK    2  A    between atoms: S1_2  and  C2_5
REMARK    3  A    between atoms: C6_9  and  C7_10
REMARK    4  A    between atoms: C9_15  and  C10_16
REMARK    5  A    between atoms: C13_19  and  O4_20
REMARK                            x       y       z     vdW  Elec       q    Type
REMARK                         _______ _______ _______ _____ _____    ______ ____
ROOT
ATOM      1  C7  UNL     1     151.574 157.365 155.672  0.00  0.00    +0.250 C 
ATOM      2  O3  UNL     1     151.099 158.317 155.067  0.00  0.00    -0.270 OA
ATOM      3  N1  UNL     1     152.479 156.444 155.196  0.00  0.00    -0.261 N 
ATOM      4  C8  UNL     1     153.080 156.439 153.963  0.00  0.00    +0.165 A 
ATOM      5  N2  UNL     1     153.875 155.456 153.614  0.00  0.00    -0.225 NA
ATOM      6  C9  UNL     1     154.380 155.680 152.338  0.00  0.00    +0.080 A 
ATOM      7  C16 UNL     1     153.928 156.843 151.745  0.00  0.00    +0.076 A 
ATOM      8  S2  UNL     1     152.876 157.674 152.813  0.00  0.00    -0.060 S 
ATOM      9  H7  UNL     1     152.724 155.631 155.737  0.00  0.00    +0.157 HD
ENDROOT
BRANCH   1  14
ATOM     10  C2  UNL     1     150.328 155.708 158.869  0.00  0.00    +0.089 A 
ATOM     11  C3  UNL     1     150.275 156.803 159.737  0.00  0.00    +0.027 A 
ATOM     12  C4  UNL     1     150.633 158.064 159.269  0.00  0.00    +0.003 A 
ATOM     13  C5  UNL     1     151.045 158.226 157.945  0.00  0.00    +0.013 A 
ATOM     14  C6  UNL     1     151.104 157.128 157.072  0.00  0.00    +0.039 A 
ATOM     15  C17 UNL     1     150.756 155.856 157.543  0.00  0.00    +0.040 A 
BRANCH  10  17
ATOM     16  C1  UNL     1     151.450 153.262 159.610  0.00  0.00    +0.200 C 
ATOM     17  S1  UNL     1     149.891 154.098 159.484  0.00  0.00    -0.006 S 
ATOM     18  O1  UNL     1     149.376 154.275 160.828  0.00  0.00    -0.170 OA
ATOM     19  O2  UNL     1     149.101 153.449 158.456  0.00  0.00    -0.170 OA
ENDBRANCH  10  17
ENDBRANCH   1  14
BRANCH   6  20
ATOM     20  C10 UNL     1     155.296 154.725 151.713  0.00  0.00    +0.001 A 
ATOM     21  C11 UNL     1     155.322 153.367 152.065  0.00  0.00    +0.013 A 
ATOM     22  C12 UNL     1     156.213 152.486 151.444  0.00  0.00    +0.046 A 
ATOM     23  C13 UNL     1     157.081 152.955 150.467  0.00  0.00    +0.117 A 
ATOM     24  C14 UNL     1     157.074 154.293 150.096  0.00  0.00    +0.046 A 
ATOM     25  C15 UNL     1     156.183 155.172 150.718  0.00  0.00    +0.013 A 
BRANCH  23  26
ATOM     26  O4  UNL     1     157.931 152.059 149.889  0.00  0.00    -0.507 OA
ATOM     27  H10 UNL     1     158.284 151.477 150.581  0.00  0.00    +0.292 HD
ENDBRANCH  23  26
ENDBRANCH   6  20
TORSDOF 4
ENDMDL
MODEL 4
REMARK VINA RESULT:    -7.810      2.235      3.098
REMARK INTER + INTRA:          -9.799
REMARK INTER:                  -9.405
REMARK INTRA:                  -0.395
REMARK UNBOUND:                -0.391
REMARK  Name = /home/vital/Documents/PhD_2021/Malaria_codes/data/pdb_ligands/ligand_212.pdb
REMARK  5 active torsions:
REMARK  status: ('A' for Active; 'I' for Inactive)
REMARK    1  A    between atoms: C1_1  and  S1_2
REMARK    2  A    between atoms: S1_2  and  C2_5
REMARK    3  A    between atoms: C6_9  and  C7_10
REMARK    4  A    between atoms: C9_15  and  C10_16
REMARK    5  A    between atoms: C13_19  and  O4_20
REMARK                            x       y       z     vdW  Elec       q    Type
REMARK                         _______ _______ _______ _____ _____    ______ ____
ROOT
ATOM      1  C7  UNL     1     152.117 155.075 154.793  0.00  0.00    +0.250 C 
ATOM      2  O3  UNL     1     151.400 154.139 155.123  0.00  0.00    -0.270 OA
ATOM      3  N1  UNL     1     153.179 155.042 153.919  0.00  0.00    -0.261 N 
ATOM      4  C8  UNL     1     153.617 153.963 153.194  0.00  0.00    +0.165 A 
ATOM      5  N2  UNL     1     154.692 154.055 152.447  0.00  0.00    -0.225 NA
ATOM      6  C9  UNL     1     154.925 152.850 151.794  0.00  0.00    +0.080 A 
ATOM      7  C16 UNL     1     154.007 151.860 152.086  0.00  0.00    +0.076 A 
ATOM      8  S2  UNL     1     152.826 152.458 153.176  0.00  0.00    -0.060 S 
ATOM      9  H7  UNL     1     153.776 155.844 153.798  0.00  0.00    +0.157 HD
ENDROOT
BRANCH   1  14
ATOM     10  C2  UNL     1     151.151 157.812 157.260  0.00  0.00    +0.089 A 
ATOM     11  C3  UNL     1     151.446 158.961 156.519  0.00  0.00    +0.027 A 
ATOM     12  C4  UNL     1     151.943 158.830 155.225  0.00  0.00    +0.003 A 
ATOM     13  C5  UNL     1     152.147 157.560 154.681  0.00  0.00    +0.013 A 
ATOM     14  C6  UNL     1     151.856 156.405 155.425  0.00  0.00    +0.039 A 
ATOM     15  C17 UNL     1     151.368 156.534 156.731  0.00  0.00    +0.040 A 
BRANCH  10  17
ATOM     16  C1  UNL     1     151.884 158.764 159.780  0.00  0.00    +0.200 C 
ATOM     17  S1  UNL     1     150.538 157.992 158.920  0.00  0.00    -0.006 S 
ATOM     18  O1  UNL     1     149.442 158.941 158.875  0.00  0.00    -0.170 OA
ATOM     19  O2  UNL     1     150.355 156.658 159.453  0.00  0.00    -0.170 OA
ENDBRANCH  10  17
ENDBRANCH   1  14
BRANCH   6  20
ATOM     20  C10 UNL     1     156.070 152.691 150.896  0.00  0.00    +0.001 A 
ATOM     21  C11 UNL     1     156.124 151.685 149.919  0.00  0.00    +0.013 A 
ATOM     22  C12 UNL     1     157.236 151.566 149.079  0.00  0.00    +0.046 A 
ATOM     23  C13 UNL     1     158.298 152.452 149.208  0.00  0.00    +0.117 A 
ATOM     24  C14 UNL     1     158.268 153.460 150.164  0.00  0.00    +0.046 A 
ATOM     25  C15 UNL     1     157.156 153.577 151.002  0.00  0.00    +0.013 A 
BRANCH  23  26
ATOM     26  O4  UNL     1     159.360 152.298 148.368  0.00  0.00    -0.507 OA
ATOM     27  H10 UNL     1     159.059 151.835 147.569  0.00  0.00    +0.292 HD
ENDBRANCH  23  26
ENDBRANCH   6  20
TORSDOF 4
ENDMDL
MODEL 5
REMARK VINA RESULT:    -7.744      2.568      9.671
REMARK INTER + INTRA:          -9.720
REMARK INTER:                  -9.339
REMARK INTRA:                  -0.381
REMARK UNBOUND:                -0.391
REMARK  Name = /home/vital/Documents/PhD_2021/Malaria_codes/data/pdb_ligands/ligand_212.pdb
REMARK  5 active torsions:
REMARK  status: ('A' for Active; 'I' for Inactive)
REMARK    1  A    between atoms: C1_1  and  S1_2
REMARK    2  A    between atoms: S1_2  and  C2_5
REMARK    3  A    between atoms: C6_9  and  C7_10
REMARK    4  A    between atoms: C9_15  and  C10_16
REMARK    5  A    between atoms: C13_19  and  O4_20
REMARK                            x       y       z     vdW  Elec       q    Type
REMARK                         _______ _______ _______ _____ _____    ______ ____
ROOT
ATOM      1  C7  UNL     1     154.117 155.486 152.472  0.00  0.00    +0.250 C 
ATOM      2  O3  UNL     1     154.093 156.429 151.692  0.00  0.00    -0.270 OA
ATOM      3  N1  UNL     1     153.585 155.442 153.741  0.00  0.00    -0.261 N 
ATOM      4  C8  UNL     1     152.866 156.426 154.369  0.00  0.00    +0.165 A 
ATOM      5  N2  UNL     1     152.476 156.275 155.612  0.00  0.00    -0.225 NA
ATOM      6  C9  UNL     1     151.749 157.387 156.023  0.00  0.00    +0.080 A 
ATOM      7  C16 UNL     1     151.624 158.370 155.061  0.00  0.00    +0.076 A 
ATOM      8  S2  UNL     1     152.408 157.881 153.617  0.00  0.00    -0.060 S 
ATOM      9  H7  UNL     1     153.756 154.655 154.346  0.00  0.00    +0.157 HD
ENDROOT
BRANCH   1  14
ATOM     10  C2  UNL     1     154.898 151.984 151.190  0.00  0.00    +0.089 A 
ATOM     11  C3  UNL     1     156.296 151.992 151.218  0.00  0.00    +0.027 A 
ATOM     12  C4  UNL     1     156.965 153.129 151.663  0.00  0.00    +0.003 A 
ATOM     13  C5  UNL     1     156.239 154.250 152.072  0.00  0.00    +0.013 A 
ATOM     14  C6  UNL     1     154.835 154.247 152.041  0.00  0.00    +0.039 A 
ATOM     15  C17 UNL     1     154.160 153.109 151.582  0.00  0.00    +0.040 A 
BRANCH  10  17
ATOM     16  C1  UNL     1     153.014 151.157 149.305  0.00  0.00    +0.200 C 
ATOM     17  S1  UNL     1     154.056 150.535 150.598  0.00  0.00    -0.006 S 
ATOM     18  O1  UNL     1     155.052 149.676 149.986  0.00  0.00    -0.170 OA
ATOM     19  O2  UNL     1     153.216 150.059 151.678  0.00  0.00    -0.170 OA
ENDBRANCH  10  17
ENDBRANCH   1  14
BRANCH   6  20
ATOM     20  C10 UNL     1     151.199 157.467 157.377  0.00  0.00    +0.001 A 
ATOM     21  C11 UNL     1     150.457 158.571 157.822  0.00  0.00    +0.013 A 
ATOM     22  C12 UNL     1     149.947 158.609 159.124  0.00  0.00    +0.046 A 
ATOM     23  C13 UNL     1     150.174 157.545 159.987  0.00  0.00    +0.117 A 
ATOM     24  C14 UNL     1     150.902 156.438 159.571  0.00  0.00    +0.046 A 
ATOM     25  C15 UNL     1     151.410 156.402 158.269  0.00  0.00    +0.013 A 
BRANCH  23  26
ATOM     26  O4  UNL     1     149.657 157.627 161.246  0.00  0.00    -0.507 OA
ATOM     27  H10 UNL     1     148.946 158.287 161.247  0.00  0.00    +0.292 HD
ENDBRANCH  23  26
ENDBRANCH   6  20
TORSDOF 4
ENDMDL
MODEL 6
REMARK VINA RESULT:    -7.640      2.263      3.765
REMARK INTER + INTRA:          -9.594
REMARK INTER:                  -9.211
REMARK INTRA:                  -0.383
REMARK UNBOUND:                -0.391
REMARK  Name = /home/vital/Documents/PhD_2021/Malaria_codes/data/pdb_ligands/ligand_212.pdb
REMARK  5 active torsions:
REMARK  status: ('A' for Active; 'I' for Inactive)
REMARK    1  A    between atoms: C1_1  and  S1_2
REMARK    2  A    between atoms: S1_2  and  C2_5
REMARK    3  A    between atoms: C6_9  and  C7_10
REMARK    4  A    between atoms: C9_15  and  C10_16
REMARK    5  A    between atoms: C13_19  and  O4_20
REMARK                            x       y       z     vdW  Elec       q    Type
REMARK                         _______ _______ _______ _____ _____    ______ ____
ROOT
ATOM      1  C7  UNL     1     151.083 158.027 158.589  0.00  0.00    +0.250 C 
ATOM      2  O3  UNL     1     150.197 157.265 158.955  0.00  0.00    -0.270 OA
ATOM      3  N1  UNL     1     151.894 157.890 157.485  0.00  0.00    -0.261 N 
ATOM      4  C8  UNL     1     151.835 156.902 156.535  0.00  0.00    +0.165 A 
ATOM      5  N2  UNL     1     152.720 156.856 155.568  0.00  0.00    -0.225 NA
ATOM      6  C9  UNL     1     152.446 155.788 154.720  0.00  0.00    +0.080 A 
ATOM      7  C16 UNL     1     151.348 155.037 155.092  0.00  0.00    +0.076 A 
ATOM      8  S2  UNL     1     150.640 155.694 156.508  0.00  0.00    -0.060 S 
ATOM      9  H7  UNL     1     152.669 158.515 157.332  0.00  0.00    +0.157 HD
ENDROOT
BRANCH   1  14
ATOM     10  C2  UNL     1     151.612 160.336 161.572  0.00  0.00    +0.089 A 
ATOM     11  C3  UNL     1     151.955 161.531 160.931  0.00  0.00    +0.027 A 
ATOM     12  C4  UNL     1     151.998 161.573 159.540  0.00  0.00    +0.003 A 
ATOM     13  C5  UNL     1     151.705 160.426 158.799  0.00  0.00    +0.013 A 
ATOM     14  C6  UNL     1     151.365 159.224 159.440  0.00  0.00    +0.039 A 
ATOM     15  C17 UNL     1     151.333 159.176 160.839  0.00  0.00    +0.040 A 
BRANCH  10  17
ATOM     16  C1  UNL     1     151.890 158.584 163.726  0.00  0.00    +0.200 C 
ATOM     17  S1  UNL     1     151.583 160.289 163.350  0.00  0.00    -0.006 S 
ATOM     18  O1  UNL     1     152.720 161.056 163.820  0.00  0.00    -0.170 OA
ATOM     19  O2  UNL     1     150.233 160.617 163.762  0.00  0.00    -0.170 OA
ENDBRANCH  10  17
ENDBRANCH   1  14
BRANCH   6  20
ATOM     20  C10 UNL     1     153.290 155.516 153.556  0.00  0.00    +0.001 A 
ATOM     21  C11 UNL     1     153.778 156.537 152.727  0.00  0.00    +0.013 A 
ATOM     22  C12 UNL     1     154.583 156.235 151.623  0.00  0.00    +0.046 A 
ATOM     23  C13 UNL     1     154.907 154.914 151.344  0.00  0.00    +0.117 A 
ATOM     24  C14 UNL     1     154.441 153.884 152.151  0.00  0.00    +0.046 A 
ATOM     25  C15 UNL     1     153.637 154.188 153.254  0.00  0.00    +0.013 A 
BRANCH  23  26
ATOM     26  O4  UNL     1     155.694 154.668 150.259  0.00  0.00    -0.507 OA
ATOM     27  H10 UNL     1     155.538 155.363 149.599  0.00  0.00    +0.292 HD
ENDBRANCH  23  26
ENDBRANCH   6  20
TORSDOF 4
ENDMDL
MODEL 7
REMARK VINA RESULT:    -7.559      4.832      9.541
REMARK INTER + INTRA:          -9.497
REMARK INTER:                  -9.102
REMARK INTRA:                  -0.394
REMARK UNBOUND:                -0.391
REMARK  Name = /home/vital/Documents/PhD_2021/Malaria_codes/data/pdb_ligands/ligand_212.pdb
REMARK  5 active torsions:
REMARK  status: ('A' for Active; 'I' for Inactive)
REMARK    1  A    between atoms: C1_1  and  S1_2
REMARK    2  A    between atoms: S1_2  and  C2_5
REMARK    3  A    between atoms: C6_9  and  C7_10
REMARK    4  A    between atoms: C9_15  and  C10_16
REMARK    5  A    between atoms: C13_19  and  O4_20
REMARK                            x       y       z     vdW  Elec       q    Type
REMARK                         _______ _______ _______ _____ _____    ______ ____
ROOT
ATOM      1  C7  UNL     1     150.442 154.169 155.393  0.00  0.00    +0.250 C 
ATOM      2  O3  UNL     1     151.103 154.415 154.391  0.00  0.00    -0.270 OA
ATOM      3  N1  UNL     1     150.205 155.007 156.458  0.00  0.00    -0.261 N 
ATOM      4  C8  UNL     1     150.611 156.310 156.590  0.00  0.00    +0.165 A 
ATOM      5  N2  UNL     1     150.373 156.973 157.697  0.00  0.00    -0.225 NA
ATOM      6  C9  UNL     1     150.855 158.273 157.589  0.00  0.00    +0.080 A 
ATOM      7  C16 UNL     1     151.469 158.551 156.382  0.00  0.00    +0.076 A 
ATOM      8  S2  UNL     1     151.419 157.171 155.367  0.00  0.00    -0.060 S 
ATOM      9  H7  UNL     1     149.740 154.671 157.287  0.00  0.00    +0.157 HD
ENDROOT
BRANCH   1  14
ATOM     10  C2  UNL     1     149.059 150.710 154.597  0.00  0.00    +0.089 A 
ATOM     11  C3  UNL     1     148.775 150.231 155.880  0.00  0.00    +0.027 A 
ATOM     12  C4  UNL     1     149.026 151.042 156.983  0.00  0.00    +0.003 A 
ATOM     13  C5  UNL     1     149.561 152.319 156.803  0.00  0.00    +0.013 A 
ATOM     14  C6  UNL     1     149.852 152.801 155.516  0.00  0.00    +0.039 A 
ATOM     15  C17 UNL     1     149.612 151.982 154.406  0.00  0.00    +0.040 A 
BRANCH  10  17
ATOM     16  C1  UNL     1     150.325 148.879 152.913  0.00  0.00    +0.200 C 
ATOM     17  S1  UNL     1     148.756 149.656 153.197  0.00  0.00    -0.006 S 
ATOM     18  O1  UNL     1     147.827 148.627 153.624  0.00  0.00    -0.170 OA
ATOM     19  O2  UNL     1     148.458 150.518 152.072  0.00  0.00    -0.170 OA
ENDBRANCH  10  17
ENDBRANCH   1  14
BRANCH   6  20
ATOM     20  C10 UNL     1     150.714 159.222 158.693  0.00  0.00    +0.001 A 
ATOM     21  C11 UNL     1     151.581 160.311 158.865  0.00  0.00    +0.013 A 
ATOM     22  C12 UNL     1     151.412 161.196 159.934  0.00  0.00    +0.046 A 
ATOM     23  C13 UNL     1     150.374 161.001 160.836  0.00  0.00    +0.117 A 
ATOM     24  C14 UNL     1     149.498 159.933 160.688  0.00  0.00    +0.046 A 
ATOM     25  C15 UNL     1     149.669 159.050 159.618  0.00  0.00    +0.013 A 
BRANCH  23  26
ATOM     26  O4  UNL     1     150.248 161.889 161.862  0.00  0.00    -0.507 OA
ATOM     27  H10 UNL     1     150.619 161.489 162.665  0.00  0.00    +0.292 HD
ENDBRANCH  23  26
ENDBRANCH   6  20
TORSDOF 4
ENDMDL
MODEL 8
REMARK VINA RESULT:    -7.510      4.663      9.388
REMARK INTER + INTRA:          -9.438
REMARK INTER:                  -9.058
REMARK INTRA:                  -0.380
REMARK UNBOUND:                -0.391
REMARK  Name = /home/vital/Documents/PhD_2021/Malaria_codes/data/pdb_ligands/ligand_212.pdb
REMARK  5 active torsions:
REMARK  status: ('A' for Active; 'I' for Inactive)
REMARK    1  A    between atoms: C1_1  and  S1_2
REMARK    2  A    between atoms: S1_2  and  C2_5
REMARK    3  A    between atoms: C6_9  and  C7_10
REMARK    4  A    between atoms: C9_15  and  C10_16
REMARK    5  A    between atoms: C13_19  and  O4_20
REMARK                            x       y       z     vdW  Elec       q    Type
REMARK                         _______ _______ _______ _____ _____    ______ ____
ROOT
ATOM      1  C7  UNL     1     150.758 154.552 155.125  0.00  0.00    +0.250 C 
ATOM      2  O3  UNL     1     151.641 154.774 154.307  0.00  0.00    -0.270 OA
ATOM      3  N1  UNL     1     150.383 155.350 156.182  0.00  0.00    -0.261 N 
ATOM      4  C8  UNL     1     150.885 156.587 156.500  0.00  0.00    +0.165 A 
ATOM      5  N2  UNL     1     150.483 157.210 157.582  0.00  0.00    -0.225 NA
ATOM      6  C9  UNL     1     151.109 158.447 157.682  0.00  0.00    +0.080 A 
ATOM      7  C16 UNL     1     151.996 158.718 156.657  0.00  0.00    +0.076 A 
ATOM      8  S2  UNL     1     152.023 157.413 155.545  0.00  0.00    -0.060 S 
ATOM      9  H7  UNL     1     149.718 155.027 156.866  0.00  0.00    +0.157 HD
ENDROOT
BRANCH   1  14
ATOM     10  C2  UNL     1     149.854 150.851 155.163  0.00  0.00    +0.089 A 
ATOM     11  C3  UNL     1     148.504 150.899 154.805  0.00  0.00    +0.027 A 
ATOM     12  C4  UNL     1     147.909 152.131 154.545  0.00  0.00    +0.003 A 
ATOM     13  C5  UNL     1     148.660 153.304 154.648  0.00  0.00    +0.013 A 
ATOM     14  C6  UNL     1     150.015 153.259 155.013  0.00  0.00    +0.039 A 
ATOM     15  C17 UNL     1     150.612 152.022 155.286  0.00  0.00    +0.040 A 
BRANCH  10  17
ATOM     16  C1  UNL     1     149.231 148.145 155.448  0.00  0.00    +0.200 C 
ATOM     17  S1  UNL     1     150.597 149.274 155.515  0.00  0.00    -0.006 S 
ATOM     18  O1  UNL     1     151.484 148.959 154.411  0.00  0.00    -0.170 OA
ATOM     19  O2  UNL     1     151.085 149.327 156.879  0.00  0.00    -0.170 OA
ENDBRANCH  10  17
ENDBRANCH   1  14
BRANCH   6  20
ATOM     20  C10 UNL     1     150.832 159.342 158.806  0.00  0.00    +0.001 A 
ATOM     21  C11 UNL     1     151.659 160.430 159.123  0.00  0.00    +0.013 A 
ATOM     22  C12 UNL     1     151.359 161.263 160.205  0.00  0.00    +0.046 A 
ATOM     23  C13 UNL     1     150.229 161.017 160.974  0.00  0.00    +0.117 A 
ATOM     24  C14 UNL     1     149.390 159.950 160.680  0.00  0.00    +0.046 A 
ATOM     25  C15 UNL     1     149.692 159.119 159.598  0.00  0.00    +0.013 A 
BRANCH  23  26
ATOM     26  O4  UNL     1     149.977 161.855 162.019  0.00  0.00    -0.507 OA
ATOM     27  H10 UNL     1     150.465 162.682 161.878  0.00  0.00    +0.292 HD
ENDBRANCH  23  26
ENDBRANCH   6  20
TORSDOF 4
ENDMDL
MODEL 9
REMARK VINA RESULT:    -7.426      5.966      9.523
REMARK INTER + INTRA:          -9.337
REMARK INTER:                  -8.949
REMARK INTRA:                  -0.388
REMARK UNBOUND:                -0.391
REMARK  Name = /home/vital/Documents/PhD_2021/Malaria_codes/data/pdb_ligands/ligand_212.pdb
REMARK  5 active torsions:
REMARK  status: ('A' for Active; 'I' for Inactive)
REMARK    1  A    between atoms: C1_1  and  S1_2
REMARK    2  A    between atoms: S1_2  and  C2_5
REMARK    3  A    between atoms: C6_9  and  C7_10
REMARK    4  A    between atoms: C9_15  and  C10_16
REMARK    5  A    between atoms: C13_19  and  O4_20
REMARK                            x       y       z     vdW  Elec       q    Type
REMARK                         _______ _______ _______ _____ _____    ______ ____
ROOT
ATOM      1  C7  UNL     1     149.434 152.511 157.404  0.00  0.00    +0.250 C 
ATOM      2  O3  UNL     1     149.388 151.969 158.501  0.00  0.00    -0.270 OA
ATOM      3  N1  UNL     1     149.762 153.821 157.136  0.00  0.00    -0.261 N 
ATOM      4  C8  UNL     1     150.162 154.772 158.040  0.00  0.00    +0.165 A 
ATOM      5  N2  UNL     1     150.379 156.007 157.654  0.00  0.00    -0.225 NA
ATOM      6  C9  UNL     1     150.794 156.780 158.733  0.00  0.00    +0.080 A 
ATOM      7  C16 UNL     1     150.865 156.091 159.929  0.00  0.00    +0.076 A 
ATOM      8  S2  UNL     1     150.428 154.451 159.688  0.00  0.00    -0.060 S 
ATOM      9  H7  UNL     1     149.663 154.201 156.208  0.00  0.00    +0.157 HD
ENDROOT
BRANCH   1  14
ATOM     10  C2  UNL     1     148.769 149.597 155.043  0.00  0.00    +0.089 A 
ATOM     11  C3  UNL     1     148.278 150.267 153.918  0.00  0.00    +0.027 A 
ATOM     12  C4  UNL     1     148.181 151.656 153.938  0.00  0.00    +0.003 A 
ATOM     13  C5  UNL     1     148.568 152.365 155.076  0.00  0.00    +0.013 A 
ATOM     14  C6  UNL     1     149.057 151.695 156.209  0.00  0.00    +0.039 A 
ATOM     15  C17 UNL     1     149.143 150.297 156.196  0.00  0.00    +0.040 A 
BRANCH  10  17
ATOM     16  C1  UNL     1     150.559 147.503 154.593  0.00  0.00    +0.200 C 
ATOM     17  S1  UNL     1     148.865 147.821 155.014  0.00  0.00    -0.006 S 
ATOM     18  O1  UNL     1     148.654 147.355 156.371  0.00  0.00    -0.170 OA
ATOM     19  O2  UNL     1     148.026 147.366 153.924  0.00  0.00    -0.170 OA
ENDBRANCH  10  17
ENDBRANCH   1  14
BRANCH   6  20
ATOM     20  C10 UNL     1     151.101 158.200 158.567  0.00  0.00    +0.001 A 
ATOM     21  C11 UNL     1     150.891 159.139 159.588  0.00  0.00    +0.013 A 
ATOM     22  C12 UNL     1     151.198 160.489 159.389  0.00  0.00    +0.046 A 
ATOM     23  C13 UNL     1     151.720 160.908 158.173  0.00  0.00    +0.117 A 
ATOM     24  C14 UNL     1     151.943 159.999 157.146  0.00  0.00    +0.046 A 
ATOM     25  C15 UNL     1     151.635 158.651 157.347  0.00  0.00    +0.013 A 
BRANCH  23  26
ATOM     26  O4  UNL     1     152.005 162.233 158.026  0.00  0.00    -0.507 OA
ATOM     27  H10 UNL     1     151.262 162.750 158.376  0.00  0.00    +0.292 HD
ENDBRANCH  23  26
ENDBRANCH   6  20
TORSDOF 4
ENDMDL
