MODEL 1
REMARK VINA RESULT:    -7.705      0.000      0.000
REMARK INTER + INTRA:          -9.149
REMARK INTER:                  -8.831
REMARK INTRA:                  -0.318
REMARK UNBOUND:                -0.318
REMARK  Name = /home/vital/Documents/PhD_2021/Malaria_codes/data/pdb_ligands/ligand_322.pdb
REMARK  3 active torsions:
REMARK  status: ('A' for Active; 'I' for Inactive)
REMARK    1  A    between atoms: C1_2  and  C10_15
REMARK    2  A    between atoms: C3_6  and  C4_7
REMARK    3  A    between atoms: C13_18  and  O2_19
REMARK                            x       y       z     vdW  Elec       q    Type
REMARK                         _______ _______ _______ _____ _____    ______ ____
ROOT
ATOM      1  O1  UNL     1     153.975 156.843 152.060  0.00  0.00    -0.270 OA
ATOM      2  C1  UNL     1     153.990 155.875 152.808  0.00  0.00    +0.250 C 
ATOM      3  N1  UNL     1     153.457 155.779 154.071  0.00  0.00    -0.261 N 
ATOM      4  C2  UNL     1     152.736 156.737 154.738  0.00  0.00    +0.165 A 
ATOM      5  N2  UNL     1     152.346 156.535 155.975  0.00  0.00    -0.223 NA
ATOM      6  C3  UNL     1     151.626 157.640 156.425  0.00  0.00    +0.098 A 
ATOM      7  C9  UNL     1     151.487 158.653 155.494  0.00  0.00    +0.078 A 
ATOM      8  S1  UNL     1     152.269 158.214 154.036  0.00  0.00    -0.060 S 
ATOM      9  H1  UNL     1     153.643 154.969 154.643  0.00  0.00    +0.157 HD
ENDROOT
BRANCH   2  10
ATOM     10  C10 UNL     1     154.699 154.649 152.337  0.00  0.00    +0.039 A 
ATOM     11  C11 UNL     1     154.285 153.363 152.718  0.00  0.00    +0.017 A 
ATOM     12  C12 UNL     1     154.975 152.241 152.251  0.00  0.00    +0.047 A 
ATOM     13  C13 UNL     1     156.064 152.406 151.401  0.00  0.00    +0.135 A 
ATOM     14  C14 UNL     1     156.468 153.683 151.004  0.00  0.00    +0.083 A 
ATOM     15 CL1  UNL     1     157.812 153.880 149.942  0.00  0.00    -0.080 Cl
ATOM     16  C15 UNL     1     155.786 154.806 151.465  0.00  0.00    +0.036 A 
BRANCH  13  17
ATOM     17  O2  UNL     1     156.702 151.275 150.974  0.00  0.00    -0.505 OA
ATOM     18  H9  UNL     1     156.018 150.661 150.647  0.00  0.00    +0.292 HD
ENDBRANCH  13  17
ENDBRANCH   2  10
BRANCH   6  19
ATOM     19  C4  UNL     1     151.066 157.711 157.774  0.00  0.00    +0.090 A 
ATOM     20  C5  UNL     1     150.233 158.765 158.139  0.00  0.00    +0.030 A 
ATOM     21  C6  UNL     1     149.717 158.799 159.433  0.00  0.00    +0.004 A 
ATOM     22  C7  UNL     1     150.047 157.784 160.323  0.00  0.00    +0.020 A 
ATOM     23  C8  UNL     1     150.882 156.772 159.881  0.00  0.00    +0.111 A 
ATOM     24  N3  UNL     1     151.397 156.712 158.633  0.00  0.00    -0.253 NA
ENDBRANCH   6  19
TORSDOF 3
ENDMDL
MODEL 2
REMARK VINA RESULT:    -7.669      3.651      8.545
REMARK INTER + INTRA:          -9.108
REMARK INTER:                  -8.787
REMARK INTRA:                  -0.321
REMARK UNBOUND:                -0.318
REMARK  Name = /home/vital/Documents/PhD_2021/Malaria_codes/data/pdb_ligands/ligand_322.pdb
REMARK  3 active torsions:
REMARK  status: ('A' for Active; 'I' for Inactive)
REMARK    1  A    between atoms: C1_2  and  C10_15
REMARK    2  A    between atoms: C3_6  and  C4_7
REMARK    3  A    between atoms: C13_18  and  O2_19
REMARK                            x       y       z     vdW  Elec       q    Type
REMARK                         _______ _______ _______ _____ _____    ______ ____
ROOT
ATOM      1  O1  UNL     1     151.114 158.726 154.597  0.00  0.00    -0.270 OA
ATOM      2  C1  UNL     1     151.532 157.884 155.381  0.00  0.00    +0.250 C 
ATOM      3  N1  UNL     1     152.391 156.844 155.117  0.00  0.00    -0.261 N 
ATOM      4  C2  UNL     1     153.013 156.567 153.926  0.00  0.00    +0.165 A 
ATOM      5  N2  UNL     1     153.757 155.493 153.798  0.00  0.00    -0.223 NA
ATOM      6  C3  UNL     1     154.285 155.441 152.508  0.00  0.00    +0.098 A 
ATOM      7  C9  UNL     1     153.922 156.500 151.697  0.00  0.00    +0.078 A 
ATOM      8  S1  UNL     1     152.907 157.574 152.560  0.00  0.00    -0.060 S 
ATOM      9  H1  UNL     1     152.565 156.136 155.815  0.00  0.00    +0.157 HD
ENDROOT
BRANCH   2  10
ATOM     10  C10 UNL     1     151.038 157.942 156.787  0.00  0.00    +0.039 A 
ATOM     11  C11 UNL     1     150.249 159.007 157.250  0.00  0.00    +0.017 A 
ATOM     12  C12 UNL     1     149.803 159.021 158.574  0.00  0.00    +0.047 A 
ATOM     13  C13 UNL     1     150.137 157.972 159.425  0.00  0.00    +0.135 A 
ATOM     14  C14 UNL     1     150.906 156.901 158.964  0.00  0.00    +0.083 A 
ATOM     15 CL1  UNL     1     151.308 155.599 160.021  0.00  0.00    -0.080 Cl
ATOM     16  C15 UNL     1     151.354 156.880 157.646  0.00  0.00    +0.036 A 
BRANCH  13  17
ATOM     17  O2  UNL     1     149.675 158.036 160.710  0.00  0.00    -0.505 OA
ATOM     18  H9  UNL     1     149.084 158.810 160.767  0.00  0.00    +0.292 HD
ENDBRANCH  13  17
ENDBRANCH   2  10
BRANCH   6  19
ATOM     19  C4  UNL     1     155.152 154.351 152.063  0.00  0.00    +0.090 A 
ATOM     20  C5  UNL     1     156.469 154.605 151.688  0.00  0.00    +0.030 A 
ATOM     21  C6  UNL     1     157.266 153.541 151.270  0.00  0.00    +0.004 A 
ATOM     22  C7  UNL     1     156.729 152.261 151.236  0.00  0.00    +0.020 A 
ATOM     23  C8  UNL     1     155.410 152.094 151.625  0.00  0.00    +0.111 A 
ATOM     24  N3  UNL     1     154.612 153.105 152.036  0.00  0.00    -0.253 NA
ENDBRANCH   6  19
TORSDOF 3
ENDMDL
MODEL 3
REMARK VINA RESULT:    -7.493      2.056      2.399
REMARK INTER + INTRA:          -8.907
REMARK INTER:                  -8.577
REMARK INTRA:                  -0.330
REMARK UNBOUND:                -0.318
REMARK  Name = /home/vital/Documents/PhD_2021/Malaria_codes/data/pdb_ligands/ligand_322.pdb
REMARK  3 active torsions:
REMARK  status: ('A' for Active; 'I' for Inactive)
REMARK    1  A    between atoms: C1_2  and  C10_15
REMARK    2  A    between atoms: C3_6  and  C4_7
REMARK    3  A    between atoms: C13_18  and  O2_19
REMARK                            x       y       z     vdW  Elec       q    Type
REMARK                         _______ _______ _______ _____ _____    ______ ____
ROOT
ATOM      1  O1  UNL     1     152.715 152.683 152.875  0.00  0.00    -0.270 OA
ATOM      2  C1  UNL     1     153.571 153.556 152.928  0.00  0.00    +0.250 C 
ATOM      3  N1  UNL     1     153.523 154.740 153.625  0.00  0.00    -0.261 N 
ATOM      4  C2  UNL     1     152.524 155.164 154.464  0.00  0.00    +0.165 A 
ATOM      5  N2  UNL     1     152.577 156.356 155.013  0.00  0.00    -0.223 NA
ATOM      6  C3  UNL     1     151.461 156.547 155.826  0.00  0.00    +0.098 A 
ATOM      7  C9  UNL     1     150.594 155.472 155.872  0.00  0.00    +0.078 A 
ATOM      8  S1  UNL     1     151.183 154.205 154.883  0.00  0.00    -0.060 S 
ATOM      9  H1  UNL     1     154.236 155.440 153.491  0.00  0.00    +0.157 HD
ENDROOT
BRANCH   2  10
ATOM     10  C10 UNL     1     154.809 153.360 152.118  0.00  0.00    +0.039 A 
ATOM     11  C11 UNL     1     155.394 152.094 151.957  0.00  0.00    +0.017 A 
ATOM     12  C12 UNL     1     156.551 151.954 151.187  0.00  0.00    +0.047 A 
ATOM     13  C13 UNL     1     157.112 153.071 150.575  0.00  0.00    +0.135 A 
ATOM     14  C14 UNL     1     156.523 154.329 150.717  0.00  0.00    +0.083 A 
ATOM     15 CL1  UNL     1     157.216 155.708 149.948  0.00  0.00    -0.080 Cl
ATOM     16  C15 UNL     1     155.369 154.477 151.483  0.00  0.00    +0.036 A 
BRANCH  13  17
ATOM     17  O2  UNL     1     158.243 152.877 149.833  0.00  0.00    -0.505 OA
ATOM     18  H9  UNL     1     158.153 153.410 149.021  0.00  0.00    +0.292 HD
ENDBRANCH  13  17
ENDBRANCH   2  10
BRANCH   6  19
ATOM     19  C4  UNL     1     151.239 157.787 156.568  0.00  0.00    +0.090 A 
ATOM     20  C5  UNL     1     150.051 157.990 157.265  0.00  0.00    +0.030 A 
ATOM     21  C6  UNL     1     149.874 159.184 157.961  0.00  0.00    +0.004 A 
ATOM     22  C7  UNL     1     150.883 160.139 157.940  0.00  0.00    +0.020 A 
ATOM     23  C8  UNL     1     152.034 159.859 157.222  0.00  0.00    +0.111 A 
ATOM     24  N3  UNL     1     152.235 158.711 156.538  0.00  0.00    -0.253 NA
ENDBRANCH   6  19
TORSDOF 3
ENDMDL
MODEL 4
REMARK VINA RESULT:    -7.401      5.487      9.020
REMARK INTER + INTRA:          -8.802
REMARK INTER:                  -8.490
REMARK INTRA:                  -0.311
REMARK UNBOUND:                -0.318
REMARK  Name = /home/vital/Documents/PhD_2021/Malaria_codes/data/pdb_ligands/ligand_322.pdb
REMARK  3 active torsions:
REMARK  status: ('A' for Active; 'I' for Inactive)
REMARK    1  A    between atoms: C1_2  and  C10_15
REMARK    2  A    between atoms: C3_6  and  C4_7
REMARK    3  A    between atoms: C13_18  and  O2_19
REMARK                            x       y       z     vdW  Elec       q    Type
REMARK                         _______ _______ _______ _____ _____    ______ ____
ROOT
ATOM      1  O1  UNL     1     152.154 158.800 156.920  0.00  0.00    -0.270 OA
ATOM      2  C1  UNL     1     151.270 158.382 157.656  0.00  0.00    +0.250 C 
ATOM      3  N1  UNL     1     150.570 157.204 157.545  0.00  0.00    -0.261 N 
ATOM      4  C2  UNL     1     150.760 156.215 156.614  0.00  0.00    +0.165 A 
ATOM      5  N2  UNL     1     149.967 155.169 156.583  0.00  0.00    -0.223 NA
ATOM      6  C3  UNL     1     150.368 154.308 155.563  0.00  0.00    +0.098 A 
ATOM      7  C9  UNL     1     151.475 154.735 154.853  0.00  0.00    +0.078 A 
ATOM      8  S1  UNL     1     152.019 156.236 155.471  0.00  0.00    -0.060 S 
ATOM      9  H1  UNL     1     149.775 157.025 158.140  0.00  0.00    +0.157 HD
ENDROOT
BRANCH   2  10
ATOM     10  C10 UNL     1     150.853 159.249 158.797  0.00  0.00    +0.039 A 
ATOM     11  C11 UNL     1     149.606 159.097 159.424  0.00  0.00    +0.017 A 
ATOM     12  C12 UNL     1     149.257 159.927 160.492  0.00  0.00    +0.047 A 
ATOM     13  C13 UNL     1     150.153 160.895 160.934  0.00  0.00    +0.135 A 
ATOM     14  C14 UNL     1     151.402 161.038 160.326  0.00  0.00    +0.083 A 
ATOM     15 CL1  UNL     1     152.512 162.233 160.885  0.00  0.00    -0.080 Cl
ATOM     16  C15 UNL     1     151.758 160.214 159.261  0.00  0.00    +0.036 A 
BRANCH  13  17
ATOM     17  O2  UNL     1     149.761 161.680 161.982  0.00  0.00    -0.505 OA
ATOM     18  H9  UNL     1     150.111 162.576 161.821  0.00  0.00    +0.292 HD
ENDBRANCH  13  17
ENDBRANCH   2  10
BRANCH   6  19
ATOM     19  C4  UNL     1     149.669 153.055 155.279  0.00  0.00    +0.090 A 
ATOM     20  C5  UNL     1     149.302 152.200 156.315  0.00  0.00    +0.030 A 
ATOM     21  C6  UNL     1     148.636 151.016 156.006  0.00  0.00    +0.004 A 
ATOM     22  C7  UNL     1     148.359 150.718 154.678  0.00  0.00    +0.020 A 
ATOM     23  C8  UNL     1     148.759 151.622 153.707  0.00  0.00    +0.111 A 
ATOM     24  N3  UNL     1     149.405 152.779 153.976  0.00  0.00    -0.253 NA
ENDBRANCH   6  19
TORSDOF 3
ENDMDL
MODEL 5
REMARK VINA RESULT:    -7.165      4.492      6.619
REMARK INTER + INTRA:          -8.531
REMARK INTER:                  -8.251
REMARK INTRA:                  -0.280
REMARK UNBOUND:                -0.318
REMARK  Name = /home/vital/Documents/PhD_2021/Malaria_codes/data/pdb_ligands/ligand_322.pdb
REMARK  3 active torsions:
REMARK  status: ('A' for Active; 'I' for Inactive)
REMARK    1  A    between atoms: C1_2  and  C10_15
REMARK    2  A    between atoms: C3_6  and  C4_7
REMARK    3  A    between atoms: C13_18  and  O2_19
REMARK                            x       y       z     vdW  Elec       q    Type
REMARK                         _______ _______ _______ _____ _____    ______ ____
ROOT
ATOM      1  O1  UNL     1     149.447 158.963 157.528  0.00  0.00    -0.270 OA
ATOM      2  C1  UNL     1     150.556 158.486 157.729  0.00  0.00    +0.250 C 
ATOM      3  N1  UNL     1     151.326 158.597 158.862  0.00  0.00    -0.261 N 
ATOM      4  C2  UNL     1     150.983 159.217 160.037  0.00  0.00    +0.165 A 
ATOM      5  N2  UNL     1     151.849 159.309 161.019  0.00  0.00    -0.223 NA
ATOM      6  C3  UNL     1     151.264 159.966 162.099  0.00  0.00    +0.098 A 
ATOM      7  C9  UNL     1     149.951 160.348 161.897  0.00  0.00    +0.078 A 
ATOM      8  S1  UNL     1     149.443 159.877 160.331  0.00  0.00    -0.060 S 
ATOM      9  H1  UNL     1     152.280 158.268 158.865  0.00  0.00    +0.157 HD
ENDROOT
BRANCH   2  10
ATOM     10  C10 UNL     1     151.192 157.722 156.616  0.00  0.00    +0.039 A 
ATOM     11  C11 UNL     1     152.209 158.278 155.824  0.00  0.00    +0.017 A 
ATOM     12  C12 UNL     1     152.782 157.526 154.795  0.00  0.00    +0.047 A 
ATOM     13  C13 UNL     1     152.345 156.225 154.567  0.00  0.00    +0.135 A 
ATOM     14  C14 UNL     1     151.346 155.661 155.364  0.00  0.00    +0.083 A 
ATOM     15 CL1  UNL     1     150.816 154.045 155.082  0.00  0.00    -0.080 Cl
ATOM     16  C15 UNL     1     150.771 156.404 156.392  0.00  0.00    +0.036 A 
BRANCH  13  17
ATOM     17  O2  UNL     1     152.938 155.535 153.547  0.00  0.00    -0.505 OA
ATOM     18  H9  UNL     1     153.311 156.192 152.930  0.00  0.00    +0.292 HD
ENDBRANCH  13  17
ENDBRANCH   2  10
BRANCH   6  19
ATOM     19  C4  UNL     1     151.989 160.224 163.343  0.00  0.00    +0.090 A 
ATOM     20  C5  UNL     1     152.091 161.518 163.846  0.00  0.00    +0.030 A 
ATOM     21  C6  UNL     1     152.789 161.725 165.034  0.00  0.00    +0.004 A 
ATOM     22  C7  UNL     1     153.365 160.640 165.682  0.00  0.00    +0.020 A 
ATOM     23  C8  UNL     1     153.218 159.385 165.114  0.00  0.00    +0.111 A 
ATOM     24  N3  UNL     1     152.547 159.153 163.965  0.00  0.00    -0.253 NA
ENDBRANCH   6  19
TORSDOF 3
ENDMDL
MODEL 6
REMARK VINA RESULT:    -7.143      3.923      9.111
REMARK INTER + INTRA:          -8.506
REMARK INTER:                  -8.191
REMARK INTRA:                  -0.315
REMARK UNBOUND:                -0.318
REMARK  Name = /home/vital/Documents/PhD_2021/Malaria_codes/data/pdb_ligands/ligand_322.pdb
REMARK  3 active torsions:
REMARK  status: ('A' for Active; 'I' for Inactive)
REMARK    1  A    between atoms: C1_2  and  C10_15
REMARK    2  A    between atoms: C3_6  and  C4_7
REMARK    3  A    between atoms: C13_18  and  O2_19
REMARK                            x       y       z     vdW  Elec       q    Type
REMARK                         _______ _______ _______ _____ _____    ______ ____
ROOT
ATOM      1  O1  UNL     1     151.681 154.031 154.745  0.00  0.00    -0.270 OA
ATOM      2  C1  UNL     1     152.378 154.979 154.410  0.00  0.00    +0.250 C 
ATOM      3  N1  UNL     1     153.433 154.977 153.528  0.00  0.00    -0.261 N 
ATOM      4  C2  UNL     1     153.888 153.916 152.787  0.00  0.00    +0.165 A 
ATOM      5  N2  UNL     1     154.956 154.040 152.034  0.00  0.00    -0.223 NA
ATOM      6  C3  UNL     1     155.207 152.837 151.376  0.00  0.00    +0.098 A 
ATOM      7  C9  UNL     1     154.300 151.831 151.653  0.00  0.00    +0.078 A 
ATOM      8  S1  UNL     1     153.117 152.401 152.752  0.00  0.00    -0.060 S 
ATOM      9  H1  UNL     1     154.015 155.794 153.427  0.00  0.00    +0.157 HD
ENDROOT
BRANCH   2  10
ATOM     10  C10 UNL     1     152.102 156.300 155.046  0.00  0.00    +0.039 A 
ATOM     11  C11 UNL     1     152.354 157.509 154.379  0.00  0.00    +0.017 A 
ATOM     12  C12 UNL     1     152.076 158.725 155.010  0.00  0.00    +0.047 A 
ATOM     13  C13 UNL     1     151.541 158.728 156.294  0.00  0.00    +0.135 A 
ATOM     14  C14 UNL     1     151.271 157.528 156.955  0.00  0.00    +0.083 A 
ATOM     15 CL1  UNL     1     150.599 157.539 158.543  0.00  0.00    -0.080 Cl
ATOM     16  C15 UNL     1     151.545 156.312 156.333  0.00  0.00    +0.036 A 
BRANCH  13  17
ATOM     17  O2  UNL     1     151.289 159.945 156.865  0.00  0.00    -0.505 OA
ATOM     18  H9  UNL     1     152.147 160.323 157.134  0.00  0.00    +0.292 HD
ENDBRANCH  13  17
ENDBRANCH   2  10
BRANCH   6  19
ATOM     19  C4  UNL     1     156.340 152.665 150.468  0.00  0.00    +0.090 A 
ATOM     20  C5  UNL     1     157.504 153.409 150.642  0.00  0.00    +0.030 A 
ATOM     21  C6  UNL     1     158.563 153.218 149.757  0.00  0.00    +0.004 A 
ATOM     22  C7  UNL     1     158.431 152.295 148.727  0.00  0.00    +0.020 A 
ATOM     23  C8  UNL     1     157.240 151.596 148.624  0.00  0.00    +0.111 A 
ATOM     24  N3  UNL     1     156.195 151.759 149.466  0.00  0.00    -0.253 NA
ENDBRANCH   6  19
TORSDOF 3
ENDMDL
MODEL 7
REMARK VINA RESULT:    -6.949      4.076      6.293
REMARK INTER + INTRA:          -8.283
REMARK INTER:                  -7.999
REMARK INTRA:                  -0.283
REMARK UNBOUND:                -0.318
REMARK  Name = /home/vital/Documents/PhD_2021/Malaria_codes/data/pdb_ligands/ligand_322.pdb
REMARK  3 active torsions:
REMARK  status: ('A' for Active; 'I' for Inactive)
REMARK    1  A    between atoms: C1_2  and  C10_15
REMARK    2  A    between atoms: C3_6  and  C4_7
REMARK    3  A    between atoms: C13_18  and  O2_19
REMARK                            x       y       z     vdW  Elec       q    Type
REMARK                         _______ _______ _______ _____ _____    ______ ____
ROOT
ATOM      1  O1  UNL     1     150.556 156.090 158.071  0.00  0.00    -0.270 OA
ATOM      2  C1  UNL     1     151.320 157.020 157.849  0.00  0.00    +0.250 C 
ATOM      3  N1  UNL     1     151.806 157.942 158.745  0.00  0.00    -0.261 N 
ATOM      4  C2  UNL     1     151.583 157.976 160.098  0.00  0.00    +0.165 A 
ATOM      5  N2  UNL     1     152.055 158.961 160.827  0.00  0.00    -0.223 NA
ATOM      6  C3  UNL     1     151.708 158.764 162.162  0.00  0.00    +0.098 A 
ATOM      7  C9  UNL     1     150.981 157.613 162.403  0.00  0.00    +0.078 A 
ATOM      8  S1  UNL     1     150.729 156.767 160.936  0.00  0.00    -0.060 S 
ATOM      9  H1  UNL     1     152.329 158.742 158.422  0.00  0.00    +0.157 HD
ENDROOT
BRANCH   2  10
ATOM     10  C10 UNL     1     151.764 157.228 156.440  0.00  0.00    +0.039 A 
ATOM     11  C11 UNL     1     151.679 158.483 155.815  0.00  0.00    +0.017 A 
ATOM     12  C12 UNL     1     152.110 158.635 154.495  0.00  0.00    +0.047 A 
ATOM     13  C13 UNL     1     152.631 157.543 153.809  0.00  0.00    +0.135 A 
ATOM     14  C14 UNL     1     152.735 156.297 154.432  0.00  0.00    +0.083 A 
ATOM     15 CL1  UNL     1     153.390 154.949 153.580  0.00  0.00    -0.080 Cl
ATOM     16  C15 UNL     1     152.308 156.137 155.748  0.00  0.00    +0.036 A 
BRANCH  13  17
ATOM     17  O2  UNL     1     153.037 157.747 152.520  0.00  0.00    -0.505 OA
ATOM     18  H9  UNL     1     153.904 158.194 152.556  0.00  0.00    +0.292 HD
ENDBRANCH  13  17
ENDBRANCH   2  10
BRANCH   6  19
ATOM     19  C4  UNL     1     152.089 159.705 163.215  0.00  0.00    +0.090 A 
ATOM     20  C5  UNL     1     151.671 161.032 163.162  0.00  0.00    +0.030 A 
ATOM     21  C6  UNL     1     152.054 161.899 164.183  0.00  0.00    +0.004 A 
ATOM     22  C7  UNL     1     152.840 161.420 165.224  0.00  0.00    +0.020 A 
ATOM     23  C8  UNL     1     153.213 160.086 165.201  0.00  0.00    +0.111 A 
ATOM     24  N3  UNL     1     152.858 159.221 164.225  0.00  0.00    -0.253 NA
ENDBRANCH   6  19
TORSDOF 3
ENDMDL
MODEL 8
REMARK VINA RESULT:    -6.928      5.499      8.696
REMARK INTER + INTRA:          -8.259
REMARK INTER:                  -7.950
REMARK INTRA:                  -0.309
REMARK UNBOUND:                -0.318
REMARK  Name = /home/vital/Documents/PhD_2021/Malaria_codes/data/pdb_ligands/ligand_322.pdb
REMARK  3 active torsions:
REMARK  status: ('A' for Active; 'I' for Inactive)
REMARK    1  A    between atoms: C1_2  and  C10_15
REMARK    2  A    between atoms: C3_6  and  C4_7
REMARK    3  A    between atoms: C13_18  and  O2_19
REMARK                            x       y       z     vdW  Elec       q    Type
REMARK                         _______ _______ _______ _____ _____    ______ ____
ROOT
ATOM      1  O1  UNL     1     151.039 155.518 158.475  0.00  0.00    -0.270 OA
ATOM      2  C1  UNL     1     150.976 156.066 157.382  0.00  0.00    +0.250 C 
ATOM      3  N1  UNL     1     150.680 155.491 156.170  0.00  0.00    -0.261 N 
ATOM      4  C2  UNL     1     150.329 154.185 155.938  0.00  0.00    +0.165 A 
ATOM      5  N2  UNL     1     150.142 153.753 154.712  0.00  0.00    -0.223 NA
ATOM      6  C3  UNL     1     149.785 152.406 154.740  0.00  0.00    +0.098 A 
ATOM      7  C9  UNL     1     149.704 151.859 156.007  0.00  0.00    +0.078 A 
ATOM      8  S1  UNL     1     150.082 153.049 157.179  0.00  0.00    -0.060 S 
ATOM      9  H1  UNL     1     150.784 156.018 155.316  0.00  0.00    +0.157 HD
ENDROOT
BRANCH   2  10
ATOM     10  C10 UNL     1     151.292 157.522 157.320  0.00  0.00    +0.039 A 
ATOM     11  C11 UNL     1     151.815 158.117 156.161  0.00  0.00    +0.017 A 
ATOM     12  C12 UNL     1     152.093 159.486 156.143  0.00  0.00    +0.047 A 
ATOM     13  C13 UNL     1     151.841 160.255 157.274  0.00  0.00    +0.135 A 
ATOM     14  C14 UNL     1     151.303 159.672 158.424  0.00  0.00    +0.083 A 
ATOM     15 CL1  UNL     1     150.983 160.633 159.820  0.00  0.00    -0.080 Cl
ATOM     16  C15 UNL     1     151.023 158.308 158.449  0.00  0.00    +0.036 A 
BRANCH  13  17
ATOM     17  O2  UNL     1     152.132 161.589 157.203  0.00  0.00    -0.505 OA
ATOM     18  H9  UNL     1     152.659 161.728 156.394  0.00  0.00    +0.292 HD
ENDBRANCH  13  17
ENDBRANCH   2  10
BRANCH   6  19
ATOM     19  C4  UNL     1     149.516 151.645 153.521  0.00  0.00    +0.090 A 
ATOM     20  C5  UNL     1     148.440 150.763 153.462  0.00  0.00    +0.030 A 
ATOM     21  C6  UNL     1     148.215 150.054 152.284  0.00  0.00    +0.004 A 
ATOM     22  C7  UNL     1     149.066 150.244 151.203  0.00  0.00    +0.020 A 
ATOM     23  C8  UNL     1     150.113 151.139 151.344  0.00  0.00    +0.111 A 
ATOM     24  N3  UNL     1     150.357 151.841 152.473  0.00  0.00    -0.253 NA
ENDBRANCH   6  19
TORSDOF 3
ENDMDL
MODEL 9
REMARK VINA RESULT:    -6.883      6.125      8.619
REMARK INTER + INTRA:          -8.208
REMARK INTER:                  -7.890
REMARK INTRA:                  -0.317
REMARK UNBOUND:                -0.318
REMARK  Name = /home/vital/Documents/PhD_2021/Malaria_codes/data/pdb_ligands/ligand_322.pdb
REMARK  3 active torsions:
REMARK  status: ('A' for Active; 'I' for Inactive)
REMARK    1  A    between atoms: C1_2  and  C10_15
REMARK    2  A    between atoms: C3_6  and  C4_7
REMARK    3  A    between atoms: C13_18  and  O2_19
REMARK                            x       y       z     vdW  Elec       q    Type
REMARK                         _______ _______ _______ _____ _____    ______ ____
ROOT
ATOM      1  O1  UNL     1     151.201 156.068 159.575  0.00  0.00    -0.270 OA
ATOM      2  C1  UNL     1     151.004 156.360 158.403  0.00  0.00    +0.250 C 
ATOM      3  N1  UNL     1     150.562 155.536 157.394  0.00  0.00    -0.261 N 
ATOM      4  C2  UNL     1     150.188 154.221 157.506  0.00  0.00    +0.165 A 
ATOM      5  N2  UNL     1     149.851 153.532 156.440  0.00  0.00    -0.223 NA
ATOM      6  C3  UNL     1     149.503 152.235 156.812  0.00  0.00    +0.098 A 
ATOM      7  C9  UNL     1     149.581 151.987 158.170  0.00  0.00    +0.078 A 
ATOM      8  S1  UNL     1     150.098 153.397 158.991  0.00  0.00    -0.060 S 
ATOM      9  H1  UNL     1     150.558 155.858 156.438  0.00  0.00    +0.157 HD
ENDROOT
BRANCH   2  10
ATOM     10  C10 UNL     1     151.306 157.757 157.978  0.00  0.00    +0.039 A 
ATOM     11  C11 UNL     1     151.479 158.098 156.627  0.00  0.00    +0.017 A 
ATOM     12  C12 UNL     1     151.758 159.420 156.271  0.00  0.00    +0.047 A 
ATOM     13  C13 UNL     1     151.853 160.395 157.259  0.00  0.00    +0.135 A 
ATOM     14  C14 UNL     1     151.663 160.064 158.603  0.00  0.00    +0.083 A 
ATOM     15 CL1  UNL     1     151.772 161.278 159.822  0.00  0.00    -0.080 Cl
ATOM     16  C15 UNL     1     151.385 158.749 158.965  0.00  0.00    +0.036 A 
BRANCH  13  17
ATOM     17  O2  UNL     1     152.127 161.672 156.856  0.00  0.00    -0.505 OA
ATOM     18  H9  UNL     1     151.539 162.267 157.358  0.00  0.00    +0.292 HD
ENDBRANCH  13  17
ENDBRANCH   2  10
BRANCH   6  19
ATOM     19  C4  UNL     1     149.088 151.228 155.836  0.00  0.00    +0.090 A 
ATOM     20  C5  UNL     1     148.362 151.596 154.707  0.00  0.00    +0.030 A 
ATOM     21  C6  UNL     1     147.984 150.609 153.799  0.00  0.00    +0.004 A 
ATOM     22  C7  UNL     1     148.339 149.288 154.043  0.00  0.00    +0.020 A 
ATOM     23  C8  UNL     1     149.061 149.006 155.191  0.00  0.00    +0.111 A 
ATOM     24  N3  UNL     1     149.442 149.941 156.090  0.00  0.00    -0.253 NA
ENDBRANCH   6  19
TORSDOF 3
ENDMDL
