MODEL 1
REMARK VINA RESULT:    -7.400      0.000      0.000
REMARK INTER + INTRA:          -9.902
REMARK INTER:                  -9.346
REMARK INTRA:                  -0.555
REMARK UNBOUND:                -0.555
REMARK  Name = /home/vital/Documents/PhD_2021/Malaria_codes/data/pdb_ligands/ligand_467.pdb
REMARK  5 active torsions:
REMARK  status: ('A' for Active; 'I' for Inactive)
REMARK    1  A    between atoms: O1_1  and  C1_2
REMARK    2  A    between atoms: C4_6  and  C5_7
REMARK    3  A    between atoms: C5_7  and  N1_8
REMARK    4  A    between atoms: N2_11  and  C8_12
REMARK    5  A    between atoms: C8_12  and  C9_13
REMARK                            x       y       z     vdW  Elec       q    Type
REMARK                         _______ _______ _______ _____ _____    ______ ____
ROOT
ATOM      1  N1  UNL     1     150.615 157.307 157.947  0.00  0.00    -0.296 NA
ATOM      2  C6  UNL     1     149.664 156.874 156.914  0.00  0.00    +0.100 C 
ATOM      3  C7  UNL     1     150.155 155.662 156.075  0.00  0.00    +0.100 C 
ATOM      4  N2  UNL     1     151.617 155.477 156.019  0.00  0.00    -0.296 NA
ATOM      5  C15 UNL     1     152.144 155.388 157.402  0.00  0.00    +0.100 C 
ATOM      6  C16 UNL     1     151.368 156.177 158.494  0.00  0.00    +0.100 C 
ENDROOT
BRANCH   1   7
ATOM      7  C5  UNL     1     150.082 158.249 158.928  0.00  0.00    +0.119 C 
BRANCH   7  12
ATOM      8  C1  UNL     1     151.980 162.132 159.135  0.00  0.00    +0.188 A 
ATOM      9  C2  UNL     1     151.636 161.579 157.907  0.00  0.00    +0.168 A 
ATOM     10  F1  UNL     1     151.895 162.262 156.783  0.00  0.00    -0.202 F 
ATOM     11  C3  UNL     1     151.027 160.329 157.828  0.00  0.00    +0.047 A 
ATOM     12  C4  UNL     1     150.745 159.607 158.998  0.00  0.00    -0.028 A 
ATOM     13  C17 UNL     1     151.102 160.168 160.235  0.00  0.00    +0.047 A 
ATOM     14  C18 UNL     1     151.712 161.421 160.297  0.00  0.00    +0.168 A 
ATOM     15  F2  UNL     1     152.035 161.927 161.495  0.00  0.00    -0.202 F 
BRANCH   8  16
ATOM     16  O1  UNL     1     152.577 163.361 159.202  0.00  0.00    -0.502 OA
ATOM     17  H1  UNL     1     153.413 163.250 159.694  0.00  0.00    +0.292 HD
ENDBRANCH   8  16
ENDBRANCH   7  12
ENDBRANCH   1   7
BRANCH   4  18
ATOM     18  C8  UNL     1     152.252 156.571 155.262  0.00  0.00    +0.119 C 
BRANCH  18  19
ATOM     19  C9  UNL     1     153.017 156.082 154.046  0.00  0.00    -0.033 A 
ATOM     20  C10 UNL     1     153.265 154.713 153.859  0.00  0.00    +0.006 A 
ATOM     21  C11 UNL     1     153.953 154.261 152.732  0.00  0.00    +0.015 A 
ATOM     22  C12 UNL     1     154.392 155.177 151.780  0.00  0.00    +0.018 A 
ATOM     23 BR1  UNL     1     155.326 154.569 150.252  0.00  0.00    -0.050 Br
ATOM     24  C13 UNL     1     154.150 156.541 151.945  0.00  0.00    +0.015 A 
ATOM     25  C14 UNL     1     153.461 156.991 153.073  0.00  0.00    +0.006 A 
ENDBRANCH  18  19
ENDBRANCH   4  18
TORSDOF 5
ENDMDL
MODEL 2
REMARK VINA RESULT:    -7.156      5.480      9.285
REMARK INTER + INTRA:          -9.594
REMARK INTER:                  -9.232
REMARK INTRA:                  -0.361
REMARK UNBOUND:                -0.555
REMARK  Name = /home/vital/Documents/PhD_2021/Malaria_codes/data/pdb_ligands/ligand_467.pdb
REMARK  5 active torsions:
REMARK  status: ('A' for Active; 'I' for Inactive)
REMARK    1  A    between atoms: O1_1  and  C1_2
REMARK    2  A    between atoms: C4_6  and  C5_7
REMARK    3  A    between atoms: C5_7  and  N1_8
REMARK    4  A    between atoms: N2_11  and  C8_12
REMARK    5  A    between atoms: C8_12  and  C9_13
REMARK                            x       y       z     vdW  Elec       q    Type
REMARK                         _______ _______ _______ _____ _____    ______ ____
ROOT
ATOM      1  N1  UNL     1     150.746 159.502 158.632  0.00  0.00    -0.296 NA
ATOM      2  C6  UNL     1     151.499 160.763 158.617  0.00  0.00    +0.100 C 
ATOM      3  C7  UNL     1     152.431 160.954 159.846  0.00  0.00    +0.100 C 
ATOM      4  N2  UNL     1     152.049 160.204 161.057  0.00  0.00    -0.296 NA
ATOM      5  C15 UNL     1     151.941 158.765 160.717  0.00  0.00    +0.100 C 
ATOM      6  C16 UNL     1     151.511 158.424 159.261  0.00  0.00    +0.100 C 
ENDROOT
BRANCH   1   7
ATOM      7  C5  UNL     1     150.082 159.160 157.377  0.00  0.00    +0.119 C 
BRANCH   7  12
ATOM      8  C1  UNL     1     151.850 155.972 155.044  0.00  0.00    +0.188 A 
ATOM      9  C2  UNL     1     152.396 157.249 155.021  0.00  0.00    +0.168 A 
ATOM     10  F1  UNL     1     153.480 157.488 154.269  0.00  0.00    -0.202 F 
ATOM     11  C3  UNL     1     151.834 158.284 155.765  0.00  0.00    +0.047 A 
ATOM     12  C4  UNL     1     150.702 158.046 156.560  0.00  0.00    -0.028 A 
ATOM     13  C17 UNL     1     150.151 156.754 156.574  0.00  0.00    +0.047 A 
ATOM     14  C18 UNL     1     150.726 155.730 155.822  0.00  0.00    +0.168 A 
ATOM     15  F2  UNL     1     150.175 154.509 155.862  0.00  0.00    -0.202 F 
BRANCH   8  16
ATOM     16  O1  UNL     1     152.409 154.962 154.310  0.00  0.00    -0.502 OA
ATOM     17  H1  UNL     1     151.785 154.746 153.592  0.00  0.00    +0.292 HD
ENDBRANCH   8  16
ENDBRANCH   7  12
ENDBRANCH   1   7
BRANCH   4  18
ATOM     18  C8  UNL     1     150.791 160.728 161.619  0.00  0.00    +0.119 C 
BRANCH  18  19
ATOM     19  C9  UNL     1     150.982 161.401 162.966  0.00  0.00    -0.033 A 
ATOM     20  C10 UNL     1     152.227 161.368 163.613  0.00  0.00    +0.006 A 
ATOM     21  C11 UNL     1     152.408 162.002 164.843  0.00  0.00    +0.015 A 
ATOM     22  C12 UNL     1     151.343 162.681 165.432  0.00  0.00    +0.018 A 
ATOM     23 BR1  UNL     1     151.583 163.540 167.099  0.00  0.00    -0.050 Br
ATOM     24  C13 UNL     1     150.100 162.729 164.801  0.00  0.00    +0.015 A 
ATOM     25  C14 UNL     1     149.922 162.094 163.570  0.00  0.00    +0.006 A 
ENDBRANCH  18  19
ENDBRANCH   4  18
TORSDOF 5
ENDMDL
MODEL 3
REMARK VINA RESULT:    -7.135      5.461      9.298
REMARK INTER + INTRA:          -9.567
REMARK INTER:                  -9.199
REMARK INTRA:                  -0.368
REMARK UNBOUND:                -0.555
REMARK  Name = /home/vital/Documents/PhD_2021/Malaria_codes/data/pdb_ligands/ligand_467.pdb
REMARK  5 active torsions:
REMARK  status: ('A' for Active; 'I' for Inactive)
REMARK    1  A    between atoms: O1_1  and  C1_2
REMARK    2  A    between atoms: C4_6  and  C5_7
REMARK    3  A    between atoms: C5_7  and  N1_8
REMARK    4  A    between atoms: N2_11  and  C8_12
REMARK    5  A    between atoms: C8_12  and  C9_13
REMARK                            x       y       z     vdW  Elec       q    Type
REMARK                         _______ _______ _______ _____ _____    ______ ____
ROOT
ATOM      1  N1  UNL     1     150.620 159.488 158.902  0.00  0.00    -0.296 NA
ATOM      2  C6  UNL     1     151.367 160.744 158.759  0.00  0.00    +0.100 C 
ATOM      3  C7  UNL     1     152.434 160.970 159.865  0.00  0.00    +0.100 C 
ATOM      4  N2  UNL     1     152.194 160.262 161.136  0.00  0.00    -0.296 NA
ATOM      5  C15 UNL     1     152.045 158.813 160.859  0.00  0.00    +0.100 C 
ATOM      6  C16 UNL     1     151.450 158.427 159.474  0.00  0.00    +0.100 C 
ENDROOT
BRANCH   1   7
ATOM      7  C5  UNL     1     149.815 159.108 157.743  0.00  0.00    +0.119 C 
BRANCH   7  12
ATOM      8  C1  UNL     1     151.678 156.466 154.865  0.00  0.00    +0.188 A 
ATOM      9  C2  UNL     1     150.770 155.971 155.793  0.00  0.00    +0.168 A 
ATOM     10  F1  UNL     1     150.471 154.664 155.788  0.00  0.00    -0.202 F 
ATOM     11  C3  UNL     1     150.166 156.811 156.725  0.00  0.00    +0.047 A 
ATOM     12  C4  UNL     1     150.465 158.182 156.737  0.00  0.00    -0.028 A 
ATOM     13  C17 UNL     1     151.389 158.675 155.801  0.00  0.00    +0.047 A 
ATOM     14  C18 UNL     1     151.985 157.820 154.875  0.00  0.00    +0.168 A 
ATOM     15  F2  UNL     1     152.860 158.326 153.994  0.00  0.00    -0.202 F 
BRANCH   8  16
ATOM     16  O1  UNL     1     152.265 155.634 153.953  0.00  0.00    -0.502 OA
ATOM     17  H1  UNL     1     151.796 155.754 153.106  0.00  0.00    +0.292 HD
ENDBRANCH   8  16
ENDBRANCH   7  12
ENDBRANCH   1   7
BRANCH   4  18
ATOM     18  C8  UNL     1     151.010 160.810 161.822  0.00  0.00    +0.119 C 
BRANCH  18  19
ATOM     19  C9  UNL     1     151.335 161.403 163.180  0.00  0.00    -0.033 A 
ATOM     20  C10 UNL     1     152.382 160.881 163.956  0.00  0.00    +0.006 A 
ATOM     21  C11 UNL     1     152.694 161.437 165.199  0.00  0.00    +0.015 A 
ATOM     22  C12 UNL     1     151.963 162.524 165.670  0.00  0.00    +0.018 A 
ATOM     23 BR1  UNL     1     152.381 163.279 167.352  0.00  0.00    -0.050 Br
ATOM     24  C13 UNL     1     150.923 163.060 164.910  0.00  0.00    +0.015 A 
ATOM     25  C14 UNL     1     150.613 162.503 163.668  0.00  0.00    +0.006 A 
ENDBRANCH  18  19
ENDBRANCH   4  18
TORSDOF 5
ENDMDL
MODEL 4
REMARK VINA RESULT:    -6.797      3.488      4.391
REMARK INTER + INTRA:          -9.141
REMARK INTER:                  -8.760
REMARK INTRA:                  -0.381
REMARK UNBOUND:                -0.555
REMARK  Name = /home/vital/Documents/PhD_2021/Malaria_codes/data/pdb_ligands/ligand_467.pdb
REMARK  5 active torsions:
REMARK  status: ('A' for Active; 'I' for Inactive)
REMARK    1  A    between atoms: O1_1  and  C1_2
REMARK    2  A    between atoms: C4_6  and  C5_7
REMARK    3  A    between atoms: C5_7  and  N1_8
REMARK    4  A    between atoms: N2_11  and  C8_12
REMARK    5  A    between atoms: C8_12  and  C9_13
REMARK                            x       y       z     vdW  Elec       q    Type
REMARK                         _______ _______ _______ _____ _____    ______ ____
ROOT
ATOM      1  N1  UNL     1     150.405 157.187 156.341  0.00  0.00    -0.296 NA
ATOM      2  C6  UNL     1     150.369 156.209 157.436  0.00  0.00    +0.100 C 
ATOM      3  C7  UNL     1     151.031 154.848 157.086  0.00  0.00    +0.100 C 
ATOM      4  N2  UNL     1     151.086 154.517 155.650  0.00  0.00    -0.296 NA
ATOM      5  C15 UNL     1     151.769 155.618 154.929  0.00  0.00    +0.100 C 
ATOM      6  C16 UNL     1     151.615 157.044 155.530  0.00  0.00    +0.100 C 
ENDROOT
BRANCH   1   7
ATOM      7  C5  UNL     1     150.050 158.554 156.716  0.00  0.00    +0.119 C 
BRANCH   7  12
ATOM      8  C1  UNL     1     151.595 160.001 160.491  0.00  0.00    +0.188 A 
ATOM      9  C2  UNL     1     152.423 159.909 159.379  0.00  0.00    +0.168 A 
ATOM     10  F1  UNL     1     153.708 160.276 159.483  0.00  0.00    -0.202 F 
ATOM     11  C3  UNL     1     151.938 159.443 158.159  0.00  0.00    +0.047 A 
ATOM     12  C4  UNL     1     150.593 159.061 158.035  0.00  0.00    -0.028 A 
ATOM     13  C17 UNL     1     149.763 159.149 159.165  0.00  0.00    +0.047 A 
ATOM     14  C18 UNL     1     150.265 159.618 160.379  0.00  0.00    +0.168 A 
ATOM     15  F2  UNL     1     149.443 159.692 161.435  0.00  0.00    -0.202 F 
BRANCH   8  16
ATOM     16  O1  UNL     1     152.080 160.461 161.684  0.00  0.00    -0.502 OA
ATOM     17  H1  UNL     1     152.973 160.815 161.517  0.00  0.00    +0.292 HD
ENDBRANCH   8  16
ENDBRANCH   7  12
ENDBRANCH   1   7
BRANCH   4  18
ATOM     18  C8  UNL     1     149.732 154.275 155.119  0.00  0.00    +0.119 C 
BRANCH  18  19
ATOM     19  C9  UNL     1     149.470 152.811 154.817  0.00  0.00    -0.033 A 
ATOM     20  C10 UNL     1     150.524 151.885 154.796  0.00  0.00    +0.006 A 
ATOM     21  C11 UNL     1     150.281 150.535 154.535  0.00  0.00    +0.015 A 
ATOM     22  C12 UNL     1     148.978 150.102 154.298  0.00  0.00    +0.018 A 
ATOM     23 BR1  UNL     1     148.646 148.275 153.943  0.00  0.00    -0.050 Br
ATOM     24  C13 UNL     1     147.918 151.007 154.321  0.00  0.00    +0.015 A 
ATOM     25  C14 UNL     1     148.163 152.357 154.582  0.00  0.00    +0.006 A 
ENDBRANCH  18  19
ENDBRANCH   4  18
TORSDOF 5
ENDMDL
MODEL 5
REMARK VINA RESULT:    -6.774      3.552      4.569
REMARK INTER + INTRA:          -9.111
REMARK INTER:                  -8.719
REMARK INTRA:                  -0.392
REMARK UNBOUND:                -0.555
REMARK  Name = /home/vital/Documents/PhD_2021/Malaria_codes/data/pdb_ligands/ligand_467.pdb
REMARK  5 active torsions:
REMARK  status: ('A' for Active; 'I' for Inactive)
REMARK    1  A    between atoms: O1_1  and  C1_2
REMARK    2  A    between atoms: C4_6  and  C5_7
REMARK    3  A    between atoms: C5_7  and  N1_8
REMARK    4  A    between atoms: N2_11  and  C8_12
REMARK    5  A    between atoms: C8_12  and  C9_13
REMARK                            x       y       z     vdW  Elec       q    Type
REMARK                         _______ _______ _______ _____ _____    ______ ____
ROOT
ATOM      1  N1  UNL     1     150.070 156.492 156.591  0.00  0.00    -0.296 NA
ATOM      2  C6  UNL     1     150.097 155.271 157.407  0.00  0.00    +0.100 C 
ATOM      3  C7  UNL     1     150.917 154.112 156.778  0.00  0.00    +0.100 C 
ATOM      4  N2  UNL     1     151.065 154.159 155.311  0.00  0.00    -0.296 NA
ATOM      5  C15 UNL     1     151.652 155.466 154.929  0.00  0.00    +0.100 C 
ATOM      6  C16 UNL     1     151.319 156.674 155.850  0.00  0.00    +0.100 C 
ENDROOT
BRANCH   1   7
ATOM      7  C5  UNL     1     149.554 157.680 157.266  0.00  0.00    +0.119 C 
BRANCH   7  12
ATOM      8  C1  UNL     1     152.435 160.143 159.355  0.00  0.00    +0.188 A 
ATOM      9  C2  UNL     1     152.120 158.873 159.824  0.00  0.00    +0.168 A 
ATOM     10  F1  UNL     1     152.720 158.413 160.931  0.00  0.00    -0.202 F 
ATOM     11  C3  UNL     1     151.193 158.072 159.162  0.00  0.00    +0.047 A 
ATOM     12  C4  UNL     1     150.562 158.539 157.998  0.00  0.00    -0.028 A 
ATOM     13  C17 UNL     1     150.879 159.827 157.533  0.00  0.00    +0.047 A 
ATOM     14  C18 UNL     1     151.810 160.615 158.209  0.00  0.00    +0.168 A 
ATOM     15  F2  UNL     1     152.091 161.837 157.734  0.00  0.00    -0.202 F 
BRANCH   8  16
ATOM     16  O1  UNL     1     153.348 160.921 160.011  0.00  0.00    -0.502 OA
ATOM     17  H1  UNL     1     153.150 160.859 160.965  0.00  0.00    +0.292 HD
ENDBRANCH   8  16
ENDBRANCH   7  12
ENDBRANCH   1   7
BRANCH   4  18
ATOM     18  C8  UNL     1     149.768 153.929 154.650  0.00  0.00    +0.119 C 
BRANCH  18  19
ATOM     19  C9  UNL     1     149.509 152.464 154.351  0.00  0.00    -0.033 A 
ATOM     20  C10 UNL     1     150.546 151.629 153.908  0.00  0.00    +0.006 A 
ATOM     21  C11 UNL     1     150.312 150.277 153.650  0.00  0.00    +0.015 A 
ATOM     22  C12 UNL     1     149.038 149.750 153.842  0.00  0.00    +0.018 A 
ATOM     23 BR1  UNL     1     148.717 147.920 153.493  0.00  0.00    -0.050 Br
ATOM     24  C13 UNL     1     147.996 150.562 154.288  0.00  0.00    +0.015 A 
ATOM     25  C14 UNL     1     148.232 151.914 154.545  0.00  0.00    +0.006 A 
ENDBRANCH  18  19
ENDBRANCH   4  18
TORSDOF 5
ENDMDL
MODEL 6
REMARK VINA RESULT:    -6.730      1.870      2.748
REMARK INTER + INTRA:          -9.055
REMARK INTER:                  -8.582
REMARK INTRA:                  -0.474
REMARK UNBOUND:                -0.555
REMARK  Name = /home/vital/Documents/PhD_2021/Malaria_codes/data/pdb_ligands/ligand_467.pdb
REMARK  5 active torsions:
REMARK  status: ('A' for Active; 'I' for Inactive)
REMARK    1  A    between atoms: O1_1  and  C1_2
REMARK    2  A    between atoms: C4_6  and  C5_7
REMARK    3  A    between atoms: C5_7  and  N1_8
REMARK    4  A    between atoms: N2_11  and  C8_12
REMARK    5  A    between atoms: C8_12  and  C9_13
REMARK                            x       y       z     vdW  Elec       q    Type
REMARK                         _______ _______ _______ _____ _____    ______ ____
ROOT
ATOM      1  N1  UNL     1     150.237 156.657 159.922  0.00  0.00    -0.296 NA
ATOM      2  C6  UNL     1     149.519 155.419 160.254  0.00  0.00    +0.100 C 
ATOM      3  C7  UNL     1     150.123 154.147 159.598  0.00  0.00    +0.100 C 
ATOM      4  N2  UNL     1     150.907 154.374 158.370  0.00  0.00    -0.296 NA
ATOM      5  C15 UNL     1     151.978 155.358 158.658  0.00  0.00    +0.100 C 
ATOM      6  C16 UNL     1     151.671 156.420 159.752  0.00  0.00    +0.100 C 
ENDROOT
BRANCH   1   7
ATOM      7  C5  UNL     1     149.877 157.820 160.731  0.00  0.00    +0.119 C 
BRANCH   7  12
ATOM      8  C1  UNL     1     151.846 161.551 159.763  0.00  0.00    +0.188 A 
ATOM      9  C2  UNL     1     151.333 160.742 158.757  0.00  0.00    +0.168 A 
ATOM     10  F1  UNL     1     151.450 161.128 157.478  0.00  0.00    -0.202 F 
ATOM     11  C3  UNL     1     150.700 159.538 159.055  0.00  0.00    +0.047 A 
ATOM     12  C4  UNL     1     150.565 159.124 160.390  0.00  0.00    -0.028 A 
ATOM     13  C17 UNL     1     151.092 159.943 161.403  0.00  0.00    +0.047 A 
ATOM     14  C18 UNL     1     151.724 161.145 161.086  0.00  0.00    +0.168 A 
ATOM     15  F2  UNL     1     152.211 161.902 162.078  0.00  0.00    -0.202 F 
BRANCH   8  16
ATOM     16  O1  UNL     1     152.465 162.731 159.460  0.00  0.00    -0.502 OA
ATOM     17  H1  UNL     1     153.005 162.579 158.662  0.00  0.00    +0.292 HD
ENDBRANCH   8  16
ENDBRANCH   7  12
ENDBRANCH   1   7
BRANCH   4  18
ATOM     18  C8  UNL     1     150.033 154.825 157.271  0.00  0.00    +0.119 C 
BRANCH  18  19
ATOM     19  C9  UNL     1     150.783 155.592 156.197  0.00  0.00    -0.033 A 
ATOM     20  C10 UNL     1     150.657 156.986 156.093  0.00  0.00    +0.006 A 
ATOM     21  C11 UNL     1     151.360 157.694 155.117  0.00  0.00    +0.015 A 
ATOM     22  C12 UNL     1     152.200 157.011 154.241  0.00  0.00    +0.018 A 
ATOM     23 BR1  UNL     1     153.153 157.966 152.917  0.00  0.00    -0.050 Br
ATOM     24  C13 UNL     1     152.343 155.627 154.333  0.00  0.00    +0.015 A 
ATOM     25  C14 UNL     1     151.639 154.920 155.310  0.00  0.00    +0.006 A 
ENDBRANCH  18  19
ENDBRANCH   4  18
TORSDOF 5
ENDMDL
MODEL 7
REMARK VINA RESULT:    -6.616      5.221      8.254
REMARK INTER + INTRA:          -8.912
REMARK INTER:                  -8.289
REMARK INTRA:                  -0.623
REMARK UNBOUND:                -0.555
REMARK  Name = /home/vital/Documents/PhD_2021/Malaria_codes/data/pdb_ligands/ligand_467.pdb
REMARK  5 active torsions:
REMARK  status: ('A' for Active; 'I' for Inactive)
REMARK    1  A    between atoms: O1_1  and  C1_2
REMARK    2  A    between atoms: C4_6  and  C5_7
REMARK    3  A    between atoms: C5_7  and  N1_8
REMARK    4  A    between atoms: N2_11  and  C8_12
REMARK    5  A    between atoms: C8_12  and  C9_13
REMARK                            x       y       z     vdW  Elec       q    Type
REMARK                         _______ _______ _______ _____ _____    ______ ____
ROOT
ATOM      1  N1  UNL     1     150.668 159.274 158.311  0.00  0.00    -0.296 NA
ATOM      2  C6  UNL     1     149.630 159.130 159.340  0.00  0.00    +0.100 C 
ATOM      3  C7  UNL     1     150.056 159.650 160.740  0.00  0.00    +0.100 C 
ATOM      4  N2  UNL     1     151.508 159.680 160.994  0.00  0.00    -0.296 NA
ATOM      5  C15 UNL     1     152.167 160.477 159.932  0.00  0.00    +0.100 C 
ATOM      6  C16 UNL     1     151.486 160.468 158.533  0.00  0.00    +0.100 C 
ENDROOT
BRANCH   1   7
ATOM      7  C5  UNL     1     150.217 159.061 156.938  0.00  0.00    +0.119 C 
BRANCH   7  12
ATOM      8  C1  UNL     1     152.175 155.904 154.717  0.00  0.00    +0.188 A 
ATOM      9  C2  UNL     1     152.559 157.228 154.548  0.00  0.00    +0.168 A 
ATOM     10  F1  UNL     1     153.547 157.522 153.691  0.00  0.00    -0.202 F 
ATOM     11  C3  UNL     1     151.935 158.253 155.255  0.00  0.00    +0.047 A 
ATOM     12  C4  UNL     1     150.904 157.958 156.160  0.00  0.00    -0.028 A 
ATOM     13  C17 UNL     1     150.514 156.618 156.321  0.00  0.00    +0.047 A 
ATOM     14  C18 UNL     1     151.150 155.604 155.604  0.00  0.00    +0.168 A 
ATOM     15  F2  UNL     1     150.754 154.336 155.785  0.00  0.00    -0.202 F 
BRANCH   8  16
ATOM     16  O1  UNL     1     152.794 154.905 154.018  0.00  0.00    -0.502 OA
ATOM     17  H1  UNL     1     153.642 154.720 154.464  0.00  0.00    +0.292 HD
ENDBRANCH   8  16
ENDBRANCH   7  12
ENDBRANCH   1   7
BRANCH   4  18
ATOM     18  C8  UNL     1     152.052 158.311 161.065  0.00  0.00    +0.119 C 
BRANCH  18  19
ATOM     19  C9  UNL     1     151.668 157.589 162.343  0.00  0.00    -0.033 A 
ATOM     20  C10 UNL     1     150.931 156.395 162.297  0.00  0.00    +0.006 A 
ATOM     21  C11 UNL     1     150.592 155.721 163.471  0.00  0.00    +0.015 A 
ATOM     22  C12 UNL     1     150.997 156.233 164.701  0.00  0.00    +0.018 A 
ATOM     23 BR1  UNL     1     150.539 155.323 166.294  0.00  0.00    -0.050 Br
ATOM     24  C13 UNL     1     151.735 157.414 164.767  0.00  0.00    +0.015 A 
ATOM     25  C14 UNL     1     152.073 158.088 163.591  0.00  0.00    +0.006 A 
ENDBRANCH  18  19
ENDBRANCH   4  18
TORSDOF 5
ENDMDL
MODEL 8
REMARK VINA RESULT:    -6.598      5.226      8.370
REMARK INTER + INTRA:          -8.889
REMARK INTER:                  -8.269
REMARK INTRA:                  -0.620
REMARK UNBOUND:                -0.555
REMARK  Name = /home/vital/Documents/PhD_2021/Malaria_codes/data/pdb_ligands/ligand_467.pdb
REMARK  5 active torsions:
REMARK  status: ('A' for Active; 'I' for Inactive)
REMARK    1  A    between atoms: O1_1  and  C1_2
REMARK    2  A    between atoms: C4_6  and  C5_7
REMARK    3  A    between atoms: C5_7  and  N1_8
REMARK    4  A    between atoms: N2_11  and  C8_12
REMARK    5  A    between atoms: C8_12  and  C9_13
REMARK                            x       y       z     vdW  Elec       q    Type
REMARK                         _______ _______ _______ _____ _____    ______ ____
ROOT
ATOM      1  N1  UNL     1     150.683 159.284 158.295  0.00  0.00    -0.296 NA
ATOM      2  C6  UNL     1     149.633 159.116 159.309  0.00  0.00    +0.100 C 
ATOM      3  C7  UNL     1     150.037 159.623 160.721  0.00  0.00    +0.100 C 
ATOM      4  N2  UNL     1     151.485 159.664 160.994  0.00  0.00    -0.296 NA
ATOM      5  C15 UNL     1     152.148 160.482 159.949  0.00  0.00    +0.100 C 
ATOM      6  C16 UNL     1     151.485 160.483 158.542  0.00  0.00    +0.100 C 
ENDROOT
BRANCH   1   7
ATOM      7  C5  UNL     1     150.251 159.083 156.914  0.00  0.00    +0.119 C 
BRANCH   7  12
ATOM      8  C1  UNL     1     152.154 155.869 154.728  0.00  0.00    +0.188 A 
ATOM      9  C2  UNL     1     151.125 155.602 155.623  0.00  0.00    +0.168 A 
ATOM     10  F1  UNL     1     150.723 154.336 155.803  0.00  0.00    -0.202 F 
ATOM     11  C3  UNL     1     150.507 156.627 156.334  0.00  0.00    +0.047 A 
ATOM     12  C4  UNL     1     150.915 157.958 156.151  0.00  0.00    -0.028 A 
ATOM     13  C17 UNL     1     151.961 158.221 155.250  0.00  0.00    +0.047 A 
ATOM     14  C18 UNL     1     152.569 157.182 154.547  0.00  0.00    +0.168 A 
ATOM     15  F2  UNL     1     153.561 157.470 153.693  0.00  0.00    -0.202 F 
BRANCH   8  16
ATOM     16  O1  UNL     1     152.755 154.855 154.035  0.00  0.00    -0.502 OA
ATOM     17  H1  UNL     1     152.072 154.444 153.472  0.00  0.00    +0.292 HD
ENDBRANCH   8  16
ENDBRANCH   7  12
ENDBRANCH   1   7
BRANCH   4  18
ATOM     18  C8  UNL     1     152.043 158.301 161.054  0.00  0.00    +0.119 C 
BRANCH  18  19
ATOM     19  C9  UNL     1     151.686 157.573 162.337  0.00  0.00    -0.033 A 
ATOM     20  C10 UNL     1     152.083 158.082 163.583  0.00  0.00    +0.006 A 
ATOM     21  C11 UNL     1     151.740 157.422 164.765  0.00  0.00    +0.015 A 
ATOM     22  C12 UNL     1     150.989 156.251 164.706  0.00  0.00    +0.018 A 
ATOM     23 BR1  UNL     1     150.523 155.354 166.304  0.00  0.00    -0.050 Br
ATOM     24  C13 UNL     1     150.579 155.733 163.478  0.00  0.00    +0.015 A 
ATOM     25  C14 UNL     1     150.924 156.395 162.297  0.00  0.00    +0.006 A 
ENDBRANCH  18  19
ENDBRANCH   4  18
TORSDOF 5
ENDMDL
MODEL 9
REMARK VINA RESULT:    -6.571      3.073      4.696
REMARK INTER + INTRA:          -8.855
REMARK INTER:                  -8.578
REMARK INTRA:                  -0.277
REMARK UNBOUND:                -0.555
REMARK  Name = /home/vital/Documents/PhD_2021/Malaria_codes/data/pdb_ligands/ligand_467.pdb
REMARK  5 active torsions:
REMARK  status: ('A' for Active; 'I' for Inactive)
REMARK    1  A    between atoms: O1_1  and  C1_2
REMARK    2  A    between atoms: C4_6  and  C5_7
REMARK    3  A    between atoms: C5_7  and  N1_8
REMARK    4  A    between atoms: N2_11  and  C8_12
REMARK    5  A    between atoms: C8_12  and  C9_13
REMARK                            x       y       z     vdW  Elec       q    Type
REMARK                         _______ _______ _______ _____ _____    ______ ____
ROOT
ATOM      1  N1  UNL     1     150.853 158.833 161.051  0.00  0.00    -0.296 NA
ATOM      2  C6  UNL     1     151.945 159.599 160.436  0.00  0.00    +0.100 C 
ATOM      3  C7  UNL     1     151.682 159.994 158.957  0.00  0.00    +0.100 C 
ATOM      4  N2  UNL     1     150.728 159.137 158.229  0.00  0.00    -0.296 NA
ATOM      5  C15 UNL     1     149.451 159.093 158.981  0.00  0.00    +0.100 C 
ATOM      6  C16 UNL     1     149.548 159.239 160.526  0.00  0.00    +0.100 C 
ENDROOT
BRANCH   1   7
ATOM      7  C5  UNL     1     150.935 158.687 162.502  0.00  0.00    +0.119 C 
BRANCH   7  12
ATOM      8  C1  UNL     1     151.709 162.283 164.782  0.00  0.00    +0.188 A 
ATOM      9  C2  UNL     1     150.493 162.108 164.131  0.00  0.00    +0.168 A 
ATOM     10  F1  UNL     1     149.557 163.064 164.217  0.00  0.00    -0.202 F 
ATOM     11  C3  UNL     1     150.234 160.956 163.393  0.00  0.00    +0.047 A 
ATOM     12  C4  UNL     1     151.203 159.945 163.299  0.00  0.00    -0.028 A 
ATOM     13  C17 UNL     1     152.433 160.132 163.953  0.00  0.00    +0.047 A 
ATOM     14  C18 UNL     1     152.676 161.292 164.688  0.00  0.00    +0.168 A 
ATOM     15  F2  UNL     1     153.859 161.434 165.302  0.00  0.00    -0.202 F 
BRANCH   8  16
ATOM     16  O1  UNL     1     151.954 163.418 165.505  0.00  0.00    -0.502 OA
ATOM     17  H1  UNL     1     152.792 163.795 165.178  0.00  0.00    +0.292 HD
ENDBRANCH   8  16
ENDBRANCH   7  12
ENDBRANCH   1   7
BRANCH   4  18
ATOM     18  C8  UNL     1     151.289 157.789 158.026  0.00  0.00    +0.119 C 
BRANCH  18  19
ATOM     19  C9  UNL     1     151.812 157.572 156.619  0.00  0.00    -0.033 A 
ATOM     20  C10 UNL     1     151.852 158.632 155.699  0.00  0.00    +0.006 A 
ATOM     21  C11 UNL     1     152.349 158.437 154.409  0.00  0.00    +0.015 A 
ATOM     22  C12 UNL     1     152.817 157.180 154.033  0.00  0.00    +0.018 A 
ATOM     23 BR1  UNL     1     153.490 156.913 152.287  0.00  0.00    -0.050 Br
ATOM     24  C13 UNL     1     152.791 156.117 154.935  0.00  0.00    +0.015 A 
ATOM     25  C14 UNL     1     152.293 156.313 156.225  0.00  0.00    +0.006 A 
ENDBRANCH  18  19
ENDBRANCH   4  18
TORSDOF 5
ENDMDL
