MODEL 1
REMARK VINA RESULT:    -8.491      0.000      0.000
REMARK INTER + INTRA:         -11.741
REMARK INTER:                 -10.973
REMARK INTRA:                  -0.767
REMARK UNBOUND:                -0.767
REMARK  Name = /home/vital/Documents/PhD_2021/Malaria_codes/data/pdb_ligands/ligand_475.pdb
REMARK  7 active torsions:
REMARK  status: ('A' for Active; 'I' for Inactive)
REMARK    1  A    between atoms: C1_1  and  O1_2
REMARK    2  A    between atoms: O1_2  and  C2_3
REMARK    3  A    between atoms: C5_6  and  S1_7
REMARK    4  A    between atoms: S1_7  and  C6_10
REMARK    5  A    between atoms: C6_10  and  C7_11
REMARK    6  A    between atoms: C9_16  and  C10_17
REMARK    7  A    between atoms: C13_20  and  C14_21
REMARK                            x       y       z     vdW  Elec       q    Type
REMARK                         _______ _______ _______ _____ _____    ______ ____
ROOT
ATOM      1  C7  UNL     1     150.807 157.079 155.770  0.00  0.00    +0.240 C 
ATOM      2  O4  UNL     1     150.813 158.287 155.546  0.00  0.00    -0.274 OA
ATOM      3  N1  UNL     1     151.565 156.124 155.129  0.00  0.00    -0.263 N 
ATOM      4  C8  UNL     1     152.487 156.327 154.134  0.00  0.00    +0.165 A 
ATOM      5  N2  UNL     1     153.190 155.328 153.660  0.00  0.00    -0.225 NA
ATOM      6  C9  UNL     1     154.054 155.773 152.664  0.00  0.00    +0.080 A 
ATOM      7  C17 UNL     1     153.957 157.126 152.400  0.00  0.00    +0.076 A 
ATOM      8  S2  UNL     1     152.777 157.842 153.419  0.00  0.00    -0.060 S 
ATOM      9  H8  UNL     1     151.561 155.159 155.454  0.00  0.00    +0.157 HD
ENDROOT
BRANCH   6  10
ATOM     10  C10 UNL     1     154.957 154.845 151.983  0.00  0.00    +0.001 A 
ATOM     11  C11 UNL     1     154.970 153.495 152.362  0.00  0.00    +0.010 A 
ATOM     12  C12 UNL     1     155.818 152.574 151.737  0.00  0.00    +0.004 A 
ATOM     13  C13 UNL     1     156.684 152.987 150.721  0.00  0.00    -0.050 A 
ATOM     14  C14 UNL     1     157.571 151.997 150.027  0.00  0.00    +0.044 C 
ATOM     15  C15 UNL     1     156.672 154.329 150.327  0.00  0.00    +0.004 A 
ATOM     16  C16 UNL     1     155.823 155.250 150.955  0.00  0.00    +0.010 A 
ENDBRANCH   6  10
BRANCH   1  17
ATOM     17  C6  UNL     1     149.809 156.528 156.751  0.00  0.00    +0.267 C 
BRANCH  17  18
ATOM     18  S1  UNL     1     150.635 155.828 158.140  0.00  0.00    +0.005 S 
ATOM     19  O2  UNL     1     149.855 154.677 158.562  0.00  0.00    -0.169 OA
ATOM     20  O3  UNL     1     152.049 155.706 157.853  0.00  0.00    -0.169 OA
BRANCH  18  24
ATOM     21  C2  UNL     1     150.168 159.032 161.365  0.00  0.00    +0.120 A 
ATOM     22  C3  UNL     1     149.970 159.359 160.021  0.00  0.00    +0.047 A 
ATOM     23  C4  UNL     1     150.111 158.382 159.030  0.00  0.00    +0.030 A 
ATOM     24  C5  UNL     1     150.459 157.079 159.390  0.00  0.00    +0.089 A 
ATOM     25  C18 UNL     1     150.642 156.735 160.730  0.00  0.00    +0.030 A 
ATOM     26  C19 UNL     1     150.502 157.718 161.711  0.00  0.00    +0.047 A 
BRANCH  21  28
ATOM     27  C1  UNL     1     150.048 161.281 162.130  0.00  0.00    +0.277 C 
ATOM     28  O1  UNL     1     150.064 159.889 162.425  0.00  0.00    -0.495 OA
ENDBRANCH  21  28
ENDBRANCH  18  24
ENDBRANCH  17  18
ENDBRANCH   1  17
TORSDOF 5
ENDMDL
MODEL 2
REMARK VINA RESULT:    -7.925      2.035      2.848
REMARK INTER + INTRA:         -11.009
REMARK INTER:                 -10.079
REMARK INTRA:                  -0.931
REMARK UNBOUND:                -0.767
REMARK  Name = /home/vital/Documents/PhD_2021/Malaria_codes/data/pdb_ligands/ligand_475.pdb
REMARK  7 active torsions:
REMARK  status: ('A' for Active; 'I' for Inactive)
REMARK    1  A    between atoms: C1_1  and  O1_2
REMARK    2  A    between atoms: O1_2  and  C2_3
REMARK    3  A    between atoms: C5_6  and  S1_7
REMARK    4  A    between atoms: S1_7  and  C6_10
REMARK    5  A    between atoms: C6_10  and  C7_11
REMARK    6  A    between atoms: C9_16  and  C10_17
REMARK    7  A    between atoms: C13_20  and  C14_21
REMARK                            x       y       z     vdW  Elec       q    Type
REMARK                         _______ _______ _______ _____ _____    ______ ____
ROOT
ATOM      1  C7  UNL     1     150.818 154.166 155.343  0.00  0.00    +0.240 C 
ATOM      2  O4  UNL     1     150.195 153.120 155.517  0.00  0.00    -0.274 OA
ATOM      3  N1  UNL     1     151.981 154.314 154.621  0.00  0.00    -0.263 N 
ATOM      4  C8  UNL     1     152.663 153.341 153.936  0.00  0.00    +0.165 A 
ATOM      5  N2  UNL     1     153.726 153.640 153.230  0.00  0.00    -0.225 NA
ATOM      6  C9  UNL     1     154.245 152.498 152.630  0.00  0.00    +0.080 A 
ATOM      7  C17 UNL     1     153.551 151.341 152.928  0.00  0.00    +0.076 A 
ATOM      8  S2  UNL     1     152.230 151.697 153.963  0.00  0.00    -0.060 S 
ATOM      9  H8  UNL     1     152.368 155.241 154.453  0.00  0.00    +0.157 HD
ENDROOT
BRANCH   6  10
ATOM     10  C10 UNL     1     155.432 152.571 151.776  0.00  0.00    +0.001 A 
ATOM     11  C11 UNL     1     155.607 151.623 150.758  0.00  0.00    +0.010 A 
ATOM     12  C12 UNL     1     156.726 151.657 149.920  0.00  0.00    +0.004 A 
ATOM     13  C13 UNL     1     157.708 152.637 150.091  0.00  0.00    -0.050 A 
ATOM     14  C14 UNL     1     158.893 152.696 149.174  0.00  0.00    +0.044 C 
ATOM     15  C15 UNL     1     157.538 153.595 151.096  0.00  0.00    +0.004 A 
ATOM     16  C16 UNL     1     156.416 153.559 151.934  0.00  0.00    +0.010 A 
ENDBRANCH   6  10
BRANCH   1  17
ATOM     17  C6  UNL     1     150.368 155.405 156.065  0.00  0.00    +0.267 C 
BRANCH  17  18
ATOM     18  S1  UNL     1     151.710 156.120 156.953  0.00  0.00    +0.005 S 
ATOM     19  O2  UNL     1     152.337 155.050 157.710  0.00  0.00    -0.169 OA
ATOM     20  O3  UNL     1     152.488 156.959 156.065  0.00  0.00    -0.169 OA
BRANCH  18  24
ATOM     21  C2  UNL     1     149.640 158.897 159.934  0.00  0.00    +0.120 A 
ATOM     22  C3  UNL     1     150.458 157.862 160.395  0.00  0.00    +0.047 A 
ATOM     23  C4  UNL     1     151.094 157.009 159.486  0.00  0.00    +0.030 A 
ATOM     24  C5  UNL     1     150.902 157.194 158.116  0.00  0.00    +0.089 A 
ATOM     25  C18 UNL     1     150.102 158.234 157.642  0.00  0.00    +0.030 A 
ATOM     26  C19 UNL     1     149.469 159.077 158.557  0.00  0.00    +0.047 A 
BRANCH  21  28
ATOM     27  C1  UNL     1     149.715 160.869 161.263  0.00  0.00    +0.277 C 
ATOM     28  O1  UNL     1     148.963 159.794 160.712  0.00  0.00    -0.495 OA
ENDBRANCH  21  28
ENDBRANCH  18  24
ENDBRANCH  17  18
ENDBRANCH   1  17
TORSDOF 5
ENDMDL
MODEL 3
REMARK VINA RESULT:    -7.797      2.280      2.832
REMARK INTER + INTRA:         -10.844
REMARK INTER:                 -10.075
REMARK INTRA:                  -0.769
REMARK UNBOUND:                -0.767
REMARK  Name = /home/vital/Documents/PhD_2021/Malaria_codes/data/pdb_ligands/ligand_475.pdb
REMARK  7 active torsions:
REMARK  status: ('A' for Active; 'I' for Inactive)
REMARK    1  A    between atoms: C1_1  and  O1_2
REMARK    2  A    between atoms: O1_2  and  C2_3
REMARK    3  A    between atoms: C5_6  and  S1_7
REMARK    4  A    between atoms: S1_7  and  C6_10
REMARK    5  A    between atoms: C6_10  and  C7_11
REMARK    6  A    between atoms: C9_16  and  C10_17
REMARK    7  A    between atoms: C13_20  and  C14_21
REMARK                            x       y       z     vdW  Elec       q    Type
REMARK                         _______ _______ _______ _____ _____    ______ ____
ROOT
ATOM      1  C7  UNL     1     150.165 155.279 155.990  0.00  0.00    +0.240 C 
ATOM      2  O4  UNL     1     149.453 154.284 156.113  0.00  0.00    -0.274 OA
ATOM      3  N1  UNL     1     151.342 155.360 155.280  0.00  0.00    -0.263 N 
ATOM      4  C8  UNL     1     151.943 154.364 154.553  0.00  0.00    +0.165 A 
ATOM      5  N2  UNL     1     153.033 154.603 153.866  0.00  0.00    -0.225 NA
ATOM      6  C9  UNL     1     153.457 153.448 153.215  0.00  0.00    +0.080 A 
ATOM      7  C17 UNL     1     152.664 152.343 153.456  0.00  0.00    +0.076 A 
ATOM      8  S2  UNL     1     151.370 152.764 154.501  0.00  0.00    -0.060 S 
ATOM      9  H8  UNL     1     151.809 156.257 155.157  0.00  0.00    +0.157 HD
ENDROOT
BRANCH   6  10
ATOM     10  C10 UNL     1     154.653 153.459 152.370  0.00  0.00    +0.001 A 
ATOM     11  C11 UNL     1     155.278 152.245 152.050  0.00  0.00    +0.010 A 
ATOM     12  C12 UNL     1     156.423 152.210 151.246  0.00  0.00    +0.004 A 
ATOM     13  C13 UNL     1     156.977 153.394 150.753  0.00  0.00    -0.050 A 
ATOM     14  C14 UNL     1     158.185 153.358 149.865  0.00  0.00    +0.044 C 
ATOM     15  C15 UNL     1     156.355 154.609 151.057  0.00  0.00    +0.004 A 
ATOM     16  C16 UNL     1     155.209 154.642 151.863  0.00  0.00    +0.010 A 
ENDBRANCH   6  10
BRANCH   1  17
ATOM     17  C6  UNL     1     149.818 156.518 156.767  0.00  0.00    +0.267 C 
BRANCH  17  18
ATOM     18  S1  UNL     1     150.889 156.694 158.154  0.00  0.00    +0.005 S 
ATOM     19  O2  UNL     1     150.123 156.326 159.332  0.00  0.00    -0.169 OA
ATOM     20  O3  UNL     1     152.162 156.065 157.866  0.00  0.00    -0.169 OA
BRANCH  18  24
ATOM     21  C2  UNL     1     151.600 161.204 158.350  0.00  0.00    +0.120 A 
ATOM     22  C3  UNL     1     151.936 160.493 157.195  0.00  0.00    +0.047 A 
ATOM     23  C4  UNL     1     151.720 159.112 157.129  0.00  0.00    +0.030 A 
ATOM     24  C5  UNL     1     151.173 158.447 158.228  0.00  0.00    +0.089 A 
ATOM     25  C18 UNL     1     150.817 159.147 159.381  0.00  0.00    +0.030 A 
ATOM     26  C19 UNL     1     151.040 160.524 159.437  0.00  0.00    +0.047 A 
BRANCH  21  28
ATOM     27  C1  UNL     1     151.582 163.388 157.409  0.00  0.00    +0.277 C 
ATOM     28  O1  UNL     1     151.761 162.547 158.543  0.00  0.00    -0.495 OA
ENDBRANCH  21  28
ENDBRANCH  18  24
ENDBRANCH  17  18
ENDBRANCH   1  17
TORSDOF 5
ENDMDL
MODEL 4
REMARK VINA RESULT:    -7.766      4.654      9.557
REMARK INTER + INTRA:         -10.804
REMARK INTER:                  -9.902
REMARK INTRA:                  -0.901
REMARK UNBOUND:                -0.767
REMARK  Name = /home/vital/Documents/PhD_2021/Malaria_codes/data/pdb_ligands/ligand_475.pdb
REMARK  7 active torsions:
REMARK  status: ('A' for Active; 'I' for Inactive)
REMARK    1  A    between atoms: C1_1  and  O1_2
REMARK    2  A    between atoms: O1_2  and  C2_3
REMARK    3  A    between atoms: C5_6  and  S1_7
REMARK    4  A    between atoms: S1_7  and  C6_10
REMARK    5  A    between atoms: C6_10  and  C7_11
REMARK    6  A    between atoms: C9_16  and  C10_17
REMARK    7  A    between atoms: C13_20  and  C14_21
REMARK                            x       y       z     vdW  Elec       q    Type
REMARK                         _______ _______ _______ _____ _____    ______ ____
ROOT
ATOM      1  C7  UNL     1     151.460 154.641 154.965  0.00  0.00    +0.240 C 
ATOM      2  O4  UNL     1     152.102 155.103 154.024  0.00  0.00    -0.274 OA
ATOM      3  N1  UNL     1     151.134 155.296 156.132  0.00  0.00    -0.263 N 
ATOM      4  C8  UNL     1     151.435 156.591 156.470  0.00  0.00    +0.165 A 
ATOM      5  N2  UNL     1     150.998 157.109 157.592  0.00  0.00    -0.225 NA
ATOM      6  C9  UNL     1     151.429 158.426 157.717  0.00  0.00    +0.080 A 
ATOM      7  C17 UNL     1     152.214 158.863 156.667  0.00  0.00    +0.076 A 
ATOM      8  S2  UNL     1     152.402 157.609 155.511  0.00  0.00    -0.060 S 
ATOM      9  H8  UNL     1     150.514 154.859 156.812  0.00  0.00    +0.157 HD
ENDROOT
BRANCH   6  10
ATOM     10  C10 UNL     1     151.062 159.228 158.885  0.00  0.00    +0.001 A 
ATOM     11  C11 UNL     1     149.845 158.978 159.536  0.00  0.00    +0.010 A 
ATOM     12  C12 UNL     1     149.456 159.721 160.656  0.00  0.00    +0.004 A 
ATOM     13  C13 UNL     1     150.274 160.745 161.144  0.00  0.00    -0.050 A 
ATOM     14  C14 UNL     1     149.875 161.522 162.362  0.00  0.00    +0.044 C 
ATOM     15  C15 UNL     1     151.494 160.995 160.509  0.00  0.00    +0.004 A 
ATOM     16  C16 UNL     1     151.882 160.250 159.387  0.00  0.00    +0.010 A 
ENDBRANCH   6  10
BRANCH   1  17
ATOM     17  C6  UNL     1     151.073 153.189 154.935  0.00  0.00    +0.267 C 
BRANCH  17  18
ATOM     18  S1  UNL     1     149.420 152.982 155.508  0.00  0.00    +0.005 S 
ATOM     19  O2  UNL     1     149.464 153.034 156.959  0.00  0.00    -0.169 OA
ATOM     20  O3  UNL     1     148.535 153.848 154.757  0.00  0.00    -0.169 OA
BRANCH  18  24
ATOM     21  C2  UNL     1     148.454 148.676 154.319  0.00  0.00    +0.120 A 
ATOM     22  C3  UNL     1     148.008 149.737 153.526  0.00  0.00    +0.047 A 
ATOM     23  C4  UNL     1     148.302 151.057 153.885  0.00  0.00    +0.030 A 
ATOM     24  C5  UNL     1     149.037 151.309 155.045  0.00  0.00    +0.089 A 
ATOM     25  C18 UNL     1     149.503 150.258 155.836  0.00  0.00    +0.030 A 
ATOM     26  C19 UNL     1     149.202 148.945 155.470  0.00  0.00    +0.047 A 
BRANCH  21  28
ATOM     27  C1  UNL     1     148.448 146.455 155.170  0.00  0.00    +0.277 C 
ATOM     28  O1  UNL     1     148.235 147.348 154.083  0.00  0.00    -0.495 OA
ENDBRANCH  21  28
ENDBRANCH  18  24
ENDBRANCH  17  18
ENDBRANCH   1  17
TORSDOF 5
ENDMDL
MODEL 5
REMARK VINA RESULT:    -7.641      1.744      2.313
REMARK INTER + INTRA:         -10.641
REMARK INTER:                 -10.399
REMARK INTRA:                  -0.242
REMARK UNBOUND:                -0.767
REMARK  Name = /home/vital/Documents/PhD_2021/Malaria_codes/data/pdb_ligands/ligand_475.pdb
REMARK  7 active torsions:
REMARK  status: ('A' for Active; 'I' for Inactive)
REMARK    1  A    between atoms: C1_1  and  O1_2
REMARK    2  A    between atoms: O1_2  and  C2_3
REMARK    3  A    between atoms: C5_6  and  S1_7
REMARK    4  A    between atoms: S1_7  and  C6_10
REMARK    5  A    between atoms: C6_10  and  C7_11
REMARK    6  A    between atoms: C9_16  and  C10_17
REMARK    7  A    between atoms: C13_20  and  C14_21
REMARK                            x       y       z     vdW  Elec       q    Type
REMARK                         _______ _______ _______ _____ _____    ______ ____
ROOT
ATOM      1  C7  UNL     1     151.823 157.767 155.700  0.00  0.00    +0.240 C 
ATOM      2  O4  UNL     1     151.318 158.675 155.043  0.00  0.00    -0.274 OA
ATOM      3  N1  UNL     1     152.654 156.777 155.224  0.00  0.00    -0.263 N 
ATOM      4  C8  UNL     1     153.101 156.617 153.938  0.00  0.00    +0.165 A 
ATOM      5  N2  UNL     1     153.950 155.663 153.639  0.00  0.00    -0.225 NA
ATOM      6  C9  UNL     1     154.256 155.696 152.282  0.00  0.00    +0.080 A 
ATOM      7  C17 UNL     1     153.596 156.686 151.580  0.00  0.00    +0.076 A 
ATOM      8  S2  UNL     1     152.591 157.588 152.639  0.00  0.00    -0.060 S 
ATOM      9  H8  UNL     1     153.101 156.126 155.867  0.00  0.00    +0.157 HD
ENDROOT
BRANCH   6  10
ATOM     10  C10 UNL     1     155.194 154.734 151.700  0.00  0.00    +0.001 A 
ATOM     11  C11 UNL     1     155.987 155.121 150.610  0.00  0.00    +0.010 A 
ATOM     12  C12 UNL     1     156.895 154.233 150.024  0.00  0.00    +0.004 A 
ATOM     13  C13 UNL     1     157.023 152.928 150.510  0.00  0.00    -0.050 A 
ATOM     14  C14 UNL     1     158.019 151.985 149.905  0.00  0.00    +0.044 C 
ATOM     15  C15 UNL     1     156.245 152.536 151.604  0.00  0.00    +0.004 A 
ATOM     16  C16 UNL     1     155.336 153.427 152.189  0.00  0.00    +0.010 A 
ENDBRANCH   6  10
BRANCH   1  17
ATOM     17  C6  UNL     1     151.433 157.614 157.144  0.00  0.00    +0.267 C 
BRANCH  17  18
ATOM     18  S1  UNL     1     151.047 159.183 157.846  0.00  0.00    +0.005 S 
ATOM     19  O2  UNL     1     152.192 160.047 157.609  0.00  0.00    -0.169 OA
ATOM     20  O3  UNL     1     149.715 159.581 157.441  0.00  0.00    -0.169 OA
BRANCH  18  24
ATOM     21  C2  UNL     1     150.882 158.293 162.325  0.00  0.00    +0.120 A 
ATOM     22  C3  UNL     1     150.371 159.496 161.833  0.00  0.00    +0.047 A 
ATOM     23  C4  UNL     1     150.419 159.774 160.462  0.00  0.00    +0.030 A 
ATOM     24  C5  UNL     1     150.987 158.843 159.590  0.00  0.00    +0.089 A 
ATOM     25  C18 UNL     1     151.485 157.630 160.066  0.00  0.00    +0.030 A 
ATOM     26  C19 UNL     1     151.435 157.365 161.436  0.00  0.00    +0.047 A 
BRANCH  21  28
ATOM     27  C1  UNL     1     152.142 158.000 164.322  0.00  0.00    +0.277 C 
ATOM     28  O1  UNL     1     150.899 157.903 163.635  0.00  0.00    -0.495 OA
ENDBRANCH  21  28
ENDBRANCH  18  24
ENDBRANCH  17  18
ENDBRANCH   1  17
TORSDOF 5
ENDMDL
MODEL 6
REMARK VINA RESULT:    -7.499      1.458      2.278
REMARK INTER + INTRA:         -10.458
REMARK INTER:                  -9.768
REMARK INTRA:                  -0.690
REMARK UNBOUND:                -0.767
REMARK  Name = /home/vital/Documents/PhD_2021/Malaria_codes/data/pdb_ligands/ligand_475.pdb
REMARK  7 active torsions:
REMARK  status: ('A' for Active; 'I' for Inactive)
REMARK    1  A    between atoms: C1_1  and  O1_2
REMARK    2  A    between atoms: O1_2  and  C2_3
REMARK    3  A    between atoms: C5_6  and  S1_7
REMARK    4  A    between atoms: S1_7  and  C6_10
REMARK    5  A    between atoms: C6_10  and  C7_11
REMARK    6  A    between atoms: C9_16  and  C10_17
REMARK    7  A    between atoms: C13_20  and  C14_21
REMARK                            x       y       z     vdW  Elec       q    Type
REMARK                         _______ _______ _______ _____ _____    ______ ____
ROOT
ATOM      1  C7  UNL     1     151.878 157.849 155.821  0.00  0.00    +0.240 C 
ATOM      2  O4  UNL     1     151.333 158.734 155.163  0.00  0.00    -0.274 OA
ATOM      3  N1  UNL     1     152.702 156.859 155.335  0.00  0.00    -0.263 N 
ATOM      4  C8  UNL     1     153.097 156.672 154.034  0.00  0.00    +0.165 A 
ATOM      5  N2  UNL     1     153.946 155.722 153.723  0.00  0.00    -0.225 NA
ATOM      6  C9  UNL     1     154.195 155.726 152.354  0.00  0.00    +0.080 A 
ATOM      7  C17 UNL     1     153.492 156.689 151.657  0.00  0.00    +0.076 A 
ATOM      8  S2  UNL     1     152.519 157.603 152.735  0.00  0.00    -0.060 S 
ATOM      9  H8  UNL     1     153.184 156.230 155.974  0.00  0.00    +0.157 HD
ENDROOT
BRANCH   6  10
ATOM     10  C10 UNL     1     155.121 154.762 151.757  0.00  0.00    +0.001 A 
ATOM     11  C11 UNL     1     155.734 155.065 150.533  0.00  0.00    +0.010 A 
ATOM     12  C12 UNL     1     156.625 154.173 149.928  0.00  0.00    +0.004 A 
ATOM     13  C13 UNL     1     156.915 152.946 150.531  0.00  0.00    -0.050 A 
ATOM     14  C14 UNL     1     157.894 152.001 149.901  0.00  0.00    +0.044 C 
ATOM     15  C15 UNL     1     156.319 152.638 151.757  0.00  0.00    +0.004 A 
ATOM     16  C16 UNL     1     155.426 153.533 152.362  0.00  0.00    +0.010 A 
ENDBRANCH   6  10
BRANCH   1  17
ATOM     17  C6  UNL     1     151.550 157.727 157.283  0.00  0.00    +0.267 C 
BRANCH  17  18
ATOM     18  S1  UNL     1     151.213 156.049 157.698  0.00  0.00    +0.005 S 
ATOM     19  O2  UNL     1     149.962 155.693 157.049  0.00  0.00    -0.169 OA
ATOM     20  O3  UNL     1     152.406 155.252 157.503  0.00  0.00    -0.169 OA
BRANCH  18  24
ATOM     21  C2  UNL     1     150.438 156.239 162.198  0.00  0.00    +0.120 A 
ATOM     22  C3  UNL     1     150.753 155.019 161.594  0.00  0.00    +0.047 A 
ATOM     23  C4  UNL     1     150.991 154.955 160.217  0.00  0.00    +0.030 A 
ATOM     24  C5  UNL     1     150.906 156.117 159.448  0.00  0.00    +0.089 A 
ATOM     25  C18 UNL     1     150.610 157.345 160.041  0.00  0.00    +0.030 A 
ATOM     26  C19 UNL     1     150.371 157.397 161.415  0.00  0.00    +0.047 A 
BRANCH  21  28
ATOM     27  C1  UNL     1     150.340 155.315 164.388  0.00  0.00    +0.277 C 
ATOM     28  O1  UNL     1     150.182 156.437 163.526  0.00  0.00    -0.495 OA
ENDBRANCH  21  28
ENDBRANCH  18  24
ENDBRANCH  17  18
ENDBRANCH   1  17
TORSDOF 5
ENDMDL
MODEL 7
REMARK VINA RESULT:    -7.477      3.864     10.920
REMARK INTER + INTRA:         -10.429
REMARK INTER:                 -10.284
REMARK INTRA:                  -0.146
REMARK UNBOUND:                -0.767
REMARK  Name = /home/vital/Documents/PhD_2021/Malaria_codes/data/pdb_ligands/ligand_475.pdb
REMARK  7 active torsions:
REMARK  status: ('A' for Active; 'I' for Inactive)
REMARK    1  A    between atoms: C1_1  and  O1_2
REMARK    2  A    between atoms: O1_2  and  C2_3
REMARK    3  A    between atoms: C5_6  and  S1_7
REMARK    4  A    between atoms: S1_7  and  C6_10
REMARK    5  A    between atoms: C6_10  and  C7_11
REMARK    6  A    between atoms: C9_16  and  C10_17
REMARK    7  A    between atoms: C13_20  and  C14_21
REMARK                            x       y       z     vdW  Elec       q    Type
REMARK                         _______ _______ _______ _____ _____    ______ ____
ROOT
ATOM      1  C7  UNL     1     153.957 154.779 152.385  0.00  0.00    +0.240 C 
ATOM      2  O4  UNL     1     153.809 155.488 151.392  0.00  0.00    -0.274 OA
ATOM      3  N1  UNL     1     153.548 155.072 153.668  0.00  0.00    -0.263 N 
ATOM      4  C8  UNL     1     152.879 156.192 154.090  0.00  0.00    +0.165 A 
ATOM      5  N2  UNL     1     152.488 156.308 155.336  0.00  0.00    -0.225 NA
ATOM      6  C9  UNL     1     151.835 157.521 155.527  0.00  0.00    +0.080 A 
ATOM      7  C17 UNL     1     151.772 158.311 154.395  0.00  0.00    +0.076 A 
ATOM      8  S2  UNL     1     152.530 157.513 153.079  0.00  0.00    -0.060 S 
ATOM      9  H8  UNL     1     153.630 154.375 154.406  0.00  0.00    +0.157 HD
ENDROOT
BRANCH   6  10
ATOM     10  C10 UNL     1     151.293 157.884 156.838  0.00  0.00    +0.001 A 
ATOM     11  C11 UNL     1     151.201 159.237 157.193  0.00  0.00    +0.010 A 
ATOM     12  C12 UNL     1     150.690 159.627 158.436  0.00  0.00    +0.004 A 
ATOM     13  C13 UNL     1     150.267 158.667 159.359  0.00  0.00    -0.050 A 
ATOM     14  C14 UNL     1     149.689 159.082 160.679  0.00  0.00    +0.044 C 
ATOM     15  C15 UNL     1     150.344 157.314 159.010  0.00  0.00    +0.004 A 
ATOM     16  C16 UNL     1     150.857 156.926 157.766  0.00  0.00    +0.010 A 
ENDBRANCH   6  10
BRANCH   1  17
ATOM     17  C6  UNL     1     154.759 153.514 152.259  0.00  0.00    +0.267 C 
BRANCH  17  18
ATOM     18  S1  UNL     1     156.448 153.887 151.928  0.00  0.00    +0.005 S 
ATOM     19  O2  UNL     1     156.513 155.299 151.592  0.00  0.00    -0.169 OA
ATOM     20  O3  UNL     1     157.282 153.331 152.974  0.00  0.00    -0.169 OA
BRANCH  18  24
ATOM     21  C2  UNL     1     157.308 151.507 148.123  0.00  0.00    +0.120 A 
ATOM     22  C3  UNL     1     158.252 152.417 148.606  0.00  0.00    +0.047 A 
ATOM     23  C4  UNL     1     157.994 153.148 149.771  0.00  0.00    +0.030 A 
ATOM     24  C5  UNL     1     156.784 152.968 150.444  0.00  0.00    +0.089 A 
ATOM     25  C18 UNL     1     155.841 152.050 149.982  0.00  0.00    +0.030 A 
ATOM     26  C19 UNL     1     156.107 151.328 148.817  0.00  0.00    +0.047 A 
BRANCH  21  28
ATOM     27  C1  UNL     1     156.480 149.698 146.820  0.00  0.00    +0.277 C 
ATOM     28  O1  UNL     1     157.435 150.737 147.001  0.00  0.00    -0.495 OA
ENDBRANCH  21  28
ENDBRANCH  18  24
ENDBRANCH  17  18
ENDBRANCH   1  17
TORSDOF 5
ENDMDL
MODEL 8
REMARK VINA RESULT:    -7.382      7.114      8.068
REMARK INTER + INTRA:         -10.307
REMARK INTER:                  -9.360
REMARK INTRA:                  -0.947
REMARK UNBOUND:                -0.767
REMARK  Name = /home/vital/Documents/PhD_2021/Malaria_codes/data/pdb_ligands/ligand_475.pdb
REMARK  7 active torsions:
REMARK  status: ('A' for Active; 'I' for Inactive)
REMARK    1  A    between atoms: C1_1  and  O1_2
REMARK    2  A    between atoms: O1_2  and  C2_3
REMARK    3  A    between atoms: C5_6  and  S1_7
REMARK    4  A    between atoms: S1_7  and  C6_10
REMARK    5  A    between atoms: C6_10  and  C7_11
REMARK    6  A    between atoms: C9_16  and  C10_17
REMARK    7  A    between atoms: C13_20  and  C14_21
REMARK                            x       y       z     vdW  Elec       q    Type
REMARK                         _______ _______ _______ _____ _____    ______ ____
ROOT
ATOM      1  C7  UNL     1     149.939 152.143 154.505  0.00  0.00    +0.240 C 
ATOM      2  O4  UNL     1     149.283 152.333 153.483  0.00  0.00    -0.274 OA
ATOM      3  N1  UNL     1     150.064 150.953 155.187  0.00  0.00    -0.263 N 
ATOM      4  C8  UNL     1     149.507 149.744 154.856  0.00  0.00    +0.165 A 
ATOM      5  N2  UNL     1     149.769 148.672 155.563  0.00  0.00    -0.225 NA
ATOM      6  C9  UNL     1     149.094 147.572 155.041  0.00  0.00    +0.080 A 
ATOM      7  C17 UNL     1     148.309 147.864 153.941  0.00  0.00    +0.076 A 
ATOM      8  S2  UNL     1     148.430 149.532 153.558  0.00  0.00    -0.060 S 
ATOM      9  H8  UNL     1     150.710 150.874 155.970  0.00  0.00    +0.157 HD
ENDROOT
BRANCH   6  10
ATOM     10  C10 UNL     1     149.232 146.248 155.650  0.00  0.00    +0.001 A 
ATOM     11  C11 UNL     1     150.009 145.274 155.008  0.00  0.00    +0.010 A 
ATOM     12  C12 UNL     1     150.166 143.996 155.555  0.00  0.00    +0.004 A 
ATOM     13  C13 UNL     1     149.537 143.659 156.757  0.00  0.00    -0.050 A 
ATOM     14  C14 UNL     1     149.729 142.301 157.363  0.00  0.00    +0.044 C 
ATOM     15  C15 UNL     1     148.768 144.627 157.411  0.00  0.00    +0.004 A 
ATOM     16  C16 UNL     1     148.611 145.906 156.861  0.00  0.00    +0.010 A 
ENDBRANCH   6  10
BRANCH   1  17
ATOM     17  C6  UNL     1     150.590 153.320 155.177  0.00  0.00    +0.267 C 
BRANCH  17  18
ATOM     18  S1  UNL     1     150.318 153.261 156.917  0.00  0.00    +0.005 S 
ATOM     19  O2  UNL     1     148.924 152.904 157.117  0.00  0.00    -0.169 OA
ATOM     20  O3  UNL     1     151.380 152.505 157.548  0.00  0.00    -0.169 OA
BRANCH  18  24
ATOM     21  C2  UNL     1     150.806 157.615 158.217  0.00  0.00    +0.120 A 
ATOM     22  C3  UNL     1     150.145 157.312 157.024  0.00  0.00    +0.047 A 
ATOM     23  C4  UNL     1     149.993 155.981 156.621  0.00  0.00    +0.030 A 
ATOM     24  C5  UNL     1     150.512 154.956 157.415  0.00  0.00    +0.089 A 
ATOM     25  C18 UNL     1     151.158 155.244 158.618  0.00  0.00    +0.030 A 
ATOM     26  C19 UNL     1     151.307 156.576 159.008  0.00  0.00    +0.047 A 
BRANCH  21  28
ATOM     27  C1  UNL     1     151.004 159.948 157.794  0.00  0.00    +0.277 C 
ATOM     28  O1  UNL     1     151.023 158.867 158.720  0.00  0.00    -0.495 OA
ENDBRANCH  21  28
ENDBRANCH  18  24
ENDBRANCH  17  18
ENDBRANCH   1  17
TORSDOF 5
ENDMDL
MODEL 9
REMARK VINA RESULT:    -7.285      4.850      6.368
REMARK INTER + INTRA:         -10.182
REMARK INTER:                  -9.236
REMARK INTRA:                  -0.946
REMARK UNBOUND:                -0.767
REMARK  Name = /home/vital/Documents/PhD_2021/Malaria_codes/data/pdb_ligands/ligand_475.pdb
REMARK  7 active torsions:
REMARK  status: ('A' for Active; 'I' for Inactive)
REMARK    1  A    between atoms: C1_1  and  O1_2
REMARK    2  A    between atoms: O1_2  and  C2_3
REMARK    3  A    between atoms: C5_6  and  S1_7
REMARK    4  A    between atoms: S1_7  and  C6_10
REMARK    5  A    between atoms: C6_10  and  C7_11
REMARK    6  A    between atoms: C9_16  and  C10_17
REMARK    7  A    between atoms: C13_20  and  C14_21
REMARK                            x       y       z     vdW  Elec       q    Type
REMARK                         _______ _______ _______ _____ _____    ______ ____
ROOT
ATOM      1  C7  UNL     1     151.474 160.444 159.107  0.00  0.00    +0.240 C 
ATOM      2  O4  UNL     1     151.996 161.066 158.184  0.00  0.00    -0.274 OA
ATOM      3  N1  UNL     1     150.984 159.158 159.052  0.00  0.00    -0.263 N 
ATOM      4  C8  UNL     1     150.999 158.309 157.974  0.00  0.00    +0.165 A 
ATOM      5  N2  UNL     1     150.558 157.080 158.084  0.00  0.00    -0.225 NA
ATOM      6  C9  UNL     1     150.671 156.414 156.868  0.00  0.00    +0.080 A 
ATOM      7  C17 UNL     1     151.188 157.190 155.848  0.00  0.00    +0.076 A 
ATOM      8  S2  UNL     1     151.543 158.765 156.429  0.00  0.00    -0.060 S 
ATOM      9  H8  UNL     1     150.659 158.693 159.898  0.00  0.00    +0.157 HD
ENDROOT
BRANCH   6  10
ATOM     10  C10 UNL     1     150.253 155.018 156.734  0.00  0.00    +0.001 A 
ATOM     11  C11 UNL     1     149.929 154.516 155.465  0.00  0.00    +0.010 A 
ATOM     12  C12 UNL     1     149.525 153.188 155.293  0.00  0.00    +0.004 A 
ATOM     13  C13 UNL     1     149.423 152.331 156.392  0.00  0.00    -0.050 A 
ATOM     14  C14 UNL     1     149.020 150.899 156.207  0.00  0.00    +0.044 C 
ATOM     15  C15 UNL     1     149.754 152.819 157.661  0.00  0.00    +0.004 A 
ATOM     16  C16 UNL     1     150.158 154.149 157.831  0.00  0.00    +0.010 A 
ENDBRANCH   6  10
BRANCH   1  17
ATOM     17  C6  UNL     1     151.219 161.153 160.407  0.00  0.00    +0.267 C 
BRANCH  17  18
ATOM     18  S1  UNL     1     151.149 159.998 161.735  0.00  0.00    +0.005 S 
ATOM     19  O2  UNL     1     149.780 159.516 161.807  0.00  0.00    -0.169 OA
ATOM     20  O3  UNL     1     152.260 159.074 161.632  0.00  0.00    -0.169 OA
BRANCH  18  24
ATOM     21  C2  UNL     1     151.892 162.612 165.409  0.00  0.00    +0.120 A 
ATOM     22  C3  UNL     1     152.578 161.404 165.261  0.00  0.00    +0.047 A 
ATOM     23  C4  UNL     1     152.355 160.600 164.137  0.00  0.00    +0.030 A 
ATOM     24  C5  UNL     1     151.436 161.008 163.168  0.00  0.00    +0.089 A 
ATOM     25  C18 UNL     1     150.758 162.221 163.295  0.00  0.00    +0.030 A 
ATOM     26  C19 UNL     1     150.986 163.014 164.422  0.00  0.00    +0.047 A 
BRANCH  21  28
ATOM     27  C1  UNL     1     151.167 163.272 167.576  0.00  0.00    +0.277 C 
ATOM     28  O1  UNL     1     152.016 163.484 166.454  0.00  0.00    -0.495 OA
ENDBRANCH  21  28
ENDBRANCH  18  24
ENDBRANCH  17  18
ENDBRANCH   1  17
TORSDOF 5
ENDMDL
