MODEL 1
REMARK VINA RESULT:    -6.160      0.000      0.000
REMARK INTER + INTRA:          -6.637
REMARK INTER:                  -6.520
REMARK INTRA:                  -0.116
REMARK UNBOUND:                -0.116
REMARK  Name = /home/vital/Documents/PhD_2021/Malaria_codes/data/pdb_ligands_mmv/ligand_7.pdb
REMARK  4 active torsions:
REMARK  status: ('A' for Active; 'I' for Inactive)
REMARK    1  A    between atoms: C1_1  and  C2_2
REMARK    2  A    between atoms: C2_2  and  C3_3
REMARK    3  A    between atoms: C4_4  and  C5_5
REMARK    4  A    between atoms: N2_14  and  C13_15
REMARK                            x       y       z     vdW  Elec       q    Type
REMARK                         _______ _______ _______ _____ _____    ______ ____
ROOT
ATOM      1  C3  UNL     1     151.065 157.910 159.144  0.00  0.00    +0.024 A 
ATOM      2  C4  UNL     1     151.308 159.163 158.690  0.00  0.00    -0.006 A 
ATOM      3  C5  UNL     1     151.342 160.433 159.496  0.00  0.00    +0.048 C 
ATOM      4  C6  UNL     1     151.534 159.355 157.223  0.00  0.00    +0.069 A 
ATOM      5  N1  UNL     1     151.456 160.550 156.716  0.00  0.00    -0.299 NA
ATOM      6  C7  UNL     1     151.846 158.143 156.422  0.00  0.00    +0.023 A 
ATOM      7  C8  UNL     1     152.422 158.261 155.144  0.00  0.00    +0.012 A 
ATOM      8  C9  UNL     1     152.705 157.125 154.390  0.00  0.00    +0.001 A 
ATOM      9  C10 UNL     1     152.426 155.870 154.913  0.00  0.00    +0.002 A 
ATOM     10  C11 UNL     1     151.872 155.751 156.192  0.00  0.00    +0.026 A 
ATOM     11  C12 UNL     1     151.567 156.880 156.980  0.00  0.00    +0.051 A 
ATOM     12  N2  UNL     1     151.032 156.786 158.292  0.00  0.00    -0.346 N 
ATOM     13  C13 UNL     1     150.561 155.461 158.707  0.00  0.00    +0.149 C 
ATOM     14  H9  UNL     1     151.577 160.555 155.705  0.00  0.00    +0.187 HD
ENDROOT
BRANCH   1  16
ATOM     15  C1  UNL     1     152.157 157.424 161.385  0.00  0.00    +0.010 C 
ATOM     16  C2  UNL     1     150.852 157.674 160.637  0.00  0.00    +0.050 C 
ENDBRANCH   1  16
TORSDOF 1
ENDMDL
MODEL 2
REMARK VINA RESULT:    -6.080      0.944      4.338
REMARK INTER + INTRA:          -6.552
REMARK INTER:                  -6.439
REMARK INTRA:                  -0.113
REMARK UNBOUND:                -0.116
REMARK  Name = /home/vital/Documents/PhD_2021/Malaria_codes/data/pdb_ligands_mmv/ligand_7.pdb
REMARK  4 active torsions:
REMARK  status: ('A' for Active; 'I' for Inactive)
REMARK    1  A    between atoms: C1_1  and  C2_2
REMARK    2  A    between atoms: C2_2  and  C3_3
REMARK    3  A    between atoms: C4_4  and  C5_5
REMARK    4  A    between atoms: N2_14  and  C13_15
REMARK                            x       y       z     vdW  Elec       q    Type
REMARK                         _______ _______ _______ _____ _____    ______ ____
ROOT
ATOM      1  C3  UNL     1     151.421 157.060 157.147  0.00  0.00    +0.024 A 
ATOM      2  C4  UNL     1     151.522 158.267 156.541  0.00  0.00    -0.006 A 
ATOM      3  C5  UNL     1     151.669 158.538 155.068  0.00  0.00    +0.048 C 
ATOM      4  C6  UNL     1     151.532 159.494 157.399  0.00  0.00    +0.069 A 
ATOM      5  N1  UNL     1     151.937 160.622 156.895  0.00  0.00    -0.299 NA
ATOM      6  C7  UNL     1     151.062 159.342 158.801  0.00  0.00    +0.023 A 
ATOM      7  C8  UNL     1     150.693 160.471 159.555  0.00  0.00    +0.012 A 
ATOM      8  C9  UNL     1     150.263 160.329 160.872  0.00  0.00    +0.001 A 
ATOM      9  C10 UNL     1     150.188 159.063 161.434  0.00  0.00    +0.002 A 
ATOM     10  C11 UNL     1     150.535 157.938 160.678  0.00  0.00    +0.026 A 
ATOM     11  C12 UNL     1     150.980 158.045 159.345  0.00  0.00    +0.051 A 
ATOM     12  N2  UNL     1     151.311 156.919 158.546  0.00  0.00    -0.346 N 
ATOM     13  C13 UNL     1     151.419 155.635 159.248  0.00  0.00    +0.149 C 
ATOM     14  H9  UNL     1     151.949 161.375 157.582  0.00  0.00    +0.187 HD
ENDROOT
BRANCH   1  16
ATOM     15  C1  UNL     1     149.978 155.432 155.836  0.00  0.00    +0.010 C 
ATOM     16  C2  UNL     1     151.385 155.790 156.301  0.00  0.00    +0.050 C 
ENDBRANCH   1  16
TORSDOF 1
ENDMDL
MODEL 3
REMARK VINA RESULT:    -6.078      1.507      4.940
REMARK INTER + INTRA:          -6.549
REMARK INTER:                  -6.525
REMARK INTRA:                  -0.025
REMARK UNBOUND:                -0.116
REMARK  Name = /home/vital/Documents/PhD_2021/Malaria_codes/data/pdb_ligands_mmv/ligand_7.pdb
REMARK  4 active torsions:
REMARK  status: ('A' for Active; 'I' for Inactive)
REMARK    1  A    between atoms: C1_1  and  C2_2
REMARK    2  A    between atoms: C2_2  and  C3_3
REMARK    3  A    between atoms: C4_4  and  C5_5
REMARK    4  A    between atoms: N2_14  and  C13_15
REMARK                            x       y       z     vdW  Elec       q    Type
REMARK                         _______ _______ _______ _____ _____    ______ ____
ROOT
ATOM      1  C3  UNL     1     151.280 156.953 157.813  0.00  0.00    +0.024 A 
ATOM      2  C4  UNL     1     150.764 156.491 158.977  0.00  0.00    -0.006 A 
ATOM      3  C5  UNL     1     150.526 155.056 159.363  0.00  0.00    +0.048 C 
ATOM      4  C6  UNL     1     150.332 157.488 160.007  0.00  0.00    +0.069 A 
ATOM      5  N1  UNL     1     149.559 157.106 160.980  0.00  0.00    -0.299 NA
ATOM      6  C7  UNL     1     150.832 158.879 159.852  0.00  0.00    +0.023 A 
ATOM      7  C8  UNL     1     150.789 159.777 160.935  0.00  0.00    +0.012 A 
ATOM      8  C9  UNL     1     151.247 161.083 160.786  0.00  0.00    +0.001 A 
ATOM      9  C10 UNL     1     151.759 161.493 159.564  0.00  0.00    +0.002 A 
ATOM     10  C11 UNL     1     151.821 160.595 158.493  0.00  0.00    +0.026 A 
ATOM     11  C12 UNL     1     151.360 159.268 158.606  0.00  0.00    +0.051 A 
ATOM     12  N2  UNL     1     151.437 158.328 157.544  0.00  0.00    -0.346 N 
ATOM     13  C13 UNL     1     151.784 158.867 156.225  0.00  0.00    +0.149 C 
ATOM     14  H9  UNL     1     149.290 157.876 161.591  0.00  0.00    +0.187 HD
ENDROOT
BRANCH   1  16
ATOM     15  C1  UNL     1     150.654 155.604 155.753  0.00  0.00    +0.010 C 
ATOM     16  C2  UNL     1     151.750 155.963 156.750  0.00  0.00    +0.050 C 
ENDBRANCH   1  16
TORSDOF 1
ENDMDL
MODEL 4
REMARK VINA RESULT:    -6.003      1.333      3.046
REMARK INTER + INTRA:          -6.470
REMARK INTER:                  -6.431
REMARK INTRA:                  -0.039
REMARK UNBOUND:                -0.116
REMARK  Name = /home/vital/Documents/PhD_2021/Malaria_codes/data/pdb_ligands_mmv/ligand_7.pdb
REMARK  4 active torsions:
REMARK  status: ('A' for Active; 'I' for Inactive)
REMARK    1  A    between atoms: C1_1  and  C2_2
REMARK    2  A    between atoms: C2_2  and  C3_3
REMARK    3  A    between atoms: C4_4  and  C5_5
REMARK    4  A    between atoms: N2_14  and  C13_15
REMARK                            x       y       z     vdW  Elec       q    Type
REMARK                         _______ _______ _______ _____ _____    ______ ____
ROOT
ATOM      1  C3  UNL     1     150.667 158.267 159.291  0.00  0.00    +0.024 A 
ATOM      2  C4  UNL     1     150.740 156.933 159.513  0.00  0.00    -0.006 A 
ATOM      3  C5  UNL     1     150.284 156.187 160.738  0.00  0.00    +0.048 C 
ATOM      4  C6  UNL     1     151.376 156.073 158.466  0.00  0.00    +0.069 A 
ATOM      5  N1  UNL     1     151.744 154.863 158.771  0.00  0.00    -0.299 NA
ATOM      6  C7  UNL     1     151.543 156.666 157.114  0.00  0.00    +0.023 A 
ATOM      7  C8  UNL     1     151.781 155.842 155.998  0.00  0.00    +0.012 A 
ATOM      8  C9  UNL     1     151.948 156.400 154.733  0.00  0.00    +0.001 A 
ATOM      9  C10 UNL     1     151.866 157.775 154.576  0.00  0.00    +0.002 A 
ATOM     10  C11 UNL     1     151.609 158.593 155.681  0.00  0.00    +0.026 A 
ATOM     11  C12 UNL     1     151.441 158.064 156.977  0.00  0.00    +0.051 A 
ATOM     12  N2  UNL     1     151.150 158.868 158.111  0.00  0.00    -0.346 N 
ATOM     13  C13 UNL     1     151.286 160.317 157.929  0.00  0.00    +0.149 C 
ATOM     14  H9  UNL     1     152.209 154.390 157.998  0.00  0.00    +0.187 HD
ENDROOT
BRANCH   1  16
ATOM     15  C1  UNL     1     150.970 159.622 161.418  0.00  0.00    +0.010 C 
ATOM     16  C2  UNL     1     150.005 159.171 160.328  0.00  0.00    +0.050 C 
ENDBRANCH   1  16
TORSDOF 1
ENDMDL
MODEL 5
REMARK VINA RESULT:    -5.958      1.761      4.046
REMARK INTER + INTRA:          -6.423
REMARK INTER:                  -6.396
REMARK INTRA:                  -0.027
REMARK UNBOUND:                -0.116
REMARK  Name = /home/vital/Documents/PhD_2021/Malaria_codes/data/pdb_ligands_mmv/ligand_7.pdb
REMARK  4 active torsions:
REMARK  status: ('A' for Active; 'I' for Inactive)
REMARK    1  A    between atoms: C1_1  and  C2_2
REMARK    2  A    between atoms: C2_2  and  C3_3
REMARK    3  A    between atoms: C4_4  and  C5_5
REMARK    4  A    between atoms: N2_14  and  C13_15
REMARK                            x       y       z     vdW  Elec       q    Type
REMARK                         _______ _______ _______ _____ _____    ______ ____
ROOT
ATOM      1  C3  UNL     1     150.957 156.560 159.130  0.00  0.00    +0.024 A 
ATOM      2  C4  UNL     1     150.845 156.817 157.805  0.00  0.00    -0.006 A 
ATOM      3  C5  UNL     1     150.340 155.886 156.735  0.00  0.00    +0.048 C 
ATOM      4  C6  UNL     1     151.299 158.151 157.300  0.00  0.00    +0.069 A 
ATOM      5  N1  UNL     1     151.500 158.316 156.026  0.00  0.00    -0.299 NA
ATOM      6  C7  UNL     1     151.490 159.226 158.308  0.00  0.00    +0.023 A 
ATOM      7  C8  UNL     1     151.554 160.574 157.909  0.00  0.00    +0.012 A 
ATOM      8  C9  UNL     1     151.743 161.580 158.853  0.00  0.00    +0.001 A 
ATOM      9  C10 UNL     1     151.856 161.247 160.195  0.00  0.00    +0.002 A 
ATOM     10  C11 UNL     1     151.772 159.909 160.594  0.00  0.00    +0.026 A 
ATOM     11  C12 UNL     1     151.587 158.864 159.665  0.00  0.00    +0.051 A 
ATOM     12  N2  UNL     1     151.469 157.501 160.046  0.00  0.00    -0.346 N 
ATOM     13  C13 UNL     1     151.807 157.185 161.438  0.00  0.00    +0.149 C 
ATOM     14  H9  UNL     1     151.855 159.246 155.803  0.00  0.00    +0.187 HD
ENDROOT
BRANCH   1  16
ATOM     15  C1  UNL     1     151.582 154.162 159.690  0.00  0.00    +0.010 C 
ATOM     16  C2  UNL     1     150.482 155.218 159.682  0.00  0.00    +0.050 C 
ENDBRANCH   1  16
TORSDOF 1
ENDMDL
MODEL 6
REMARK VINA RESULT:    -5.955      1.671      4.439
REMARK INTER + INTRA:          -6.419
REMARK INTER:                  -6.314
REMARK INTRA:                  -0.106
REMARK UNBOUND:                -0.116
REMARK  Name = /home/vital/Documents/PhD_2021/Malaria_codes/data/pdb_ligands_mmv/ligand_7.pdb
REMARK  4 active torsions:
REMARK  status: ('A' for Active; 'I' for Inactive)
REMARK    1  A    between atoms: C1_1  and  C2_2
REMARK    2  A    between atoms: C2_2  and  C3_3
REMARK    3  A    between atoms: C4_4  and  C5_5
REMARK    4  A    between atoms: N2_14  and  C13_15
REMARK                            x       y       z     vdW  Elec       q    Type
REMARK                         _______ _______ _______ _____ _____    ______ ____
ROOT
ATOM      1  C3  UNL     1     150.912 158.590 157.944  0.00  0.00    +0.024 A 
ATOM      2  C4  UNL     1     151.564 157.715 157.141  0.00  0.00    -0.006 A 
ATOM      3  C5  UNL     1     152.300 158.023 155.866  0.00  0.00    +0.048 C 
ATOM      4  C6  UNL     1     151.540 156.263 157.506  0.00  0.00    +0.069 A 
ATOM      5  N1  UNL     1     151.874 155.376 156.617  0.00  0.00    -0.299 NA
ATOM      6  C7  UNL     1     151.135 155.922 158.895  0.00  0.00    +0.023 A 
ATOM      7  C8  UNL     1     151.427 154.655 159.432  0.00  0.00    +0.012 A 
ATOM      8  C9  UNL     1     151.037 154.333 160.730  0.00  0.00    +0.001 A 
ATOM      9  C10 UNL     1     150.367 155.275 161.497  0.00  0.00    +0.002 A 
ATOM     10  C11 UNL     1     150.094 156.542 160.970  0.00  0.00    +0.026 A 
ATOM     11  C12 UNL     1     150.468 156.900 159.659  0.00  0.00    +0.051 A 
ATOM     12  N2  UNL     1     150.229 158.188 159.110  0.00  0.00    -0.346 N 
ATOM     13  C13 UNL     1     149.337 159.064 159.877  0.00  0.00    +0.149 C 
ATOM     14  H9  UNL     1     151.773 154.421 156.960  0.00  0.00    +0.187 HD
ENDROOT
BRANCH   1  16
ATOM     15  C1  UNL     1     152.051 160.826 158.335  0.00  0.00    +0.010 C 
ATOM     16  C2  UNL     1     150.935 160.080 157.613  0.00  0.00    +0.050 C 
ENDBRANCH   1  16
TORSDOF 1
ENDMDL
MODEL 7
REMARK VINA RESULT:    -5.916      1.566      4.217
REMARK INTER + INTRA:          -6.378
REMARK INTER:                  -6.356
REMARK INTRA:                  -0.022
REMARK UNBOUND:                -0.116
REMARK  Name = /home/vital/Documents/PhD_2021/Malaria_codes/data/pdb_ligands_mmv/ligand_7.pdb
REMARK  4 active torsions:
REMARK  status: ('A' for Active; 'I' for Inactive)
REMARK    1  A    between atoms: C1_1  and  C2_2
REMARK    2  A    between atoms: C2_2  and  C3_3
REMARK    3  A    between atoms: C4_4  and  C5_5
REMARK    4  A    between atoms: N2_14  and  C13_15
REMARK                            x       y       z     vdW  Elec       q    Type
REMARK                         _______ _______ _______ _____ _____    ______ ____
ROOT
ATOM      1  C3  UNL     1     151.282 158.020 157.407  0.00  0.00    +0.024 A 
ATOM      2  C4  UNL     1     151.491 158.986 158.333  0.00  0.00    -0.006 A 
ATOM      3  C5  UNL     1     151.389 160.474 158.137  0.00  0.00    +0.048 C 
ATOM      4  C6  UNL     1     151.911 158.571 159.709  0.00  0.00    +0.069 A 
ATOM      5  N1  UNL     1     152.416 159.456 160.516  0.00  0.00    -0.299 NA
ATOM      6  C7  UNL     1     151.711 157.145 160.075  0.00  0.00    +0.023 A 
ATOM      7  C8  UNL     1     151.726 156.746 161.424  0.00  0.00    +0.012 A 
ATOM      8  C9  UNL     1     151.550 155.407 161.766  0.00  0.00    +0.001 A 
ATOM      9  C10 UNL     1     151.346 154.467 160.766  0.00  0.00    +0.002 A 
ATOM     10  C11 UNL     1     151.310 154.866 159.426  0.00  0.00    +0.026 A 
ATOM     11  C12 UNL     1     151.491 156.211 159.044  0.00  0.00    +0.051 A 
ATOM     12  N2  UNL     1     151.430 156.647 157.693  0.00  0.00    -0.346 N 
ATOM     13  C13 UNL     1     151.427 155.595 156.672  0.00  0.00    +0.149 C 
ATOM     14  H9  UNL     1     152.711 159.052 161.404  0.00  0.00    +0.187 HD
ENDROOT
BRANCH   1  16
ATOM     15  C1  UNL     1     152.001 158.611 155.043  0.00  0.00    +0.010 C 
ATOM     16  C2  UNL     1     150.832 158.407 156.000  0.00  0.00    +0.050 C 
ENDBRANCH   1  16
TORSDOF 1
ENDMDL
MODEL 8
REMARK VINA RESULT:    -5.897      1.407      1.896
REMARK INTER + INTRA:          -6.358
REMARK INTER:                  -6.339
REMARK INTRA:                  -0.019
REMARK UNBOUND:                -0.116
REMARK  Name = /home/vital/Documents/PhD_2021/Malaria_codes/data/pdb_ligands_mmv/ligand_7.pdb
REMARK  4 active torsions:
REMARK  status: ('A' for Active; 'I' for Inactive)
REMARK    1  A    between atoms: C1_1  and  C2_2
REMARK    2  A    between atoms: C2_2  and  C3_3
REMARK    3  A    between atoms: C4_4  and  C5_5
REMARK    4  A    between atoms: N2_14  and  C13_15
REMARK                            x       y       z     vdW  Elec       q    Type
REMARK                         _______ _______ _______ _____ _____    ______ ____
ROOT
ATOM      1  C3  UNL     1     151.194 159.195 160.169  0.00  0.00    +0.024 A 
ATOM      2  C4  UNL     1     151.577 160.180 159.321  0.00  0.00    -0.006 A 
ATOM      3  C5  UNL     1     152.130 161.531 159.684  0.00  0.00    +0.048 C 
ATOM      4  C6  UNL     1     151.411 159.955 157.851  0.00  0.00    +0.069 A 
ATOM      5  N1  UNL     1     151.467 160.969 157.039  0.00  0.00    -0.299 NA
ATOM      6  C7  UNL     1     151.195 158.555 157.402  0.00  0.00    +0.023 A 
ATOM      7  C8  UNL     1     151.391 158.199 156.055  0.00  0.00    +0.012 A 
ATOM      8  C9  UNL     1     151.178 156.889 155.633  0.00  0.00    +0.001 A 
ATOM      9  C10 UNL     1     150.781 155.930 156.553  0.00  0.00    +0.002 A 
ATOM     10  C11 UNL     1     150.605 156.278 157.896  0.00  0.00    +0.026 A 
ATOM     11  C12 UNL     1     150.806 157.595 158.357  0.00  0.00    +0.051 A 
ATOM     12  N2  UNL     1     150.662 157.969 159.720  0.00  0.00    -0.346 N 
ATOM     13  C13 UNL     1     150.040 156.977 160.603  0.00  0.00    +0.149 C 
ATOM     14  H9  UNL     1     151.291 160.705 156.071  0.00  0.00    +0.187 HD
ENDROOT
BRANCH   1  16
ATOM     15  C1  UNL     1     150.258 160.218 162.298  0.00  0.00    +0.010 C 
ATOM     16  C2  UNL     1     151.371 159.383 161.674  0.00  0.00    +0.050 C 
ENDBRANCH   1  16
TORSDOF 1
ENDMDL
MODEL 9
REMARK VINA RESULT:    -5.727      1.517      3.339
REMARK INTER + INTRA:          -6.178
REMARK INTER:                  -6.074
REMARK INTRA:                  -0.104
REMARK UNBOUND:                -0.116
REMARK  Name = /home/vital/Documents/PhD_2021/Malaria_codes/data/pdb_ligands_mmv/ligand_7.pdb
REMARK  4 active torsions:
REMARK  status: ('A' for Active; 'I' for Inactive)
REMARK    1  A    between atoms: C1_1  and  C2_2
REMARK    2  A    between atoms: C2_2  and  C3_3
REMARK    3  A    between atoms: C4_4  and  C5_5
REMARK    4  A    between atoms: N2_14  and  C13_15
REMARK                            x       y       z     vdW  Elec       q    Type
REMARK                         _______ _______ _______ _____ _____    ______ ____
ROOT
ATOM      1  C3  UNL     1     151.309 158.867 160.024  0.00  0.00    +0.024 A 
ATOM      2  C4  UNL     1     151.113 157.603 160.470  0.00  0.00    -0.006 A 
ATOM      3  C5  UNL     1     150.798 157.171 161.877  0.00  0.00    +0.048 C 
ATOM      4  C6  UNL     1     151.258 156.476 159.495  0.00  0.00    +0.069 A 
ATOM      5  N1  UNL     1     151.389 155.261 159.939  0.00  0.00    -0.299 NA
ATOM      6  C7  UNL     1     151.233 156.824 158.051  0.00  0.00    +0.023 A 
ATOM      7  C8  UNL     1     150.996 155.832 157.082  0.00  0.00    +0.012 A 
ATOM      8  C9  UNL     1     150.984 156.158 155.728  0.00  0.00    +0.001 A 
ATOM      9  C10 UNL     1     151.196 157.472 155.338  0.00  0.00    +0.002 A 
ATOM     10  C11 UNL     1     151.412 158.463 156.302  0.00  0.00    +0.026 A 
ATOM     11  C12 UNL     1     151.438 158.168 157.681  0.00  0.00    +0.051 A 
ATOM     12  N2  UNL     1     151.626 159.159 158.682  0.00  0.00    -0.346 N 
ATOM     13  C13 UNL     1     152.055 160.480 158.213  0.00  0.00    +0.149 C 
ATOM     14  H9  UNL     1     151.529 154.584 159.190  0.00  0.00    +0.187 HD
ENDROOT
BRANCH   1  16
ATOM     15  C1  UNL     1     149.700 160.501 161.117  0.00  0.00    +0.010 C 
ATOM     16  C2  UNL     1     151.148 160.041 160.986  0.00  0.00    +0.050 C 
ENDBRANCH   1  16
TORSDOF 1
ENDMDL
