MODEL 1
REMARK VINA RESULT:    -6.602      0.000      0.000
REMARK INTER + INTRA:          -8.832
REMARK INTER:                  -8.532
REMARK INTRA:                  -0.301
REMARK UNBOUND:                -0.301
REMARK  Name = /home/vital/Documents/PhD_2021/Malaria_codes/data/pdb_ligands_mmv/ligand_28.pdb
REMARK  6 active torsions:
REMARK  status: ('A' for Active; 'I' for Inactive)
REMARK    1  A    between atoms: C1_1  and  N1_2
REMARK    2  A    between atoms: N1_2  and  C2_3
REMARK    3  A    between atoms: C2_3  and  C3_4
REMARK    4  A    between atoms: C3_4  and  C4_5
REMARK    5  A    between atoms: C4_5  and  N2_6
REMARK    6  A    between atoms: N2_6  and  C5_7
REMARK                            x       y       z     vdW  Elec       q    Type
REMARK                         _______ _______ _______ _____ _____    ______ ____
ROOT
ATOM      1  C5  UNL     1     151.329 158.091 156.156  0.00  0.00    +0.038 A 
ATOM      2  C6  UNL     1     150.777 157.210 157.088  0.00  0.00    +0.043 A 
ATOM      3  C7  UNL     1     150.783 155.853 156.826  0.00  0.00    +0.113 A 
ATOM      4  N3  UNL     1     151.316 155.304 155.721  0.00  0.00    -0.255 NA
ATOM      5  C8  UNL     1     151.905 156.122 154.839  0.00  0.00    +0.074 A 
ATOM      6  C9  UNL     1     152.487 155.540 153.723  0.00  0.00    +0.048 A 
ATOM      7  C10 UNL     1     153.141 156.305 152.765  0.00  0.00    +0.043 A 
ATOM      8 CL1  UNL     1     153.853 155.544 151.396  0.00  0.00    -0.083 Cl
ATOM      9  C11 UNL     1     153.231 157.680 152.912  0.00  0.00    +0.021 A 
ATOM     10  C12 UNL     1     152.649 158.287 154.025  0.00  0.00    +0.013 A 
ATOM     11  C13 UNL     1     151.962 157.529 155.007  0.00  0.00    +0.021 A 
ENDROOT
BRANCH   1  12
ATOM     12  N2  UNL     1     151.376 159.476 156.387  0.00  0.00    -0.343 N 
ATOM     13  H11 UNL     1     150.459 159.910 156.350  0.00  0.00    +0.146 HD
BRANCH  12  14
ATOM     14  C4  UNL     1     152.245 160.089 157.389  0.00  0.00    +0.103 C 
BRANCH  14  15
ATOM     15  C3  UNL     1     151.469 160.718 158.549  0.00  0.00    +0.034 C 
BRANCH  15  16
ATOM     16  C2  UNL     1     151.754 162.217 158.696  0.00  0.00    +0.082 C 
BRANCH  16  18
ATOM     17  C1  UNL     1     152.227 161.734 161.038  0.00  0.00    +0.101 C 
ATOM     18  N1  UNL     1     152.550 162.550 159.878  0.00  0.00    -0.319 NA
ATOM     19  H4  UNL     1     152.436 163.537 160.109  0.00  0.00    +0.122 HD
ENDBRANCH  16  18
ENDBRANCH  15  16
ENDBRANCH  14  15
ENDBRANCH  12  14
ENDBRANCH   1  12
TORSDOF 5
ENDMDL
MODEL 2
REMARK VINA RESULT:    -6.399      1.053      1.486
REMARK INTER + INTRA:          -8.571
REMARK INTER:                  -8.031
REMARK INTRA:                  -0.540
REMARK UNBOUND:                -0.301
REMARK  Name = /home/vital/Documents/PhD_2021/Malaria_codes/data/pdb_ligands_mmv/ligand_28.pdb
REMARK  6 active torsions:
REMARK  status: ('A' for Active; 'I' for Inactive)
REMARK    1  A    between atoms: C1_1  and  N1_2
REMARK    2  A    between atoms: N1_2  and  C2_3
REMARK    3  A    between atoms: C2_3  and  C3_4
REMARK    4  A    between atoms: C3_4  and  C4_5
REMARK    5  A    between atoms: C4_5  and  N2_6
REMARK    6  A    between atoms: N2_6  and  C5_7
REMARK                            x       y       z     vdW  Elec       q    Type
REMARK                         _______ _______ _______ _____ _____    ______ ____
ROOT
ATOM      1  C5  UNL     1     151.416 157.954 156.496  0.00  0.00    +0.038 A 
ATOM      2  C6  UNL     1     150.959 157.052 157.459  0.00  0.00    +0.043 A 
ATOM      3  C7  UNL     1     150.934 155.701 157.167  0.00  0.00    +0.113 A 
ATOM      4  N3  UNL     1     151.351 155.177 156.002  0.00  0.00    -0.255 NA
ATOM      5  C8  UNL     1     151.850 156.014 155.084  0.00  0.00    +0.074 A 
ATOM      6  C9  UNL     1     152.314 155.456 153.902  0.00  0.00    +0.048 A 
ATOM      7  C10 UNL     1     152.871 156.243 152.899  0.00  0.00    +0.043 A 
ATOM      8 CL1  UNL     1     153.438 155.512 151.449  0.00  0.00    -0.083 Cl
ATOM      9  C11 UNL     1     152.980 157.614 153.068  0.00  0.00    +0.021 A 
ATOM     10  C12 UNL     1     152.515 158.196 154.247  0.00  0.00    +0.013 A 
ATOM     11  C13 UNL     1     151.929 157.416 155.277  0.00  0.00    +0.021 A 
ENDROOT
BRANCH   1  12
ATOM     12  N2  UNL     1     151.492 159.333 156.752  0.00  0.00    -0.343 N 
ATOM     13  H11 UNL     1     150.589 159.792 156.688  0.00  0.00    +0.146 HD
BRANCH  12  14
ATOM     14  C4  UNL     1     152.338 159.906 157.796  0.00  0.00    +0.103 C 
BRANCH  14  15
ATOM     15  C3  UNL     1     151.579 160.858 158.725  0.00  0.00    +0.034 C 
BRANCH  15  16
ATOM     16  C2  UNL     1     151.619 162.308 158.232  0.00  0.00    +0.082 C 
BRANCH  16  18
ATOM     17  C1  UNL     1     152.576 163.541 156.359  0.00  0.00    +0.101 C 
ATOM     18  N1  UNL     1     151.734 162.431 156.777  0.00  0.00    -0.319 NA
ATOM     19  H4  UNL     1     150.808 162.525 156.361  0.00  0.00    +0.122 HD
ENDBRANCH  16  18
ENDBRANCH  15  16
ENDBRANCH  14  15
ENDBRANCH  12  14
ENDBRANCH   1  12
TORSDOF 5
ENDMDL
MODEL 3
REMARK VINA RESULT:    -6.167      2.613      4.167
REMARK INTER + INTRA:          -8.270
REMARK INTER:                  -7.564
REMARK INTRA:                  -0.706
REMARK UNBOUND:                -0.301
REMARK  Name = /home/vital/Documents/PhD_2021/Malaria_codes/data/pdb_ligands_mmv/ligand_28.pdb
REMARK  6 active torsions:
REMARK  status: ('A' for Active; 'I' for Inactive)
REMARK    1  A    between atoms: C1_1  and  N1_2
REMARK    2  A    between atoms: N1_2  and  C2_3
REMARK    3  A    between atoms: C2_3  and  C3_4
REMARK    4  A    between atoms: C3_4  and  C4_5
REMARK    5  A    between atoms: C4_5  and  N2_6
REMARK    6  A    between atoms: N2_6  and  C5_7
REMARK                            x       y       z     vdW  Elec       q    Type
REMARK                         _______ _______ _______ _____ _____    ______ ____
ROOT
ATOM      1  C5  UNL     1     151.124 156.721 157.637  0.00  0.00    +0.038 A 
ATOM      2  C6  UNL     1     151.037 157.979 158.237  0.00  0.00    +0.043 A 
ATOM      3  C7  UNL     1     151.462 159.094 157.540  0.00  0.00    +0.113 A 
ATOM      4  N3  UNL     1     151.944 159.057 156.285  0.00  0.00    -0.255 NA
ATOM      5  C8  UNL     1     151.982 157.871 155.666  0.00  0.00    +0.074 A 
ATOM      6  C9  UNL     1     152.443 157.852 154.358  0.00  0.00    +0.048 A 
ATOM      7  C10 UNL     1     152.496 156.672 153.626  0.00  0.00    +0.043 A 
ATOM      8 CL1  UNL     1     153.071 156.692 152.005  0.00  0.00    -0.083 Cl
ATOM      9  C11 UNL     1     152.079 155.478 154.194  0.00  0.00    +0.021 A 
ATOM     10  C12 UNL     1     151.616 155.474 155.509  0.00  0.00    +0.013 A 
ATOM     11  C13 UNL     1     151.567 156.663 156.281  0.00  0.00    +0.021 A 
ENDROOT
BRANCH   1  12
ATOM     12  N2  UNL     1     150.677 155.559 158.289  0.00  0.00    -0.343 N 
ATOM     13  H11 UNL     1     149.988 155.048 157.747  0.00  0.00    +0.146 HD
BRANCH  12  14
ATOM     14  C4  UNL     1     151.563 154.676 159.044  0.00  0.00    +0.103 C 
BRANCH  14  15
ATOM     15  C3  UNL     1     151.257 154.663 160.544  0.00  0.00    +0.034 C 
BRANCH  15  16
ATOM     16  C2  UNL     1     149.785 154.966 160.841  0.00  0.00    +0.082 C 
BRANCH  16  18
ATOM     17  C1  UNL     1     150.562 157.025 161.889  0.00  0.00    +0.101 C 
ATOM     18  N1  UNL     1     149.518 156.380 161.107  0.00  0.00    -0.319 NA
ATOM     19  H4  UNL     1     148.620 156.483 161.580  0.00  0.00    +0.122 HD
ENDBRANCH  16  18
ENDBRANCH  15  16
ENDBRANCH  14  15
ENDBRANCH  12  14
ENDBRANCH   1  12
TORSDOF 5
ENDMDL
MODEL 4
REMARK VINA RESULT:    -6.156      1.127      1.232
REMARK INTER + INTRA:          -8.256
REMARK INTER:                  -8.009
REMARK INTRA:                  -0.247
REMARK UNBOUND:                -0.301
REMARK  Name = /home/vital/Documents/PhD_2021/Malaria_codes/data/pdb_ligands_mmv/ligand_28.pdb
REMARK  6 active torsions:
REMARK  status: ('A' for Active; 'I' for Inactive)
REMARK    1  A    between atoms: C1_1  and  N1_2
REMARK    2  A    between atoms: N1_2  and  C2_3
REMARK    3  A    between atoms: C2_3  and  C3_4
REMARK    4  A    between atoms: C3_4  and  C4_5
REMARK    5  A    between atoms: C4_5  and  N2_6
REMARK    6  A    between atoms: N2_6  and  C5_7
REMARK                            x       y       z     vdW  Elec       q    Type
REMARK                         _______ _______ _______ _____ _____    ______ ____
ROOT
ATOM      1  C5  UNL     1     150.811 158.199 157.061  0.00  0.00    +0.038 A 
ATOM      2  C6  UNL     1     150.529 157.303 158.094  0.00  0.00    +0.043 A 
ATOM      3  C7  UNL     1     150.908 155.980 157.969  0.00  0.00    +0.113 A 
ATOM      4  N3  UNL     1     151.568 155.485 156.907  0.00  0.00    -0.255 NA
ATOM      5  C8  UNL     1     151.904 156.336 155.930  0.00  0.00    +0.074 A 
ATOM      6  C9  UNL     1     152.619 155.821 154.859  0.00  0.00    +0.048 A 
ATOM      7  C10 UNL     1     153.033 156.632 153.808  0.00  0.00    +0.043 A 
ATOM      8 CL1  UNL     1     153.922 155.955 152.500  0.00  0.00    -0.083 Cl
ATOM      9  C11 UNL     1     152.740 157.986 153.814  0.00  0.00    +0.021 A 
ATOM     10  C12 UNL     1     152.018 158.524 154.879  0.00  0.00    +0.013 A 
ATOM     11  C13 UNL     1     151.571 157.714 155.954  0.00  0.00    +0.021 A 
ENDROOT
BRANCH   1  12
ATOM     12  N2  UNL     1     150.476 159.560 157.151  0.00  0.00    -0.343 N 
ATOM     13  H11 UNL     1     149.493 159.706 157.359  0.00  0.00    +0.146 HD
BRANCH  12  14
ATOM     14  C4  UNL     1     151.337 160.555 157.785  0.00  0.00    +0.103 C 
BRANCH  14  15
ATOM     15  C3  UNL     1     151.177 160.600 159.308  0.00  0.00    +0.034 C 
BRANCH  15  16
ATOM     16  C2  UNL     1     152.043 161.687 159.952  0.00  0.00    +0.082 C 
BRANCH  16  18
ATOM     17  C1  UNL     1     150.592 161.311 161.875  0.00  0.00    +0.101 C 
ATOM     18  N1  UNL     1     151.888 161.778 161.405  0.00  0.00    -0.319 NA
ATOM     19  H4  UNL     1     152.039 162.738 161.713  0.00  0.00    +0.122 HD
ENDBRANCH  16  18
ENDBRANCH  15  16
ENDBRANCH  14  15
ENDBRANCH  12  14
ENDBRANCH   1  12
TORSDOF 5
ENDMDL
MODEL 5
REMARK VINA RESULT:    -6.144      3.308      6.482
REMARK INTER + INTRA:          -8.240
REMARK INTER:                  -7.703
REMARK INTRA:                  -0.537
REMARK UNBOUND:                -0.301
REMARK  Name = /home/vital/Documents/PhD_2021/Malaria_codes/data/pdb_ligands_mmv/ligand_28.pdb
REMARK  6 active torsions:
REMARK  status: ('A' for Active; 'I' for Inactive)
REMARK    1  A    between atoms: C1_1  and  N1_2
REMARK    2  A    between atoms: N1_2  and  C2_3
REMARK    3  A    between atoms: C2_3  and  C3_4
REMARK    4  A    between atoms: C3_4  and  C4_5
REMARK    5  A    between atoms: C4_5  and  N2_6
REMARK    6  A    between atoms: N2_6  and  C5_7
REMARK                            x       y       z     vdW  Elec       q    Type
REMARK                         _______ _______ _______ _____ _____    ______ ____
ROOT
ATOM      1  C5  UNL     1     151.103 158.622 157.250  0.00  0.00    +0.038 A 
ATOM      2  C6  UNL     1     151.519 159.938 157.464  0.00  0.00    +0.043 A 
ATOM      3  C7  UNL     1     151.940 160.321 158.723  0.00  0.00    +0.113 A 
ATOM      4  N3  UNL     1     152.001 159.492 159.779  0.00  0.00    -0.255 NA
ATOM      5  C8  UNL     1     151.665 158.210 159.587  0.00  0.00    +0.074 A 
ATOM      6  C9  UNL     1     151.771 157.356 160.674  0.00  0.00    +0.048 A 
ATOM      7  C10 UNL     1     151.467 156.003 160.565  0.00  0.00    +0.043 A 
ATOM      8 CL1  UNL     1     151.615 154.976 161.937  0.00  0.00    -0.083 Cl
ATOM      9  C11 UNL     1     151.052 155.477 159.352  0.00  0.00    +0.021 A 
ATOM     10  C12 UNL     1     150.934 156.319 158.247  0.00  0.00    +0.013 A 
ATOM     11  C13 UNL     1     151.224 157.705 158.338  0.00  0.00    +0.021 A 
ENDROOT
BRANCH   1  12
ATOM     12  N2  UNL     1     150.695 158.173 155.983  0.00  0.00    -0.343 N 
ATOM     13  H11 UNL     1     149.745 158.450 155.758  0.00  0.00    +0.146 HD
BRANCH  12  14
ATOM     14  C4  UNL     1     151.572 158.177 154.815  0.00  0.00    +0.103 C 
BRANCH  14  15
ATOM     15  C3  UNL     1     152.721 157.170 154.926  0.00  0.00    +0.034 C 
BRANCH  15  16
ATOM     16  C2  UNL     1     152.247 155.724 154.748  0.00  0.00    +0.082 C 
BRANCH  16  18
ATOM     17  C1  UNL     1     153.732 155.762 152.815  0.00  0.00    +0.101 C 
ATOM     18  N1  UNL     1     153.070 154.945 153.821  0.00  0.00    -0.319 NA
ATOM     19  H4  UNL     1     152.503 154.231 153.366  0.00  0.00    +0.122 HD
ENDBRANCH  16  18
ENDBRANCH  15  16
ENDBRANCH  14  15
ENDBRANCH  12  14
ENDBRANCH   1  12
TORSDOF 5
ENDMDL
MODEL 6
REMARK VINA RESULT:    -6.066      1.716      2.505
REMARK INTER + INTRA:          -8.140
REMARK INTER:                  -7.406
REMARK INTRA:                  -0.735
REMARK UNBOUND:                -0.301
REMARK  Name = /home/vital/Documents/PhD_2021/Malaria_codes/data/pdb_ligands_mmv/ligand_28.pdb
REMARK  6 active torsions:
REMARK  status: ('A' for Active; 'I' for Inactive)
REMARK    1  A    between atoms: C1_1  and  N1_2
REMARK    2  A    between atoms: N1_2  and  C2_3
REMARK    3  A    between atoms: C2_3  and  C3_4
REMARK    4  A    between atoms: C3_4  and  C4_5
REMARK    5  A    between atoms: C4_5  and  N2_6
REMARK    6  A    between atoms: N2_6  and  C5_7
REMARK                            x       y       z     vdW  Elec       q    Type
REMARK                         _______ _______ _______ _____ _____    ______ ____
ROOT
ATOM      1  C5  UNL     1     150.489 157.867 158.554  0.00  0.00    +0.038 A 
ATOM      2  C6  UNL     1     150.536 156.799 159.452  0.00  0.00    +0.043 A 
ATOM      3  C7  UNL     1     151.016 155.575 159.027  0.00  0.00    +0.113 A 
ATOM      4  N3  UNL     1     151.475 155.338 157.786  0.00  0.00    -0.255 NA
ATOM      5  C8  UNL     1     151.497 156.361 156.923  0.00  0.00    +0.074 A 
ATOM      6  C9  UNL     1     152.011 156.114 155.659  0.00  0.00    +0.048 A 
ATOM      7  C10 UNL     1     152.096 157.119 154.702  0.00  0.00    +0.043 A 
ATOM      8 CL1  UNL     1     152.743 156.772 153.146  0.00  0.00    -0.083 Cl
ATOM      9  C11 UNL     1     151.670 158.404 155.000  0.00  0.00    +0.021 A 
ATOM     10  C12 UNL     1     151.146 158.673 156.264  0.00  0.00    +0.013 A 
ATOM     11  C13 UNL     1     151.034 157.660 157.250  0.00  0.00    +0.021 A 
ENDROOT
BRANCH   1  12
ATOM     12  N2  UNL     1     150.039 159.140 158.942  0.00  0.00    -0.343 N 
ATOM     13  H11 UNL     1     149.200 159.425 158.446  0.00  0.00    +0.146 HD
BRANCH  12  14
ATOM     14  C4  UNL     1     150.056 159.604 160.327  0.00  0.00    +0.103 C 
BRANCH  14  15
ATOM     15  C3  UNL     1     151.435 160.100 160.773  0.00  0.00    +0.034 C 
BRANCH  15  16
ATOM     16  C2  UNL     1     151.826 161.419 160.099  0.00  0.00    +0.082 C 
BRANCH  16  18
ATOM     17  C1  UNL     1     151.653 162.085 157.760  0.00  0.00    +0.101 C 
ATOM     18  N1  UNL     1     152.339 161.253 158.737  0.00  0.00    -0.319 NA
ATOM     19  H4  UNL     1     152.278 160.274 158.458  0.00  0.00    +0.122 HD
ENDBRANCH  16  18
ENDBRANCH  15  16
ENDBRANCH  14  15
ENDBRANCH  12  14
ENDBRANCH   1  12
TORSDOF 5
ENDMDL
MODEL 7
REMARK VINA RESULT:    -6.060      2.820      4.870
REMARK INTER + INTRA:          -8.132
REMARK INTER:                  -7.633
REMARK INTRA:                  -0.499
REMARK UNBOUND:                -0.301
REMARK  Name = /home/vital/Documents/PhD_2021/Malaria_codes/data/pdb_ligands_mmv/ligand_28.pdb
REMARK  6 active torsions:
REMARK  status: ('A' for Active; 'I' for Inactive)
REMARK    1  A    between atoms: C1_1  and  N1_2
REMARK    2  A    between atoms: N1_2  and  C2_3
REMARK    3  A    between atoms: C2_3  and  C3_4
REMARK    4  A    between atoms: C3_4  and  C4_5
REMARK    5  A    between atoms: C4_5  and  N2_6
REMARK    6  A    between atoms: N2_6  and  C5_7
REMARK                            x       y       z     vdW  Elec       q    Type
REMARK                         _______ _______ _______ _____ _____    ______ ____
ROOT
ATOM      1  C5  UNL     1     150.871 156.696 157.765  0.00  0.00    +0.038 A 
ATOM      2  C6  UNL     1     150.493 157.896 158.370  0.00  0.00    +0.043 A 
ATOM      3  C7  UNL     1     150.823 159.094 157.766  0.00  0.00    +0.113 A 
ATOM      4  N3  UNL     1     151.477 159.191 156.596  0.00  0.00    -0.255 NA
ATOM      5  C8  UNL     1     151.799 158.054 155.966  0.00  0.00    +0.074 A 
ATOM      6  C9  UNL     1     152.438 158.168 154.740  0.00  0.00    +0.048 A 
ATOM      7  C10 UNL     1     152.791 157.044 154.000  0.00  0.00    +0.043 A 
ATOM      8 CL1  UNL     1     153.579 157.227 152.483  0.00  0.00    -0.083 Cl
ATOM      9  C11 UNL     1     152.500 155.775 154.476  0.00  0.00    +0.021 A 
ATOM     10  C12 UNL     1     151.861 155.639 155.709  0.00  0.00    +0.013 A 
ATOM     11  C13 UNL     1     151.507 156.769 156.489  0.00  0.00    +0.021 A 
ENDROOT
BRANCH   1  12
ATOM     12  N2  UNL     1     150.535 155.450 158.321  0.00  0.00    -0.343 N 
ATOM     13  H11 UNL     1     149.996 154.872 157.684  0.00  0.00    +0.146 HD
BRANCH  12  14
ATOM     14  C4  UNL     1     151.454 154.669 159.145  0.00  0.00    +0.103 C 
BRANCH  14  15
ATOM     15  C3  UNL     1     151.042 154.623 160.619  0.00  0.00    +0.034 C 
BRANCH  15  16
ATOM     16  C2  UNL     1     149.610 155.120 160.840  0.00  0.00    +0.082 C 
BRANCH  16  18
ATOM     17  C1  UNL     1     148.338 153.314 161.870  0.00  0.00    +0.101 C 
ATOM     18  N1  UNL     1     148.593 154.082 160.661  0.00  0.00    -0.319 NA
ATOM     19  H4  UNL     1     148.866 153.453 159.905  0.00  0.00    +0.122 HD
ENDBRANCH  16  18
ENDBRANCH  15  16
ENDBRANCH  14  15
ENDBRANCH  12  14
ENDBRANCH   1  12
TORSDOF 5
ENDMDL
MODEL 8
REMARK VINA RESULT:    -6.022      3.334      6.634
REMARK INTER + INTRA:          -8.083
REMARK INTER:                  -7.711
REMARK INTRA:                  -0.373
REMARK UNBOUND:                -0.301
REMARK  Name = /home/vital/Documents/PhD_2021/Malaria_codes/data/pdb_ligands_mmv/ligand_28.pdb
REMARK  6 active torsions:
REMARK  status: ('A' for Active; 'I' for Inactive)
REMARK    1  A    between atoms: C1_1  and  N1_2
REMARK    2  A    between atoms: N1_2  and  C2_3
REMARK    3  A    between atoms: C2_3  and  C3_4
REMARK    4  A    between atoms: C3_4  and  C4_5
REMARK    5  A    between atoms: C4_5  and  N2_6
REMARK    6  A    between atoms: N2_6  and  C5_7
REMARK                            x       y       z     vdW  Elec       q    Type
REMARK                         _______ _______ _______ _____ _____    ______ ____
ROOT
ATOM      1  C5  UNL     1     151.437 157.058 156.728  0.00  0.00    +0.038 A 
ATOM      2  C6  UNL     1     151.152 155.836 157.340  0.00  0.00    +0.043 A 
ATOM      3  C7  UNL     1     151.108 155.761 158.719  0.00  0.00    +0.113 A 
ATOM      4  N3  UNL     1     151.301 156.811 159.535  0.00  0.00    -0.255 NA
ATOM      5  C8  UNL     1     151.517 158.007 158.973  0.00  0.00    +0.074 A 
ATOM      6  C9  UNL     1     151.674 159.090 159.824  0.00  0.00    +0.048 A 
ATOM      7  C10 UNL     1     151.878 160.375 159.333  0.00  0.00    +0.043 A 
ATOM      8 CL1  UNL     1     152.065 161.692 160.423  0.00  0.00    -0.083 Cl
ATOM      9  C11 UNL     1     151.923 160.600 157.966  0.00  0.00    +0.021 A 
ATOM     10  C12 UNL     1     151.771 159.524 157.092  0.00  0.00    +0.013 A 
ATOM     11  C13 UNL     1     151.578 158.203 157.570  0.00  0.00    +0.021 A 
ENDROOT
BRANCH   1  12
ATOM     12  N2  UNL     1     151.463 157.196 155.330  0.00  0.00    -0.343 N 
ATOM     13  H11 UNL     1     150.907 157.980 155.005  0.00  0.00    +0.146 HD
BRANCH  12  14
ATOM     14  C4  UNL     1     152.669 156.995 154.531  0.00  0.00    +0.103 C 
BRANCH  14  15
ATOM     15  C3  UNL     1     152.807 155.562 154.008  0.00  0.00    +0.034 C 
BRANCH  15  16
ATOM     16  C2  UNL     1     151.448 154.905 153.744  0.00  0.00    +0.082 C 
BRANCH  16  18
ATOM     17  C1  UNL     1     151.441 155.204 151.324  0.00  0.00    +0.101 C 
ATOM     18  N1  UNL     1     151.351 154.264 152.431  0.00  0.00    -0.319 NA
ATOM     19  H4  UNL     1     150.480 153.737 152.364  0.00  0.00    +0.122 HD
ENDBRANCH  16  18
ENDBRANCH  15  16
ENDBRANCH  14  15
ENDBRANCH  12  14
ENDBRANCH   1  12
TORSDOF 5
ENDMDL
MODEL 9
REMARK VINA RESULT:    -5.572      4.256      6.722
REMARK INTER + INTRA:          -7.501
REMARK INTER:                  -6.815
REMARK INTRA:                  -0.686
REMARK UNBOUND:                -0.301
REMARK  Name = /home/vital/Documents/PhD_2021/Malaria_codes/data/pdb_ligands_mmv/ligand_28.pdb
REMARK  6 active torsions:
REMARK  status: ('A' for Active; 'I' for Inactive)
REMARK    1  A    between atoms: C1_1  and  N1_2
REMARK    2  A    between atoms: N1_2  and  C2_3
REMARK    3  A    between atoms: C2_3  and  C3_4
REMARK    4  A    between atoms: C3_4  and  C4_5
REMARK    5  A    between atoms: C4_5  and  N2_6
REMARK    6  A    between atoms: N2_6  and  C5_7
REMARK                            x       y       z     vdW  Elec       q    Type
REMARK                         _______ _______ _______ _____ _____    ______ ____
ROOT
ATOM      1  C5  UNL     1     151.154 155.974 159.482  0.00  0.00    +0.038 A 
ATOM      2  C6  UNL     1     150.659 154.945 160.284  0.00  0.00    +0.043 A 
ATOM      3  C7  UNL     1     150.187 155.237 161.550  0.00  0.00    +0.113 A 
ATOM      4  N3  UNL     1     150.146 156.477 162.069  0.00  0.00    -0.255 NA
ATOM      5  C8  UNL     1     150.560 157.490 161.297  0.00  0.00    +0.074 A 
ATOM      6  C9  UNL     1     150.475 158.768 161.829  0.00  0.00    +0.048 A 
ATOM      7  C10 UNL     1     150.859 159.885 161.094  0.00  0.00    +0.043 A 
ATOM      8 CL1  UNL     1     150.735 161.453 161.789  0.00  0.00    -0.083 Cl
ATOM      9  C11 UNL     1     151.332 159.740 159.800  0.00  0.00    +0.021 A 
ATOM     10  C12 UNL     1     151.429 158.463 159.247  0.00  0.00    +0.013 A 
ATOM     11  C13 UNL     1     151.059 157.308 159.983  0.00  0.00    +0.021 A 
ENDROOT
BRANCH   1  12
ATOM     12  N2  UNL     1     151.617 155.736 158.177  0.00  0.00    -0.343 N 
ATOM     13  H11 UNL     1     152.473 155.191 158.160  0.00  0.00    +0.146 HD
BRANCH  12  14
ATOM     14  C4  UNL     1     150.730 155.421 157.060  0.00  0.00    +0.103 C 
BRANCH  14  15
ATOM     15  C3  UNL     1     151.133 156.124 155.760  0.00  0.00    +0.034 C 
BRANCH  15  16
ATOM     16  C2  UNL     1     152.652 156.279 155.629  0.00  0.00    +0.082 C 
BRANCH  16  18
ATOM     17  C1  UNL     1     152.144 158.662 155.552  0.00  0.00    +0.101 C 
ATOM     18  N1  UNL     1     153.128 157.640 155.879  0.00  0.00    -0.319 NA
ATOM     19  H4  UNL     1     153.988 157.811 155.358  0.00  0.00    +0.122 HD
ENDBRANCH  16  18
ENDBRANCH  15  16
ENDBRANCH  14  15
ENDBRANCH  12  14
ENDBRANCH   1  12
TORSDOF 5
ENDMDL
