MODEL 1
REMARK VINA RESULT:    -6.965      0.000      0.000
REMARK INTER + INTRA:          -9.600
REMARK INTER:                  -9.000
REMARK INTRA:                  -0.600
REMARK UNBOUND:                -0.600
REMARK  Name = /home/vital/Documents/PhD_2021/Malaria_codes/data/pdb_ligands_mmv/ligand_27.pdb
REMARK  7 active torsions:
REMARK  status: ('A' for Active; 'I' for Inactive)
REMARK    1  A    between atoms: C1_1  and  N1_2
REMARK    2  A    between atoms: N1_2  and  C2_3
REMARK    3  A    between atoms: N1_2  and  C3_4
REMARK    4  A    between atoms: C3_4  and  C4_5
REMARK    5  A    between atoms: C4_5  and  C5_6
REMARK    6  A    between atoms: C5_6  and  N2_7
REMARK    7  A    between atoms: N2_7  and  C6_8
REMARK                            x       y       z     vdW  Elec       q    Type
REMARK                         _______ _______ _______ _____ _____    ______ ____
ROOT
ATOM      1  C6  UNL     1     151.290 158.069 157.225  0.00  0.00    +0.046 A 
ATOM      2  C7  UNL     1     151.828 157.599 155.994  0.00  0.00    +0.022 A 
ATOM      3  C8  UNL     1     152.122 158.418 154.873  0.00  0.00    +0.012 A 
ATOM      4  C9  UNL     1     152.652 157.883 153.699  0.00  0.00    +0.001 A 
ATOM      5  C10 UNL     1     152.896 156.522 153.621  0.00  0.00    +0.002 A 
ATOM      6  C11 UNL     1     152.605 155.706 154.716  0.00  0.00    +0.028 A 
ATOM      7  C12 UNL     1     152.076 156.215 155.895  0.00  0.00    +0.073 A 
ATOM      8  N3  UNL     1     151.819 155.348 156.884  0.00  0.00    -0.247 NA
ATOM      9  C13 UNL     1     151.304 155.794 158.039  0.00  0.00    +0.073 A 
ATOM     10  C14 UNL     1     151.048 154.871 159.045  0.00  0.00    +0.028 A 
ATOM     11  C15 UNL     1     150.517 155.249 160.280  0.00  0.00    +0.002 A 
ATOM     12  C16 UNL     1     150.236 156.586 160.525  0.00  0.00    +0.001 A 
ATOM     13  C17 UNL     1     150.485 157.528 159.530  0.00  0.00    +0.012 A 
ATOM     14  C18 UNL     1     151.014 157.150 158.272  0.00  0.00    +0.022 A 
ENDROOT
BRANCH   1  15
ATOM     15  N2  UNL     1     150.931 159.446 157.399  0.00  0.00    -0.343 N 
ATOM     16  H13 UNL     1     150.155 159.518 158.052  0.00  0.00    +0.146 HD
BRANCH  15  17
ATOM     17  C5  UNL     1     152.079 160.241 157.860  0.00  0.00    +0.103 C 
BRANCH  17  18
ATOM     18  C4  UNL     1     151.607 161.237 158.922  0.00  0.00    +0.034 C 
BRANCH  18  19
ATOM     19  C3  UNL     1     152.211 160.896 160.290  0.00  0.00    +0.085 C 
BRANCH  19  21
ATOM     20  C1  UNL     1     151.508 159.985 162.405  0.00  0.00    +0.104 C 
ATOM     21  N1  UNL     1     151.246 161.016 161.395  0.00  0.00    -0.308 NA
ATOM     22  C2  UNL     1     149.859 160.911 160.935  0.00  0.00    +0.104 C 
ENDBRANCH  19  21
ENDBRANCH  18  19
ENDBRANCH  17  18
ENDBRANCH  15  17
ENDBRANCH   1  15
TORSDOF 5
ENDMDL
MODEL 2
REMARK VINA RESULT:    -6.926      0.319      3.958
REMARK INTER + INTRA:          -9.550
REMARK INTER:                  -8.981
REMARK INTRA:                  -0.568
REMARK UNBOUND:                -0.600
REMARK  Name = /home/vital/Documents/PhD_2021/Malaria_codes/data/pdb_ligands_mmv/ligand_27.pdb
REMARK  7 active torsions:
REMARK  status: ('A' for Active; 'I' for Inactive)
REMARK    1  A    between atoms: C1_1  and  N1_2
REMARK    2  A    between atoms: N1_2  and  C2_3
REMARK    3  A    between atoms: N1_2  and  C3_4
REMARK    4  A    between atoms: C3_4  and  C4_5
REMARK    5  A    between atoms: C4_5  and  C5_6
REMARK    6  A    between atoms: C5_6  and  N2_7
REMARK    7  A    between atoms: N2_7  and  C6_8
REMARK                            x       y       z     vdW  Elec       q    Type
REMARK                         _______ _______ _______ _____ _____    ______ ____
ROOT
ATOM      1  C6  UNL     1     151.095 158.214 157.109  0.00  0.00    +0.046 A 
ATOM      2  C7  UNL     1     150.974 157.390 158.262  0.00  0.00    +0.022 A 
ATOM      3  C8  UNL     1     150.490 157.827 159.524  0.00  0.00    +0.012 A 
ATOM      4  C9  UNL     1     150.397 156.957 160.609  0.00  0.00    +0.001 A 
ATOM      5  C10 UNL     1     150.788 155.637 160.458  0.00  0.00    +0.002 A 
ATOM      6  C11 UNL     1     151.271 155.198 159.225  0.00  0.00    +0.028 A 
ATOM      7  C12 UNL     1     151.374 156.045 158.129  0.00  0.00    +0.073 A 
ATOM      8  N3  UNL     1     151.862 155.532 156.992  0.00  0.00    -0.247 NA
ATOM      9  C13 UNL     1     151.983 156.314 155.910  0.00  0.00    +0.073 A 
ATOM     10  C14 UNL     1     152.494 155.753 154.746  0.00  0.00    +0.028 A 
ATOM     11  C15 UNL     1     152.649 156.494 153.572  0.00  0.00    +0.002 A 
ATOM     12  C16 UNL     1     152.281 157.832 153.553  0.00  0.00    +0.001 A 
ATOM     13  C17 UNL     1     151.767 158.415 154.708  0.00  0.00    +0.012 A 
ATOM     14  C18 UNL     1     151.617 157.672 155.904  0.00  0.00    +0.022 A 
ENDROOT
BRANCH   1  15
ATOM     15  N2  UNL     1     150.788 159.614 157.162  0.00  0.00    -0.343 N 
ATOM     16  H13 UNL     1     150.024 159.773 157.813  0.00  0.00    +0.146 HD
BRANCH  15  17
ATOM     17  C5  UNL     1     151.970 160.405 157.537  0.00  0.00    +0.103 C 
BRANCH  17  18
ATOM     18  C4  UNL     1     151.590 161.377 158.656  0.00  0.00    +0.034 C 
BRANCH  18  19
ATOM     19  C3  UNL     1     152.244 160.962 159.979  0.00  0.00    +0.085 C 
BRANCH  19  21
ATOM     20  C1  UNL     1     151.673 160.169 162.180  0.00  0.00    +0.104 C 
ATOM     21  N1  UNL     1     151.368 161.162 161.145  0.00  0.00    -0.308 NA
ATOM     22  C2  UNL     1     149.948 161.085 160.793  0.00  0.00    +0.104 C 
ENDBRANCH  19  21
ENDBRANCH  18  19
ENDBRANCH  17  18
ENDBRANCH  15  17
ENDBRANCH   1  15
TORSDOF 5
ENDMDL
MODEL 3
REMARK VINA RESULT:    -6.911      1.803      4.332
REMARK INTER + INTRA:          -9.531
REMARK INTER:                  -9.019
REMARK INTRA:                  -0.511
REMARK UNBOUND:                -0.600
REMARK  Name = /home/vital/Documents/PhD_2021/Malaria_codes/data/pdb_ligands_mmv/ligand_27.pdb
REMARK  7 active torsions:
REMARK  status: ('A' for Active; 'I' for Inactive)
REMARK    1  A    between atoms: C1_1  and  N1_2
REMARK    2  A    between atoms: N1_2  and  C2_3
REMARK    3  A    between atoms: N1_2  and  C3_4
REMARK    4  A    between atoms: C3_4  and  C4_5
REMARK    5  A    between atoms: C4_5  and  C5_6
REMARK    6  A    between atoms: C5_6  and  N2_7
REMARK    7  A    between atoms: N2_7  and  C6_8
REMARK                            x       y       z     vdW  Elec       q    Type
REMARK                         _______ _______ _______ _____ _____    ______ ____
ROOT
ATOM      1  C6  UNL     1     150.932 156.768 157.466  0.00  0.00    +0.046 A 
ATOM      2  C7  UNL     1     151.523 156.749 156.172  0.00  0.00    +0.022 A 
ATOM      3  C8  UNL     1     151.667 155.591 155.363  0.00  0.00    +0.012 A 
ATOM      4  C9  UNL     1     152.254 155.653 154.100  0.00  0.00    +0.001 A 
ATOM      5  C10 UNL     1     152.712 156.869 153.621  0.00  0.00    +0.002 A 
ATOM      6  C11 UNL     1     152.581 158.013 154.410  0.00  0.00    +0.028 A 
ATOM      7  C12 UNL     1     152.000 157.977 155.671  0.00  0.00    +0.073 A 
ATOM      8  N3  UNL     1     151.932 159.128 156.355  0.00  0.00    -0.247 NA
ATOM      9  C13 UNL     1     151.383 159.139 157.578  0.00  0.00    +0.073 A 
ATOM     10  C14 UNL     1     151.329 160.347 158.263  0.00  0.00    +0.028 A 
ATOM     11  C15 UNL     1     150.770 160.451 159.539  0.00  0.00    +0.002 A 
ATOM     12  C16 UNL     1     150.245 159.322 160.151  0.00  0.00    +0.001 A 
ATOM     13  C17 UNL     1     150.289 158.101 159.483  0.00  0.00    +0.012 A 
ATOM     14  C18 UNL     1     150.864 157.987 158.193  0.00  0.00    +0.022 A 
ENDROOT
BRANCH   1  15
ATOM     15  N2  UNL     1     150.486 155.560 158.095  0.00  0.00    -0.343 N 
ATOM     16  H13 UNL     1     150.079 154.941 157.400  0.00  0.00    +0.146 HD
BRANCH  15  17
ATOM     17  C5  UNL     1     151.586 154.894 158.809  0.00  0.00    +0.103 C 
BRANCH  17  18
ATOM     18  C4  UNL     1     151.117 154.517 160.216  0.00  0.00    +0.034 C 
BRANCH  18  19
ATOM     19  C3  UNL     1     149.587 154.456 160.278  0.00  0.00    +0.085 C 
BRANCH  19  21
ATOM     20  C1  UNL     1     150.160 154.767 162.595  0.00  0.00    +0.104 C 
ATOM     21  N1  UNL     1     149.057 154.589 161.645  0.00  0.00    -0.308 NA
ATOM     22  C2  UNL     1     148.248 153.435 162.042  0.00  0.00    +0.104 C 
ENDBRANCH  19  21
ENDBRANCH  18  19
ENDBRANCH  17  18
ENDBRANCH  15  17
ENDBRANCH   1  15
TORSDOF 5
ENDMDL
MODEL 4
REMARK VINA RESULT:    -6.792      1.838      5.515
REMARK INTER + INTRA:          -9.377
REMARK INTER:                  -8.902
REMARK INTRA:                  -0.475
REMARK UNBOUND:                -0.600
REMARK  Name = /home/vital/Documents/PhD_2021/Malaria_codes/data/pdb_ligands_mmv/ligand_27.pdb
REMARK  7 active torsions:
REMARK  status: ('A' for Active; 'I' for Inactive)
REMARK    1  A    between atoms: C1_1  and  N1_2
REMARK    2  A    between atoms: N1_2  and  C2_3
REMARK    3  A    between atoms: N1_2  and  C3_4
REMARK    4  A    between atoms: C3_4  and  C4_5
REMARK    5  A    between atoms: C4_5  and  C5_6
REMARK    6  A    between atoms: C5_6  and  N2_7
REMARK    7  A    between atoms: N2_7  and  C6_8
REMARK                            x       y       z     vdW  Elec       q    Type
REMARK                         _______ _______ _______ _____ _____    ______ ____
ROOT
ATOM      1  C6  UNL     1     151.061 156.750 157.636  0.00  0.00    +0.046 A 
ATOM      2  C7  UNL     1     151.015 157.996 158.322  0.00  0.00    +0.022 A 
ATOM      3  C8  UNL     1     150.467 158.188 159.617  0.00  0.00    +0.012 A 
ATOM      4  C9  UNL     1     150.460 159.442 160.227  0.00  0.00    +0.001 A 
ATOM      5  C10 UNL     1     150.998 160.528 159.555  0.00  0.00    +0.002 A 
ATOM      6  C11 UNL     1     151.534 160.351 158.279  0.00  0.00    +0.028 A 
ATOM      7  C12 UNL     1     151.550 159.113 157.650  0.00  0.00    +0.073 A 
ATOM      8  N3  UNL     1     152.076 159.050 156.419  0.00  0.00    -0.247 NA
ATOM      9  C13 UNL     1     152.110 157.876 155.773  0.00  0.00    +0.073 A 
ATOM     10  C14 UNL     1     152.659 157.842 154.498  0.00  0.00    +0.028 A 
ATOM     11  C15 UNL     1     152.739 156.662 153.755  0.00  0.00    +0.002 A 
ATOM     12  C16 UNL     1     152.263 155.477 154.299  0.00  0.00    +0.001 A 
ATOM     13  C17 UNL     1     151.708 155.488 155.576  0.00  0.00    +0.012 A 
ATOM     14  C18 UNL     1     151.614 156.683 156.329  0.00  0.00    +0.022 A 
ENDROOT
BRANCH   1  15
ATOM     15  N2  UNL     1     150.474 155.570 158.200  0.00  0.00    -0.343 N 
ATOM     16  H13 UNL     1     150.002 155.040 157.472  0.00  0.00    +0.146 HD
BRANCH  15  17
ATOM     17  C5  UNL     1     151.484 154.744 158.879  0.00  0.00    +0.103 C 
BRANCH  17  18
ATOM     18  C4  UNL     1     151.072 154.544 160.338  0.00  0.00    +0.034 C 
BRANCH  18  19
ATOM     19  C3  UNL     1     149.545 154.520 160.471  0.00  0.00    +0.085 C 
BRANCH  19  21
ATOM     20  C1  UNL     1     150.233 154.588 162.777  0.00  0.00    +0.104 C 
ATOM     21  N1  UNL     1     149.084 154.617 161.866  0.00  0.00    -0.308 NA
ATOM     22  C2  UNL     1     148.150 153.546 162.219  0.00  0.00    +0.104 C 
ENDBRANCH  19  21
ENDBRANCH  18  19
ENDBRANCH  17  18
ENDBRANCH  15  17
ENDBRANCH   1  15
TORSDOF 5
ENDMDL
MODEL 5
REMARK VINA RESULT:    -6.749      1.858      4.034
REMARK INTER + INTRA:          -9.322
REMARK INTER:                  -8.862
REMARK INTRA:                  -0.460
REMARK UNBOUND:                -0.600
REMARK  Name = /home/vital/Documents/PhD_2021/Malaria_codes/data/pdb_ligands_mmv/ligand_27.pdb
REMARK  7 active torsions:
REMARK  status: ('A' for Active; 'I' for Inactive)
REMARK    1  A    between atoms: C1_1  and  N1_2
REMARK    2  A    between atoms: N1_2  and  C2_3
REMARK    3  A    between atoms: N1_2  and  C3_4
REMARK    4  A    between atoms: C3_4  and  C4_5
REMARK    5  A    between atoms: C4_5  and  C5_6
REMARK    6  A    between atoms: C5_6  and  N2_7
REMARK    7  A    between atoms: N2_7  and  C6_8
REMARK                            x       y       z     vdW  Elec       q    Type
REMARK                         _______ _______ _______ _____ _____    ______ ____
ROOT
ATOM      1  C6  UNL     1     150.927 156.711 157.585  0.00  0.00    +0.046 A 
ATOM      2  C7  UNL     1     151.566 156.577 156.321  0.00  0.00    +0.022 A 
ATOM      3  C8  UNL     1     151.638 155.372 155.572  0.00  0.00    +0.012 A 
ATOM      4  C9  UNL     1     152.279 155.320 154.335  0.00  0.00    +0.001 A 
ATOM      5  C10 UNL     1     152.862 156.468 153.823  0.00  0.00    +0.002 A 
ATOM      6  C11 UNL     1     152.802 157.656 154.552  0.00  0.00    +0.028 A 
ATOM      7  C12 UNL     1     152.171 157.732 155.787  0.00  0.00    +0.073 A 
ATOM      8  N3  UNL     1     152.178 158.916 156.415  0.00  0.00    -0.247 NA
ATOM      9  C13 UNL     1     151.584 159.036 157.610  0.00  0.00    +0.073 A 
ATOM     10  C14 UNL     1     151.610 160.275 158.237  0.00  0.00    +0.028 A 
ATOM     11  C15 UNL     1     151.012 160.490 159.481  0.00  0.00    +0.002 A 
ATOM     12  C16 UNL     1     150.364 159.442 160.119  0.00  0.00    +0.001 A 
ATOM     13  C17 UNL     1     150.325 158.191 159.509  0.00  0.00    +0.012 A 
ATOM     14  C18 UNL     1     150.939 157.964 158.253  0.00  0.00    +0.022 A 
ENDROOT
BRANCH   1  15
ATOM     15  N2  UNL     1     150.350 155.578 158.248  0.00  0.00    -0.343 N 
ATOM     16  H13 UNL     1     150.019 154.909 157.558  0.00  0.00    +0.146 HD
BRANCH  15  17
ATOM     17  C5  UNL     1     151.313 154.951 159.166  0.00  0.00    +0.103 C 
BRANCH  17  18
ATOM     18  C4  UNL     1     150.568 154.430 160.397  0.00  0.00    +0.034 C 
BRANCH  18  19
ATOM     19  C3  UNL     1     151.251 154.905 161.684  0.00  0.00    +0.085 C 
BRANCH  19  21
ATOM     20  C1  UNL     1     150.905 156.852 163.058  0.00  0.00    +0.104 C 
ATOM     21  N1  UNL     1     150.328 155.579 162.613  0.00  0.00    -0.308 NA
ATOM     22  C2  UNL     1     150.010 154.750 163.778  0.00  0.00    +0.104 C 
ENDBRANCH  19  21
ENDBRANCH  18  19
ENDBRANCH  17  18
ENDBRANCH  15  17
ENDBRANCH   1  15
TORSDOF 5
ENDMDL
MODEL 6
REMARK VINA RESULT:    -6.689      1.843      5.214
REMARK INTER + INTRA:          -9.244
REMARK INTER:                  -8.768
REMARK INTRA:                  -0.476
REMARK UNBOUND:                -0.600
REMARK  Name = /home/vital/Documents/PhD_2021/Malaria_codes/data/pdb_ligands_mmv/ligand_27.pdb
REMARK  7 active torsions:
REMARK  status: ('A' for Active; 'I' for Inactive)
REMARK    1  A    between atoms: C1_1  and  N1_2
REMARK    2  A    between atoms: N1_2  and  C2_3
REMARK    3  A    between atoms: N1_2  and  C3_4
REMARK    4  A    between atoms: C3_4  and  C4_5
REMARK    5  A    between atoms: C4_5  and  C5_6
REMARK    6  A    between atoms: C5_6  and  N2_7
REMARK    7  A    between atoms: N2_7  and  C6_8
REMARK                            x       y       z     vdW  Elec       q    Type
REMARK                         _______ _______ _______ _____ _____    ______ ____
ROOT
ATOM      1  C6  UNL     1     151.014 156.772 157.667  0.00  0.00    +0.046 A 
ATOM      2  C7  UNL     1     151.000 158.038 158.315  0.00  0.00    +0.022 A 
ATOM      3  C8  UNL     1     150.472 158.281 159.611  0.00  0.00    +0.012 A 
ATOM      4  C9  UNL     1     150.498 159.553 160.182  0.00  0.00    +0.001 A 
ATOM      5  C10 UNL     1     151.048 160.606 159.471  0.00  0.00    +0.002 A 
ATOM      6  C11 UNL     1     151.565 160.381 158.194  0.00  0.00    +0.028 A 
ATOM      7  C12 UNL     1     151.550 159.124 157.604  0.00  0.00    +0.073 A 
ATOM      8  N3  UNL     1     152.060 159.013 156.370  0.00  0.00    -0.247 NA
ATOM      9  C13 UNL     1     152.063 157.819 155.759  0.00  0.00    +0.073 A 
ATOM     10  C14 UNL     1     152.596 157.736 154.479  0.00  0.00    +0.028 A 
ATOM     11  C15 UNL     1     152.644 156.532 153.772  0.00  0.00    +0.002 A 
ATOM     12  C16 UNL     1     152.150 155.374 154.357  0.00  0.00    +0.001 A 
ATOM     13  C17 UNL     1     151.611 155.435 155.640  0.00  0.00    +0.012 A 
ATOM     14  C18 UNL     1     151.550 156.654 156.357  0.00  0.00    +0.022 A 
ENDROOT
BRANCH   1  15
ATOM     15  N2  UNL     1     150.410 155.622 158.274  0.00  0.00    -0.343 N 
ATOM     16  H13 UNL     1     150.063 154.996 157.552  0.00  0.00    +0.146 HD
BRANCH  15  17
ATOM     17  C5  UNL     1     151.358 154.927 159.158  0.00  0.00    +0.103 C 
BRANCH  17  18
ATOM     18  C4  UNL     1     150.641 154.528 160.450  0.00  0.00    +0.034 C 
BRANCH  18  19
ATOM     19  C3  UNL     1     151.594 154.622 161.648  0.00  0.00    +0.085 C 
BRANCH  19  21
ATOM     20  C1  UNL     1     152.627 156.580 162.595  0.00  0.00    +0.104 C 
ATOM     21  N1  UNL     1     151.376 155.826 162.467  0.00  0.00    -0.308 NA
ATOM     22  C2  UNL     1     150.857 155.506 163.799  0.00  0.00    +0.104 C 
ENDBRANCH  19  21
ENDBRANCH  18  19
ENDBRANCH  17  18
ENDBRANCH  15  17
ENDBRANCH   1  15
TORSDOF 5
ENDMDL
MODEL 7
REMARK VINA RESULT:    -6.628      1.838      6.494
REMARK INTER + INTRA:          -9.165
REMARK INTER:                  -8.873
REMARK INTRA:                  -0.292
REMARK UNBOUND:                -0.600
REMARK  Name = /home/vital/Documents/PhD_2021/Malaria_codes/data/pdb_ligands_mmv/ligand_27.pdb
REMARK  7 active torsions:
REMARK  status: ('A' for Active; 'I' for Inactive)
REMARK    1  A    between atoms: C1_1  and  N1_2
REMARK    2  A    between atoms: N1_2  and  C2_3
REMARK    3  A    between atoms: N1_2  and  C3_4
REMARK    4  A    between atoms: C3_4  and  C4_5
REMARK    5  A    between atoms: C4_5  and  C5_6
REMARK    6  A    between atoms: C5_6  and  N2_7
REMARK    7  A    between atoms: N2_7  and  C6_8
REMARK                            x       y       z     vdW  Elec       q    Type
REMARK                         _______ _______ _______ _____ _____    ______ ____
ROOT
ATOM      1  C6  UNL     1     151.489 157.603 157.839  0.00  0.00    +0.046 A 
ATOM      2  C7  UNL     1     151.489 156.612 158.860  0.00  0.00    +0.022 A 
ATOM      3  C8  UNL     1     151.400 155.213 158.631  0.00  0.00    +0.012 A 
ATOM      4  C9  UNL     1     151.410 154.301 159.686  0.00  0.00    +0.001 A 
ATOM      5  C10 UNL     1     151.507 154.767 160.987  0.00  0.00    +0.002 A 
ATOM      6  C11 UNL     1     151.590 156.140 161.223  0.00  0.00    +0.028 A 
ATOM      7  C12 UNL     1     151.580 157.068 160.190  0.00  0.00    +0.073 A 
ATOM      8  N3  UNL     1     151.651 158.364 160.521  0.00  0.00    -0.247 NA
ATOM      9  C13 UNL     1     151.642 159.295 159.557  0.00  0.00    +0.073 A 
ATOM     10  C14 UNL     1     151.715 160.631 159.931  0.00  0.00    +0.028 A 
ATOM     11  C15 UNL     1     151.715 161.666 158.992  0.00  0.00    +0.002 A 
ATOM     12  C16 UNL     1     151.646 161.363 157.640  0.00  0.00    +0.001 A 
ATOM     13  C17 UNL     1     151.572 160.031 157.242  0.00  0.00    +0.012 A 
ATOM     14  C18 UNL     1     151.559 158.978 158.189  0.00  0.00    +0.022 A 
ENDROOT
BRANCH   1  15
ATOM     15  N2  UNL     1     151.323 157.248 156.460  0.00  0.00    -0.343 N 
ATOM     16  H13 UNL     1     150.908 158.025 155.953  0.00  0.00    +0.146 HD
BRANCH  15  17
ATOM     17  C5  UNL     1     152.603 156.851 155.855  0.00  0.00    +0.103 C 
BRANCH  17  18
ATOM     18  C4  UNL     1     152.611 157.261 154.380  0.00  0.00    +0.034 C 
BRANCH  18  19
ATOM     19  C3  UNL     1     153.114 156.110 153.502  0.00  0.00    +0.085 C 
BRANCH  19  21
ATOM     20  C1  UNL     1     152.422 156.502 151.229  0.00  0.00    +0.104 C 
ATOM     21  N1  UNL     1     153.549 156.550 152.166  0.00  0.00    -0.308 NA
ATOM     22  C2  UNL     1     154.654 155.740 151.647  0.00  0.00    +0.104 C 
ENDBRANCH  19  21
ENDBRANCH  18  19
ENDBRANCH  17  18
ENDBRANCH  15  17
ENDBRANCH   1  15
TORSDOF 5
ENDMDL
MODEL 8
REMARK VINA RESULT:    -6.590      1.074      1.489
REMARK INTER + INTRA:          -9.116
REMARK INTER:                  -8.401
REMARK INTRA:                  -0.715
REMARK UNBOUND:                -0.600
REMARK  Name = /home/vital/Documents/PhD_2021/Malaria_codes/data/pdb_ligands_mmv/ligand_27.pdb
REMARK  7 active torsions:
REMARK  status: ('A' for Active; 'I' for Inactive)
REMARK    1  A    between atoms: C1_1  and  N1_2
REMARK    2  A    between atoms: N1_2  and  C2_3
REMARK    3  A    between atoms: N1_2  and  C3_4
REMARK    4  A    between atoms: C3_4  and  C4_5
REMARK    5  A    between atoms: C4_5  and  C5_6
REMARK    6  A    between atoms: C5_6  and  N2_7
REMARK    7  A    between atoms: N2_7  and  C6_8
REMARK                            x       y       z     vdW  Elec       q    Type
REMARK                         _______ _______ _______ _____ _____    ______ ____
ROOT
ATOM      1  C6  UNL     1     151.243 158.078 158.621  0.00  0.00    +0.046 A 
ATOM      2  C7  UNL     1     151.435 157.794 157.240  0.00  0.00    +0.022 A 
ATOM      3  C8  UNL     1     151.557 158.774 156.220  0.00  0.00    +0.012 A 
ATOM      4  C9  UNL     1     151.747 158.417 154.885  0.00  0.00    +0.001 A 
ATOM      5  C10 UNL     1     151.816 157.076 154.543  0.00  0.00    +0.002 A 
ATOM      6  C11 UNL     1     151.691 156.104 155.537  0.00  0.00    +0.028 A 
ATOM      7  C12 UNL     1     151.500 156.435 156.872  0.00  0.00    +0.073 A 
ATOM      8  N3  UNL     1     151.380 155.429 157.749  0.00  0.00    -0.247 NA
ATOM      9  C13 UNL     1     151.190 155.701 159.048  0.00  0.00    +0.073 A 
ATOM     10  C14 UNL     1     151.067 154.637 159.932  0.00  0.00    +0.028 A 
ATOM     11  C15 UNL     1     150.872 154.829 161.302  0.00  0.00    +0.002 A 
ATOM     12  C16 UNL     1     150.803 156.119 161.809  0.00  0.00    +0.001 A 
ATOM     13  C17 UNL     1     150.924 157.201 160.941  0.00  0.00    +0.012 A 
ATOM     14  C18 UNL     1     151.110 157.012 159.550  0.00  0.00    +0.022 A 
ENDROOT
BRANCH   1  15
ATOM     15  N2  UNL     1     151.086 159.425 159.086  0.00  0.00    -0.343 N 
ATOM     16  H13 UNL     1     150.479 159.438 159.901  0.00  0.00    +0.146 HD
BRANCH  15  17
ATOM     17  C5  UNL     1     152.388 160.038 159.393  0.00  0.00    +0.103 C 
BRANCH  17  18
ATOM     18  C4  UNL     1     152.170 161.488 159.831  0.00  0.00    +0.034 C 
BRANCH  18  19
ATOM     19  C3  UNL     1     152.174 161.596 161.360  0.00  0.00    +0.085 C 
BRANCH  19  21
ATOM     20  C1  UNL     1     149.856 161.266 161.921  0.00  0.00    +0.104 C 
ATOM     21  N1  UNL     1     151.204 160.696 162.006  0.00  0.00    -0.308 NA
ATOM     22  C2  UNL     1     151.539 160.433 163.408  0.00  0.00    +0.104 C 
ENDBRANCH  19  21
ENDBRANCH  18  19
ENDBRANCH  17  18
ENDBRANCH  15  17
ENDBRANCH   1  15
TORSDOF 5
ENDMDL
MODEL 9
REMARK VINA RESULT:    -6.480      1.622      5.683
REMARK INTER + INTRA:          -8.974
REMARK INTER:                  -8.605
REMARK INTRA:                  -0.370
REMARK UNBOUND:                -0.600
REMARK  Name = /home/vital/Documents/PhD_2021/Malaria_codes/data/pdb_ligands_mmv/ligand_27.pdb
REMARK  7 active torsions:
REMARK  status: ('A' for Active; 'I' for Inactive)
REMARK    1  A    between atoms: C1_1  and  N1_2
REMARK    2  A    between atoms: N1_2  and  C2_3
REMARK    3  A    between atoms: N1_2  and  C3_4
REMARK    4  A    between atoms: C3_4  and  C4_5
REMARK    5  A    between atoms: C4_5  and  C5_6
REMARK    6  A    between atoms: C5_6  and  N2_7
REMARK    7  A    between atoms: N2_7  and  C6_8
REMARK                            x       y       z     vdW  Elec       q    Type
REMARK                         _______ _______ _______ _____ _____    ______ ____
ROOT
ATOM      1  C6  UNL     1     150.895 157.680 158.102  0.00  0.00    +0.046 A 
ATOM      2  C7  UNL     1     151.231 159.022 158.433  0.00  0.00    +0.022 A 
ATOM      3  C8  UNL     1     151.270 160.100 157.509  0.00  0.00    +0.012 A 
ATOM      4  C9  UNL     1     151.606 161.392 157.912  0.00  0.00    +0.001 A 
ATOM      5  C10 UNL     1     151.910 161.633 159.242  0.00  0.00    +0.002 A 
ATOM      6  C11 UNL     1     151.880 160.580 160.157  0.00  0.00    +0.028 A 
ATOM      7  C12 UNL     1     151.551 159.285 159.780  0.00  0.00    +0.073 A 
ATOM      8  N3  UNL     1     151.562 158.340 160.732  0.00  0.00    -0.247 NA
ATOM      9  C13 UNL     1     151.254 157.075 160.413  0.00  0.00    +0.073 A 
ATOM     10  C14 UNL     1     151.277 156.119 161.420  0.00  0.00    +0.028 A 
ATOM     11  C15 UNL     1     150.965 154.779 161.178  0.00  0.00    +0.002 A 
ATOM     12  C16 UNL     1     150.615 154.378 159.896  0.00  0.00    +0.001 A 
ATOM     13  C17 UNL     1     150.586 155.320 158.871  0.00  0.00    +0.012 A 
ATOM     14  C18 UNL     1     150.912 156.678 159.108  0.00  0.00    +0.022 A 
ENDROOT
BRANCH   1  15
ATOM     15  N2  UNL     1     150.629 157.295 156.746  0.00  0.00    -0.343 N 
ATOM     16  H13 UNL     1     150.246 158.085 156.234  0.00  0.00    +0.146 HD
BRANCH  15  17
ATOM     17  C5  UNL     1     151.843 156.784 156.090  0.00  0.00    +0.103 C 
BRANCH  17  18
ATOM     18  C4  UNL     1     151.449 155.724 155.060  0.00  0.00    +0.034 C 
BRANCH  18  19
ATOM     19  C3  UNL     1     152.390 155.769 153.851  0.00  0.00    +0.085 C 
BRANCH  19  21
ATOM     20  C1  UNL     1     151.699 156.430 151.641  0.00  0.00    +0.104 C 
ATOM     21  N1  UNL     1     152.130 156.911 152.958  0.00  0.00    -0.308 NA
ATOM     22  C2  UNL     1     153.303 157.775 152.805  0.00  0.00    +0.104 C 
ENDBRANCH  19  21
ENDBRANCH  18  19
ENDBRANCH  17  18
ENDBRANCH  15  17
ENDBRANCH   1  15
TORSDOF 5
ENDMDL
