MODEL 1
REMARK VINA RESULT:    -6.153      0.000      0.000
REMARK INTER + INTRA:          -7.810
REMARK INTER:                  -7.232
REMARK INTRA:                  -0.579
REMARK UNBOUND:                -0.579
REMARK  Name = /home/vital/Documents/PhD_2021/Malaria_codes/data/pdb_ligands_mmv/ligand_298.pdb
REMARK  3 active torsions:
REMARK  status: ('A' for Active; 'I' for Inactive)
REMARK    1  A    between atoms: C5_6  and  C7_8
REMARK    2  A    between atoms: N1_10  and  C8_11
REMARK    3  A    between atoms: C11_14  and  C14_17
REMARK                            x       y       z     vdW  Elec       q    Type
REMARK                         _______ _______ _______ _____ _____    ______ ____
ROOT
ATOM      1  C8  UNL     1       6.059  -1.168 -32.001  0.00  0.00    +0.034 A 
ATOM      2  C9  UNL     1       4.714  -0.965 -32.308  0.00  0.00    +0.024 A 
ATOM      3  C10 UNL     1       3.833  -2.050 -32.432  0.00  0.00    +0.013 A 
ATOM      4  C11 UNL     1       4.278  -3.364 -32.252  0.00  0.00    +0.017 A 
ATOM      5  C12 UNL     1       5.630  -3.561 -31.944  0.00  0.00    +0.013 A 
ATOM      6  C13 UNL     1       6.510  -2.479 -31.819  0.00  0.00    +0.024 A 
ENDROOT
BRANCH   4   7
ATOM      7  C14 UNL     1       3.396  -4.531 -32.372  0.00  0.00    +0.139 A 
ATOM      8  N2  UNL     1       2.681  -5.063 -31.394  0.00  0.00    -0.228 NA
ATOM      9  C15 UNL     1       2.007  -6.127 -31.939  0.00  0.00    +0.090 A 
ATOM     10  C16 UNL     1       1.117  -7.028 -31.342  0.00  0.00    +0.038 A 
ATOM     11  C17 UNL     1       0.546  -8.052 -32.120  0.00  0.00    -0.016 A 
ATOM     12  C18 UNL     1      -0.350  -8.969 -31.549  0.00  0.00    +0.008 A 
ATOM     13  C19 UNL     1      -0.920  -9.987 -32.317  0.00  0.00    +0.001 A 
ATOM     14  C20 UNL     1      -0.601 -10.098 -33.666  0.00  0.00    +0.001 A 
ATOM     15  C21 UNL     1       0.287  -9.194 -34.251  0.00  0.00    +0.008 A 
ATOM     16  C22 UNL     1       0.870  -8.165 -33.496  0.00  0.00    -0.016 A 
ATOM     17  C23 UNL     1       1.765  -7.260 -34.097  0.00  0.00    +0.036 A 
ATOM     18  C24 UNL     1       2.308  -6.261 -33.285  0.00  0.00    +0.067 A 
ATOM     19  N3  UNL     1       3.187  -5.240 -33.536  0.00  0.00    -0.338 N 
ATOM     20  H16 UNL     1       3.612  -5.043 -34.428  0.00  0.00    +0.167 HD
ENDBRANCH   4   7
BRANCH   1  23
ATOM     21  C7  UNL     1       7.399   0.791 -32.814  0.00  0.00    +0.248 C 
ATOM     22  O1  UNL     1       6.959   0.848 -33.959  0.00  0.00    -0.270 OA
ATOM     23  N1  UNL     1       7.012  -0.134 -31.857  0.00  0.00    -0.282 N 
ATOM     24  H5  UNL     1       7.438  -0.090 -30.947  0.00  0.00    +0.155 HD
BRANCH  21  30
ATOM     25 BR1  UNL     1      11.669   2.261 -29.817  0.00  0.00    -0.050 Br
ATOM     26  C1  UNL     1      10.349   2.579 -31.135  0.00  0.00    +0.019 A 
ATOM     27  C2  UNL     1      10.316   3.809 -31.788  0.00  0.00    +0.015 A 
ATOM     28  C3  UNL     1       9.346   4.043 -32.757  0.00  0.00    +0.002 A 
ATOM     29  C4  UNL     1       8.417   3.046 -33.067  0.00  0.00    +0.013 A 
ATOM     30  C5  UNL     1       8.441   1.800 -32.413  0.00  0.00    +0.038 A 
ATOM     31  C6  UNL     1       9.423   1.575 -31.439  0.00  0.00    +0.028 A 
ENDBRANCH  21  30
ENDBRANCH   1  23
TORSDOF 3
ENDMDL
MODEL 2
REMARK VINA RESULT:    -6.095      2.715      4.344
REMARK INTER + INTRA:          -7.742
REMARK INTER:                  -7.092
REMARK INTRA:                  -0.650
REMARK UNBOUND:                -0.579
REMARK  Name = /home/vital/Documents/PhD_2021/Malaria_codes/data/pdb_ligands_mmv/ligand_298.pdb
REMARK  3 active torsions:
REMARK  status: ('A' for Active; 'I' for Inactive)
REMARK    1  A    between atoms: C5_6  and  C7_8
REMARK    2  A    between atoms: N1_10  and  C8_11
REMARK    3  A    between atoms: C11_14  and  C14_17
REMARK                            x       y       z     vdW  Elec       q    Type
REMARK                         _______ _______ _______ _____ _____    ______ ____
ROOT
ATOM      1  C8  UNL     1       8.727   1.299 -30.879  0.00  0.00    +0.034 A 
ATOM      2  C9  UNL     1       7.628   1.032 -30.065  0.00  0.00    +0.024 A 
ATOM      3  C10 UNL     1       6.667   0.083 -30.444  0.00  0.00    +0.013 A 
ATOM      4  C11 UNL     1       6.784  -0.620 -31.649  0.00  0.00    +0.017 A 
ATOM      5  C12 UNL     1       7.890  -0.346 -32.462  0.00  0.00    +0.013 A 
ATOM      6  C13 UNL     1       8.851   0.600 -32.084  0.00  0.00    +0.024 A 
ENDROOT
BRANCH   4   7
ATOM      7  C14 UNL     1       5.804  -1.621 -32.088  0.00  0.00    +0.139 A 
ATOM      8  N2  UNL     1       4.585  -1.365 -32.535  0.00  0.00    -0.228 NA
ATOM      9  C15 UNL     1       4.018  -2.578 -32.833  0.00  0.00    +0.090 A 
ATOM     10  C16 UNL     1       2.745  -2.875 -33.337  0.00  0.00    +0.038 A 
ATOM     11  C17 UNL     1       2.388  -4.217 -33.562  0.00  0.00    -0.016 A 
ATOM     12  C18 UNL     1       1.121  -4.545 -34.067  0.00  0.00    +0.008 A 
ATOM     13  C19 UNL     1       0.761  -5.875 -34.293  0.00  0.00    +0.001 A 
ATOM     14  C20 UNL     1       1.667  -6.895 -34.017  0.00  0.00    +0.001 A 
ATOM     15  C21 UNL     1       2.932  -6.587 -33.515  0.00  0.00    +0.008 A 
ATOM     16  C22 UNL     1       3.312  -5.256 -33.281  0.00  0.00    -0.016 A 
ATOM     17  C23 UNL     1       4.591  -4.958 -32.775  0.00  0.00    +0.036 A 
ATOM     18  C24 UNL     1       4.899  -3.612 -32.566  0.00  0.00    +0.067 A 
ATOM     19  N3  UNL     1       6.023  -2.982 -32.097  0.00  0.00    -0.338 N 
ATOM     20  H16 UNL     1       6.870  -3.443 -31.805  0.00  0.00    +0.167 HD
ENDBRANCH   4   7
BRANCH   1  23
ATOM     21  C7  UNL     1      10.972   1.985 -29.991  0.00  0.00    +0.248 C 
ATOM     22  O1  UNL     1      11.375   0.878 -29.645  0.00  0.00    -0.270 OA
ATOM     23  N1  UNL     1       9.740   2.237 -30.574  0.00  0.00    -0.282 N 
ATOM     24  H5  UNL     1       9.511   3.186 -30.820  0.00  0.00    +0.155 HD
BRANCH  21  30
ATOM     25 BR1  UNL     1      13.571   5.406 -26.688  0.00  0.00    -0.050 Br
ATOM     26  C1  UNL     1      13.095   4.756 -28.400  0.00  0.00    +0.019 A 
ATOM     27  C2  UNL     1      13.600   5.384 -29.536  0.00  0.00    +0.015 A 
ATOM     28  C3  UNL     1      13.250   4.906 -30.795  0.00  0.00    +0.002 A 
ATOM     29  C4  UNL     1      12.398   3.805 -30.908  0.00  0.00    +0.013 A 
ATOM     30  C5  UNL     1      11.882   3.163 -29.767  0.00  0.00    +0.038 A 
ATOM     31  C6  UNL     1      12.241   3.652 -28.504  0.00  0.00    +0.028 A 
ENDBRANCH  21  30
ENDBRANCH   1  23
TORSDOF 3
ENDMDL
MODEL 3
REMARK VINA RESULT:    -5.825      3.957     11.595
REMARK INTER + INTRA:          -7.425
REMARK INTER:                  -6.773
REMARK INTRA:                  -0.652
REMARK UNBOUND:                -0.579
REMARK  Name = /home/vital/Documents/PhD_2021/Malaria_codes/data/pdb_ligands_mmv/ligand_298.pdb
REMARK  3 active torsions:
REMARK  status: ('A' for Active; 'I' for Inactive)
REMARK    1  A    between atoms: C5_6  and  C7_8
REMARK    2  A    between atoms: N1_10  and  C8_11
REMARK    3  A    between atoms: C11_14  and  C14_17
REMARK                            x       y       z     vdW  Elec       q    Type
REMARK                         _______ _______ _______ _____ _____    ______ ____
ROOT
ATOM      1  C8  UNL     1       3.210  -4.614 -32.353  0.00  0.00    +0.034 A 
ATOM      2  C9  UNL     1       4.588  -4.831 -32.372  0.00  0.00    +0.024 A 
ATOM      3  C10 UNL     1       5.484  -3.751 -32.373  0.00  0.00    +0.013 A 
ATOM      4  C11 UNL     1       5.023  -2.430 -32.357  0.00  0.00    +0.017 A 
ATOM      5  C12 UNL     1       3.638  -2.221 -32.339  0.00  0.00    +0.013 A 
ATOM      6  C13 UNL     1       2.742  -3.297 -32.337  0.00  0.00    +0.024 A 
ENDROOT
BRANCH   4   7
ATOM      7  C14 UNL     1       5.921  -1.269 -32.359  0.00  0.00    +0.139 A 
ATOM      8  N2  UNL     1       6.880  -1.034 -31.479  0.00  0.00    -0.228 NA
ATOM      9  C15 UNL     1       7.468   0.149 -31.852  0.00  0.00    +0.090 A 
ATOM     10  C16 UNL     1       8.529   0.849 -31.264  0.00  0.00    +0.038 A 
ATOM     11  C17 UNL     1       8.959   2.059 -31.840  0.00  0.00    -0.016 A 
ATOM     12  C18 UNL     1      10.020   2.783 -31.274  0.00  0.00    +0.008 A 
ATOM     13  C19 UNL     1      10.452   3.984 -31.840  0.00  0.00    +0.001 A 
ATOM     14  C20 UNL     1       9.826   4.476 -32.982  0.00  0.00    +0.001 A 
ATOM     15  C21 UNL     1       8.771   3.769 -33.559  0.00  0.00    +0.008 A 
ATOM     16  C22 UNL     1       8.322   2.560 -33.003  0.00  0.00    -0.016 A 
ATOM     17  C23 UNL     1       7.257   1.856 -33.594  0.00  0.00    +0.036 A 
ATOM     18  C24 UNL     1       6.863   0.661 -32.987  0.00  0.00    +0.067 A 
ATOM     19  N3  UNL     1       5.888  -0.254 -33.290  0.00  0.00    -0.338 N 
ATOM     20  H16 UNL     1       5.251  -0.190 -34.069  0.00  0.00    +0.167 HD
ENDBRANCH   4   7
BRANCH   1  23
ATOM     21  C7  UNL     1       1.761  -6.344 -31.255  0.00  0.00    +0.248 C 
ATOM     22  O1  UNL     1       2.121  -6.170 -30.094  0.00  0.00    -0.270 OA
ATOM     23  N1  UNL     1       2.240  -5.642 -32.350  0.00  0.00    -0.282 N 
ATOM     24  H5  UNL     1       1.874  -5.866 -33.261  0.00  0.00    +0.155 HD
BRANCH  21  30
ATOM     25 BR1  UNL     1      -3.212  -8.375 -30.536  0.00  0.00    -0.050 Br
ATOM     26  C1  UNL     1      -1.470  -8.411 -31.275  0.00  0.00    +0.019 A 
ATOM     27  C2  UNL     1      -1.103  -9.463 -32.111  0.00  0.00    +0.015 A 
ATOM     28  C3  UNL     1       0.177  -9.490 -32.655  0.00  0.00    +0.002 A 
ATOM     29  C4  UNL     1       1.080  -8.466 -32.359  0.00  0.00    +0.013 A 
ATOM     30  C5  UNL     1       0.720  -7.399 -31.515  0.00  0.00    +0.038 A 
ATOM     31  C6  UNL     1      -0.573  -7.381 -30.974  0.00  0.00    +0.028 A 
ENDBRANCH  21  30
ENDBRANCH   1  23
TORSDOF 3
ENDMDL
MODEL 4
REMARK VINA RESULT:    -5.756     16.975     18.438
REMARK INTER + INTRA:          -7.344
REMARK INTER:                  -6.784
REMARK INTRA:                  -0.560
REMARK UNBOUND:                -0.579
REMARK  Name = /home/vital/Documents/PhD_2021/Malaria_codes/data/pdb_ligands_mmv/ligand_298.pdb
REMARK  3 active torsions:
REMARK  status: ('A' for Active; 'I' for Inactive)
REMARK    1  A    between atoms: C5_6  and  C7_8
REMARK    2  A    between atoms: N1_10  and  C8_11
REMARK    3  A    between atoms: C11_14  and  C14_17
REMARK                            x       y       z     vdW  Elec       q    Type
REMARK                         _______ _______ _______ _____ _____    ______ ____
ROOT
ATOM      1  C8  UNL     1      -0.524   4.825 -17.991  0.00  0.00    +0.034 A 
ATOM      2  C9  UNL     1      -1.904   4.775 -17.798  0.00  0.00    +0.024 A 
ATOM      3  C10 UNL     1      -2.785   5.231 -18.790  0.00  0.00    +0.013 A 
ATOM      4  C11 UNL     1      -2.305   5.748 -19.999  0.00  0.00    +0.017 A 
ATOM      5  C12 UNL     1      -0.918   5.795 -20.186  0.00  0.00    +0.013 A 
ATOM      6  C13 UNL     1      -0.037   5.339 -19.197  0.00  0.00    +0.024 A 
ENDROOT
BRANCH   4   7
ATOM      7  C14 UNL     1      -3.187   6.237 -21.065  0.00  0.00    +0.139 A 
ATOM      8  N2  UNL     1      -4.036   5.502 -21.764  0.00  0.00    -0.228 NA
ATOM      9  C15 UNL     1      -4.653   6.352 -22.646  0.00  0.00    +0.090 A 
ATOM     10  C16 UNL     1      -5.633   6.090 -23.612  0.00  0.00    +0.038 A 
ATOM     11  C17 UNL     1      -6.116   7.144 -24.409  0.00  0.00    -0.016 A 
ATOM     12  C18 UNL     1      -7.098   6.911 -25.385  0.00  0.00    +0.008 A 
ATOM     13  C19 UNL     1      -7.580   7.953 -26.179  0.00  0.00    +0.001 A 
ATOM     14  C20 UNL     1      -7.087   9.242 -26.006  0.00  0.00    +0.001 A 
ATOM     15  C21 UNL     1      -6.111   9.492 -25.040  0.00  0.00    +0.008 A 
ATOM     16  C22 UNL     1      -5.612   8.458 -24.233  0.00  0.00    -0.016 A 
ATOM     17  C23 UNL     1      -4.628   8.722 -23.263  0.00  0.00    +0.036 A 
ATOM     18  C24 UNL     1      -4.178   7.645 -22.496  0.00  0.00    +0.067 A 
ATOM     19  N3  UNL     1      -3.253   7.548 -21.489  0.00  0.00    -0.338 N 
ATOM     20  H16 UNL     1      -2.709   8.312 -21.122  0.00  0.00    +0.167 HD
ENDBRANCH   4   7
BRANCH   1  23
ATOM     21  C7  UNL     1       0.580   4.818 -15.738  0.00  0.00    +0.248 C 
ATOM     22  O1  UNL     1      -0.119   5.668 -15.192  0.00  0.00    -0.270 OA
ATOM     23  N1  UNL     1       0.432   4.387 -17.047  0.00  0.00    -0.282 N 
ATOM     24  H5  UNL     1       1.062   3.683 -17.394  0.00  0.00    +0.155 HD
BRANCH  21  30
ATOM     25 BR1  UNL     1       4.850   1.511 -15.302  0.00  0.00    -0.050 Br
ATOM     26  C1  UNL     1       3.603   2.749 -14.601  0.00  0.00    +0.019 A 
ATOM     27  C2  UNL     1       3.687   3.122 -13.261  0.00  0.00    +0.015 A 
ATOM     28  C3  UNL     1       2.771   4.032 -12.746  0.00  0.00    +0.002 A 
ATOM     29  C4  UNL     1       1.777   4.563 -13.573  0.00  0.00    +0.013 A 
ATOM     30  C5  UNL     1       1.683   4.193 -14.927  0.00  0.00    +0.038 A 
ATOM     31  C6  UNL     1       2.612   3.276 -15.437  0.00  0.00    +0.028 A 
ENDBRANCH  21  30
ENDBRANCH   1  23
TORSDOF 3
ENDMDL
MODEL 5
REMARK VINA RESULT:    -5.645      1.649      2.140
REMARK INTER + INTRA:          -7.214
REMARK INTER:                  -6.578
REMARK INTRA:                  -0.636
REMARK UNBOUND:                -0.579
REMARK  Name = /home/vital/Documents/PhD_2021/Malaria_codes/data/pdb_ligands_mmv/ligand_298.pdb
REMARK  3 active torsions:
REMARK  status: ('A' for Active; 'I' for Inactive)
REMARK    1  A    between atoms: C5_6  and  C7_8
REMARK    2  A    between atoms: N1_10  and  C8_11
REMARK    3  A    between atoms: C11_14  and  C14_17
REMARK                            x       y       z     vdW  Elec       q    Type
REMARK                         _______ _______ _______ _____ _____    ______ ____
ROOT
ATOM      1  C8  UNL     1       5.621  -0.709 -32.195  0.00  0.00    +0.034 A 
ATOM      2  C9  UNL     1       6.229  -1.945 -31.979  0.00  0.00    +0.024 A 
ATOM      3  C10 UNL     1       5.470  -3.125 -31.953  0.00  0.00    +0.013 A 
ATOM      4  C11 UNL     1       4.083  -3.094 -32.142  0.00  0.00    +0.017 A 
ATOM      5  C12 UNL     1       3.479  -1.848 -32.358  0.00  0.00    +0.013 A 
ATOM      6  C13 UNL     1       4.237  -0.671 -32.385  0.00  0.00    +0.024 A 
ENDROOT
BRANCH   4   7
ATOM      7  C14 UNL     1       3.246  -4.299 -32.122  0.00  0.00    +0.139 A 
ATOM      8  N2  UNL     1       2.261  -4.542 -31.274  0.00  0.00    -0.228 NA
ATOM      9  C15 UNL     1       1.752  -5.771 -31.610  0.00  0.00    +0.090 A 
ATOM     10  C16 UNL     1       0.702  -6.498 -31.035  0.00  0.00    +0.038 A 
ATOM     11  C17 UNL     1       0.361  -7.756 -31.564  0.00  0.00    -0.016 A 
ATOM     12  C18 UNL     1      -0.686  -8.506 -31.008  0.00  0.00    +0.008 A 
ATOM     13  C19 UNL     1      -1.029  -9.755 -31.530  0.00  0.00    +0.001 A 
ATOM     14  C20 UNL     1      -0.327 -10.269 -32.616  0.00  0.00    +0.001 A 
ATOM     15  C21 UNL     1       0.717  -9.536 -33.182  0.00  0.00    +0.008 A 
ATOM     16  C22 UNL     1       1.076  -8.279 -32.671  0.00  0.00    -0.016 A 
ATOM     17  C23 UNL     1       2.131  -7.550 -33.251  0.00  0.00    +0.036 A 
ATOM     18  C24 UNL     1       2.434  -6.306 -32.690  0.00  0.00    +0.067 A 
ATOM     19  N3  UNL     1       3.374  -5.357 -32.997  0.00  0.00    -0.338 N 
ATOM     20  H16 UNL     1       4.049  -5.425 -33.743  0.00  0.00    +0.167 HD
ENDBRANCH   4   7
BRANCH   1  23
ATOM     21  C7  UNL     1       6.671   1.249 -33.362  0.00  0.00    +0.248 C 
ATOM     22  O1  UNL     1       6.439   0.915 -34.521  0.00  0.00    -0.270 OA
ATOM     23  N1  UNL     1       6.311   0.525 -32.237  0.00  0.00    -0.282 N 
ATOM     24  H5  UNL     1       6.552   0.892 -31.332  0.00  0.00    +0.155 HD
BRANCH  21  30
ATOM     25 BR1  UNL     1       7.103   6.616 -33.972  0.00  0.00    -0.050 Br
ATOM     26  C1  UNL     1       7.716   4.940 -33.344  0.00  0.00    +0.019 A 
ATOM     27  C2  UNL     1       8.912   4.870 -32.634  0.00  0.00    +0.015 A 
ATOM     28  C3  UNL     1       9.363   3.638 -32.172  0.00  0.00    +0.002 A 
ATOM     29  C4  UNL     1       8.615   2.485 -32.424  0.00  0.00    +0.013 A 
ATOM     30  C5  UNL     1       7.405   2.544 -33.141  0.00  0.00    +0.038 A 
ATOM     31  C6  UNL     1       6.960   3.790 -33.601  0.00  0.00    +0.028 A 
ENDBRANCH  21  30
ENDBRANCH   1  23
TORSDOF 3
ENDMDL
MODEL 6
REMARK VINA RESULT:    -5.608     16.560     19.256
REMARK INTER + INTRA:          -7.170
REMARK INTER:                  -6.537
REMARK INTRA:                  -0.633
REMARK UNBOUND:                -0.579
REMARK  Name = /home/vital/Documents/PhD_2021/Malaria_codes/data/pdb_ligands_mmv/ligand_298.pdb
REMARK  3 active torsions:
REMARK  status: ('A' for Active; 'I' for Inactive)
REMARK    1  A    between atoms: C5_6  and  C7_8
REMARK    2  A    between atoms: N1_10  and  C8_11
REMARK    3  A    between atoms: C11_14  and  C14_17
REMARK                            x       y       z     vdW  Elec       q    Type
REMARK                         _______ _______ _______ _____ _____    ______ ____
ROOT
ATOM      1  C8  UNL     1      -5.698   5.682 -23.607  0.00  0.00    +0.034 A 
ATOM      2  C9  UNL     1      -5.653   6.792 -22.764  0.00  0.00    +0.024 A 
ATOM      3  C10 UNL     1      -4.688   6.886 -21.750  0.00  0.00    +0.013 A 
ATOM      4  C11 UNL     1      -3.745   5.870 -21.556  0.00  0.00    +0.017 A 
ATOM      5  C12 UNL     1      -3.796   4.758 -22.407  0.00  0.00    +0.013 A 
ATOM      6  C13 UNL     1      -4.758   4.664 -23.420  0.00  0.00    +0.024 A 
ENDROOT
BRANCH   4   7
ATOM      7  C14 UNL     1      -2.717   5.922 -20.509  0.00  0.00    +0.139 A 
ATOM      8  N2  UNL     1      -1.532   6.499 -20.619  0.00  0.00    -0.228 NA
ATOM      9  C15 UNL     1      -0.897   6.314 -19.416  0.00  0.00    +0.090 A 
ATOM     10  C16 UNL     1       0.376   6.725 -18.999  0.00  0.00    +0.038 A 
ATOM     11  C17 UNL     1       0.810   6.410 -17.699  0.00  0.00    -0.016 A 
ATOM     12  C18 UNL     1       2.080   6.808 -17.253  0.00  0.00    +0.008 A 
ATOM     13  C19 UNL     1       2.517   6.499 -15.964  0.00  0.00    +0.001 A 
ATOM     14  C20 UNL     1       1.687   5.787 -15.103  0.00  0.00    +0.001 A 
ATOM     15  C21 UNL     1       0.421   5.384 -15.529  0.00  0.00    +0.008 A 
ATOM     16  C22 UNL     1      -0.036   5.685 -16.822  0.00  0.00    -0.016 A 
ATOM     17  C23 UNL     1      -1.315   5.273 -17.239  0.00  0.00    +0.036 A 
ATOM     18  C24 UNL     1      -1.702   5.607 -18.539  0.00  0.00    +0.067 A 
ATOM     19  N3  UNL     1      -2.849   5.370 -19.253  0.00  0.00    -0.338 N 
ATOM     20  H16 UNL     1      -3.656   4.872 -18.911  0.00  0.00    +0.167 HD
ENDBRANCH   4   7
BRANCH   1  23
ATOM     21  C7  UNL     1      -7.966   5.143 -24.535  0.00  0.00    +0.248 C 
ATOM     22  O1  UNL     1      -8.543   4.909 -23.476  0.00  0.00    -0.270 OA
ATOM     23  N1  UNL     1      -6.634   5.509 -24.652  0.00  0.00    -0.282 N 
ATOM     24  H5  UNL     1      -6.262   5.678 -25.571  0.00  0.00    +0.155 HD
BRANCH  21  30
ATOM     25 BR1  UNL     1      -8.999   2.718 -29.270  0.00  0.00    -0.050 Br
ATOM     26  C1  UNL     1      -9.324   4.028 -27.945  0.00  0.00    +0.019 A 
ATOM     27  C2  UNL     1     -10.353   4.950 -28.131  0.00  0.00    +0.015 A 
ATOM     28  C3  UNL     1     -10.592   5.913 -27.157  0.00  0.00    +0.002 A 
ATOM     29  C4  UNL     1      -9.803   5.950 -26.005  0.00  0.00    +0.013 A 
ATOM     30  C5  UNL     1      -8.761   5.024 -25.807  0.00  0.00    +0.038 A 
ATOM     31  C6  UNL     1      -8.529   4.057 -26.794  0.00  0.00    +0.028 A 
ENDBRANCH  21  30
ENDBRANCH   1  23
TORSDOF 3
ENDMDL
MODEL 7
REMARK VINA RESULT:    -5.040      6.351     10.750
REMARK INTER + INTRA:          -6.503
REMARK INTER:                  -5.865
REMARK INTRA:                  -0.638
REMARK UNBOUND:                -0.579
REMARK  Name = /home/vital/Documents/PhD_2021/Malaria_codes/data/pdb_ligands_mmv/ligand_298.pdb
REMARK  3 active torsions:
REMARK  status: ('A' for Active; 'I' for Inactive)
REMARK    1  A    between atoms: C5_6  and  C7_8
REMARK    2  A    between atoms: N1_10  and  C8_11
REMARK    3  A    between atoms: C11_14  and  C14_17
REMARK                            x       y       z     vdW  Elec       q    Type
REMARK                         _______ _______ _______ _____ _____    ______ ____
ROOT
ATOM      1  C8  UNL     1       4.172   0.045 -29.706  0.00  0.00    +0.034 A 
ATOM      2  C9  UNL     1       3.373  -0.195 -30.822  0.00  0.00    +0.024 A 
ATOM      3  C10 UNL     1       2.887   0.866 -31.601  0.00  0.00    +0.013 A 
ATOM      4  C11 UNL     1       3.190   2.194 -31.278  0.00  0.00    +0.017 A 
ATOM      5  C12 UNL     1       3.994   2.428 -30.155  0.00  0.00    +0.013 A 
ATOM      6  C13 UNL     1       4.480   1.370 -29.378  0.00  0.00    +0.024 A 
ENDROOT
BRANCH   4   7
ATOM      7  C14 UNL     1       2.706   3.338 -32.061  0.00  0.00    +0.139 A 
ATOM      8  N2  UNL     1       3.350   3.919 -33.059  0.00  0.00    -0.228 NA
ATOM      9  C15 UNL     1       2.543   4.936 -33.503  0.00  0.00    +0.090 A 
ATOM     10  C16 UNL     1       2.747   5.860 -34.536  0.00  0.00    +0.038 A 
ATOM     11  C17 UNL     1       1.757   6.824 -34.805  0.00  0.00    -0.016 A 
ATOM     12  C18 UNL     1       1.933   7.762 -35.834  0.00  0.00    +0.008 A 
ATOM     13  C19 UNL     1       0.955   8.720 -36.106  0.00  0.00    +0.001 A 
ATOM     14  C20 UNL     1      -0.213   8.751 -35.351  0.00  0.00    +0.001 A 
ATOM     15  C21 UNL     1      -0.406   7.826 -34.324  0.00  0.00    +0.008 A 
ATOM     16  C22 UNL     1       0.567   6.855 -34.036  0.00  0.00    -0.016 A 
ATOM     17  C23 UNL     1       0.361   5.927 -32.998  0.00  0.00    +0.036 A 
ATOM     18  C24 UNL     1       1.371   4.990 -32.767  0.00  0.00    +0.067 A 
ATOM     19  N3  UNL     1       1.496   3.969 -31.861  0.00  0.00    -0.338 N 
ATOM     20  H16 UNL     1       0.813   3.722 -31.162  0.00  0.00    +0.167 HD
ENDBRANCH   4   7
BRANCH   1  23
ATOM     21  C7  UNL     1       5.972  -1.516 -28.918  0.00  0.00    +0.248 C 
ATOM     22  O1  UNL     1       6.848  -1.201 -29.720  0.00  0.00    -0.270 OA
ATOM     23  N1  UNL     1       4.702  -0.963 -28.869  0.00  0.00    -0.282 N 
ATOM     24  H5  UNL     1       4.061  -1.297 -28.169  0.00  0.00    +0.155 HD
BRANCH  21  30
ATOM     25 BR1  UNL     1       8.564  -3.201 -24.467  0.00  0.00    -0.050 Br
ATOM     26  C1  UNL     1       7.398  -3.460 -25.935  0.00  0.00    +0.019 A 
ATOM     27  C2  UNL     1       6.793  -4.702 -26.118  0.00  0.00    +0.015 A 
ATOM     28  C3  UNL     1       5.937  -4.893 -27.197  0.00  0.00    +0.002 A 
ATOM     29  C4  UNL     1       5.691  -3.843 -28.085  0.00  0.00    +0.013 A 
ATOM     30  C5  UNL     1       6.298  -2.585 -27.910  0.00  0.00    +0.038 A 
ATOM     31  C6  UNL     1       7.158  -2.403 -26.819  0.00  0.00    +0.028 A 
ENDBRANCH  21  30
ENDBRANCH   1  23
TORSDOF 3
ENDMDL
MODEL 8
REMARK VINA RESULT:    -5.017     16.714     18.795
REMARK INTER + INTRA:          -6.475
REMARK INTER:                  -5.805
REMARK INTRA:                  -0.670
REMARK UNBOUND:                -0.579
REMARK  Name = /home/vital/Documents/PhD_2021/Malaria_codes/data/pdb_ligands_mmv/ligand_298.pdb
REMARK  3 active torsions:
REMARK  status: ('A' for Active; 'I' for Inactive)
REMARK    1  A    between atoms: C5_6  and  C7_8
REMARK    2  A    between atoms: N1_10  and  C8_11
REMARK    3  A    between atoms: C11_14  and  C14_17
REMARK                            x       y       z     vdW  Elec       q    Type
REMARK                         _______ _______ _______ _____ _____    ______ ____
ROOT
ATOM      1  C8  UNL     1      -2.745   6.311 -21.948  0.00  0.00    +0.034 A 
ATOM      2  C9  UNL     1      -1.360   6.476 -21.967  0.00  0.00    +0.024 A 
ATOM      3  C10 UNL     1      -0.577   6.098 -20.865  0.00  0.00    +0.013 A 
ATOM      4  C11 UNL     1      -1.162   5.546 -19.720  0.00  0.00    +0.017 A 
ATOM      5  C12 UNL     1      -2.554   5.384 -19.709  0.00  0.00    +0.013 A 
ATOM      6  C13 UNL     1      -3.336   5.761 -20.807  0.00  0.00    +0.024 A 
ENDROOT
BRANCH   4   7
ATOM      7  C14 UNL     1      -0.386   5.137 -18.544  0.00  0.00    +0.139 A 
ATOM      8  N2  UNL     1      -0.444   5.696 -17.347  0.00  0.00    -0.228 NA
ATOM      9  C15 UNL     1       0.438   5.007 -16.552  0.00  0.00    +0.090 A 
ATOM     10  C16 UNL     1       0.763   5.190 -15.202  0.00  0.00    +0.038 A 
ATOM     11  C17 UNL     1       1.713   4.343 -14.600  0.00  0.00    -0.016 A 
ATOM     12  C18 UNL     1       2.058   4.502 -13.249  0.00  0.00    +0.008 A 
ATOM     13  C19 UNL     1       2.999   3.665 -12.647  0.00  0.00    +0.001 A 
ATOM     14  C20 UNL     1       3.607   2.658 -13.390  0.00  0.00    +0.001 A 
ATOM     15  C21 UNL     1       3.276   2.486 -14.735  0.00  0.00    +0.008 A 
ATOM     16  C22 UNL     1       2.332   3.317 -15.358  0.00  0.00    -0.016 A 
ATOM     17  C23 UNL     1       2.006   3.133 -16.714  0.00  0.00    +0.036 A 
ATOM     18  C24 UNL     1       1.059   3.998 -17.269  0.00  0.00    +0.067 A 
ATOM     19  N3  UNL     1       0.521   4.098 -18.525  0.00  0.00    -0.338 N 
ATOM     20  H16 UNL     1       0.754   3.507 -19.308  0.00  0.00    +0.167 HD
ENDBRANCH   4   7
BRANCH   1  23
ATOM     21  C7  UNL     1      -4.234   7.883 -23.217  0.00  0.00    +0.248 C 
ATOM     22  O1  UNL     1      -4.130   8.862 -22.483  0.00  0.00    -0.270 OA
ATOM     23  N1  UNL     1      -3.606   6.665 -23.012  0.00  0.00    -0.282 N 
ATOM     24  H5  UNL     1      -3.760   5.927 -23.680  0.00  0.00    +0.155 HD
BRANCH  21  30
ATOM     25 BR1  UNL     1      -6.188  10.767 -27.368  0.00  0.00    -0.050 Br
ATOM     26  C1  UNL     1      -6.056   9.192 -26.329  0.00  0.00    +0.019 A 
ATOM     27  C2  UNL     1      -6.801   8.070 -26.688  0.00  0.00    +0.015 A 
ATOM     28  C3  UNL     1      -6.704   6.912 -25.924  0.00  0.00    +0.002 A 
ATOM     29  C4  UNL     1      -5.865   6.883 -24.807  0.00  0.00    +0.013 A 
ATOM     30  C5  UNL     1      -5.108   8.011 -24.435  0.00  0.00    +0.038 A 
ATOM     31  C6  UNL     1      -5.213   9.172 -25.212  0.00  0.00    +0.028 A 
ENDBRANCH  21  30
ENDBRANCH   1  23
TORSDOF 3
ENDMDL
MODEL 9
REMARK VINA RESULT:    -4.795     12.504     14.138
REMARK INTER + INTRA:          -6.214
REMARK INTER:                  -5.572
REMARK INTRA:                  -0.642
REMARK UNBOUND:                -0.579
REMARK  Name = /home/vital/Documents/PhD_2021/Malaria_codes/data/pdb_ligands_mmv/ligand_298.pdb
REMARK  3 active torsions:
REMARK  status: ('A' for Active; 'I' for Inactive)
REMARK    1  A    between atoms: C5_6  and  C7_8
REMARK    2  A    between atoms: N1_10  and  C8_11
REMARK    3  A    between atoms: C11_14  and  C14_17
REMARK                            x       y       z     vdW  Elec       q    Type
REMARK                         _______ _______ _______ _____ _____    ______ ____
ROOT
ATOM      1  C8  UNL     1      -5.302  -2.719 -26.981  0.00  0.00    +0.034 A 
ATOM      2  C9  UNL     1      -6.190  -3.605 -27.591  0.00  0.00    +0.024 A 
ATOM      3  C10 UNL     1      -6.878  -3.242 -28.759  0.00  0.00    +0.013 A 
ATOM      4  C11 UNL     1      -6.694  -1.983 -29.342  0.00  0.00    +0.017 A 
ATOM      5  C12 UNL     1      -5.801  -1.099 -28.724  0.00  0.00    +0.013 A 
ATOM      6  C13 UNL     1      -5.113  -1.460 -27.559  0.00  0.00    +0.024 A 
ENDROOT
BRANCH   4   7
ATOM      7  C14 UNL     1      -7.391  -1.558 -30.562  0.00  0.00    +0.139 A 
ATOM      8  N2  UNL     1      -8.264  -2.281 -31.244  0.00  0.00    -0.228 NA
ATOM      9  C15 UNL     1      -8.666  -1.506 -32.303  0.00  0.00    +0.090 A 
ATOM     10  C16 UNL     1      -9.577  -1.790 -33.330  0.00  0.00    +0.038 A 
ATOM     11  C17 UNL     1      -9.826  -0.820 -34.318  0.00  0.00    -0.016 A 
ATOM     12  C18 UNL     1     -10.733  -1.076 -35.358  0.00  0.00    +0.008 A 
ATOM     13  C19 UNL     1     -10.985  -0.117 -36.341  0.00  0.00    +0.001 A 
ATOM     14  C20 UNL     1     -10.333   1.111 -36.295  0.00  0.00    +0.001 A 
ATOM     15  C21 UNL     1      -9.429   1.383 -35.268  0.00  0.00    +0.008 A 
ATOM     16  C22 UNL     1      -9.162   0.431 -34.270  0.00  0.00    -0.016 A 
ATOM     17  C23 UNL     1      -8.248   0.718 -33.239  0.00  0.00    +0.036 A 
ATOM     18  C24 UNL     1      -8.031  -0.276 -32.282  0.00  0.00    +0.067 A 
ATOM     19  N3  UNL     1      -7.230  -0.332 -31.171  0.00  0.00    -0.338 N 
ATOM     20  H16 UNL     1      -6.621   0.406 -30.854  0.00  0.00    +0.167 HD
ENDBRANCH   4   7
BRANCH   1  23
ATOM     21  C7  UNL     1      -5.047  -3.041 -24.505  0.00  0.00    +0.248 C 
ATOM     22  O1  UNL     1      -6.210  -2.825 -24.174  0.00  0.00    -0.270 OA
ATOM     23  N1  UNL     1      -4.570  -3.004 -25.805  0.00  0.00    -0.282 N 
ATOM     24  H5  UNL     1      -3.595  -3.198 -25.964  0.00  0.00    +0.155 HD
BRANCH  21  30
ATOM     25 BR1  UNL     1      -1.329  -6.319 -22.316  0.00  0.00    -0.050 Br
ATOM     26  C1  UNL     1      -2.383  -4.748 -22.337  0.00  0.00    +0.019 A 
ATOM     27  C2  UNL     1      -2.260  -3.827 -21.299  0.00  0.00    +0.015 A 
ATOM     28  C3  UNL     1      -3.035  -2.672 -21.314  0.00  0.00    +0.002 A 
ATOM     29  C4  UNL     1      -3.927  -2.447 -22.365  0.00  0.00    +0.013 A 
ATOM     30  C5  UNL     1      -4.060  -3.371 -23.418  0.00  0.00    +0.038 A 
ATOM     31  C6  UNL     1      -3.274  -4.531 -23.394  0.00  0.00    +0.028 A 
ENDBRANCH  21  30
ENDBRANCH   1  23
TORSDOF 3
ENDMDL
