MODEL 1
REMARK VINA RESULT:    -5.867      0.000      0.000
REMARK INTER + INTRA:          -8.735
REMARK INTER:                  -7.581
REMARK INTRA:                  -1.153
REMARK UNBOUND:                -1.153
REMARK  Name = /home/vital/Documents/PhD_2021/Malaria_codes/data/pdb_ligands_mmv/ligand_231.pdb
REMARK  6 active torsions:
REMARK  status: ('A' for Active; 'I' for Inactive)
REMARK    1  A    between atoms: C3_4  and  C4_5
REMARK    2  A    between atoms: N3_8  and  C6_9
REMARK    3  A    between atoms: C11_14  and  N4_15
REMARK    4  A    between atoms: C12_16  and  C13_17
REMARK    5  A    between atoms: C13_17  and  C14_18
REMARK    6  A    between atoms: C14_18  and  C15_19
REMARK                            x       y       z     vdW  Elec       q    Type
REMARK                         _______ _______ _______ _____ _____    ______ ____
ROOT
ATOM      1  C6  UNL     1       0.341  -6.596 -27.764  0.00  0.00    +0.034 A 
ATOM      2  C7  UNL     1      -0.744  -5.772 -27.433  0.00  0.00    +0.025 A 
ATOM      3  C8  UNL     1      -0.748  -4.991 -26.268  0.00  0.00    +0.025 A 
ATOM      4  C9  UNL     1       1.419  -6.619 -26.879  0.00  0.00    +0.025 A 
ATOM      5  C10 UNL     1       1.421  -5.841 -25.713  0.00  0.00    +0.025 A 
ATOM      6  C11 UNL     1       0.336  -5.018 -25.398  0.00  0.00    +0.033 A 
ENDROOT
BRANCH   1  14
ATOM      7  N1  UNL     1       1.755  -6.315 -30.492  0.00  0.00    -0.199 NA
ATOM      8  C1  UNL     1       2.292  -6.285 -31.725  0.00  0.00    +0.127 A 
ATOM      9  C2  UNL     1       1.894  -7.199 -32.678  0.00  0.00    +0.066 A 
ATOM     10  C3  UNL     1       0.960  -8.142 -32.307  0.00  0.00    +0.045 A 
ATOM     11  C4  UNL     1       0.484  -9.164 -33.295  0.00  0.00    +0.066 C 
ATOM     12  N2  UNL     1       0.438  -8.188 -31.069  0.00  0.00    -0.219 NA
ATOM     13  C5  UNL     1       0.851  -7.259 -30.194  0.00  0.00    +0.221 A 
ATOM     14  N3  UNL     1       0.271  -7.358 -28.932  0.00  0.00    -0.284 N 
ATOM     15  N5  UNL     1       3.213  -5.299 -32.014  0.00  0.00    -0.315 N 
ATOM     16  C21 UNL     1       3.640  -4.395 -30.953  0.00  0.00    +0.106 C 
ATOM     17  C22 UNL     1       4.736  -3.573 -31.624  0.00  0.00    +0.020 C 
ATOM     18  C23 UNL     1       5.410  -4.597 -32.524  0.00  0.00    +0.020 C 
ATOM     19  C24 UNL     1       4.248  -5.452 -33.033  0.00  0.00    +0.106 C 
ATOM     20  H5  UNL     1      -0.374  -8.135 -28.937  0.00  0.00    +0.155 HD
ENDBRANCH   1  14
BRANCH   6  21
ATOM     21  N4  UNL     1       0.419  -4.268 -24.207  0.00  0.00    -0.285 N 
ATOM     22  C12 UNL     1      -0.153  -4.564 -22.980  0.00  0.00    +0.218 C 
ATOM     23  O1  UNL     1      -0.839  -5.543 -22.710  0.00  0.00    -0.275 OA
ATOM     24  H10 UNL     1       0.960  -3.414 -24.261  0.00  0.00    +0.155 HD
BRANCH  22  25
ATOM     25  C13 UNL     1       0.173  -3.497 -21.949  0.00  0.00    +0.101 C 
BRANCH  25  26
ATOM     26  C14 UNL     1       1.469  -2.762 -22.279  0.00  0.00    +0.044 C 
BRANCH  26  27
ATOM     27  C15 UNL     1       2.664  -3.462 -21.679  0.00  0.00    -0.047 A 
ATOM     28  C16 UNL     1       3.729  -3.871 -22.492  0.00  0.00    +0.003 A 
ATOM     29  C17 UNL     1       4.823  -4.540 -21.940  0.00  0.00    +0.000 A 
ATOM     30  C18 UNL     1       4.860  -4.808 -20.572  0.00  0.00    +0.000 A 
ATOM     31  C19 UNL     1       3.803  -4.409 -19.756  0.00  0.00    +0.000 A 
ATOM     32  C20 UNL     1       2.708  -3.740 -20.307  0.00  0.00    +0.003 A 
ENDBRANCH  26  27
ENDBRANCH  25  26
ENDBRANCH  22  25
ENDBRANCH   6  21
TORSDOF 5
ENDMDL
MODEL 2
REMARK VINA RESULT:    -5.853      2.478      3.882
REMARK INTER + INTRA:          -8.717
REMARK INTER:                  -7.951
REMARK INTRA:                  -0.766
REMARK UNBOUND:                -1.153
REMARK  Name = /home/vital/Documents/PhD_2021/Malaria_codes/data/pdb_ligands_mmv/ligand_231.pdb
REMARK  6 active torsions:
REMARK  status: ('A' for Active; 'I' for Inactive)
REMARK    1  A    between atoms: C3_4  and  C4_5
REMARK    2  A    between atoms: N3_8  and  C6_9
REMARK    3  A    between atoms: C11_14  and  N4_15
REMARK    4  A    between atoms: C12_16  and  C13_17
REMARK    5  A    between atoms: C13_17  and  C14_18
REMARK    6  A    between atoms: C14_18  and  C15_19
REMARK                            x       y       z     vdW  Elec       q    Type
REMARK                         _______ _______ _______ _____ _____    ______ ____
ROOT
ATOM      1  C6  UNL     1      -0.063  -6.680 -28.338  0.00  0.00    +0.034 A 
ATOM      2  C7  UNL     1      -1.305  -6.103 -28.033  0.00  0.00    +0.025 A 
ATOM      3  C8  UNL     1      -1.533  -5.446 -26.815  0.00  0.00    +0.025 A 
ATOM      4  C9  UNL     1       0.940  -6.584 -27.373  0.00  0.00    +0.025 A 
ATOM      5  C10 UNL     1       0.718  -5.928 -26.154  0.00  0.00    +0.025 A 
ATOM      6  C11 UNL     1      -0.522  -5.352 -25.865  0.00  0.00    +0.033 A 
ENDROOT
BRANCH   1  14
ATOM      7  N1  UNL     1       1.774  -6.121 -30.753  0.00  0.00    -0.199 NA
ATOM      8  C1  UNL     1       2.507  -5.966 -31.869  0.00  0.00    +0.127 A 
ATOM      9  C2  UNL     1       2.307  -6.797 -32.953  0.00  0.00    +0.066 A 
ATOM     10  C3  UNL     1       1.358  -7.789 -32.828  0.00  0.00    +0.045 A 
ATOM     11  C4  UNL     1       1.089  -8.725 -33.967  0.00  0.00    +0.066 C 
ATOM     12  N2  UNL     1       0.639  -7.959 -31.705  0.00  0.00    -0.219 NA
ATOM     13  C5  UNL     1       0.868  -7.106 -30.695  0.00  0.00    +0.221 A 
ATOM     14  N3  UNL     1       0.089  -7.332 -29.563  0.00  0.00    -0.284 N 
ATOM     15  N5  UNL     1       3.428  -4.940 -31.912  0.00  0.00    -0.315 N 
ATOM     16  C21 UNL     1       3.640  -4.128 -30.719  0.00  0.00    +0.106 C 
ATOM     17  C22 UNL     1       4.802  -3.226 -31.121  0.00  0.00    +0.020 C 
ATOM     18  C23 UNL     1       5.653  -4.148 -31.980  0.00  0.00    +0.020 C 
ATOM     19  C24 UNL     1       4.623  -4.977 -32.750  0.00  0.00    +0.106 C 
ATOM     20  H5  UNL     1      -0.518  -8.118 -29.744  0.00  0.00    +0.155 HD
ENDBRANCH   1  14
BRANCH   6  21
ATOM     21  N4  UNL     1      -0.662  -4.711 -24.617  0.00  0.00    -0.285 N 
ATOM     22  C12 UNL     1      -1.032  -5.281 -23.410  0.00  0.00    +0.218 C 
ATOM     23  O1  UNL     1      -1.307  -6.458 -23.213  0.00  0.00    -0.275 OA
ATOM     24  H10 UNL     1      -0.467  -3.717 -24.609  0.00  0.00    +0.155 HD
BRANCH  22  25
ATOM     25  C13 UNL     1      -1.066  -4.246 -22.300  0.00  0.00    +0.101 C 
BRANCH  25  26
ATOM     26  C14 UNL     1      -2.246  -4.459 -21.356  0.00  0.00    +0.044 C 
BRANCH  26  27
ATOM     27  C15 UNL     1      -3.086  -3.210 -21.239  0.00  0.00    -0.047 A 
ATOM     28  C16 UNL     1      -3.055  -2.441 -20.068  0.00  0.00    +0.003 A 
ATOM     29  C17 UNL     1      -3.850  -1.299 -19.952  0.00  0.00    +0.000 A 
ATOM     30  C18 UNL     1      -4.685  -0.920 -21.002  0.00  0.00    +0.000 A 
ATOM     31  C19 UNL     1      -4.726  -1.681 -22.169  0.00  0.00    +0.000 A 
ATOM     32  C20 UNL     1      -3.931  -2.823 -22.287  0.00  0.00    +0.003 A 
ENDBRANCH  26  27
ENDBRANCH  25  26
ENDBRANCH  22  25
ENDBRANCH   6  21
TORSDOF 5
ENDMDL
MODEL 3
REMARK VINA RESULT:    -5.605      7.076     13.617
REMARK INTER + INTRA:          -8.397
REMARK INTER:                  -7.635
REMARK INTRA:                  -0.762
REMARK UNBOUND:                -1.153
REMARK  Name = /home/vital/Documents/PhD_2021/Malaria_codes/data/pdb_ligands_mmv/ligand_231.pdb
REMARK  6 active torsions:
REMARK  status: ('A' for Active; 'I' for Inactive)
REMARK    1  A    between atoms: C3_4  and  C4_5
REMARK    2  A    between atoms: N3_8  and  C6_9
REMARK    3  A    between atoms: C11_14  and  N4_15
REMARK    4  A    between atoms: C12_16  and  C13_17
REMARK    5  A    between atoms: C13_17  and  C14_18
REMARK    6  A    between atoms: C14_18  and  C15_19
REMARK                            x       y       z     vdW  Elec       q    Type
REMARK                         _______ _______ _______ _____ _____    ______ ____
ROOT
ATOM      1  C6  UNL     1       3.156   0.483 -17.441  0.00  0.00    +0.034 A 
ATOM      2  C7  UNL     1       4.377   0.488 -18.131  0.00  0.00    +0.025 A 
ATOM      3  C8  UNL     1       4.597  -0.332 -19.247  0.00  0.00    +0.025 A 
ATOM      4  C9  UNL     1       2.165  -0.385 -17.903  0.00  0.00    +0.025 A 
ATOM      5  C10 UNL     1       2.379  -1.207 -19.018  0.00  0.00    +0.025 A 
ATOM      6  C11 UNL     1       3.598  -1.187 -19.701  0.00  0.00    +0.033 A 
ENDROOT
BRANCH   1  14
ATOM      7  N1  UNL     1       1.362   2.939 -16.927  0.00  0.00    -0.199 NA
ATOM      8  C1  UNL     1       0.647   4.029 -16.595  0.00  0.00    +0.127 A 
ATOM      9  C2  UNL     1       0.851   4.649 -15.379  0.00  0.00    +0.066 A 
ATOM     10  C3  UNL     1       1.783   4.095 -14.529  0.00  0.00    +0.045 A 
ATOM     11  C4  UNL     1       2.054   4.719 -13.194  0.00  0.00    +0.066 C 
ATOM     12  N2  UNL     1       2.483   2.993 -14.851  0.00  0.00    -0.219 NA
ATOM     13  C5  UNL     1       2.253   2.449 -16.054  0.00  0.00    +0.221 A 
ATOM     14  N3  UNL     1       3.012   1.314 -16.328  0.00  0.00    -0.284 N 
ATOM     15  N5  UNL     1      -0.258   4.524 -17.511  0.00  0.00    -0.315 N 
ATOM     16  C21 UNL     1      -0.475   3.796 -18.757  0.00  0.00    +0.106 C 
ATOM     17  C22 UNL     1      -1.618   4.567 -19.409  0.00  0.00    +0.020 C 
ATOM     18  C23 UNL     1      -2.470   4.966 -18.214  0.00  0.00    +0.020 C 
ATOM     19  C24 UNL     1      -1.441   5.288 -17.128  0.00  0.00    +0.106 C 
ATOM     20  H5  UNL     1       3.610   1.131 -15.536  0.00  0.00    +0.155 HD
ENDBRANCH   1  14
BRANCH   6  21
ATOM     21  N4  UNL     1       3.731  -2.044 -20.812  0.00  0.00    -0.285 N 
ATOM     22  C12 UNL     1       4.149  -3.365 -20.816  0.00  0.00    +0.218 C 
ATOM     23  O1  UNL     1       4.480  -4.029 -19.841  0.00  0.00    -0.275 OA
ATOM     24  H10 UNL     1       3.492  -1.641 -21.710  0.00  0.00    +0.155 HD
BRANCH  22  25
ATOM     25  C13 UNL     1       4.155  -3.936 -22.223  0.00  0.00    +0.101 C 
BRANCH  25  26
ATOM     26  C14 UNL     1       5.271  -4.959 -22.419  0.00  0.00    +0.044 C 
BRANCH  26  27
ATOM     27  C15 UNL     1       6.097  -4.639 -23.641  0.00  0.00    -0.047 A 
ATOM     28  C16 UNL     1       7.068  -3.630 -23.598  0.00  0.00    +0.003 A 
ATOM     29  C17 UNL     1       7.816  -3.320 -24.735  0.00  0.00    +0.000 A 
ATOM     30  C18 UNL     1       7.596  -4.011 -25.926  0.00  0.00    +0.000 A 
ATOM     31  C19 UNL     1       6.629  -5.013 -25.980  0.00  0.00    +0.000 A 
ATOM     32  C20 UNL     1       5.881  -5.325 -24.844  0.00  0.00    +0.003 A 
ENDBRANCH  26  27
ENDBRANCH  25  26
ENDBRANCH  22  25
ENDBRANCH   6  21
TORSDOF 5
ENDMDL
MODEL 4
REMARK VINA RESULT:    -5.604      6.830     13.533
REMARK INTER + INTRA:          -8.395
REMARK INTER:                  -7.622
REMARK INTRA:                  -0.773
REMARK UNBOUND:                -1.153
REMARK  Name = /home/vital/Documents/PhD_2021/Malaria_codes/data/pdb_ligands_mmv/ligand_231.pdb
REMARK  6 active torsions:
REMARK  status: ('A' for Active; 'I' for Inactive)
REMARK    1  A    between atoms: C3_4  and  C4_5
REMARK    2  A    between atoms: N3_8  and  C6_9
REMARK    3  A    between atoms: C11_14  and  N4_15
REMARK    4  A    between atoms: C12_16  and  C13_17
REMARK    5  A    between atoms: C13_17  and  C14_18
REMARK    6  A    between atoms: C14_18  and  C15_19
REMARK                            x       y       z     vdW  Elec       q    Type
REMARK                         _______ _______ _______ _____ _____    ______ ____
ROOT
ATOM      1  C6  UNL     1       2.397  -0.303 -18.031  0.00  0.00    +0.034 A 
ATOM      2  C7  UNL     1       3.463  -0.007 -18.893  0.00  0.00    +0.025 A 
ATOM      3  C8  UNL     1       3.945  -0.944 -19.818  0.00  0.00    +0.025 A 
ATOM      4  C9  UNL     1       1.838  -1.578 -18.120  0.00  0.00    +0.025 A 
ATOM      5  C10 UNL     1       2.315  -2.519 -19.043  0.00  0.00    +0.025 A 
ATOM      6  C11 UNL     1       3.373  -2.210 -19.902  0.00  0.00    +0.033 A 
ENDROOT
BRANCH   1  14
ATOM      7  N1  UNL     1       3.956   1.427 -16.008  0.00  0.00    -0.199 NA
ATOM      8  C1  UNL     1       4.522   2.218 -15.079  0.00  0.00    +0.127 A 
ATOM      9  C2  UNL     1       3.736   3.026 -14.282  0.00  0.00    +0.066 A 
ATOM     10  C3  UNL     1       2.375   3.003 -14.498  0.00  0.00    +0.045 A 
ATOM     11  C4  UNL     1       1.464   3.855 -13.667  0.00  0.00    +0.066 C 
ATOM     12  N2  UNL     1       1.810   2.229 -15.440  0.00  0.00    -0.219 NA
ATOM     13  C5  UNL     1       2.626   1.453 -16.168  0.00  0.00    +0.221 A 
ATOM     14  N3  UNL     1       1.979   0.673 -17.124  0.00  0.00    -0.284 N 
ATOM     15  N5  UNL     1       5.892   2.170 -14.923  0.00  0.00    -0.315 N 
ATOM     16  C21 UNL     1       6.680   1.343 -15.830  0.00  0.00    +0.106 C 
ATOM     17  C22 UNL     1       8.115   1.667 -15.428  0.00  0.00    +0.020 C 
ATOM     18  C23 UNL     1       8.036   3.147 -15.091  0.00  0.00    +0.020 C 
ATOM     19  C24 UNL     1       6.674   3.290 -14.408  0.00  0.00    +0.106 C 
ATOM     20  H5  UNL     1       0.988   0.853 -17.065  0.00  0.00    +0.155 HD
ENDBRANCH   1  14
BRANCH   6  21
ATOM     21  N4  UNL     1       3.792  -3.212 -20.800  0.00  0.00    -0.285 N 
ATOM     22  C12 UNL     1       4.865  -4.077 -20.662  0.00  0.00    +0.218 C 
ATOM     23  O1  UNL     1       5.649  -4.124 -19.721  0.00  0.00    -0.275 OA
ATOM     24  H10 UNL     1       3.239  -3.306 -21.644  0.00  0.00    +0.155 HD
BRANCH  22  25
ATOM     25  C13 UNL     1       4.978  -5.010 -21.855  0.00  0.00    +0.101 C 
BRANCH  25  26
ATOM     26  C14 UNL     1       4.579  -4.323 -23.157  0.00  0.00    +0.044 C 
BRANCH  26  27
ATOM     27  C15 UNL     1       5.743  -4.244 -24.113  0.00  0.00    -0.047 A 
ATOM     28  C16 UNL     1       5.747  -5.002 -25.292  0.00  0.00    +0.003 A 
ATOM     29  C17 UNL     1       6.836  -4.946 -26.164  0.00  0.00    +0.000 A 
ATOM     30  C18 UNL     1       7.930  -4.136 -25.865  0.00  0.00    +0.000 A 
ATOM     31  C19 UNL     1       7.938  -3.382 -24.693  0.00  0.00    +0.000 A 
ATOM     32  C20 UNL     1       6.850  -3.436 -23.819  0.00  0.00    +0.003 A 
ENDBRANCH  26  27
ENDBRANCH  25  26
ENDBRANCH  22  25
ENDBRANCH   6  21
TORSDOF 5
ENDMDL
MODEL 5
REMARK VINA RESULT:    -5.579      9.981     14.951
REMARK INTER + INTRA:          -8.364
REMARK INTER:                  -7.649
REMARK INTRA:                  -0.715
REMARK UNBOUND:                -1.153
REMARK  Name = /home/vital/Documents/PhD_2021/Malaria_codes/data/pdb_ligands_mmv/ligand_231.pdb
REMARK  6 active torsions:
REMARK  status: ('A' for Active; 'I' for Inactive)
REMARK    1  A    between atoms: C3_4  and  C4_5
REMARK    2  A    between atoms: N3_8  and  C6_9
REMARK    3  A    between atoms: C11_14  and  N4_15
REMARK    4  A    between atoms: C12_16  and  C13_17
REMARK    5  A    between atoms: C13_17  and  C14_18
REMARK    6  A    between atoms: C14_18  and  C15_19
REMARK                            x       y       z     vdW  Elec       q    Type
REMARK                         _______ _______ _______ _____ _____    ______ ____
ROOT
ATOM      1  C6  UNL     1      -0.047   5.899 -18.437  0.00  0.00    +0.034 A 
ATOM      2  C7  UNL     1      -1.204   6.158 -19.187  0.00  0.00    +0.025 A 
ATOM      3  C8  UNL     1      -1.895   5.137 -19.854  0.00  0.00    +0.025 A 
ATOM      4  C9  UNL     1       0.400   4.578 -18.390  0.00  0.00    +0.025 A 
ATOM      5  C10 UNL     1      -0.286   3.552 -19.055  0.00  0.00    +0.025 A 
ATOM      6  C11 UNL     1      -1.442   3.823 -19.793  0.00  0.00    +0.033 A 
ENDROOT
BRANCH   1  14
ATOM      7  N1  UNL     1       2.047   7.920 -19.460  0.00  0.00    -0.199 NA
ATOM      8  C1  UNL     1       2.972   8.840 -19.783  0.00  0.00    +0.127 A 
ATOM      9  C2  UNL     1       3.446   9.715 -18.827  0.00  0.00    +0.066 A 
ATOM     10  C3  UNL     1       2.916   9.621 -17.558  0.00  0.00    +0.045 A 
ATOM     11  C4  UNL     1       3.387  10.540 -16.472  0.00  0.00    +0.066 C 
ATOM     12  N2  UNL     1       1.975   8.716 -17.238  0.00  0.00    -0.219 NA
ATOM     13  C5  UNL     1       1.571   7.882 -18.207  0.00  0.00    +0.221 A 
ATOM     14  N3  UNL     1       0.599   6.967 -17.811  0.00  0.00    -0.284 N 
ATOM     15  N5  UNL     1       3.456   8.857 -21.075  0.00  0.00    -0.315 N 
ATOM     16  C21 UNL     1       2.879   7.948 -22.060  0.00  0.00    +0.106 C 
ATOM     17  C22 UNL     1       3.566   8.367 -23.355  0.00  0.00    +0.020 C 
ATOM     18  C23 UNL     1       3.679   9.875 -23.195  0.00  0.00    +0.020 C 
ATOM     19  C24 UNL     1       3.992  10.058 -21.709  0.00  0.00    +0.106 C 
ATOM     20  H5  UNL     1       0.395   7.120 -16.835  0.00  0.00    +0.155 HD
ENDBRANCH   1  14
BRANCH   6  21
ATOM     21  N4  UNL     1      -2.071   2.735 -20.430  0.00  0.00    -0.285 N 
ATOM     22  C12 UNL     1      -3.279   2.142 -20.097  0.00  0.00    +0.218 C 
ATOM     23  O1  UNL     1      -4.021   2.465 -19.178  0.00  0.00    -0.275 OA
ATOM     24  H10 UNL     1      -1.578   2.345 -21.224  0.00  0.00    +0.155 HD
BRANCH  22  25
ATOM     25  C13 UNL     1      -3.605   0.993 -21.035  0.00  0.00    +0.101 C 
BRANCH  25  26
ATOM     26  C14 UNL     1      -4.285  -0.163 -20.307  0.00  0.00    +0.044 C 
BRANCH  26  27
ATOM     27  C15 UNL     1      -3.890  -1.492 -20.903  0.00  0.00    -0.047 A 
ATOM     28  C16 UNL     1      -3.261  -2.464 -20.114  0.00  0.00    +0.003 A 
ATOM     29  C17 UNL     1      -2.876  -3.685 -20.672  0.00  0.00    +0.000 A 
ATOM     30  C18 UNL     1      -3.111  -3.942 -22.022  0.00  0.00    +0.000 A 
ATOM     31  C19 UNL     1      -3.732  -2.979 -22.815  0.00  0.00    +0.000 A 
ATOM     32  C20 UNL     1      -4.119  -1.758 -22.259  0.00  0.00    +0.003 A 
ENDBRANCH  26  27
ENDBRANCH  25  26
ENDBRANCH  22  25
ENDBRANCH   6  21
TORSDOF 5
ENDMDL
MODEL 6
REMARK VINA RESULT:    -5.377      7.739     11.251
REMARK INTER + INTRA:          -8.102
REMARK INTER:                  -6.995
REMARK INTRA:                  -1.107
REMARK UNBOUND:                -1.153
REMARK  Name = /home/vital/Documents/PhD_2021/Malaria_codes/data/pdb_ligands_mmv/ligand_231.pdb
REMARK  6 active torsions:
REMARK  status: ('A' for Active; 'I' for Inactive)
REMARK    1  A    between atoms: C3_4  and  C4_5
REMARK    2  A    between atoms: N3_8  and  C6_9
REMARK    3  A    between atoms: C11_14  and  N4_15
REMARK    4  A    between atoms: C12_16  and  C13_17
REMARK    5  A    between atoms: C13_17  and  C14_18
REMARK    6  A    between atoms: C14_18  and  C15_19
REMARK                            x       y       z     vdW  Elec       q    Type
REMARK                         _______ _______ _______ _____ _____    ______ ____
ROOT
ATOM      1  C6  UNL     1      -1.170  -0.521 -35.225  0.00  0.00    +0.034 A 
ATOM      2  C7  UNL     1      -0.976  -1.347 -36.342  0.00  0.00    +0.025 A 
ATOM      3  C8  UNL     1      -0.156  -2.483 -36.286  0.00  0.00    +0.025 A 
ATOM      4  C9  UNL     1      -0.502  -0.868 -34.050  0.00  0.00    +0.025 A 
ATOM      5  C10 UNL     1       0.319  -2.003 -33.987  0.00  0.00    +0.025 A 
ATOM      6  C11 UNL     1       0.498  -2.822 -35.106  0.00  0.00    +0.033 A 
ENDROOT
BRANCH   1  14
ATOM      7  N1  UNL     1      -4.174  -0.086 -34.676  0.00  0.00    -0.199 NA
ATOM      8  C1  UNL     1      -5.471   0.219 -34.493  0.00  0.00    +0.127 A 
ATOM      9  C2  UNL     1      -5.945   1.470 -34.831  0.00  0.00    +0.066 A 
ATOM     10  C3  UNL     1      -5.039   2.382 -35.327  0.00  0.00    +0.045 A 
ATOM     11  C4  UNL     1      -5.488   3.759 -35.714  0.00  0.00    +0.066 C 
ATOM     12  N2  UNL     1      -3.738   2.087 -35.490  0.00  0.00    -0.219 NA
ATOM     13  C5  UNL     1      -3.344   0.847 -35.162  0.00  0.00    +0.221 A 
ATOM     14  N3  UNL     1      -1.987   0.603 -35.357  0.00  0.00    -0.284 N 
ATOM     15  N5  UNL     1      -6.311  -0.759 -34.001  0.00  0.00    -0.315 N 
ATOM     16  C21 UNL     1      -5.747  -2.045 -33.606  0.00  0.00    +0.106 C 
ATOM     17  C22 UNL     1      -6.943  -2.771 -32.999  0.00  0.00    +0.020 C 
ATOM     18  C23 UNL     1      -7.691  -1.647 -32.301  0.00  0.00    +0.020 C 
ATOM     19  C24 UNL     1      -7.528  -0.459 -33.252  0.00  0.00    +0.106 C 
ATOM     20  H5  UNL     1      -1.562   1.441 -35.728  0.00  0.00    +0.155 HD
ENDBRANCH   1  14
BRANCH   6  21
ATOM     21  N4  UNL     1       1.339  -3.943 -34.958  0.00  0.00    -0.285 N 
ATOM     22  C12 UNL     1       0.972  -5.239 -34.631  0.00  0.00    +0.218 C 
ATOM     23  O1  UNL     1      -0.163  -5.643 -34.410  0.00  0.00    -0.275 OA
ATOM     24  H10 UNL     1       2.327  -3.776 -35.109  0.00  0.00    +0.155 HD
BRANCH  22  25
ATOM     25  C13 UNL     1       2.182  -6.155 -34.570  0.00  0.00    +0.101 C 
BRANCH  25  26
ATOM     26  C14 UNL     1       2.601  -6.452 -33.133  0.00  0.00    +0.044 C 
BRANCH  26  27
ATOM     27  C15 UNL     1       3.571  -5.417 -32.620  0.00  0.00    -0.047 A 
ATOM     28  C16 UNL     1       3.134  -4.397 -31.764  0.00  0.00    +0.003 A 
ATOM     29  C17 UNL     1       4.027  -3.425 -31.309  0.00  0.00    +0.000 A 
ATOM     30  C18 UNL     1       5.363  -3.462 -31.708  0.00  0.00    +0.000 A 
ATOM     31  C19 UNL     1       5.806  -4.471 -32.562  0.00  0.00    +0.000 A 
ATOM     32  C20 UNL     1       4.914  -5.443 -33.018  0.00  0.00    +0.003 A 
ENDBRANCH  26  27
ENDBRANCH  25  26
ENDBRANCH  22  25
ENDBRANCH   6  21
TORSDOF 5
ENDMDL
MODEL 7
REMARK VINA RESULT:    -5.254     10.713     13.439
REMARK INTER + INTRA:          -7.943
REMARK INTER:                  -7.117
REMARK INTRA:                  -0.825
REMARK UNBOUND:                -1.153
REMARK  Name = /home/vital/Documents/PhD_2021/Malaria_codes/data/pdb_ligands_mmv/ligand_231.pdb
REMARK  6 active torsions:
REMARK  status: ('A' for Active; 'I' for Inactive)
REMARK    1  A    between atoms: C3_4  and  C4_5
REMARK    2  A    between atoms: N3_8  and  C6_9
REMARK    3  A    between atoms: C11_14  and  N4_15
REMARK    4  A    between atoms: C12_16  and  C13_17
REMARK    5  A    between atoms: C13_17  and  C14_18
REMARK    6  A    between atoms: C14_18  and  C15_19
REMARK                            x       y       z     vdW  Elec       q    Type
REMARK                         _______ _______ _______ _____ _____    ______ ____
ROOT
ATOM      1  C6  UNL     1      -8.136   3.125 -24.288  0.00  0.00    +0.034 A 
ATOM      2  C7  UNL     1      -8.936   1.975 -24.231  0.00  0.00    +0.025 A 
ATOM      3  C8  UNL     1      -8.379   0.694 -24.112  0.00  0.00    +0.025 A 
ATOM      4  C9  UNL     1      -6.753   2.945 -24.233  0.00  0.00    +0.025 A 
ATOM      5  C10 UNL     1      -6.190   1.667 -24.114  0.00  0.00    +0.025 A 
ATOM      6  C11 UNL     1      -6.999   0.529 -24.051  0.00  0.00    +0.033 A 
ENDROOT
BRANCH   1  14
ATOM      7  N1  UNL     1      -9.364   4.556 -26.730  0.00  0.00    -0.199 NA
ATOM      8  C1  UNL     1      -9.909   5.285 -27.720  0.00  0.00    +0.127 A 
ATOM      9  C2  UNL     1     -10.364   6.564 -27.472  0.00  0.00    +0.066 A 
ATOM     10  C3  UNL     1     -10.260   7.038 -26.182  0.00  0.00    +0.045 A 
ATOM     11  C4  UNL     1     -10.735   8.419 -25.844  0.00  0.00    +0.066 C 
ATOM     12  N2  UNL     1      -9.736   6.303 -25.186  0.00  0.00    -0.219 NA
ATOM     13  C5  UNL     1      -9.294   5.076 -25.496  0.00  0.00    +0.221 A 
ATOM     14  N3  UNL     1      -8.758   4.368 -24.423  0.00  0.00    -0.284 N 
ATOM     15  N5  UNL     1      -9.964   4.736 -28.984  0.00  0.00    -0.315 N 
ATOM     16  C21 UNL     1      -9.522   3.359 -29.179  0.00  0.00    +0.106 C 
ATOM     17  C22 UNL     1      -9.867   3.092 -30.640  0.00  0.00    +0.020 C 
ATOM     18  C23 UNL     1     -11.170   3.856 -30.815  0.00  0.00    +0.020 C 
ATOM     19  C24 UNL     1     -10.965   5.119 -29.976  0.00  0.00    +0.106 C 
ATOM     20  H5  UNL     1      -8.807   4.950 -23.600  0.00  0.00    +0.155 HD
ENDBRANCH   1  14
BRANCH   6  21
ATOM     21  N4  UNL     1      -6.352  -0.718 -23.931  0.00  0.00    -0.285 N 
ATOM     22  C12 UNL     1      -5.827  -1.500 -24.947  0.00  0.00    +0.218 C 
ATOM     23  O1  UNL     1      -5.831  -1.241 -26.144  0.00  0.00    -0.275 OA
ATOM     24  H10 UNL     1      -6.266  -1.080 -22.988  0.00  0.00    +0.155 HD
BRANCH  22  25
ATOM     25  C13 UNL     1      -5.213  -2.776 -24.398  0.00  0.00    +0.101 C 
BRANCH  25  26
ATOM     26  C14 UNL     1      -4.473  -2.536 -23.085  0.00  0.00    +0.044 C 
BRANCH  26  27
ATOM     27  C15 UNL     1      -3.459  -3.621 -22.822  0.00  0.00    -0.047 A 
ATOM     28  C16 UNL     1      -3.352  -4.718 -23.687  0.00  0.00    +0.003 A 
ATOM     29  C17 UNL     1      -2.430  -5.734 -23.430  0.00  0.00    +0.000 A 
ATOM     30  C18 UNL     1      -1.610  -5.664 -22.304  0.00  0.00    +0.000 A 
ATOM     31  C19 UNL     1      -1.712  -4.580 -21.435  0.00  0.00    +0.000 A 
ATOM     32  C20 UNL     1      -2.634  -3.563 -21.691  0.00  0.00    +0.003 A 
ENDBRANCH  26  27
ENDBRANCH  25  26
ENDBRANCH  22  25
ENDBRANCH   6  21
TORSDOF 5
ENDMDL
MODEL 8
REMARK VINA RESULT:    -5.234      8.873     10.272
REMARK INTER + INTRA:          -7.917
REMARK INTER:                  -7.215
REMARK INTRA:                  -0.702
REMARK UNBOUND:                -1.153
REMARK  Name = /home/vital/Documents/PhD_2021/Malaria_codes/data/pdb_ligands_mmv/ligand_231.pdb
REMARK  6 active torsions:
REMARK  status: ('A' for Active; 'I' for Inactive)
REMARK    1  A    between atoms: C3_4  and  C4_5
REMARK    2  A    between atoms: N3_8  and  C6_9
REMARK    3  A    between atoms: C11_14  and  N4_15
REMARK    4  A    between atoms: C12_16  and  C13_17
REMARK    5  A    between atoms: C13_17  and  C14_18
REMARK    6  A    between atoms: C14_18  and  C15_19
REMARK                            x       y       z     vdW  Elec       q    Type
REMARK                         _______ _______ _______ _____ _____    ______ ____
ROOT
ATOM      1  C6  UNL     1      -4.343  -1.054 -21.608  0.00  0.00    +0.034 A 
ATOM      2  C7  UNL     1      -4.217  -0.323 -20.418  0.00  0.00    +0.025 A 
ATOM      3  C8  UNL     1      -3.096  -0.455 -19.586  0.00  0.00    +0.025 A 
ATOM      4  C9  UNL     1      -3.308  -1.933 -21.930  0.00  0.00    +0.025 A 
ATOM      5  C10 UNL     1      -2.184  -2.069 -21.103  0.00  0.00    +0.025 A 
ATOM      6  C11 UNL     1      -2.067  -1.329 -19.923  0.00  0.00    +0.033 A 
ENDROOT
BRANCH   1  14
ATOM      7  N1  UNL     1      -5.354   1.318 -23.300  0.00  0.00    -0.199 NA
ATOM      8  C1  UNL     1      -5.907   2.289 -24.050  0.00  0.00    +0.127 A 
ATOM      9  C2  UNL     1      -7.155   2.108 -24.610  0.00  0.00    +0.066 A 
ATOM     10  C3  UNL     1      -7.783   0.901 -24.392  0.00  0.00    +0.045 A 
ATOM     11  C4  UNL     1      -9.140   0.640 -24.972  0.00  0.00    +0.066 C 
ATOM     12  N2  UNL     1      -7.223  -0.078 -23.662  0.00  0.00    -0.219 NA
ATOM     13  C5  UNL     1      -6.017   0.166 -23.128  0.00  0.00    +0.221 A 
ATOM     14  N3  UNL     1      -5.494  -0.885 -22.379  0.00  0.00    -0.284 N 
ATOM     15  N5  UNL     1      -5.213   3.471 -24.207  0.00  0.00    -0.315 N 
ATOM     16  C21 UNL     1      -3.873   3.586 -23.642  0.00  0.00    +0.106 C 
ATOM     17  C22 UNL     1      -3.407   4.949 -24.143  0.00  0.00    +0.020 C 
ATOM     18  C23 UNL     1      -4.013   5.012 -25.536  0.00  0.00    +0.020 C 
ATOM     19  C24 UNL     1      -5.378   4.342 -25.367  0.00  0.00    +0.106 C 
ATOM     20  H5  UNL     1      -6.160  -1.644 -22.386  0.00  0.00    +0.155 HD
ENDBRANCH   1  14
BRANCH   6  21
ATOM     21  N4  UNL     1      -0.906  -1.525 -19.149  0.00  0.00    -0.285 N 
ATOM     22  C12 UNL     1       0.307  -0.865 -19.263  0.00  0.00    +0.218 C 
ATOM     23  O1  UNL     1       0.587   0.017 -20.066  0.00  0.00    -0.275 OA
ATOM     24  H10 UNL     1      -0.972  -2.233 -18.428  0.00  0.00    +0.155 HD
BRANCH  22  25
ATOM     25  C13 UNL     1       1.307  -1.372 -18.238  0.00  0.00    +0.101 C 
BRANCH  25  26
ATOM     26  C14 UNL     1       2.736  -0.963 -18.584  0.00  0.00    +0.044 C 
BRANCH  26  27
ATOM     27  C15 UNL     1       3.502  -2.112 -19.193  0.00  0.00    -0.047 A 
ATOM     28  C16 UNL     1       4.824  -1.936 -19.621  0.00  0.00    +0.003 A 
ATOM     29  C17 UNL     1       5.524  -2.994 -20.206  0.00  0.00    +0.000 A 
ATOM     30  C18 UNL     1       4.907  -4.233 -20.371  0.00  0.00    +0.000 A 
ATOM     31  C19 UNL     1       3.591  -4.417 -19.951  0.00  0.00    +0.000 A 
ATOM     32  C20 UNL     1       2.890  -3.360 -19.366  0.00  0.00    +0.003 A 
ENDBRANCH  26  27
ENDBRANCH  25  26
ENDBRANCH  22  25
ENDBRANCH   6  21
TORSDOF 5
ENDMDL
MODEL 9
REMARK VINA RESULT:    -4.620      7.208     12.273
REMARK INTER + INTRA:          -7.124
REMARK INTER:                  -6.240
REMARK INTRA:                  -0.884
REMARK UNBOUND:                -1.153
REMARK  Name = /home/vital/Documents/PhD_2021/Malaria_codes/data/pdb_ligands_mmv/ligand_231.pdb
REMARK  6 active torsions:
REMARK  status: ('A' for Active; 'I' for Inactive)
REMARK    1  A    between atoms: C3_4  and  C4_5
REMARK    2  A    between atoms: N3_8  and  C6_9
REMARK    3  A    between atoms: C11_14  and  N4_15
REMARK    4  A    between atoms: C12_16  and  C13_17
REMARK    5  A    between atoms: C13_17  and  C14_18
REMARK    6  A    between atoms: C14_18  and  C15_19
REMARK                            x       y       z     vdW  Elec       q    Type
REMARK                         _______ _______ _______ _____ _____    ______ ____
ROOT
ATOM      1  C6  UNL     1       7.487   1.074 -31.907  0.00  0.00    +0.034 A 
ATOM      2  C7  UNL     1       6.374   1.917 -31.774  0.00  0.00    +0.025 A 
ATOM      3  C8  UNL     1       5.064   1.438 -31.920  0.00  0.00    +0.025 A 
ATOM      4  C9  UNL     1       7.241  -0.266 -32.205  0.00  0.00    +0.025 A 
ATOM      5  C10 UNL     1       5.934  -0.752 -32.351  0.00  0.00    +0.025 A 
ATOM      6  C11 UNL     1       4.833   0.097 -32.209  0.00  0.00    +0.033 A 
ENDROOT
BRANCH   1  14
ATOM      7  N1  UNL     1       9.349   1.343 -29.463  0.00  0.00    -0.199 NA
ATOM      8  C1  UNL     1      10.236   1.535 -28.470  0.00  0.00    +0.127 A 
ATOM      9  C2  UNL     1      11.407   2.225 -28.709  0.00  0.00    +0.066 A 
ATOM     10  C3  UNL     1      11.632   2.674 -29.992  0.00  0.00    +0.045 A 
ATOM     11  C4  UNL     1      12.884   3.431 -30.319  0.00  0.00    +0.066 C 
ATOM     12  N2  UNL     1      10.757   2.464 -30.990  0.00  0.00    -0.219 NA
ATOM     13  C5  UNL     1       9.629   1.804 -30.690  0.00  0.00    +0.221 A 
ATOM     14  N3  UNL     1       8.763   1.623 -31.765  0.00  0.00    -0.284 N 
ATOM     15  N5  UNL     1       9.925   1.061 -27.212  0.00  0.00    -0.315 N 
ATOM     16  C21 UNL     1       8.701   0.288 -27.029  0.00  0.00    +0.106 C 
ATOM     17  C22 UNL     1       8.795  -0.160 -25.574  0.00  0.00    +0.020 C 
ATOM     18  C23 UNL     1      10.284  -0.416 -25.404  0.00  0.00    +0.020 C 
ATOM     19  C24 UNL     1      10.939   0.695 -26.227  0.00  0.00    +0.106 C 
ATOM     20  H5  UNL     1       9.175   2.049 -32.582  0.00  0.00    +0.155 HD
ENDBRANCH   1  14
BRANCH   6  21
ATOM     21  N4  UNL     1       3.553  -0.472 -32.372  0.00  0.00    -0.285 N 
ATOM     22  C12 UNL     1       2.618  -0.746 -31.387  0.00  0.00    +0.218 C 
ATOM     23  O1  UNL     1       2.740  -0.540 -30.186  0.00  0.00    -0.275 OA
ATOM     24  H10 UNL     1       3.294  -0.705 -33.323  0.00  0.00    +0.155 HD
BRANCH  22  25
ATOM     25  C13 UNL     1       1.361  -1.361 -31.978  0.00  0.00    +0.101 C 
BRANCH  25  26
ATOM     26  C14 UNL     1       1.679  -2.332 -33.112  0.00  0.00    +0.044 C 
BRANCH  26  27
ATOM     27  C15 UNL     1       0.701  -2.182 -34.251  0.00  0.00    -0.047 A 
ATOM     28  C16 UNL     1      -0.159  -1.078 -34.308  0.00  0.00    +0.003 A 
ATOM     29  C17 UNL     1      -1.080  -0.952 -35.350  0.00  0.00    +0.000 A 
ATOM     30  C18 UNL     1      -1.151  -1.930 -36.341  0.00  0.00    +0.000 A 
ATOM     31  C19 UNL     1      -0.303  -3.034 -36.291  0.00  0.00    +0.000 A 
ATOM     32  C20 UNL     1       0.619  -3.162 -35.250  0.00  0.00    +0.003 A 
ENDBRANCH  26  27
ENDBRANCH  25  26
ENDBRANCH  22  25
ENDBRANCH   6  21
TORSDOF 5
ENDMDL
