MODEL 1
REMARK VINA RESULT:    -3.917      0.000      0.000
REMARK INTER + INTRA:          -8.670
REMARK INTER:                  -5.291
REMARK INTRA:                  -3.378
REMARK UNBOUND:                -3.378
REMARK  Name = /home/vital/Documents/PhD_2021/Malaria_codes/data/pdb_ligands_mmv/ligand_339.pdb
REMARK  8 active torsions:
REMARK  status: ('A' for Active; 'I' for Inactive)
REMARK    1  A    between atoms: C1_1  and  N1_2
REMARK    2  A    between atoms: N2_5  and  C3_6
REMARK    3  A    between atoms: C6_9  and  C7_10
REMARK    4  A    between atoms: C7_10  and  N3_11
REMARK    5  A    between atoms: N3_11  and  C8_12
REMARK    6  A    between atoms: C8_12  and  C9_13
REMARK    7  A    between atoms: C9_13  and  N4_14
REMARK    8  A    between atoms: N4_14  and  C10_15
REMARK                            x       y       z     vdW  Elec       q    Type
REMARK                         _______ _______ _______ _____ _____    ______ ____
ROOT
ATOM      1  N3  UNL     1      -0.543  -1.320 -18.568  0.00  0.00    -0.311 NA
ATOM      2  H10 UNL     1      -0.752  -2.222 -18.993  0.00  0.00    +0.122 HD
ENDROOT
BRANCH   1   3
ATOM      3  C7  UNL     1      -1.321  -0.283 -19.249  0.00  0.00    +0.116 C 
BRANCH   3  12
ATOM      4  C1  UNL     1      -5.456  -2.741 -23.976  0.00  0.00    +0.154 C 
ATOM      5  N1  UNL     1      -4.187  -2.104 -23.775  0.00  0.00    -0.295 N 
ATOM      6  C2  UNL     1      -3.272  -1.760 -24.794  0.00  0.00    +0.330 A 
ATOM      7  O1  UNL     1      -3.406  -1.940 -25.993  0.00  0.00    -0.246 OA
ATOM      8  N2  UNL     1      -2.168  -1.166 -24.142  0.00  0.00    -0.295 N 
ATOM      9  C3  UNL     1      -0.991  -0.665 -24.789  0.00  0.00    +0.154 C 
ATOM     10  C4  UNL     1      -2.406  -1.150 -22.762  0.00  0.00    +0.070 A 
ATOM     11  C5  UNL     1      -1.623  -0.677 -21.729  0.00  0.00    +0.033 A 
ATOM     12  C6  UNL     1      -2.127  -0.796 -20.421  0.00  0.00    -0.032 A 
ATOM     13  C19 UNL     1      -3.398  -1.390 -20.203  0.00  0.00    +0.007 A 
ATOM     14  C20 UNL     1      -4.175  -1.864 -21.267  0.00  0.00    +0.028 A 
ATOM     15  C21 UNL     1      -3.655  -1.731 -22.535  0.00  0.00    +0.070 A 
ENDBRANCH   3  12
ENDBRANCH   1   3
BRANCH   1  16
ATOM     16  C8  UNL     1       0.919  -1.115 -18.609  0.00  0.00    +0.100 C 
BRANCH  16  17
ATOM     17  C9  UNL     1       1.725  -2.378 -18.981  0.00  0.00    +0.116 C 
BRANCH  17  18
ATOM     18  N4  UNL     1       0.892  -3.324 -19.733  0.00  0.00    -0.342 N 
ATOM     19  H15 UNL     1      -0.080  -3.152 -19.464  0.00  0.00    +0.146 HD
BRANCH  18  20
ATOM     20  C10 UNL     1       0.967  -3.416 -21.141  0.00  0.00    +0.038 A 
ATOM     21  C11 UNL     1       2.097  -3.016 -21.854  0.00  0.00    +0.043 A 
ATOM     22  C12 UNL     1       2.117  -3.166 -23.229  0.00  0.00    +0.113 A 
ATOM     23  N5  UNL     1       1.113  -3.703 -23.942  0.00  0.00    -0.255 NA
ATOM     24  C13 UNL     1       0.042  -4.153 -23.274  0.00  0.00    +0.074 A 
ATOM     25  C14 UNL     1      -0.970  -4.744 -24.015  0.00  0.00    +0.048 A 
ATOM     26  C15 UNL     1      -2.106  -5.262 -23.402  0.00  0.00    +0.043 A 
ATOM     27 CL1  UNL     1      -3.339  -5.992 -24.356  0.00  0.00    -0.083 Cl
ATOM     28  C16 UNL     1      -2.248  -5.201 -22.024  0.00  0.00    +0.021 A 
ATOM     29  C17 UNL     1      -1.243  -4.605 -21.263  0.00  0.00    +0.013 A 
ATOM     30  C18 UNL     1      -0.084  -4.056 -21.867  0.00  0.00    +0.021 A 
ENDBRANCH  18  20
ENDBRANCH  17  18
ENDBRANCH  16  17
ENDBRANCH   1  16
TORSDOF 6
ENDMDL
MODEL 2
REMARK VINA RESULT:    -3.868      1.782      3.892
REMARK INTER + INTRA:          -8.603
REMARK INTER:                  -5.235
REMARK INTRA:                  -3.368
REMARK UNBOUND:                -3.378
REMARK  Name = /home/vital/Documents/PhD_2021/Malaria_codes/data/pdb_ligands_mmv/ligand_339.pdb
REMARK  8 active torsions:
REMARK  status: ('A' for Active; 'I' for Inactive)
REMARK    1  A    between atoms: C1_1  and  N1_2
REMARK    2  A    between atoms: N2_5  and  C3_6
REMARK    3  A    between atoms: C6_9  and  C7_10
REMARK    4  A    between atoms: C7_10  and  N3_11
REMARK    5  A    between atoms: N3_11  and  C8_12
REMARK    6  A    between atoms: C8_12  and  C9_13
REMARK    7  A    between atoms: C9_13  and  N4_14
REMARK    8  A    between atoms: N4_14  and  C10_15
REMARK                            x       y       z     vdW  Elec       q    Type
REMARK                         _______ _______ _______ _____ _____    ______ ____
ROOT
ATOM      1  N3  UNL     1       0.812  -3.396 -19.738  0.00  0.00    -0.311 NA
ATOM      2  H10 UNL     1       0.863  -4.267 -19.211  0.00  0.00    +0.122 HD
ENDROOT
BRANCH   1   3
ATOM      3  C7  UNL     1       1.040  -3.685 -21.155  0.00  0.00    +0.116 C 
BRANCH   3  12
ATOM      4  C1  UNL     1      -4.644  -3.506 -24.781  0.00  0.00    +0.154 C 
ATOM      5  N1  UNL     1      -3.484  -2.744 -24.421  0.00  0.00    -0.295 N 
ATOM      6  C2  UNL     1      -3.190  -1.438 -24.869  0.00  0.00    +0.330 A 
ATOM      7  O1  UNL     1      -3.863  -0.750 -25.619  0.00  0.00    -0.246 OA
ATOM      8  N2  UNL     1      -1.957  -1.090 -24.273  0.00  0.00    -0.295 N 
ATOM      9  C3  UNL     1      -1.268   0.155 -24.452  0.00  0.00    +0.154 C 
ATOM     10  C4  UNL     1      -1.512  -2.158 -23.484  0.00  0.00    +0.070 A 
ATOM     11  C5  UNL     1      -0.372  -2.285 -22.719  0.00  0.00    +0.033 A 
ATOM     12  C6  UNL     1      -0.184  -3.493 -22.022  0.00  0.00    -0.032 A 
ATOM     13  C19 UNL     1      -1.151  -4.527 -22.124  0.00  0.00    +0.007 A 
ATOM     14  C20 UNL     1      -2.301  -4.376 -22.908  0.00  0.00    +0.028 A 
ATOM     15  C21 UNL     1      -2.456  -3.182 -23.577  0.00  0.00    +0.070 A 
ENDBRANCH   3  12
ENDBRANCH   1   3
BRANCH   1  16
ATOM     16  C8  UNL     1       1.769  -2.439 -19.147  0.00  0.00    +0.100 C 
BRANCH  16  17
ATOM     17  C9  UNL     1       1.109  -1.312 -18.323  0.00  0.00    +0.116 C 
BRANCH  17  18
ATOM     18  N4  UNL     1      -0.344  -1.302 -18.526  0.00  0.00    -0.342 N 
ATOM     19  H15 UNL     1      -0.780  -1.303 -17.601  0.00  0.00    +0.146 HD
BRANCH  18  20
ATOM     20  C10 UNL     1      -0.971  -0.322 -19.326  0.00  0.00    +0.038 A 
ATOM     21  C11 UNL     1      -0.356   0.891 -19.637  0.00  0.00    +0.043 A 
ATOM     22  C12 UNL     1      -1.012   1.793 -20.454  0.00  0.00    +0.113 A 
ATOM     23  N5  UNL     1      -2.219   1.571 -21.003  0.00  0.00    -0.255 NA
ATOM     24  C13 UNL     1      -2.803   0.389 -20.772  0.00  0.00    +0.074 A 
ATOM     25  C14 UNL     1      -4.028   0.153 -21.377  0.00  0.00    +0.048 A 
ATOM     26  C15 UNL     1      -4.695  -1.057 -21.213  0.00  0.00    +0.043 A 
ATOM     27 CL1  UNL     1      -6.212  -1.313 -21.985  0.00  0.00    -0.083 Cl
ATOM     28  C16 UNL     1      -4.140  -2.063 -20.437  0.00  0.00    +0.021 A 
ATOM     29  C17 UNL     1      -2.911  -1.842 -19.815  0.00  0.00    +0.013 A 
ATOM     30  C18 UNL     1      -2.220  -0.612 -19.955  0.00  0.00    +0.021 A 
ENDBRANCH  18  20
ENDBRANCH  17  18
ENDBRANCH  16  17
ENDBRANCH   1  16
TORSDOF 6
ENDMDL
MODEL 3
REMARK VINA RESULT:    -3.689      9.213     11.738
REMARK INTER + INTRA:          -8.361
REMARK INTER:                  -4.852
REMARK INTRA:                  -3.509
REMARK UNBOUND:                -3.378
REMARK  Name = /home/vital/Documents/PhD_2021/Malaria_codes/data/pdb_ligands_mmv/ligand_339.pdb
REMARK  8 active torsions:
REMARK  status: ('A' for Active; 'I' for Inactive)
REMARK    1  A    between atoms: C1_1  and  N1_2
REMARK    2  A    between atoms: N2_5  and  C3_6
REMARK    3  A    between atoms: C6_9  and  C7_10
REMARK    4  A    between atoms: C7_10  and  N3_11
REMARK    5  A    between atoms: N3_11  and  C8_12
REMARK    6  A    between atoms: C8_12  and  C9_13
REMARK    7  A    between atoms: C9_13  and  N4_14
REMARK    8  A    between atoms: N4_14  and  C10_15
REMARK                            x       y       z     vdW  Elec       q    Type
REMARK                         _______ _______ _______ _____ _____    ______ ____
ROOT
ATOM      1  N3  UNL     1      -1.379  -9.600 -31.206  0.00  0.00    -0.311 NA
ATOM      2  H10 UNL     1      -1.811 -10.430 -30.802  0.00  0.00    +0.122 HD
ENDROOT
BRANCH   1   3
ATOM      3  C7  UNL     1      -2.063  -8.412 -30.689  0.00  0.00    +0.116 C 
BRANCH   3  12
ATOM      4  C1  UNL     1       2.437  -3.440 -29.975  0.00  0.00    +0.154 C 
ATOM      5  N1  UNL     1       1.109  -3.734 -30.428  0.00  0.00    -0.295 N 
ATOM      6  C2  UNL     1       0.200  -2.796 -30.965  0.00  0.00    +0.330 A 
ATOM      7  O1  UNL     1       0.391  -1.603 -31.136  0.00  0.00    -0.246 OA
ATOM      8  N2  UNL     1      -0.975  -3.521 -31.266  0.00  0.00    -0.295 N 
ATOM      9  C3  UNL     1      -2.172  -2.968 -31.830  0.00  0.00    +0.154 C 
ATOM     10  C4  UNL     1      -0.786  -4.864 -30.918  0.00  0.00    +0.070 A 
ATOM     11  C5  UNL     1      -1.643  -5.940 -31.023  0.00  0.00    +0.033 A 
ATOM     12  C6  UNL     1      -1.174  -7.193 -30.587  0.00  0.00    -0.032 A 
ATOM     13  C19 UNL     1       0.138  -7.314 -30.060  0.00  0.00    +0.007 A 
ATOM     14  C20 UNL     1       0.991  -6.207 -29.962  0.00  0.00    +0.028 A 
ATOM     15  C21 UNL     1       0.503  -4.996 -30.399  0.00  0.00    +0.070 A 
ENDBRANCH   3  12
ENDBRANCH   1   3
BRANCH   1  16
ATOM     16  C8  UNL     1      -1.404  -9.730 -32.676  0.00  0.00    +0.100 C 
BRANCH  16  17
ATOM     17  C9  UNL     1      -0.039  -9.485 -33.355  0.00  0.00    +0.116 C 
BRANCH  17  18
ATOM     18  N4  UNL     1      -0.041  -8.210 -34.081  0.00  0.00    -0.342 N 
ATOM     19  H15 UNL     1      -0.965  -7.790 -33.954  0.00  0.00    +0.146 HD
BRANCH  18  20
ATOM     20  C10 UNL     1       0.944  -7.226 -33.846  0.00  0.00    +0.038 A 
ATOM     21  C11 UNL     1       2.211  -7.542 -33.355  0.00  0.00    +0.043 A 
ATOM     22  C12 UNL     1       3.140  -6.533 -33.179  0.00  0.00    +0.113 A 
ATOM     23  N5  UNL     1       2.915  -5.242 -33.477  0.00  0.00    -0.255 NA
ATOM     24  C13 UNL     1       1.729  -4.922 -34.009  0.00  0.00    +0.074 A 
ATOM     25  C14 UNL     1       1.521  -3.594 -34.353  0.00  0.00    +0.048 A 
ATOM     26  C15 UNL     1       0.328  -3.176 -34.935  0.00  0.00    +0.043 A 
ATOM     27 CL1  UNL     1       0.111  -1.520 -35.351  0.00  0.00    -0.083 Cl
ATOM     28  C16 UNL     1      -0.684  -4.088 -35.190  0.00  0.00    +0.021 A 
ATOM     29  C17 UNL     1      -0.496  -5.426 -34.846  0.00  0.00    +0.013 A 
ATOM     30  C18 UNL     1       0.704  -5.873 -34.238  0.00  0.00    +0.021 A 
ENDBRANCH  18  20
ENDBRANCH  17  18
ENDBRANCH  16  17
ENDBRANCH   1  16
TORSDOF 6
ENDMDL
MODEL 4
REMARK VINA RESULT:    -3.651      7.764     10.761
REMARK INTER + INTRA:          -8.310
REMARK INTER:                  -4.888
REMARK INTRA:                  -3.421
REMARK UNBOUND:                -3.378
REMARK  Name = /home/vital/Documents/PhD_2021/Malaria_codes/data/pdb_ligands_mmv/ligand_339.pdb
REMARK  8 active torsions:
REMARK  status: ('A' for Active; 'I' for Inactive)
REMARK    1  A    between atoms: C1_1  and  N1_2
REMARK    2  A    between atoms: N2_5  and  C3_6
REMARK    3  A    between atoms: C6_9  and  C7_10
REMARK    4  A    between atoms: C7_10  and  N3_11
REMARK    5  A    between atoms: N3_11  and  C8_12
REMARK    6  A    between atoms: C8_12  and  C9_13
REMARK    7  A    between atoms: C9_13  and  N4_14
REMARK    8  A    between atoms: N4_14  and  C10_15
REMARK                            x       y       z     vdW  Elec       q    Type
REMARK                         _______ _______ _______ _____ _____    ______ ____
ROOT
ATOM      1  N3  UNL     1       4.079   2.382 -13.877  0.00  0.00    -0.311 NA
ATOM      2  H10 UNL     1       4.503   1.750 -13.199  0.00  0.00    +0.122 HD
ENDROOT
BRANCH   1   3
ATOM      3  C7  UNL     1       4.685   2.144 -15.189  0.00  0.00    +0.116 C 
BRANCH   3  12
ATOM      4  C1  UNL     1       0.117   3.225 -20.030  0.00  0.00    +0.154 C 
ATOM      5  N1  UNL     1       1.439   3.572 -19.598  0.00  0.00    -0.295 N 
ATOM      6  C2  UNL     1       2.319   4.448 -20.271  0.00  0.00    +0.330 A 
ATOM      7  O1  UNL     1       2.104   5.049 -21.311  0.00  0.00    -0.246 OA
ATOM      8  N2  UNL     1       3.499   4.487 -19.495  0.00  0.00    -0.295 N 
ATOM      9  C3  UNL     1       4.673   5.250 -19.803  0.00  0.00    +0.154 C 
ATOM     10  C4  UNL     1       3.341   3.654 -18.380  0.00  0.00    +0.070 A 
ATOM     11  C5  UNL     1       4.215   3.371 -17.351  0.00  0.00    +0.033 A 
ATOM     12  C6  UNL     1       3.778   2.483 -16.350  0.00  0.00    -0.032 A 
ATOM     13  C19 UNL     1       2.481   1.913 -16.427  0.00  0.00    +0.007 A 
ATOM     14  C20 UNL     1       1.611   2.214 -17.482  0.00  0.00    +0.028 A 
ATOM     15  C21 UNL     1       2.067   3.087 -18.444  0.00  0.00    +0.070 A 
ENDBRANCH   3  12
ENDBRANCH   1   3
BRANCH   1  16
ATOM     16  C8  UNL     1       4.222   3.764 -13.378  0.00  0.00    +0.100 C 
BRANCH  16  17
ATOM     17  C9  UNL     1       2.885   4.518 -13.213  0.00  0.00    +0.116 C 
BRANCH  17  18
ATOM     18  N4  UNL     1       2.829   5.680 -14.108  0.00  0.00    -0.342 N 
ATOM     19  H15 UNL     1       3.764   5.801 -14.506  0.00  0.00    +0.146 HD
BRANCH  18  20
ATOM     20  C10 UNL     1       1.876   5.767 -15.147  0.00  0.00    +0.038 A 
ATOM     21  C11 UNL     1       0.625   5.156 -15.063  0.00  0.00    +0.043 A 
ATOM     22  C12 UNL     1      -0.274   5.309 -16.102  0.00  0.00    +0.113 A 
ATOM     23  N5  UNL     1      -0.034   6.042 -17.203  0.00  0.00    -0.255 NA
ATOM     24  C13 UNL     1       1.135   6.690 -17.280  0.00  0.00    +0.074 A 
ATOM     25  C14 UNL     1       1.356   7.478 -18.400  0.00  0.00    +0.048 A 
ATOM     26  C15 UNL     1       2.531   8.207 -18.550  0.00  0.00    +0.043 A 
ATOM     27 CL1  UNL     1       2.766   9.176 -19.953  0.00  0.00    -0.083 Cl
ATOM     28  C16 UNL     1       3.512   8.164 -17.572  0.00  0.00    +0.021 A 
ATOM     29  C17 UNL     1       3.311   7.373 -16.441  0.00  0.00    +0.013 A 
ATOM     30  C18 UNL     1       2.128   6.609 -16.272  0.00  0.00    +0.021 A 
ENDBRANCH  18  20
ENDBRANCH  17  18
ENDBRANCH  16  17
ENDBRANCH   1  16
TORSDOF 6
ENDMDL
MODEL 5
REMARK VINA RESULT:    -3.646     10.593     13.105
REMARK INTER + INTRA:          -8.303
REMARK INTER:                  -4.696
REMARK INTRA:                  -3.607
REMARK UNBOUND:                -3.378
REMARK  Name = /home/vital/Documents/PhD_2021/Malaria_codes/data/pdb_ligands_mmv/ligand_339.pdb
REMARK  8 active torsions:
REMARK  status: ('A' for Active; 'I' for Inactive)
REMARK    1  A    between atoms: C1_1  and  N1_2
REMARK    2  A    between atoms: N2_5  and  C3_6
REMARK    3  A    between atoms: C6_9  and  C7_10
REMARK    4  A    between atoms: C7_10  and  N3_11
REMARK    5  A    between atoms: N3_11  and  C8_12
REMARK    6  A    between atoms: C8_12  and  C9_13
REMARK    7  A    between atoms: C9_13  and  N4_14
REMARK    8  A    between atoms: N4_14  and  C10_15
REMARK                            x       y       z     vdW  Elec       q    Type
REMARK                         _______ _______ _______ _____ _____    ______ ____
ROOT
ATOM      1  N3  UNL     1       6.194   8.311 -21.001  0.00  0.00    -0.311 NA
ATOM      2  H10 UNL     1       7.116   8.716 -21.162  0.00  0.00    +0.122 HD
ENDROOT
BRANCH   1   3
ATOM      3  C7  UNL     1       6.331   6.858 -20.872  0.00  0.00    +0.116 C 
BRANCH   3  12
ATOM      4  C1  UNL     1       3.155   3.803 -15.768  0.00  0.00    +0.154 C 
ATOM      5  N1  UNL     1       4.045   4.879 -16.089  0.00  0.00    -0.295 N 
ATOM      6  C2  UNL     1       4.602   5.788 -15.163  0.00  0.00    +0.330 A 
ATOM      7  O1  UNL     1       4.426   5.806 -13.955  0.00  0.00    -0.246 OA
ATOM      8  N2  UNL     1       5.404   6.673 -15.918  0.00  0.00    -0.295 N 
ATOM      9  C3  UNL     1       6.161   7.768 -15.387  0.00  0.00    +0.154 C 
ATOM     10  C4  UNL     1       5.335   6.312 -17.269  0.00  0.00    +0.070 A 
ATOM     11  C5  UNL     1       5.941   6.876 -18.373  0.00  0.00    +0.033 A 
ATOM     12  C6  UNL     1       5.685   6.293 -19.627  0.00  0.00    -0.032 A 
ATOM     13  C19 UNL     1       4.827   5.166 -19.722  0.00  0.00    +0.007 A 
ATOM     14  C20 UNL     1       4.222   4.611 -18.589  0.00  0.00    +0.028 A 
ATOM     15  C21 UNL     1       4.494   5.203 -17.375  0.00  0.00    +0.070 A 
ENDBRANCH   3  12
ENDBRANCH   1   3
BRANCH   1  16
ATOM     16  C8  UNL     1       5.298   8.747 -22.090  0.00  0.00    +0.100 C 
BRANCH  16  17
ATOM     17  C9  UNL     1       4.306   9.859 -21.686  0.00  0.00    +0.116 C 
BRANCH  17  18
ATOM     18  N4  UNL     1       3.189   9.304 -20.913  0.00  0.00    -0.342 N 
ATOM     19  H15 UNL     1       3.055   8.339 -21.223  0.00  0.00    +0.146 HD
BRANCH  18  20
ATOM     20  C10 UNL     1       3.180   9.336 -19.501  0.00  0.00    +0.038 A 
ATOM     21  C11 UNL     1       3.846  10.323 -18.774  0.00  0.00    +0.043 A 
ATOM     22  C12 UNL     1       3.768  10.314 -17.393  0.00  0.00    +0.113 A 
ATOM     23  N5  UNL     1       3.060   9.418 -16.684  0.00  0.00    -0.255 NA
ATOM     24  C13 UNL     1       2.361   8.498 -17.362  0.00  0.00    +0.074 A 
ATOM     25  C14 UNL     1       1.600   7.604 -16.623  0.00  0.00    +0.048 A 
ATOM     26  C15 UNL     1       0.822   6.632 -17.244  0.00  0.00    +0.043 A 
ATOM     27 CL1  UNL     1      -0.111   5.544 -16.292  0.00  0.00    -0.083 Cl
ATOM     28  C16 UNL     1       0.787   6.540 -18.627  0.00  0.00    +0.021 A 
ATOM     29  C17 UNL     1       1.550   7.427 -19.386  0.00  0.00    +0.013 A 
ATOM     30  C18 UNL     1       2.363   8.416 -18.776  0.00  0.00    +0.021 A 
ENDBRANCH  18  20
ENDBRANCH  17  18
ENDBRANCH  16  17
ENDBRANCH   1  16
TORSDOF 6
ENDMDL
MODEL 6
REMARK VINA RESULT:    -3.582      9.239     12.072
REMARK INTER + INTRA:          -8.217
REMARK INTER:                  -4.773
REMARK INTRA:                  -3.445
REMARK UNBOUND:                -3.378
REMARK  Name = /home/vital/Documents/PhD_2021/Malaria_codes/data/pdb_ligands_mmv/ligand_339.pdb
REMARK  8 active torsions:
REMARK  status: ('A' for Active; 'I' for Inactive)
REMARK    1  A    between atoms: C1_1  and  N1_2
REMARK    2  A    between atoms: N2_5  and  C3_6
REMARK    3  A    between atoms: C6_9  and  C7_10
REMARK    4  A    between atoms: C7_10  and  N3_11
REMARK    5  A    between atoms: N3_11  and  C8_12
REMARK    6  A    between atoms: C8_12  and  C9_13
REMARK    7  A    between atoms: C9_13  and  N4_14
REMARK    8  A    between atoms: N4_14  and  C10_15
REMARK                            x       y       z     vdW  Elec       q    Type
REMARK                         _______ _______ _______ _____ _____    ______ ____
ROOT
ATOM      1  N3  UNL     1       3.236   5.793 -14.849  0.00  0.00    -0.311 NA
ATOM      2  H10 UNL     1       2.969   6.500 -15.533  0.00  0.00    +0.122 HD
ENDROOT
BRANCH   1   3
ATOM      3  C7  UNL     1       4.321   4.981 -15.405  0.00  0.00    +0.116 C 
BRANCH   3  12
ATOM      4  C1  UNL     1       6.555   7.202 -21.368  0.00  0.00    +0.154 C 
ATOM      5  N1  UNL     1       5.677   6.253 -20.750  0.00  0.00    -0.295 N 
ATOM      6  C2  UNL     1       4.861   5.324 -21.432  0.00  0.00    +0.330 A 
ATOM      7  O1  UNL     1       4.772   5.174 -22.640  0.00  0.00    -0.246 OA
ATOM      8  N2  UNL     1       4.169   4.605 -20.433  0.00  0.00    -0.295 N 
ATOM      9  C3  UNL     1       3.220   3.556 -20.669  0.00  0.00    +0.154 C 
ATOM     10  C4  UNL     1       4.553   5.085 -19.174  0.00  0.00    +0.070 A 
ATOM     11  C5  UNL     1       4.149   4.698 -17.913  0.00  0.00    +0.033 A 
ATOM     12  C6  UNL     1       4.713   5.369 -16.813  0.00  0.00    -0.032 A 
ATOM     13  C19 UNL     1       5.660   6.405 -17.025  0.00  0.00    +0.007 A 
ATOM     14  C20 UNL     1       6.055   6.782 -18.315  0.00  0.00    +0.028 A 
ATOM     15  C21 UNL     1       5.485   6.105 -19.370  0.00  0.00    +0.070 A 
ENDBRANCH   3  12
ENDBRANCH   1   3
BRANCH   1  16
ATOM     16  C8  UNL     1       2.029   5.029 -14.476  0.00  0.00    +0.100 C 
BRANCH  16  17
ATOM     17  C9  UNL     1       0.743   5.485 -15.197  0.00  0.00    +0.116 C 
BRANCH  17  18
ATOM     18  N4  UNL     1       0.968   6.746 -15.914  0.00  0.00    -0.342 N 
ATOM     19  H15 UNL     1       1.820   7.164 -15.532  0.00  0.00    +0.146 HD
BRANCH  18  20
ATOM     20  C10 UNL     1       1.029   6.793 -17.324  0.00  0.00    +0.038 A 
ATOM     21  C11 UNL     1       0.218   5.996 -18.132  0.00  0.00    +0.043 A 
ATOM     22  C12 UNL     1       0.304   6.117 -19.506  0.00  0.00    +0.113 A 
ATOM     23  N5  UNL     1       1.115   6.984 -20.137  0.00  0.00    -0.255 NA
ATOM     24  C13 UNL     1       1.858   7.805 -19.383  0.00  0.00    +0.074 A 
ATOM     25  C14 UNL     1       2.660   8.725 -20.042  0.00  0.00    +0.048 A 
ATOM     26  C15 UNL     1       3.446   9.633 -19.339  0.00  0.00    +0.043 A 
ATOM     27 CL1  UNL     1       4.424  10.762 -20.194  0.00  0.00    -0.083 Cl
ATOM     28  C16 UNL     1       3.439   9.640 -17.953  0.00  0.00    +0.021 A 
ATOM     29  C17 UNL     1       2.643   8.718 -17.273  0.00  0.00    +0.013 A 
ATOM     30  C18 UNL     1       1.846   7.773 -17.967  0.00  0.00    +0.021 A 
ENDBRANCH  18  20
ENDBRANCH  17  18
ENDBRANCH  16  17
ENDBRANCH   1  16
TORSDOF 6
ENDMDL
MODEL 7
REMARK VINA RESULT:    -3.564      7.845     10.672
REMARK INTER + INTRA:          -8.193
REMARK INTER:                  -4.526
REMARK INTRA:                  -3.667
REMARK UNBOUND:                -3.378
REMARK  Name = /home/vital/Documents/PhD_2021/Malaria_codes/data/pdb_ligands_mmv/ligand_339.pdb
REMARK  8 active torsions:
REMARK  status: ('A' for Active; 'I' for Inactive)
REMARK    1  A    between atoms: C1_1  and  N1_2
REMARK    2  A    between atoms: N2_5  and  C3_6
REMARK    3  A    between atoms: C6_9  and  C7_10
REMARK    4  A    between atoms: C7_10  and  N3_11
REMARK    5  A    between atoms: N3_11  and  C8_12
REMARK    6  A    between atoms: C8_12  and  C9_13
REMARK    7  A    between atoms: C9_13  and  N4_14
REMARK    8  A    between atoms: N4_14  and  C10_15
REMARK                            x       y       z     vdW  Elec       q    Type
REMARK                         _______ _______ _______ _____ _____    ______ ____
ROOT
ATOM      1  N3  UNL     1       2.756   5.671 -12.982  0.00  0.00    -0.311 NA
ATOM      2  H10 UNL     1       2.205   6.355 -12.464  0.00  0.00    +0.122 HD
ENDROOT
BRANCH   1   3
ATOM      3  C7  UNL     1       1.988   4.429 -13.090  0.00  0.00    +0.116 C 
BRANCH   3  12
ATOM      4  C1  UNL     1       1.423   1.969 -19.344  0.00  0.00    +0.154 C 
ATOM      5  N1  UNL     1       0.853   2.905 -18.420  0.00  0.00    -0.295 N 
ATOM      6  C2  UNL     1      -0.245   3.752 -18.684  0.00  0.00    +0.330 A 
ATOM      7  O1  UNL     1      -0.884   3.825 -19.721  0.00  0.00    -0.246 OA
ATOM      8  N2  UNL     1      -0.454   4.500 -17.503  0.00  0.00    -0.295 N 
ATOM      9  C3  UNL     1      -1.469   5.494 -17.316  0.00  0.00    +0.154 C 
ATOM     10  C4  UNL     1       0.495   4.117 -16.546  0.00  0.00    +0.070 A 
ATOM     11  C5  UNL     1       0.687   4.564 -15.256  0.00  0.00    +0.033 A 
ATOM     12  C6  UNL     1       1.736   3.989 -14.515  0.00  0.00    -0.032 A 
ATOM     13  C19 UNL     1       2.552   2.988 -15.104  0.00  0.00    +0.007 A 
ATOM     14  C20 UNL     1       2.339   2.550 -16.416  0.00  0.00    +0.028 A 
ATOM     15  C21 UNL     1       1.304   3.131 -17.114  0.00  0.00    +0.070 A 
ENDBRANCH   3  12
ENDBRANCH   1   3
BRANCH   1  16
ATOM     16  C8  UNL     1       4.065   5.526 -12.315  0.00  0.00    +0.100 C 
BRANCH  16  17
ATOM     17  C9  UNL     1       5.268   5.954 -13.182  0.00  0.00    +0.116 C 
BRANCH  17  18
ATOM     18  N4  UNL     1       4.814   6.642 -14.397  0.00  0.00    -0.342 N 
ATOM     19  H15 UNL     1       5.301   7.540 -14.436  0.00  0.00    +0.146 HD
BRANCH  18  20
ATOM     20  C10 UNL     1       4.889   6.025 -15.666  0.00  0.00    +0.038 A 
ATOM     21  C11 UNL     1       5.800   5.007 -15.947  0.00  0.00    +0.043 A 
ATOM     22  C12 UNL     1       5.797   4.423 -17.200  0.00  0.00    +0.113 A 
ATOM     23  N5  UNL     1       4.944   4.756 -18.184  0.00  0.00    -0.255 NA
ATOM     24  C13 UNL     1       4.018   5.687 -17.919  0.00  0.00    +0.074 A 
ATOM     25  C14 UNL     1       3.115   5.993 -18.926  0.00  0.00    +0.048 A 
ATOM     26  C15 UNL     1       2.105   6.930 -18.731  0.00  0.00    +0.043 A 
ATOM     27 CL1  UNL     1       1.001   7.280 -20.004  0.00  0.00    -0.083 Cl
ATOM     28  C16 UNL     1       1.975   7.577 -17.511  0.00  0.00    +0.021 A 
ATOM     29  C17 UNL     1       2.877   7.286 -16.488  0.00  0.00    +0.013 A 
ATOM     30  C18 UNL     1       3.925   6.347 -16.669  0.00  0.00    +0.021 A 
ENDBRANCH  18  20
ENDBRANCH  17  18
ENDBRANCH  16  17
ENDBRANCH   1  16
TORSDOF 6
ENDMDL
MODEL 8
REMARK VINA RESULT:    -3.463      8.810     11.960
REMARK INTER + INTRA:          -8.055
REMARK INTER:                  -4.436
REMARK INTRA:                  -3.619
REMARK UNBOUND:                -3.378
REMARK  Name = /home/vital/Documents/PhD_2021/Malaria_codes/data/pdb_ligands_mmv/ligand_339.pdb
REMARK  8 active torsions:
REMARK  status: ('A' for Active; 'I' for Inactive)
REMARK    1  A    between atoms: C1_1  and  N1_2
REMARK    2  A    between atoms: N2_5  and  C3_6
REMARK    3  A    between atoms: C6_9  and  C7_10
REMARK    4  A    between atoms: C7_10  and  N3_11
REMARK    5  A    between atoms: N3_11  and  C8_12
REMARK    6  A    between atoms: C8_12  and  C9_13
REMARK    7  A    between atoms: C9_13  and  N4_14
REMARK    8  A    between atoms: N4_14  and  C10_15
REMARK                            x       y       z     vdW  Elec       q    Type
REMARK                         _______ _______ _______ _____ _____    ______ ____
ROOT
ATOM      1  N3  UNL     1       4.124   5.988 -21.340  0.00  0.00    -0.311 NA
ATOM      2  H10 UNL     1       3.255   6.101 -20.820  0.00  0.00    +0.122 HD
ENDROOT
BRANCH   1   3
ATOM      3  C7  UNL     1       5.213   5.742 -20.392  0.00  0.00    +0.116 C 
BRANCH   3  12
ATOM      4  C1  UNL     1       3.574   4.819 -13.916  0.00  0.00    +0.154 C 
ATOM      5  N1  UNL     1       3.286   4.379 -15.249  0.00  0.00    -0.295 N 
ATOM      6  C2  UNL     1       2.348   3.384 -15.600  0.00  0.00    +0.330 A 
ATOM      7  O1  UNL     1       1.634   2.748 -14.842  0.00  0.00    -0.246 OA
ATOM      8  N2  UNL     1       2.403   3.275 -17.008  0.00  0.00    -0.295 N 
ATOM      9  C3  UNL     1       1.618   2.378 -17.804  0.00  0.00    +0.154 C 
ATOM     10  C4  UNL     1       3.352   4.179 -17.500  0.00  0.00    +0.070 A 
ATOM     11  C5  UNL     1       3.753   4.431 -18.795  0.00  0.00    +0.033 A 
ATOM     12  C6  UNL     1       4.743   5.412 -18.993  0.00  0.00    -0.032 A 
ATOM     13  C19 UNL     1       5.292   6.098 -17.879  0.00  0.00    +0.007 A 
ATOM     14  C20 UNL     1       4.870   5.825 -16.572  0.00  0.00    +0.028 A 
ATOM     15  C21 UNL     1       3.899   4.862 -16.412  0.00  0.00    +0.070 A 
ENDBRANCH   3  12
ENDBRANCH   1   3
BRANCH   1  16
ATOM     16  C8  UNL     1       4.313   7.176 -22.195  0.00  0.00    +0.100 C 
BRANCH  16  17
ATOM     17  C9  UNL     1       4.240   8.519 -21.437  0.00  0.00    +0.116 C 
BRANCH  17  18
ATOM     18  N4  UNL     1       2.926   8.688 -20.804  0.00  0.00    -0.342 N 
ATOM     19  H15 UNL     1       2.308   7.973 -21.194  0.00  0.00    +0.146 HD
BRANCH  18  20
ATOM     20  C10 UNL     1       2.780   8.701 -19.399  0.00  0.00    +0.038 A 
ATOM     21  C11 UNL     1       3.425   9.639 -18.592  0.00  0.00    +0.043 A 
ATOM     22  C12 UNL     1       3.211   9.617 -17.226  0.00  0.00    +0.113 A 
ATOM     23  N5  UNL     1       2.389   8.753 -16.606  0.00  0.00    -0.255 NA
ATOM     24  C13 UNL     1       1.711   7.883 -17.365  0.00  0.00    +0.074 A 
ATOM     25  C14 UNL     1       0.834   7.023 -16.721  0.00  0.00    +0.048 A 
ATOM     26  C15 UNL     1       0.069   6.104 -17.433  0.00  0.00    +0.043 A 
ATOM     27 CL1  UNL     1      -1.012   5.057 -16.597  0.00  0.00    -0.083 Cl
ATOM     28  C16 UNL     1       0.165   6.033 -18.814  0.00  0.00    +0.021 A 
ATOM     29  C17 UNL     1       1.046   6.885 -19.479  0.00  0.00    +0.013 A 
ATOM     30  C18 UNL     1       1.847   7.819 -18.774  0.00  0.00    +0.021 A 
ENDBRANCH  18  20
ENDBRANCH  17  18
ENDBRANCH  16  17
ENDBRANCH   1  16
TORSDOF 6
ENDMDL
MODEL 9
REMARK VINA RESULT:    -3.401      8.476     11.349
REMARK INTER + INTRA:          -7.973
REMARK INTER:                  -4.460
REMARK INTRA:                  -3.513
REMARK UNBOUND:                -3.378
REMARK  Name = /home/vital/Documents/PhD_2021/Malaria_codes/data/pdb_ligands_mmv/ligand_339.pdb
REMARK  8 active torsions:
REMARK  status: ('A' for Active; 'I' for Inactive)
REMARK    1  A    between atoms: C1_1  and  N1_2
REMARK    2  A    between atoms: N2_5  and  C3_6
REMARK    3  A    between atoms: C6_9  and  C7_10
REMARK    4  A    between atoms: C7_10  and  N3_11
REMARK    5  A    between atoms: N3_11  and  C8_12
REMARK    6  A    between atoms: C8_12  and  C9_13
REMARK    7  A    between atoms: C9_13  and  N4_14
REMARK    8  A    between atoms: N4_14  and  C10_15
REMARK                            x       y       z     vdW  Elec       q    Type
REMARK                         _______ _______ _______ _____ _____    ______ ____
ROOT
ATOM      1  N3  UNL     1       0.587   7.486 -17.566  0.00  0.00    -0.311 NA
ATOM      2  H10 UNL     1       0.119   8.373 -17.385  0.00  0.00    +0.122 HD
ENDROOT
BRANCH   1   3
ATOM      3  C7  UNL     1       1.918   7.757 -18.114  0.00  0.00    +0.116 C 
BRANCH   3  12
ATOM      4  C1  UNL     1       6.716   4.357 -14.813  0.00  0.00    +0.154 C 
ATOM      5  N1  UNL     1       5.984   4.410 -16.044  0.00  0.00    -0.295 N 
ATOM      6  C2  UNL     1       6.149   3.529 -17.135  0.00  0.00    +0.330 A 
ATOM      7  O1  UNL     1       6.926   2.591 -17.211  0.00  0.00    -0.246 OA
ATOM      8  N2  UNL     1       5.234   3.956 -18.123  0.00  0.00    -0.295 N 
ATOM      9  C3  UNL     1       5.057   3.351 -19.411  0.00  0.00    +0.154 C 
ATOM     10  C4  UNL     1       4.530   5.068 -17.645  0.00  0.00    +0.070 A 
ATOM     11  C5  UNL     1       3.544   5.824 -18.245  0.00  0.00    +0.033 A 
ATOM     12  C6  UNL     1       3.011   6.901 -17.514  0.00  0.00    -0.032 A 
ATOM     13  C19 UNL     1       3.492   7.177 -16.208  0.00  0.00    +0.007 A 
ATOM     14  C20 UNL     1       4.495   6.398 -15.618  0.00  0.00    +0.028 A 
ATOM     15  C21 UNL     1       4.995   5.350 -16.359  0.00  0.00    +0.070 A 
ENDBRANCH   3  12
ENDBRANCH   1   3
BRANCH   1  16
ATOM     16  C8  UNL     1      -0.280   6.671 -18.440  0.00  0.00    +0.100 C 
BRANCH  16  17
ATOM     17  C9  UNL     1      -1.090   5.588 -17.694  0.00  0.00    +0.116 C 
BRANCH  17  18
ATOM     18  N4  UNL     1      -0.327   5.059 -16.557  0.00  0.00    -0.342 N 
ATOM     19  H15 UNL     1      -1.000   4.835 -15.820  0.00  0.00    +0.146 HD
BRANCH  18  20
ATOM     20  C10 UNL     1       0.566   3.976 -16.707  0.00  0.00    +0.038 A 
ATOM     21  C11 UNL     1       0.706   3.287 -17.912  0.00  0.00    +0.043 A 
ATOM     22  C12 UNL     1       1.624   2.257 -18.000  0.00  0.00    +0.113 A 
ATOM     23  N5  UNL     1       2.429   1.878 -16.992  0.00  0.00    -0.255 NA
ATOM     24  C13 UNL     1       2.359   2.565 -15.845  0.00  0.00    +0.074 A 
ATOM     25  C14 UNL     1       3.223   2.194 -14.825  0.00  0.00    +0.048 A 
ATOM     26  C15 UNL     1       3.237   2.868 -13.608  0.00  0.00    +0.043 A 
ATOM     27 CL1  UNL     1       4.328   2.380 -12.369  0.00  0.00    -0.083 Cl
ATOM     28  C16 UNL     1       2.384   3.938 -13.391  0.00  0.00    +0.021 A 
ATOM     29  C17 UNL     1       1.503   4.323 -14.402  0.00  0.00    +0.013 A 
ATOM     30  C18 UNL     1       1.460   3.641 -15.644  0.00  0.00    +0.021 A 
ENDBRANCH  18  20
ENDBRANCH  17  18
ENDBRANCH  16  17
ENDBRANCH   1  16
TORSDOF 6
ENDMDL
