MODEL 1
REMARK VINA RESULT:    -4.587      0.000      0.000
REMARK INTER + INTRA:          -6.155
REMARK INTER:                  -5.794
REMARK INTRA:                  -0.361
REMARK UNBOUND:                -0.361
REMARK  Name = /home/vital/Documents/PhD_2021/Malaria_codes/data/pdb_ligands_mmv/ligand_33.pdb
REMARK  8 active torsions:
REMARK  status: ('A' for Active; 'I' for Inactive)
REMARK    1  A    between atoms: C1_3  and  C2_4
REMARK    2  A    between atoms: C3_5  and  C4_6
REMARK    3  A    between atoms: C7_9  and  O1_10
REMARK    4  A    between atoms: O1_10  and  C8_11
REMARK    5  A    between atoms: C9_12  and  O2_13
REMARK    6  A    between atoms: O2_13  and  C10_14
REMARK    7  A    between atoms: C14_19  and  C15_20
REMARK    8  A    between atoms: C16_22  and  N5_23
REMARK                            x       y       z     vdW  Elec       q    Type
REMARK                         _______ _______ _______ _____ _____    ______ ____
ROOT
ATOM      1  N1  UNL     1       2.540  -4.024 -33.805  0.00  0.00    -0.199 N 
ATOM      2  N2  UNL     1       1.671  -4.797 -34.513  0.00  0.00    -0.168 NA
ATOM      3  C1  UNL     1       0.683  -3.966 -34.864  0.00  0.00    +0.070 A 
ATOM      4  C2  UNL     1      -0.436  -4.474 -35.698  0.00  0.00    +0.068 C 
ATOM      5  C3  UNL     1       0.879  -2.655 -34.357  0.00  0.00    +0.049 A 
ATOM      6  C12 UNL     1       2.084  -2.708 -33.679  0.00  0.00    +0.166 A 
ATOM      7  N3  UNL     1       2.790  -1.768 -32.978  0.00  0.00    -0.234 NA
ATOM      8  C13 UNL     1       3.893  -2.178 -32.431  0.00  0.00    +0.135 A 
ATOM      9  C14 UNL     1       4.459  -3.553 -32.495  0.00  0.00    +0.109 A 
ATOM     10  C16 UNL     1       3.756  -4.458 -33.208  0.00  0.00    +0.139 A 
ENDROOT
BRANCH   5  11
ATOM     11  C4  UNL     1       0.050  -1.466 -34.466  0.00  0.00    -0.009 A 
ATOM     12  C5  UNL     1      -0.408  -1.042 -35.717  0.00  0.00    +0.012 A 
ATOM     13  C6  UNL     1      -1.190   0.111 -35.833  0.00  0.00    +0.050 A 
ATOM     14  C7  UNL     1      -1.529   0.855 -34.698  0.00  0.00    +0.162 A 
ATOM     15  C9  UNL     1      -1.079   0.429 -33.432  0.00  0.00    +0.162 A 
ATOM     16  C11 UNL     1      -0.291  -0.724 -33.326  0.00  0.00    +0.058 A 
BRANCH  14  17
ATOM     17  O1  UNL     1      -2.289   1.997 -34.717  0.00  0.00    -0.491 OA
ATOM     18  C8  UNL     1      -3.666   1.868 -35.038  0.00  0.00    +0.277 C 
ENDBRANCH  14  17
BRANCH  15  19
ATOM     19  O2  UNL     1      -1.452   1.212 -32.365  0.00  0.00    -0.491 OA
ATOM     20  C10 UNL     1      -2.127   0.576 -31.290  0.00  0.00    +0.277 C 
ENDBRANCH  15  19
ENDBRANCH   5  11
BRANCH  10  21
ATOM     21  N5  UNL     1       4.110  -5.794 -33.410  0.00  0.00    -0.342 N 
ATOM     22  H14 UNL     1       3.316  -6.339 -33.766  0.00  0.00    +0.144 HD
ATOM     23  H15 UNL     1       4.581  -6.247 -32.630  0.00  0.00    +0.144 HD
ENDBRANCH  10  21
BRANCH   9  24
ATOM     24  C15 UNL     1       5.679  -3.829 -31.835  0.00  0.00    +0.104 C 
ATOM     25  N4  UNL     1       6.687  -4.030 -31.297  0.00  0.00    -0.191 NA
ENDBRANCH   9  24
TORSDOF 5
ENDMDL
MODEL 2
REMARK VINA RESULT:    -4.351     17.319     19.522
REMARK INTER + INTRA:          -5.857
REMARK INTER:                  -5.118
REMARK INTRA:                  -0.739
REMARK UNBOUND:                -0.361
REMARK  Name = /home/vital/Documents/PhD_2021/Malaria_codes/data/pdb_ligands_mmv/ligand_33.pdb
REMARK  8 active torsions:
REMARK  status: ('A' for Active; 'I' for Inactive)
REMARK    1  A    between atoms: C1_3  and  C2_4
REMARK    2  A    between atoms: C3_5  and  C4_6
REMARK    3  A    between atoms: C7_9  and  O1_10
REMARK    4  A    between atoms: O1_10  and  C8_11
REMARK    5  A    between atoms: C9_12  and  O2_13
REMARK    6  A    between atoms: O2_13  and  C10_14
REMARK    7  A    between atoms: C14_19  and  C15_20
REMARK    8  A    between atoms: C16_22  and  N5_23
REMARK                            x       y       z     vdW  Elec       q    Type
REMARK                         _______ _______ _______ _____ _____    ______ ____
ROOT
ATOM      1  N1  UNL     1       2.416   4.377 -14.366  0.00  0.00    -0.199 N 
ATOM      2  N2  UNL     1       1.062   4.427 -14.495  0.00  0.00    -0.168 NA
ATOM      3  C1  UNL     1       0.845   5.292 -15.492  0.00  0.00    +0.070 A 
ATOM      4  C2  UNL     1      -0.547   5.559 -15.936  0.00  0.00    +0.068 C 
ATOM      5  C3  UNL     1       2.051   5.843 -15.996  0.00  0.00    +0.049 A 
ATOM      6  C12 UNL     1       3.057   5.239 -15.262  0.00  0.00    +0.166 A 
ATOM      7  N3  UNL     1       4.420   5.370 -15.283  0.00  0.00    -0.234 NA
ATOM      8  C13 UNL     1       5.071   4.658 -14.415  0.00  0.00    +0.135 A 
ATOM      9  C14 UNL     1       4.487   3.723 -13.415  0.00  0.00    +0.109 A 
ATOM     10  C16 UNL     1       3.144   3.596 -13.426  0.00  0.00    +0.139 A 
ENDROOT
BRANCH   5  11
ATOM     11  C4  UNL     1       2.276   6.830 -17.039  0.00  0.00    -0.009 A 
ATOM     12  C5  UNL     1       2.484   8.171 -16.705  0.00  0.00    +0.012 A 
ATOM     13  C6  UNL     1       2.682   9.129 -17.703  0.00  0.00    +0.050 A 
ATOM     14  C7  UNL     1       2.678   8.760 -19.051  0.00  0.00    +0.162 A 
ATOM     15  C9  UNL     1       2.479   7.408 -19.398  0.00  0.00    +0.162 A 
ATOM     16  C11 UNL     1       2.275   6.456 -18.391  0.00  0.00    +0.058 A 
BRANCH  14  17
ATOM     17  O1  UNL     1       2.863   9.631 -20.095  0.00  0.00    -0.491 OA
ATOM     18  C8  UNL     1       4.174  10.130 -20.315  0.00  0.00    +0.277 C 
ENDBRANCH  14  17
BRANCH  15  19
ATOM     19  O2  UNL     1       2.488   7.123 -20.742  0.00  0.00    -0.491 OA
ATOM     20  C10 UNL     1       1.261   6.726 -21.337  0.00  0.00    +0.277 C 
ENDBRANCH  15  19
ENDBRANCH   5  11
BRANCH  10  21
ATOM     21  N5  UNL     1       2.393   2.767 -12.589  0.00  0.00    -0.342 N 
ATOM     22  H14 UNL     1       2.874   2.609 -11.695  0.00  0.00    +0.144 HD
ATOM     23  H15 UNL     1       2.054   1.905 -13.011  0.00  0.00    +0.144 HD
ENDBRANCH  10  21
BRANCH   9  24
ATOM     24  C15 UNL     1       5.349   3.024 -12.538  0.00  0.00    +0.104 C 
ATOM     25  N4  UNL     1       6.070   2.473 -11.815  0.00  0.00    -0.191 NA
ENDBRANCH   9  24
TORSDOF 5
ENDMDL
MODEL 3
REMARK VINA RESULT:    -4.289     15.963     18.811
REMARK INTER + INTRA:          -5.779
REMARK INTER:                  -5.193
REMARK INTRA:                  -0.585
REMARK UNBOUND:                -0.361
REMARK  Name = /home/vital/Documents/PhD_2021/Malaria_codes/data/pdb_ligands_mmv/ligand_33.pdb
REMARK  8 active torsions:
REMARK  status: ('A' for Active; 'I' for Inactive)
REMARK    1  A    between atoms: C1_3  and  C2_4
REMARK    2  A    between atoms: C3_5  and  C4_6
REMARK    3  A    between atoms: C7_9  and  O1_10
REMARK    4  A    between atoms: O1_10  and  C8_11
REMARK    5  A    between atoms: C9_12  and  O2_13
REMARK    6  A    between atoms: O2_13  and  C10_14
REMARK    7  A    between atoms: C14_19  and  C15_20
REMARK    8  A    between atoms: C16_22  and  N5_23
REMARK                            x       y       z     vdW  Elec       q    Type
REMARK                         _______ _______ _______ _____ _____    ______ ____
ROOT
ATOM      1  N1  UNL     1       3.443   9.399 -20.220  0.00  0.00    -0.199 N 
ATOM      2  N2  UNL     1       3.633  10.348 -19.263  0.00  0.00    -0.168 NA
ATOM      3  C1  UNL     1       3.250   9.765 -18.122  0.00  0.00    +0.070 A 
ATOM      4  C2  UNL     1       3.366  10.513 -16.844  0.00  0.00    +0.068 C 
ATOM      5  C3  UNL     1       2.770   8.445 -18.330  0.00  0.00    +0.049 A 
ATOM      6  C12 UNL     1       2.905   8.223 -19.688  0.00  0.00    +0.166 A 
ATOM      7  N3  UNL     1       2.605   7.148 -20.481  0.00  0.00    -0.234 NA
ATOM      8  C13 UNL     1       2.838   7.297 -21.750  0.00  0.00    +0.135 A 
ATOM      9  C14 UNL     1       3.395   8.505 -22.415  0.00  0.00    +0.109 A 
ATOM     10  C16 UNL     1       3.702   9.544 -21.611  0.00  0.00    +0.139 A 
ENDROOT
BRANCH   5  11
ATOM     11  C4  UNL     1       2.230   7.478 -17.389  0.00  0.00    -0.009 A 
ATOM     12  C5  UNL     1       3.054   6.914 -16.411  0.00  0.00    +0.012 A 
ATOM     13  C6  UNL     1       2.548   5.968 -15.514  0.00  0.00    +0.050 A 
ATOM     14  C7  UNL     1       1.207   5.576 -15.581  0.00  0.00    +0.162 A 
ATOM     15  C9  UNL     1       0.366   6.146 -16.558  0.00  0.00    +0.162 A 
ATOM     16  C11 UNL     1       0.884   7.088 -17.456  0.00  0.00    +0.058 A 
BRANCH  14  17
ATOM     17  O1  UNL     1       0.625   4.656 -14.745  0.00  0.00    -0.491 OA
ATOM     18  C8  UNL     1       1.449   4.038 -13.767  0.00  0.00    +0.277 C 
ENDBRANCH  14  17
BRANCH  15  19
ATOM     19  O2  UNL     1      -0.937   5.710 -16.560  0.00  0.00    -0.491 OA
ATOM     20  C10 UNL     1      -1.564   5.527 -17.822  0.00  0.00    +0.277 C 
ENDBRANCH  15  19
ENDBRANCH   5  11
BRANCH  10  21
ATOM     21  N5  UNL     1       4.247  10.764 -22.022  0.00  0.00    -0.342 N 
ATOM     22  H14 UNL     1       3.572  11.304 -22.576  0.00  0.00    +0.144 HD
ATOM     23  H15 UNL     1       5.164  10.710 -22.460  0.00  0.00    +0.144 HD
ENDBRANCH  10  21
BRANCH   9  24
ATOM     24  C15 UNL     1       3.583   8.496 -23.817  0.00  0.00    +0.104 C 
ATOM     25  N4  UNL     1       3.763   8.486 -24.964  0.00  0.00    -0.191 NA
ENDBRANCH   9  24
TORSDOF 5
ENDMDL
MODEL 4
REMARK VINA RESULT:    -4.200      3.185      4.693
REMARK INTER + INTRA:          -5.666
REMARK INTER:                  -4.961
REMARK INTRA:                  -0.705
REMARK UNBOUND:                -0.361
REMARK  Name = /home/vital/Documents/PhD_2021/Malaria_codes/data/pdb_ligands_mmv/ligand_33.pdb
REMARK  8 active torsions:
REMARK  status: ('A' for Active; 'I' for Inactive)
REMARK    1  A    between atoms: C1_3  and  C2_4
REMARK    2  A    between atoms: C3_5  and  C4_6
REMARK    3  A    between atoms: C7_9  and  O1_10
REMARK    4  A    between atoms: O1_10  and  C8_11
REMARK    5  A    between atoms: C9_12  and  O2_13
REMARK    6  A    between atoms: O2_13  and  C10_14
REMARK    7  A    between atoms: C14_19  and  C15_20
REMARK    8  A    between atoms: C16_22  and  N5_23
REMARK                            x       y       z     vdW  Elec       q    Type
REMARK                         _______ _______ _______ _____ _____    ______ ____
ROOT
ATOM      1  N1  UNL     1       1.551  -7.056 -32.836  0.00  0.00    -0.199 N 
ATOM      2  N2  UNL     1       2.851  -6.652 -32.878  0.00  0.00    -0.168 NA
ATOM      3  C1  UNL     1       2.797  -5.365 -33.236  0.00  0.00    +0.070 A 
ATOM      4  C2  UNL     1       4.056  -4.582 -33.338  0.00  0.00    +0.068 C 
ATOM      5  C3  UNL     1       1.467  -4.928 -33.469  0.00  0.00    +0.049 A 
ATOM      6  C12 UNL     1       0.675  -6.030 -33.203  0.00  0.00    +0.166 A 
ATOM      7  N3  UNL     1      -0.679  -6.228 -33.259  0.00  0.00    -0.234 NA
ATOM      8  C13 UNL     1      -1.090  -7.424 -32.966  0.00  0.00    +0.135 A 
ATOM      9  C14 UNL     1      -0.243  -8.584 -32.577  0.00  0.00    +0.109 A 
ATOM     10  C16 UNL     1       1.086  -8.360 -32.509  0.00  0.00    +0.139 A 
ENDROOT
BRANCH   5  11
ATOM     11  C4  UNL     1       0.959  -3.636 -33.901  0.00  0.00    -0.009 A 
ATOM     12  C5  UNL     1       0.519  -3.458 -35.215  0.00  0.00    +0.012 A 
ATOM     13  C6  UNL     1       0.047  -2.214 -35.643  0.00  0.00    +0.050 A 
ATOM     14  C7  UNL     1       0.004  -1.130 -34.761  0.00  0.00    +0.162 A 
ATOM     15  C9  UNL     1       0.437  -1.303 -33.431  0.00  0.00    +0.162 A 
ATOM     16  C11 UNL     1       0.914  -2.551 -33.012  0.00  0.00    +0.058 A 
BRANCH  14  17
ATOM     17  O1  UNL     1      -0.442   0.124 -35.093  0.00  0.00    -0.491 OA
ATOM     18  C8  UNL     1      -1.802   0.261 -35.478  0.00  0.00    +0.277 C 
ENDBRANCH  14  17
BRANCH  15  19
ATOM     19  O2  UNL     1       0.365  -0.192 -32.625  0.00  0.00    -0.491 OA
ATOM     20  C10 UNL     1       1.589   0.364 -32.164  0.00  0.00    +0.277 C 
ENDBRANCH  15  19
ENDBRANCH   5  11
BRANCH  10  21
ATOM     21  N5  UNL     1       2.057  -9.299 -32.151  0.00  0.00    -0.342 N 
ATOM     22  H14 UNL     1       2.902  -8.840 -31.793  0.00  0.00    +0.144 HD
ATOM     23  H15 UNL     1       2.260 -10.010 -32.850  0.00  0.00    +0.144 HD
ENDBRANCH  10  21
BRANCH   9  24
ATOM     24  C15 UNL     1      -0.860  -9.824 -32.293  0.00  0.00    +0.104 C 
ATOM     25  N4  UNL     1      -1.376 -10.842 -32.083  0.00  0.00    -0.191 NA
ENDBRANCH   9  24
TORSDOF 5
ENDMDL
MODEL 5
REMARK VINA RESULT:    -4.170     16.085     17.974
REMARK INTER + INTRA:          -5.629
REMARK INTER:                  -4.847
REMARK INTRA:                  -0.782
REMARK UNBOUND:                -0.361
REMARK  Name = /home/vital/Documents/PhD_2021/Malaria_codes/data/pdb_ligands_mmv/ligand_33.pdb
REMARK  8 active torsions:
REMARK  status: ('A' for Active; 'I' for Inactive)
REMARK    1  A    between atoms: C1_3  and  C2_4
REMARK    2  A    between atoms: C3_5  and  C4_6
REMARK    3  A    between atoms: C7_9  and  O1_10
REMARK    4  A    between atoms: O1_10  and  C8_11
REMARK    5  A    between atoms: C9_12  and  O2_13
REMARK    6  A    between atoms: O2_13  and  C10_14
REMARK    7  A    between atoms: C14_19  and  C15_20
REMARK    8  A    between atoms: C16_22  and  N5_23
REMARK                            x       y       z     vdW  Elec       q    Type
REMARK                         _______ _______ _______ _____ _____    ______ ____
ROOT
ATOM      1  N1  UNL     1       0.300   6.644 -17.822  0.00  0.00    -0.199 N 
ATOM      2  N2  UNL     1       1.069   7.144 -16.816  0.00  0.00    -0.168 NA
ATOM      3  C1  UNL     1       2.130   7.680 -17.431  0.00  0.00    +0.070 A 
ATOM      4  C2  UNL     1       3.173   8.365 -16.625  0.00  0.00    +0.068 C 
ATOM      5  C3  UNL     1       2.081   7.499 -18.838  0.00  0.00    +0.049 A 
ATOM      6  C12 UNL     1       0.892   6.833 -19.074  0.00  0.00    +0.166 A 
ATOM      7  N3  UNL     1       0.302   6.378 -20.224  0.00  0.00    -0.234 NA
ATOM      8  C13 UNL     1      -0.826   5.754 -20.073  0.00  0.00    +0.135 A 
ATOM      9  C14 UNL     1      -1.532   5.491 -18.789  0.00  0.00    +0.109 A 
ATOM     10  C16 UNL     1      -0.941   5.966 -17.673  0.00  0.00    +0.139 A 
ENDROOT
BRANCH   5  11
ATOM     11  C4  UNL     1       3.026   7.885 -19.873  0.00  0.00    -0.009 A 
ATOM     12  C5  UNL     1       2.966   9.162 -20.438  0.00  0.00    +0.012 A 
ATOM     13  C6  UNL     1       3.859   9.535 -21.447  0.00  0.00    +0.050 A 
ATOM     14  C7  UNL     1       4.828   8.636 -21.903  0.00  0.00    +0.162 A 
ATOM     15  C9  UNL     1       4.903   7.349 -21.332  0.00  0.00    +0.162 A 
ATOM     16  C11 UNL     1       3.999   6.983 -20.326  0.00  0.00    +0.058 A 
BRANCH  14  17
ATOM     17  O1  UNL     1       5.743   8.914 -22.887  0.00  0.00    -0.491 OA
ATOM     18  C8  UNL     1       6.622  10.010 -22.681  0.00  0.00    +0.277 C 
ENDBRANCH  14  17
BRANCH  15  19
ATOM     19  O2  UNL     1       5.880   6.524 -21.833  0.00  0.00    -0.491 OA
ATOM     20  C10 UNL     1       6.906   6.108 -20.942  0.00  0.00    +0.277 C 
ENDBRANCH  15  19
ENDBRANCH   5  11
BRANCH  10  21
ATOM     21  N5  UNL     1      -1.436   5.846 -16.371  0.00  0.00    -0.342 N 
ATOM     22  H14 UNL     1      -1.416   4.869 -16.056  0.00  0.00    +0.144 HD
ATOM     23  H15 UNL     1      -2.331   6.299 -16.197  0.00  0.00    +0.144 HD
ENDBRANCH  10  21
BRANCH   9  24
ATOM     24  C15 UNL     1      -2.759   4.789 -18.808  0.00  0.00    +0.104 C 
ATOM     25  N4  UNL     1      -3.771   4.222 -18.847  0.00  0.00    -0.191 NA
ENDBRANCH   9  24
TORSDOF 5
ENDMDL
MODEL 6
REMARK VINA RESULT:    -4.126     16.079     18.081
REMARK INTER + INTRA:          -5.573
REMARK INTER:                  -4.857
REMARK INTRA:                  -0.716
REMARK UNBOUND:                -0.361
REMARK  Name = /home/vital/Documents/PhD_2021/Malaria_codes/data/pdb_ligands_mmv/ligand_33.pdb
REMARK  8 active torsions:
REMARK  status: ('A' for Active; 'I' for Inactive)
REMARK    1  A    between atoms: C1_3  and  C2_4
REMARK    2  A    between atoms: C3_5  and  C4_6
REMARK    3  A    between atoms: C7_9  and  O1_10
REMARK    4  A    between atoms: O1_10  and  C8_11
REMARK    5  A    between atoms: C9_12  and  O2_13
REMARK    6  A    between atoms: O2_13  and  C10_14
REMARK    7  A    between atoms: C14_19  and  C15_20
REMARK    8  A    between atoms: C16_22  and  N5_23
REMARK                            x       y       z     vdW  Elec       q    Type
REMARK                         _______ _______ _______ _____ _____    ______ ____
ROOT
ATOM      1  N1  UNL     1       1.540   7.718 -18.521  0.00  0.00    -0.199 N 
ATOM      2  N2  UNL     1       2.036   8.555 -17.570  0.00  0.00    -0.168 NA
ATOM      3  C1  UNL     1       2.995   9.250 -18.193  0.00  0.00    +0.070 A 
ATOM      4  C2  UNL     1       3.732  10.305 -17.451  0.00  0.00    +0.068 C 
ATOM      5  C3  UNL     1       3.159   8.845 -19.543  0.00  0.00    +0.049 A 
ATOM      6  C12 UNL     1       2.210   7.858 -19.741  0.00  0.00    +0.166 A 
ATOM      7  N3  UNL     1       1.892   7.089 -20.828  0.00  0.00    -0.234 NA
ATOM      8  C13 UNL     1       0.945   6.218 -20.649  0.00  0.00    +0.135 A 
ATOM      9  C14 UNL     1       0.180   5.983 -19.394  0.00  0.00    +0.109 A 
ATOM     10  C16 UNL     1       0.498   6.766 -18.343  0.00  0.00    +0.139 A 
ENDROOT
BRANCH   5  11
ATOM     11  C4  UNL     1       4.094   9.300 -20.559  0.00  0.00    -0.009 A 
ATOM     12  C5  UNL     1       3.644  10.081 -21.628  0.00  0.00    +0.012 A 
ATOM     13  C6  UNL     1       4.533  10.508 -22.619  0.00  0.00    +0.050 A 
ATOM     14  C7  UNL     1       5.886  10.163 -22.554  0.00  0.00    +0.162 A 
ATOM     15  C9  UNL     1       6.351   9.383 -21.475  0.00  0.00    +0.162 A 
ATOM     16  C11 UNL     1       5.451   8.955 -20.489  0.00  0.00    +0.058 A 
BRANCH  14  17
ATOM     17  O1  UNL     1       6.828  10.535 -23.480  0.00  0.00    -0.491 OA
ATOM     18  C8  UNL     1       6.668  10.065 -24.810  0.00  0.00    +0.277 C 
ENDBRANCH  14  17
BRANCH  15  19
ATOM     19  O2  UNL     1       7.692   9.085 -21.480  0.00  0.00    -0.491 OA
ATOM     20  C10 UNL     1       8.059   7.717 -21.595  0.00  0.00    +0.277 C 
ENDBRANCH  15  19
ENDBRANCH   5  11
BRANCH  10  21
ATOM     21  N5  UNL     1      -0.102   6.724 -17.081  0.00  0.00    -0.342 N 
ATOM     22  H14 UNL     1       0.186   7.526 -16.507  0.00  0.00    +0.144 HD
ATOM     23  H15 UNL     1      -0.026   5.838 -16.587  0.00  0.00    +0.144 HD
ENDBRANCH  10  21
BRANCH   9  24
ATOM     24  C15 UNL     1      -0.822   4.986 -19.375  0.00  0.00    +0.104 C 
ATOM     25  N4  UNL     1      -1.647   4.169 -19.333  0.00  0.00    -0.191 NA
ENDBRANCH   9  24
TORSDOF 5
ENDMDL
MODEL 7
REMARK VINA RESULT:    -4.123     15.555     17.828
REMARK INTER + INTRA:          -5.569
REMARK INTER:                  -4.965
REMARK INTRA:                  -0.604
REMARK UNBOUND:                -0.361
REMARK  Name = /home/vital/Documents/PhD_2021/Malaria_codes/data/pdb_ligands_mmv/ligand_33.pdb
REMARK  8 active torsions:
REMARK  status: ('A' for Active; 'I' for Inactive)
REMARK    1  A    between atoms: C1_3  and  C2_4
REMARK    2  A    between atoms: C3_5  and  C4_6
REMARK    3  A    between atoms: C7_9  and  O1_10
REMARK    4  A    between atoms: O1_10  and  C8_11
REMARK    5  A    between atoms: C9_12  and  O2_13
REMARK    6  A    between atoms: O2_13  and  C10_14
REMARK    7  A    between atoms: C14_19  and  C15_20
REMARK    8  A    between atoms: C16_22  and  N5_23
REMARK                            x       y       z     vdW  Elec       q    Type
REMARK                         _______ _______ _______ _____ _____    ______ ____
ROOT
ATOM      1  N1  UNL     1       0.242   6.770 -18.101  0.00  0.00    -0.199 N 
ATOM      2  N2  UNL     1       0.830   7.461 -17.086  0.00  0.00    -0.168 NA
ATOM      3  C1  UNL     1       1.919   8.011 -17.634  0.00  0.00    +0.070 A 
ATOM      4  C2  UNL     1       2.790   8.886 -16.807  0.00  0.00    +0.068 C 
ATOM      5  C3  UNL     1       2.073   7.652 -18.998  0.00  0.00    +0.049 A 
ATOM      6  C12 UNL     1       0.981   6.854 -19.285  0.00  0.00    +0.166 A 
ATOM      7  N3  UNL     1       0.586   6.206 -20.425  0.00  0.00    -0.234 NA
ATOM      8  C13 UNL     1      -0.501   5.503 -20.330  0.00  0.00    +0.135 A 
ATOM      9  C14 UNL     1      -1.350   5.339 -19.119  0.00  0.00    +0.109 A 
ATOM     10  C16 UNL     1      -0.952   6.003 -18.014  0.00  0.00    +0.139 A 
ENDROOT
BRANCH   5  11
ATOM     11  C4  UNL     1       3.116   7.992 -19.953  0.00  0.00    -0.009 A 
ATOM     12  C5  UNL     1       4.423   7.536 -19.757  0.00  0.00    +0.012 A 
ATOM     13  C6  UNL     1       5.435   7.874 -20.660  0.00  0.00    +0.050 A 
ATOM     14  C7  UNL     1       5.154   8.669 -21.776  0.00  0.00    +0.162 A 
ATOM     15  C9  UNL     1       3.836   9.125 -21.986  0.00  0.00    +0.162 A 
ATOM     16  C11 UNL     1       2.830   8.787 -21.072  0.00  0.00    +0.058 A 
BRANCH  14  17
ATOM     17  O1  UNL     1       6.082   9.050 -22.712  0.00  0.00    -0.491 OA
ATOM     18  C8  UNL     1       7.226   9.757 -22.258  0.00  0.00    +0.277 C 
ENDBRANCH  14  17
BRANCH  15  19
ATOM     19  O2  UNL     1       3.638   9.901 -23.103  0.00  0.00    -0.491 OA
ATOM     20  C10 UNL     1       2.926   9.321 -24.186  0.00  0.00    +0.277 C 
ENDBRANCH  15  19
ENDBRANCH   5  11
BRANCH  10  21
ATOM     21  N5  UNL     1      -1.606   6.001 -16.779  0.00  0.00    -0.342 N 
ATOM     22  H14 UNL     1      -1.075   5.469 -16.079  0.00  0.00    +0.144 HD
ATOM     23  H15 UNL     1      -2.591   5.748 -16.803  0.00  0.00    +0.144 HD
ENDBRANCH  10  21
BRANCH   9  24
ATOM     24  C15 UNL     1      -2.507   4.529 -19.192  0.00  0.00    +0.104 C 
ATOM     25  N4  UNL     1      -3.444   3.848 -19.270  0.00  0.00    -0.191 NA
ENDBRANCH   9  24
TORSDOF 5
ENDMDL
MODEL 8
REMARK VINA RESULT:    -4.046     14.103     16.766
REMARK INTER + INTRA:          -5.472
REMARK INTER:                  -4.715
REMARK INTRA:                  -0.758
REMARK UNBOUND:                -0.361
REMARK  Name = /home/vital/Documents/PhD_2021/Malaria_codes/data/pdb_ligands_mmv/ligand_33.pdb
REMARK  8 active torsions:
REMARK  status: ('A' for Active; 'I' for Inactive)
REMARK    1  A    between atoms: C1_3  and  C2_4
REMARK    2  A    between atoms: C3_5  and  C4_6
REMARK    3  A    between atoms: C7_9  and  O1_10
REMARK    4  A    between atoms: O1_10  and  C8_11
REMARK    5  A    between atoms: C9_12  and  O2_13
REMARK    6  A    between atoms: O2_13  and  C10_14
REMARK    7  A    between atoms: C14_19  and  C15_20
REMARK    8  A    between atoms: C16_22  and  N5_23
REMARK                            x       y       z     vdW  Elec       q    Type
REMARK                         _______ _______ _______ _____ _____    ______ ____
ROOT
ATOM      1  N1  UNL     1       0.049   6.587 -17.557  0.00  0.00    -0.199 N 
ATOM      2  N2  UNL     1      -1.077   5.967 -17.108  0.00  0.00    -0.168 NA
ATOM      3  C1  UNL     1      -1.741   5.620 -18.216  0.00  0.00    +0.070 A 
ATOM      4  C2  UNL     1      -3.019   4.872 -18.098  0.00  0.00    +0.068 C 
ATOM      5  C3  UNL     1      -1.075   6.044 -19.396  0.00  0.00    +0.049 A 
ATOM      6  C12 UNL     1       0.081   6.663 -18.953  0.00  0.00    +0.166 A 
ATOM      7  N3  UNL     1       1.111   7.275 -19.616  0.00  0.00    -0.234 NA
ATOM      8  C13 UNL     1       2.040   7.788 -18.868  0.00  0.00    +0.135 A 
ATOM      9  C14 UNL     1       2.095   7.772 -17.381  0.00  0.00    +0.109 A 
ATOM     10  C16 UNL     1       1.079   7.146 -16.751  0.00  0.00    +0.139 A 
ENDROOT
BRANCH   5  11
ATOM     11  C4  UNL     1      -1.451   5.911 -20.793  0.00  0.00    -0.009 A 
ATOM     12  C5  UNL     1      -1.028   4.802 -21.532  0.00  0.00    +0.012 A 
ATOM     13  C6  UNL     1      -1.370   4.676 -22.882  0.00  0.00    +0.050 A 
ATOM     14  C7  UNL     1      -2.144   5.655 -23.511  0.00  0.00    +0.162 A 
ATOM     15  C9  UNL     1      -2.584   6.772 -22.771  0.00  0.00    +0.162 A 
ATOM     16  C11 UNL     1      -2.231   6.893 -21.421  0.00  0.00    +0.058 A 
BRANCH  14  17
ATOM     17  O1  UNL     1      -2.526   5.614 -24.829  0.00  0.00    -0.491 OA
ATOM     18  C8  UNL     1      -3.349   4.534 -25.245  0.00  0.00    +0.277 C 
ENDBRANCH  14  17
BRANCH  15  19
ATOM     19  O2  UNL     1      -3.340   7.690 -23.459  0.00  0.00    -0.491 OA
ATOM     20  C10 UNL     1      -4.216   8.516 -22.704  0.00  0.00    +0.277 C 
ENDBRANCH  15  19
ENDBRANCH   5  11
BRANCH  10  21
ATOM     21  N5  UNL     1       0.940   7.001 -15.368  0.00  0.00    -0.342 N 
ATOM     22  H14 UNL     1       1.258   6.075 -15.059  0.00  0.00    +0.144 HD
ATOM     23  H15 UNL     1       0.030   7.253 -14.989  0.00  0.00    +0.144 HD
ENDBRANCH  10  21
BRANCH   9  24
ATOM     24  C15 UNL     1       3.187   8.385 -16.725  0.00  0.00    +0.104 C 
ATOM     25  N4  UNL     1       4.098   8.867 -16.190  0.00  0.00    -0.191 NA
ENDBRANCH   9  24
TORSDOF 5
ENDMDL
MODEL 9
REMARK VINA RESULT:    -3.787      3.160      4.942
REMARK INTER + INTRA:          -5.145
REMARK INTER:                  -4.437
REMARK INTRA:                  -0.708
REMARK UNBOUND:                -0.361
REMARK  Name = /home/vital/Documents/PhD_2021/Malaria_codes/data/pdb_ligands_mmv/ligand_33.pdb
REMARK  8 active torsions:
REMARK  status: ('A' for Active; 'I' for Inactive)
REMARK    1  A    between atoms: C1_3  and  C2_4
REMARK    2  A    between atoms: C3_5  and  C4_6
REMARK    3  A    between atoms: C7_9  and  O1_10
REMARK    4  A    between atoms: O1_10  and  C8_11
REMARK    5  A    between atoms: C9_12  and  O2_13
REMARK    6  A    between atoms: O2_13  and  C10_14
REMARK    7  A    between atoms: C14_19  and  C15_20
REMARK    8  A    between atoms: C16_22  and  N5_23
REMARK                            x       y       z     vdW  Elec       q    Type
REMARK                         _______ _______ _______ _____ _____    ______ ____
ROOT
ATOM      1  N1  UNL     1       1.517  -6.885 -32.730  0.00  0.00    -0.199 N 
ATOM      2  N2  UNL     1       2.839  -6.633 -32.936  0.00  0.00    -0.168 NA
ATOM      3  C1  UNL     1       2.918  -5.304 -33.064  0.00  0.00    +0.070 A 
ATOM      4  C2  UNL     1       4.246  -4.667 -33.261  0.00  0.00    +0.068 C 
ATOM      5  C3  UNL     1       1.646  -4.681 -32.982  0.00  0.00    +0.049 A 
ATOM      6  C12 UNL     1       0.753  -5.714 -32.763  0.00  0.00    +0.166 A 
ATOM      7  N3  UNL     1      -0.608  -5.740 -32.609  0.00  0.00    -0.234 NA
ATOM      8  C13 UNL     1      -1.138  -6.914 -32.446  0.00  0.00    +0.135 A 
ATOM      9  C14 UNL     1      -0.418  -8.216 -32.408  0.00  0.00    +0.109 A 
ATOM     10  C16 UNL     1       0.923  -8.163 -32.542  0.00  0.00    +0.139 A 
ENDROOT
BRANCH   5  11
ATOM     11  C4  UNL     1       1.270  -3.281 -33.101  0.00  0.00    -0.009 A 
ATOM     12  C5  UNL     1       1.498  -2.401 -32.039  0.00  0.00    +0.012 A 
ATOM     13  C6  UNL     1       1.122  -1.058 -32.138  0.00  0.00    +0.050 A 
ATOM     14  C7  UNL     1       0.517  -0.575 -33.302  0.00  0.00    +0.162 A 
ATOM     15  C9  UNL     1       0.292  -1.454 -34.382  0.00  0.00    +0.162 A 
ATOM     16  C11 UNL     1       0.666  -2.799 -34.271  0.00  0.00    +0.058 A 
BRANCH  14  17
ATOM     17  O1  UNL     1       0.116   0.724 -33.487  0.00  0.00    -0.491 OA
ATOM     18  C8  UNL     1      -0.999   1.184 -32.737  0.00  0.00    +0.277 C 
ENDBRANCH  14  17
BRANCH  15  19
ATOM     19  O2  UNL     1      -0.307  -0.905 -35.490  0.00  0.00    -0.491 OA
ATOM     20  C10 UNL     1      -1.035  -1.780 -36.341  0.00  0.00    +0.277 C 
ENDBRANCH  15  19
ENDBRANCH   5  11
BRANCH  10  21
ATOM     21  N5  UNL     1       1.791  -9.259 -32.521  0.00  0.00    -0.342 N 
ATOM     22  H14 UNL     1       1.508  -9.970 -33.205  0.00  0.00    +0.144 HD
ATOM     23  H15 UNL     1       1.983  -9.650 -31.601  0.00  0.00    +0.144 HD
ENDBRANCH  10  21
BRANCH   9  24
ATOM     24  C15 UNL     1      -1.157  -9.407 -32.224  0.00  0.00    +0.104 C 
ATOM     25  N4  UNL     1      -1.772 -10.384 -32.098  0.00  0.00    -0.191 NA
ENDBRANCH   9  24
TORSDOF 5
ENDMDL
