MODEL 1
REMARK VINA RESULT:    -7.307      0.000      0.000
REMARK INTER + INTRA:          -8.811
REMARK INTER:                  -8.162
REMARK INTRA:                  -0.650
REMARK UNBOUND:                -0.650
REMARK  Name = /home/vital/Documents/PhD_2021/Malaria_codes/data/pdb_ligands_mmv/ligand_334.pdb
REMARK  5 active torsions:
REMARK  status: ('A' for Active; 'I' for Inactive)
REMARK    1  A    between atoms: C1_1  and  C2_2
REMARK    2  A    between atoms: C10_13  and  C11_14
REMARK    3  A    between atoms: C11_14  and  C12_16
REMARK    4  A    between atoms: C15_19  and  C16_20
REMARK    5  A    between atoms: C19_23  and  C20_24
REMARK                            x       y       z     vdW  Elec       q    Type
REMARK                         _______ _______ _______ _____ _____    ______ ____
ROOT
ATOM      1  C1  UNL     1       2.799   8.769 -23.935  0.00  0.00    +0.045 C 
ATOM      2  C2  UNL     1       2.865   8.865 -22.439  0.00  0.00    -0.033 A 
ATOM      3  C3  UNL     1       3.644   9.777 -21.839  0.00  0.00    +0.096 A 
ATOM      4  C4  UNL     1       3.751   9.920 -20.381  0.00  0.00    +0.337 A 
ATOM      5  O1  UNL     1       4.484  10.767 -19.884  0.00  0.00    -0.245 OA
ATOM      6  O2  UNL     1       2.993   9.055 -19.617  0.00  0.00    -0.421 OA
ATOM      7  C5  UNL     1       2.154   8.078 -20.200  0.00  0.00    +0.150 A 
ATOM      8  C6  UNL     1       2.070   7.954 -21.599  0.00  0.00    +0.021 A 
ATOM      9  C7  UNL     1       1.231   6.965 -22.139  0.00  0.00    +0.015 A 
ATOM     10  C8  UNL     1       0.481   6.104 -21.325  0.00  0.00    +0.048 A 
ATOM     11  C9  UNL     1       0.606   6.274 -19.950  0.00  0.00    +0.140 A 
ATOM     12  O3  UNL     1      -0.036   5.540 -19.010  0.00  0.00    -0.451 OA
ATOM     13  C10 UNL     1       0.359   5.996 -17.781  0.00  0.00    +0.179 A 
ATOM     14  C19 UNL     1       1.231   7.071 -17.939  0.00  0.00    +0.010 A 
ATOM     15  C20 UNL     1       1.844   7.917 -16.880  0.00  0.00    +0.048 C 
ATOM     16  C21 UNL     1       1.412   7.229 -19.353  0.00  0.00    +0.067 A 
ENDROOT
BRANCH  13  17
ATOM     17  C11 UNL     1      -0.202   5.319 -16.627  0.00  0.00    +0.228 C 
ATOM     18  O4  UNL     1      -1.411   5.218 -16.421  0.00  0.00    -0.283 OA
BRANCH  17  19
ATOM     19  C12 UNL     1       0.713   4.697 -15.631  0.00  0.00    +0.025 A 
ATOM     20  C13 UNL     1       1.418   3.544 -15.993  0.00  0.00    +0.012 A 
ATOM     21  C14 UNL     1       2.289   2.941 -15.084  0.00  0.00    +0.004 A 
ATOM     22  C15 UNL     1       2.466   3.482 -13.804  0.00  0.00    -0.050 A 
ATOM     23  C16 UNL     1       3.429   2.853 -12.841  0.00  0.00    +0.044 C 
ATOM     24  C17 UNL     1       1.785   4.657 -13.459  0.00  0.00    +0.004 A 
ATOM     25  C18 UNL     1       0.914   5.265 -14.367  0.00  0.00    +0.012 A 
ENDBRANCH  17  19
ENDBRANCH  13  17
TORSDOF 2
ENDMDL
MODEL 2
REMARK VINA RESULT:    -7.026     13.675     16.748
REMARK INTER + INTRA:          -8.497
REMARK INTER:                  -8.109
REMARK INTRA:                  -0.389
REMARK UNBOUND:                -0.650
REMARK  Name = /home/vital/Documents/PhD_2021/Malaria_codes/data/pdb_ligands_mmv/ligand_334.pdb
REMARK  5 active torsions:
REMARK  status: ('A' for Active; 'I' for Inactive)
REMARK    1  A    between atoms: C1_1  and  C2_2
REMARK    2  A    between atoms: C10_13  and  C11_14
REMARK    3  A    between atoms: C11_14  and  C12_16
REMARK    4  A    between atoms: C15_19  and  C16_20
REMARK    5  A    between atoms: C19_23  and  C20_24
REMARK                            x       y       z     vdW  Elec       q    Type
REMARK                         _______ _______ _______ _____ _____    ______ ____
ROOT
ATOM      1  C1  UNL     1       5.789  -4.405 -22.376  0.00  0.00    +0.045 C 
ATOM      2  C2  UNL     1       4.923  -4.397 -23.602  0.00  0.00    -0.033 A 
ATOM      3  C3  UNL     1       3.589  -4.495 -23.506  0.00  0.00    +0.096 A 
ATOM      4  C4  UNL     1       2.689  -4.493 -24.666  0.00  0.00    +0.337 A 
ATOM      5  O1  UNL     1       1.477  -4.592 -24.522  0.00  0.00    -0.245 OA
ATOM      6  O2  UNL     1       3.282  -4.379 -25.909  0.00  0.00    -0.421 OA
ATOM      7  C5  UNL     1       4.682  -4.270 -26.064  0.00  0.00    +0.150 A 
ATOM      8  C6  UNL     1       5.527  -4.280 -24.939  0.00  0.00    +0.021 A 
ATOM      9  C7  UNL     1       6.915  -4.177 -25.137  0.00  0.00    +0.015 A 
ATOM     10  C8  UNL     1       7.474  -4.067 -26.418  0.00  0.00    +0.048 A 
ATOM     11  C9  UNL     1       6.589  -4.064 -27.490  0.00  0.00    +0.140 A 
ATOM     12  O3  UNL     1       6.941  -3.967 -28.795  0.00  0.00    -0.451 OA
ATOM     13  C10 UNL     1       5.796  -4.017 -29.544  0.00  0.00    +0.179 A 
ATOM     14  C19 UNL     1       4.690  -4.099 -28.701  0.00  0.00    +0.010 A 
ATOM     15  C20 UNL     1       3.250  -4.100 -29.074  0.00  0.00    +0.048 C 
ATOM     16  C21 UNL     1       5.213  -4.159 -27.366  0.00  0.00    +0.067 A 
ENDROOT
BRANCH  13  17
ATOM     17  C11 UNL     1       5.959  -3.952 -30.984  0.00  0.00    +0.228 C 
ATOM     18  O4  UNL     1       7.040  -4.102 -31.551  0.00  0.00    -0.283 OA
BRANCH  17  19
ATOM     19  C12 UNL     1       4.767  -3.703 -31.841  0.00  0.00    +0.025 A 
ATOM     20  C13 UNL     1       4.378  -2.381 -32.084  0.00  0.00    +0.012 A 
ATOM     21  C14 UNL     1       3.269  -2.114 -32.889  0.00  0.00    +0.004 A 
ATOM     22  C15 UNL     1       2.538  -3.163 -33.460  0.00  0.00    -0.050 A 
ATOM     23  C16 UNL     1       1.367  -2.873 -34.353  0.00  0.00    +0.044 C 
ATOM     24  C17 UNL     1       2.953  -4.483 -33.243  0.00  0.00    +0.004 A 
ATOM     25  C18 UNL     1       4.064  -4.755 -32.440  0.00  0.00    +0.012 A 
ENDBRANCH  17  19
ENDBRANCH  13  17
TORSDOF 2
ENDMDL
MODEL 3
REMARK VINA RESULT:    -6.929     14.685     18.108
REMARK INTER + INTRA:          -8.389
REMARK INTER:                  -7.864
REMARK INTRA:                  -0.524
REMARK UNBOUND:                -0.650
REMARK  Name = /home/vital/Documents/PhD_2021/Malaria_codes/data/pdb_ligands_mmv/ligand_334.pdb
REMARK  5 active torsions:
REMARK  status: ('A' for Active; 'I' for Inactive)
REMARK    1  A    between atoms: C1_1  and  C2_2
REMARK    2  A    between atoms: C10_13  and  C11_14
REMARK    3  A    between atoms: C11_14  and  C12_16
REMARK    4  A    between atoms: C15_19  and  C16_20
REMARK    5  A    between atoms: C19_23  and  C20_24
REMARK                            x       y       z     vdW  Elec       q    Type
REMARK                         _______ _______ _______ _____ _____    ______ ____
ROOT
ATOM      1  C1  UNL     1       1.807  -8.524 -33.140  0.00  0.00    +0.045 C 
ATOM      2  C2  UNL     1       1.819  -7.467 -32.074  0.00  0.00    -0.033 A 
ATOM      3  C3  UNL     1       0.950  -7.505 -31.054  0.00  0.00    +0.096 A 
ATOM      4  C4  UNL     1       0.911  -6.502 -29.982  0.00  0.00    +0.337 A 
ATOM      5  O1  UNL     1       0.091  -6.580 -29.076  0.00  0.00    -0.245 OA
ATOM      6  O2  UNL     1       1.837  -5.479 -30.058  0.00  0.00    -0.421 OA
ATOM      7  C5  UNL     1       2.777  -5.395 -31.111  0.00  0.00    +0.150 A 
ATOM      8  C6  UNL     1       2.792  -6.364 -32.131  0.00  0.00    +0.021 A 
ATOM      9  C7  UNL     1       3.737  -6.240 -33.164  0.00  0.00    +0.015 A 
ATOM     10  C8  UNL     1       4.657  -5.183 -33.205  0.00  0.00    +0.048 A 
ATOM     11  C9  UNL     1       4.591  -4.256 -32.169  0.00  0.00    +0.140 A 
ATOM     12  O3  UNL     1       5.393  -3.172 -32.039  0.00  0.00    -0.451 OA
ATOM     13  C10 UNL     1       5.010  -2.500 -30.909  0.00  0.00    +0.179 A 
ATOM     14  C19 UNL     1       3.978  -3.193 -30.281  0.00  0.00    +0.010 A 
ATOM     15  C20 UNL     1       3.309  -2.872 -28.992  0.00  0.00    +0.048 C 
ATOM     16  C21 UNL     1       3.689  -4.319 -31.121  0.00  0.00    +0.067 A 
ENDROOT
BRANCH  13  17
ATOM     17  C11 UNL     1       5.737  -1.283 -30.600  0.00  0.00    +0.228 C 
ATOM     18  O4  UNL     1       6.325  -1.096 -29.536  0.00  0.00    -0.283 OA
BRANCH  17  19
ATOM     19  C12 UNL     1       5.796  -0.193 -31.612  0.00  0.00    +0.025 A 
ATOM     20  C13 UNL     1       4.706   0.676 -31.730  0.00  0.00    +0.012 A 
ATOM     21  C14 UNL     1       4.733   1.712 -32.666  0.00  0.00    +0.004 A 
ATOM     22  C15 UNL     1       5.849   1.892 -33.493  0.00  0.00    -0.050 A 
ATOM     23  C16 UNL     1       5.891   3.027 -34.473  0.00  0.00    +0.044 C 
ATOM     24  C17 UNL     1       6.953   1.042 -33.346  0.00  0.00    +0.004 A 
ATOM     25  C18 UNL     1       6.930   0.005 -32.410  0.00  0.00    +0.012 A 
ENDBRANCH  17  19
ENDBRANCH  13  17
TORSDOF 2
ENDMDL
MODEL 4
REMARK VINA RESULT:    -6.891     15.713     17.175
REMARK INTER + INTRA:          -8.346
REMARK INTER:                  -7.742
REMARK INTRA:                  -0.604
REMARK UNBOUND:                -0.650
REMARK  Name = /home/vital/Documents/PhD_2021/Malaria_codes/data/pdb_ligands_mmv/ligand_334.pdb
REMARK  5 active torsions:
REMARK  status: ('A' for Active; 'I' for Inactive)
REMARK    1  A    between atoms: C1_1  and  C2_2
REMARK    2  A    between atoms: C10_13  and  C11_14
REMARK    3  A    between atoms: C11_14  and  C12_16
REMARK    4  A    between atoms: C15_19  and  C16_20
REMARK    5  A    between atoms: C19_23  and  C20_24
REMARK                            x       y       z     vdW  Elec       q    Type
REMARK                         _______ _______ _______ _____ _____    ______ ____
ROOT
ATOM      1  C1  UNL     1       5.315   2.866 -33.174  0.00  0.00    +0.045 C 
ATOM      2  C2  UNL     1       5.850   1.536 -32.730  0.00  0.00    -0.033 A 
ATOM      3  C3  UNL     1       7.168   1.294 -32.708  0.00  0.00    +0.096 A 
ATOM      4  C4  UNL     1       7.752   0.014 -32.285  0.00  0.00    +0.337 A 
ATOM      5  O1  UNL     1       8.965  -0.156 -32.290  0.00  0.00    -0.245 OA
ATOM      6  O2  UNL     1       6.866  -0.971 -31.892  0.00  0.00    -0.421 OA
ATOM      7  C5  UNL     1       5.468  -0.765 -31.895  0.00  0.00    +0.150 A 
ATOM      8  C6  UNL     1       4.929   0.467 -32.309  0.00  0.00    +0.021 A 
ATOM      9  C7  UNL     1       3.533   0.628 -32.304  0.00  0.00    +0.015 A 
ATOM     10  C8  UNL     1       2.670  -0.401 -31.901  0.00  0.00    +0.048 A 
ATOM     11  C9  UNL     1       3.261  -1.595 -31.504  0.00  0.00    +0.140 A 
ATOM     12  O3  UNL     1       2.593  -2.697 -31.084  0.00  0.00    -0.451 OA
ATOM     13  C10 UNL     1       3.518  -3.665 -30.800  0.00  0.00    +0.179 A 
ATOM     14  C19 UNL     1       4.801  -3.158 -30.995  0.00  0.00    +0.010 A 
ATOM     15  C20 UNL     1       6.102  -3.831 -30.737  0.00  0.00    +0.048 C 
ATOM     16  C21 UNL     1       4.628  -1.820 -31.482  0.00  0.00    +0.067 A 
ENDROOT
BRANCH  13  17
ATOM     17  C11 UNL     1       3.001  -4.945 -30.352  0.00  0.00    +0.228 C 
ATOM     18  O4  UNL     1       3.019  -5.310 -29.178  0.00  0.00    -0.283 OA
BRANCH  17  19
ATOM     19  C12 UNL     1       2.404  -5.878 -31.348  0.00  0.00    +0.025 A 
ATOM     20  C13 UNL     1       3.172  -6.266 -32.451  0.00  0.00    +0.012 A 
ATOM     21  C14 UNL     1       2.644  -7.144 -33.399  0.00  0.00    +0.004 A 
ATOM     22  C15 UNL     1       1.343  -7.645 -33.255  0.00  0.00    -0.050 A 
ATOM     23  C16 UNL     1       0.790  -8.616 -34.255  0.00  0.00    +0.044 C 
ATOM     24  C17 UNL     1       0.592  -7.281 -32.130  0.00  0.00    +0.004 A 
ATOM     25  C18 UNL     1       1.118  -6.404 -31.178  0.00  0.00    +0.012 A 
ENDBRANCH  17  19
ENDBRANCH  13  17
TORSDOF 2
ENDMDL
MODEL 5
REMARK VINA RESULT:    -6.828      3.265      7.812
REMARK INTER + INTRA:          -8.276
REMARK INTER:                  -7.749
REMARK INTRA:                  -0.527
REMARK UNBOUND:                -0.650
REMARK  Name = /home/vital/Documents/PhD_2021/Malaria_codes/data/pdb_ligands_mmv/ligand_334.pdb
REMARK  5 active torsions:
REMARK  status: ('A' for Active; 'I' for Inactive)
REMARK    1  A    between atoms: C1_1  and  C2_2
REMARK    2  A    between atoms: C10_13  and  C11_14
REMARK    3  A    between atoms: C11_14  and  C12_16
REMARK    4  A    between atoms: C15_19  and  C16_20
REMARK    5  A    between atoms: C19_23  and  C20_24
REMARK                            x       y       z     vdW  Elec       q    Type
REMARK                         _______ _______ _______ _____ _____    ______ ____
ROOT
ATOM      1  C1  UNL     1       0.828   4.786 -14.344  0.00  0.00    +0.045 C 
ATOM      2  C2  UNL     1       1.019   5.233 -15.763  0.00  0.00    -0.033 A 
ATOM      3  C3  UNL     1       2.220   5.631 -16.207  0.00  0.00    +0.096 A 
ATOM      4  C4  UNL     1       2.471   6.079 -17.583  0.00  0.00    +0.337 A 
ATOM      5  O1  UNL     1       3.588   6.439 -17.934  0.00  0.00    -0.245 OA
ATOM      6  O2  UNL     1       1.389   6.075 -18.442  0.00  0.00    -0.421 OA
ATOM      7  C5  UNL     1       0.103   5.663 -18.025  0.00  0.00    +0.150 A 
ATOM      8  C6  UNL     1      -0.117   5.243 -16.700  0.00  0.00    +0.021 A 
ATOM      9  C7  UNL     1      -1.412   4.848 -16.324  0.00  0.00    +0.015 A 
ATOM     10  C8  UNL     1      -2.483   4.863 -17.228  0.00  0.00    +0.048 A 
ATOM     11  C9  UNL     1      -2.205   5.289 -18.522  0.00  0.00    +0.140 A 
ATOM     12  O3  UNL     1      -3.107   5.372 -19.529  0.00  0.00    -0.451 OA
ATOM     13  C10 UNL     1      -2.458   5.847 -20.637  0.00  0.00    +0.179 A 
ATOM     14  C19 UNL     1      -1.107   6.025 -20.346  0.00  0.00    +0.010 A 
ATOM     15  C20 UNL     1      -0.019   6.449 -21.266  0.00  0.00    +0.048 C 
ATOM     16  C21 UNL     1      -0.953   5.689 -18.960  0.00  0.00    +0.067 A 
ENDROOT
BRANCH  13  17
ATOM     17  C11 UNL     1      -3.261   6.033 -21.830  0.00  0.00    +0.228 C 
ATOM     18  O4  UNL     1      -4.105   5.224 -22.212  0.00  0.00    -0.283 OA
BRANCH  17  19
ATOM     19  C12 UNL     1      -3.079   7.265 -22.646  0.00  0.00    +0.025 A 
ATOM     20  C13 UNL     1      -2.318   7.190 -23.817  0.00  0.00    +0.012 A 
ATOM     21  C14 UNL     1      -2.133   8.327 -24.608  0.00  0.00    +0.004 A 
ATOM     22  C15 UNL     1      -2.707   9.549 -24.237  0.00  0.00    -0.050 A 
ATOM     23  C16 UNL     1      -2.538  10.761 -25.106  0.00  0.00    +0.044 C 
ATOM     24  C17 UNL     1      -3.499   9.610 -23.083  0.00  0.00    +0.004 A 
ATOM     25  C18 UNL     1      -3.687   8.475 -22.290  0.00  0.00    +0.012 A 
ENDBRANCH  17  19
ENDBRANCH  13  17
TORSDOF 2
ENDMDL
MODEL 6
REMARK VINA RESULT:    -6.775     14.404     16.511
REMARK INTER + INTRA:          -8.217
REMARK INTER:                  -7.666
REMARK INTRA:                  -0.551
REMARK UNBOUND:                -0.650
REMARK  Name = /home/vital/Documents/PhD_2021/Malaria_codes/data/pdb_ligands_mmv/ligand_334.pdb
REMARK  5 active torsions:
REMARK  status: ('A' for Active; 'I' for Inactive)
REMARK    1  A    between atoms: C1_1  and  C2_2
REMARK    2  A    between atoms: C10_13  and  C11_14
REMARK    3  A    between atoms: C11_14  and  C12_16
REMARK    4  A    between atoms: C15_19  and  C16_20
REMARK    5  A    between atoms: C19_23  and  C20_24
REMARK                            x       y       z     vdW  Elec       q    Type
REMARK                         _______ _______ _______ _____ _____    ______ ____
ROOT
ATOM      1  C1  UNL     1       1.931  -7.285 -33.925  0.00  0.00    +0.045 C 
ATOM      2  C2  UNL     1       1.924  -6.776 -32.513  0.00  0.00    -0.033 A 
ATOM      3  C3  UNL     1       1.059  -7.258 -31.610  0.00  0.00    +0.096 A 
ATOM      4  C4  UNL     1       1.002  -6.802 -30.215  0.00  0.00    +0.337 A 
ATOM      5  O1  UNL     1       0.186  -7.272 -29.432  0.00  0.00    -0.245 OA
ATOM      6  O2  UNL     1       1.905  -5.823 -29.847  0.00  0.00    -0.421 OA
ATOM      7  C5  UNL     1       2.839  -5.284 -30.760  0.00  0.00    +0.150 A 
ATOM      8  C6  UNL     1       2.873  -5.731 -32.094  0.00  0.00    +0.021 A 
ATOM      9  C7  UNL     1       3.812  -5.164 -32.972  0.00  0.00    +0.015 A 
ATOM     10  C8  UNL     1       4.708  -4.170 -32.557  0.00  0.00    +0.048 A 
ATOM     11  C9  UNL     1       4.626  -3.767 -31.228  0.00  0.00    +0.140 A 
ATOM     12  O3  UNL     1       5.405  -2.823 -30.647  0.00  0.00    -0.451 OA
ATOM     13  C10 UNL     1       5.011  -2.699 -29.342  0.00  0.00    +0.179 A 
ATOM     14  C19 UNL     1       3.995  -3.613 -29.071  0.00  0.00    +0.010 A 
ATOM     15  C20 UNL     1       3.324  -3.880 -27.771  0.00  0.00    +0.048 C 
ATOM     16  C21 UNL     1       3.728  -4.286 -30.310  0.00  0.00    +0.067 A 
ENDROOT
BRANCH  13  17
ATOM     17  C11 UNL     1       5.712  -1.710 -28.544  0.00  0.00    +0.228 C 
ATOM     18  O4  UNL     1       5.569  -0.497 -28.688  0.00  0.00    -0.283 OA
BRANCH  17  19
ATOM     19  C12 UNL     1       6.650  -2.165 -27.481  0.00  0.00    +0.025 A 
ATOM     20  C13 UNL     1       7.186  -1.215 -26.605  0.00  0.00    +0.012 A 
ATOM     21  C14 UNL     1       8.064  -1.610 -25.593  0.00  0.00    +0.004 A 
ATOM     22  C15 UNL     1       8.416  -2.958 -25.446  0.00  0.00    -0.050 A 
ATOM     23  C16 UNL     1       9.332  -3.385 -24.337  0.00  0.00    +0.044 C 
ATOM     24  C17 UNL     1       7.849  -3.910 -26.303  0.00  0.00    +0.004 A 
ATOM     25  C18 UNL     1       6.968  -3.519 -27.315  0.00  0.00    +0.012 A 
ENDBRANCH  17  19
ENDBRANCH  13  17
TORSDOF 2
ENDMDL
MODEL 7
REMARK VINA RESULT:    -6.548     15.660     17.910
REMARK INTER + INTRA:          -7.963
REMARK INTER:                  -7.419
REMARK INTRA:                  -0.544
REMARK UNBOUND:                -0.650
REMARK  Name = /home/vital/Documents/PhD_2021/Malaria_codes/data/pdb_ligands_mmv/ligand_334.pdb
REMARK  5 active torsions:
REMARK  status: ('A' for Active; 'I' for Inactive)
REMARK    1  A    between atoms: C1_1  and  C2_2
REMARK    2  A    between atoms: C10_13  and  C11_14
REMARK    3  A    between atoms: C11_14  and  C12_16
REMARK    4  A    between atoms: C15_19  and  C16_20
REMARK    5  A    between atoms: C19_23  and  C20_24
REMARK                            x       y       z     vdW  Elec       q    Type
REMARK                         _______ _______ _______ _____ _____    ______ ____
ROOT
ATOM      1  C1  UNL     1      -0.133  -9.270 -34.274  0.00  0.00    +0.045 C 
ATOM      2  C2  UNL     1      -0.104  -8.545 -32.960  0.00  0.00    -0.033 A 
ATOM      3  C3  UNL     1      -1.037  -8.774 -32.024  0.00  0.00    +0.096 A 
ATOM      4  C4  UNL     1      -1.063  -8.097 -30.722  0.00  0.00    +0.337 A 
ATOM      5  O1  UNL     1      -1.942  -8.338 -29.904  0.00  0.00    -0.245 OA
ATOM      6  O2  UNL     1      -0.056  -7.183 -30.478  0.00  0.00    -0.421 OA
ATOM      7  C5  UNL     1       0.952  -6.907 -31.430  0.00  0.00    +0.150 A 
ATOM      8  C6  UNL     1       0.955  -7.563 -32.675  0.00  0.00    +0.021 A 
ATOM      9  C7  UNL     1       1.970  -7.255 -33.597  0.00  0.00    +0.015 A 
ATOM     10  C8  UNL     1       2.972  -6.317 -33.310  0.00  0.00    +0.048 A 
ATOM     11  C9  UNL     1       2.915  -5.701 -32.065  0.00  0.00    +0.140 A 
ATOM     12  O3  UNL     1       3.791  -4.772 -31.611  0.00  0.00    -0.451 OA
ATOM     13  C10 UNL     1       3.392  -4.396 -30.357  0.00  0.00    +0.179 A 
ATOM     14  C19 UNL     1       2.270  -5.132 -29.983  0.00  0.00    +0.010 A 
ATOM     15  C20 UNL     1       1.549  -5.109 -28.682  0.00  0.00    +0.048 C 
ATOM     16  C21 UNL     1       1.946  -5.959 -31.110  0.00  0.00    +0.067 A 
ENDROOT
BRANCH  13  17
ATOM     17  C11 UNL     1       4.191  -3.380 -29.698  0.00  0.00    +0.228 C 
ATOM     18  O4  UNL     1       4.297  -2.227 -30.112  0.00  0.00    -0.283 OA
BRANCH  17  19
ATOM     19  C12 UNL     1       4.924  -3.727 -28.449  0.00  0.00    +0.025 A 
ATOM     20  C13 UNL     1       4.286  -3.531 -27.219  0.00  0.00    +0.012 A 
ATOM     21  C14 UNL     1       4.943  -3.852 -26.029  0.00  0.00    +0.004 A 
ATOM     22  C15 UNL     1       6.244  -4.371 -26.056  0.00  0.00    -0.050 A 
ATOM     23  C16 UNL     1       6.935  -4.748 -24.779  0.00  0.00    +0.044 C 
ATOM     24  C17 UNL     1       6.864  -4.599 -27.291  0.00  0.00    +0.004 A 
ATOM     25  C18 UNL     1       6.209  -4.281 -28.483  0.00  0.00    +0.012 A 
ENDBRANCH  17  19
ENDBRANCH  13  17
TORSDOF 2
ENDMDL
MODEL 8
REMARK VINA RESULT:    -6.463     14.938     18.186
REMARK INTER + INTRA:          -7.869
REMARK INTER:                  -7.272
REMARK INTRA:                  -0.596
REMARK UNBOUND:                -0.650
REMARK  Name = /home/vital/Documents/PhD_2021/Malaria_codes/data/pdb_ligands_mmv/ligand_334.pdb
REMARK  5 active torsions:
REMARK  status: ('A' for Active; 'I' for Inactive)
REMARK    1  A    between atoms: C1_1  and  C2_2
REMARK    2  A    between atoms: C10_13  and  C11_14
REMARK    3  A    between atoms: C11_14  and  C12_16
REMARK    4  A    between atoms: C15_19  and  C16_20
REMARK    5  A    between atoms: C19_23  and  C20_24
REMARK                            x       y       z     vdW  Elec       q    Type
REMARK                         _______ _______ _______ _____ _____    ______ ____
ROOT
ATOM      1  C1  UNL     1       6.777  -3.897 -27.099  0.00  0.00    +0.045 C 
ATOM      2  C2  UNL     1       5.346  -4.158 -27.469  0.00  0.00    -0.033 A 
ATOM      3  C3  UNL     1       4.417  -4.371 -26.527  0.00  0.00    +0.096 A 
ATOM      4  C4  UNL     1       3.003  -4.631 -26.825  0.00  0.00    +0.337 A 
ATOM      5  O1  UNL     1       2.195  -4.826 -25.925  0.00  0.00    -0.245 OA
ATOM      6  O2  UNL     1       2.644  -4.648 -28.159  0.00  0.00    -0.421 OA
ATOM      7  C5  UNL     1       3.585  -4.427 -29.190  0.00  0.00    +0.150 A 
ATOM      8  C6  UNL     1       4.936  -4.185 -28.883  0.00  0.00    +0.021 A 
ATOM      9  C7  UNL     1       5.841  -3.978 -29.938  0.00  0.00    +0.015 A 
ATOM     10  C8  UNL     1       5.435  -4.007 -31.279  0.00  0.00    +0.048 A 
ATOM     11  C9  UNL     1       4.087  -4.253 -31.520  0.00  0.00    +0.140 A 
ATOM     12  O3  UNL     1       3.511  -4.319 -32.745  0.00  0.00    -0.451 OA
ATOM     13  C10 UNL     1       2.181  -4.593 -32.569  0.00  0.00    +0.179 A 
ATOM     14  C19 UNL     1       1.893  -4.655 -31.207  0.00  0.00    +0.010 A 
ATOM     15  C20 UNL     1       0.570  -4.852 -30.558  0.00  0.00    +0.048 C 
ATOM     16  C21 UNL     1       3.143  -4.462 -30.529  0.00  0.00    +0.067 A 
ENDROOT
BRANCH  13  17
ATOM     17  C11 UNL     1       1.382  -4.729 -33.772  0.00  0.00    +0.228 C 
ATOM     18  O4  UNL     1       1.192  -5.803 -34.341  0.00  0.00    -0.283 OA
BRANCH  17  19
ATOM     19  C12 UNL     1       0.740  -3.522 -34.361  0.00  0.00    +0.025 A 
ATOM     20  C13 UNL     1       0.419  -3.528 -35.723  0.00  0.00    +0.012 A 
ATOM     21  C14 UNL     1      -0.189  -2.413 -36.304  0.00  0.00    +0.004 A 
ATOM     22  C15 UNL     1      -0.485  -1.283 -35.531  0.00  0.00    -0.050 A 
ATOM     23  C16 UNL     1      -1.171  -0.101 -36.150  0.00  0.00    +0.044 C 
ATOM     24  C17 UNL     1      -0.195  -1.297 -34.161  0.00  0.00    +0.004 A 
ATOM     25  C18 UNL     1       0.412  -2.410 -33.575  0.00  0.00    +0.012 A 
ENDBRANCH  17  19
ENDBRANCH  13  17
TORSDOF 2
ENDMDL
MODEL 9
REMARK VINA RESULT:    -6.380     14.565     17.155
REMARK INTER + INTRA:          -7.776
REMARK INTER:                  -7.193
REMARK INTRA:                  -0.583
REMARK UNBOUND:                -0.650
REMARK  Name = /home/vital/Documents/PhD_2021/Malaria_codes/data/pdb_ligands_mmv/ligand_334.pdb
REMARK  5 active torsions:
REMARK  status: ('A' for Active; 'I' for Inactive)
REMARK    1  A    between atoms: C1_1  and  C2_2
REMARK    2  A    between atoms: C10_13  and  C11_14
REMARK    3  A    between atoms: C11_14  and  C12_16
REMARK    4  A    between atoms: C15_19  and  C16_20
REMARK    5  A    between atoms: C19_23  and  C20_24
REMARK                            x       y       z     vdW  Elec       q    Type
REMARK                         _______ _______ _______ _____ _____    ______ ____
ROOT
ATOM      1  C1  UNL     1       7.861  -4.204 -24.253  0.00  0.00    +0.045 C 
ATOM      2  C2  UNL     1       6.449  -4.274 -24.755  0.00  0.00    -0.033 A 
ATOM      3  C3  UNL     1       5.417  -4.373 -23.904  0.00  0.00    +0.096 A 
ATOM      4  C4  UNL     1       4.014  -4.446 -24.332  0.00  0.00    +0.337 A 
ATOM      5  O1  UNL     1       3.110  -4.542 -23.512  0.00  0.00    -0.245 OA
ATOM      6  O2  UNL     1       3.780  -4.403 -25.693  0.00  0.00    -0.421 OA
ATOM      7  C5  UNL     1       4.831  -4.296 -26.632  0.00  0.00    +0.150 A 
ATOM      8  C6  UNL     1       6.169  -4.234 -26.200  0.00  0.00    +0.021 A 
ATOM      9  C7  UNL     1       7.186  -4.136 -27.165  0.00  0.00    +0.015 A 
ATOM     10  C8  UNL     1       6.903  -4.100 -28.538  0.00  0.00    +0.048 A 
ATOM     11  C9  UNL     1       5.563  -4.166 -28.903  0.00  0.00    +0.140 A 
ATOM     12  O3  UNL     1       5.097  -4.146 -30.176  0.00  0.00    -0.451 OA
ATOM     13  C10 UNL     1       3.733  -4.247 -30.125  0.00  0.00    +0.179 A 
ATOM     14  C19 UNL     1       3.316  -4.284 -28.796  0.00  0.00    +0.010 A 
ATOM     15  C20 UNL     1       1.924  -4.314 -28.272  0.00  0.00    +0.048 C 
ATOM     16  C21 UNL     1       4.513  -4.261 -28.005  0.00  0.00    +0.067 A 
ENDROOT
BRANCH  13  17
ATOM     17  C11 UNL     1       3.036  -4.267 -31.397  0.00  0.00    +0.228 C 
ATOM     18  O4  UNL     1       2.896  -3.274 -32.110  0.00  0.00    -0.283 OA
BRANCH  17  19
ATOM     19  C12 UNL     1       2.460  -5.548 -31.892  0.00  0.00    +0.025 A 
ATOM     20  C13 UNL     1       1.225  -5.970 -31.387  0.00  0.00    +0.012 A 
ATOM     21  C14 UNL     1       0.656  -7.164 -31.834  0.00  0.00    +0.004 A 
ATOM     22  C15 UNL     1       1.312  -7.948 -32.792  0.00  0.00    -0.050 A 
ATOM     23  C16 UNL     1       0.683  -9.212 -33.298  0.00  0.00    +0.044 C 
ATOM     24  C17 UNL     1       2.531  -7.502 -33.321  0.00  0.00    +0.004 A 
ATOM     25  C18 UNL     1       3.103  -6.308 -32.877  0.00  0.00    +0.012 A 
ENDBRANCH  17  19
ENDBRANCH  13  17
TORSDOF 2
ENDMDL
