MODEL 1
REMARK VINA RESULT:    -7.294      0.000      0.000
REMARK INTER + INTRA:         -10.154
REMARK INTER:                  -9.425
REMARK INTRA:                  -0.729
REMARK UNBOUND:                -0.729
REMARK  Name = /home/vital/Documents/PhD_2021/Malaria_codes/data/pdb_ligands_mmv/ligand_215.pdb
REMARK  5 active torsions:
REMARK  status: ('A' for Active; 'I' for Inactive)
REMARK    1  A    between atoms: C5_7  and  C7_9
REMARK    2  A    between atoms: C8_11  and  C11_14
REMARK    3  A    between atoms: N1_16  and  C12_17
REMARK    4  A    between atoms: C15_20  and  C16_21
REMARK    5  A    between atoms: C16_21  and  N2_22
REMARK                            x       y       z     vdW  Elec       q    Type
REMARK                         _______ _______ _______ _____ _____    ______ ____
ROOT
ATOM      1  C11 UNL     1       6.916  -2.749 -27.259  0.00  0.00    +0.284 C 
ATOM      2  O2  UNL     1       6.928  -1.690 -27.882  0.00  0.00    -0.266 OA
ATOM      3  N1  UNL     1       6.262  -3.898 -27.682  0.00  0.00    -0.279 N 
ATOM      4  H6  UNL     1       6.286  -4.690 -27.058  0.00  0.00    +0.155 HD
ENDROOT
BRANCH   3   5
ATOM      5  C12 UNL     1       5.526  -4.091 -28.871  0.00  0.00    +0.034 A 
ATOM      6  C13 UNL     1       4.159  -4.364 -28.733  0.00  0.00    +0.023 A 
ATOM      7  C14 UNL     1       3.354  -4.570 -29.858  0.00  0.00    +0.007 A 
ATOM      8  C15 UNL     1       3.896  -4.496 -31.146  0.00  0.00    -0.033 A 
ATOM      9  C21 UNL     1       5.265  -4.235 -31.280  0.00  0.00    +0.007 A 
ATOM     10  C22 UNL     1       6.071  -4.031 -30.153  0.00  0.00    +0.023 A 
BRANCH   8  11
ATOM     11  C16 UNL     1       3.036  -4.738 -32.370  0.00  0.00    +0.119 C 
BRANCH  11  12
ATOM     12  N2  UNL     1       2.168  -5.919 -32.248  0.00  0.00    -0.294 NA
ATOM     13  C17 UNL     1       0.830  -5.717 -32.849  0.00  0.00    +0.113 C 
ATOM     14  C18 UNL     1       0.684  -6.338 -34.248  0.00  0.00    +0.175 C 
ATOM     15  O3  UNL     1       0.927  -7.752 -34.269  0.00  0.00    -0.377 OA
ATOM     16  C19 UNL     1       1.815  -8.187 -33.230  0.00  0.00    +0.175 C 
ATOM     17  C20 UNL     1       2.829  -7.105 -32.836  0.00  0.00    +0.113 C 
ENDBRANCH  11  12
ENDBRANCH   8  11
ENDBRANCH   3   5
BRANCH   1  20
ATOM     18  C7  UNL     1       7.671  -2.947 -23.762  0.00  0.00    +0.137 A 
ATOM     19  O1  UNL     1       6.854  -2.768 -24.840  0.00  0.00    -0.450 OA
ATOM     20  C8  UNL     1       7.603  -2.896 -25.982  0.00  0.00    +0.190 A 
ATOM     21  C9  UNL     1       8.917  -3.143 -25.621  0.00  0.00    +0.055 A 
ATOM     22  C10 UNL     1       8.959  -3.169 -24.204  0.00  0.00    +0.051 A 
BRANCH  18  29
ATOM     23 CL1  UNL     1       4.087  -4.847 -20.574  0.00  0.00    -0.084 Cl
ATOM     24  C1  UNL     1       5.331  -3.711 -20.922  0.00  0.00    +0.042 A 
ATOM     25  C2  UNL     1       5.661  -2.742 -19.982  0.00  0.00    +0.021 A 
ATOM     26  C3  UNL     1       6.672  -1.824 -20.269  0.00  0.00    +0.022 A 
ATOM     27  C4  UNL     1       7.350  -1.873 -21.495  0.00  0.00    +0.052 A 
ATOM     28 CL2  UNL     1       8.615  -0.713 -21.718  0.00  0.00    -0.083 Cl
ATOM     29  C5  UNL     1       7.019  -2.845 -22.459  0.00  0.00    +0.037 A 
ATOM     30  C6  UNL     1       6.001  -3.768 -22.146  0.00  0.00    +0.033 A 
ENDBRANCH  18  29
ENDBRANCH   1  20
TORSDOF 5
ENDMDL
MODEL 2
REMARK VINA RESULT:    -7.267      4.378     10.894
REMARK INTER + INTRA:         -10.119
REMARK INTER:                  -9.334
REMARK INTRA:                  -0.785
REMARK UNBOUND:                -0.729
REMARK  Name = /home/vital/Documents/PhD_2021/Malaria_codes/data/pdb_ligands_mmv/ligand_215.pdb
REMARK  5 active torsions:
REMARK  status: ('A' for Active; 'I' for Inactive)
REMARK    1  A    between atoms: C5_7  and  C7_9
REMARK    2  A    between atoms: C8_11  and  C11_14
REMARK    3  A    between atoms: N1_16  and  C12_17
REMARK    4  A    between atoms: C15_20  and  C16_21
REMARK    5  A    between atoms: C16_21  and  N2_22
REMARK                            x       y       z     vdW  Elec       q    Type
REMARK                         _______ _______ _______ _____ _____    ______ ____
ROOT
ATOM      1  C11 UNL     1       5.115  -3.522 -29.608  0.00  0.00    +0.284 C 
ATOM      2  O2  UNL     1       4.349  -2.671 -29.165  0.00  0.00    -0.266 OA
ATOM      3  N1  UNL     1       6.116  -4.136 -28.868  0.00  0.00    -0.279 N 
ATOM      4  H6  UNL     1       6.712  -4.785 -29.359  0.00  0.00    +0.155 HD
ENDROOT
BRANCH   3   5
ATOM      5  C12 UNL     1       6.435  -3.939 -27.507  0.00  0.00    +0.034 A 
ATOM      6  C13 UNL     1       6.100  -4.970 -26.621  0.00  0.00    +0.023 A 
ATOM      7  C14 UNL     1       6.379  -4.859 -25.255  0.00  0.00    +0.007 A 
ATOM      8  C15 UNL     1       7.009  -3.718 -24.746  0.00  0.00    -0.033 A 
ATOM      9  C21 UNL     1       7.333  -2.684 -25.633  0.00  0.00    +0.007 A 
ATOM     10  C22 UNL     1       7.052  -2.795 -27.000  0.00  0.00    +0.023 A 
BRANCH   8  11
ATOM     11  C16 UNL     1       7.296  -3.580 -23.265  0.00  0.00    +0.119 C 
BRANCH  11  12
ATOM     12  N2  UNL     1       6.243  -2.864 -22.530  0.00  0.00    -0.294 NA
ATOM     13  C17 UNL     1       5.373  -3.766 -21.743  0.00  0.00    +0.113 C 
ATOM     14  C18 UNL     1       5.728  -3.812 -20.248  0.00  0.00    +0.175 C 
ATOM     15  O3  UNL     1       5.663  -2.529 -19.609  0.00  0.00    -0.377 OA
ATOM     16  C19 UNL     1       5.902  -1.439 -20.510  0.00  0.00    +0.175 C 
ATOM     17  C20 UNL     1       6.839  -1.825 -21.662  0.00  0.00    +0.113 C 
ENDBRANCH  11  12
ENDBRANCH   8  11
ENDBRANCH   3   5
BRANCH   1  20
ATOM     18  C7  UNL     1       3.950  -4.520 -32.846  0.00  0.00    +0.137 A 
ATOM     19  O1  UNL     1       3.801  -4.099 -31.557  0.00  0.00    -0.450 OA
ATOM     20  C8  UNL     1       5.045  -3.973 -30.993  0.00  0.00    +0.190 A 
ATOM     21  C9  UNL     1       5.994  -4.336 -31.934  0.00  0.00    +0.055 A 
ATOM     22  C10 UNL     1       5.293  -4.690 -33.114  0.00  0.00    +0.051 A 
BRANCH  18  29
ATOM     23 CL1  UNL     1       0.356  -2.328 -35.829  0.00  0.00    -0.084 Cl
ATOM     24  C1  UNL     1       0.983  -3.700 -35.003  0.00  0.00    +0.042 A 
ATOM     25  C2  UNL     1       0.297  -4.907 -35.054  0.00  0.00    +0.021 A 
ATOM     26  C3  UNL     1       0.811  -6.017 -34.384  0.00  0.00    +0.022 A 
ATOM     27  C4  UNL     1       2.007  -5.920 -33.660  0.00  0.00    +0.052 A 
ATOM     28 CL2  UNL     1       2.569  -7.374 -32.908  0.00  0.00    -0.083 Cl
ATOM     29  C5  UNL     1       2.707  -4.700 -33.593  0.00  0.00    +0.037 A 
ATOM     30  C6  UNL     1       2.175  -3.593 -34.285  0.00  0.00    +0.033 A 
ENDBRANCH  18  29
ENDBRANCH   1  20
TORSDOF 5
ENDMDL
MODEL 3
REMARK VINA RESULT:    -7.117     10.491     12.569
REMARK INTER + INTRA:          -9.926
REMARK INTER:                  -9.201
REMARK INTRA:                  -0.725
REMARK UNBOUND:                -0.729
REMARK  Name = /home/vital/Documents/PhD_2021/Malaria_codes/data/pdb_ligands_mmv/ligand_215.pdb
REMARK  5 active torsions:
REMARK  status: ('A' for Active; 'I' for Inactive)
REMARK    1  A    between atoms: C5_7  and  C7_9
REMARK    2  A    between atoms: C8_11  and  C11_14
REMARK    3  A    between atoms: N1_16  and  C12_17
REMARK    4  A    between atoms: C15_20  and  C16_21
REMARK    5  A    between atoms: C16_21  and  N2_22
REMARK                            x       y       z     vdW  Elec       q    Type
REMARK                         _______ _______ _______ _____ _____    ______ ____
ROOT
ATOM      1  C11 UNL     1      -2.337   2.809 -20.015  0.00  0.00    +0.284 C 
ATOM      2  O2  UNL     1      -1.660   2.782 -21.039  0.00  0.00    -0.266 OA
ATOM      3  N1  UNL     1      -3.242   1.821 -19.651  0.00  0.00    -0.279 N 
ATOM      4  H6  UNL     1      -3.775   1.981 -18.809  0.00  0.00    +0.155 HD
ENDROOT
BRANCH   3   5
ATOM      5  C12 UNL     1      -3.544   0.624 -20.334  0.00  0.00    +0.034 A 
ATOM      6  C13 UNL     1      -3.291  -0.575 -19.656  0.00  0.00    +0.023 A 
ATOM      7  C14 UNL     1      -3.559  -1.808 -20.258  0.00  0.00    +0.007 A 
ATOM      8  C15 UNL     1      -4.097  -1.870 -21.549  0.00  0.00    -0.033 A 
ATOM      9  C21 UNL     1      -4.338  -0.670 -22.229  0.00  0.00    +0.007 A 
ATOM     10  C22 UNL     1      -4.067   0.564 -21.626  0.00  0.00    +0.023 A 
BRANCH   8  11
ATOM     11  C16 UNL     1      -4.371  -3.202 -22.217  0.00  0.00    +0.119 C 
BRANCH  11  12
ATOM     12  N2  UNL     1      -3.388  -3.548 -23.254  0.00  0.00    -0.294 NA
ATOM     13  C17 UNL     1      -2.434  -4.593 -22.819  0.00  0.00    +0.113 C 
ATOM     14  C18 UNL     1      -2.777  -5.996 -23.342  0.00  0.00    +0.175 C 
ATOM     15  O3  UNL     1      -2.833  -6.071 -24.774  0.00  0.00    -0.377 OA
ATOM     16  C19 UNL     1      -3.177  -4.823 -25.390  0.00  0.00    +0.175 C 
ATOM     17  C20 UNL     1      -4.077  -3.958 -24.498  0.00  0.00    +0.113 C 
ENDBRANCH  11  12
ENDBRANCH   8  11
ENDBRANCH   3   5
BRANCH   1  20
ATOM     18  C7  UNL     1      -1.156   5.477 -17.936  0.00  0.00    +0.137 A 
ATOM     19  O1  UNL     1      -1.019   4.463 -18.839  0.00  0.00    -0.450 OA
ATOM     20  C8  UNL     1      -2.255   3.913 -19.067  0.00  0.00    +0.190 A 
ATOM     21  C9  UNL     1      -3.184   4.577 -18.284  0.00  0.00    +0.055 A 
ATOM     22  C10 UNL     1      -2.479   5.571 -17.559  0.00  0.00    +0.051 A 
BRANCH  18  29
ATOM     23 CL1  UNL     1       2.426   8.893 -19.392  0.00  0.00    -0.084 Cl
ATOM     24  C1  UNL     1       1.798   7.781 -18.240  0.00  0.00    +0.042 A 
ATOM     25  C2  UNL     1       2.477   7.570 -17.046  0.00  0.00    +0.021 A 
ATOM     26  C3  UNL     1       1.962   6.668 -16.114  0.00  0.00    +0.022 A 
ATOM     27  C4  UNL     1       0.773   5.975 -16.378  0.00  0.00    +0.052 A 
ATOM     28 CL2  UNL     1       0.208   4.919 -15.128  0.00  0.00    -0.083 Cl
ATOM     29  C5  UNL     1       0.080   6.174 -17.587  0.00  0.00    +0.037 A 
ATOM     30  C6  UNL     1       0.613   7.096 -18.511  0.00  0.00    +0.033 A 
ENDBRANCH  18  29
ENDBRANCH   1  20
TORSDOF 5
ENDMDL
MODEL 4
REMARK VINA RESULT:    -7.037      2.810      4.123
REMARK INTER + INTRA:          -9.822
REMARK INTER:                  -9.171
REMARK INTRA:                  -0.650
REMARK UNBOUND:                -0.729
REMARK  Name = /home/vital/Documents/PhD_2021/Malaria_codes/data/pdb_ligands_mmv/ligand_215.pdb
REMARK  5 active torsions:
REMARK  status: ('A' for Active; 'I' for Inactive)
REMARK    1  A    between atoms: C5_7  and  C7_9
REMARK    2  A    between atoms: C8_11  and  C11_14
REMARK    3  A    between atoms: N1_16  and  C12_17
REMARK    4  A    between atoms: C15_20  and  C16_21
REMARK    5  A    between atoms: C16_21  and  N2_22
REMARK                            x       y       z     vdW  Elec       q    Type
REMARK                         _______ _______ _______ _____ _____    ______ ____
ROOT
ATOM      1  C11 UNL     1       5.914  -4.172 -29.152  0.00  0.00    +0.284 C 
ATOM      2  O2  UNL     1       6.782  -4.161 -30.021  0.00  0.00    -0.266 OA
ATOM      3  N1  UNL     1       4.569  -3.922 -29.386  0.00  0.00    -0.279 N 
ATOM      4  H6  UNL     1       3.961  -3.912 -28.581  0.00  0.00    +0.155 HD
ENDROOT
BRANCH   3   5
ATOM      5  C12 UNL     1       3.939  -3.639 -30.618  0.00  0.00    +0.034 A 
ATOM      6  C13 UNL     1       3.285  -4.701 -31.254  0.00  0.00    +0.023 A 
ATOM      7  C14 UNL     1       2.635  -4.510 -32.478  0.00  0.00    +0.007 A 
ATOM      8  C15 UNL     1       2.617  -3.250 -33.087  0.00  0.00    -0.033 A 
ATOM      9  C21 UNL     1       3.282  -2.194 -32.454  0.00  0.00    +0.007 A 
ATOM     10  C22 UNL     1       3.934  -2.386 -31.230  0.00  0.00    +0.023 A 
BRANCH   8  11
ATOM     11  C16 UNL     1       1.933  -3.040 -34.423  0.00  0.00    +0.119 C 
BRANCH  11  12
ATOM     12  N2  UNL     1       0.495  -2.756 -34.305  0.00  0.00    -0.294 NA
ATOM     13  C17 UNL     1       0.102  -1.485 -34.953  0.00  0.00    +0.113 C 
ATOM     14  C18 UNL     1      -0.530  -1.673 -36.341  0.00  0.00    +0.175 C 
ATOM     15  O3  UNL     1      -1.703  -2.497 -36.325  0.00  0.00    -0.377 OA
ATOM     16  C19 UNL     1      -1.710  -3.446 -35.249  0.00  0.00    +0.175 C 
ATOM     17  C20 UNL     1      -0.296  -3.884 -34.845  0.00  0.00    +0.113 C 
ENDBRANCH  11  12
ENDBRANCH   8  11
ENDBRANCH   3   5
BRANCH   1  20
ATOM     18  C7  UNL     1       7.041  -3.909 -25.761  0.00  0.00    +0.137 A 
ATOM     19  O1  UNL     1       6.842  -3.459 -27.034  0.00  0.00    -0.450 OA
ATOM     20  C8  UNL     1       6.228  -4.450 -27.755  0.00  0.00    +0.190 A 
ATOM     21  C9  UNL     1       6.051  -5.550 -26.932  0.00  0.00    +0.055 A 
ATOM     22  C10 UNL     1       6.575  -5.204 -25.661  0.00  0.00    +0.051 A 
BRANCH  18  29
ATOM     23 CL1  UNL     1      10.637  -0.253 -25.196  0.00  0.00    -0.084 Cl
ATOM     24  C1  UNL     1       9.380  -1.230 -24.546  0.00  0.00    +0.042 A 
ATOM     25  C2  UNL     1       9.034  -1.105 -23.205  0.00  0.00    +0.021 A 
ATOM     26  C3  UNL     1       8.013  -1.899 -22.683  0.00  0.00    +0.022 A 
ATOM     27  C4  UNL     1       7.341  -2.819 -23.498  0.00  0.00    +0.052 A 
ATOM     28 CL2  UNL     1       6.062  -3.714 -22.751  0.00  0.00    -0.083 Cl
ATOM     29  C5  UNL     1       7.687  -2.961 -24.856  0.00  0.00    +0.037 A 
ATOM     30  C6  UNL     1       8.716  -2.144 -25.365  0.00  0.00    +0.033 A 
ENDBRANCH  18  29
ENDBRANCH   1  20
TORSDOF 5
ENDMDL
MODEL 5
REMARK VINA RESULT:    -6.990      2.143      3.600
REMARK INTER + INTRA:          -9.762
REMARK INTER:                  -9.052
REMARK INTRA:                  -0.710
REMARK UNBOUND:                -0.729
REMARK  Name = /home/vital/Documents/PhD_2021/Malaria_codes/data/pdb_ligands_mmv/ligand_215.pdb
REMARK  5 active torsions:
REMARK  status: ('A' for Active; 'I' for Inactive)
REMARK    1  A    between atoms: C5_7  and  C7_9
REMARK    2  A    between atoms: C8_11  and  C11_14
REMARK    3  A    between atoms: N1_16  and  C12_17
REMARK    4  A    between atoms: C15_20  and  C16_21
REMARK    5  A    between atoms: C16_21  and  N2_22
REMARK                            x       y       z     vdW  Elec       q    Type
REMARK                         _______ _______ _______ _____ _____    ______ ____
ROOT
ATOM      1  C11 UNL     1       6.171  -4.532 -26.518  0.00  0.00    +0.284 C 
ATOM      2  O2  UNL     1       5.933  -5.735 -26.568  0.00  0.00    -0.266 OA
ATOM      3  N1  UNL     1       5.860  -3.631 -27.528  0.00  0.00    -0.279 N 
ATOM      4  H6  UNL     1       6.151  -2.674 -27.389  0.00  0.00    +0.155 HD
ENDROOT
BRANCH   3   5
ATOM      5  C12 UNL     1       5.215  -3.890 -28.756  0.00  0.00    +0.034 A 
ATOM      6  C13 UNL     1       3.830  -4.092 -28.715  0.00  0.00    +0.023 A 
ATOM      7  C14 UNL     1       3.110  -4.355 -29.884  0.00  0.00    +0.007 A 
ATOM      8  C15 UNL     1       3.758  -4.412 -31.123  0.00  0.00    -0.033 A 
ATOM      9  C21 UNL     1       5.145  -4.222 -31.160  0.00  0.00    +0.007 A 
ATOM     10  C22 UNL     1       5.865  -3.960 -29.988  0.00  0.00    +0.023 A 
BRANCH   8  11
ATOM     11  C16 UNL     1       2.989  -4.718 -32.393  0.00  0.00    +0.119 C 
BRANCH  11  12
ATOM     12  N2  UNL     1       2.148  -5.920 -32.290  0.00  0.00    -0.294 NA
ATOM     13  C17 UNL     1       0.811  -5.743 -32.901  0.00  0.00    +0.113 C 
ATOM     14  C18 UNL     1       0.691  -6.353 -34.306  0.00  0.00    +0.175 C 
ATOM     15  O3  UNL     1       0.967  -7.761 -34.340  0.00  0.00    -0.377 OA
ATOM     16  C19 UNL     1       1.857  -8.185 -33.298  0.00  0.00    +0.175 C 
ATOM     17  C20 UNL     1       2.842  -7.084 -32.885  0.00  0.00    +0.113 C 
ENDBRANCH  11  12
ENDBRANCH   8  11
ENDBRANCH   3   5
BRANCH   1  20
ATOM     18  C7  UNL     1       8.136  -2.416 -24.398  0.00  0.00    +0.137 A 
ATOM     19  O1  UNL     1       7.630  -2.838 -25.593  0.00  0.00    -0.450 OA
ATOM     20  C8  UNL     1       6.825  -3.924 -25.366  0.00  0.00    +0.190 A 
ATOM     21  C9  UNL     1       6.835  -4.205 -24.010  0.00  0.00    +0.055 A 
ATOM     22  C10 UNL     1       7.677  -3.244 -23.394  0.00  0.00    +0.051 A 
BRANCH  18  29
ATOM     23 CL1  UNL     1      11.960  -0.049 -26.927  0.00  0.00    -0.084 Cl
ATOM     24  C1  UNL     1      10.829  -0.103 -25.633  0.00  0.00    +0.042 A 
ATOM     25  C2  UNL     1      10.799   0.930 -24.703  0.00  0.00    +0.021 A 
ATOM     26  C3  UNL     1       9.878   0.882 -23.655  0.00  0.00    +0.022 A 
ATOM     27  C4  UNL     1       8.992  -0.197 -23.536  0.00  0.00    +0.052 A 
ATOM     28 CL2  UNL     1       7.865  -0.123 -22.224  0.00  0.00    -0.083 Cl
ATOM     29  C5  UNL     1       9.018  -1.253 -24.467  0.00  0.00    +0.037 A 
ATOM     30  C6  UNL     1       9.950  -1.181 -25.522  0.00  0.00    +0.033 A 
ENDBRANCH  18  29
ENDBRANCH   1  20
TORSDOF 5
ENDMDL
MODEL 6
REMARK VINA RESULT:    -6.757      4.216     10.742
REMARK INTER + INTRA:          -9.460
REMARK INTER:                  -8.646
REMARK INTRA:                  -0.814
REMARK UNBOUND:                -0.729
REMARK  Name = /home/vital/Documents/PhD_2021/Malaria_codes/data/pdb_ligands_mmv/ligand_215.pdb
REMARK  5 active torsions:
REMARK  status: ('A' for Active; 'I' for Inactive)
REMARK    1  A    between atoms: C5_7  and  C7_9
REMARK    2  A    between atoms: C8_11  and  C11_14
REMARK    3  A    between atoms: N1_16  and  C12_17
REMARK    4  A    between atoms: C15_20  and  C16_21
REMARK    5  A    between atoms: C16_21  and  N2_22
REMARK                            x       y       z     vdW  Elec       q    Type
REMARK                         _______ _______ _______ _____ _____    ______ ____
ROOT
ATOM      1  C11 UNL     1       5.575  -3.416 -29.909  0.00  0.00    +0.284 C 
ATOM      2  O2  UNL     1       5.736  -2.200 -29.837  0.00  0.00    -0.266 OA
ATOM      3  N1  UNL     1       5.700  -4.286 -28.835  0.00  0.00    -0.279 N 
ATOM      4  H6  UNL     1       5.592  -5.270 -29.032  0.00  0.00    +0.155 HD
ENDROOT
BRANCH   3   5
ATOM      5  C12 UNL     1       6.001  -3.972 -27.492  0.00  0.00    +0.034 A 
ATOM      6  C13 UNL     1       7.297  -4.261 -27.048  0.00  0.00    +0.023 A 
ATOM      7  C14 UNL     1       7.681  -3.983 -25.732  0.00  0.00    +0.007 A 
ATOM      8  C15 UNL     1       6.779  -3.400 -24.834  0.00  0.00    -0.033 A 
ATOM      9  C21 UNL     1       5.480  -3.124 -25.278  0.00  0.00    +0.007 A 
ATOM     10  C22 UNL     1       5.096  -3.404 -26.595  0.00  0.00    +0.023 A 
BRANCH   8  11
ATOM     11  C16 UNL     1       7.180  -3.115 -23.401  0.00  0.00    +0.119 C 
BRANCH  11  12
ATOM     12  N2  UNL     1       7.301  -1.680 -23.103  0.00  0.00    -0.294 NA
ATOM     13  C17 UNL     1       6.846  -1.332 -21.739  0.00  0.00    +0.113 C 
ATOM     14  C18 UNL     1       7.995  -1.157 -20.733  0.00  0.00    +0.175 C 
ATOM     15  O3  UNL     1       8.935  -0.143 -21.115  0.00  0.00    -0.377 OA
ATOM     16  C19 UNL     1       9.005   0.053 -22.535  0.00  0.00    +0.175 C 
ATOM     17  C20 UNL     1       8.694  -1.228 -23.319  0.00  0.00    +0.113 C 
ENDBRANCH  11  12
ENDBRANCH   8  11
ENDBRANCH   3   5
BRANCH   1  20
ATOM     18  C7  UNL     1       3.819  -5.036 -32.579  0.00  0.00    +0.137 A 
ATOM     19  O1  UNL     1       3.931  -4.452 -31.350  0.00  0.00    -0.450 OA
ATOM     20  C8  UNL     1       5.236  -4.073 -31.165  0.00  0.00    +0.190 A 
ATOM     21  C9  UNL     1       5.964  -4.438 -32.286  0.00  0.00    +0.055 A 
ATOM     22  C10 UNL     1       5.059  -5.057 -33.184  0.00  0.00    +0.051 A 
BRANCH  18  29
ATOM     23 CL1  UNL     1       0.247  -8.723 -32.064  0.00  0.00    -0.084 Cl
ATOM     24  C1  UNL     1       0.763  -7.219 -32.719  0.00  0.00    +0.042 A 
ATOM     25  C2  UNL     1      -0.084  -6.508 -33.562  0.00  0.00    +0.021 A 
ATOM     26  C3  UNL     1       0.338  -5.288 -34.090  0.00  0.00    +0.022 A 
ATOM     27  C4  UNL     1       1.608  -4.781 -33.779  0.00  0.00    +0.052 A 
ATOM     28 CL2  UNL     1       2.003  -3.238 -34.455  0.00  0.00    -0.083 Cl
ATOM     29  C5  UNL     1       2.478  -5.495 -32.934  0.00  0.00    +0.037 A 
ATOM     30  C6  UNL     1       2.028  -6.721 -32.404  0.00  0.00    +0.033 A 
ENDBRANCH  18  29
ENDBRANCH   1  20
TORSDOF 5
ENDMDL
MODEL 7
REMARK VINA RESULT:    -6.735      8.894     14.734
REMARK INTER + INTRA:          -9.433
REMARK INTER:                  -8.963
REMARK INTRA:                  -0.470
REMARK UNBOUND:                -0.729
REMARK  Name = /home/vital/Documents/PhD_2021/Malaria_codes/data/pdb_ligands_mmv/ligand_215.pdb
REMARK  5 active torsions:
REMARK  status: ('A' for Active; 'I' for Inactive)
REMARK    1  A    between atoms: C5_7  and  C7_9
REMARK    2  A    between atoms: C8_11  and  C11_14
REMARK    3  A    between atoms: N1_16  and  C12_17
REMARK    4  A    between atoms: C15_20  and  C16_21
REMARK    5  A    between atoms: C16_21  and  N2_22
REMARK                            x       y       z     vdW  Elec       q    Type
REMARK                         _______ _______ _______ _____ _____    ______ ____
ROOT
ATOM      1  C11 UNL     1      -4.867  -9.870 -32.486  0.00  0.00    +0.284 C 
ATOM      2  O2  UNL     1      -4.747  -8.932 -31.703  0.00  0.00    -0.266 OA
ATOM      3  N1  UNL     1      -3.861 -10.315 -33.333  0.00  0.00    -0.279 N 
ATOM      4  H6  UNL     1      -4.098 -11.065 -33.965  0.00  0.00    +0.155 HD
ENDROOT
BRANCH   3   5
ATOM      5  C12 UNL     1      -2.543  -9.824 -33.450  0.00  0.00    +0.034 A 
ATOM      6  C13 UNL     1      -1.610 -10.280 -32.512  0.00  0.00    +0.023 A 
ATOM      7  C14 UNL     1      -0.282  -9.845 -32.553  0.00  0.00    +0.007 A 
ATOM      8  C15 UNL     1       0.145  -8.951 -33.542  0.00  0.00    -0.033 A 
ATOM      9  C21 UNL     1      -0.793  -8.487 -34.472  0.00  0.00    +0.007 A 
ATOM     10  C22 UNL     1      -2.123  -8.922 -34.428  0.00  0.00    +0.023 A 
BRANCH   8  11
ATOM     11  C16 UNL     1       1.577  -8.458 -33.582  0.00  0.00    +0.119 C 
BRANCH  11  12
ATOM     12  N2  UNL     1       1.690  -6.991 -33.567  0.00  0.00    -0.294 NA
ATOM     13  C17 UNL     1       1.040  -6.374 -32.390  0.00  0.00    +0.113 C 
ATOM     14  C18 UNL     1       2.025  -5.989 -31.274  0.00  0.00    +0.175 C 
ATOM     15  O3  UNL     1       3.040  -5.070 -31.704  0.00  0.00    -0.377 OA
ATOM     16  C19 UNL     1       3.332  -5.169 -33.104  0.00  0.00    +0.175 C 
ATOM     17  C20 UNL     1       3.111  -6.586 -33.651  0.00  0.00    +0.113 C 
ENDBRANCH  11  12
ENDBRANCH   8  11
ENDBRANCH   3   5
BRANCH   1  20
ATOM     18  C7  UNL     1      -7.780 -11.835 -31.787  0.00  0.00    +0.137 A 
ATOM     19  O1  UNL     1      -6.617 -11.195 -31.469  0.00  0.00    -0.450 OA
ATOM     20  C8  UNL     1      -6.113 -10.617 -32.606  0.00  0.00    +0.190 A 
ATOM     21  C9  UNL     1      -6.960 -10.908 -33.662  0.00  0.00    +0.055 A 
ATOM     22  C10 UNL     1      -8.021 -11.690 -33.138  0.00  0.00    +0.051 A 
BRANCH  18  29
ATOM     23 CL1  UNL     1      -8.312 -12.210 -26.669  0.00  0.00    -0.084 Cl
ATOM     24  C1  UNL     1      -8.729 -12.716 -28.259  0.00  0.00    +0.042 A 
ATOM     25  C2  UNL     1      -9.657 -13.736 -28.435  0.00  0.00    +0.021 A 
ATOM     26  C3  UNL     1      -9.993 -14.142 -29.727  0.00  0.00    +0.022 A 
ATOM     27  C4  UNL     1      -9.399 -13.533 -30.840  0.00  0.00    +0.052 A 
ATOM     28 CL2  UNL     1      -9.928 -14.088 -32.392  0.00  0.00    -0.083 Cl
ATOM     29  C5  UNL     1      -8.451 -12.504 -30.675  0.00  0.00    +0.037 A 
ATOM     30  C6  UNL     1      -8.132 -12.103 -29.362  0.00  0.00    +0.033 A 
ENDBRANCH  18  29
ENDBRANCH   1  20
TORSDOF 5
ENDMDL
MODEL 8
REMARK VINA RESULT:    -6.597      3.893     10.426
REMARK INTER + INTRA:          -9.254
REMARK INTER:                  -8.488
REMARK INTRA:                  -0.766
REMARK UNBOUND:                -0.729
REMARK  Name = /home/vital/Documents/PhD_2021/Malaria_codes/data/pdb_ligands_mmv/ligand_215.pdb
REMARK  5 active torsions:
REMARK  status: ('A' for Active; 'I' for Inactive)
REMARK    1  A    between atoms: C5_7  and  C7_9
REMARK    2  A    between atoms: C8_11  and  C11_14
REMARK    3  A    between atoms: N1_16  and  C12_17
REMARK    4  A    between atoms: C15_20  and  C16_21
REMARK    5  A    between atoms: C16_21  and  N2_22
REMARK                            x       y       z     vdW  Elec       q    Type
REMARK                         _______ _______ _______ _____ _____    ______ ____
ROOT
ATOM      1  C11 UNL     1       5.315  -4.070 -30.512  0.00  0.00    +0.284 C 
ATOM      2  O2  UNL     1       6.425  -3.767 -30.942  0.00  0.00    -0.266 OA
ATOM      3  N1  UNL     1       5.000  -4.173 -29.164  0.00  0.00    -0.279 N 
ATOM      4  H6  UNL     1       4.065  -4.478 -28.938  0.00  0.00    +0.155 HD
ENDROOT
BRANCH   3   5
ATOM      5  C12 UNL     1       5.841  -3.940 -28.055  0.00  0.00    +0.034 A 
ATOM      6  C13 UNL     1       6.092  -2.604 -27.718  0.00  0.00    +0.023 A 
ATOM      7  C14 UNL     1       6.913  -2.281 -26.634  0.00  0.00    +0.007 A 
ATOM      8  C15 UNL     1       7.496  -3.289 -25.856  0.00  0.00    -0.033 A 
ATOM      9  C21 UNL     1       7.253  -4.623 -26.202  0.00  0.00    +0.007 A 
ATOM     10  C22 UNL     1       6.431  -4.945 -27.289  0.00  0.00    +0.023 A 
BRANCH   8  11
ATOM     11  C16 UNL     1       8.404  -2.948 -24.692  0.00  0.00    +0.119 C 
BRANCH  11  12
ATOM     12  N2  UNL     1       8.038  -1.697 -24.012  0.00  0.00    -0.294 NA
ATOM     13  C17 UNL     1       6.959  -1.876 -23.014  0.00  0.00    +0.113 C 
ATOM     14  C18 UNL     1       7.469  -1.962 -21.567  0.00  0.00    +0.175 C 
ATOM     15  O3  UNL     1       8.210  -0.805 -21.156  0.00  0.00    -0.377 OA
ATOM     16  C19 UNL     1       8.851  -0.130 -22.247  0.00  0.00    +0.175 C 
ATOM     17  C20 UNL     1       9.231  -1.086 -23.385  0.00  0.00    +0.113 C 
ENDBRANCH  11  12
ENDBRANCH   8  11
ENDBRANCH   3   5
BRANCH   1  20
ATOM     18  C7  UNL     1       2.360  -5.465 -31.980  0.00  0.00    +0.137 A 
ATOM     19  O1  UNL     1       3.328  -5.352 -31.025  0.00  0.00    -0.450 OA
ATOM     20  C8  UNL     1       4.199  -4.363 -31.404  0.00  0.00    +0.190 A 
ATOM     21  C9  UNL     1       3.786  -3.854 -32.624  0.00  0.00    +0.055 A 
ATOM     22  C10 UNL     1       2.615  -4.563 -32.993  0.00  0.00    +0.051 A 
BRANCH  18  29
ATOM     23 CL1  UNL     1      -1.410  -7.097 -28.859  0.00  0.00    -0.084 Cl
ATOM     24  C1  UNL     1      -0.445  -7.291 -30.269  0.00  0.00    +0.042 A 
ATOM     25  C2  UNL     1      -0.644  -8.391 -31.094  0.00  0.00    +0.021 A 
ATOM     26  C3  UNL     1       0.141  -8.543 -32.238  0.00  0.00    +0.022 A 
ATOM     27  C4  UNL     1       1.126  -7.597 -32.554  0.00  0.00    +0.052 A 
ATOM     28 CL2  UNL     1       2.004  -7.866 -34.021  0.00  0.00    -0.083 Cl
ATOM     29  C5  UNL     1       1.342  -6.482 -31.722  0.00  0.00    +0.037 A 
ATOM     30  C6  UNL     1       0.533  -6.344 -30.577  0.00  0.00    +0.033 A 
ENDBRANCH  18  29
ENDBRANCH   1  20
TORSDOF 5
ENDMDL
MODEL 9
REMARK VINA RESULT:    -6.496      6.386      8.656
REMARK INTER + INTRA:          -9.124
REMARK INTER:                  -8.501
REMARK INTRA:                  -0.622
REMARK UNBOUND:                -0.729
REMARK  Name = /home/vital/Documents/PhD_2021/Malaria_codes/data/pdb_ligands_mmv/ligand_215.pdb
REMARK  5 active torsions:
REMARK  status: ('A' for Active; 'I' for Inactive)
REMARK    1  A    between atoms: C5_7  and  C7_9
REMARK    2  A    between atoms: C8_11  and  C11_14
REMARK    3  A    between atoms: N1_16  and  C12_17
REMARK    4  A    between atoms: C15_20  and  C16_21
REMARK    5  A    between atoms: C16_21  and  N2_22
REMARK                            x       y       z     vdW  Elec       q    Type
REMARK                         _______ _______ _______ _____ _____    ______ ____
ROOT
ATOM      1  C11 UNL     1       3.342  -2.720 -20.391  0.00  0.00    +0.284 C 
ATOM      2  O2  UNL     1       2.937  -2.596 -19.238  0.00  0.00    -0.266 OA
ATOM      3  N1  UNL     1       2.525  -2.986 -21.482  0.00  0.00    -0.279 N 
ATOM      4  H6  UNL     1       2.983  -3.114 -22.372  0.00  0.00    +0.155 HD
ENDROOT
BRANCH   3   5
ATOM      5  C12 UNL     1       1.122  -3.139 -21.500  0.00  0.00    +0.034 A 
ATOM      6  C13 UNL     1       0.359  -1.975 -21.652  0.00  0.00    +0.023 A 
ATOM      7  C14 UNL     1      -1.038  -2.033 -21.681  0.00  0.00    +0.007 A 
ATOM      8  C15 UNL     1      -1.703  -3.260 -21.569  0.00  0.00    -0.033 A 
ATOM      9  C21 UNL     1      -0.937  -4.421 -21.406  0.00  0.00    +0.007 A 
ATOM     10  C22 UNL     1       0.461  -4.361 -21.376  0.00  0.00    +0.023 A 
BRANCH   8  11
ATOM     11  C16 UNL     1      -3.216  -3.331 -21.578  0.00  0.00    +0.119 C 
BRANCH  11  12
ATOM     12  N2  UNL     1      -3.836  -2.445 -22.576  0.00  0.00    -0.294 NA
ATOM     13  C17 UNL     1      -3.668  -2.932 -23.963  0.00  0.00    +0.113 C 
ATOM     14  C18 UNL     1      -4.910  -3.647 -24.519  0.00  0.00    +0.175 C 
ATOM     15  O3  UNL     1      -6.086  -2.826 -24.518  0.00  0.00    -0.377 OA
ATOM     16  C19 UNL     1      -6.066  -1.815 -23.501  0.00  0.00    +0.175 C 
ATOM     17  C20 UNL     1      -5.268  -2.245 -22.263  0.00  0.00    +0.113 C 
ENDBRANCH  11  12
ENDBRANCH   8  11
ENDBRANCH   3   5
BRANCH   1  20
ATOM     18  C7  UNL     1       6.496  -2.832 -22.087  0.00  0.00    +0.137 A 
ATOM     19  O1  UNL     1       5.151  -3.033 -21.967  0.00  0.00    -0.450 OA
ATOM     20  C8  UNL     1       4.756  -2.603 -20.726  0.00  0.00    +0.190 A 
ATOM     21  C9  UNL     1       5.868  -2.139 -20.045  0.00  0.00    +0.055 A 
ATOM     22  C10 UNL     1       6.979  -2.291 -20.914  0.00  0.00    +0.051 A 
BRANCH  18  29
ATOM     23 CL1  UNL     1       6.135  -5.927 -26.199  0.00  0.00    -0.084 Cl
ATOM     24  C1  UNL     1       6.945  -4.687 -25.325  0.00  0.00    +0.042 A 
ATOM     25  C2  UNL     1       8.111  -4.132 -25.839  0.00  0.00    +0.021 A 
ATOM     26  C3  UNL     1       8.763  -3.125 -25.126  0.00  0.00    +0.022 A 
ATOM     27  C4  UNL     1       8.253  -2.677 -23.900  0.00  0.00    +0.052 A 
ATOM     28 CL2  UNL     1       9.121  -1.393 -23.131  0.00  0.00    -0.083 Cl
ATOM     29  C5  UNL     1       7.077  -3.238 -23.365  0.00  0.00    +0.037 A 
ATOM     30  C6  UNL     1       6.429  -4.248 -24.105  0.00  0.00    +0.033 A 
ENDBRANCH  18  29
ENDBRANCH   1  20
TORSDOF 5
ENDMDL
