MODEL 1
REMARK VINA RESULT:    -5.037      0.000      0.000
REMARK INTER + INTRA:          -6.038
REMARK INTER:                  -5.773
REMARK INTRA:                  -0.265
REMARK UNBOUND:                -0.265
REMARK  Name = /home/vital/Documents/PhD_2021/Malaria_codes/data/pdb_ligands_mmv/ligand_160.pdb
REMARK  4 active torsions:
REMARK  status: ('A' for Active; 'I' for Inactive)
REMARK    1  A    between atoms: C1_1  and  C2_2
REMARK    2  A    between atoms: C9_10  and  O1_11
REMARK    3  A    between atoms: C10_12  and  C11_13
REMARK    4  A    between atoms: C11_13  and  C12_14
REMARK                            x       y       z     vdW  Elec       q    Type
REMARK                         _______ _______ _______ _____ _____    ______ ____
ROOT
ATOM      1  C1  UNL     1      -0.100   5.029 -20.635  0.00  0.00    +0.066 C 
ATOM      2  C2  UNL     1       0.482   5.992 -19.640  0.00  0.00    +0.046 A 
ATOM      3  N1  UNL     1       1.268   6.959 -20.182  0.00  0.00    -0.251 NA
ATOM      4  C3  UNL     1       1.836   7.873 -19.381  0.00  0.00    +0.075 A 
ATOM      5  C4  UNL     1       2.632   8.862 -19.949  0.00  0.00    +0.028 A 
ATOM      6  C5  UNL     1       3.256   9.843 -19.174  0.00  0.00    +0.002 A 
ATOM      7  C6  UNL     1       3.087   9.843 -17.796  0.00  0.00    +0.001 A 
ATOM      8  C7  UNL     1       2.293   8.861 -17.205  0.00  0.00    +0.013 A 
ATOM      9  C8  UNL     1       1.659   7.868 -17.989  0.00  0.00    +0.042 A 
ATOM     10  C9  UNL     1       0.849   6.850 -17.449  0.00  0.00    +0.131 A 
ATOM     11  C10 UNL     1       0.222   5.899 -18.267  0.00  0.00    +0.019 A 
ENDROOT
BRANCH  10  12
ATOM     12  O1  UNL     1       0.698   6.833 -16.082  0.00  0.00    -0.506 OA
ATOM     13  H8  UNL     1      -0.237   6.941 -15.851  0.00  0.00    +0.292 HD
ENDBRANCH  10  12
BRANCH  11  14
ATOM     14  C11 UNL     1      -0.680   4.825 -17.709  0.00  0.00    +0.067 C 
BRANCH  14  15
ATOM     15  C12 UNL     1      -2.108   5.278 -17.579  0.00  0.00    -0.030 C 
ATOM     16  C13 UNL     1      -3.136   4.722 -18.235  0.00  0.00    +0.004 C 
ENDBRANCH  14  15
ENDBRANCH  11  14
TORSDOF 3
ENDMDL
MODEL 2
REMARK VINA RESULT:    -4.946     11.673     13.371
REMARK INTER + INTRA:          -5.934
REMARK INTER:                  -5.735
REMARK INTRA:                  -0.200
REMARK UNBOUND:                -0.265
REMARK  Name = /home/vital/Documents/PhD_2021/Malaria_codes/data/pdb_ligands_mmv/ligand_160.pdb
REMARK  4 active torsions:
REMARK  status: ('A' for Active; 'I' for Inactive)
REMARK    1  A    between atoms: C1_1  and  C2_2
REMARK    2  A    between atoms: C9_10  and  O1_11
REMARK    3  A    between atoms: C10_12  and  C11_13
REMARK    4  A    between atoms: C11_13  and  C12_14
REMARK                            x       y       z     vdW  Elec       q    Type
REMARK                         _______ _______ _______ _____ _____    ______ ____
ROOT
ATOM      1  C1  UNL     1       7.225  -1.316 -21.173  0.00  0.00    +0.066 C 
ATOM      2  C2  UNL     1       6.908  -2.453 -22.102  0.00  0.00    +0.046 A 
ATOM      3  N1  UNL     1       7.457  -2.342 -23.340  0.00  0.00    -0.251 NA
ATOM      4  C3  UNL     1       7.240  -3.305 -24.247  0.00  0.00    +0.075 A 
ATOM      5  C4  UNL     1       7.813  -3.183 -25.508  0.00  0.00    +0.028 A 
ATOM      6  C5  UNL     1       7.625  -4.148 -26.502  0.00  0.00    +0.002 A 
ATOM      7  C6  UNL     1       6.845  -5.264 -26.238  0.00  0.00    +0.001 A 
ATOM      8  C7  UNL     1       6.259  -5.408 -24.981  0.00  0.00    +0.013 A 
ATOM      9  C8  UNL     1       6.450  -4.433 -23.974  0.00  0.00    +0.042 A 
ATOM     10  C9  UNL     1       5.882  -4.521 -22.687  0.00  0.00    +0.131 A 
ATOM     11  C10 UNL     1       6.118  -3.541 -21.712  0.00  0.00    +0.019 A 
ENDROOT
BRANCH  10  12
ATOM     12  O1  UNL     1       5.089  -5.615 -22.430  0.00  0.00    -0.506 OA
ATOM     13  H8  UNL     1       5.258  -6.308 -23.087  0.00  0.00    +0.292 HD
ENDBRANCH  10  12
BRANCH  11  14
ATOM     14  C11 UNL     1       5.549  -3.639 -20.317  0.00  0.00    +0.067 C 
BRANCH  14  15
ATOM     15  C12 UNL     1       4.111  -3.203 -20.246  0.00  0.00    -0.030 C 
ATOM     16  C13 UNL     1       3.184  -3.793 -19.478  0.00  0.00    +0.004 C 
ENDBRANCH  14  15
ENDBRANCH  11  14
TORSDOF 3
ENDMDL
MODEL 3
REMARK VINA RESULT:    -4.865     16.297     19.101
REMARK INTER + INTRA:          -5.841
REMARK INTER:                  -5.564
REMARK INTRA:                  -0.277
REMARK UNBOUND:                -0.265
REMARK  Name = /home/vital/Documents/PhD_2021/Malaria_codes/data/pdb_ligands_mmv/ligand_160.pdb
REMARK  4 active torsions:
REMARK  status: ('A' for Active; 'I' for Inactive)
REMARK    1  A    between atoms: C1_1  and  C2_2
REMARK    2  A    between atoms: C9_10  and  O1_11
REMARK    3  A    between atoms: C10_12  and  C11_13
REMARK    4  A    between atoms: C11_13  and  C12_14
REMARK                            x       y       z     vdW  Elec       q    Type
REMARK                         _______ _______ _______ _____ _____    ______ ____
ROOT
ATOM      1  C1  UNL     1       2.875  -3.452 -29.405  0.00  0.00    +0.066 C 
ATOM      2  C2  UNL     1       2.916  -4.445 -30.531  0.00  0.00    +0.046 A 
ATOM      3  N1  UNL     1       1.973  -5.420 -30.460  0.00  0.00    -0.251 NA
ATOM      4  C3  UNL     1       1.919  -6.358 -31.418  0.00  0.00    +0.075 A 
ATOM      5  C4  UNL     1       0.944  -7.346 -31.338  0.00  0.00    +0.028 A 
ATOM      6  C5  UNL     1       0.834  -8.354 -32.299  0.00  0.00    +0.002 A 
ATOM      7  C6  UNL     1       1.716  -8.384 -33.369  0.00  0.00    +0.001 A 
ATOM      8  C7  UNL     1       2.701  -7.403 -33.471  0.00  0.00    +0.013 A 
ATOM      9  C8  UNL     1       2.813  -6.381 -32.499  0.00  0.00    +0.042 A 
ATOM     10  C9  UNL     1       3.789  -5.366 -32.546  0.00  0.00    +0.131 A 
ATOM     11  C10 UNL     1       3.849  -4.359 -31.572  0.00  0.00    +0.019 A 
ENDROOT
BRANCH  10  12
ATOM     12  O1  UNL     1       4.680  -5.406 -33.593  0.00  0.00    -0.506 OA
ATOM     13  H8  UNL     1       4.207  -5.310 -34.434  0.00  0.00    +0.292 HD
ENDBRANCH  10  12
BRANCH  11  14
ATOM     14  C11 UNL     1       4.863  -3.242 -31.627  0.00  0.00    +0.067 C 
BRANCH  14  15
ATOM     15  C12 UNL     1       4.476  -2.155 -32.591  0.00  0.00    -0.030 C 
ATOM     16  C13 UNL     1       3.379  -1.395 -32.465  0.00  0.00    +0.004 C 
ENDBRANCH  14  15
ENDBRANCH  11  14
TORSDOF 3
ENDMDL
MODEL 4
REMARK VINA RESULT:    -4.852     11.827     13.520
REMARK INTER + INTRA:          -5.826
REMARK INTER:                  -5.550
REMARK INTRA:                  -0.276
REMARK UNBOUND:                -0.265
REMARK  Name = /home/vital/Documents/PhD_2021/Malaria_codes/data/pdb_ligands_mmv/ligand_160.pdb
REMARK  4 active torsions:
REMARK  status: ('A' for Active; 'I' for Inactive)
REMARK    1  A    between atoms: C1_1  and  C2_2
REMARK    2  A    between atoms: C9_10  and  O1_11
REMARK    3  A    between atoms: C10_12  and  C11_13
REMARK    4  A    between atoms: C11_13  and  C12_14
REMARK                            x       y       z     vdW  Elec       q    Type
REMARK                         _______ _______ _______ _____ _____    ______ ____
ROOT
ATOM      1  C1  UNL     1       8.727  -3.142 -25.308  0.00  0.00    +0.066 C 
ATOM      2  C2  UNL     1       7.737  -3.402 -24.208  0.00  0.00    +0.046 A 
ATOM      3  N1  UNL     1       7.758  -2.490 -23.202  0.00  0.00    -0.251 NA
ATOM      4  C3  UNL     1       6.911  -2.626 -22.171  0.00  0.00    +0.075 A 
ATOM      5  C4  UNL     1       6.937  -1.682 -21.151  0.00  0.00    +0.028 A 
ATOM      6  C5  UNL     1       6.086  -1.765 -20.046  0.00  0.00    +0.002 A 
ATOM      7  C6  UNL     1       5.184  -2.815 -19.949  0.00  0.00    +0.001 A 
ATOM      8  C7  UNL     1       5.140  -3.774 -20.960  0.00  0.00    +0.013 A 
ATOM      9  C8  UNL     1       6.000  -3.690 -22.080  0.00  0.00    +0.042 A 
ATOM     10  C9  UNL     1       6.005  -4.630 -23.130  0.00  0.00    +0.131 A 
ATOM     11  C10 UNL     1       6.861  -4.494 -24.233  0.00  0.00    +0.019 A 
ENDROOT
BRANCH  10  12
ATOM     12  O1  UNL     1       5.129  -5.685 -23.026  0.00  0.00    -0.506 OA
ATOM     13  H8  UNL     1       4.768  -5.902 -23.899  0.00  0.00    +0.292 HD
ENDBRANCH  10  12
BRANCH  11  14
ATOM     14  C11 UNL     1       6.852  -5.470 -25.385  0.00  0.00    +0.067 C 
BRANCH  14  15
ATOM     15  C12 UNL     1       5.837  -5.115 -26.437  0.00  0.00    -0.030 C 
ATOM     16  C13 UNL     1       6.141  -4.553 -27.615  0.00  0.00    +0.004 C 
ENDBRANCH  14  15
ENDBRANCH  11  14
TORSDOF 3
ENDMDL
MODEL 5
REMARK VINA RESULT:    -4.842      3.626      5.130
REMARK INTER + INTRA:          -5.815
REMARK INTER:                  -5.564
REMARK INTRA:                  -0.251
REMARK UNBOUND:                -0.265
REMARK  Name = /home/vital/Documents/PhD_2021/Malaria_codes/data/pdb_ligands_mmv/ligand_160.pdb
REMARK  4 active torsions:
REMARK  status: ('A' for Active; 'I' for Inactive)
REMARK    1  A    between atoms: C1_1  and  C2_2
REMARK    2  A    between atoms: C9_10  and  O1_11
REMARK    3  A    between atoms: C10_12  and  C11_13
REMARK    4  A    between atoms: C11_13  and  C12_14
REMARK                            x       y       z     vdW  Elec       q    Type
REMARK                         _______ _______ _______ _____ _____    ______ ____
ROOT
ATOM      1  C1  UNL     1       0.463   2.927 -19.103  0.00  0.00    +0.066 C 
ATOM      2  C2  UNL     1       0.776   3.380 -17.705  0.00  0.00    +0.046 A 
ATOM      3  N1  UNL     1       1.680   2.607 -17.049  0.00  0.00    -0.251 NA
ATOM      4  C3  UNL     1       2.033   2.925 -15.795  0.00  0.00    +0.075 A 
ATOM      5  C4  UNL     1       2.964   2.130 -15.137  0.00  0.00    +0.028 A 
ATOM      6  C5  UNL     1       3.375   2.401 -13.829  0.00  0.00    +0.002 A 
ATOM      7  C6  UNL     1       2.844   3.492 -13.154  0.00  0.00    +0.001 A 
ATOM      8  C7  UNL     1       1.909   4.303 -13.794  0.00  0.00    +0.013 A 
ATOM      9  C8  UNL     1       1.494   4.030 -15.118  0.00  0.00    +0.042 A 
ATOM     10  C9  UNL     1       0.550   4.811 -15.815  0.00  0.00    +0.131 A 
ATOM     11  C10 UNL     1       0.185   4.515 -17.137  0.00  0.00    +0.019 A 
ENDROOT
BRANCH  10  12
ATOM     12  O1  UNL     1       0.005   5.878 -15.140  0.00  0.00    -0.506 OA
ATOM     13  H8  UNL     1       0.643   6.608 -15.106  0.00  0.00    +0.292 HD
ENDBRANCH  10  12
BRANCH  11  14
ATOM     14  C11 UNL     1      -0.795   5.363 -17.911  0.00  0.00    +0.067 C 
BRANCH  14  15
ATOM     15  C12 UNL     1      -0.223   6.697 -18.304  0.00  0.00    -0.030 C 
ATOM     16  C13 UNL     1       0.967   6.860 -18.899  0.00  0.00    +0.004 C 
ENDBRANCH  14  15
ENDBRANCH  11  14
TORSDOF 3
ENDMDL
MODEL 6
REMARK VINA RESULT:    -4.810     16.791     19.652
REMARK INTER + INTRA:          -5.778
REMARK INTER:                  -5.532
REMARK INTRA:                  -0.246
REMARK UNBOUND:                -0.265
REMARK  Name = /home/vital/Documents/PhD_2021/Malaria_codes/data/pdb_ligands_mmv/ligand_160.pdb
REMARK  4 active torsions:
REMARK  status: ('A' for Active; 'I' for Inactive)
REMARK    1  A    between atoms: C1_1  and  C2_2
REMARK    2  A    between atoms: C9_10  and  O1_11
REMARK    3  A    between atoms: C10_12  and  C11_13
REMARK    4  A    between atoms: C11_13  and  C12_14
REMARK                            x       y       z     vdW  Elec       q    Type
REMARK                         _______ _______ _______ _____ _____    ______ ____
ROOT
ATOM      1  C1  UNL     1       2.178  -4.794 -28.990  0.00  0.00    +0.066 C 
ATOM      2  C2  UNL     1       2.128  -5.634 -30.234  0.00  0.00    +0.046 A 
ATOM      3  N1  UNL     1       1.166  -6.593 -30.231  0.00  0.00    -0.251 NA
ATOM      4  C3  UNL     1       1.033  -7.397 -31.297  0.00  0.00    +0.075 A 
ATOM      5  C4  UNL     1       0.040  -8.370 -31.284  0.00  0.00    +0.028 A 
ATOM      6  C5  UNL     1      -0.152  -9.244 -32.358  0.00  0.00    +0.002 A 
ATOM      7  C6  UNL     1       0.666  -9.150 -33.475  0.00  0.00    +0.001 A 
ATOM      8  C7  UNL     1       1.669  -8.182 -33.510  0.00  0.00    +0.013 A 
ATOM      9  C8  UNL     1       1.863  -7.297 -32.424  0.00  0.00    +0.042 A 
ATOM     10  C9  UNL     1       2.860  -6.301 -32.400  0.00  0.00    +0.131 A 
ATOM     11  C10 UNL     1       3.001  -5.430 -31.310  0.00  0.00    +0.019 A 
ENDROOT
BRANCH  10  12
ATOM     12  O1  UNL     1       3.687  -6.222 -33.496  0.00  0.00    -0.506 OA
ATOM     13  H8  UNL     1       4.384  -5.566 -33.337  0.00  0.00    +0.292 HD
ENDBRANCH  10  12
BRANCH  11  14
ATOM     14  C11 UNL     1       4.039  -4.334 -31.283  0.00  0.00    +0.067 C 
BRANCH  14  15
ATOM     15  C12 UNL     1       3.583  -3.087 -31.990  0.00  0.00    -0.030 C 
ATOM     16  C13 UNL     1       3.887  -2.791 -33.262  0.00  0.00    +0.004 C 
ENDBRANCH  14  15
ENDBRANCH  11  14
TORSDOF 3
ENDMDL
MODEL 7
REMARK VINA RESULT:    -4.792      0.986      4.804
REMARK INTER + INTRA:          -5.757
REMARK INTER:                  -5.552
REMARK INTRA:                  -0.205
REMARK UNBOUND:                -0.265
REMARK  Name = /home/vital/Documents/PhD_2021/Malaria_codes/data/pdb_ligands_mmv/ligand_160.pdb
REMARK  4 active torsions:
REMARK  status: ('A' for Active; 'I' for Inactive)
REMARK    1  A    between atoms: C1_1  and  C2_2
REMARK    2  A    between atoms: C9_10  and  O1_11
REMARK    3  A    between atoms: C10_12  and  C11_13
REMARK    4  A    between atoms: C11_13  and  C12_14
REMARK                            x       y       z     vdW  Elec       q    Type
REMARK                         _______ _______ _______ _____ _____    ______ ____
ROOT
ATOM      1  C1  UNL     1       2.508   8.291 -20.627  0.00  0.00    +0.066 C 
ATOM      2  C2  UNL     1       1.537   7.627 -19.692  0.00  0.00    +0.046 A 
ATOM      3  N1  UNL     1       0.478   7.036 -20.304  0.00  0.00    -0.251 NA
ATOM      4  C3  UNL     1      -0.448   6.411 -19.562  0.00  0.00    +0.075 A 
ATOM      5  C4  UNL     1      -1.523   5.804 -20.200  0.00  0.00    +0.028 A 
ATOM      6  C5  UNL     1      -2.526   5.139 -19.488  0.00  0.00    +0.002 A 
ATOM      7  C6  UNL     1      -2.460   5.077 -18.103  0.00  0.00    +0.001 A 
ATOM      8  C7  UNL     1      -1.391   5.679 -17.442  0.00  0.00    +0.013 A 
ATOM      9  C8  UNL     1      -0.375   6.351 -18.161  0.00  0.00    +0.042 A 
ATOM     10  C9  UNL     1       0.726   6.980 -17.549  0.00  0.00    +0.131 A 
ATOM     11  C10 UNL     1       1.722   7.616 -18.305  0.00  0.00    +0.019 A 
ENDROOT
BRANCH  10  12
ATOM     12  O1  UNL     1       0.782   6.941 -16.175  0.00  0.00    -0.506 OA
ATOM     13  H8  UNL     1       0.124   6.315 -15.836  0.00  0.00    +0.292 HD
ENDBRANCH  10  12
BRANCH  11  14
ATOM     14  C11 UNL     1       2.929   8.262 -17.667  0.00  0.00    +0.067 C 
BRANCH  14  15
ATOM     15  C12 UNL     1       2.622   9.614 -17.085  0.00  0.00    -0.030 C 
ATOM     16  C13 UNL     1       3.386  10.701 -17.263  0.00  0.00    +0.004 C 
ENDBRANCH  14  15
ENDBRANCH  11  14
TORSDOF 3
ENDMDL
MODEL 8
REMARK VINA RESULT:    -4.776     18.049     19.762
REMARK INTER + INTRA:          -5.739
REMARK INTER:                  -5.490
REMARK INTRA:                  -0.248
REMARK UNBOUND:                -0.265
REMARK  Name = /home/vital/Documents/PhD_2021/Malaria_codes/data/pdb_ligands_mmv/ligand_160.pdb
REMARK  4 active torsions:
REMARK  status: ('A' for Active; 'I' for Inactive)
REMARK    1  A    between atoms: C1_1  and  C2_2
REMARK    2  A    between atoms: C9_10  and  O1_11
REMARK    3  A    between atoms: C10_12  and  C11_13
REMARK    4  A    between atoms: C11_13  and  C12_14
REMARK                            x       y       z     vdW  Elec       q    Type
REMARK                         _______ _______ _______ _____ _____    ______ ____
ROOT
ATOM      1  C1  UNL     1      -1.120  -7.277 -29.364  0.00  0.00    +0.066 C 
ATOM      2  C2  UNL     1      -0.037  -7.267 -30.406  0.00  0.00    +0.046 A 
ATOM      3  N1  UNL     1       0.822  -6.219 -30.319  0.00  0.00    -0.251 NA
ATOM      4  C3  UNL     1       1.828  -6.116 -31.200  0.00  0.00    +0.075 A 
ATOM      5  C4  UNL     1       2.705  -5.042 -31.095  0.00  0.00    +0.028 A 
ATOM      6  C5  UNL     1       3.773  -4.871 -31.981  0.00  0.00    +0.002 A 
ATOM      7  C6  UNL     1       3.975  -5.791 -33.000  0.00  0.00    +0.001 A 
ATOM      8  C7  UNL     1       3.108  -6.876 -33.124  0.00  0.00    +0.013 A 
ATOM      9  C8  UNL     1       2.028  -7.050 -32.227  0.00  0.00    +0.042 A 
ATOM     10  C9  UNL     1       1.118  -8.123 -32.304  0.00  0.00    +0.131 A 
ATOM     11  C10 UNL     1       0.075  -8.268 -31.378  0.00  0.00    +0.019 A 
ENDROOT
BRANCH  10  12
ATOM     12  O1  UNL     1       1.302  -9.024 -33.327  0.00  0.00    -0.506 OA
ATOM     13  H8  UNL     1       2.075  -9.579 -33.144  0.00  0.00    +0.292 HD
ENDBRANCH  10  12
BRANCH  11  14
ATOM     14  C11 UNL     1      -0.887  -9.432 -31.422  0.00  0.00    +0.067 C 
BRANCH  14  15
ATOM     15  C12 UNL     1      -2.078  -9.166 -32.301  0.00  0.00    -0.030 C 
ATOM     16  C13 UNL     1      -2.155  -9.524 -33.590  0.00  0.00    +0.004 C 
ENDBRANCH  14  15
ENDBRANCH  11  14
TORSDOF 3
ENDMDL
MODEL 9
REMARK VINA RESULT:    -4.649      9.781     12.139
REMARK INTER + INTRA:          -5.593
REMARK INTER:                  -5.426
REMARK INTRA:                  -0.167
REMARK UNBOUND:                -0.265
REMARK  Name = /home/vital/Documents/PhD_2021/Malaria_codes/data/pdb_ligands_mmv/ligand_160.pdb
REMARK  4 active torsions:
REMARK  status: ('A' for Active; 'I' for Inactive)
REMARK    1  A    between atoms: C1_1  and  C2_2
REMARK    2  A    between atoms: C9_10  and  O1_11
REMARK    3  A    between atoms: C10_12  and  C11_13
REMARK    4  A    between atoms: C11_13  and  C12_14
REMARK                            x       y       z     vdW  Elec       q    Type
REMARK                         _______ _______ _______ _____ _____    ______ ____
ROOT
ATOM      1  C1  UNL     1      -3.919  -0.509 -23.315  0.00  0.00    +0.066 C 
ATOM      2  C2  UNL     1      -3.399  -1.855 -22.898  0.00  0.00    +0.046 A 
ATOM      3  N1  UNL     1      -2.781  -2.553 -23.886  0.00  0.00    -0.251 NA
ATOM      4  C3  UNL     1      -2.277  -3.767 -23.620  0.00  0.00    +0.075 A 
ATOM      5  C4  UNL     1      -1.641  -4.468 -24.638  0.00  0.00    +0.028 A 
ATOM      6  C5  UNL     1      -1.096  -5.739 -24.432  0.00  0.00    +0.002 A 
ATOM      7  C6  UNL     1      -1.186  -6.330 -23.180  0.00  0.00    +0.001 A 
ATOM      8  C7  UNL     1      -1.819  -5.646 -22.143  0.00  0.00    +0.013 A 
ATOM      9  C8  UNL     1      -2.369  -4.360 -22.351  0.00  0.00    +0.042 A 
ATOM     10  C9  UNL     1      -3.023  -3.621 -21.345  0.00  0.00    +0.131 A 
ATOM     11  C10 UNL     1      -3.535  -2.338 -21.591  0.00  0.00    +0.019 A 
ENDROOT
BRANCH  10  12
ATOM     12  O1  UNL     1      -3.135  -4.214 -20.109  0.00  0.00    -0.506 OA
ATOM     13  H8  UNL     1      -2.623  -5.037 -20.091  0.00  0.00    +0.292 HD
ENDBRANCH  10  12
BRANCH  11  14
ATOM     14  C11 UNL     1      -4.204  -1.517 -20.515  0.00  0.00    +0.067 C 
BRANCH  14  15
ATOM     15  C12 UNL     1      -3.225  -0.958 -19.519  0.00  0.00    -0.030 C 
ATOM     16  C13 UNL     1      -3.149  -1.350 -18.240  0.00  0.00    +0.004 C 
ENDBRANCH  14  15
ENDBRANCH  11  14
TORSDOF 3
ENDMDL
