MODEL 1
REMARK VINA RESULT:    -5.376      0.000      0.000
REMARK INTER + INTRA:          -7.737
REMARK INTER:                  -6.948
REMARK INTRA:                  -0.789
REMARK UNBOUND:                -0.789
REMARK  Name = /home/vital/Documents/PhD_2021/Malaria_codes/data/pdb_ligands_mmv/ligand_165.pdb
REMARK  5 active torsions:
REMARK  status: ('A' for Active; 'I' for Inactive)
REMARK    1  A    between atoms: C1_2  and  C19_23
REMARK    2  A    between atoms: N1_3  and  C2_4
REMARK    3  A    between atoms: C5_7  and  N2_10
REMARK    4  A    between atoms: N3_13  and  C10_14
REMARK    5  A    between atoms: C10_14  and  C11_15
REMARK                            x       y       z     vdW  Elec       q    Type
REMARK                         _______ _______ _______ _____ _____    ______ ____
ROOT
ATOM      1  C2  UNL     1       0.166  -6.717 -28.042  0.00  0.00    +0.034 A 
ATOM      2  C3  UNL     1       1.161  -6.767 -27.073  0.00  0.00    +0.025 A 
ATOM      3  C4  UNL     1       0.934  -6.240 -25.793  0.00  0.00    +0.025 A 
ATOM      4  C5  UNL     1      -0.290  -5.656 -25.426  0.00  0.00    +0.030 A 
ATOM      5  C6  UNL     1      -1.272  -5.598 -26.422  0.00  0.00    +0.025 A 
ATOM      6  C7  UNL     1      -1.054  -6.125 -27.706  0.00  0.00    +0.025 A 
ENDROOT
BRANCH   4   7
ATOM      7  N2  UNL     1      -0.463  -5.135 -24.136  0.00  0.00    -0.327 N 
ATOM      8  C8  UNL     1      -1.186  -6.029 -23.197  0.00  0.00    +0.120 C 
ATOM      9  C9  UNL     1      -1.116  -5.491 -21.748  0.00  0.00    +0.103 C 
ATOM     10  N3  UNL     1      -1.532  -4.080 -21.566  0.00  0.00    -0.295 NA
ATOM     11  C17 UNL     1      -0.758  -3.256 -22.520  0.00  0.00    +0.103 C 
ATOM     12  C18 UNL     1      -0.829  -3.711 -23.998  0.00  0.00    +0.120 C 
BRANCH  10  13
ATOM     13  C10 UNL     1      -2.980  -3.888 -21.748  0.00  0.00    +0.119 C 
BRANCH  13  14
ATOM     14  C11 UNL     1      -3.513  -2.642 -21.071  0.00  0.00    -0.033 A 
ATOM     15  C12 UNL     1      -3.097  -2.300 -19.776  0.00  0.00    +0.005 A 
ATOM     16  C13 UNL     1      -3.579  -1.145 -19.157  0.00  0.00    +0.000 A 
ATOM     17  C14 UNL     1      -4.476  -0.318 -19.828  0.00  0.00    +0.000 A 
ATOM     18  C15 UNL     1      -4.894  -0.643 -21.116  0.00  0.00    +0.000 A 
ATOM     19  C16 UNL     1      -4.415  -1.798 -21.737  0.00  0.00    +0.005 A 
ENDBRANCH  13  14
ENDBRANCH  10  13
ENDBRANCH   4   7
BRANCH   1  22
ATOM     20  O1  UNL     1       1.640  -5.628 -30.348  0.00  0.00    -0.269 OA
ATOM     21  C1  UNL     1       1.022  -6.688 -30.408  0.00  0.00    +0.255 C 
ATOM     22  N1  UNL     1       0.296  -7.224 -29.352  0.00  0.00    -0.281 N 
ATOM     23  H1  UNL     1      -0.247  -8.051 -29.551  0.00  0.00    +0.155 HD
BRANCH  21  24
ATOM     24  C19 UNL     1       0.974  -7.500 -31.626  0.00  0.00    +0.074 A 
ATOM     25  C20 UNL     1       1.749  -7.448 -32.775  0.00  0.00    +0.021 A 
ATOM     26  C21 UNL     1       1.375  -8.433 -33.738  0.00  0.00    +0.008 A 
ATOM     27  C22 UNL     1       0.321  -9.203 -33.304  0.00  0.00    +0.046 A 
ATOM     28  S1  UNL     1      -0.217  -8.735 -31.753  0.00  0.00    -0.092 S 
ENDBRANCH  21  24
ENDBRANCH   1  22
TORSDOF 5
ENDMDL
MODEL 2
REMARK VINA RESULT:    -4.894      8.886     14.295
REMARK INTER + INTRA:          -7.114
REMARK INTER:                  -6.475
REMARK INTRA:                  -0.639
REMARK UNBOUND:                -0.789
REMARK  Name = /home/vital/Documents/PhD_2021/Malaria_codes/data/pdb_ligands_mmv/ligand_165.pdb
REMARK  5 active torsions:
REMARK  status: ('A' for Active; 'I' for Inactive)
REMARK    1  A    between atoms: C1_2  and  C19_23
REMARK    2  A    between atoms: N1_3  and  C2_4
REMARK    3  A    between atoms: C5_7  and  N2_10
REMARK    4  A    between atoms: N3_13  and  C10_14
REMARK    5  A    between atoms: C10_14  and  C11_15
REMARK                            x       y       z     vdW  Elec       q    Type
REMARK                         _______ _______ _______ _____ _____    ______ ____
ROOT
ATOM      1  C2  UNL     1       3.220   0.689 -17.205  0.00  0.00    +0.034 A 
ATOM      2  C3  UNL     1       2.166  -0.128 -17.596  0.00  0.00    +0.025 A 
ATOM      3  C4  UNL     1       2.353  -1.102 -18.589  0.00  0.00    +0.025 A 
ATOM      4  C5  UNL     1       3.590  -1.306 -19.219  0.00  0.00    +0.030 A 
ATOM      5  C6  UNL     1       4.634  -0.460 -18.825  0.00  0.00    +0.025 A 
ATOM      6  C7  UNL     1       4.457   0.517 -17.831  0.00  0.00    +0.025 A 
ENDROOT
BRANCH   4   7
ATOM      7  N2  UNL     1       3.722  -2.287 -20.213  0.00  0.00    -0.327 N 
ATOM      8  C8  UNL     1       4.595  -3.429 -19.846  0.00  0.00    +0.120 C 
ATOM      9  C9  UNL     1       4.489  -4.570 -20.886  0.00  0.00    +0.103 C 
ATOM     10  N3  UNL     1       4.697  -4.174 -22.299  0.00  0.00    -0.295 NA
ATOM     11  C17 UNL     1       3.783  -3.047 -22.590  0.00  0.00    +0.103 C 
ATOM     12  C18 UNL     1       3.877  -1.848 -21.614  0.00  0.00    +0.120 C 
BRANCH  10  13
ATOM     13  C10 UNL     1       6.095  -3.814 -22.586  0.00  0.00    +0.119 C 
BRANCH  13  14
ATOM     14  C11 UNL     1       6.518  -4.126 -24.007  0.00  0.00    -0.033 A 
ATOM     15  C12 UNL     1       7.289  -3.210 -24.739  0.00  0.00    +0.005 A 
ATOM     16  C13 UNL     1       7.688  -3.502 -26.044  0.00  0.00    +0.000 A 
ATOM     17  C14 UNL     1       7.326  -4.714 -26.629  0.00  0.00    +0.000 A 
ATOM     18  C15 UNL     1       6.565  -5.633 -25.912  0.00  0.00    +0.000 A 
ATOM     19  C16 UNL     1       6.163  -5.343 -24.606  0.00  0.00    +0.005 A 
ENDBRANCH  13  14
ENDBRANCH  10  13
ENDBRANCH   4   7
BRANCH   1  22
ATOM     20  O1  UNL     1       4.834   1.078 -14.772  0.00  0.00    -0.269 OA
ATOM     21  C1  UNL     1       3.933   1.849 -15.089  0.00  0.00    +0.255 C 
ATOM     22  N1  UNL     1       3.134   1.690 -16.214  0.00  0.00    -0.281 N 
ATOM     23  H1  UNL     1       2.365   2.335 -16.317  0.00  0.00    +0.155 HD
BRANCH  21  24
ATOM     24  C19 UNL     1       3.592   3.028 -14.289  0.00  0.00    +0.074 A 
ATOM     25  C20 UNL     1       2.378   3.675 -14.109  0.00  0.00    +0.021 A 
ATOM     26  C21 UNL     1       2.475   4.798 -13.235  0.00  0.00    +0.008 A 
ATOM     27  C22 UNL     1       3.759   4.986 -12.779  0.00  0.00    +0.046 A 
ATOM     28  S1  UNL     1       4.838   3.821 -13.407  0.00  0.00    -0.092 S 
ENDBRANCH  21  24
ENDBRANCH   1  22
TORSDOF 5
ENDMDL
MODEL 3
REMARK VINA RESULT:    -4.688      7.774     12.073
REMARK INTER + INTRA:          -6.848
REMARK INTER:                  -6.026
REMARK INTRA:                  -0.822
REMARK UNBOUND:                -0.789
REMARK  Name = /home/vital/Documents/PhD_2021/Malaria_codes/data/pdb_ligands_mmv/ligand_165.pdb
REMARK  5 active torsions:
REMARK  status: ('A' for Active; 'I' for Inactive)
REMARK    1  A    between atoms: C1_2  and  C19_23
REMARK    2  A    between atoms: N1_3  and  C2_4
REMARK    3  A    between atoms: C5_7  and  N2_10
REMARK    4  A    between atoms: N3_13  and  C10_14
REMARK    5  A    between atoms: C10_14  and  C11_15
REMARK                            x       y       z     vdW  Elec       q    Type
REMARK                         _______ _______ _______ _____ _____    ______ ____
ROOT
ATOM      1  C2  UNL     1      -8.036   3.387 -25.270  0.00  0.00    +0.034 A 
ATOM      2  C3  UNL     1      -6.704   3.489 -24.885  0.00  0.00    +0.025 A 
ATOM      3  C4  UNL     1      -6.092   2.452 -24.164  0.00  0.00    +0.025 A 
ATOM      4  C5  UNL     1      -6.774   1.277 -23.811  0.00  0.00    +0.030 A 
ATOM      5  C6  UNL     1      -8.120   1.203 -24.191  0.00  0.00    +0.025 A 
ATOM      6  C7  UNL     1      -8.741   2.235 -24.914  0.00  0.00    +0.025 A 
ENDROOT
BRANCH   4   7
ATOM      7  N2  UNL     1      -6.120   0.274 -23.082  0.00  0.00    -0.327 N 
ATOM      8  C8  UNL     1      -4.669   0.505 -22.871  0.00  0.00    +0.120 C 
ATOM      9  C9  UNL     1      -4.083  -0.507 -21.859  0.00  0.00    +0.103 C 
ATOM     10  N3  UNL     1      -4.357  -1.935 -22.146  0.00  0.00    -0.295 NA
ATOM     11  C17 UNL     1      -5.819  -2.086 -22.325  0.00  0.00    +0.103 C 
ATOM     12  C18 UNL     1      -6.460  -1.135 -23.364  0.00  0.00    +0.120 C 
BRANCH  10  13
ATOM     13  C10 UNL     1      -3.623  -2.428 -23.322  0.00  0.00    +0.119 C 
BRANCH  13  14
ATOM     14  C11 UNL     1      -2.952  -3.768 -23.096  0.00  0.00    -0.033 A 
ATOM     15  C12 UNL     1      -1.941  -3.906 -22.134  0.00  0.00    +0.005 A 
ATOM     16  C13 UNL     1      -1.331  -5.143 -21.917  0.00  0.00    +0.000 A 
ATOM     17  C14 UNL     1      -1.728  -6.255 -22.657  0.00  0.00    +0.000 A 
ATOM     18  C15 UNL     1      -2.734  -6.132 -23.613  0.00  0.00    +0.000 A 
ATOM     19  C16 UNL     1      -3.345  -4.896 -23.832  0.00  0.00    +0.005 A 
ENDBRANCH  13  14
ENDBRANCH  10  13
ENDBRANCH   4   7
BRANCH   1  22
ATOM     20  O1  UNL     1      -9.537   5.734 -24.315  0.00  0.00    -0.269 OA
ATOM     21  C1  UNL     1      -9.415   5.478 -25.509  0.00  0.00    +0.255 C 
ATOM     22  N1  UNL     1      -8.736   4.370 -26.001  0.00  0.00    -0.281 N 
ATOM     23  H1  UNL     1      -8.786   4.215 -26.996  0.00  0.00    +0.155 HD
BRANCH  21  24
ATOM     24  C19 UNL     1      -9.998   6.321 -26.556  0.00  0.00    +0.074 A 
ATOM     25  C20 UNL     1     -10.808   7.443 -26.463  0.00  0.00    +0.021 A 
ATOM     26  C21 UNL     1     -11.159   7.979 -27.737  0.00  0.00    +0.008 A 
ATOM     27  C22 UNL     1     -10.617   7.248 -28.769  0.00  0.00    +0.046 A 
ATOM     28  S1  UNL     1      -9.701   5.923 -28.203  0.00  0.00    -0.092 S 
ENDBRANCH  21  24
ENDBRANCH   1  22
TORSDOF 5
ENDMDL
MODEL 4
REMARK VINA RESULT:    -4.604      8.133     11.498
REMARK INTER + INTRA:          -6.739
REMARK INTER:                  -5.931
REMARK INTRA:                  -0.808
REMARK UNBOUND:                -0.789
REMARK  Name = /home/vital/Documents/PhD_2021/Malaria_codes/data/pdb_ligands_mmv/ligand_165.pdb
REMARK  5 active torsions:
REMARK  status: ('A' for Active; 'I' for Inactive)
REMARK    1  A    between atoms: C1_2  and  C19_23
REMARK    2  A    between atoms: N1_3  and  C2_4
REMARK    3  A    between atoms: C5_7  and  N2_10
REMARK    4  A    between atoms: N3_13  and  C10_14
REMARK    5  A    between atoms: C10_14  and  C11_15
REMARK                            x       y       z     vdW  Elec       q    Type
REMARK                         _______ _______ _______ _____ _____    ______ ____
ROOT
ATOM      1  C2  UNL     1      -1.100   0.061 -20.636  0.00  0.00    +0.034 A 
ATOM      2  C3  UNL     1      -0.135   0.423 -19.703  0.00  0.00    +0.025 A 
ATOM      3  C4  UNL     1      -0.044   1.750 -19.254  0.00  0.00    +0.025 A 
ATOM      4  C5  UNL     1      -0.910   2.759 -19.707  0.00  0.00    +0.030 A 
ATOM      5  C6  UNL     1      -1.861   2.377 -20.661  0.00  0.00    +0.025 A 
ATOM      6  C7  UNL     1      -1.961   1.051 -21.115  0.00  0.00    +0.025 A 
ENDROOT
BRANCH   4   7
ATOM      7  N2  UNL     1      -0.770   4.072 -19.235  0.00  0.00    -0.327 N 
ATOM      8  C8  UNL     1      -0.226   5.033 -20.225  0.00  0.00    +0.120 C 
ATOM      9  C9  UNL     1      -0.337   6.488 -19.711  0.00  0.00    +0.103 C 
ATOM     10  N3  UNL     1       0.225   6.738 -18.363  0.00  0.00    -0.295 NA
ATOM     11  C17 UNL     1      -0.377   5.755 -17.434  0.00  0.00    +0.103 C 
ATOM     12  C18 UNL     1      -0.254   4.274 -17.866  0.00  0.00    +0.120 C 
BRANCH  10  13
ATOM     13  C10 UNL     1       1.695   6.662 -18.338  0.00  0.00    +0.119 C 
BRANCH  13  14
ATOM     14  C11 UNL     1       2.368   8.019 -18.282  0.00  0.00    -0.033 A 
ATOM     15  C12 UNL     1       2.972   8.563 -19.425  0.00  0.00    +0.005 A 
ATOM     16  C13 UNL     1       3.582   9.818 -19.376  0.00  0.00    +0.000 A 
ATOM     17  C14 UNL     1       3.590  10.543 -18.187  0.00  0.00    +0.000 A 
ATOM     18  C15 UNL     1       2.991  10.015 -17.045  0.00  0.00    +0.000 A 
ATOM     19  C16 UNL     1       2.381   8.760 -17.091  0.00  0.00    +0.005 A 
ENDBRANCH  13  14
ENDBRANCH  10  13
ENDBRANCH   4   7
BRANCH   1  22
ATOM     20  O1  UNL     1      -2.873  -2.098 -19.707  0.00  0.00    -0.269 OA
ATOM     21  C1  UNL     1      -2.142  -2.228 -20.685  0.00  0.00    +0.255 C 
ATOM     22  N1  UNL     1      -1.275  -1.244 -21.142  0.00  0.00    -0.281 N 
ATOM     23  H1  UNL     1      -0.657  -1.502 -21.896  0.00  0.00    +0.155 HD
BRANCH  21  24
ATOM     24  C19 UNL     1      -2.098  -3.462 -21.473  0.00  0.00    +0.074 A 
ATOM     25  C20 UNL     1      -1.303  -4.591 -21.337  0.00  0.00    +0.021 A 
ATOM     26  C21 UNL     1      -1.582  -5.584 -22.322  0.00  0.00    +0.008 A 
ATOM     27  C22 UNL     1      -2.573  -5.186 -23.189  0.00  0.00    +0.046 A 
ATOM     28  S1  UNL     1      -3.155  -3.624 -22.821  0.00  0.00    -0.092 S 
ENDBRANCH  21  24
ENDBRANCH   1  22
TORSDOF 5
ENDMDL
MODEL 5
REMARK VINA RESULT:    -4.415      8.128     12.470
REMARK INTER + INTRA:          -6.495
REMARK INTER:                  -5.684
REMARK INTRA:                  -0.811
REMARK UNBOUND:                -0.789
REMARK  Name = /home/vital/Documents/PhD_2021/Malaria_codes/data/pdb_ligands_mmv/ligand_165.pdb
REMARK  5 active torsions:
REMARK  status: ('A' for Active; 'I' for Inactive)
REMARK    1  A    between atoms: C1_2  and  C19_23
REMARK    2  A    between atoms: N1_3  and  C2_4
REMARK    3  A    between atoms: C5_7  and  N2_10
REMARK    4  A    between atoms: N3_13  and  C10_14
REMARK    5  A    between atoms: C10_14  and  C11_15
REMARK                            x       y       z     vdW  Elec       q    Type
REMARK                         _______ _______ _______ _____ _____    ______ ____
ROOT
ATOM      1  C2  UNL     1      -7.997   3.875 -25.321  0.00  0.00    +0.034 A 
ATOM      2  C3  UNL     1      -8.487   3.139 -24.249  0.00  0.00    +0.025 A 
ATOM      3  C4  UNL     1      -8.094   1.804 -24.066  0.00  0.00    +0.025 A 
ATOM      4  C5  UNL     1      -7.194   1.159 -24.929  0.00  0.00    +0.030 A 
ATOM      5  C6  UNL     1      -6.727   1.913 -26.013  0.00  0.00    +0.025 A 
ATOM      6  C7  UNL     1      -7.114   3.249 -26.205  0.00  0.00    +0.025 A 
ENDROOT
BRANCH   4   7
ATOM      7  N2  UNL     1      -6.840  -0.179 -24.707  0.00  0.00    -0.327 N 
ATOM      8  C8  UNL     1      -6.501  -0.506 -23.300  0.00  0.00    +0.120 C 
ATOM      9  C9  UNL     1      -6.367  -2.035 -23.098  0.00  0.00    +0.103 C 
ATOM     10  N3  UNL     1      -5.458  -2.730 -24.040  0.00  0.00    -0.295 NA
ATOM     11  C17 UNL     1      -5.871  -2.368 -25.414  0.00  0.00    +0.103 C 
ATOM     12  C18 UNL     1      -5.974  -0.849 -25.697  0.00  0.00    +0.120 C 
BRANCH  10  13
ATOM     13  C10 UNL     1      -4.042  -2.404 -23.806  0.00  0.00    +0.119 C 
BRANCH  13  14
ATOM     14  C11 UNL     1      -3.251  -3.549 -23.206  0.00  0.00    -0.033 A 
ATOM     15  C12 UNL     1      -3.069  -4.742 -23.922  0.00  0.00    +0.005 A 
ATOM     16  C13 UNL     1      -2.330  -5.793 -23.375  0.00  0.00    +0.000 A 
ATOM     17  C14 UNL     1      -1.763  -5.661 -22.110  0.00  0.00    +0.000 A 
ATOM     18  C15 UNL     1      -1.933  -4.480 -21.390  0.00  0.00    +0.000 A 
ATOM     19  C16 UNL     1      -2.672  -3.428 -21.935  0.00  0.00    +0.005 A 
ENDBRANCH  13  14
ENDBRANCH  10  13
ENDBRANCH   4   7
BRANCH   1  22
ATOM     20  O1  UNL     1     -10.381   5.011 -26.625  0.00  0.00    -0.269 OA
ATOM     21  C1  UNL     1      -9.478   5.716 -26.187  0.00  0.00    +0.255 C 
ATOM     22  N1  UNL     1      -8.327   5.221 -25.587  0.00  0.00    -0.281 N 
ATOM     23  H1  UNL     1      -7.613   5.895 -25.353  0.00  0.00    +0.155 HD
BRANCH  21  24
ATOM     24  C19 UNL     1      -9.514   7.179 -26.269  0.00  0.00    +0.074 A 
ATOM     25  C20 UNL     1     -10.587   8.048 -26.395  0.00  0.00    +0.021 A 
ATOM     26  C21 UNL     1     -10.187   9.417 -26.435  0.00  0.00    +0.008 A 
ATOM     27  C22 UNL     1      -8.821   9.557 -26.349  0.00  0.00    +0.046 A 
ATOM     28  S1  UNL     1      -8.030   8.049 -26.228  0.00  0.00    -0.092 S 
ENDBRANCH  21  24
ENDBRANCH   1  22
TORSDOF 5
ENDMDL
MODEL 6
REMARK VINA RESULT:    -4.277     11.281     12.404
REMARK INTER + INTRA:          -6.317
REMARK INTER:                  -5.512
REMARK INTRA:                  -0.805
REMARK UNBOUND:                -0.789
REMARK  Name = /home/vital/Documents/PhD_2021/Malaria_codes/data/pdb_ligands_mmv/ligand_165.pdb
REMARK  5 active torsions:
REMARK  status: ('A' for Active; 'I' for Inactive)
REMARK    1  A    between atoms: C1_2  and  C19_23
REMARK    2  A    between atoms: N1_3  and  C2_4
REMARK    3  A    between atoms: C5_7  and  N2_10
REMARK    4  A    between atoms: N3_13  and  C10_14
REMARK    5  A    between atoms: C10_14  and  C11_15
REMARK                            x       y       z     vdW  Elec       q    Type
REMARK                         _______ _______ _______ _____ _____    ______ ____
ROOT
ATOM      1  C2  UNL     1      10.704   1.386 -27.678  0.00  0.00    +0.034 A 
ATOM      2  C3  UNL     1      11.281   0.564 -26.716  0.00  0.00    +0.025 A 
ATOM      3  C4  UNL     1      10.521  -0.434 -26.087  0.00  0.00    +0.025 A 
ATOM      4  C5  UNL     1       9.170  -0.659 -26.397  0.00  0.00    +0.030 A 
ATOM      5  C6  UNL     1       8.603   0.192 -27.354  0.00  0.00    +0.025 A 
ATOM      6  C7  UNL     1       9.356   1.193 -27.990  0.00  0.00    +0.025 A 
ENDROOT
BRANCH   4   7
ATOM      7  N2  UNL     1       8.452  -1.664 -25.733  0.00  0.00    -0.327 N 
ATOM      8  C8  UNL     1       7.006  -1.381 -25.558  0.00  0.00    +0.120 C 
ATOM      9  C9  UNL     1       6.250  -2.631 -25.046  0.00  0.00    +0.103 C 
ATOM     10  N3  UNL     1       6.817  -3.274 -23.836  0.00  0.00    -0.295 NA
ATOM     11  C17 UNL     1       8.250  -3.538 -24.096  0.00  0.00    +0.103 C 
ATOM     12  C18 UNL     1       9.075  -2.314 -24.562  0.00  0.00    +0.120 C 
BRANCH  10  13
ATOM     13  C10 UNL     1       6.636  -2.459 -22.624  0.00  0.00    +0.119 C 
BRANCH  13  14
ATOM     14  C11 UNL     1       5.491  -2.926 -21.749  0.00  0.00    -0.033 A 
ATOM     15  C12 UNL     1       4.293  -2.199 -21.693  0.00  0.00    +0.005 A 
ATOM     16  C13 UNL     1       3.234  -2.636 -20.895  0.00  0.00    +0.000 A 
ATOM     17  C14 UNL     1       3.359  -3.806 -20.150  0.00  0.00    +0.000 A 
ATOM     18  C15 UNL     1       4.542  -4.540 -20.200  0.00  0.00    +0.000 A 
ATOM     19  C16 UNL     1       5.603  -4.105 -20.996  0.00  0.00    +0.005 A 
ENDBRANCH  13  14
ENDBRANCH  10  13
ENDBRANCH   4   7
BRANCH   1  22
ATOM     20  O1  UNL     1      11.918   1.366 -30.361  0.00  0.00    -0.269 OA
ATOM     21  C1  UNL     1      11.925   2.365 -29.648  0.00  0.00    +0.255 C 
ATOM     22  N1  UNL     1      11.385   2.410 -28.369  0.00  0.00    -0.281 N 
ATOM     23  H1  UNL     1      11.536   3.258 -27.845  0.00  0.00    +0.155 HD
BRANCH  21  24
ATOM     24  C19 UNL     1      12.529   3.629 -30.075  0.00  0.00    +0.074 A 
ATOM     25  C20 UNL     1      13.521   4.399 -29.485  0.00  0.00    +0.021 A 
ATOM     26  C21 UNL     1      13.828   5.573 -30.235  0.00  0.00    +0.008 A 
ATOM     27  C22 UNL     1      13.059   5.674 -31.371  0.00  0.00    +0.046 A 
ATOM     28  S1  UNL     1      11.970   4.368 -31.525  0.00  0.00    -0.092 S 
ENDBRANCH  21  24
ENDBRANCH   1  22
TORSDOF 5
ENDMDL
MODEL 7
REMARK VINA RESULT:    -4.274     15.004     15.616
REMARK INTER + INTRA:          -6.312
REMARK INTER:                  -5.498
REMARK INTRA:                  -0.814
REMARK UNBOUND:                -0.789
REMARK  Name = /home/vital/Documents/PhD_2021/Malaria_codes/data/pdb_ligands_mmv/ligand_165.pdb
REMARK  5 active torsions:
REMARK  status: ('A' for Active; 'I' for Inactive)
REMARK    1  A    between atoms: C1_2  and  C19_23
REMARK    2  A    between atoms: N1_3  and  C2_4
REMARK    3  A    between atoms: C5_7  and  N2_10
REMARK    4  A    between atoms: N3_13  and  C10_14
REMARK    5  A    between atoms: C10_14  and  C11_15
REMARK                            x       y       z     vdW  Elec       q    Type
REMARK                         _______ _______ _______ _____ _____    ______ ____
ROOT
ATOM      1  C2  UNL     1       3.616   9.564 -22.805  0.00  0.00    +0.034 A 
ATOM      2  C3  UNL     1       4.188  10.306 -21.778  0.00  0.00    +0.025 A 
ATOM      3  C4  UNL     1       4.009   9.923 -20.440  0.00  0.00    +0.025 A 
ATOM      4  C5  UNL     1       3.269   8.787 -20.075  0.00  0.00    +0.030 A 
ATOM      5  C6  UNL     1       2.685   8.064 -21.123  0.00  0.00    +0.025 A 
ATOM      6  C7  UNL     1       2.860   8.439 -22.466  0.00  0.00    +0.025 A 
ENDROOT
BRANCH   4   7
ATOM      7  N2  UNL     1       3.112   8.451 -18.723  0.00  0.00    -0.327 N 
ATOM      8  C8  UNL     1       4.274   7.756 -18.117  0.00  0.00    +0.120 C 
ATOM      9  C9  UNL     1       4.121   7.646 -16.580  0.00  0.00    +0.103 C 
ATOM     10  N3  UNL     1       2.844   7.066 -16.101  0.00  0.00    -0.295 NA
ATOM     11  C17 UNL     1       1.740   7.822 -16.734  0.00  0.00    +0.103 C 
ATOM     12  C18 UNL     1       1.807   7.924 -18.278  0.00  0.00    +0.120 C 
BRANCH  10  13
ATOM     13  C10 UNL     1       2.735   5.626 -16.385  0.00  0.00    +0.119 C 
BRANCH  13  14
ATOM     14  C11 UNL     1       2.890   4.756 -15.154  0.00  0.00    -0.033 A 
ATOM     15  C12 UNL     1       1.960   4.831 -14.106  0.00  0.00    +0.005 A 
ATOM     16  C13 UNL     1       2.096   4.021 -12.977  0.00  0.00    +0.000 A 
ATOM     17  C14 UNL     1       3.159   3.126 -12.885  0.00  0.00    +0.000 A 
ATOM     18  C15 UNL     1       4.088   3.039 -13.921  0.00  0.00    +0.000 A 
ATOM     19  C16 UNL     1       3.955   3.849 -15.050  0.00  0.00    +0.005 A 
ENDBRANCH  13  14
ENDBRANCH  10  13
ENDBRANCH   4   7
BRANCH   1  22
ATOM     20  O1  UNL     1       5.542   8.546 -24.787  0.00  0.00    -0.269 OA
ATOM     21  C1  UNL     1       4.657   9.342 -25.085  0.00  0.00    +0.255 C 
ATOM     22  N1  UNL     1       3.744   9.864 -24.177  0.00  0.00    -0.281 N 
ATOM     23  H1  UNL     1       3.125  10.582 -24.522  0.00  0.00    +0.155 HD
BRANCH  21  24
ATOM     24  C19 UNL     1       4.480   9.845 -26.450  0.00  0.00    +0.074 A 
ATOM     25  C20 UNL     1       3.332   9.998 -27.213  0.00  0.00    +0.021 A 
ATOM     26  C21 UNL     1       3.598  10.533 -28.508  0.00  0.00    +0.008 A 
ATOM     27  C22 UNL     1       4.939  10.765 -28.704  0.00  0.00    +0.046 A 
ATOM     28  S1  UNL     1       5.869  10.333 -27.340  0.00  0.00    -0.092 S 
ENDBRANCH  21  24
ENDBRANCH   1  22
TORSDOF 5
ENDMDL
MODEL 8
REMARK VINA RESULT:    -4.204      8.818     11.771
REMARK INTER + INTRA:          -6.222
REMARK INTER:                  -5.382
REMARK INTRA:                  -0.841
REMARK UNBOUND:                -0.789
REMARK  Name = /home/vital/Documents/PhD_2021/Malaria_codes/data/pdb_ligands_mmv/ligand_165.pdb
REMARK  5 active torsions:
REMARK  status: ('A' for Active; 'I' for Inactive)
REMARK    1  A    between atoms: C1_2  and  C19_23
REMARK    2  A    between atoms: N1_3  and  C2_4
REMARK    3  A    between atoms: C5_7  and  N2_10
REMARK    4  A    between atoms: N3_13  and  C10_14
REMARK    5  A    between atoms: C10_14  and  C11_15
REMARK                            x       y       z     vdW  Elec       q    Type
REMARK                         _______ _______ _______ _____ _____    ______ ____
ROOT
ATOM      1  C2  UNL     1       3.560  -4.318 -32.459  0.00  0.00    +0.034 A 
ATOM      2  C3  UNL     1       4.910  -4.275 -32.130  0.00  0.00    +0.025 A 
ATOM      3  C4  UNL     1       5.552  -3.045 -31.924  0.00  0.00    +0.025 A 
ATOM      4  C5  UNL     1       4.877  -1.818 -32.025  0.00  0.00    +0.030 A 
ATOM      5  C6  UNL     1       3.522  -1.882 -32.376  0.00  0.00    +0.025 A 
ATOM      6  C7  UNL     1       2.871  -3.109 -32.583  0.00  0.00    +0.025 A 
ENDROOT
BRANCH   4   7
ATOM      7  N2  UNL     1       5.566  -0.614 -31.819  0.00  0.00    -0.327 N 
ATOM      8  C8  UNL     1       4.738   0.608 -31.960  0.00  0.00    +0.120 C 
ATOM      9  C9  UNL     1       5.505   1.863 -31.478  0.00  0.00    +0.103 C 
ATOM     10  N3  UNL     1       6.850   2.060 -32.070  0.00  0.00    -0.295 NA
ATOM     11  C17 UNL     1       7.616   0.809 -31.874  0.00  0.00    +0.103 C 
ATOM     12  C18 UNL     1       6.924  -0.479 -32.383  0.00  0.00    +0.120 C 
BRANCH  10  13
ATOM     13  C10 UNL     1       6.794   2.433 -33.493  0.00  0.00    +0.119 C 
BRANCH  13  14
ATOM     14  C11 UNL     1       6.827   3.930 -33.725  0.00  0.00    -0.033 A 
ATOM     15  C12 UNL     1       7.918   4.695 -33.287  0.00  0.00    +0.005 A 
ATOM     16  C13 UNL     1       7.954   6.073 -33.511  0.00  0.00    +0.000 A 
ATOM     17  C14 UNL     1       6.903   6.698 -34.179  0.00  0.00    +0.000 A 
ATOM     18  C15 UNL     1       5.816   5.948 -34.623  0.00  0.00    +0.000 A 
ATOM     19  C16 UNL     1       5.777   4.570 -34.399  0.00  0.00    +0.005 A 
ENDBRANCH  13  14
ENDBRANCH  10  13
ENDBRANCH   4   7
BRANCH   1  22
ATOM     20  O1  UNL     1       2.227  -6.097 -30.526  0.00  0.00    -0.269 OA
ATOM     21  C1  UNL     1       2.192  -6.303 -31.736  0.00  0.00    +0.255 C 
ATOM     22  N1  UNL     1       2.826  -5.503 -32.679  0.00  0.00    -0.281 N 
ATOM     23  H1  UNL     1       2.805  -5.827 -33.633  0.00  0.00    +0.155 HD
BRANCH  21  24
ATOM     24  C19 UNL     1       1.480  -7.443 -32.317  0.00  0.00    +0.074 A 
ATOM     25  C20 UNL     1       1.601  -8.042 -33.563  0.00  0.00    +0.021 A 
ATOM     26  C21 UNL     1       0.713  -9.145 -33.734  0.00  0.00    +0.008 A 
ATOM     27  C22 UNL     1      -0.069  -9.354 -32.622  0.00  0.00    +0.046 A 
ATOM     28  S1  UNL     1       0.261  -8.223 -31.386  0.00  0.00    -0.092 S 
ENDBRANCH  21  24
ENDBRANCH   1  22
TORSDOF 5
ENDMDL
MODEL 9
REMARK VINA RESULT:    -4.108      8.540     11.634
REMARK INTER + INTRA:          -6.097
REMARK INTER:                  -5.296
REMARK INTRA:                  -0.801
REMARK UNBOUND:                -0.789
REMARK  Name = /home/vital/Documents/PhD_2021/Malaria_codes/data/pdb_ligands_mmv/ligand_165.pdb
REMARK  5 active torsions:
REMARK  status: ('A' for Active; 'I' for Inactive)
REMARK    1  A    between atoms: C1_2  and  C19_23
REMARK    2  A    between atoms: N1_3  and  C2_4
REMARK    3  A    between atoms: C5_7  and  N2_10
REMARK    4  A    between atoms: N3_13  and  C10_14
REMARK    5  A    between atoms: C10_14  and  C11_15
REMARK                            x       y       z     vdW  Elec       q    Type
REMARK                         _______ _______ _______ _____ _____    ______ ____
ROOT
ATOM      1  C2  UNL     1       0.685  -0.423 -19.842  0.00  0.00    +0.034 A 
ATOM      2  C3  UNL     1       1.375  -0.428 -18.635  0.00  0.00    +0.025 A 
ATOM      3  C4  UNL     1       1.779   0.779 -18.044  0.00  0.00    +0.025 A 
ATOM      4  C5  UNL     1       1.503   2.029 -18.620  0.00  0.00    +0.030 A 
ATOM      5  C6  UNL     1       0.824   2.011 -19.845  0.00  0.00    +0.025 A 
ATOM      6  C7  UNL     1       0.414   0.808 -20.444  0.00  0.00    +0.025 A 
ENDROOT
BRANCH   4   7
ATOM      7  N2  UNL     1       1.936   3.206 -17.994  0.00  0.00    -0.327 N 
ATOM      8  C8  UNL     1       0.858   4.010 -17.367  0.00  0.00    +0.120 C 
ATOM      9  C9  UNL     1       1.442   5.146 -16.495  0.00  0.00    +0.103 C 
ATOM     10  N3  UNL     1       2.438   6.020 -17.160  0.00  0.00    -0.295 NA
ATOM     11  C17 UNL     1       3.484   5.148 -17.741  0.00  0.00    +0.103 C 
ATOM     12  C18 UNL     1       2.967   4.021 -18.667  0.00  0.00    +0.120 C 
BRANCH  10  13
ATOM     13  C10 UNL     1       1.836   6.887 -18.186  0.00  0.00    +0.119 C 
BRANCH  13  14
ATOM     14  C11 UNL     1       2.523   8.231 -18.317  0.00  0.00    -0.033 A 
ATOM     15  C12 UNL     1       3.059   8.641 -19.546  0.00  0.00    +0.005 A 
ATOM     16  C13 UNL     1       3.681   9.885 -19.670  0.00  0.00    +0.000 A 
ATOM     17  C14 UNL     1       3.770  10.732 -18.569  0.00  0.00    +0.000 A 
ATOM     18  C15 UNL     1       3.238  10.339 -17.343  0.00  0.00    +0.000 A 
ATOM     19  C16 UNL     1       2.616   9.095 -17.216  0.00  0.00    +0.005 A 
ENDBRANCH  13  14
ENDBRANCH  10  13
ENDBRANCH   4   7
BRANCH   1  22
ATOM     20  O1  UNL     1      -2.039  -1.515 -20.089  0.00  0.00    -0.269 OA
ATOM     21  C1  UNL     1      -1.070  -2.049 -20.621  0.00  0.00    +0.255 C 
ATOM     22  N1  UNL     1       0.233  -1.581 -20.510  0.00  0.00    -0.281 N 
ATOM     23  H1  UNL     1       0.956  -2.158 -20.912  0.00  0.00    +0.155 HD
BRANCH  21  24
ATOM     24  C19 UNL     1      -1.190  -3.266 -21.428  0.00  0.00    +0.074 A 
ATOM     25  C20 UNL     1      -2.098  -4.311 -21.353  0.00  0.00    +0.021 A 
ATOM     26  C21 UNL     1      -1.867  -5.316 -22.339  0.00  0.00    +0.008 A 
ATOM     27  C22 UNL     1      -0.785  -5.017 -23.133  0.00  0.00    +0.046 A 
ATOM     28  S1  UNL     1      -0.050  -3.542 -22.687  0.00  0.00    -0.092 S 
ENDBRANCH  21  24
ENDBRANCH   1  22
TORSDOF 5
ENDMDL
