MODEL 1
REMARK VINA RESULT:    -4.985      0.000      0.000
REMARK INTER + INTRA:          -8.125
REMARK INTER:                  -7.025
REMARK INTRA:                  -1.100
REMARK UNBOUND:                -1.100
REMARK  Name = /home/vital/Documents/PhD_2021/Malaria_codes/data/pdb_ligands_mmv/ligand_80.pdb
REMARK  10 active torsions:
REMARK  status: ('A' for Active; 'I' for Inactive)
REMARK    1  A    between atoms: C1_1  and  C2_2
REMARK    2  A    between atoms: C2_2  and  O1_3
REMARK    3  A    between atoms: O1_3  and  C3_4
REMARK    4  A    between atoms: C6_8  and  C11_14
REMARK    5  A    between atoms: C8_10  and  O2_11
REMARK    6  A    between atoms: O2_11  and  C9_12
REMARK    7  A    between atoms: C9_12  and  C10_13
REMARK    8  A    between atoms: C11_14  and  C12_15
REMARK    9  A    between atoms: C11_14  and  N1_16
REMARK   10  A    between atoms: C13_17  and  C14_19
REMARK                            x       y       z     vdW  Elec       q    Type
REMARK                         _______ _______ _______ _____ _____    ______ ____
ROOT
ATOM      1  C3  UNL     1       2.033   7.364 -17.990  0.00  0.00    +0.163 A 
ATOM      2  C4  UNL     1       1.767   7.336 -19.360  0.00  0.00    +0.069 A 
ATOM      3  C5  UNL     1       0.571   6.787 -19.845  0.00  0.00    +0.050 A 
ATOM      4 CL1  UNL     1       0.378   6.762 -21.572  0.00  0.00    -0.083 Cl
ATOM      5  C6  UNL     1      -0.398   6.275 -18.965  0.00  0.00    -0.006 A 
ATOM      6  C7  UNL     1      -0.119   6.334 -17.584  0.00  0.00    +0.056 A 
ATOM      7  C8  UNL     1       1.070   6.891 -17.103  0.00  0.00    +0.162 A 
ENDROOT
BRANCH   5   8
ATOM      8  C11 UNL     1      -1.747   5.713 -19.388  0.00  0.00    +0.102 C 
ATOM      9  C12 UNL     1      -2.672   5.515 -18.175  0.00  0.00    +0.033 C 
BRANCH   8  10
ATOM     10  N1  UNL     1      -2.380   6.517 -20.424  0.00  0.00    -0.305 N 
ATOM     11  C13 UNL     1      -3.245   5.953 -21.339  0.00  0.00    +0.245 C 
ATOM     12  O3  UNL     1      -3.425   4.739 -21.423  0.00  0.00    -0.270 OA
ATOM     13  H17 UNL     1      -2.253   7.518 -20.385  0.00  0.00    +0.150 HD
BRANCH  11  14
ATOM     14  C14 UNL     1      -3.975   6.882 -22.249  0.00  0.00    +0.037 A 
ATOM     15  C15 UNL     1      -4.958   6.442 -23.147  0.00  0.00    +0.013 A 
ATOM     16  C16 UNL     1      -5.588   7.357 -24.003  0.00  0.00    +0.001 A 
ATOM     17  C17 UNL     1      -5.234   8.710 -23.970  0.00  0.00    +0.000 A 
ATOM     18  C18 UNL     1      -4.249   9.154 -23.085  0.00  0.00    +0.001 A 
ATOM     19  C19 UNL     1      -3.618   8.243 -22.230  0.00  0.00    +0.013 A 
ENDBRANCH  11  14
ENDBRANCH   8  10
ENDBRANCH   5   8
BRANCH   1  20
ATOM     20  O1  UNL     1       3.233   7.929 -17.642  0.00  0.00    -0.489 OA
BRANCH  20  22
ATOM     21  C1  UNL     1       3.942  10.112 -18.315  0.00  0.00    +0.048 C 
ATOM     22  C2  UNL     1       3.136   9.319 -17.294  0.00  0.00    +0.226 C 
ENDBRANCH  20  22
ENDBRANCH   1  20
BRANCH   7  23
ATOM     23  O2  UNL     1       1.253   6.919 -15.748  0.00  0.00    -0.489 OA
BRANCH  23  24
ATOM     24  C9  UNL     1       0.623   5.783 -15.132  0.00  0.00    +0.226 C 
ATOM     25  C10 UNL     1       1.673   5.065 -14.281  0.00  0.00    +0.048 C 
ENDBRANCH  23  24
ENDBRANCH   7  23
TORSDOF 7
ENDMDL
MODEL 2
REMARK VINA RESULT:    -4.950     13.487     15.386
REMARK INTER + INTRA:          -8.076
REMARK INTER:                  -6.766
REMARK INTRA:                  -1.310
REMARK UNBOUND:                -1.100
REMARK  Name = /home/vital/Documents/PhD_2021/Malaria_codes/data/pdb_ligands_mmv/ligand_80.pdb
REMARK  10 active torsions:
REMARK  status: ('A' for Active; 'I' for Inactive)
REMARK    1  A    between atoms: C1_1  and  C2_2
REMARK    2  A    between atoms: C2_2  and  O1_3
REMARK    3  A    between atoms: O1_3  and  C3_4
REMARK    4  A    between atoms: C6_8  and  C11_14
REMARK    5  A    between atoms: C8_10  and  O2_11
REMARK    6  A    between atoms: O2_11  and  C9_12
REMARK    7  A    between atoms: C9_12  and  C10_13
REMARK    8  A    between atoms: C11_14  and  C12_15
REMARK    9  A    between atoms: C11_14  and  N1_16
REMARK   10  A    between atoms: C13_17  and  C14_19
REMARK                            x       y       z     vdW  Elec       q    Type
REMARK                         _______ _______ _______ _____ _____    ______ ____
ROOT
ATOM      1  C3  UNL     1       6.004  -3.131 -28.763  0.00  0.00    +0.163 A 
ATOM      2  C4  UNL     1       5.809  -4.417 -28.255  0.00  0.00    +0.069 A 
ATOM      3  C5  UNL     1       6.216  -4.741 -26.953  0.00  0.00    +0.050 A 
ATOM      4 CL1  UNL     1       5.967  -6.386 -26.454  0.00  0.00    -0.083 Cl
ATOM      5  C6  UNL     1       6.805  -3.776 -26.119  0.00  0.00    -0.006 A 
ATOM      6  C7  UNL     1       6.972  -2.477 -26.643  0.00  0.00    +0.056 A 
ATOM      7  C8  UNL     1       6.557  -2.154 -27.939  0.00  0.00    +0.162 A 
ENDROOT
BRANCH   5   8
ATOM      8  C11 UNL     1       7.226  -4.012 -24.676  0.00  0.00    +0.102 C 
ATOM      9  C12 UNL     1       8.466  -3.178 -24.314  0.00  0.00    +0.033 C 
BRANCH   8  10
ATOM     10  N1  UNL     1       6.134  -3.790 -23.739  0.00  0.00    -0.305 N 
ATOM     11  C13 UNL     1       5.627  -4.821 -22.973  0.00  0.00    +0.245 C 
ATOM     12  O3  UNL     1       5.963  -5.994 -23.131  0.00  0.00    -0.270 OA
ATOM     13  H17 UNL     1       5.833  -2.839 -23.586  0.00  0.00    +0.150 HD
BRANCH  11  14
ATOM     14  C14 UNL     1       4.631  -4.462 -21.923  0.00  0.00    +0.037 A 
ATOM     15  C15 UNL     1       3.436  -3.789 -22.214  0.00  0.00    +0.013 A 
ATOM     16  C16 UNL     1       2.552  -3.447 -21.180  0.00  0.00    +0.001 A 
ATOM     17  C17 UNL     1       2.861  -3.771 -19.854  0.00  0.00    +0.000 A 
ATOM     18  C18 UNL     1       4.053  -4.433 -19.556  0.00  0.00    +0.001 A 
ATOM     19  C19 UNL     1       4.938  -4.775 -20.586  0.00  0.00    +0.013 A 
ENDBRANCH  11  14
ENDBRANCH   8  10
ENDBRANCH   5   8
BRANCH   1  20
ATOM     20  O1  UNL     1       5.562  -2.938 -30.046  0.00  0.00    -0.489 OA
BRANCH  20  22
ATOM     21  C1  UNL     1       5.210  -3.830 -32.238  0.00  0.00    +0.048 C 
ATOM     22  C2  UNL     1       6.066  -3.906 -30.980  0.00  0.00    +0.226 C 
ENDBRANCH  20  22
ENDBRANCH   1  20
BRANCH   7  23
ATOM     23  O2  UNL     1       6.745  -0.868 -28.361  0.00  0.00    -0.489 OA
BRANCH  23  24
ATOM     24  C9  UNL     1       7.832  -0.258 -27.645  0.00  0.00    +0.226 C 
ATOM     25  C10 UNL     1       7.702   1.261 -27.794  0.00  0.00    +0.048 C 
ENDBRANCH  23  24
ENDBRANCH   7  23
TORSDOF 7
ENDMDL
MODEL 3
REMARK VINA RESULT:    -4.772     14.960     17.617
REMARK INTER + INTRA:          -7.825
REMARK INTER:                  -6.235
REMARK INTRA:                  -1.590
REMARK UNBOUND:                -1.100
REMARK  Name = /home/vital/Documents/PhD_2021/Malaria_codes/data/pdb_ligands_mmv/ligand_80.pdb
REMARK  10 active torsions:
REMARK  status: ('A' for Active; 'I' for Inactive)
REMARK    1  A    between atoms: C1_1  and  C2_2
REMARK    2  A    between atoms: C2_2  and  O1_3
REMARK    3  A    between atoms: O1_3  and  C3_4
REMARK    4  A    between atoms: C6_8  and  C11_14
REMARK    5  A    between atoms: C8_10  and  O2_11
REMARK    6  A    between atoms: O2_11  and  C9_12
REMARK    7  A    between atoms: C9_12  and  C10_13
REMARK    8  A    between atoms: C11_14  and  C12_15
REMARK    9  A    between atoms: C11_14  and  N1_16
REMARK   10  A    between atoms: C13_17  and  C14_19
REMARK                            x       y       z     vdW  Elec       q    Type
REMARK                         _______ _______ _______ _____ _____    ______ ____
ROOT
ATOM      1  C3  UNL     1       1.175  -2.402 -33.596  0.00  0.00    +0.163 A 
ATOM      2  C4  UNL     1       2.204  -3.339 -33.709  0.00  0.00    +0.069 A 
ATOM      3  C5  UNL     1       3.416  -3.157 -33.026  0.00  0.00    +0.050 A 
ATOM      4 CL1  UNL     1       4.638  -4.363 -33.288  0.00  0.00    -0.083 Cl
ATOM      5  C6  UNL     1       3.614  -2.043 -32.192  0.00  0.00    -0.006 A 
ATOM      6  C7  UNL     1       2.554  -1.121 -32.074  0.00  0.00    +0.056 A 
ATOM      7  C8  UNL     1       1.343  -1.310 -32.749  0.00  0.00    +0.162 A 
ENDROOT
BRANCH   5   8
ATOM      8  C11 UNL     1       4.866  -1.786 -31.366  0.00  0.00    +0.102 C 
ATOM      9  C12 UNL     1       5.058  -0.284 -31.099  0.00  0.00    +0.033 C 
BRANCH   8  10
ATOM     10  N1  UNL     1       4.883  -2.560 -30.133  0.00  0.00    -0.305 N 
ATOM     11  C13 UNL     1       5.890  -3.466 -29.870  0.00  0.00    +0.245 C 
ATOM     12  O3  UNL     1       6.743  -3.772 -30.702  0.00  0.00    -0.270 OA
ATOM     13  H17 UNL     1       4.195  -2.335 -29.429  0.00  0.00    +0.150 HD
BRANCH  11  14
ATOM     14  C14 UNL     1       5.915  -4.082 -28.512  0.00  0.00    +0.037 A 
ATOM     15  C15 UNL     1       7.082  -4.157 -27.739  0.00  0.00    +0.013 A 
ATOM     16  C16 UNL     1       7.053  -4.777 -26.481  0.00  0.00    +0.001 A 
ATOM     17  C17 UNL     1       5.862  -5.329 -25.996  0.00  0.00    +0.000 A 
ATOM     18  C18 UNL     1       4.698  -5.266 -26.765  0.00  0.00    +0.001 A 
ATOM     19  C19 UNL     1       4.724  -4.648 -28.021  0.00  0.00    +0.013 A 
ENDBRANCH  11  14
ENDBRANCH   8  10
ENDBRANCH   5   8
BRANCH   1  20
ATOM     20  O1  UNL     1       0.042  -2.695 -34.309  0.00  0.00    -0.489 OA
BRANCH  20  22
ATOM     21  C1  UNL     1      -0.738  -1.223 -36.026  0.00  0.00    +0.048 C 
ATOM     22  C2  UNL     1       0.157  -2.415 -35.713  0.00  0.00    +0.226 C 
ENDBRANCH  20  22
ENDBRANCH   1  20
BRANCH   7  23
ATOM     23  O2  UNL     1       0.364  -0.374 -32.567  0.00  0.00    -0.489 OA
BRANCH  23  24
ATOM     24  C9  UNL     1       0.919   0.951 -32.625  0.00  0.00    +0.226 C 
ATOM     25  C10 UNL     1       0.002   1.809 -33.500  0.00  0.00    +0.048 C 
ENDBRANCH  23  24
ENDBRANCH   7  23
TORSDOF 7
ENDMDL
MODEL 4
REMARK VINA RESULT:    -4.708      4.598      6.940
REMARK INTER + INTRA:          -7.734
REMARK INTER:                  -6.474
REMARK INTRA:                  -1.260
REMARK UNBOUND:                -1.100
REMARK  Name = /home/vital/Documents/PhD_2021/Malaria_codes/data/pdb_ligands_mmv/ligand_80.pdb
REMARK  10 active torsions:
REMARK  status: ('A' for Active; 'I' for Inactive)
REMARK    1  A    between atoms: C1_1  and  C2_2
REMARK    2  A    between atoms: C2_2  and  O1_3
REMARK    3  A    between atoms: O1_3  and  C3_4
REMARK    4  A    between atoms: C6_8  and  C11_14
REMARK    5  A    between atoms: C8_10  and  O2_11
REMARK    6  A    between atoms: O2_11  and  C9_12
REMARK    7  A    between atoms: C9_12  and  C10_13
REMARK    8  A    between atoms: C11_14  and  C12_15
REMARK    9  A    between atoms: C11_14  and  N1_16
REMARK   10  A    between atoms: C13_17  and  C14_19
REMARK                            x       y       z     vdW  Elec       q    Type
REMARK                         _______ _______ _______ _____ _____    ______ ____
ROOT
ATOM      1  C3  UNL     1       2.175   1.200 -17.233  0.00  0.00    +0.163 A 
ATOM      2  C4  UNL     1       1.407   1.638 -18.314  0.00  0.00    +0.069 A 
ATOM      3  C5  UNL     1       0.756   2.879 -18.272  0.00  0.00    +0.050 A 
ATOM      4 CL1  UNL     1      -0.212   3.290 -19.655  0.00  0.00    -0.083 Cl
ATOM      5  C6  UNL     1       0.880   3.722 -17.154  0.00  0.00    -0.006 A 
ATOM      6  C7  UNL     1       1.678   3.270 -16.083  0.00  0.00    +0.056 A 
ATOM      7  C8  UNL     1       2.335   2.036 -16.132  0.00  0.00    +0.162 A 
ENDROOT
BRANCH   5   8
ATOM      8  C11 UNL     1       0.262   5.107 -17.036  0.00  0.00    +0.102 C 
ATOM      9  C12 UNL     1      -0.474   5.277 -15.695  0.00  0.00    +0.033 C 
BRANCH   8  10
ATOM     10  N1  UNL     1       1.236   6.167 -17.255  0.00  0.00    -0.305 N 
ATOM     11  C13 UNL     1       1.119   7.039 -18.318  0.00  0.00    +0.245 C 
ATOM     12  O3  UNL     1       0.281   6.894 -19.208  0.00  0.00    -0.270 OA
ATOM     13  H17 UNL     1       1.937   6.313 -16.544  0.00  0.00    +0.150 HD
BRANCH  11  14
ATOM     14  C14 UNL     1       2.063   8.192 -18.360  0.00  0.00    +0.037 A 
ATOM     15  C15 UNL     1       2.685   8.616 -19.544  0.00  0.00    +0.013 A 
ATOM     16  C16 UNL     1       3.591   9.686 -19.517  0.00  0.00    +0.001 A 
ATOM     17  C17 UNL     1       3.882  10.332 -18.311  0.00  0.00    +0.000 A 
ATOM     18  C18 UNL     1       3.273   9.910 -17.127  0.00  0.00    +0.001 A 
ATOM     19  C19 UNL     1       2.369   8.841 -17.150  0.00  0.00    +0.013 A 
ENDBRANCH  11  14
ENDBRANCH   8  10
ENDBRANCH   5   8
BRANCH   1  20
ATOM     20  O1  UNL     1       2.763  -0.028 -17.398  0.00  0.00    -0.489 OA
BRANCH  20  22
ATOM     21  C1  UNL     1       2.158  -2.084 -18.461  0.00  0.00    +0.048 C 
ATOM     22  C2  UNL     1       2.512  -0.618 -18.683  0.00  0.00    +0.226 C 
ENDBRANCH  20  22
ENDBRANCH   1  20
BRANCH   7  23
ATOM     23  O2  UNL     1       3.099   1.683 -15.056  0.00  0.00    -0.489 OA
BRANCH  23  24
ATOM     24  C9  UNL     1       4.397   2.295 -15.138  0.00  0.00    +0.226 C 
ATOM     25  C10 UNL     1       4.738   2.865 -13.758  0.00  0.00    +0.048 C 
ENDBRANCH  23  24
ENDBRANCH   7  23
TORSDOF 7
ENDMDL
MODEL 5
REMARK VINA RESULT:    -4.583      7.087     10.658
REMARK INTER + INTRA:          -7.559
REMARK INTER:                  -6.204
REMARK INTRA:                  -1.354
REMARK UNBOUND:                -1.100
REMARK  Name = /home/vital/Documents/PhD_2021/Malaria_codes/data/pdb_ligands_mmv/ligand_80.pdb
REMARK  10 active torsions:
REMARK  status: ('A' for Active; 'I' for Inactive)
REMARK    1  A    between atoms: C1_1  and  C2_2
REMARK    2  A    between atoms: C2_2  and  O1_3
REMARK    3  A    between atoms: O1_3  and  C3_4
REMARK    4  A    between atoms: C6_8  and  C11_14
REMARK    5  A    between atoms: C8_10  and  O2_11
REMARK    6  A    between atoms: O2_11  and  C9_12
REMARK    7  A    between atoms: C9_12  and  C10_13
REMARK    8  A    between atoms: C11_14  and  C12_15
REMARK    9  A    between atoms: C11_14  and  N1_16
REMARK   10  A    between atoms: C13_17  and  C14_19
REMARK                            x       y       z     vdW  Elec       q    Type
REMARK                         _______ _______ _______ _____ _____    ______ ____
ROOT
ATOM      1  C3  UNL     1      -7.978   4.615 -24.287  0.00  0.00    +0.163 A 
ATOM      2  C4  UNL     1      -8.649   3.392 -24.327  0.00  0.00    +0.069 A 
ATOM      3  C5  UNL     1      -7.938   2.189 -24.454  0.00  0.00    +0.050 A 
ATOM      4 CL1  UNL     1      -8.887   0.737 -24.544  0.00  0.00    -0.083 Cl
ATOM      5  C6  UNL     1      -6.535   2.185 -24.519  0.00  0.00    -0.006 A 
ATOM      6  C7  UNL     1      -5.875   3.430 -24.455  0.00  0.00    +0.056 A 
ATOM      7  C8  UNL     1      -6.586   4.626 -24.318  0.00  0.00    +0.162 A 
ENDROOT
BRANCH   5   8
ATOM      8  C11 UNL     1      -5.672   0.934 -24.599  0.00  0.00    +0.102 C 
ATOM      9  C12 UNL     1      -4.546   1.099 -25.635  0.00  0.00    +0.033 C 
BRANCH   8  10
ATOM     10  N1  UNL     1      -5.153   0.536 -23.298  0.00  0.00    -0.305 N 
ATOM     11  C13 UNL     1      -5.225  -0.773 -22.868  0.00  0.00    +0.245 C 
ATOM     12  O3  UNL     1      -5.843  -1.641 -23.483  0.00  0.00    -0.270 OA
ATOM     13  H17 UNL     1      -4.641   1.225 -22.767  0.00  0.00    +0.150 HD
BRANCH  11  14
ATOM     14  C14 UNL     1      -4.516  -1.114 -21.602  0.00  0.00    +0.037 A 
ATOM     15  C15 UNL     1      -4.031  -2.402 -21.332  0.00  0.00    +0.013 A 
ATOM     16  C16 UNL     1      -3.400  -2.673 -20.109  0.00  0.00    +0.001 A 
ATOM     17  C17 UNL     1      -3.258  -1.663 -19.151  0.00  0.00    +0.000 A 
ATOM     18  C18 UNL     1      -3.747  -0.381 -19.410  0.00  0.00    +0.001 A 
ATOM     19  C19 UNL     1      -4.377  -0.107 -20.629  0.00  0.00    +0.013 A 
ENDBRANCH  11  14
ENDBRANCH   8  10
ENDBRANCH   5   8
BRANCH   1  20
ATOM     20  O1  UNL     1      -8.784   5.717 -24.157  0.00  0.00    -0.489 OA
BRANCH  20  22
ATOM     21  C1  UNL     1      -9.050   6.834 -26.256  0.00  0.00    +0.048 C 
ATOM     22  C2  UNL     1      -9.700   5.892 -25.250  0.00  0.00    +0.226 C 
ENDBRANCH  20  22
ENDBRANCH   1  20
BRANCH   7  23
ATOM     23  O2  UNL     1      -5.867   5.786 -24.250  0.00  0.00    -0.489 OA
BRANCH  23  24
ATOM     24  C9  UNL     1      -5.446   6.038 -22.899  0.00  0.00    +0.226 C 
ATOM     25  C10 UNL     1      -4.773   7.413 -22.863  0.00  0.00    +0.048 C 
ENDBRANCH  23  24
ENDBRANCH   7  23
TORSDOF 7
ENDMDL
MODEL 6
REMARK VINA RESULT:    -4.551     15.153     16.278
REMARK INTER + INTRA:          -7.513
REMARK INTER:                  -5.921
REMARK INTRA:                  -1.592
REMARK UNBOUND:                -1.100
REMARK  Name = /home/vital/Documents/PhD_2021/Malaria_codes/data/pdb_ligands_mmv/ligand_80.pdb
REMARK  10 active torsions:
REMARK  status: ('A' for Active; 'I' for Inactive)
REMARK    1  A    between atoms: C1_1  and  C2_2
REMARK    2  A    between atoms: C2_2  and  O1_3
REMARK    3  A    between atoms: O1_3  and  C3_4
REMARK    4  A    between atoms: C6_8  and  C11_14
REMARK    5  A    between atoms: C8_10  and  O2_11
REMARK    6  A    between atoms: O2_11  and  C9_12
REMARK    7  A    between atoms: C9_12  and  C10_13
REMARK    8  A    between atoms: C11_14  and  C12_15
REMARK    9  A    between atoms: C11_14  and  N1_16
REMARK   10  A    between atoms: C13_17  and  C14_19
REMARK                            x       y       z     vdW  Elec       q    Type
REMARK                         _______ _______ _______ _____ _____    ______ ____
ROOT
ATOM      1  C3  UNL     1       8.709   1.133 -28.753  0.00  0.00    +0.163 A 
ATOM      2  C4  UNL     1       7.316   1.152 -28.655  0.00  0.00    +0.069 A 
ATOM      3  C5  UNL     1       6.516   0.957 -29.791  0.00  0.00    +0.050 A 
ATOM      4 CL1  UNL     1       4.798   1.054 -29.551  0.00  0.00    -0.083 Cl
ATOM      5  C6  UNL     1       7.095   0.714 -31.048  0.00  0.00    -0.006 A 
ATOM      6  C7  UNL     1       8.503   0.677 -31.121  0.00  0.00    +0.056 A 
ATOM      7  C8  UNL     1       9.298   0.862 -29.985  0.00  0.00    +0.162 A 
ENDROOT
BRANCH   5   8
ATOM      8  C11 UNL     1       6.316   0.434 -32.325  0.00  0.00    +0.102 C 
ATOM      9  C12 UNL     1       7.078   0.938 -33.563  0.00  0.00    +0.033 C 
BRANCH   8  10
ATOM     10  N1  UNL     1       5.948  -0.968 -32.451  0.00  0.00    -0.305 N 
ATOM     11  C13 UNL     1       4.626  -1.364 -32.463  0.00  0.00    +0.245 C 
ATOM     12  O3  UNL     1       3.699  -0.589 -32.233  0.00  0.00    -0.270 OA
ATOM     13  H17 UNL     1       6.686  -1.632 -32.640  0.00  0.00    +0.150 HD
BRANCH  11  14
ATOM     14  C14 UNL     1       4.346  -2.796 -32.769  0.00  0.00    +0.037 A 
ATOM     15  C15 UNL     1       3.075  -3.253 -33.146  0.00  0.00    +0.013 A 
ATOM     16  C16 UNL     1       2.862  -4.618 -33.390  0.00  0.00    +0.001 A 
ATOM     17  C17 UNL     1       3.915  -5.530 -33.252  0.00  0.00    +0.000 A 
ATOM     18  C18 UNL     1       5.181  -5.083 -32.868  0.00  0.00    +0.001 A 
ATOM     19  C19 UNL     1       5.396  -3.721 -32.623  0.00  0.00    +0.013 A 
ENDBRANCH  11  14
ENDBRANCH   8  10
ENDBRANCH   5   8
BRANCH   1  20
ATOM     20  O1  UNL     1       9.377   1.333 -27.573  0.00  0.00    -0.489 OA
BRANCH  20  22
ATOM     21  C1  UNL     1      11.231   0.083 -26.722  0.00  0.00    +0.048 C 
ATOM     22  C2  UNL     1       9.717   0.115 -26.891  0.00  0.00    +0.226 C 
ENDBRANCH  20  22
ENDBRANCH   1  20
BRANCH   7  23
ATOM     23  O2  UNL     1      10.653   0.797 -30.144  0.00  0.00    -0.489 OA
BRANCH  23  24
ATOM     24  C9  UNL     1      11.161   2.047 -30.641  0.00  0.00    +0.226 C 
ATOM     25  C10 UNL     1      12.333   2.468 -29.751  0.00  0.00    +0.048 C 
ENDBRANCH  23  24
ENDBRANCH   7  23
TORSDOF 7
ENDMDL
MODEL 7
REMARK VINA RESULT:    -4.439      9.837     12.440
REMARK INTER + INTRA:          -7.355
REMARK INTER:                  -5.986
REMARK INTRA:                  -1.369
REMARK UNBOUND:                -1.100
REMARK  Name = /home/vital/Documents/PhD_2021/Malaria_codes/data/pdb_ligands_mmv/ligand_80.pdb
REMARK  10 active torsions:
REMARK  status: ('A' for Active; 'I' for Inactive)
REMARK    1  A    between atoms: C1_1  and  C2_2
REMARK    2  A    between atoms: C2_2  and  O1_3
REMARK    3  A    between atoms: O1_3  and  C3_4
REMARK    4  A    between atoms: C6_8  and  C11_14
REMARK    5  A    between atoms: C8_10  and  O2_11
REMARK    6  A    between atoms: O2_11  and  C9_12
REMARK    7  A    between atoms: C9_12  and  C10_13
REMARK    8  A    between atoms: C11_14  and  C12_15
REMARK    9  A    between atoms: C11_14  and  N1_16
REMARK   10  A    between atoms: C13_17  and  C14_19
REMARK                            x       y       z     vdW  Elec       q    Type
REMARK                         _______ _______ _______ _____ _____    ______ ____
ROOT
ATOM      1  C3  UNL     1      -0.265  -1.575 -20.317  0.00  0.00    +0.163 A 
ATOM      2  C4  UNL     1       0.623  -0.955 -19.436  0.00  0.00    +0.069 A 
ATOM      3  C5  UNL     1       1.902  -1.489 -19.216  0.00  0.00    +0.050 A 
ATOM      4 CL1  UNL     1       2.896  -0.658 -18.059  0.00  0.00    -0.083 Cl
ATOM      5  C6  UNL     1       2.329  -2.643 -19.895  0.00  0.00    -0.006 A 
ATOM      6  C7  UNL     1       1.424  -3.240 -20.797  0.00  0.00    +0.056 A 
ATOM      7  C8  UNL     1       0.153  -2.700 -21.021  0.00  0.00    +0.162 A 
ENDROOT
BRANCH   5   8
ATOM      8  C11 UNL     1       3.712  -3.264 -19.770  0.00  0.00    +0.102 C 
ATOM      9  C12 UNL     1       3.660  -4.786 -19.989  0.00  0.00    +0.033 C 
BRANCH   8  10
ATOM     10  N1  UNL     1       4.686  -2.626 -20.643  0.00  0.00    -0.305 N 
ATOM     11  C13 UNL     1       6.025  -2.583 -20.313  0.00  0.00    +0.245 C 
ATOM     12  O3  UNL     1       6.452  -2.951 -19.220  0.00  0.00    -0.270 OA
ATOM     13  H17 UNL     1       4.368  -2.312 -21.549  0.00  0.00    +0.150 HD
BRANCH  11  14
ATOM     14  C14 UNL     1       6.965  -2.064 -21.347  0.00  0.00    +0.037 A 
ATOM     15  C15 UNL     1       7.904  -1.058 -21.076  0.00  0.00    +0.013 A 
ATOM     16  C16 UNL     1       8.741  -0.584 -22.097  0.00  0.00    +0.001 A 
ATOM     17  C17 UNL     1       8.639  -1.107 -23.391  0.00  0.00    +0.000 A 
ATOM     18  C18 UNL     1       7.700  -2.102 -23.670  0.00  0.00    +0.001 A 
ATOM     19  C19 UNL     1       6.862  -2.577 -22.653  0.00  0.00    +0.013 A 
ENDBRANCH  11  14
ENDBRANCH   8  10
ENDBRANCH   5   8
BRANCH   1  20
ATOM     20  O1  UNL     1      -1.481  -0.955 -20.448  0.00  0.00    -0.489 OA
BRANCH  20  22
ATOM     21  C1  UNL     1      -3.274  -1.650 -19.024  0.00  0.00    +0.048 C 
ATOM     22  C2  UNL     1      -2.119  -0.670 -19.193  0.00  0.00    +0.226 C 
ENDBRANCH  20  22
ENDBRANCH   1  20
BRANCH   7  23
ATOM     23  O2  UNL     1      -0.654  -3.335 -21.923  0.00  0.00    -0.489 OA
BRANCH  23  24
ATOM     24  C9  UNL     1      -1.398  -4.384 -21.279  0.00  0.00    +0.226 C 
ATOM     25  C10 UNL     1      -1.435  -5.586 -22.226  0.00  0.00    +0.048 C 
ENDBRANCH  23  24
ENDBRANCH   7  23
TORSDOF 7
ENDMDL
MODEL 8
REMARK VINA RESULT:    -4.428      4.045      7.711
REMARK INTER + INTRA:          -7.341
REMARK INTER:                  -5.989
REMARK INTRA:                  -1.352
REMARK UNBOUND:                -1.100
REMARK  Name = /home/vital/Documents/PhD_2021/Malaria_codes/data/pdb_ligands_mmv/ligand_80.pdb
REMARK  10 active torsions:
REMARK  status: ('A' for Active; 'I' for Inactive)
REMARK    1  A    between atoms: C1_1  and  C2_2
REMARK    2  A    between atoms: C2_2  and  O1_3
REMARK    3  A    between atoms: O1_3  and  C3_4
REMARK    4  A    between atoms: C6_8  and  C11_14
REMARK    5  A    between atoms: C8_10  and  O2_11
REMARK    6  A    between atoms: O2_11  and  C9_12
REMARK    7  A    between atoms: C9_12  and  C10_13
REMARK    8  A    between atoms: C11_14  and  C12_15
REMARK    9  A    between atoms: C11_14  and  N1_16
REMARK   10  A    between atoms: C13_17  and  C14_19
REMARK                            x       y       z     vdW  Elec       q    Type
REMARK                         _______ _______ _______ _____ _____    ______ ____
ROOT
ATOM      1  C3  UNL     1       3.557   9.386 -20.424  0.00  0.00    +0.163 A 
ATOM      2  C4  UNL     1       3.404   9.589 -19.052  0.00  0.00    +0.069 A 
ATOM      3  C5  UNL     1       2.532   8.786 -18.302  0.00  0.00    +0.050 A 
ATOM      4 CL1  UNL     1       2.387   9.169 -16.615  0.00  0.00    -0.083 Cl
ATOM      5  C6  UNL     1       1.812   7.742 -18.909  0.00  0.00    -0.006 A 
ATOM      6  C7  UNL     1       1.999   7.539 -20.292  0.00  0.00    +0.056 A 
ATOM      7  C8  UNL     1       2.877   8.336 -21.034  0.00  0.00    +0.162 A 
ENDROOT
BRANCH   5   8
ATOM      8  C11 UNL     1       0.889   6.781 -18.175  0.00  0.00    +0.102 C 
ATOM      9  C12 UNL     1       0.108   5.896 -19.161  0.00  0.00    +0.033 C 
BRANCH   8  10
ATOM     10  N1  UNL     1       1.596   5.986 -17.181  0.00  0.00    -0.305 N 
ATOM     11  C13 UNL     1       0.955   5.514 -16.053  0.00  0.00    +0.245 C 
ATOM     12  O3  UNL     1      -0.191   5.845 -15.753  0.00  0.00    -0.270 OA
ATOM     13  H17 UNL     1       2.540   5.698 -17.395  0.00  0.00    +0.150 HD
BRANCH  11  14
ATOM     14  C14 UNL     1       1.714   4.569 -15.184  0.00  0.00    +0.037 A 
ATOM     15  C15 UNL     1       2.127   4.904 -13.886  0.00  0.00    +0.013 A 
ATOM     16  C16 UNL     1       2.867   3.987 -13.126  0.00  0.00    +0.001 A 
ATOM     17  C17 UNL     1       3.201   2.737 -13.660  0.00  0.00    +0.000 A 
ATOM     18  C18 UNL     1       2.801   2.401 -14.955  0.00  0.00    +0.001 A 
ATOM     19  C19 UNL     1       2.063   3.315 -15.717  0.00  0.00    +0.013 A 
ENDBRANCH  11  14
ENDBRANCH   8  10
ENDBRANCH   5   8
BRANCH   1  20
ATOM     20  O1  UNL     1       4.440  10.234 -21.042  0.00  0.00    -0.489 OA
BRANCH  20  22
ATOM     21  C1  UNL     1       6.279   9.818 -22.515  0.00  0.00    +0.048 C 
ATOM     22  C2  UNL     1       5.788   9.738 -21.074  0.00  0.00    +0.226 C 
ENDBRANCH  20  22
ENDBRANCH   1  20
BRANCH   7  23
ATOM     23  O2  UNL     1       3.007   8.061 -22.367  0.00  0.00    -0.489 OA
BRANCH  23  24
ATOM     24  C9  UNL     1       1.747   7.645 -22.920  0.00  0.00    +0.226 C 
ATOM     25  C10 UNL     1       1.454   8.523 -24.139  0.00  0.00    +0.048 C 
ENDBRANCH  23  24
ENDBRANCH   7  23
TORSDOF 7
ENDMDL
MODEL 9
REMARK VINA RESULT:    -4.115     15.132     16.263
REMARK INTER + INTRA:          -6.899
REMARK INTER:                  -5.363
REMARK INTRA:                  -1.535
REMARK UNBOUND:                -1.100
REMARK  Name = /home/vital/Documents/PhD_2021/Malaria_codes/data/pdb_ligands_mmv/ligand_80.pdb
REMARK  10 active torsions:
REMARK  status: ('A' for Active; 'I' for Inactive)
REMARK    1  A    between atoms: C1_1  and  C2_2
REMARK    2  A    between atoms: C2_2  and  O1_3
REMARK    3  A    between atoms: O1_3  and  C3_4
REMARK    4  A    between atoms: C6_8  and  C11_14
REMARK    5  A    between atoms: C8_10  and  O2_11
REMARK    6  A    between atoms: O2_11  and  C9_12
REMARK    7  A    between atoms: C9_12  and  C10_13
REMARK    8  A    between atoms: C11_14  and  C12_15
REMARK    9  A    between atoms: C11_14  and  N1_16
REMARK   10  A    between atoms: C13_17  and  C14_19
REMARK                            x       y       z     vdW  Elec       q    Type
REMARK                         _______ _______ _______ _____ _____    ______ ____
ROOT
ATOM      1  C3  UNL     1       3.818  -3.993 -28.452  0.00  0.00    +0.163 A 
ATOM      2  C4  UNL     1       4.430  -3.793 -29.691  0.00  0.00    +0.069 A 
ATOM      3  C5  UNL     1       3.765  -4.127 -30.880  0.00  0.00    +0.050 A 
ATOM      4 CL1  UNL     1       4.649  -3.881 -32.354  0.00  0.00    -0.083 Cl
ATOM      5  C6  UNL     1       2.459  -4.645 -30.855  0.00  0.00    -0.006 A 
ATOM      6  C7  UNL     1       1.850  -4.817 -29.594  0.00  0.00    +0.056 A 
ATOM      7  C8  UNL     1       2.513  -4.475 -28.411  0.00  0.00    +0.162 A 
ENDROOT
BRANCH   5   8
ATOM      8  C11 UNL     1       1.633  -4.982 -32.087  0.00  0.00    +0.102 C 
ATOM      9  C12 UNL     1       0.592  -6.072 -31.779  0.00  0.00    +0.033 C 
BRANCH   8  10
ATOM     10  N1  UNL     1       1.019  -3.803 -32.681  0.00  0.00    -0.305 N 
ATOM     11  C13 UNL     1       1.238  -3.469 -34.002  0.00  0.00    +0.245 C 
ATOM     12  O3  UNL     1       2.058  -4.055 -34.708  0.00  0.00    -0.270 OA
ATOM     13  H17 UNL     1       0.342  -3.298 -32.128  0.00  0.00    +0.150 HD
BRANCH  11  14
ATOM     14  C14 UNL     1       0.433  -2.347 -34.564  0.00  0.00    +0.037 A 
ATOM     15  C15 UNL     1      -0.118  -2.384 -35.853  0.00  0.00    +0.013 A 
ATOM     16  C16 UNL     1      -0.838  -1.285 -36.341  0.00  0.00    +0.001 A 
ATOM     17  C17 UNL     1      -1.006  -0.144 -35.548  0.00  0.00    +0.000 A 
ATOM     18  C18 UNL     1      -0.452  -0.097 -34.267  0.00  0.00    +0.001 A 
ATOM     19  C19 UNL     1       0.269  -1.192 -33.777  0.00  0.00    +0.013 A 
ENDBRANCH  11  14
ENDBRANCH   8  10
ENDBRANCH   5   8
BRANCH   1  20
ATOM     20  O1  UNL     1       4.570  -3.625 -27.366  0.00  0.00    -0.489 OA
BRANCH  20  22
ATOM     21  C1  UNL     1       5.824  -5.352 -26.286  0.00  0.00    +0.048 C 
ATOM     22  C2  UNL     1       5.867  -4.242 -27.329  0.00  0.00    +0.226 C 
ENDBRANCH  20  22
ENDBRANCH   1  20
BRANCH   7  23
ATOM     23  O2  UNL     1       1.844  -4.663 -27.234  0.00  0.00    -0.489 OA
BRANCH  23  24
ATOM     24  C9  UNL     1       1.053  -5.862 -27.291  0.00  0.00    +0.226 C 
ATOM     25  C10 UNL     1       1.734  -6.919 -26.417  0.00  0.00    +0.048 C 
ENDBRANCH  23  24
ENDBRANCH   7  23
TORSDOF 7
ENDMDL
