MODEL 1
REMARK VINA RESULT:    -3.926      0.000      0.000
REMARK INTER + INTRA:          -6.984
REMARK INTER:                  -5.877
REMARK INTRA:                  -1.107
REMARK UNBOUND:                -1.107
REMARK  Name = /home/vital/Documents/PhD_2021/Malaria_codes/data/pdb_ligands_mmv/ligand_189.pdb
REMARK  14 active torsions:
REMARK  status: ('A' for Active; 'I' for Inactive)
REMARK    1  A    between atoms: C2_3  and  O1_9
REMARK    2  A    between atoms: O1_9  and  C7_10
REMARK    3  A    between atoms: C7_10  and  C8_11
REMARK    4  A    between atoms: C8_11  and  O2_12
REMARK    5  A    between atoms: C8_11  and  C9_13
REMARK    6  A    between atoms: C9_13  and  N1_14
REMARK    7  A    between atoms: N1_14  and  C10_15
REMARK    8  A    between atoms: C10_15  and  C11_16
REMARK    9  A    between atoms: C10_15  and  C12_17
REMARK   10  A    between atoms: C10_15  and  C13_18
REMARK   11  A    between atoms: C13_18  and  C14_19
REMARK   12  A    between atoms: C14_19  and  C15_20
REMARK   13  A    between atoms: C14_19  and  C16_21
REMARK   14  A    between atoms: C14_19  and  C17_22
REMARK                            x       y       z     vdW  Elec       q    Type
REMARK                         _______ _______ _______ _____ _____    ______ ____
ROOT
ATOM      1  C8  UNL     1       1.691  -8.330 -33.162  0.00  0.00    +0.166 C 
ENDROOT
BRANCH   1   2
ATOM      2  O2  UNL     1       2.382  -9.408 -32.511  0.00  0.00    -0.387 OA
ATOM      3  H7  UNL     1       3.193  -9.021 -32.132  0.00  0.00    +0.210 HD
ENDBRANCH   1   2
BRANCH   1   4
ATOM      4  C7  UNL     1       0.452  -8.001 -32.314  0.00  0.00    +0.261 C 
BRANCH   4   5
ATOM      5  O1  UNL     1       0.891  -7.598 -31.002  0.00  0.00    -0.488 OA
BRANCH   5   8
ATOM      6  C1  UNL     1      -0.032  -6.495 -29.060  0.00  0.00    +0.084 A 
ATOM      7 CL1  UNL     1       1.510  -5.890 -28.578  0.00  0.00    -0.080 Cl
ATOM      8  C2  UNL     1      -0.184  -7.261 -30.222  0.00  0.00    +0.139 A 
ATOM      9  C3  UNL     1      -1.436  -7.776 -30.569  0.00  0.00    +0.048 A 
ATOM     10  C4  UNL     1      -2.545  -7.494 -29.767  0.00  0.00    +0.023 A 
ATOM     11  C5  UNL     1      -2.392  -6.713 -28.620  0.00  0.00    +0.043 A 
ATOM     12 CL2  UNL     1      -3.762  -6.385 -27.631  0.00  0.00    -0.083 Cl
ATOM     13  C6  UNL     1      -1.140  -6.211 -28.262  0.00  0.00    +0.043 A 
ENDBRANCH   5   8
ENDBRANCH   4   5
ENDBRANCH   1   4
BRANCH   1  14
ATOM     14  C9  UNL     1       2.620  -7.103 -33.309  0.00  0.00    +0.116 C 
BRANCH  14  15
ATOM     15  N1  UNL     1       2.183  -5.843 -32.682  0.00  0.00    -0.308 NA
ATOM     16  H10 UNL     1       1.870  -6.079 -31.739  0.00  0.00    +0.123 HD
BRANCH  15  17
ATOM     17  C10 UNL     1       3.112  -4.698 -32.581  0.00  0.00    +0.014 C 
ATOM     18  C11 UNL     1       4.523  -5.063 -33.058  0.00  0.00    +0.027 C 
ATOM     19  C12 UNL     1       3.196  -4.160 -31.134  0.00  0.00    +0.027 C 
BRANCH  17  20
ATOM     20  C13 UNL     1       2.524  -3.523 -33.451  0.00  0.00    +0.027 C 
BRANCH  20  21
ATOM     21  C14 UNL     1       1.090  -3.562 -34.076  0.00  0.00    -0.036 C 
ATOM     22  C15 UNL     1       0.013  -4.113 -33.130  0.00  0.00    +0.010 C 
ATOM     23  C16 UNL     1       0.708  -2.101 -34.424  0.00  0.00    +0.010 C 
ATOM     24  C17 UNL     1       1.055  -4.358 -35.394  0.00  0.00    +0.010 C 
ENDBRANCH  20  21
ENDBRANCH  17  20
ENDBRANCH  15  17
ENDBRANCH  14  15
ENDBRANCH   1  14
TORSDOF 9
ENDMDL
MODEL 2
REMARK VINA RESULT:    -3.870     10.015     12.280
REMARK INTER + INTRA:          -6.900
REMARK INTER:                  -5.612
REMARK INTRA:                  -1.288
REMARK UNBOUND:                -1.107
REMARK  Name = /home/vital/Documents/PhD_2021/Malaria_codes/data/pdb_ligands_mmv/ligand_189.pdb
REMARK  14 active torsions:
REMARK  status: ('A' for Active; 'I' for Inactive)
REMARK    1  A    between atoms: C2_3  and  O1_9
REMARK    2  A    between atoms: O1_9  and  C7_10
REMARK    3  A    between atoms: C7_10  and  C8_11
REMARK    4  A    between atoms: C8_11  and  O2_12
REMARK    5  A    between atoms: C8_11  and  C9_13
REMARK    6  A    between atoms: C9_13  and  N1_14
REMARK    7  A    between atoms: N1_14  and  C10_15
REMARK    8  A    between atoms: C10_15  and  C11_16
REMARK    9  A    between atoms: C10_15  and  C12_17
REMARK   10  A    between atoms: C10_15  and  C13_18
REMARK   11  A    between atoms: C13_18  and  C14_19
REMARK   12  A    between atoms: C14_19  and  C15_20
REMARK   13  A    between atoms: C14_19  and  C16_21
REMARK   14  A    between atoms: C14_19  and  C17_22
REMARK                            x       y       z     vdW  Elec       q    Type
REMARK                         _______ _______ _______ _____ _____    ______ ____
ROOT
ATOM      1  C8  UNL     1       0.727  -1.192 -18.957  0.00  0.00    +0.166 C 
ENDROOT
BRANCH   1   2
ATOM      2  O2  UNL     1      -0.395  -1.376 -18.079  0.00  0.00    -0.387 OA
ATOM      3  H7  UNL     1      -1.107  -0.808 -18.426  0.00  0.00    +0.210 HD
ENDBRANCH   1   2
BRANCH   1   4
ATOM      4  C7  UNL     1       1.674  -2.386 -18.748  0.00  0.00    +0.261 C 
BRANCH   4   5
ATOM      5  O1  UNL     1       3.030  -1.925 -18.899  0.00  0.00    -0.488 OA
BRANCH   5   8
ATOM      6  C1  UNL     1       4.344  -2.121 -20.918  0.00  0.00    +0.084 A 
ATOM      7 CL1  UNL     1       4.386  -0.412 -21.146  0.00  0.00    -0.080 Cl
ATOM      8  C2  UNL     1       3.695  -2.695 -19.818  0.00  0.00    +0.139 A 
ATOM      9  C3  UNL     1       3.638  -4.083 -19.678  0.00  0.00    +0.048 A 
ATOM     10  C4  UNL     1       4.262  -4.899 -20.625  0.00  0.00    +0.023 A 
ATOM     11  C5  UNL     1       4.925  -4.323 -21.710  0.00  0.00    +0.043 A 
ATOM     12 CL2  UNL     1       5.677  -5.339 -22.878  0.00  0.00    -0.083 Cl
ATOM     13  C6  UNL     1       4.970  -2.937 -21.862  0.00  0.00    +0.043 A 
ENDBRANCH   5   8
ENDBRANCH   4   5
ENDBRANCH   1   4
BRANCH   1  14
ATOM     14  C9  UNL     1       0.255  -1.095 -20.425  0.00  0.00    +0.116 C 
BRANCH  14  15
ATOM     15  N1  UNL     1       0.347  -2.313 -21.250  0.00  0.00    -0.308 NA
ATOM     16  H10 UNL     1      -0.325  -2.978 -20.865  0.00  0.00    +0.123 HD
BRANCH  15  17
ATOM     17  C10 UNL     1       0.137  -2.243 -22.711  0.00  0.00    +0.014 C 
ATOM     18  C11 UNL     1       1.453  -2.382 -23.485  0.00  0.00    +0.027 C 
ATOM     19  C12 UNL     1      -0.550  -0.922 -23.123  0.00  0.00    +0.027 C 
BRANCH  17  20
ATOM     20  C13 UNL     1      -0.860  -3.397 -23.110  0.00  0.00    +0.027 C 
BRANCH  20  21
ATOM     21  C14 UNL     1      -1.395  -4.452 -22.085  0.00  0.00    -0.036 C 
ATOM     22  C15 UNL     1      -2.455  -3.901 -21.120  0.00  0.00    +0.010 C 
ATOM     23  C16 UNL     1      -2.052  -5.589 -22.906  0.00  0.00    +0.010 C 
ATOM     24  C17 UNL     1      -0.256  -5.092 -21.268  0.00  0.00    +0.010 C 
ENDBRANCH  20  21
ENDBRANCH  17  20
ENDBRANCH  15  17
ENDBRANCH  14  15
ENDBRANCH   1  14
TORSDOF 9
ENDMDL
MODEL 3
REMARK VINA RESULT:    -3.807      9.832     12.404
REMARK INTER + INTRA:          -6.806
REMARK INTER:                  -5.193
REMARK INTRA:                  -1.612
REMARK UNBOUND:                -1.107
REMARK  Name = /home/vital/Documents/PhD_2021/Malaria_codes/data/pdb_ligands_mmv/ligand_189.pdb
REMARK  14 active torsions:
REMARK  status: ('A' for Active; 'I' for Inactive)
REMARK    1  A    between atoms: C2_3  and  O1_9
REMARK    2  A    between atoms: O1_9  and  C7_10
REMARK    3  A    between atoms: C7_10  and  C8_11
REMARK    4  A    between atoms: C8_11  and  O2_12
REMARK    5  A    between atoms: C8_11  and  C9_13
REMARK    6  A    between atoms: C9_13  and  N1_14
REMARK    7  A    between atoms: N1_14  and  C10_15
REMARK    8  A    between atoms: C10_15  and  C11_16
REMARK    9  A    between atoms: C10_15  and  C12_17
REMARK   10  A    between atoms: C10_15  and  C13_18
REMARK   11  A    between atoms: C13_18  and  C14_19
REMARK   12  A    between atoms: C14_19  and  C15_20
REMARK   13  A    between atoms: C14_19  and  C16_21
REMARK   14  A    between atoms: C14_19  and  C17_22
REMARK                            x       y       z     vdW  Elec       q    Type
REMARK                         _______ _______ _______ _____ _____    ______ ____
ROOT
ATOM      1  C8  UNL     1      -0.809  -0.604 -19.123  0.00  0.00    +0.166 C 
ENDROOT
BRANCH   1   2
ATOM      2  O2  UNL     1      -1.570  -1.339 -18.151  0.00  0.00    -0.387 OA
ATOM      3  H7  UNL     1      -1.146  -1.170 -17.290  0.00  0.00    +0.210 HD
ENDBRANCH   1   2
BRANCH   1   4
ATOM      4  C7  UNL     1       0.602  -1.215 -19.158  0.00  0.00    +0.261 C 
BRANCH   4   5
ATOM      5  O1  UNL     1       1.214  -0.876 -20.417  0.00  0.00    -0.488 OA
BRANCH   5   8
ATOM      6  C1  UNL     1       2.441  -2.090 -22.108  0.00  0.00    +0.084 A 
ATOM      7 CL1  UNL     1       1.703  -1.200 -23.389  0.00  0.00    -0.080 Cl
ATOM      8  C2  UNL     1       2.139  -1.825 -20.767  0.00  0.00    +0.139 A 
ATOM      9  C3  UNL     1       2.718  -2.587 -19.750  0.00  0.00    +0.048 A 
ATOM     10  C4  UNL     1       3.627  -3.597 -20.075  0.00  0.00    +0.023 A 
ATOM     11  C5  UNL     1       3.939  -3.846 -21.413  0.00  0.00    +0.043 A 
ATOM     12 CL2  UNL     1       5.049  -5.102 -21.803  0.00  0.00    -0.083 Cl
ATOM     13  C6  UNL     1       3.352  -3.097 -22.433  0.00  0.00    +0.043 A 
ENDBRANCH   5   8
ENDBRANCH   4   5
ENDBRANCH   1   4
BRANCH   1  14
ATOM     14  C9  UNL     1      -1.490  -0.673 -20.509  0.00  0.00    +0.116 C 
BRANCH  14  15
ATOM     15  N1  UNL     1      -1.501  -1.976 -21.195  0.00  0.00    -0.308 NA
ATOM     16  H10 UNL     1      -1.103  -2.654 -20.543  0.00  0.00    +0.123 HD
BRANCH  15  17
ATOM     17  C10 UNL     1      -2.766  -2.534 -21.717  0.00  0.00    +0.014 C 
ATOM     18  C11 UNL     1      -3.148  -1.920 -23.069  0.00  0.00    +0.027 C 
ATOM     19  C12 UNL     1      -3.933  -2.324 -20.725  0.00  0.00    +0.027 C 
BRANCH  17  20
ATOM     20  C13 UNL     1      -2.585  -4.094 -21.854  0.00  0.00    +0.027 C 
BRANCH  20  21
ATOM     21  C14 UNL     1      -1.234  -4.759 -22.280  0.00  0.00    -0.036 C 
ATOM     22  C15 UNL     1      -0.170  -4.774 -21.173  0.00  0.00    +0.010 C 
ATOM     23  C16 UNL     1      -1.550  -6.231 -22.648  0.00  0.00    +0.010 C 
ATOM     24  C17 UNL     1      -0.639  -4.102 -23.540  0.00  0.00    +0.010 C 
ENDBRANCH  20  21
ENDBRANCH  17  20
ENDBRANCH  15  17
ENDBRANCH  14  15
ENDBRANCH   1  14
TORSDOF 9
ENDMDL
MODEL 4
REMARK VINA RESULT:    -3.767     16.686     18.610
REMARK INTER + INTRA:          -6.746
REMARK INTER:                  -5.844
REMARK INTRA:                  -0.902
REMARK UNBOUND:                -1.107
REMARK  Name = /home/vital/Documents/PhD_2021/Malaria_codes/data/pdb_ligands_mmv/ligand_189.pdb
REMARK  14 active torsions:
REMARK  status: ('A' for Active; 'I' for Inactive)
REMARK    1  A    between atoms: C2_3  and  O1_9
REMARK    2  A    between atoms: O1_9  and  C7_10
REMARK    3  A    between atoms: C7_10  and  C8_11
REMARK    4  A    between atoms: C8_11  and  O2_12
REMARK    5  A    between atoms: C8_11  and  C9_13
REMARK    6  A    between atoms: C9_13  and  N1_14
REMARK    7  A    between atoms: N1_14  and  C10_15
REMARK    8  A    between atoms: C10_15  and  C11_16
REMARK    9  A    between atoms: C10_15  and  C12_17
REMARK   10  A    between atoms: C10_15  and  C13_18
REMARK   11  A    between atoms: C13_18  and  C14_19
REMARK   12  A    between atoms: C14_19  and  C15_20
REMARK   13  A    between atoms: C14_19  and  C16_21
REMARK   14  A    between atoms: C14_19  and  C17_22
REMARK                            x       y       z     vdW  Elec       q    Type
REMARK                         _______ _______ _______ _____ _____    ______ ____
ROOT
ATOM      1  C8  UNL     1      -1.422   5.647 -17.149  0.00  0.00    +0.166 C 
ENDROOT
BRANCH   1   2
ATOM      2  O2  UNL     1      -2.810   5.415 -16.857  0.00  0.00    -0.387 OA
ATOM      3  H7  UNL     1      -2.845   4.580 -16.354  0.00  0.00    +0.210 HD
ENDBRANCH   1   2
BRANCH   1   4
ATOM      4  C7  UNL     1      -0.601   4.959 -16.046  0.00  0.00    +0.261 C 
BRANCH   4   5
ATOM      5  O1  UNL     1       0.507   4.276 -16.662  0.00  0.00    -0.488 OA
BRANCH   5   8
ATOM      6  C1  UNL     1       2.241   2.754 -15.942  0.00  0.00    +0.084 A 
ATOM      7 CL1  UNL     1       2.264   1.940 -17.463  0.00  0.00    -0.080 Cl
ATOM      8  C2  UNL     1       1.390   3.840 -15.708  0.00  0.00    +0.139 A 
ATOM      9  C3  UNL     1       1.360   4.456 -14.454  0.00  0.00    +0.048 A 
ATOM     10  C4  UNL     1       2.210   4.004 -13.442  0.00  0.00    +0.023 A 
ATOM     11  C5  UNL     1       3.072   2.933 -13.686  0.00  0.00    +0.043 A 
ATOM     12 CL2  UNL     1       4.104   2.375 -12.426  0.00  0.00    -0.083 Cl
ATOM     13  C6  UNL     1       3.093   2.305 -14.932  0.00  0.00    +0.043 A 
ENDBRANCH   5   8
ENDBRANCH   4   5
ENDBRANCH   1   4
BRANCH   1  14
ATOM     14  C9  UNL     1      -1.065   5.097 -18.548  0.00  0.00    +0.116 C 
BRANCH  14  15
ATOM     15  N1  UNL     1       0.329   5.250 -19.001  0.00  0.00    -0.308 NA
ATOM     16  H10 UNL     1       0.721   4.310 -19.065  0.00  0.00    +0.123 HD
BRANCH  15  17
ATOM     17  C10 UNL     1       0.630   5.957 -20.264  0.00  0.00    +0.014 C 
ATOM     18  C11 UNL     1      -0.623   6.146 -21.126  0.00  0.00    +0.027 C 
ATOM     19  C12 UNL     1       1.700   5.210 -21.092  0.00  0.00    +0.027 C 
BRANCH  17  20
ATOM     20  C13 UNL     1       1.259   7.354 -19.896  0.00  0.00    +0.027 C 
BRANCH  20  21
ATOM     21  C14 UNL     1       2.305   7.540 -18.747  0.00  0.00    -0.036 C 
ATOM     22  C15 UNL     1       3.292   6.372 -18.607  0.00  0.00    +0.010 C 
ATOM     23  C16 UNL     1       3.126   8.811 -19.082  0.00  0.00    +0.010 C 
ATOM     24  C17 UNL     1       1.629   7.793 -17.386  0.00  0.00    +0.010 C 
ENDBRANCH  20  21
ENDBRANCH  17  20
ENDBRANCH  15  17
ENDBRANCH  14  15
ENDBRANCH   1  14
TORSDOF 9
ENDMDL
MODEL 5
REMARK VINA RESULT:    -3.652     17.309     19.081
REMARK INTER + INTRA:          -6.573
REMARK INTER:                  -5.017
REMARK INTRA:                  -1.556
REMARK UNBOUND:                -1.107
REMARK  Name = /home/vital/Documents/PhD_2021/Malaria_codes/data/pdb_ligands_mmv/ligand_189.pdb
REMARK  14 active torsions:
REMARK  status: ('A' for Active; 'I' for Inactive)
REMARK    1  A    between atoms: C2_3  and  O1_9
REMARK    2  A    between atoms: O1_9  and  C7_10
REMARK    3  A    between atoms: C7_10  and  C8_11
REMARK    4  A    between atoms: C8_11  and  O2_12
REMARK    5  A    between atoms: C8_11  and  C9_13
REMARK    6  A    between atoms: C9_13  and  N1_14
REMARK    7  A    between atoms: N1_14  and  C10_15
REMARK    8  A    between atoms: C10_15  and  C11_16
REMARK    9  A    between atoms: C10_15  and  C12_17
REMARK   10  A    between atoms: C10_15  and  C13_18
REMARK   11  A    between atoms: C13_18  and  C14_19
REMARK   12  A    between atoms: C14_19  and  C15_20
REMARK   13  A    between atoms: C14_19  and  C16_21
REMARK   14  A    between atoms: C14_19  and  C17_22
REMARK                            x       y       z     vdW  Elec       q    Type
REMARK                         _______ _______ _______ _____ _____    ______ ____
ROOT
ATOM      1  C8  UNL     1       2.125   4.726 -14.003  0.00  0.00    +0.166 C 
ENDROOT
BRANCH   1   2
ATOM      2  O2  UNL     1       2.169   5.843 -13.100  0.00  0.00    -0.387 OA
ATOM      3  H7  UNL     1       1.261   5.957 -12.765  0.00  0.00    +0.210 HD
ENDBRANCH   1   2
BRANCH   1   4
ATOM      4  C7  UNL     1       0.830   4.849 -14.822  0.00  0.00    +0.261 C 
BRANCH   4   5
ATOM      5  O1  UNL     1       1.051   4.261 -16.118  0.00  0.00    -0.488 OA
BRANCH   5   8
ATOM      6  C1  UNL     1      -0.057   4.015 -18.251  0.00  0.00    +0.084 A 
ATOM      7 CL1  UNL     1       1.285   3.174 -18.936  0.00  0.00    -0.080 Cl
ATOM      8  C2  UNL     1      -0.044   4.448 -16.920  0.00  0.00    +0.139 A 
ATOM      9  C3  UNL     1      -1.126   5.164 -16.401  0.00  0.00    +0.048 A 
ATOM     10  C4  UNL     1      -2.237   5.418 -17.208  0.00  0.00    +0.023 A 
ATOM     11  C5  UNL     1      -2.254   4.967 -18.529  0.00  0.00    +0.043 A 
ATOM     12 CL2  UNL     1      -3.623   5.298 -19.518  0.00  0.00    -0.083 Cl
ATOM     13  C6  UNL     1      -1.169   4.265 -19.056  0.00  0.00    +0.043 A 
ENDBRANCH   5   8
ENDBRANCH   4   5
ENDBRANCH   1   4
BRANCH   1  14
ATOM     14  C9  UNL     1       3.373   4.718 -14.915  0.00  0.00    +0.116 C 
BRANCH  14  15
ATOM     15  N1  UNL     1       3.402   5.678 -16.033  0.00  0.00    -0.308 NA
ATOM     16  H10 UNL     1       2.723   6.407 -15.810  0.00  0.00    +0.123 HD
BRANCH  15  17
ATOM     17  C10 UNL     1       4.668   6.335 -16.418  0.00  0.00    +0.014 C 
ATOM     18  C11 UNL     1       5.630   5.363 -17.111  0.00  0.00    +0.027 C 
ATOM     19  C12 UNL     1       5.380   6.959 -15.196  0.00  0.00    +0.027 C 
BRANCH  17  20
ATOM     20  C13 UNL     1       4.315   7.535 -17.377  0.00  0.00    +0.027 C 
BRANCH  20  21
ATOM     21  C14 UNL     1       2.873   7.786 -17.931  0.00  0.00    -0.036 C 
ATOM     22  C15 UNL     1       1.795   7.881 -16.842  0.00  0.00    +0.010 C 
ATOM     23  C16 UNL     1       2.906   9.141 -18.682  0.00  0.00    +0.010 C 
ATOM     24  C17 UNL     1       2.456   6.717 -18.959  0.00  0.00    +0.010 C 
ENDBRANCH  20  21
ENDBRANCH  17  20
ENDBRANCH  15  17
ENDBRANCH  14  15
ENDBRANCH   1  14
TORSDOF 9
ENDMDL
MODEL 6
REMARK VINA RESULT:    -3.614      7.778     10.452
REMARK INTER + INTRA:          -6.517
REMARK INTER:                  -4.907
REMARK INTRA:                  -1.610
REMARK UNBOUND:                -1.107
REMARK  Name = /home/vital/Documents/PhD_2021/Malaria_codes/data/pdb_ligands_mmv/ligand_189.pdb
REMARK  14 active torsions:
REMARK  status: ('A' for Active; 'I' for Inactive)
REMARK    1  A    between atoms: C2_3  and  O1_9
REMARK    2  A    between atoms: O1_9  and  C7_10
REMARK    3  A    between atoms: C7_10  and  C8_11
REMARK    4  A    between atoms: C8_11  and  O2_12
REMARK    5  A    between atoms: C8_11  and  C9_13
REMARK    6  A    between atoms: C9_13  and  N1_14
REMARK    7  A    between atoms: N1_14  and  C10_15
REMARK    8  A    between atoms: C10_15  and  C11_16
REMARK    9  A    between atoms: C10_15  and  C12_17
REMARK   10  A    between atoms: C10_15  and  C13_18
REMARK   11  A    between atoms: C13_18  and  C14_19
REMARK   12  A    between atoms: C14_19  and  C15_20
REMARK   13  A    between atoms: C14_19  and  C16_21
REMARK   14  A    between atoms: C14_19  and  C17_22
REMARK                            x       y       z     vdW  Elec       q    Type
REMARK                         _______ _______ _______ _____ _____    ______ ____
ROOT
ATOM      1  C8  UNL     1      -5.370  -4.446 -25.938  0.00  0.00    +0.166 C 
ENDROOT
BRANCH   1   2
ATOM      2  O2  UNL     1      -6.422  -5.424 -25.893  0.00  0.00    -0.387 OA
ATOM      3  H7  UNL     1      -6.107  -6.185 -26.416  0.00  0.00    +0.210 HD
ENDBRANCH   1   2
BRANCH   1   4
ATOM      4  C7  UNL     1      -5.579  -3.493 -24.749  0.00  0.00    +0.261 C 
BRANCH   4   5
ATOM      5  O1  UNL     1      -4.635  -2.412 -24.861  0.00  0.00    -0.488 OA
BRANCH   5   8
ATOM      6  C1  UNL     1      -3.559  -0.775 -23.445  0.00  0.00    +0.084 A 
ATOM      7 CL1  UNL     1      -2.368  -0.414 -24.640  0.00  0.00    -0.080 Cl
ATOM      8  C2  UNL     1      -4.572  -1.711 -23.684  0.00  0.00    +0.139 A 
ATOM      9  C3  UNL     1      -5.500  -2.017 -22.686  0.00  0.00    +0.048 A 
ATOM     10  C4  UNL     1      -5.433  -1.358 -21.456  0.00  0.00    +0.023 A 
ATOM     11  C5  UNL     1      -4.433  -0.410 -21.228  0.00  0.00    +0.043 A 
ATOM     12 CL2  UNL     1      -4.352   0.384 -19.703  0.00  0.00    -0.083 Cl
ATOM     13  C6  UNL     1      -3.495  -0.114 -22.218  0.00  0.00    +0.043 A 
ENDBRANCH   5   8
ENDBRANCH   4   5
ENDBRANCH   1   4
BRANCH   1  14
ATOM     14  C9  UNL     1      -3.988  -5.135 -25.875  0.00  0.00    +0.116 C 
BRANCH  14  15
ATOM     15  N1  UNL     1      -3.138  -4.843 -24.707  0.00  0.00    -0.308 NA
ATOM     16  H10 UNL     1      -3.190  -5.660 -24.096  0.00  0.00    +0.123 HD
BRANCH  15  17
ATOM     17  C10 UNL     1      -1.712  -4.500 -24.890  0.00  0.00    +0.014 C 
ATOM     18  C11 UNL     1      -1.510  -3.470 -26.007  0.00  0.00    +0.027 C 
ATOM     19  C12 UNL     1      -0.861  -5.752 -25.203  0.00  0.00    +0.027 C 
BRANCH  17  20
ATOM     20  C13 UNL     1      -1.172  -3.937 -23.520  0.00  0.00    +0.027 C 
BRANCH  20  21
ATOM     21  C14 UNL     1      -1.401  -4.663 -22.153  0.00  0.00    -0.036 C 
ATOM     22  C15 UNL     1      -1.648  -6.173 -22.283  0.00  0.00    +0.010 C 
ATOM     23  C16 UNL     1      -0.113  -4.467 -21.315  0.00  0.00    +0.010 C 
ATOM     24  C17 UNL     1      -2.556  -4.033 -21.350  0.00  0.00    +0.010 C 
ENDBRANCH  20  21
ENDBRANCH  17  20
ENDBRANCH  15  17
ENDBRANCH  14  15
ENDBRANCH   1  14
TORSDOF 9
ENDMDL
MODEL 7
REMARK VINA RESULT:    -3.481      9.792     12.167
REMARK INTER + INTRA:          -6.318
REMARK INTER:                  -4.842
REMARK INTRA:                  -1.477
REMARK UNBOUND:                -1.107
REMARK  Name = /home/vital/Documents/PhD_2021/Malaria_codes/data/pdb_ligands_mmv/ligand_189.pdb
REMARK  14 active torsions:
REMARK  status: ('A' for Active; 'I' for Inactive)
REMARK    1  A    between atoms: C2_3  and  O1_9
REMARK    2  A    between atoms: O1_9  and  C7_10
REMARK    3  A    between atoms: C7_10  and  C8_11
REMARK    4  A    between atoms: C8_11  and  O2_12
REMARK    5  A    between atoms: C8_11  and  C9_13
REMARK    6  A    between atoms: C9_13  and  N1_14
REMARK    7  A    between atoms: N1_14  and  C10_15
REMARK    8  A    between atoms: C10_15  and  C11_16
REMARK    9  A    between atoms: C10_15  and  C12_17
REMARK   10  A    between atoms: C10_15  and  C13_18
REMARK   11  A    between atoms: C13_18  and  C14_19
REMARK   12  A    between atoms: C14_19  and  C15_20
REMARK   13  A    between atoms: C14_19  and  C16_21
REMARK   14  A    between atoms: C14_19  and  C17_22
REMARK                            x       y       z     vdW  Elec       q    Type
REMARK                         _______ _______ _______ _____ _____    ______ ____
ROOT
ATOM      1  C8  UNL     1      -0.889   0.370 -22.418  0.00  0.00    +0.166 C 
ENDROOT
BRANCH   1   2
ATOM      2  O2  UNL     1      -1.407   0.959 -21.214  0.00  0.00    -0.387 OA
ATOM      3  H7  UNL     1      -1.250   1.918 -21.291  0.00  0.00    +0.210 HD
ENDBRANCH   1   2
BRANCH   1   4
ATOM      4  C7  UNL     1       0.478  -0.245 -22.075  0.00  0.00    +0.261 C 
BRANCH   4   5
ATOM      5  O1  UNL     1       0.389  -0.858 -20.774  0.00  0.00    -0.488 OA
BRANCH   5   8
ATOM      6  C1  UNL     1       1.794  -2.233 -19.368  0.00  0.00    +0.084 A 
ATOM      7 CL1  UNL     1       1.094  -1.601 -17.923  0.00  0.00    -0.080 Cl
ATOM      8  C2  UNL     1       1.359  -1.816 -20.632  0.00  0.00    +0.139 A 
ATOM      9  C3  UNL     1       1.970  -2.311 -21.786  0.00  0.00    +0.048 A 
ATOM     10  C4  UNL     1       2.998  -3.251 -21.675  0.00  0.00    +0.023 A 
ATOM     11  C5  UNL     1       3.415  -3.678 -20.413  0.00  0.00    +0.043 A 
ATOM     12 CL2  UNL     1       4.692  -4.826 -20.288  0.00  0.00    -0.083 Cl
ATOM     13  C6  UNL     1       2.817  -3.175 -19.258  0.00  0.00    +0.043 A 
ENDBRANCH   5   8
ENDBRANCH   4   5
ENDBRANCH   1   4
BRANCH   1  14
ATOM     14  C9  UNL     1      -1.868  -0.694 -22.964  0.00  0.00    +0.116 C 
BRANCH  14  15
ATOM     15  N1  UNL     1      -1.773  -2.054 -22.404  0.00  0.00    -0.308 NA
ATOM     16  H10 UNL     1      -1.125  -2.002 -21.617  0.00  0.00    +0.123 HD
BRANCH  15  17
ATOM     17  C10 UNL     1      -2.989  -2.759 -21.949  0.00  0.00    +0.014 C 
ATOM     18  C11 UNL     1      -4.259  -2.174 -22.577  0.00  0.00    +0.027 C 
ATOM     19  C12 UNL     1      -3.127  -2.718 -20.410  0.00  0.00    +0.027 C 
BRANCH  17  20
ATOM     20  C13 UNL     1      -2.836  -4.280 -22.333  0.00  0.00    +0.027 C 
BRANCH  20  21
ATOM     21  C14 UNL     1      -1.446  -4.976 -22.515  0.00  0.00    -0.036 C 
ATOM     22  C15 UNL     1      -0.550  -4.913 -21.270  0.00  0.00    +0.010 C 
ATOM     23  C16 UNL     1      -1.724  -6.470 -22.820  0.00  0.00    +0.010 C 
ATOM     24  C17 UNL     1      -0.672  -4.412 -23.722  0.00  0.00    +0.010 C 
ENDBRANCH  20  21
ENDBRANCH  17  20
ENDBRANCH  15  17
ENDBRANCH  14  15
ENDBRANCH   1  14
TORSDOF 9
ENDMDL
MODEL 8
REMARK VINA RESULT:    -3.427      8.519     11.074
REMARK INTER + INTRA:          -6.237
REMARK INTER:                  -4.260
REMARK INTRA:                  -1.977
REMARK UNBOUND:                -1.107
REMARK  Name = /home/vital/Documents/PhD_2021/Malaria_codes/data/pdb_ligands_mmv/ligand_189.pdb
REMARK  14 active torsions:
REMARK  status: ('A' for Active; 'I' for Inactive)
REMARK    1  A    between atoms: C2_3  and  O1_9
REMARK    2  A    between atoms: O1_9  and  C7_10
REMARK    3  A    between atoms: C7_10  and  C8_11
REMARK    4  A    between atoms: C8_11  and  O2_12
REMARK    5  A    between atoms: C8_11  and  C9_13
REMARK    6  A    between atoms: C9_13  and  N1_14
REMARK    7  A    between atoms: N1_14  and  C10_15
REMARK    8  A    between atoms: C10_15  and  C11_16
REMARK    9  A    between atoms: C10_15  and  C12_17
REMARK   10  A    between atoms: C10_15  and  C13_18
REMARK   11  A    between atoms: C13_18  and  C14_19
REMARK   12  A    between atoms: C14_19  and  C15_20
REMARK   13  A    between atoms: C14_19  and  C16_21
REMARK   14  A    between atoms: C14_19  and  C17_22
REMARK                            x       y       z     vdW  Elec       q    Type
REMARK                         _______ _______ _______ _____ _____    ______ ____
ROOT
ATOM      1  C8  UNL     1      -2.827  -0.522 -26.076  0.00  0.00    +0.166 C 
ENDROOT
BRANCH   1   2
ATOM      2  O2  UNL     1      -3.544   0.362 -26.952  0.00  0.00    -0.387 OA
ATOM      3  H7  UNL     1      -4.301   0.698 -26.438  0.00  0.00    +0.210 HD
ENDBRANCH   1   2
BRANCH   1   4
ATOM      4  C7  UNL     1      -2.988   0.019 -24.646  0.00  0.00    +0.261 C 
BRANCH   4   5
ATOM      5  O1  UNL     1      -4.135  -0.613 -24.046  0.00  0.00    -0.488 OA
BRANCH   5   8
ATOM      6  C1  UNL     1      -4.936  -1.280 -21.866  0.00  0.00    +0.084 A 
ATOM      7 CL1  UNL     1      -6.518  -1.617 -22.467  0.00  0.00    -0.080 Cl
ATOM      8  C2  UNL     1      -3.913  -0.837 -22.712  0.00  0.00    +0.139 A 
ATOM      9  C3  UNL     1      -2.652  -0.531 -22.195  0.00  0.00    +0.048 A 
ATOM     10  C4  UNL     1      -2.406  -0.699 -20.830  0.00  0.00    +0.023 A 
ATOM     11  C5  UNL     1      -3.424  -1.159 -19.992  0.00  0.00    +0.043 A 
ATOM     12 CL2  UNL     1      -3.114  -1.348 -18.310  0.00  0.00    -0.083 Cl
ATOM     13  C6  UNL     1      -4.689  -1.451 -20.503  0.00  0.00    +0.043 A 
ENDBRANCH   5   8
ENDBRANCH   4   5
ENDBRANCH   1   4
BRANCH   1  14
ATOM     14  C9  UNL     1      -3.368  -1.964 -26.200  0.00  0.00    +0.116 C 
BRANCH  14  15
ATOM     15  N1  UNL     1      -2.853  -2.967 -25.251  0.00  0.00    -0.308 NA
ATOM     16  H10 UNL     1      -2.685  -2.477 -24.371  0.00  0.00    +0.123 HD
BRANCH  15  17
ATOM     17  C10 UNL     1      -3.635  -4.185 -24.954  0.00  0.00    +0.014 C 
ATOM     18  C11 UNL     1      -3.203  -5.369 -25.826  0.00  0.00    +0.027 C 
ATOM     19  C12 UNL     1      -5.151  -3.948 -25.146  0.00  0.00    +0.027 C 
BRANCH  17  20
ATOM     20  C13 UNL     1      -3.436  -4.525 -23.428  0.00  0.00    +0.027 C 
BRANCH  20  21
ATOM     21  C14 UNL     1      -2.032  -4.796 -22.793  0.00  0.00    -0.036 C 
ATOM     22  C15 UNL     1      -0.906  -3.929 -23.376  0.00  0.00    +0.010 C 
ATOM     23  C16 UNL     1      -2.146  -4.466 -21.284  0.00  0.00    +0.010 C 
ATOM     24  C17 UNL     1      -1.628  -6.279 -22.896  0.00  0.00    +0.010 C 
ENDBRANCH  20  21
ENDBRANCH  17  20
ENDBRANCH  15  17
ENDBRANCH  14  15
ENDBRANCH   1  14
TORSDOF 9
ENDMDL
MODEL 9
REMARK VINA RESULT:    -3.333      9.530     11.956
REMARK INTER + INTRA:          -6.097
REMARK INTER:                  -4.447
REMARK INTRA:                  -1.649
REMARK UNBOUND:                -1.107
REMARK  Name = /home/vital/Documents/PhD_2021/Malaria_codes/data/pdb_ligands_mmv/ligand_189.pdb
REMARK  14 active torsions:
REMARK  status: ('A' for Active; 'I' for Inactive)
REMARK    1  A    between atoms: C2_3  and  O1_9
REMARK    2  A    between atoms: O1_9  and  C7_10
REMARK    3  A    between atoms: C7_10  and  C8_11
REMARK    4  A    between atoms: C8_11  and  O2_12
REMARK    5  A    between atoms: C8_11  and  C9_13
REMARK    6  A    between atoms: C9_13  and  N1_14
REMARK    7  A    between atoms: N1_14  and  C10_15
REMARK    8  A    between atoms: C10_15  and  C11_16
REMARK    9  A    between atoms: C10_15  and  C12_17
REMARK   10  A    between atoms: C10_15  and  C13_18
REMARK   11  A    between atoms: C13_18  and  C14_19
REMARK   12  A    between atoms: C14_19  and  C15_20
REMARK   13  A    between atoms: C14_19  and  C16_21
REMARK   14  A    between atoms: C14_19  and  C17_22
REMARK                            x       y       z     vdW  Elec       q    Type
REMARK                         _______ _______ _______ _____ _____    ______ ____
ROOT
ATOM      1  C8  UNL     1       1.825   0.425 -22.497  0.00  0.00    +0.166 C 
ENDROOT
BRANCH   1   2
ATOM      2  O2  UNL     1       3.151   0.481 -23.047  0.00  0.00    -0.387 OA
ATOM      3  H7  UNL     1       3.077   0.974 -23.884  0.00  0.00    +0.210 HD
ENDBRANCH   1   2
BRANCH   1   4
ATOM      4  C7  UNL     1       1.139  -0.821 -23.081  0.00  0.00    +0.261 C 
BRANCH   4   5
ATOM      5  O1  UNL     1      -0.154  -0.962 -22.462  0.00  0.00    -0.488 OA
BRANCH   5   8
ATOM      6  C1  UNL     1      -1.372  -2.797 -21.467  0.00  0.00    +0.084 A 
ATOM      7 CL1  UNL     1      -1.983  -1.802 -20.197  0.00  0.00    -0.080 Cl
ATOM      8  C2  UNL     1      -0.546  -2.275 -22.470  0.00  0.00    +0.139 A 
ATOM      9  C3  UNL     1      -0.030  -3.110 -23.464  0.00  0.00    +0.048 A 
ATOM     10  C4  UNL     1      -0.368  -4.465 -23.472  0.00  0.00    +0.023 A 
ATOM     11  C5  UNL     1      -1.208  -4.978 -22.481  0.00  0.00    +0.043 A 
ATOM     12 CL2  UNL     1      -1.606  -6.653 -22.493  0.00  0.00    -0.083 Cl
ATOM     13  C6  UNL     1      -1.713  -4.150 -21.478  0.00  0.00    +0.043 A 
ENDBRANCH   5   8
ENDBRANCH   4   5
ENDBRANCH   1   4
BRANCH   1  14
ATOM     14  C9  UNL     1       1.881   0.370 -20.954  0.00  0.00    +0.116 C 
BRANCH  14  15
ATOM     15  N1  UNL     1       1.721  -0.948 -20.316  0.00  0.00    -0.308 NA
ATOM     16  H10 UNL     1       2.036  -1.642 -20.995  0.00  0.00    +0.123 HD
BRANCH  15  17
ATOM     17  C10 UNL     1       2.383  -1.239 -19.027  0.00  0.00    +0.014 C 
ATOM     18  C11 UNL     1       1.418  -1.873 -18.018  0.00  0.00    +0.027 C 
ATOM     19  C12 UNL     1       2.994   0.036 -18.401  0.00  0.00    +0.027 C 
BRANCH  17  20
ATOM     20  C13 UNL     1       3.593  -2.207 -19.313  0.00  0.00    +0.027 C 
BRANCH  20  21
ATOM     21  C14 UNL     1       3.482  -3.452 -20.255  0.00  0.00    -0.036 C 
ATOM     22  C15 UNL     1       2.056  -4.010 -20.385  0.00  0.00    +0.010 C 
ATOM     23  C16 UNL     1       3.939  -2.998 -21.663  0.00  0.00    +0.010 C 
ATOM     24  C17 UNL     1       4.428  -4.589 -19.823  0.00  0.00    +0.010 C 
ENDBRANCH  20  21
ENDBRANCH  17  20
ENDBRANCH  15  17
ENDBRANCH  14  15
ENDBRANCH   1  14
TORSDOF 9
ENDMDL
