MODEL 1
REMARK VINA RESULT:    -6.211      0.000      0.000
REMARK INTER + INTRA:          -7.198
REMARK INTER:                  -6.937
REMARK INTRA:                  -0.261
REMARK UNBOUND:                -0.261
REMARK  Name = /home/vital/Documents/PhD_2021/Malaria_codes/data/pdb_ligands_mmv/ligand_314.pdb
REMARK  2 active torsions:
REMARK  status: ('A' for Active; 'I' for Inactive)
REMARK    1  A    between atoms: C4_5  and  N1_6
REMARK    2  A    between atoms: N4_17  and  C13_18
REMARK                            x       y       z     vdW  Elec       q    Type
REMARK                         _______ _______ _______ _____ _____    ______ ____
ROOT
ATOM      1  N1  UNL     1       5.393  -2.576 -29.699  0.00  0.00    -0.297 N 
ATOM      2  C5  UNL     1       5.669  -1.612 -30.714  0.00  0.00    +0.164 A 
ATOM      3  N2  UNL     1       6.788  -0.855 -30.672  0.00  0.00    -0.227 NA
ATOM      4  C6  UNL     1       6.983   0.012 -31.680  0.00  0.00    +0.091 A 
ATOM      5  C7  UNL     1       8.123   0.806 -31.686  0.00  0.00    +0.030 A 
ATOM      6  C8  UNL     1       8.370   1.718 -32.712  0.00  0.00    +0.002 A 
ATOM      7  C9  UNL     1       7.458   1.841 -33.752  0.00  0.00    +0.002 A 
ATOM      8  C10 UNL     1       6.309   1.049 -33.756  0.00  0.00    +0.030 A 
ATOM      9  C11 UNL     1       6.054   0.137 -32.739  0.00  0.00    +0.091 A 
ATOM     10  N3  UNL     1       4.933  -0.603 -32.782  0.00  0.00    -0.227 NA
ATOM     11  C12 UNL     1       4.724  -1.470 -31.767  0.00  0.00    +0.164 A 
ATOM     12  N4  UNL     1       3.549  -2.278 -31.718  0.00  0.00    -0.297 N 
ATOM     13  H3  UNL     1       5.131  -3.442 -30.165  0.00  0.00    +0.154 HD
ATOM     14  H8  UNL     1       3.165  -2.202 -30.779  0.00  0.00    +0.154 HD
ENDROOT
BRANCH   1  19
ATOM     15 BR1  UNL     1       8.577  -3.376 -24.544  0.00  0.00    -0.050 Br
ATOM     16  C1  UNL     1       7.581  -3.145 -26.132  0.00  0.00    +0.018 A 
ATOM     17  C2  UNL     1       7.147  -1.875 -26.500  0.00  0.00    +0.017 A 
ATOM     18  C3  UNL     1       6.412  -1.709 -27.678  0.00  0.00    +0.024 A 
ATOM     19  C4  UNL     1       6.078  -2.806 -28.488  0.00  0.00    +0.033 A 
ATOM     20  C19 UNL     1       6.558  -4.068 -28.114  0.00  0.00    +0.024 A 
ATOM     21  C20 UNL     1       7.295  -4.243 -26.937  0.00  0.00    +0.017 A 
ENDBRANCH   1  19
BRANCH  12  22
ATOM     22  C13 UNL     1       2.545  -2.437 -32.696  0.00  0.00    +0.033 A 
ATOM     23  C14 UNL     1       1.524  -1.499 -32.898  0.00  0.00    +0.024 A 
ATOM     24  C15 UNL     1       0.587  -1.659 -33.925  0.00  0.00    +0.017 A 
ATOM     25  C16 UNL     1       0.679  -2.752 -34.780  0.00  0.00    +0.018 A 
ATOM     26 BR2  UNL     1      -0.583  -2.970 -36.170  0.00  0.00    -0.050 Br
ATOM     27  C17 UNL     1       1.704  -3.679 -34.623  0.00  0.00    +0.017 A 
ATOM     28  C18 UNL     1       2.637  -3.512 -33.594  0.00  0.00    +0.024 A 
ENDBRANCH  12  22
TORSDOF 2
ENDMDL
MODEL 2
REMARK VINA RESULT:    -6.207      0.031      7.380
REMARK INTER + INTRA:          -7.193
REMARK INTER:                  -6.922
REMARK INTRA:                  -0.271
REMARK UNBOUND:                -0.261
REMARK  Name = /home/vital/Documents/PhD_2021/Malaria_codes/data/pdb_ligands_mmv/ligand_314.pdb
REMARK  2 active torsions:
REMARK  status: ('A' for Active; 'I' for Inactive)
REMARK    1  A    between atoms: C4_5  and  N1_6
REMARK    2  A    between atoms: N4_17  and  C13_18
REMARK                            x       y       z     vdW  Elec       q    Type
REMARK                         _______ _______ _______ _____ _____    ______ ____
ROOT
ATOM      1  N1  UNL     1       3.521  -2.267 -31.725  0.00  0.00    -0.297 N 
ATOM      2  C5  UNL     1       4.699  -1.464 -31.773  0.00  0.00    +0.164 A 
ATOM      3  N2  UNL     1       4.912  -0.597 -32.788  0.00  0.00    -0.227 NA
ATOM      4  C6  UNL     1       6.036   0.138 -32.744  0.00  0.00    +0.091 A 
ATOM      5  C7  UNL     1       6.295   1.049 -33.760  0.00  0.00    +0.030 A 
ATOM      6  C8  UNL     1       7.447   1.837 -33.755  0.00  0.00    +0.002 A 
ATOM      7  C9  UNL     1       8.359   1.710 -32.715  0.00  0.00    +0.002 A 
ATOM      8  C10 UNL     1       8.109   0.797 -31.690  0.00  0.00    +0.030 A 
ATOM      9  C11 UNL     1       6.964   0.008 -31.684  0.00  0.00    +0.091 A 
ATOM     10  N3  UNL     1       6.766  -0.860 -30.677  0.00  0.00    -0.227 NA
ATOM     11  C12 UNL     1       5.644  -1.611 -30.720  0.00  0.00    +0.164 A 
ATOM     12  N4  UNL     1       5.363  -2.575 -29.706  0.00  0.00    -0.297 N 
ATOM     13  H3  UNL     1       3.137  -2.190 -30.786  0.00  0.00    +0.154 HD
ATOM     14  H8  UNL     1       5.097  -3.439 -30.172  0.00  0.00    +0.154 HD
ENDROOT
BRANCH   1  19
ATOM     15 BR1  UNL     1      -0.617  -2.937 -36.174  0.00  0.00    -0.050 Br
ATOM     16  C1  UNL     1       0.647  -2.726 -34.785  0.00  0.00    +0.018 A 
ATOM     17  C2  UNL     1       1.675  -3.653 -34.636  0.00  0.00    +0.017 A 
ATOM     18  C3  UNL     1       2.609  -3.491 -33.608  0.00  0.00    +0.024 A 
ATOM     19  C4  UNL     1       2.516  -2.422 -32.702  0.00  0.00    +0.033 A 
ATOM     20  C19 UNL     1       1.494  -1.484 -32.897  0.00  0.00    +0.024 A 
ATOM     21  C20 UNL     1       0.555  -1.639 -33.923  0.00  0.00    +0.017 A 
ENDBRANCH   1  19
BRANCH  12  22
ATOM     22  C13 UNL     1       6.048  -2.809 -28.496  0.00  0.00    +0.033 A 
ATOM     23  C14 UNL     1       6.542  -4.068 -28.131  0.00  0.00    +0.024 A 
ATOM     24  C15 UNL     1       7.277  -4.244 -26.954  0.00  0.00    +0.017 A 
ATOM     25  C16 UNL     1       7.549  -3.150 -26.139  0.00  0.00    +0.018 A 
ATOM     26 BR2  UNL     1       8.545  -3.384 -24.550  0.00  0.00    -0.050 Br
ATOM     27  C17 UNL     1       7.102  -1.883 -26.496  0.00  0.00    +0.017 A 
ATOM     28  C18 UNL     1       6.367  -1.715 -27.675  0.00  0.00    +0.024 A 
ENDBRANCH  12  22
TORSDOF 2
ENDMDL
MODEL 3
REMARK VINA RESULT:    -5.785     13.620     14.974
REMARK INTER + INTRA:          -6.722
REMARK INTER:                  -6.372
REMARK INTRA:                  -0.351
REMARK UNBOUND:                -0.261
REMARK  Name = /home/vital/Documents/PhD_2021/Malaria_codes/data/pdb_ligands_mmv/ligand_314.pdb
REMARK  2 active torsions:
REMARK  status: ('A' for Active; 'I' for Inactive)
REMARK    1  A    between atoms: C4_5  and  N1_6
REMARK    2  A    between atoms: N4_17  and  C13_18
REMARK                            x       y       z     vdW  Elec       q    Type
REMARK                         _______ _______ _______ _____ _____    ______ ____
ROOT
ATOM      1  N1  UNL     1      -0.621   5.431 -20.114  0.00  0.00    -0.297 N 
ATOM      2  C5  UNL     1      -1.789   5.763 -20.862  0.00  0.00    +0.164 A 
ATOM      3  N2  UNL     1      -2.028   7.033 -21.258  0.00  0.00    -0.227 NA
ATOM      4  C6  UNL     1      -3.141   7.255 -21.978  0.00  0.00    +0.091 A 
ATOM      5  C7  UNL     1      -3.424   8.543 -22.415  0.00  0.00    +0.030 A 
ATOM      6  C8  UNL     1      -4.565   8.821 -23.168  0.00  0.00    +0.002 A 
ATOM      7  C9  UNL     1      -5.441   7.792 -23.489  0.00  0.00    +0.002 A 
ATOM      8  C10 UNL     1      -5.166   6.495 -23.054  0.00  0.00    +0.030 A 
ATOM      9  C11 UNL     1      -4.033   6.207 -22.304  0.00  0.00    +0.091 A 
ATOM     10  N3  UNL     1      -3.810   4.943 -21.904  0.00  0.00    -0.227 NA
ATOM     11  C12 UNL     1      -2.699   4.713 -21.170  0.00  0.00    +0.164 A 
ATOM     12  N4  UNL     1      -2.395   3.407 -20.683  0.00  0.00    -0.297 N 
ATOM     13  H3  UNL     1      -0.203   4.611 -20.549  0.00  0.00    +0.154 HD
ATOM     14  H8  UNL     1      -2.156   3.497 -19.698  0.00  0.00    +0.154 HD
ENDROOT
BRANCH   1  19
ATOM     15 BR1  UNL     1       3.349   9.339 -17.599  0.00  0.00    -0.050 Br
ATOM     16  C1  UNL     1       2.138   8.122 -18.387  0.00  0.00    +0.018 A 
ATOM     17  C2  UNL     1       1.172   7.499 -17.602  0.00  0.00    +0.017 A 
ATOM     18  C3  UNL     1       0.276   6.600 -18.190  0.00  0.00    +0.024 A 
ATOM     19  C4  UNL     1       0.348   6.292 -19.558  0.00  0.00    +0.033 A 
ATOM     20  C19 UNL     1       1.305   6.961 -20.332  0.00  0.00    +0.024 A 
ATOM     21  C20 UNL     1       2.205   7.861 -19.751  0.00  0.00    +0.017 A 
ENDBRANCH   1  19
BRANCH  12  22
ATOM     22  C13 UNL     1      -3.040   2.186 -20.968  0.00  0.00    +0.033 A 
ATOM     23  C14 UNL     1      -3.182   1.684 -22.268  0.00  0.00    +0.024 A 
ATOM     24  C15 UNL     1      -3.766   0.435 -22.502  0.00  0.00    +0.017 A 
ATOM     25  C16 UNL     1      -4.193  -0.340 -21.430  0.00  0.00    +0.018 A 
ATOM     26 BR2  UNL     1      -4.980  -2.030 -21.743  0.00  0.00    -0.050 Br
ATOM     27  C17 UNL     1      -4.031   0.118 -20.127  0.00  0.00    +0.017 A 
ATOM     28  C18 UNL     1      -3.446   1.369 -19.900  0.00  0.00    +0.024 A 
ENDBRANCH  12  22
TORSDOF 2
ENDMDL
MODEL 4
REMARK VINA RESULT:    -5.782     13.613     15.891
REMARK INTER + INTRA:          -6.718
REMARK INTER:                  -6.374
REMARK INTRA:                  -0.344
REMARK UNBOUND:                -0.261
REMARK  Name = /home/vital/Documents/PhD_2021/Malaria_codes/data/pdb_ligands_mmv/ligand_314.pdb
REMARK  2 active torsions:
REMARK  status: ('A' for Active; 'I' for Inactive)
REMARK    1  A    between atoms: C4_5  and  N1_6
REMARK    2  A    between atoms: N4_17  and  C13_18
REMARK                            x       y       z     vdW  Elec       q    Type
REMARK                         _______ _______ _______ _____ _____    ______ ____
ROOT
ATOM      1  N1  UNL     1      -2.417   3.395 -20.713  0.00  0.00    -0.297 N 
ATOM      2  C5  UNL     1      -2.718   4.703 -21.194  0.00  0.00    +0.164 A 
ATOM      3  N2  UNL     1      -3.828   4.939 -21.927  0.00  0.00    -0.227 NA
ATOM      4  C6  UNL     1      -4.048   6.205 -22.321  0.00  0.00    +0.091 A 
ATOM      5  C7  UNL     1      -5.182   6.499 -23.070  0.00  0.00    +0.030 A 
ATOM      6  C8  UNL     1      -5.454   7.799 -23.498  0.00  0.00    +0.002 A 
ATOM      7  C9  UNL     1      -4.576   8.824 -23.173  0.00  0.00    +0.002 A 
ATOM      8  C10 UNL     1      -3.435   8.540 -22.422  0.00  0.00    +0.030 A 
ATOM      9  C11 UNL     1      -3.155   7.250 -21.990  0.00  0.00    +0.091 A 
ATOM     10  N3  UNL     1      -2.042   7.022 -21.271  0.00  0.00    -0.227 NA
ATOM     11  C12 UNL     1      -1.807   5.750 -20.881  0.00  0.00    +0.164 A 
ATOM     12  N4  UNL     1      -0.639   5.412 -20.135  0.00  0.00    -0.297 N 
ATOM     13  H3  UNL     1      -2.178   3.479 -19.727  0.00  0.00    +0.154 HD
ATOM     14  H8  UNL     1      -0.223   4.593 -20.573  0.00  0.00    +0.154 HD
ENDROOT
BRANCH   1  19
ATOM     15 BR1  UNL     1      -5.006  -2.033 -21.807  0.00  0.00    -0.050 Br
ATOM     16  C1  UNL     1      -4.218  -0.347 -21.483  0.00  0.00    +0.018 A 
ATOM     17  C2  UNL     1      -4.020   0.086 -20.175  0.00  0.00    +0.017 A 
ATOM     18  C3  UNL     1      -3.435   1.335 -19.941  0.00  0.00    +0.024 A 
ATOM     19  C4  UNL     1      -3.064   2.175 -21.003  0.00  0.00    +0.033 A 
ATOM     20  C19 UNL     1      -3.241   1.700 -22.308  0.00  0.00    +0.024 A 
ATOM     21  C20 UNL     1      -3.826   0.452 -22.552  0.00  0.00    +0.017 A 
ENDBRANCH   1  19
BRANCH  12  22
ATOM     22  C13 UNL     1       0.331   6.269 -19.575  0.00  0.00    +0.033 A 
ATOM     23  C14 UNL     1       1.310   6.914 -20.341  0.00  0.00    +0.024 A 
ATOM     24  C15 UNL     1       2.211   7.812 -19.758  0.00  0.00    +0.017 A 
ATOM     25  C16 UNL     1       2.123   8.094 -18.399  0.00  0.00    +0.018 A 
ATOM     26 BR2  UNL     1       3.335   9.309 -17.608  0.00  0.00    -0.050 Br
ATOM     27  C17 UNL     1       1.137   7.495 -17.623  0.00  0.00    +0.017 A 
ATOM     28  C18 UNL     1       0.240   6.598 -18.213  0.00  0.00    +0.024 A 
ENDBRANCH  12  22
TORSDOF 2
ENDMDL
MODEL 5
REMARK VINA RESULT:    -5.368     12.193     14.366
REMARK INTER + INTRA:          -6.257
REMARK INTER:                  -6.037
REMARK INTRA:                  -0.220
REMARK UNBOUND:                -0.261
REMARK  Name = /home/vital/Documents/PhD_2021/Malaria_codes/data/pdb_ligands_mmv/ligand_314.pdb
REMARK  2 active torsions:
REMARK  status: ('A' for Active; 'I' for Inactive)
REMARK    1  A    between atoms: C4_5  and  N1_6
REMARK    2  A    between atoms: N4_17  and  C13_18
REMARK                            x       y       z     vdW  Elec       q    Type
REMARK                         _______ _______ _______ _____ _____    ______ ____
ROOT
ATOM      1  N1  UNL     1      -6.570  -0.333 -24.571  0.00  0.00    -0.297 N 
ATOM      2  C5  UNL     1      -5.752  -1.056 -23.654  0.00  0.00    +0.164 A 
ATOM      3  N2  UNL     1      -5.418  -0.534 -22.453  0.00  0.00    -0.227 NA
ATOM      4  C6  UNL     1      -4.662  -1.291 -21.640  0.00  0.00    +0.091 A 
ATOM      5  C7  UNL     1      -4.301  -0.800 -20.392  0.00  0.00    +0.030 A 
ATOM      6  C8  UNL     1      -3.521  -1.552 -19.512  0.00  0.00    +0.002 A 
ATOM      7  C9  UNL     1      -3.092  -2.818 -19.888  0.00  0.00    +0.002 A 
ATOM      8  C10 UNL     1      -3.448  -3.320 -21.140  0.00  0.00    +0.030 A 
ATOM      9  C11 UNL     1      -4.226  -2.581 -22.024  0.00  0.00    +0.091 A 
ATOM     10  N3  UNL     1      -4.543  -3.104 -23.221  0.00  0.00    -0.227 NA
ATOM     11  C12 UNL     1      -5.293  -2.344 -24.049  0.00  0.00    +0.164 A 
ATOM     12  N4  UNL     1      -5.657  -2.809 -25.348  0.00  0.00    -0.297 N 
ATOM     13  H3  UNL     1      -7.295  -0.968 -24.900  0.00  0.00    +0.154 HD
ATOM     14  H8  UNL     1      -5.460  -2.058 -26.006  0.00  0.00    +0.154 HD
ENDROOT
BRANCH   1  19
ATOM     15 BR1  UNL     1      -8.732   5.383 -24.449  0.00  0.00    -0.050 Br
ATOM     16  C1  UNL     1      -8.048   3.622 -24.474  0.00  0.00    +0.018 A 
ATOM     17  C2  UNL     1      -8.912   2.541 -24.323  0.00  0.00    +0.017 A 
ATOM     18  C3  UNL     1      -8.401   1.239 -24.344  0.00  0.00    +0.024 A 
ATOM     19  C4  UNL     1      -7.025   0.999 -24.489  0.00  0.00    +0.033 A 
ATOM     20  C19 UNL     1      -6.183   2.103 -24.676  0.00  0.00    +0.024 A 
ATOM     21  C20 UNL     1      -6.686   3.409 -24.656  0.00  0.00    +0.017 A 
ENDBRANCH   1  19
BRANCH  12  22
ATOM     22  C13 UNL     1      -5.462  -4.085 -25.916  0.00  0.00    +0.033 A 
ATOM     23  C14 UNL     1      -5.667  -5.274 -25.206  0.00  0.00    +0.024 A 
ATOM     24  C15 UNL     1      -5.530  -6.521 -25.826  0.00  0.00    +0.017 A 
ATOM     25  C16 UNL     1      -5.211  -6.588 -27.178  0.00  0.00    +0.018 A 
ATOM     26 BR2  UNL     1      -5.030  -8.270 -28.020  0.00  0.00    -0.050 Br
ATOM     27  C17 UNL     1      -5.038  -5.422 -27.915  0.00  0.00    +0.017 A 
ATOM     28  C18 UNL     1      -5.176  -4.179 -27.287  0.00  0.00    +0.024 A 
ENDBRANCH  12  22
TORSDOF 2
ENDMDL
MODEL 6
REMARK VINA RESULT:    -5.206      3.270      5.838
REMARK INTER + INTRA:          -6.075
REMARK INTER:                  -5.728
REMARK INTRA:                  -0.347
REMARK UNBOUND:                -0.261
REMARK  Name = /home/vital/Documents/PhD_2021/Malaria_codes/data/pdb_ligands_mmv/ligand_314.pdb
REMARK  2 active torsions:
REMARK  status: ('A' for Active; 'I' for Inactive)
REMARK    1  A    between atoms: C4_5  and  N1_6
REMARK    2  A    between atoms: N4_17  and  C13_18
REMARK                            x       y       z     vdW  Elec       q    Type
REMARK                         _______ _______ _______ _____ _____    ______ ____
ROOT
ATOM      1  N1  UNL     1       5.127  -3.523 -28.775  0.00  0.00    -0.297 N 
ATOM      2  C5  UNL     1       3.887  -4.204 -28.598  0.00  0.00    +0.164 A 
ATOM      3  N2  UNL     1       3.504  -4.655 -27.383  0.00  0.00    -0.227 NA
ATOM      4  C6  UNL     1       2.311  -5.267 -27.300  0.00  0.00    +0.091 A 
ATOM      5  C7  UNL     1       1.870  -5.739 -26.070  0.00  0.00    +0.030 A 
ATOM      6  C8  UNL     1       0.637  -6.377 -25.935  0.00  0.00    +0.002 A 
ATOM      7  C9  UNL     1      -0.172  -6.547 -27.051  0.00  0.00    +0.002 A 
ATOM      8  C10 UNL     1       0.261  -6.077 -28.291  0.00  0.00    +0.030 A 
ATOM      9  C11 UNL     1       1.487  -5.440 -28.437  0.00  0.00    +0.091 A 
ATOM     10  N3  UNL     1       1.865  -5.005 -29.652  0.00  0.00    -0.227 NA
ATOM     11  C12 UNL     1       3.069  -4.400 -29.746  0.00  0.00    +0.164 A 
ATOM     12  N4  UNL     1       3.561  -3.928 -30.999  0.00  0.00    -0.297 N 
ATOM     13  H3  UNL     1       4.940  -2.684 -29.320  0.00  0.00    +0.154 HD
ATOM     14  H8  UNL     1       4.521  -4.253 -31.092  0.00  0.00    +0.154 HD
ENDROOT
BRANCH   1  19
ATOM     15 BR1  UNL     1       9.494  -2.863 -24.549  0.00  0.00    -0.050 Br
ATOM     16  C1  UNL     1       8.154  -3.053 -25.867  0.00  0.00    +0.018 A 
ATOM     17  C2  UNL     1       7.720  -4.323 -26.237  0.00  0.00    +0.017 A 
ATOM     18  C3  UNL     1       6.726  -4.458 -27.212  0.00  0.00    +0.024 A 
ATOM     19  C4  UNL     1       6.173  -3.335 -27.847  0.00  0.00    +0.033 A 
ATOM     20  C19 UNL     1       6.601  -2.068 -27.431  0.00  0.00    +0.024 A 
ATOM     21  C20 UNL     1       7.595  -1.923 -26.456  0.00  0.00    +0.017 A 
ENDBRANCH   1  19
BRANCH  12  22
ATOM     22  C13 UNL     1       2.896  -3.863 -32.241  0.00  0.00    +0.033 A 
ATOM     23  C14 UNL     1       2.787  -4.961 -33.105  0.00  0.00    +0.024 A 
ATOM     24  C15 UNL     1       2.059  -4.874 -34.296  0.00  0.00    +0.017 A 
ATOM     25  C16 UNL     1       1.408  -3.690 -34.624  0.00  0.00    +0.018 A 
ATOM     26 BR2  UNL     1       0.421  -3.571 -36.231  0.00  0.00    -0.050 Br
ATOM     27  C17 UNL     1       1.470  -2.597 -33.767  0.00  0.00    +0.017 A 
ATOM     28  C18 UNL     1       2.201  -2.691 -32.577  0.00  0.00    +0.024 A 
ENDBRANCH  12  22
TORSDOF 2
ENDMDL
MODEL 7
REMARK VINA RESULT:    -5.178     12.924     14.499
REMARK INTER + INTRA:          -6.045
REMARK INTER:                  -5.606
REMARK INTRA:                  -0.439
REMARK UNBOUND:                -0.261
REMARK  Name = /home/vital/Documents/PhD_2021/Malaria_codes/data/pdb_ligands_mmv/ligand_314.pdb
REMARK  2 active torsions:
REMARK  status: ('A' for Active; 'I' for Inactive)
REMARK    1  A    between atoms: C4_5  and  N1_6
REMARK    2  A    between atoms: N4_17  and  C13_18
REMARK                            x       y       z     vdW  Elec       q    Type
REMARK                         _______ _______ _______ _____ _____    ______ ____
ROOT
ATOM      1  N1  UNL     1      -0.411   3.862 -18.706  0.00  0.00    -0.297 N 
ATOM      2  C5  UNL     1       0.199   2.580 -18.846  0.00  0.00    +0.164 A 
ATOM      3  N2  UNL     1       1.455   2.352 -18.402  0.00  0.00    -0.227 NA
ATOM      4  C6  UNL     1       1.945   1.110 -18.552  0.00  0.00    +0.091 A 
ATOM      5  C7  UNL     1       3.229   0.825 -18.103  0.00  0.00    +0.030 A 
ATOM      6  C8  UNL     1       3.779  -0.451 -18.234  0.00  0.00    +0.002 A 
ATOM      7  C9  UNL     1       3.032  -1.461 -18.827  0.00  0.00    +0.002 A 
ATOM      8  C10 UNL     1       1.743  -1.185 -19.282  0.00  0.00    +0.030 A 
ATOM      9  C11 UNL     1       1.185   0.082 -19.156  0.00  0.00    +0.091 A 
ATOM     10  N3  UNL     1      -0.061   0.303 -19.611  0.00  0.00    -0.227 NA
ATOM     11  C12 UNL     1      -0.557   1.552 -19.475  0.00  0.00    +0.164 A 
ATOM     12  N4  UNL     1      -1.861   1.883 -19.951  0.00  0.00    -0.297 N 
ATOM     13  H3  UNL     1      -1.343   3.717 -18.325  0.00  0.00    +0.154 HD
ATOM     14  H8  UNL     1      -1.781   2.748 -20.481  0.00  0.00    +0.154 HD
ENDROOT
BRANCH   1  19
ATOM     15 BR1  UNL     1       2.333   9.034 -16.949  0.00  0.00    -0.050 Br
ATOM     16  C1  UNL     1       1.470   7.438 -17.478  0.00  0.00    +0.018 A 
ATOM     17  C2  UNL     1       1.298   7.159 -18.831  0.00  0.00    +0.017 A 
ATOM     18  C3  UNL     1       0.660   5.975 -19.217  0.00  0.00    +0.024 A 
ATOM     19  C4  UNL     1       0.165   5.071 -18.264  0.00  0.00    +0.033 A 
ATOM     20  C19 UNL     1       0.383   5.359 -16.911  0.00  0.00    +0.024 A 
ATOM     21  C20 UNL     1       1.020   6.541 -16.515  0.00  0.00    +0.017 A 
ENDBRANCH   1  19
BRANCH  12  22
ATOM     22  C13 UNL     1      -2.856   1.028 -20.467  0.00  0.00    +0.033 A 
ATOM     23  C14 UNL     1      -3.557   0.110 -19.675  0.00  0.00    +0.024 A 
ATOM     24  C15 UNL     1      -4.586  -0.671 -20.211  0.00  0.00    +0.017 A 
ATOM     25  C16 UNL     1      -4.943  -0.521 -21.547  0.00  0.00    +0.018 A 
ATOM     26 BR2  UNL     1      -6.336  -1.572 -22.274  0.00  0.00    -0.050 Br
ATOM     27  C17 UNL     1      -4.288   0.410 -22.346  0.00  0.00    +0.017 A 
ATOM     28  C18 UNL     1      -3.260   1.187 -21.802  0.00  0.00    +0.024 A 
ENDBRANCH  12  22
TORSDOF 2
ENDMDL
MODEL 8
REMARK VINA RESULT:    -5.171     12.909     15.566
REMARK INTER + INTRA:          -6.036
REMARK INTER:                  -5.614
REMARK INTRA:                  -0.422
REMARK UNBOUND:                -0.261
REMARK  Name = /home/vital/Documents/PhD_2021/Malaria_codes/data/pdb_ligands_mmv/ligand_314.pdb
REMARK  2 active torsions:
REMARK  status: ('A' for Active; 'I' for Inactive)
REMARK    1  A    between atoms: C4_5  and  N1_6
REMARK    2  A    between atoms: N4_17  and  C13_18
REMARK                            x       y       z     vdW  Elec       q    Type
REMARK                         _______ _______ _______ _____ _____    ______ ____
ROOT
ATOM      1  N1  UNL     1      -1.822   1.844 -19.931  0.00  0.00    -0.297 N 
ATOM      2  C5  UNL     1      -0.514   1.520 -19.463  0.00  0.00    +0.164 A 
ATOM      3  N2  UNL     1      -0.010   0.275 -19.606  0.00  0.00    -0.227 NA
ATOM      4  C6  UNL     1       1.239   0.061 -19.158  0.00  0.00    +0.091 A 
ATOM      5  C7  UNL     1       1.804  -1.202 -19.291  0.00  0.00    +0.030 A 
ATOM      6  C8  UNL     1       3.098  -1.470 -18.844  0.00  0.00    +0.002 A 
ATOM      7  C9  UNL     1       3.842  -0.458 -18.252  0.00  0.00    +0.002 A 
ATOM      8  C10 UNL     1       3.284   0.813 -18.113  0.00  0.00    +0.030 A 
ATOM      9  C11 UNL     1       1.996   1.092 -18.555  0.00  0.00    +0.091 A 
ATOM     10  N3  UNL     1       1.498   2.331 -18.398  0.00  0.00    -0.227 NA
ATOM     11  C12 UNL     1       0.239   2.551 -18.835  0.00  0.00    +0.164 A 
ATOM     12  N4  UNL     1      -0.379   3.829 -18.688  0.00  0.00    -0.297 N 
ATOM     13  H3  UNL     1      -1.751   2.711 -20.460  0.00  0.00    +0.154 HD
ATOM     14  H8  UNL     1      -1.308   3.676 -18.303  0.00  0.00    +0.154 HD
ENDROOT
BRANCH   1  19
ATOM     15 BR1  UNL     1      -6.291  -1.633 -22.233  0.00  0.00    -0.050 Br
ATOM     16  C1  UNL     1      -4.901  -0.575 -21.513  0.00  0.00    +0.018 A 
ATOM     17  C2  UNL     1      -4.275   0.381 -22.307  0.00  0.00    +0.017 A 
ATOM     18  C3  UNL     1      -3.248   1.163 -21.769  0.00  0.00    +0.024 A 
ATOM     19  C4  UNL     1      -2.815   0.985 -20.445  0.00  0.00    +0.033 A 
ATOM     20  C19 UNL     1      -3.487   0.042 -19.657  0.00  0.00    +0.024 A 
ATOM     21  C20 UNL     1      -4.515  -0.745 -20.187  0.00  0.00    +0.017 A 
ENDBRANCH   1  19
BRANCH  12  22
ATOM     22  C13 UNL     1       0.192   5.040 -18.245  0.00  0.00    +0.033 A 
ATOM     23  C14 UNL     1       0.471   5.302 -16.898  0.00  0.00    +0.024 A 
ATOM     24  C15 UNL     1       1.102   6.488 -16.507  0.00  0.00    +0.017 A 
ATOM     25  C16 UNL     1       1.484   7.417 -17.469  0.00  0.00    +0.018 A 
ATOM     26 BR2  UNL     1       2.339   9.019 -16.944  0.00  0.00    -0.050 Br
ATOM     27  C17 UNL     1       1.251   7.165 -18.816  0.00  0.00    +0.017 A 
ATOM     28  C18 UNL     1       0.620   5.977 -19.199  0.00  0.00    +0.024 A 
ENDBRANCH  12  22
TORSDOF 2
ENDMDL
MODEL 9
REMARK VINA RESULT:    -5.078      3.186      9.174
REMARK INTER + INTRA:          -5.932
REMARK INTER:                  -5.593
REMARK INTRA:                  -0.340
REMARK UNBOUND:                -0.261
REMARK  Name = /home/vital/Documents/PhD_2021/Malaria_codes/data/pdb_ligands_mmv/ligand_314.pdb
REMARK  2 active torsions:
REMARK  status: ('A' for Active; 'I' for Inactive)
REMARK    1  A    between atoms: C4_5  and  N1_6
REMARK    2  A    between atoms: N4_17  and  C13_18
REMARK                            x       y       z     vdW  Elec       q    Type
REMARK                         _______ _______ _______ _____ _____    ______ ____
ROOT
ATOM      1  N1  UNL     1       3.450  -3.556 -30.988  0.00  0.00    -0.297 N 
ATOM      2  C5  UNL     1       2.998  -4.140 -29.768  0.00  0.00    +0.164 A 
ATOM      3  N2  UNL     1       1.810  -4.781 -29.698  0.00  0.00    -0.227 NA
ATOM      4  C6  UNL     1       1.471  -5.322 -28.516  0.00  0.00    +0.091 A 
ATOM      5  C7  UNL     1       0.264  -6.000 -28.397  0.00  0.00    +0.030 A 
ATOM      6  C8  UNL     1      -0.129  -6.581 -27.191  0.00  0.00    +0.002 A 
ATOM      7  C9  UNL     1       0.700  -6.481 -26.081  0.00  0.00    +0.002 A 
ATOM      8  C10 UNL     1       1.914  -5.802 -26.189  0.00  0.00    +0.030 A 
ATOM      9  C11 UNL     1       2.315  -5.221 -27.385  0.00  0.00    +0.091 A 
ATOM     10  N3  UNL     1       3.492  -4.574 -27.442  0.00  0.00    -0.227 NA
ATOM     11  C12 UNL     1       3.836  -4.017 -28.625  0.00  0.00    +0.164 A 
ATOM     12  N4  UNL     1       5.056  -3.291 -28.770  0.00  0.00    -0.297 N 
ATOM     13  H3  UNL     1       4.415  -3.847 -31.127  0.00  0.00    +0.154 HD
ATOM     14  H8  UNL     1       4.835  -2.416 -29.242  0.00  0.00    +0.154 HD
ENDROOT
BRANCH   1  19
ATOM     15 BR1  UNL     1       0.185  -2.885 -36.112  0.00  0.00    -0.050 Br
ATOM     16  C1  UNL     1       1.211  -3.098 -34.540  0.00  0.00    +0.018 A 
ATOM     17  C2  UNL     1       1.173  -2.121 -33.549  0.00  0.00    +0.017 A 
ATOM     18  C3  UNL     1       1.932  -2.284 -32.386  0.00  0.00    +0.024 A 
ATOM     19  C4  UNL     1       2.756  -3.407 -32.207  0.00  0.00    +0.033 A 
ATOM     20  C19 UNL     1       2.748  -4.392 -33.202  0.00  0.00    +0.024 A 
ATOM     21  C20 UNL     1       1.991  -4.237 -34.370  0.00  0.00    +0.017 A 
ENDBRANCH   1  19
BRANCH  12  22
ATOM     22  C13 UNL     1       6.116  -3.152 -27.852  0.00  0.00    +0.033 A 
ATOM     23  C14 UNL     1       6.545  -1.911 -27.365  0.00  0.00    +0.024 A 
ATOM     24  C15 UNL     1       7.554  -1.820 -26.401  0.00  0.00    +0.017 A 
ATOM     25  C16 UNL     1       8.130  -2.979 -25.893  0.00  0.00    +0.018 A 
ATOM     26 BR2  UNL     1       9.492  -2.861 -24.588  0.00  0.00    -0.050 Br
ATOM     27  C17 UNL     1       7.698  -4.226 -26.332  0.00  0.00    +0.017 A 
ATOM     28  C18 UNL     1       6.688  -4.308 -27.297  0.00  0.00    +0.024 A 
ENDBRANCH  12  22
TORSDOF 2
ENDMDL
