MODEL 1
REMARK VINA RESULT:    -6.411      0.000      0.000
REMARK INTER + INTRA:         -10.132
REMARK INTER:                  -8.660
REMARK INTRA:                  -1.473
REMARK UNBOUND:                -1.473
REMARK  Name = /home/vital/Documents/PhD_2021/Malaria_codes/data/pdb_ligands_mmv/ligand_280.pdb
REMARK  9 active torsions:
REMARK  status: ('A' for Active; 'I' for Inactive)
REMARK    1  A    between atoms: C1_1  and  C2_2
REMARK    2  A    between atoms: C2_2  and  O1_3
REMARK    3  A    between atoms: O1_3  and  C3_4
REMARK    4  A    between atoms: C3_4  and  C4_6
REMARK    5  A    between atoms: C7_10  and  C8_11
REMARK    6  A    between atoms: C13_16  and  N2_17
REMARK    7  A    between atoms: N2_17  and  C14_18
REMARK    8  A    between atoms: C17_21  and  C20_24
REMARK    9  A    between atoms: C20_24  and  C21_26
REMARK                            x       y       z     vdW  Elec       q    Type
REMARK                         _______ _______ _______ _____ _____    ______ ____
ROOT
ATOM      1  C4  UNL     1       1.142   6.686 -19.268  0.00  0.00    +0.099 A 
ATOM      2  C5  UNL     1       1.615   7.128 -20.490  0.00  0.00    +0.128 A 
ATOM      3  N1  UNL     1       2.417   8.206 -20.647  0.00  0.00    -0.254 NA
ATOM      4  C6  UNL     1       2.806   8.894 -19.557  0.00  0.00    +0.076 A 
ATOM      5  C7  UNL     1       3.650  10.003 -19.712  0.00  0.00    -0.024 A 
ATOM      6  C8  UNL     1       4.103  10.416 -21.089  0.00  0.00    +0.046 C 
ATOM      7  C9  UNL     1       4.090  10.737 -18.600  0.00  0.00    +0.005 A 
ATOM      8  C10 UNL     1       3.698  10.370 -17.321  0.00  0.00    +0.001 A 
ATOM      9  C11 UNL     1       2.858   9.274 -17.153  0.00  0.00    +0.012 A 
ATOM     10  C12 UNL     1       2.388   8.526 -18.257  0.00  0.00    +0.023 A 
ATOM     11  C13 UNL     1       1.525   7.399 -18.119  0.00  0.00    +0.056 A 
ENDROOT
BRANCH   1  12
ATOM     12  C3  UNL     1       0.291   5.479 -19.181  0.00  0.00    +0.342 C 
ATOM     13  O2  UNL     1       0.720   4.348 -19.359  0.00  0.00    -0.245 OA
BRANCH  12  14
ATOM     14  O1  UNL     1      -0.986   5.811 -18.873  0.00  0.00    -0.461 OA
BRANCH  14  16
ATOM     15  C1  UNL     1      -2.601   5.418 -17.111  0.00  0.00    +0.048 C 
ATOM     16  C2  UNL     1      -1.755   4.797 -18.208  0.00  0.00    +0.229 C 
ENDBRANCH  14  16
ENDBRANCH  12  14
ENDBRANCH   1  12
BRANCH  11  17
ATOM     17  N2  UNL     1       0.981   7.055 -16.841  0.00  0.00    -0.313 N 
ATOM     18  H13 UNL     1       0.701   7.911 -16.340  0.00  0.00    +0.152 HD
BRANCH  17  19
ATOM     19  C14 UNL     1       1.566   6.168 -15.897  0.00  0.00    +0.031 A 
ATOM     20  C15 UNL     1       2.928   5.844 -15.887  0.00  0.00    +0.024 A 
ATOM     21  C16 UNL     1       3.444   4.918 -14.969  0.00  0.00    +0.013 A 
ATOM     22  C17 UNL     1       2.598   4.288 -14.053  0.00  0.00    +0.017 A 
ATOM     23  C18 UNL     1       1.232   4.589 -14.071  0.00  0.00    +0.013 A 
ATOM     24  C19 UNL     1       0.723   5.513 -14.990  0.00  0.00    +0.024 A 
BRANCH  22  25
ATOM     25  C20 UNL     1       3.096   3.294 -13.056  0.00  0.00    +0.160 C 
ATOM     26  O3  UNL     1       2.409   3.007 -12.078  0.00  0.00    -0.292 OA
ATOM     27  C21 UNL     1       4.445   2.658 -13.273  0.00  0.00    +0.091 C 
ENDBRANCH  22  25
ENDBRANCH  17  19
ENDBRANCH  11  17
TORSDOF 6
ENDMDL
MODEL 2
REMARK VINA RESULT:    -6.278      0.823      1.275
REMARK INTER + INTRA:          -9.953
REMARK INTER:                  -8.143
REMARK INTRA:                  -1.810
REMARK UNBOUND:                -1.473
REMARK  Name = /home/vital/Documents/PhD_2021/Malaria_codes/data/pdb_ligands_mmv/ligand_280.pdb
REMARK  9 active torsions:
REMARK  status: ('A' for Active; 'I' for Inactive)
REMARK    1  A    between atoms: C1_1  and  C2_2
REMARK    2  A    between atoms: C2_2  and  O1_3
REMARK    3  A    between atoms: O1_3  and  C3_4
REMARK    4  A    between atoms: C3_4  and  C4_6
REMARK    5  A    between atoms: C7_10  and  C8_11
REMARK    6  A    between atoms: C13_16  and  N2_17
REMARK    7  A    between atoms: N2_17  and  C14_18
REMARK    8  A    between atoms: C17_21  and  C20_24
REMARK    9  A    between atoms: C20_24  and  C21_26
REMARK                            x       y       z     vdW  Elec       q    Type
REMARK                         _______ _______ _______ _____ _____    ______ ____
ROOT
ATOM      1  C4  UNL     1       1.065   6.750 -19.194  0.00  0.00    +0.099 A 
ATOM      2  C5  UNL     1       1.494   7.090 -20.464  0.00  0.00    +0.128 A 
ATOM      3  N1  UNL     1       2.317   8.129 -20.732  0.00  0.00    -0.254 NA
ATOM      4  C6  UNL     1       2.774   8.880 -19.712  0.00  0.00    +0.076 A 
ATOM      5  C7  UNL     1       3.640   9.949 -19.983  0.00  0.00    -0.024 A 
ATOM      6  C8  UNL     1       4.041  10.250 -21.404  0.00  0.00    +0.046 C 
ATOM      7  C9  UNL     1       4.150  10.746 -18.945  0.00  0.00    +0.005 A 
ATOM      8  C10 UNL     1       3.806  10.482 -17.628  0.00  0.00    +0.001 A 
ATOM      9  C11 UNL     1       2.945   9.427 -17.346  0.00  0.00    +0.012 A 
ATOM     10  C12 UNL     1       2.405   8.617 -18.372  0.00  0.00    +0.023 A 
ATOM     11  C13 UNL     1       1.519   7.529 -18.116  0.00  0.00    +0.056 A 
ENDROOT
BRANCH   1  12
ATOM     12  C3  UNL     1       0.187   5.578 -18.983  0.00  0.00    +0.342 C 
ATOM     13  O2  UNL     1      -0.958   5.671 -18.565  0.00  0.00    -0.245 OA
BRANCH  12  14
ATOM     14  O1  UNL     1       0.824   4.432 -19.325  0.00  0.00    -0.461 OA
BRANCH  14  16
ATOM     15  C1  UNL     1       1.434   2.816 -17.627  0.00  0.00    +0.048 C 
ATOM     16  C2  UNL     1       0.390   3.245 -18.642  0.00  0.00    +0.229 C 
ENDBRANCH  14  16
ENDBRANCH  12  14
ENDBRANCH   1  12
BRANCH  11  17
ATOM     17  N2  UNL     1       1.024   7.293 -16.794  0.00  0.00    -0.313 N 
ATOM     18  H13 UNL     1       0.889   8.191 -16.307  0.00  0.00    +0.152 HD
BRANCH  17  19
ATOM     19  C14 UNL     1       1.556   6.365 -15.859  0.00  0.00    +0.031 A 
ATOM     20  C15 UNL     1       2.925   6.102 -15.729  0.00  0.00    +0.024 A 
ATOM     21  C16 UNL     1       3.393   5.134 -14.829  0.00  0.00    +0.013 A 
ATOM     22  C17 UNL     1       2.491   4.399 -14.053  0.00  0.00    +0.017 A 
ATOM     23  C18 UNL     1       1.121   4.640 -14.193  0.00  0.00    +0.013 A 
ATOM     24  C19 UNL     1       0.660   5.607 -15.093  0.00  0.00    +0.024 A 
BRANCH  22  25
ATOM     25  C20 UNL     1       2.937   3.357 -13.082  0.00  0.00    +0.160 C 
ATOM     26  O3  UNL     1       2.283   3.147 -12.062  0.00  0.00    -0.292 OA
ATOM     27  C21 UNL     1       4.192   2.576 -13.375  0.00  0.00    +0.091 C 
ENDBRANCH  22  25
ENDBRANCH  17  19
ENDBRANCH  11  17
TORSDOF 6
ENDMDL
MODEL 3
REMARK VINA RESULT:    -5.720      1.743      4.602
REMARK INTER + INTRA:          -9.199
REMARK INTER:                  -7.888
REMARK INTRA:                  -1.311
REMARK UNBOUND:                -1.473
REMARK  Name = /home/vital/Documents/PhD_2021/Malaria_codes/data/pdb_ligands_mmv/ligand_280.pdb
REMARK  9 active torsions:
REMARK  status: ('A' for Active; 'I' for Inactive)
REMARK    1  A    between atoms: C1_1  and  C2_2
REMARK    2  A    between atoms: C2_2  and  O1_3
REMARK    3  A    between atoms: O1_3  and  C3_4
REMARK    4  A    between atoms: C3_4  and  C4_6
REMARK    5  A    between atoms: C7_10  and  C8_11
REMARK    6  A    between atoms: C13_16  and  N2_17
REMARK    7  A    between atoms: N2_17  and  C14_18
REMARK    8  A    between atoms: C17_21  and  C20_24
REMARK    9  A    between atoms: C20_24  and  C21_26
REMARK                            x       y       z     vdW  Elec       q    Type
REMARK                         _______ _______ _______ _____ _____    ______ ____
ROOT
ATOM      1  C4  UNL     1       1.272   7.171 -19.239  0.00  0.00    +0.099 A 
ATOM      2  C5  UNL     1       0.821   6.766 -20.482  0.00  0.00    +0.128 A 
ATOM      3  N1  UNL     1      -0.318   6.064 -20.682  0.00  0.00    -0.254 NA
ATOM      4  C6  UNL     1      -1.083   5.745 -19.621  0.00  0.00    +0.076 A 
ATOM      5  C7  UNL     1      -2.272   5.031 -19.824  0.00  0.00    -0.024 A 
ATOM      6  C8  UNL     1      -2.675   4.622 -21.217  0.00  0.00    +0.046 C 
ATOM      7  C9  UNL     1      -3.105   4.692 -18.745  0.00  0.00    +0.005 A 
ATOM      8  C10 UNL     1      -2.762   5.068 -17.454  0.00  0.00    +0.001 A 
ATOM      9  C11 UNL     1      -1.584   5.774 -17.239  0.00  0.00    +0.012 A 
ATOM     10  C12 UNL     1      -0.720   6.115 -18.305  0.00  0.00    +0.023 A 
ATOM     11  C13 UNL     1       0.496   6.836 -18.116  0.00  0.00    +0.056 A 
ENDROOT
BRANCH   1  12
ATOM     12  C3  UNL     1       2.516   7.963 -19.110  0.00  0.00    +0.342 C 
ATOM     13  O2  UNL     1       3.557   7.665 -19.676  0.00  0.00    -0.245 OA
BRANCH  12  14
ATOM     14  O1  UNL     1       2.321   9.036 -18.304  0.00  0.00    -0.461 OA
BRANCH  14  16
ATOM     15  C1  UNL     1       3.533  10.211 -16.568  0.00  0.00    +0.048 C 
ATOM     16  C2  UNL     1       3.482   9.838 -18.038  0.00  0.00    +0.229 C 
ENDBRANCH  14  16
ENDBRANCH  12  14
ENDBRANCH   1  12
BRANCH  11  17
ATOM     17  N2  UNL     1       0.967   7.132 -16.798  0.00  0.00    -0.313 N 
ATOM     18  H13 UNL     1       1.549   7.982 -16.819  0.00  0.00    +0.152 HD
BRANCH  17  19
ATOM     19  C14 UNL     1       1.573   6.209 -15.903  0.00  0.00    +0.031 A 
ATOM     20  C15 UNL     1       2.891   5.757 -16.039  0.00  0.00    +0.024 A 
ATOM     21  C16 UNL     1       3.422   4.802 -15.162  0.00  0.00    +0.013 A 
ATOM     22  C17 UNL     1       2.633   4.270 -14.138  0.00  0.00    +0.017 A 
ATOM     23  C18 UNL     1       1.308   4.699 -14.009  0.00  0.00    +0.013 A 
ATOM     24  C19 UNL     1       0.784   5.653 -14.888  0.00  0.00    +0.024 A 
BRANCH  22  25
ATOM     25  C20 UNL     1       3.149   3.250 -13.178  0.00  0.00    +0.160 C 
ATOM     26  O3  UNL     1       2.608   3.107 -12.083  0.00  0.00    -0.292 OA
ATOM     27  C21 UNL     1       4.334   2.408 -13.576  0.00  0.00    +0.091 C 
ENDBRANCH  22  25
ENDBRANCH  17  19
ENDBRANCH  11  17
TORSDOF 6
ENDMDL
MODEL 4
REMARK VINA RESULT:    -4.866      2.581      6.229
REMARK INTER + INTRA:          -8.046
REMARK INTER:                  -6.610
REMARK INTRA:                  -1.436
REMARK UNBOUND:                -1.473
REMARK  Name = /home/vital/Documents/PhD_2021/Malaria_codes/data/pdb_ligands_mmv/ligand_280.pdb
REMARK  9 active torsions:
REMARK  status: ('A' for Active; 'I' for Inactive)
REMARK    1  A    between atoms: C1_1  and  C2_2
REMARK    2  A    between atoms: C2_2  and  O1_3
REMARK    3  A    between atoms: O1_3  and  C3_4
REMARK    4  A    between atoms: C3_4  and  C4_6
REMARK    5  A    between atoms: C7_10  and  C8_11
REMARK    6  A    between atoms: C13_16  and  N2_17
REMARK    7  A    between atoms: N2_17  and  C14_18
REMARK    8  A    between atoms: C17_21  and  C20_24
REMARK    9  A    between atoms: C20_24  and  C21_26
REMARK                            x       y       z     vdW  Elec       q    Type
REMARK                         _______ _______ _______ _____ _____    ______ ____
ROOT
ATOM      1  C4  UNL     1       2.474   7.432 -16.769  0.00  0.00    +0.099 A 
ATOM      2  C5  UNL     1       3.748   7.415 -16.232  0.00  0.00    +0.128 A 
ATOM      3  N1  UNL     1       4.143   6.578 -15.245  0.00  0.00    -0.254 NA
ATOM      4  C6  UNL     1       3.262   5.686 -14.755  0.00  0.00    +0.076 A 
ATOM      5  C7  UNL     1       3.670   4.805 -13.743  0.00  0.00    -0.024 A 
ATOM      6  C8  UNL     1       5.079   4.871 -13.212  0.00  0.00    +0.046 C 
ATOM      7  C9  UNL     1       2.785   3.850 -13.216  0.00  0.00    +0.005 A 
ATOM      8  C10 UNL     1       1.487   3.761 -13.696  0.00  0.00    +0.001 A 
ATOM      9  C11 UNL     1       1.068   4.631 -14.697  0.00  0.00    +0.012 A 
ATOM     10  C12 UNL     1       1.933   5.611 -15.236  0.00  0.00    +0.023 A 
ATOM     11  C13 UNL     1       1.534   6.518 -16.261  0.00  0.00    +0.056 A 
ENDROOT
BRANCH   1  12
ATOM     12  C3  UNL     1       2.131   8.362 -17.868  0.00  0.00    +0.342 C 
ATOM     13  O2  UNL     1       2.391   9.556 -17.835  0.00  0.00    -0.245 OA
BRANCH  12  14
ATOM     14  O1  UNL     1       1.519   7.703 -18.882  0.00  0.00    -0.461 OA
BRANCH  14  16
ATOM     15  C1  UNL     1       1.413   6.949 -21.180  0.00  0.00    +0.048 C 
ATOM     16  C2  UNL     1       2.255   7.623 -20.112  0.00  0.00    +0.229 C 
ENDBRANCH  14  16
ENDBRANCH  12  14
ENDBRANCH   1  12
BRANCH  11  17
ATOM     17  N2  UNL     1       0.173   6.563 -16.700  0.00  0.00    -0.313 N 
ATOM     18  H13 UNL     1      -0.447   6.738 -15.896  0.00  0.00    +0.152 HD
BRANCH  17  19
ATOM     19  C14 UNL     1      -0.463   5.611 -17.542  0.00  0.00    +0.031 A 
ATOM     20  C15 UNL     1       0.239   4.723 -18.367  0.00  0.00    +0.024 A 
ATOM     21  C16 UNL     1      -0.438   3.841 -19.221  0.00  0.00    +0.013 A 
ATOM     22  C17 UNL     1      -1.835   3.846 -19.275  0.00  0.00    +0.017 A 
ATOM     23  C18 UNL     1      -2.543   4.745 -18.470  0.00  0.00    +0.013 A 
ATOM     24  C19 UNL     1      -1.861   5.622 -17.620  0.00  0.00    +0.024 A 
BRANCH  22  25
ATOM     25  C20 UNL     1      -2.604   2.929 -20.167  0.00  0.00    +0.160 C 
ATOM     26  O3  UNL     1      -3.373   3.392 -21.007  0.00  0.00    -0.292 OA
ATOM     27  C21 UNL     1      -2.417   1.441 -20.019  0.00  0.00    +0.091 C 
ENDBRANCH  22  25
ENDBRANCH  17  19
ENDBRANCH  11  17
TORSDOF 6
ENDMDL
MODEL 5
REMARK VINA RESULT:    -4.866      9.162     11.740
REMARK INTER + INTRA:          -8.045
REMARK INTER:                  -6.381
REMARK INTRA:                  -1.665
REMARK UNBOUND:                -1.473
REMARK  Name = /home/vital/Documents/PhD_2021/Malaria_codes/data/pdb_ligands_mmv/ligand_280.pdb
REMARK  9 active torsions:
REMARK  status: ('A' for Active; 'I' for Inactive)
REMARK    1  A    between atoms: C1_1  and  C2_2
REMARK    2  A    between atoms: C2_2  and  O1_3
REMARK    3  A    between atoms: O1_3  and  C3_4
REMARK    4  A    between atoms: C3_4  and  C4_6
REMARK    5  A    between atoms: C7_10  and  C8_11
REMARK    6  A    between atoms: C13_16  and  N2_17
REMARK    7  A    between atoms: N2_17  and  C14_18
REMARK    8  A    between atoms: C17_21  and  C20_24
REMARK    9  A    between atoms: C20_24  and  C21_26
REMARK                            x       y       z     vdW  Elec       q    Type
REMARK                         _______ _______ _______ _____ _____    ______ ____
ROOT
ATOM      1  C4  UNL     1       1.191  -0.988 -20.013  0.00  0.00    +0.099 A 
ATOM      2  C5  UNL     1       2.328  -0.219 -19.845  0.00  0.00    +0.128 A 
ATOM      3  N1  UNL     1       3.582  -0.724 -19.781  0.00  0.00    -0.254 NA
ATOM      4  C6  UNL     1       3.756  -2.053 -19.905  0.00  0.00    +0.076 A 
ATOM      5  C7  UNL     1       5.054  -2.582 -19.855  0.00  0.00    -0.024 A 
ATOM      6  C8  UNL     1       6.232  -1.663 -19.656  0.00  0.00    +0.046 C 
ATOM      7  C9  UNL     1       5.279  -3.960 -19.995  0.00  0.00    +0.005 A 
ATOM      8  C10 UNL     1       4.212  -4.826 -20.191  0.00  0.00    +0.001 A 
ATOM      9  C11 UNL     1       2.920  -4.315 -20.239  0.00  0.00    +0.012 A 
ATOM     10  C12 UNL     1       2.663  -2.933 -20.087  0.00  0.00    +0.023 A 
ATOM     11  C13 UNL     1       1.350  -2.379 -20.130  0.00  0.00    +0.056 A 
ENDROOT
BRANCH   1  12
ATOM     12  C3  UNL     1      -0.142  -0.352 -20.102  0.00  0.00    +0.342 C 
ATOM     13  O2  UNL     1      -0.404   0.538 -20.898  0.00  0.00    -0.245 OA
BRANCH  12  14
ATOM     14  O1  UNL     1      -0.997  -0.900 -19.204  0.00  0.00    -0.461 OA
BRANCH  14  16
ATOM     15  C1  UNL     1      -3.242  -1.807 -19.210  0.00  0.00    +0.048 C 
ATOM     16  C2  UNL     1      -2.384  -0.566 -19.375  0.00  0.00    +0.229 C 
ENDBRANCH  14  16
ENDBRANCH  12  14
ENDBRANCH   1  12
BRANCH  11  17
ATOM     17  N2  UNL     1       0.204  -3.234 -20.195  0.00  0.00    -0.313 N 
ATOM     18  H13 UNL     1       0.274  -3.966 -19.474  0.00  0.00    +0.152 HD
BRANCH  17  19
ATOM     19  C14 UNL     1      -0.325  -3.830 -21.372  0.00  0.00    +0.031 A 
ATOM     20  C15 UNL     1       0.025  -3.423 -22.665  0.00  0.00    +0.024 A 
ATOM     21  C16 UNL     1      -0.569  -4.006 -23.792  0.00  0.00    +0.013 A 
ATOM     22  C17 UNL     1      -1.539  -5.001 -23.641  0.00  0.00    +0.017 A 
ATOM     23  C18 UNL     1      -1.911  -5.399 -22.353  0.00  0.00    +0.013 A 
ATOM     24  C19 UNL     1      -1.314  -4.812 -21.232  0.00  0.00    +0.024 A 
BRANCH  22  25
ATOM     25  C20 UNL     1      -2.204  -5.654 -24.809  0.00  0.00    +0.160 C 
ATOM     26  O3  UNL     1      -3.250  -6.279 -24.649  0.00  0.00    -0.292 OA
ATOM     27  C21 UNL     1      -1.570  -5.532 -26.170  0.00  0.00    +0.091 C 
ENDBRANCH  22  25
ENDBRANCH  17  19
ENDBRANCH  11  17
TORSDOF 6
ENDMDL
MODEL 6
REMARK VINA RESULT:    -4.831      2.807      6.262
REMARK INTER + INTRA:          -7.998
REMARK INTER:                  -6.422
REMARK INTRA:                  -1.576
REMARK UNBOUND:                -1.473
REMARK  Name = /home/vital/Documents/PhD_2021/Malaria_codes/data/pdb_ligands_mmv/ligand_280.pdb
REMARK  9 active torsions:
REMARK  status: ('A' for Active; 'I' for Inactive)
REMARK    1  A    between atoms: C1_1  and  C2_2
REMARK    2  A    between atoms: C2_2  and  O1_3
REMARK    3  A    between atoms: O1_3  and  C3_4
REMARK    4  A    between atoms: C3_4  and  C4_6
REMARK    5  A    between atoms: C7_10  and  C8_11
REMARK    6  A    between atoms: C13_16  and  N2_17
REMARK    7  A    between atoms: N2_17  and  C14_18
REMARK    8  A    between atoms: C17_21  and  C20_24
REMARK    9  A    between atoms: C20_24  and  C21_26
REMARK                            x       y       z     vdW  Elec       q    Type
REMARK                         _______ _______ _______ _____ _____    ______ ____
ROOT
ATOM      1  C4  UNL     1      -0.605   4.386 -18.789  0.00  0.00    +0.099 A 
ATOM      2  C5  UNL     1      -0.468   3.065 -19.172  0.00  0.00    +0.128 A 
ATOM      3  N1  UNL     1       0.411   2.202 -18.612  0.00  0.00    -0.254 NA
ATOM      4  C6  UNL     1       1.196   2.631 -17.605  0.00  0.00    +0.076 A 
ATOM      5  C7  UNL     1       2.098   1.737 -17.011  0.00  0.00    -0.024 A 
ATOM      6  C8  UNL     1       2.184   0.316 -17.507  0.00  0.00    +0.046 C 
ATOM      7  C9  UNL     1       2.922   2.142 -15.949  0.00  0.00    +0.005 A 
ATOM      8  C10 UNL     1       2.852   3.440 -15.466  0.00  0.00    +0.001 A 
ATOM      9  C11 UNL     1       1.965   4.338 -16.049  0.00  0.00    +0.012 A 
ATOM     10  C12 UNL     1       1.133   3.961 -17.129  0.00  0.00    +0.023 A 
ATOM     11  C13 UNL     1       0.214   4.858 -17.749  0.00  0.00    +0.056 A 
ENDROOT
BRANCH   1  12
ATOM     12  C3  UNL     1      -1.613   5.257 -19.434  0.00  0.00    +0.342 C 
ATOM     13  O2  UNL     1      -2.177   6.170 -18.848  0.00  0.00    -0.245 OA
BRANCH  12  14
ATOM     14  O1  UNL     1      -1.796   4.903 -20.729  0.00  0.00    -0.461 OA
BRANCH  14  16
ATOM     15  C1  UNL     1      -0.550   6.476 -22.084  0.00  0.00    +0.048 C 
ATOM     16  C2  UNL     1      -1.923   5.987 -21.663  0.00  0.00    +0.229 C 
ENDBRANCH  14  16
ENDBRANCH  12  14
ENDBRANCH   1  12
BRANCH  11  17
ATOM     17  N2  UNL     1       0.194   6.243 -17.384  0.00  0.00    -0.313 N 
ATOM     18  H13 UNL     1      -0.729   6.646 -17.602  0.00  0.00    +0.152 HD
BRANCH  17  19
ATOM     19  C14 UNL     1       1.183   7.207 -17.719  0.00  0.00    +0.031 A 
ATOM     20  C15 UNL     1       1.730   8.102 -16.792  0.00  0.00    +0.024 A 
ATOM     21  C16 UNL     1       2.661   9.072 -17.186  0.00  0.00    +0.013 A 
ATOM     22  C17 UNL     1       3.051   9.171 -18.525  0.00  0.00    +0.017 A 
ATOM     23  C18 UNL     1       2.493   8.294 -19.462  0.00  0.00    +0.013 A 
ATOM     24  C19 UNL     1       1.563   7.329 -19.062  0.00  0.00    +0.024 A 
BRANCH  22  25
ATOM     25  C20 UNL     1       4.038  10.186 -18.998  0.00  0.00    +0.160 C 
ATOM     26  O3  UNL     1       4.763  10.762 -18.189  0.00  0.00    -0.292 OA
ATOM     27  C21 UNL     1       4.127  10.485 -20.472  0.00  0.00    +0.091 C 
ENDBRANCH  22  25
ENDBRANCH  17  19
ENDBRANCH  11  17
TORSDOF 6
ENDMDL
MODEL 7
REMARK VINA RESULT:    -4.752      9.537     12.158
REMARK INTER + INTRA:          -7.891
REMARK INTER:                  -6.303
REMARK INTRA:                  -1.588
REMARK UNBOUND:                -1.473
REMARK  Name = /home/vital/Documents/PhD_2021/Malaria_codes/data/pdb_ligands_mmv/ligand_280.pdb
REMARK  9 active torsions:
REMARK  status: ('A' for Active; 'I' for Inactive)
REMARK    1  A    between atoms: C1_1  and  C2_2
REMARK    2  A    between atoms: C2_2  and  O1_3
REMARK    3  A    between atoms: O1_3  and  C3_4
REMARK    4  A    between atoms: C3_4  and  C4_6
REMARK    5  A    between atoms: C7_10  and  C8_11
REMARK    6  A    between atoms: C13_16  and  N2_17
REMARK    7  A    between atoms: N2_17  and  C14_18
REMARK    8  A    between atoms: C17_21  and  C20_24
REMARK    9  A    between atoms: C20_24  and  C21_26
REMARK                            x       y       z     vdW  Elec       q    Type
REMARK                         _______ _______ _______ _____ _____    ______ ____
ROOT
ATOM      1  C4  UNL     1      -1.617  -1.778 -20.843  0.00  0.00    +0.099 A 
ATOM      2  C5  UNL     1      -2.708  -1.518 -21.651  0.00  0.00    +0.128 A 
ATOM      3  N1  UNL     1      -3.236  -2.409 -22.521  0.00  0.00    -0.254 NA
ATOM      4  C6  UNL     1      -2.691  -3.637 -22.608  0.00  0.00    +0.076 A 
ATOM      5  C7  UNL     1      -3.243  -4.571 -23.497  0.00  0.00    -0.024 A 
ATOM      6  C8  UNL     1      -4.427  -4.189 -24.347  0.00  0.00    +0.046 C 
ATOM      7  C9  UNL     1      -2.713  -5.866 -23.606  0.00  0.00    +0.005 A 
ATOM      8  C10 UNL     1      -1.631  -6.246 -22.825  0.00  0.00    +0.001 A 
ATOM      9  C11 UNL     1      -1.072  -5.329 -21.941  0.00  0.00    +0.012 A 
ATOM     10  C12 UNL     1      -1.576  -4.014 -21.822  0.00  0.00    +0.023 A 
ATOM     11  C13 UNL     1      -1.025  -3.050 -20.927  0.00  0.00    +0.056 A 
ENDROOT
BRANCH   1  12
ATOM     12  C3  UNL     1      -1.120  -0.756 -19.895  0.00  0.00    +0.342 C 
ATOM     13  O2  UNL     1      -1.846  -0.175 -19.101  0.00  0.00    -0.245 OA
BRANCH  12  14
ATOM     14  O1  UNL     1       0.217  -0.582 -20.033  0.00  0.00    -0.461 OA
BRANCH  14  16
ATOM     15  C1  UNL     1       1.653  -0.789 -18.094  0.00  0.00    +0.048 C 
ATOM     16  C2  UNL     1       0.865   0.154 -18.984  0.00  0.00    +0.229 C 
ENDBRANCH  14  16
ENDBRANCH  12  14
ENDBRANCH   1  12
BRANCH  11  17
ATOM     17  N2  UNL     1       0.172  -3.340 -20.197  0.00  0.00    -0.313 N 
ATOM     18  H13 UNL     1       0.222  -2.742 -19.360  0.00  0.00    +0.152 HD
BRANCH  17  19
ATOM     19  C14 UNL     1       1.480  -3.436 -20.745  0.00  0.00    +0.031 A 
ATOM     20  C15 UNL     1       1.838  -2.888 -21.982  0.00  0.00    +0.024 A 
ATOM     21  C16 UNL     1       3.128  -3.061 -22.503  0.00  0.00    +0.013 A 
ATOM     22  C17 UNL     1       4.079  -3.801 -21.796  0.00  0.00    +0.017 A 
ATOM     23  C18 UNL     1       3.723  -4.370 -20.569  0.00  0.00    +0.013 A 
ATOM     24  C19 UNL     1       2.434  -4.195 -20.055  0.00  0.00    +0.024 A 
BRANCH  22  25
ATOM     25  C20 UNL     1       5.466  -4.016 -22.307  0.00  0.00    +0.160 C 
ATOM     26  O3  UNL     1       6.351  -3.204 -22.041  0.00  0.00    -0.292 OA
ATOM     27  C21 UNL     1       5.754  -5.235 -23.144  0.00  0.00    +0.091 C 
ENDBRANCH  22  25
ENDBRANCH  17  19
ENDBRANCH  11  17
TORSDOF 6
ENDMDL
MODEL 8
REMARK VINA RESULT:    -4.550     16.327     19.614
REMARK INTER + INTRA:          -7.619
REMARK INTER:                  -5.614
REMARK INTRA:                  -2.005
REMARK UNBOUND:                -1.473
REMARK  Name = /home/vital/Documents/PhD_2021/Malaria_codes/data/pdb_ligands_mmv/ligand_280.pdb
REMARK  9 active torsions:
REMARK  status: ('A' for Active; 'I' for Inactive)
REMARK    1  A    between atoms: C1_1  and  C2_2
REMARK    2  A    between atoms: C2_2  and  O1_3
REMARK    3  A    between atoms: O1_3  and  C3_4
REMARK    4  A    between atoms: C3_4  and  C4_6
REMARK    5  A    between atoms: C7_10  and  C8_11
REMARK    6  A    between atoms: C13_16  and  N2_17
REMARK    7  A    between atoms: N2_17  and  C14_18
REMARK    8  A    between atoms: C17_21  and  C20_24
REMARK    9  A    between atoms: C20_24  and  C21_26
REMARK                            x       y       z     vdW  Elec       q    Type
REMARK                         _______ _______ _______ _____ _____    ______ ____
ROOT
ATOM      1  C4  UNL     1       0.043   0.497 -33.391  0.00  0.00    +0.099 A 
ATOM      2  C5  UNL     1       0.920  -0.205 -32.585  0.00  0.00    +0.128 A 
ATOM      3  N1  UNL     1       1.361  -1.455 -32.854  0.00  0.00    -0.254 NA
ATOM      4  C6  UNL     1       0.947  -2.065 -33.981  0.00  0.00    +0.076 A 
ATOM      5  C7  UNL     1       1.413  -3.355 -34.273  0.00  0.00    -0.024 A 
ATOM      6  C8  UNL     1       2.359  -4.045 -33.325  0.00  0.00    +0.046 C 
ATOM      7  C9  UNL     1       1.016  -4.017 -35.446  0.00  0.00    +0.005 A 
ATOM      8  C10 UNL     1       0.156  -3.399 -36.341  0.00  0.00    +0.001 A 
ATOM      9  C11 UNL     1      -0.316  -2.121 -36.062  0.00  0.00    +0.012 A 
ATOM     10  C12 UNL     1       0.055  -1.436 -34.882  0.00  0.00    +0.023 A 
ATOM     11  C13 UNL     1      -0.412  -0.126 -34.566  0.00  0.00    +0.056 A 
ENDROOT
BRANCH   1  12
ATOM     12  C3  UNL     1      -0.367   1.874 -33.039  0.00  0.00    +0.342 C 
ATOM     13  O2  UNL     1      -0.259   2.818 -33.807  0.00  0.00    -0.245 OA
BRANCH  12  14
ATOM     14  O1  UNL     1      -0.873   1.918 -31.782  0.00  0.00    -0.461 OA
BRANCH  14  16
ATOM     15  C1  UNL     1      -3.173   1.372 -31.257  0.00  0.00    +0.048 C 
ATOM     16  C2  UNL     1      -2.196   2.462 -31.658  0.00  0.00    +0.229 C 
ENDBRANCH  14  16
ENDBRANCH  12  14
ENDBRANCH   1  12
BRANCH  11  17
ATOM     17  N2  UNL     1      -1.404   0.506 -35.381  0.00  0.00    -0.313 N 
ATOM     18  H13 UNL     1      -1.086   1.450 -35.646  0.00  0.00    +0.152 HD
BRANCH  17  19
ATOM     19  C14 UNL     1      -2.795   0.577 -35.097  0.00  0.00    +0.031 A 
ATOM     20  C15 UNL     1      -3.547  -0.519 -34.659  0.00  0.00    +0.024 A 
ATOM     21  C16 UNL     1      -4.929  -0.410 -34.447  0.00  0.00    +0.013 A 
ATOM     22  C17 UNL     1      -5.584   0.801 -34.689  0.00  0.00    +0.017 A 
ATOM     23  C18 UNL     1      -4.843   1.895 -35.148  0.00  0.00    +0.013 A 
ATOM     24  C19 UNL     1      -3.465   1.779 -35.357  0.00  0.00    +0.024 A 
BRANCH  22  25
ATOM     25  C20 UNL     1      -7.053   0.971 -34.481  0.00  0.00    +0.160 C 
ATOM     26  O3  UNL     1      -7.544   0.766 -33.373  0.00  0.00    -0.292 OA
ATOM     27  C21 UNL     1      -7.910   1.393 -35.646  0.00  0.00    +0.091 C 
ENDBRANCH  22  25
ENDBRANCH  17  19
ENDBRANCH  11  17
TORSDOF 6
ENDMDL
MODEL 9
REMARK VINA RESULT:    -4.503     17.197     19.740
REMARK INTER + INTRA:          -7.556
REMARK INTER:                  -5.732
REMARK INTRA:                  -1.824
REMARK UNBOUND:                -1.473
REMARK  Name = /home/vital/Documents/PhD_2021/Malaria_codes/data/pdb_ligands_mmv/ligand_280.pdb
REMARK  9 active torsions:
REMARK  status: ('A' for Active; 'I' for Inactive)
REMARK    1  A    between atoms: C1_1  and  C2_2
REMARK    2  A    between atoms: C2_2  and  O1_3
REMARK    3  A    between atoms: O1_3  and  C3_4
REMARK    4  A    between atoms: C3_4  and  C4_6
REMARK    5  A    between atoms: C7_10  and  C8_11
REMARK    6  A    between atoms: C13_16  and  N2_17
REMARK    7  A    between atoms: N2_17  and  C14_18
REMARK    8  A    between atoms: C17_21  and  C20_24
REMARK    9  A    between atoms: C20_24  and  C21_26
REMARK                            x       y       z     vdW  Elec       q    Type
REMARK                         _______ _______ _______ _____ _____    ______ ____
ROOT
ATOM      1  C4  UNL     1       1.413  -2.425 -32.316  0.00  0.00    +0.099 A 
ATOM      2  C5  UNL     1       0.963  -1.226 -31.793  0.00  0.00    +0.128 A 
ATOM      3  N1  UNL     1       0.183  -0.351 -32.468  0.00  0.00    -0.254 NA
ATOM      4  C6  UNL     1      -0.205  -0.654 -33.720  0.00  0.00    +0.076 A 
ATOM      5  C7  UNL     1      -1.026   0.242 -34.420  0.00  0.00    -0.024 A 
ATOM      6  C8  UNL     1      -1.456   1.532 -33.769  0.00  0.00    +0.046 C 
ATOM      7  C9  UNL     1      -1.465  -0.045 -35.722  0.00  0.00    +0.005 A 
ATOM      8  C10 UNL     1      -1.094  -1.231 -36.338  0.00  0.00    +0.001 A 
ATOM      9  C11 UNL     1      -0.277  -2.128 -35.657  0.00  0.00    +0.012 A 
ATOM     10  C12 UNL     1       0.191  -1.857 -34.351  0.00  0.00    +0.023 A 
ATOM     11  C13 UNL     1       1.030  -2.755 -33.627  0.00  0.00    +0.056 A 
ENDROOT
BRANCH   1  12
ATOM     12  C3  UNL     1       2.240  -3.341 -31.499  0.00  0.00    +0.342 C 
ATOM     13  O2  UNL     1       3.422  -3.551 -31.725  0.00  0.00    -0.245 OA
BRANCH  12  14
ATOM     14  O1  UNL     1       1.509  -3.879 -30.492  0.00  0.00    -0.461 OA
BRANCH  14  16
ATOM     15  C1  UNL     1       0.824  -6.144 -29.978  0.00  0.00    +0.048 C 
ATOM     16  C2  UNL     1       1.967  -5.146 -29.994  0.00  0.00    +0.229 C 
ENDBRANCH  14  16
ENDBRANCH  12  14
ENDBRANCH   1  12
BRANCH  11  17
ATOM     17  N2  UNL     1       1.554  -3.927 -34.259  0.00  0.00    -0.313 N 
ATOM     18  H13 UNL     1       1.515  -3.818 -35.283  0.00  0.00    +0.152 HD
BRANCH  17  19
ATOM     19  C14 UNL     1       1.200  -5.269 -33.950  0.00  0.00    +0.031 A 
ATOM     20  C15 UNL     1       2.135  -6.305 -33.838  0.00  0.00    +0.024 A 
ATOM     21  C16 UNL     1       1.727  -7.622 -33.587  0.00  0.00    +0.013 A 
ATOM     22  C17 UNL     1       0.369  -7.927 -33.458  0.00  0.00    +0.017 A 
ATOM     23  C18 UNL     1      -0.573  -6.901 -33.589  0.00  0.00    +0.013 A 
ATOM     24  C19 UNL     1      -0.159  -5.588 -33.841  0.00  0.00    +0.024 A 
BRANCH  22  25
ATOM     25  C20 UNL     1      -0.118  -9.312 -33.191  0.00  0.00    +0.160 C 
ATOM     26  O3  UNL     1       0.138 -10.217 -33.983  0.00  0.00    -0.292 OA
ATOM     27  C21 UNL     1      -0.922  -9.576 -31.944  0.00  0.00    +0.091 C 
ENDBRANCH  22  25
ENDBRANCH  17  19
ENDBRANCH  11  17
TORSDOF 6
ENDMDL
