MODEL 1
REMARK VINA RESULT:    -5.211      0.000      0.000
REMARK INTER + INTRA:          -6.960
REMARK INTER:                  -6.430
REMARK INTRA:                  -0.530
REMARK UNBOUND:                -0.530
REMARK  Name = /home/vital/Documents/PhD_2021/Malaria_codes/data/pdb_ligands_mmv/ligand_97.pdb
REMARK  5 active torsions:
REMARK  status: ('A' for Active; 'I' for Inactive)
REMARK    1  A    between atoms: C1_1  and  C2_2
REMARK    2  A    between atoms: C2_2  and  O1_3
REMARK    3  A    between atoms: O1_3  and  C3_4
REMARK    4  A    between atoms: C6_7  and  C7_8
REMARK    5  A    between atoms: C8_9  and  C9_10
REMARK                            x       y       z     vdW  Elec       q    Type
REMARK                         _______ _______ _______ _____ _____    ______ ____
ROOT
ATOM      1  C7  UNL     1      -6.120  -0.578 -24.494  0.00  0.00    +0.013 C 
ATOM      2  C8  UNL     1      -5.906  -1.439 -23.488  0.00  0.00    +0.068 C 
ENDROOT
BRANCH   2   3
ATOM      3  C9  UNL     1      -5.116  -2.670 -23.717  0.00  0.00    +0.224 A 
ATOM      4  N1  UNL     1      -5.286  -3.503 -24.683  0.00  0.00    -0.173 NA
ATOM      5  C10 UNL     1      -4.481  -4.604 -24.776  0.00  0.00    +0.284 A 
ATOM      6  O2  UNL     1      -4.594  -5.433 -25.671  0.00  0.00    -0.265 OA
ATOM      7  C11 UNL     1      -3.436  -4.800 -23.760  0.00  0.00    +0.084 A 
ATOM      8  C12 UNL     1      -2.571  -5.898 -23.782  0.00  0.00    +0.017 A 
ATOM      9  C13 UNL     1      -1.599  -6.029 -22.790  0.00  0.00    +0.001 A 
ATOM     10  C14 UNL     1      -1.494  -5.067 -21.781  0.00  0.00    +0.004 A 
ATOM     11  C15 UNL     1      -2.361  -3.973 -21.763  0.00  0.00    +0.047 A 
ATOM     12  C16 UNL     1      -3.328  -3.851 -22.759  0.00  0.00    +0.143 A 
ATOM     13  O3  UNL     1      -4.175  -2.746 -22.708  0.00  0.00    -0.437 OA
ENDBRANCH   2   3
BRANCH   1  17
ATOM     14  C3  UNL     1      -8.258   3.126 -24.142  0.00  0.00    +0.121 A 
ATOM     15  C4  UNL     1      -6.863   3.096 -24.193  0.00  0.00    +0.046 A 
ATOM     16  C5  UNL     1      -6.176   1.884 -24.305  0.00  0.00    +0.011 A 
ATOM     17  C6  UNL     1      -6.875   0.674 -24.351  0.00  0.00    -0.025 A 
ATOM     18  C17 UNL     1      -8.275   0.708 -24.311  0.00  0.00    +0.011 A 
ATOM     19  C18 UNL     1      -8.962   1.925 -24.200  0.00  0.00    +0.046 A 
BRANCH  14  20
ATOM     20  O1  UNL     1      -8.793   4.377 -24.029  0.00  0.00    -0.492 OA
BRANCH  20  22
ATOM     21  C1  UNL     1      -9.943   5.703 -25.702  0.00  0.00    +0.048 C 
ATOM     22  C2  UNL     1      -8.609   5.306 -25.096  0.00  0.00    +0.225 C 
ENDBRANCH  20  22
ENDBRANCH  14  20
ENDBRANCH   1  17
TORSDOF 4
ENDMDL
MODEL 2
REMARK VINA RESULT:    -5.179     12.419     15.258
REMARK INTER + INTRA:          -6.921
REMARK INTER:                  -6.365
REMARK INTRA:                  -0.556
REMARK UNBOUND:                -0.530
REMARK  Name = /home/vital/Documents/PhD_2021/Malaria_codes/data/pdb_ligands_mmv/ligand_97.pdb
REMARK  5 active torsions:
REMARK  status: ('A' for Active; 'I' for Inactive)
REMARK    1  A    between atoms: C1_1  and  C2_2
REMARK    2  A    between atoms: C2_2  and  O1_3
REMARK    3  A    between atoms: O1_3  and  C3_4
REMARK    4  A    between atoms: C6_7  and  C7_8
REMARK    5  A    between atoms: C8_9  and  C9_10
REMARK                            x       y       z     vdW  Elec       q    Type
REMARK                         _______ _______ _______ _____ _____    ______ ____
ROOT
ATOM      1  C7  UNL     1       8.497  -0.876 -24.698  0.00  0.00    +0.013 C 
ATOM      2  C8  UNL     1       8.930  -1.026 -23.436  0.00  0.00    +0.068 C 
ENDROOT
BRANCH   2   3
ATOM      3  C9  UNL     1       8.033  -1.592 -22.404  0.00  0.00    +0.224 A 
ATOM      4  N1  UNL     1       7.992  -1.238 -21.168  0.00  0.00    -0.173 NA
ATOM      5  C10 UNL     1       7.109  -1.847 -20.319  0.00  0.00    +0.284 A 
ATOM      6  O2  UNL     1       7.023  -1.554 -19.133  0.00  0.00    -0.265 OA
ATOM      7  C11 UNL     1       6.228  -2.896 -20.853  0.00  0.00    +0.084 A 
ATOM      8  C12 UNL     1       5.298  -3.568 -20.054  0.00  0.00    +0.017 A 
ATOM      9  C13 UNL     1       4.490  -4.554 -20.619  0.00  0.00    +0.001 A 
ATOM     10  C14 UNL     1       4.612  -4.867 -21.976  0.00  0.00    +0.004 A 
ATOM     11  C15 UNL     1       5.542  -4.194 -22.770  0.00  0.00    +0.047 A 
ATOM     12  C16 UNL     1       6.345  -3.210 -22.196  0.00  0.00    +0.143 A 
ATOM     13  O3  UNL     1       7.261  -2.560 -23.019  0.00  0.00    -0.437 OA
ENDBRANCH   2   3
BRANCH   1  17
ATOM     14  C3  UNL     1      10.987   0.612 -27.860  0.00  0.00    +0.121 A 
ATOM     15  C4  UNL     1      11.535   0.149 -26.663  0.00  0.00    +0.046 A 
ATOM     16  C5  UNL     1      10.715  -0.331 -25.637  0.00  0.00    +0.011 A 
ATOM     17  C6  UNL     1       9.325  -0.340 -25.787  0.00  0.00    -0.025 A 
ATOM     18  C17 UNL     1       8.778   0.114 -26.994  0.00  0.00    +0.011 A 
ATOM     19  C18 UNL     1       9.602   0.594 -28.021  0.00  0.00    +0.046 A 
BRANCH  14  20
ATOM     20  O1  UNL     1      11.905   1.054 -28.769  0.00  0.00    -0.492 OA
BRANCH  20  22
ATOM     21  C1  UNL     1      12.527   2.693 -30.444  0.00  0.00    +0.048 C 
ATOM     22  C2  UNL     1      11.985   2.451 -29.047  0.00  0.00    +0.225 C 
ENDBRANCH  20  22
ENDBRANCH  14  20
ENDBRANCH   1  17
TORSDOF 4
ENDMDL
MODEL 3
REMARK VINA RESULT:    -5.064     10.313     13.581
REMARK INTER + INTRA:          -6.778
REMARK INTER:                  -6.220
REMARK INTRA:                  -0.558
REMARK UNBOUND:                -0.530
REMARK  Name = /home/vital/Documents/PhD_2021/Malaria_codes/data/pdb_ligands_mmv/ligand_97.pdb
REMARK  5 active torsions:
REMARK  status: ('A' for Active; 'I' for Inactive)
REMARK    1  A    between atoms: C1_1  and  C2_2
REMARK    2  A    between atoms: C2_2  and  O1_3
REMARK    3  A    between atoms: O1_3  and  C3_4
REMARK    4  A    between atoms: C6_7  and  C7_8
REMARK    5  A    between atoms: C8_9  and  C9_10
REMARK                            x       y       z     vdW  Elec       q    Type
REMARK                         _______ _______ _______ _____ _____    ______ ____
ROOT
ATOM      1  C7  UNL     1       3.564  -0.142 -18.154  0.00  0.00    +0.013 C 
ATOM      2  C8  UNL     1       2.308   0.287 -17.955  0.00  0.00    +0.068 C 
ENDROOT
BRANCH   2   3
ATOM      3  C9  UNL     1       2.057   1.518 -17.172  0.00  0.00    +0.224 A 
ATOM      4  N1  UNL     1       1.301   2.495 -17.530  0.00  0.00    -0.173 NA
ATOM      5  C10 UNL     1       1.157   3.576 -16.705  0.00  0.00    +0.284 A 
ATOM      6  O2  UNL     1       0.452   4.536 -16.991  0.00  0.00    -0.265 OA
ATOM      7  C11 UNL     1       1.878   3.585 -15.424  0.00  0.00    +0.084 A 
ATOM      8  C12 UNL     1       1.786   4.650 -14.524  0.00  0.00    +0.017 A 
ATOM      9  C13 UNL     1       2.495   4.600 -13.323  0.00  0.00    +0.001 A 
ATOM     10  C14 UNL     1       3.291   3.491 -13.026  0.00  0.00    +0.004 A 
ATOM     11  C15 UNL     1       3.380   2.430 -13.928  0.00  0.00    +0.047 A 
ATOM     12  C16 UNL     1       2.668   2.489 -15.125  0.00  0.00    +0.143 A 
ATOM     13  O3  UNL     1       2.782   1.412 -16.000  0.00  0.00    -0.437 OA
ENDBRANCH   2   3
BRANCH   1  17
ATOM     14  C3  UNL     1       4.654  -3.641 -20.386  0.00  0.00    +0.121 A 
ATOM     15  C4  UNL     1       5.550  -2.586 -20.209  0.00  0.00    +0.046 A 
ATOM     16  C5  UNL     1       5.184  -1.449 -19.483  0.00  0.00    +0.011 A 
ATOM     17  C6  UNL     1       3.904  -1.341 -18.933  0.00  0.00    -0.025 A 
ATOM     18  C17 UNL     1       3.011  -2.406 -19.102  0.00  0.00    +0.011 A 
ATOM     19  C18 UNL     1       3.380  -3.546 -19.829  0.00  0.00    +0.046 A 
BRANCH  14  20
ATOM     20  O1  UNL     1       5.145  -4.684 -21.118  0.00  0.00    -0.492 OA
BRANCH  20  22
ATOM     21  C1  UNL     1       6.016  -5.180 -23.326  0.00  0.00    +0.048 C 
ATOM     22  C2  UNL     1       4.807  -4.776 -22.501  0.00  0.00    +0.225 C 
ENDBRANCH  20  22
ENDBRANCH  14  20
ENDBRANCH   1  17
TORSDOF 4
ENDMDL
MODEL 4
REMARK VINA RESULT:    -4.975      9.027     12.446
REMARK INTER + INTRA:          -6.669
REMARK INTER:                  -6.150
REMARK INTRA:                  -0.519
REMARK UNBOUND:                -0.530
REMARK  Name = /home/vital/Documents/PhD_2021/Malaria_codes/data/pdb_ligands_mmv/ligand_97.pdb
REMARK  5 active torsions:
REMARK  status: ('A' for Active; 'I' for Inactive)
REMARK    1  A    between atoms: C1_1  and  C2_2
REMARK    2  A    between atoms: C2_2  and  O1_3
REMARK    3  A    between atoms: O1_3  and  C3_4
REMARK    4  A    between atoms: C6_7  and  C7_8
REMARK    5  A    between atoms: C8_9  and  C9_10
REMARK                            x       y       z     vdW  Elec       q    Type
REMARK                         _______ _______ _______ _____ _____    ______ ____
ROOT
ATOM      1  C7  UNL     1       1.762  -0.523 -17.685  0.00  0.00    +0.013 C 
ATOM      2  C8  UNL     1       2.672   0.448 -17.860  0.00  0.00    +0.068 C 
ENDROOT
BRANCH   2   3
ATOM      3  C9  UNL     1       3.206   1.187 -16.694  0.00  0.00    +0.224 A 
ATOM      4  N1  UNL     1       4.381   1.048 -16.189  0.00  0.00    -0.173 NA
ATOM      5  C10 UNL     1       4.746   1.799 -15.107  0.00  0.00    +0.284 A 
ATOM      6  O2  UNL     1       5.849   1.710 -14.582  0.00  0.00    -0.265 OA
ATOM      7  C11 UNL     1       3.773   2.750 -14.550  0.00  0.00    +0.084 A 
ATOM      8  C12 UNL     1       4.065   3.556 -13.445  0.00  0.00    +0.017 A 
ATOM      9  C13 UNL     1       3.100   4.440 -12.963  0.00  0.00    +0.001 A 
ATOM     10  C14 UNL     1       1.849   4.517 -13.582  0.00  0.00    +0.004 A 
ATOM     11  C15 UNL     1       1.562   3.711 -14.685  0.00  0.00    +0.047 A 
ATOM     12  C16 UNL     1       2.533   2.831 -15.159  0.00  0.00    +0.143 A 
ATOM     13  O3  UNL     1       2.210   2.042 -16.261  0.00  0.00    -0.437 OA
ENDBRANCH   2   3
BRANCH   1  17
ATOM     14  C3  UNL     1       0.134  -2.932 -20.840  0.00  0.00    +0.121 A 
ATOM     15  C4  UNL     1       1.341  -3.265 -20.223  0.00  0.00    +0.046 A 
ATOM     16  C5  UNL     1       1.865  -2.472 -19.198  0.00  0.00    +0.011 A 
ATOM     17  C6  UNL     1       1.195  -1.318 -18.782  0.00  0.00    -0.025 A 
ATOM     18  C17 UNL     1      -0.022  -0.992 -19.395  0.00  0.00    +0.011 A 
ATOM     19  C18 UNL     1      -0.546  -1.790 -20.422  0.00  0.00    +0.046 A 
BRANCH  14  20
ATOM     20  O1  UNL     1      -0.254  -3.794 -21.826  0.00  0.00    -0.492 OA
BRANCH  20  22
ATOM     21  C1  UNL     1      -1.361  -5.893 -22.324  0.00  0.00    +0.048 C 
ATOM     22  C2  UNL     1      -1.465  -4.530 -21.663  0.00  0.00    +0.225 C 
ENDBRANCH  20  22
ENDBRANCH  14  20
ENDBRANCH   1  17
TORSDOF 4
ENDMDL
MODEL 5
REMARK VINA RESULT:    -4.917      8.694     12.187
REMARK INTER + INTRA:          -6.597
REMARK INTER:                  -6.043
REMARK INTRA:                  -0.554
REMARK UNBOUND:                -0.530
REMARK  Name = /home/vital/Documents/PhD_2021/Malaria_codes/data/pdb_ligands_mmv/ligand_97.pdb
REMARK  5 active torsions:
REMARK  status: ('A' for Active; 'I' for Inactive)
REMARK    1  A    between atoms: C1_1  and  C2_2
REMARK    2  A    between atoms: C2_2  and  O1_3
REMARK    3  A    between atoms: O1_3  and  C3_4
REMARK    4  A    between atoms: C6_7  and  C7_8
REMARK    5  A    between atoms: C8_9  and  C9_10
REMARK                            x       y       z     vdW  Elec       q    Type
REMARK                         _______ _______ _______ _____ _____    ______ ____
ROOT
ATOM      1  C7  UNL     1      -1.153   6.217 -19.294  0.00  0.00    +0.013 C 
ATOM      2  C8  UNL     1      -2.379   5.717 -19.510  0.00  0.00    +0.068 C 
ENDROOT
BRANCH   2   3
ATOM      3  C9  UNL     1      -3.009   5.841 -20.843  0.00  0.00    +0.224 A 
ATOM      4  N1  UNL     1      -3.399   4.865 -21.585  0.00  0.00    -0.173 NA
ATOM      5  C10 UNL     1      -3.969   5.124 -22.800  0.00  0.00    +0.284 A 
ATOM      6  O2  UNL     1      -4.359   4.237 -23.550  0.00  0.00    -0.265 OA
ATOM      7  C11 UNL     1      -4.120   6.524 -23.223  0.00  0.00    +0.084 A 
ATOM      8  C12 UNL     1      -4.693   6.875 -24.449  0.00  0.00    +0.017 A 
ATOM      9  C13 UNL     1      -4.808   8.222 -24.794  0.00  0.00    +0.001 A 
ATOM     10  C14 UNL     1      -4.354   9.211 -23.917  0.00  0.00    +0.004 A 
ATOM     11  C15 UNL     1      -3.783   8.855 -22.694  0.00  0.00    +0.047 A 
ATOM     12  C16 UNL     1      -3.672   7.507 -22.359  0.00  0.00    +0.143 A 
ATOM     13  O3  UNL     1      -3.097   7.190 -21.130  0.00  0.00    -0.437 OA
ENDBRANCH   2   3
BRANCH   1  17
ATOM     14  C3  UNL     1       0.900   5.833 -15.545  0.00  0.00    +0.121 A 
ATOM     15  C4  UNL     1      -0.198   5.029 -15.856  0.00  0.00    +0.046 A 
ATOM     16  C5  UNL     1      -0.862   5.164 -17.079  0.00  0.00    +0.011 A 
ATOM     17  C6  UNL     1      -0.447   6.122 -18.009  0.00  0.00    -0.025 A 
ATOM     18  C17 UNL     1       0.662   6.919 -17.699  0.00  0.00    +0.011 A 
ATOM     19  C18 UNL     1       1.327   6.781 -16.472  0.00  0.00    +0.046 A 
BRANCH  14  20
ATOM     20  O1  UNL     1       1.446   5.594 -14.317  0.00  0.00    -0.492 OA
BRANCH  20  22
ATOM     21  C1  UNL     1       2.905   4.077 -13.113  0.00  0.00    +0.048 C 
ATOM     22  C2  UNL     1       1.607   4.245 -13.883  0.00  0.00    +0.225 C 
ENDBRANCH  20  22
ENDBRANCH  14  20
ENDBRANCH   1  17
TORSDOF 4
ENDMDL
MODEL 6
REMARK VINA RESULT:    -4.559     10.191     13.614
REMARK INTER + INTRA:          -6.156
REMARK INTER:                  -5.618
REMARK INTRA:                  -0.538
REMARK UNBOUND:                -0.530
REMARK  Name = /home/vital/Documents/PhD_2021/Malaria_codes/data/pdb_ligands_mmv/ligand_97.pdb
REMARK  5 active torsions:
REMARK  status: ('A' for Active; 'I' for Inactive)
REMARK    1  A    between atoms: C1_1  and  C2_2
REMARK    2  A    between atoms: C2_2  and  O1_3
REMARK    3  A    between atoms: O1_3  and  C3_4
REMARK    4  A    between atoms: C6_7  and  C7_8
REMARK    5  A    between atoms: C8_9  and  C9_10
REMARK                            x       y       z     vdW  Elec       q    Type
REMARK                         _______ _______ _______ _____ _____    ______ ____
ROOT
ATOM      1  C7  UNL     1       2.530   1.323 -18.037  0.00  0.00    +0.013 C 
ATOM      2  C8  UNL     1       1.881   1.694 -16.922  0.00  0.00    +0.068 C 
ENDROOT
BRANCH   2   3
ATOM      3  C9  UNL     1       1.719   3.129 -16.598  0.00  0.00    +0.224 A 
ATOM      4  N1  UNL     1       1.310   3.604 -15.474  0.00  0.00    -0.173 NA
ATOM      5  C10 UNL     1       1.208   4.958 -15.309  0.00  0.00    +0.284 A 
ATOM      6  O2  UNL     1       0.825   5.469 -14.264  0.00  0.00    -0.265 OA
ATOM      7  C11 UNL     1       1.571   5.833 -16.433  0.00  0.00    +0.084 A 
ATOM      8  C12 UNL     1       1.496   7.227 -16.348  0.00  0.00    +0.017 A 
ATOM      9  C13 UNL     1       1.855   8.005 -17.449  0.00  0.00    +0.001 A 
ATOM     10  C14 UNL     1       2.287   7.391 -18.628  0.00  0.00    +0.004 A 
ATOM     11  C15 UNL     1       2.361   6.000 -18.709  0.00  0.00    +0.047 A 
ATOM     12  C16 UNL     1       2.000   5.232 -17.603  0.00  0.00    +0.143 A 
ATOM     13  O3  UNL     1       2.087   3.846 -17.721  0.00  0.00    -0.437 OA
ENDBRANCH   2   3
BRANCH   1  17
ATOM     14  C3  UNL     1       3.187  -2.757 -19.189  0.00  0.00    +0.121 A 
ATOM     15  C4  UNL     1       4.180  -1.790 -19.350  0.00  0.00    +0.046 A 
ATOM     16  C5  UNL     1       3.955  -0.462 -18.974  0.00  0.00    +0.011 A 
ATOM     17  C6  UNL     1       2.721  -0.075 -18.444  0.00  0.00    -0.025 A 
ATOM     18  C17 UNL     1       1.730  -1.050 -18.274  0.00  0.00    +0.011 A 
ATOM     19  C18 UNL     1       1.958  -2.381 -18.650  0.00  0.00    +0.046 A 
BRANCH  14  20
ATOM     20  O1  UNL     1       3.544  -4.009 -19.602  0.00  0.00    -0.492 OA
BRANCH  20  22
ATOM     21  C1  UNL     1       4.790  -4.727 -21.554  0.00  0.00    +0.048 C 
ATOM     22  C2  UNL     1       4.854  -4.216 -20.125  0.00  0.00    +0.225 C 
ENDBRANCH  20  22
ENDBRANCH  14  20
ENDBRANCH   1  17
TORSDOF 4
ENDMDL
MODEL 7
REMARK VINA RESULT:    -4.518      8.503     10.204
REMARK INTER + INTRA:          -6.104
REMARK INTER:                  -5.491
REMARK INTRA:                  -0.613
REMARK UNBOUND:                -0.530
REMARK  Name = /home/vital/Documents/PhD_2021/Malaria_codes/data/pdb_ligands_mmv/ligand_97.pdb
REMARK  5 active torsions:
REMARK  status: ('A' for Active; 'I' for Inactive)
REMARK    1  A    between atoms: C1_1  and  C2_2
REMARK    2  A    between atoms: C2_2  and  O1_3
REMARK    3  A    between atoms: O1_3  and  C3_4
REMARK    4  A    between atoms: C6_7  and  C7_8
REMARK    5  A    between atoms: C8_9  and  C9_10
REMARK                            x       y       z     vdW  Elec       q    Type
REMARK                         _______ _______ _______ _____ _____    ______ ____
ROOT
ATOM      1  C7  UNL     1      -2.321   5.687 -20.512  0.00  0.00    +0.013 C 
ATOM      2  C8  UNL     1      -2.613   5.593 -19.206  0.00  0.00    +0.068 C 
ENDROOT
BRANCH   2   3
ATOM      3  C9  UNL     1      -1.530   5.624 -18.197  0.00  0.00    +0.224 A 
ATOM      4  N1  UNL     1      -1.477   4.908 -17.129  0.00  0.00    -0.173 NA
ATOM      5  C10 UNL     1      -0.413   5.037 -16.280  0.00  0.00    +0.284 A 
ATOM      6  O2  UNL     1      -0.307   4.385 -15.249  0.00  0.00    -0.265 OA
ATOM      7  C11 UNL     1       0.646   5.999 -16.620  0.00  0.00    +0.084 A 
ATOM      8  C12 UNL     1       1.767   6.192 -15.807  0.00  0.00    +0.017 A 
ATOM      9  C13 UNL     1       2.739   7.120 -16.184  0.00  0.00    +0.001 A 
ATOM     10  C14 UNL     1       2.589   7.850 -17.366  0.00  0.00    +0.004 A 
ATOM     11  C15 UNL     1       1.468   7.654 -18.174  0.00  0.00    +0.047 A 
ATOM     12  C16 UNL     1       0.503   6.725 -17.790  0.00  0.00    +0.143 A 
ATOM     13  O3  UNL     1      -0.602   6.556 -18.621  0.00  0.00    -0.437 OA
ENDBRANCH   2   3
BRANCH   1  17
ATOM     14  C3  UNL     1      -5.280   5.570 -23.616  0.00  0.00    +0.121 A 
ATOM     15  C4  UNL     1      -4.277   4.603 -23.535  0.00  0.00    +0.046 A 
ATOM     16  C5  UNL     1      -3.315   4.652 -22.522  0.00  0.00    +0.011 A 
ATOM     17  C6  UNL     1      -3.332   5.683 -21.578  0.00  0.00    -0.025 A 
ATOM     18  C17 UNL     1      -4.347   6.645 -21.655  0.00  0.00    +0.011 A 
ATOM     19  C18 UNL     1      -5.311   6.594 -22.671  0.00  0.00    +0.046 A 
BRANCH  14  20
ATOM     20  O1  UNL     1      -6.148   5.400 -24.658  0.00  0.00    -0.492 OA
BRANCH  20  22
ATOM     21  C1  UNL     1      -8.401   4.539 -24.411  0.00  0.00    +0.048 C 
ATOM     22  C2  UNL     1      -6.947   4.219 -24.705  0.00  0.00    +0.225 C 
ENDBRANCH  20  22
ENDBRANCH  14  20
ENDBRANCH   1  17
TORSDOF 4
ENDMDL
MODEL 8
REMARK VINA RESULT:    -4.460     11.025     14.265
REMARK INTER + INTRA:          -6.033
REMARK INTER:                  -5.452
REMARK INTRA:                  -0.581
REMARK UNBOUND:                -0.530
REMARK  Name = /home/vital/Documents/PhD_2021/Malaria_codes/data/pdb_ligands_mmv/ligand_97.pdb
REMARK  5 active torsions:
REMARK  status: ('A' for Active; 'I' for Inactive)
REMARK    1  A    between atoms: C1_1  and  C2_2
REMARK    2  A    between atoms: C2_2  and  O1_3
REMARK    3  A    between atoms: O1_3  and  C3_4
REMARK    4  A    between atoms: C6_7  and  C7_8
REMARK    5  A    between atoms: C8_9  and  C9_10
REMARK                            x       y       z     vdW  Elec       q    Type
REMARK                         _______ _______ _______ _____ _____    ______ ____
ROOT
ATOM      1  C7  UNL     1      -1.141  -0.499 -34.593  0.00  0.00    +0.013 C 
ATOM      2  C8  UNL     1      -2.450  -0.796 -34.601  0.00  0.00    +0.068 C 
ENDROOT
BRANCH   2   3
ATOM      3  C9  UNL     1      -3.453   0.266 -34.839  0.00  0.00    +0.224 A 
ATOM      4  N1  UNL     1      -4.532   0.139 -35.528  0.00  0.00    -0.173 NA
ATOM      5  C10 UNL     1      -5.375   1.207 -35.666  0.00  0.00    +0.284 A 
ATOM      6  O2  UNL     1      -6.416   1.149 -36.310  0.00  0.00    -0.265 OA
ATOM      7  C11 UNL     1      -5.016   2.476 -35.016  0.00  0.00    +0.084 A 
ATOM      8  C12 UNL     1      -5.822   3.615 -35.107  0.00  0.00    +0.017 A 
ATOM      9  C13 UNL     1      -5.428   4.791 -34.467  0.00  0.00    +0.001 A 
ATOM     10  C14 UNL     1      -4.234   4.826 -33.741  0.00  0.00    +0.004 A 
ATOM     11  C15 UNL     1      -3.433   3.686 -33.652  0.00  0.00    +0.047 A 
ATOM     12  C16 UNL     1      -3.836   2.517 -34.295  0.00  0.00    +0.143 A 
ATOM     13  O3  UNL     1      -3.011   1.400 -34.185  0.00  0.00    -0.437 OA
ENDBRANCH   2   3
BRANCH   1  17
ATOM     14  C3  UNL     1       1.978  -3.402 -34.086  0.00  0.00    +0.121 A 
ATOM     15  C4  UNL     1       1.087  -3.475 -35.158  0.00  0.00    +0.046 A 
ATOM     16  C5  UNL     1       0.073  -2.526 -35.312  0.00  0.00    +0.011 A 
ATOM     17  C6  UNL     1      -0.079  -1.492 -34.383  0.00  0.00    -0.025 A 
ATOM     18  C17 UNL     1       0.823  -1.415 -33.315  0.00  0.00    +0.011 A 
ATOM     19  C18 UNL     1       1.841  -2.367 -33.162  0.00  0.00    +0.046 A 
BRANCH  14  20
ATOM     20  O1  UNL     1       2.914  -4.396 -34.059  0.00  0.00    -0.492 OA
BRANCH  20  22
ATOM     21  C1  UNL     1       2.997  -6.599 -33.051  0.00  0.00    +0.048 C 
ATOM     22  C2  UNL     1       3.137  -5.102 -32.840  0.00  0.00    +0.225 C 
ENDBRANCH  20  22
ENDBRANCH  14  20
ENDBRANCH   1  17
TORSDOF 4
ENDMDL
MODEL 9
REMARK VINA RESULT:    -4.331     15.321     16.029
REMARK INTER + INTRA:          -5.874
REMARK INTER:                  -5.310
REMARK INTRA:                  -0.564
REMARK UNBOUND:                -0.530
REMARK  Name = /home/vital/Documents/PhD_2021/Malaria_codes/data/pdb_ligands_mmv/ligand_97.pdb
REMARK  5 active torsions:
REMARK  status: ('A' for Active; 'I' for Inactive)
REMARK    1  A    between atoms: C1_1  and  C2_2
REMARK    2  A    between atoms: C2_2  and  O1_3
REMARK    3  A    between atoms: O1_3  and  C3_4
REMARK    4  A    between atoms: C6_7  and  C7_8
REMARK    5  A    between atoms: C8_9  and  C9_10
REMARK                            x       y       z     vdW  Elec       q    Type
REMARK                         _______ _______ _______ _____ _____    ______ ____
ROOT
ATOM      1  C7  UNL     1       3.005   6.632 -34.382  0.00  0.00    +0.013 C 
ATOM      2  C8  UNL     1       4.223   7.193 -34.317  0.00  0.00    +0.068 C 
ENDROOT
BRANCH   2   3
ATOM      3  C9  UNL     1       5.392   6.388 -33.898  0.00  0.00    +0.224 A 
ATOM      4  N1  UNL     1       6.417   6.828 -33.257  0.00  0.00    -0.173 NA
ATOM      5  C10 UNL     1       7.430   5.969 -32.931  0.00  0.00    +0.284 A 
ATOM      6  O2  UNL     1       8.432   6.329 -32.323  0.00  0.00    -0.265 OA
ATOM      7  C11 UNL     1       7.313   4.559 -33.327  0.00  0.00    +0.084 A 
ATOM      8  C12 UNL     1       8.303   3.616 -33.033  0.00  0.00    +0.017 A 
ATOM      9  C13 UNL     1       8.133   2.291 -33.435  0.00  0.00    +0.001 A 
ATOM     10  C14 UNL     1       6.980   1.911 -34.128  0.00  0.00    +0.004 A 
ATOM     11  C15 UNL     1       5.995   2.856 -34.420  0.00  0.00    +0.047 A 
ATOM     12  C16 UNL     1       6.173   4.177 -34.013  0.00  0.00    +0.143 A 
ATOM     13  O3  UNL     1       5.169   5.091 -34.322  0.00  0.00    -0.437 OA
ENDBRANCH   2   3
BRANCH   1  17
ATOM     14  C3  UNL     1      -0.543   8.762 -35.514  0.00  0.00    +0.121 A 
ATOM     15  C4  UNL     1      -0.489   8.020 -34.333  0.00  0.00    +0.046 A 
ATOM     16  C5  UNL     1       0.671   7.327 -33.975  0.00  0.00    +0.011 A 
ATOM     17  C6  UNL     1       1.796   7.351 -34.804  0.00  0.00    -0.025 A 
ATOM     18  C17 UNL     1       1.743   8.106 -35.982  0.00  0.00    +0.011 A 
ATOM     19  C18 UNL     1       0.579   8.802 -36.339  0.00  0.00    +0.046 A 
BRANCH  14  20
ATOM     20  O1  UNL     1      -1.739   9.384 -35.738  0.00  0.00    -0.492 OA
BRANCH  20  22
ATOM     21  C1  UNL     1      -4.081   8.816 -35.468  0.00  0.00    +0.048 C 
ATOM     22  C2  UNL     1      -2.788   9.226 -34.785  0.00  0.00    +0.225 C 
ENDBRANCH  20  22
ENDBRANCH  14  20
ENDBRANCH   1  17
TORSDOF 4
ENDMDL
