MODEL 1
REMARK VINA RESULT:    -4.728      0.000      0.000
REMARK INTER + INTRA:          -8.105
REMARK INTER:                  -6.248
REMARK INTRA:                  -1.857
REMARK UNBOUND:                -1.857
REMARK  Name = /home/vital/Documents/PhD_2021/Malaria_codes/data/pdb_ligands_mmv/ligand_219.pdb
REMARK  9 active torsions:
REMARK  status: ('A' for Active; 'I' for Inactive)
REMARK    1  A    between atoms: C1_1  and  C2_2
REMARK    2  A    between atoms: C7_7  and  N1_8
REMARK    3  A    between atoms: N1_8  and  C8_9
REMARK    4  A    between atoms: C8_9  and  C9_10
REMARK    5  A    between atoms: C9_10  and  O1_11
REMARK    6  A    between atoms: C9_10  and  C10_12
REMARK    7  A    between atoms: C10_12  and  N2_13
REMARK    8  A    between atoms: C11_14  and  C12_15
REMARK    9  A    between atoms: C13_16  and  C14_17
REMARK                            x       y       z     vdW  Elec       q    Type
REMARK                         _______ _______ _______ _____ _____    ______ ____
ROOT
ATOM      1  C9  UNL     1       2.032  -8.174 -32.651  0.00  0.00    +0.148 C 
ENDROOT
BRANCH   1   2
ATOM      2  O1  UNL     1       2.347  -9.564 -32.830  0.00  0.00    -0.389 OA
ATOM      3  H18 UNL     1       3.113  -9.607 -33.436  0.00  0.00    +0.210 HD
ENDBRANCH   1   2
BRANCH   1   4
ATOM      4  C8  UNL     1       0.722  -8.041 -31.846  0.00  0.00    +0.114 C 
BRANCH   4   5
ATOM      5  N1  UNL     1       0.965  -8.058 -30.392  0.00  0.00    -0.310 NA
ATOM      6  H14 UNL     1       1.980  -8.098 -30.261  0.00  0.00    +0.122 HD
BRANCH   5  13
ATOM      7  C1  UNL     1      -1.750  -6.504 -30.978  0.00  0.00    +0.009 C 
ATOM      8  C2  UNL     1      -0.331  -5.985 -30.723  0.00  0.00    +0.003 C 
ATOM      9  C3  UNL     1      -0.369  -4.526 -30.253  0.00  0.00    +0.005 C 
ATOM     10  C4  UNL     1       1.039  -3.933 -30.152  0.00  0.00    +0.000 C 
ATOM     11  C5  UNL     1       2.112  -4.969 -29.822  0.00  0.00    +0.002 C 
ATOM     12  C6  UNL     1       1.550  -6.103 -28.974  0.00  0.00    +0.019 C 
ATOM     13  C7  UNL     1       0.424  -6.878 -29.695  0.00  0.00    +0.057 C 
ENDBRANCH   5  13
ENDBRANCH   4   5
ENDBRANCH   1   4
BRANCH   1  14
ATOM     14  C10 UNL     1       2.028  -7.414 -33.991  0.00  0.00    +0.154 C 
BRANCH  14  15
ATOM     15  N2  UNL     1       2.057  -5.961 -33.880  0.00  0.00    -0.341 N 
ATOM     16  C11 UNL     1       1.014  -5.105 -34.179  0.00  0.00    +0.020 A 
ATOM     17  C12 UNL     1      -0.343  -5.567 -34.595  0.00  0.00    +0.064 C 
ATOM     18  C13 UNL     1       1.477  -3.807 -34.017  0.00  0.00    -0.022 A 
ATOM     19  C14 UNL     1       0.706  -2.557 -34.271  0.00  0.00    +0.046 C 
ATOM     20  C15 UNL     1       2.814  -3.887 -33.521  0.00  0.00    +0.003 A 
ATOM     21  C16 UNL     1       3.772  -2.923 -33.137  0.00  0.00    +0.010 A 
ATOM     22  C17 UNL     1       5.016  -3.332 -32.649  0.00  0.00    +0.001 A 
ATOM     23  C18 UNL     1       5.316  -4.684 -32.532  0.00  0.00    +0.002 A 
ATOM     24  C19 UNL     1       4.387  -5.659 -32.906  0.00  0.00    +0.026 A 
ATOM     25  C20 UNL     1       3.142  -5.239 -33.411  0.00  0.00    +0.050 A 
ENDBRANCH  14  15
ENDBRANCH   1  14
TORSDOF 6
ENDMDL
MODEL 2
REMARK VINA RESULT:    -4.116     12.104     13.887
REMARK INTER + INTRA:          -7.296
REMARK INTER:                  -6.258
REMARK INTRA:                  -1.039
REMARK UNBOUND:                -1.857
REMARK  Name = /home/vital/Documents/PhD_2021/Malaria_codes/data/pdb_ligands_mmv/ligand_219.pdb
REMARK  9 active torsions:
REMARK  status: ('A' for Active; 'I' for Inactive)
REMARK    1  A    between atoms: C1_1  and  C2_2
REMARK    2  A    between atoms: C7_7  and  N1_8
REMARK    3  A    between atoms: N1_8  and  C8_9
REMARK    4  A    between atoms: C8_9  and  C9_10
REMARK    5  A    between atoms: C9_10  and  O1_11
REMARK    6  A    between atoms: C9_10  and  C10_12
REMARK    7  A    between atoms: C10_12  and  N2_13
REMARK    8  A    between atoms: C11_14  and  C12_15
REMARK    9  A    between atoms: C13_16  and  C14_17
REMARK                            x       y       z     vdW  Elec       q    Type
REMARK                         _______ _______ _______ _____ _____    ______ ____
ROOT
ATOM      1  C9  UNL     1       1.455   0.244 -19.351  0.00  0.00    +0.148 C 
ENDROOT
BRANCH   1   2
ATOM      2  O1  UNL     1       1.795   1.640 -19.344  0.00  0.00    -0.389 OA
ATOM      3  H18 UNL     1       2.341   1.796 -18.548  0.00  0.00    +0.210 HD
ENDBRANCH   1   2
BRANCH   1   4
ATOM      4  C8  UNL     1      -0.075   0.085 -19.223  0.00  0.00    +0.114 C 
BRANCH   4   5
ATOM      5  N1  UNL     1      -0.490  -1.328 -19.296  0.00  0.00    -0.310 NA
ATOM      6  H14 UNL     1      -1.000  -1.533 -18.431  0.00  0.00    +0.122 HD
BRANCH   5  13
ATOM      7  C1  UNL     1      -3.665  -1.212 -19.468  0.00  0.00    +0.009 C 
ATOM      8  C2  UNL     1      -2.672  -2.273 -19.951  0.00  0.00    +0.003 C 
ATOM      9  C3  UNL     1      -3.304  -3.143 -21.043  0.00  0.00    +0.005 C 
ATOM     10  C4  UNL     1      -2.395  -4.315 -21.424  0.00  0.00    +0.000 C 
ATOM     11  C5  UNL     1      -0.908  -4.012 -21.247  0.00  0.00    +0.002 C 
ATOM     12  C6  UNL     1      -0.611  -2.534 -21.465  0.00  0.00    +0.019 C 
ATOM     13  C7  UNL     1      -1.349  -1.627 -20.455  0.00  0.00    +0.057 C 
ENDBRANCH   5  13
ENDBRANCH   4   5
ENDBRANCH   1   4
BRANCH   1  14
ATOM     14  C10 UNL     1       2.261  -0.544 -18.301  0.00  0.00    +0.154 C 
BRANCH  14  15
ATOM     15  N2  UNL     1       3.531  -1.085 -18.772  0.00  0.00    -0.341 N 
ATOM     16  C11 UNL     1       4.764  -0.473 -18.654  0.00  0.00    +0.020 A 
ATOM     17  C12 UNL     1       4.982   0.822 -17.946  0.00  0.00    +0.064 C 
ATOM     18  C13 UNL     1       5.694  -1.278 -19.297  0.00  0.00    -0.022 A 
ATOM     19  C14 UNL     1       7.148  -0.991 -19.459  0.00  0.00    +0.046 C 
ATOM     20  C15 UNL     1       5.012  -2.452 -19.740  0.00  0.00    +0.003 A 
ATOM     21  C16 UNL     1       5.423  -3.625 -20.409  0.00  0.00    +0.010 A 
ATOM     22  C17 UNL     1       4.495  -4.636 -20.680  0.00  0.00    +0.001 A 
ATOM     23  C18 UNL     1       3.170  -4.496 -20.288  0.00  0.00    +0.002 A 
ATOM     24  C19 UNL     1       2.736  -3.344 -19.626  0.00  0.00    +0.026 A 
ATOM     25  C20 UNL     1       3.672  -2.325 -19.371  0.00  0.00    +0.050 A 
ENDBRANCH  14  15
ENDBRANCH   1  14
TORSDOF 6
ENDMDL
MODEL 3
REMARK VINA RESULT:    -3.978     16.436     18.812
REMARK INTER + INTRA:          -7.114
REMARK INTER:                  -5.503
REMARK INTRA:                  -1.611
REMARK UNBOUND:                -1.857
REMARK  Name = /home/vital/Documents/PhD_2021/Malaria_codes/data/pdb_ligands_mmv/ligand_219.pdb
REMARK  9 active torsions:
REMARK  status: ('A' for Active; 'I' for Inactive)
REMARK    1  A    between atoms: C1_1  and  C2_2
REMARK    2  A    between atoms: C7_7  and  N1_8
REMARK    3  A    between atoms: N1_8  and  C8_9
REMARK    4  A    between atoms: C8_9  and  C9_10
REMARK    5  A    between atoms: C9_10  and  O1_11
REMARK    6  A    between atoms: C9_10  and  C10_12
REMARK    7  A    between atoms: C10_12  and  N2_13
REMARK    8  A    between atoms: C11_14  and  C12_15
REMARK    9  A    between atoms: C13_16  and  C14_17
REMARK                            x       y       z     vdW  Elec       q    Type
REMARK                         _______ _______ _______ _____ _____    ______ ____
ROOT
ATOM      1  C9  UNL     1       2.528   4.412 -20.164  0.00  0.00    +0.148 C 
ENDROOT
BRANCH   1   2
ATOM      2  O1  UNL     1       3.729   4.533 -19.385  0.00  0.00    -0.389 OA
ATOM      3  H18 UNL     1       4.243   5.272 -19.766  0.00  0.00    +0.210 HD
ENDBRANCH   1   2
BRANCH   1   4
ATOM      4  C8  UNL     1       1.947   5.815 -20.438  0.00  0.00    +0.114 C 
BRANCH   4   5
ATOM      5  N1  UNL     1       2.958   6.874 -20.265  0.00  0.00    -0.310 NA
ATOM      6  H14 UNL     1       3.325   7.090 -21.197  0.00  0.00    +0.122 HD
BRANCH   5  13
ATOM      7  C1  UNL     1       3.964   9.868 -20.659  0.00  0.00    +0.009 C 
ATOM      8  C2  UNL     1       3.595   9.092 -19.391  0.00  0.00    +0.003 C 
ATOM      9  C3  UNL     1       3.250  10.057 -18.251  0.00  0.00    +0.005 C 
ATOM     10  C4  UNL     1       3.040   9.313 -16.929  0.00  0.00    +0.000 C 
ATOM     11  C5  UNL     1       2.512   7.891 -17.110  0.00  0.00    +0.002 C 
ATOM     12  C6  UNL     1       1.645   7.774 -18.357  0.00  0.00    +0.019 C 
ATOM     13  C7  UNL     1       2.421   8.102 -19.651  0.00  0.00    +0.057 C 
ENDBRANCH   5  13
ENDBRANCH   4   5
ENDBRANCH   1   4
BRANCH   1  14
ATOM     14  C10 UNL     1       1.530   3.430 -19.522  0.00  0.00    +0.154 C 
BRANCH  14  15
ATOM     15  N2  UNL     1       0.652   4.009 -18.512  0.00  0.00    -0.341 N 
ATOM     16  C11 UNL     1      -0.676   4.349 -18.693  0.00  0.00    +0.020 A 
ATOM     17  C12 UNL     1      -1.431   4.095 -19.954  0.00  0.00    +0.064 C 
ATOM     18  C13 UNL     1      -1.121   4.940 -17.519  0.00  0.00    -0.022 A 
ATOM     19  C14 UNL     1      -2.480   5.501 -17.273  0.00  0.00    +0.046 C 
ATOM     20  C15 UNL     1      -0.052   4.874 -16.574  0.00  0.00    +0.003 A 
ATOM     21  C16 UNL     1       0.083   5.269 -15.225  0.00  0.00    +0.010 A 
ATOM     22  C17 UNL     1       1.282   5.032 -14.545  0.00  0.00    +0.001 A 
ATOM     23  C18 UNL     1       2.341   4.403 -15.187  0.00  0.00    +0.002 A 
ATOM     24  C19 UNL     1       2.235   4.003 -16.522  0.00  0.00    +0.026 A 
ATOM     25  C20 UNL     1       1.031   4.259 -17.204  0.00  0.00    +0.050 A 
ENDBRANCH  14  15
ENDBRANCH   1  14
TORSDOF 6
ENDMDL
MODEL 4
REMARK VINA RESULT:    -3.909      2.028      4.444
REMARK INTER + INTRA:          -7.023
REMARK INTER:                  -5.145
REMARK INTRA:                  -1.878
REMARK UNBOUND:                -1.857
REMARK  Name = /home/vital/Documents/PhD_2021/Malaria_codes/data/pdb_ligands_mmv/ligand_219.pdb
REMARK  9 active torsions:
REMARK  status: ('A' for Active; 'I' for Inactive)
REMARK    1  A    between atoms: C1_1  and  C2_2
REMARK    2  A    between atoms: C7_7  and  N1_8
REMARK    3  A    between atoms: N1_8  and  C8_9
REMARK    4  A    between atoms: C8_9  and  C9_10
REMARK    5  A    between atoms: C9_10  and  O1_11
REMARK    6  A    between atoms: C9_10  and  C10_12
REMARK    7  A    between atoms: C10_12  and  N2_13
REMARK    8  A    between atoms: C11_14  and  C12_15
REMARK    9  A    between atoms: C13_16  and  C14_17
REMARK                            x       y       z     vdW  Elec       q    Type
REMARK                         _______ _______ _______ _____ _____    ______ ____
ROOT
ATOM      1  C9  UNL     1       4.307  -4.490 -32.920  0.00  0.00    +0.148 C 
ENDROOT
BRANCH   1   2
ATOM      2  O1  UNL     1       5.670  -4.459 -33.370  0.00  0.00    -0.389 OA
ATOM      3  H18 UNL     1       6.038  -5.354 -33.227  0.00  0.00    +0.210 HD
ENDBRANCH   1   2
BRANCH   1   4
ATOM      4  C8  UNL     1       3.641  -5.804 -33.379  0.00  0.00    +0.114 C 
BRANCH   4   5
ATOM      5  N1  UNL     1       3.006  -6.521 -32.258  0.00  0.00    -0.310 NA
ATOM      6  H14 UNL     1       3.177  -5.965 -31.415  0.00  0.00    +0.122 HD
BRANCH   5  13
ATOM      7  C1  UNL     1       0.754  -6.632 -30.012  0.00  0.00    +0.009 C 
ATOM      8  C2  UNL     1       1.005  -7.531 -31.227  0.00  0.00    +0.003 C 
ATOM      9  C3  UNL     1      -0.275  -8.280 -31.615  0.00  0.00    +0.005 C 
ATOM     10  C4  UNL     1      -0.011  -9.308 -32.718  0.00  0.00    +0.000 C 
ATOM     11  C5  UNL     1       1.134  -8.918 -33.651  0.00  0.00    +0.002 C 
ATOM     12  C6  UNL     1       1.254  -7.405 -33.783  0.00  0.00    +0.019 C 
ATOM     13  C7  UNL     1       1.556  -6.715 -32.434  0.00  0.00    +0.057 C 
ENDBRANCH   5  13
ENDBRANCH   4   5
ENDBRANCH   1   4
BRANCH   1  14
ATOM     14  C10 UNL     1       3.542  -3.218 -33.333  0.00  0.00    +0.154 C 
BRANCH  14  15
ATOM     15  N2  UNL     1       2.116  -3.224 -33.028  0.00  0.00    -0.341 N 
ATOM     16  C11 UNL     1       1.549  -2.931 -31.803  0.00  0.00    +0.020 A 
ATOM     17  C12 UNL     1       2.332  -2.483 -30.614  0.00  0.00    +0.064 C 
ATOM     18  C13 UNL     1       0.180  -3.130 -31.915  0.00  0.00    -0.022 A 
ATOM     19  C14 UNL     1      -0.826  -2.975 -30.827  0.00  0.00    +0.046 C 
ATOM     20  C15 UNL     1      -0.092  -3.471 -33.275  0.00  0.00    +0.003 A 
ATOM     21  C16 UNL     1      -1.276  -3.748 -33.993  0.00  0.00    +0.010 A 
ATOM     22  C17 UNL     1      -1.215  -4.023 -35.362  0.00  0.00    +0.001 A 
ATOM     23  C18 UNL     1       0.006  -4.020 -36.025  0.00  0.00    +0.002 A 
ATOM     24  C19 UNL     1       1.194  -3.751 -35.339  0.00  0.00    +0.026 A 
ATOM     25  C20 UNL     1       1.125  -3.489 -33.958  0.00  0.00    +0.050 A 
ENDBRANCH  14  15
ENDBRANCH   1  14
TORSDOF 6
ENDMDL
MODEL 5
REMARK VINA RESULT:    -3.868      9.406     11.427
REMARK INTER + INTRA:          -6.968
REMARK INTER:                  -5.196
REMARK INTRA:                  -1.772
REMARK UNBOUND:                -1.857
REMARK  Name = /home/vital/Documents/PhD_2021/Malaria_codes/data/pdb_ligands_mmv/ligand_219.pdb
REMARK  9 active torsions:
REMARK  status: ('A' for Active; 'I' for Inactive)
REMARK    1  A    between atoms: C1_1  and  C2_2
REMARK    2  A    between atoms: C7_7  and  N1_8
REMARK    3  A    between atoms: N1_8  and  C8_9
REMARK    4  A    between atoms: C8_9  and  C9_10
REMARK    5  A    between atoms: C9_10  and  O1_11
REMARK    6  A    between atoms: C9_10  and  C10_12
REMARK    7  A    between atoms: C10_12  and  N2_13
REMARK    8  A    between atoms: C11_14  and  C12_15
REMARK    9  A    between atoms: C13_16  and  C14_17
REMARK                            x       y       z     vdW  Elec       q    Type
REMARK                         _______ _______ _______ _____ _____    ______ ____
ROOT
ATOM      1  C9  UNL     1       4.234  -0.142 -22.993  0.00  0.00    +0.148 C 
ENDROOT
BRANCH   1   2
ATOM      2  O1  UNL     1       5.455   0.408 -22.473  0.00  0.00    -0.389 OA
ATOM      3  H18 UNL     1       5.415   0.322 -21.501  0.00  0.00    +0.210 HD
ENDBRANCH   1   2
BRANCH   1   4
ATOM      4  C8  UNL     1       3.558  -1.012 -21.913  0.00  0.00    +0.114 C 
BRANCH   4   5
ATOM      5  N1  UNL     1       3.993  -0.640 -20.554  0.00  0.00    -0.310 NA
ATOM      6  H14 UNL     1       3.203  -0.163 -20.109  0.00  0.00    +0.122 HD
BRANCH   5  13
ATOM      7  C1  UNL     1       6.841  -2.054 -20.417  0.00  0.00    +0.009 C 
ATOM      8  C2  UNL     1       5.432  -2.644 -20.526  0.00  0.00    +0.003 C 
ATOM      9  C3  UNL     1       5.421  -4.101 -20.050  0.00  0.00    +0.005 C 
ATOM     10  C4  UNL     1       4.065  -4.765 -20.306  0.00  0.00    +0.000 C 
ATOM     11  C5  UNL     1       2.893  -3.786 -20.269  0.00  0.00    +0.002 C 
ATOM     12  C6  UNL     1       3.164  -2.629 -19.316  0.00  0.00    +0.019 C 
ATOM     13  C7  UNL     1       4.396  -1.795 -19.732  0.00  0.00    +0.057 C 
ENDBRANCH   5  13
ENDBRANCH   4   5
ENDBRANCH   1   4
BRANCH   1  14
ATOM     14  C10 UNL     1       4.461  -0.865 -24.334  0.00  0.00    +0.154 C 
BRANCH  14  15
ATOM     15  N2  UNL     1       5.347  -2.021 -24.274  0.00  0.00    -0.341 N 
ATOM     16  C11 UNL     1       4.953  -3.337 -24.119  0.00  0.00    +0.020 A 
ATOM     17  C12 UNL     1       3.527  -3.773 -24.067  0.00  0.00    +0.064 C 
ATOM     18  C13 UNL     1       6.101  -4.111 -24.031  0.00  0.00    -0.022 A 
ATOM     19  C14 UNL     1       6.156  -5.585 -23.816  0.00  0.00    +0.046 C 
ATOM     20  C15 UNL     1       7.219  -3.244 -24.225  0.00  0.00    +0.003 A 
ATOM     21  C16 UNL     1       8.615  -3.449 -24.279  0.00  0.00    +0.010 A 
ATOM     22  C17 UNL     1       9.470  -2.370 -24.523  0.00  0.00    +0.001 A 
ATOM     23  C18 UNL     1       8.954  -1.096 -24.721  0.00  0.00    +0.002 A 
ATOM     24  C19 UNL     1       7.577  -0.864 -24.671  0.00  0.00    +0.026 A 
ATOM     25  C20 UNL     1       6.723  -1.952 -24.409  0.00  0.00    +0.050 A 
ENDBRANCH  14  15
ENDBRANCH   1  14
TORSDOF 6
ENDMDL
MODEL 6
REMARK VINA RESULT:    -3.862     17.495     19.954
REMARK INTER + INTRA:          -6.961
REMARK INTER:                  -4.639
REMARK INTRA:                  -2.322
REMARK UNBOUND:                -1.857
REMARK  Name = /home/vital/Documents/PhD_2021/Malaria_codes/data/pdb_ligands_mmv/ligand_219.pdb
REMARK  9 active torsions:
REMARK  status: ('A' for Active; 'I' for Inactive)
REMARK    1  A    between atoms: C1_1  and  C2_2
REMARK    2  A    between atoms: C7_7  and  N1_8
REMARK    3  A    between atoms: N1_8  and  C8_9
REMARK    4  A    between atoms: C8_9  and  C9_10
REMARK    5  A    between atoms: C9_10  and  O1_11
REMARK    6  A    between atoms: C9_10  and  C10_12
REMARK    7  A    between atoms: C10_12  and  N2_13
REMARK    8  A    between atoms: C11_14  and  C12_15
REMARK    9  A    between atoms: C13_16  and  C14_17
REMARK                            x       y       z     vdW  Elec       q    Type
REMARK                         _______ _______ _______ _____ _____    ______ ____
ROOT
ATOM      1  C9  UNL     1       4.141   4.795 -13.226  0.00  0.00    +0.148 C 
ENDROOT
BRANCH   1   2
ATOM      2  O1  UNL     1       3.436   5.795 -12.474  0.00  0.00    -0.389 OA
ATOM      3  H18 UNL     1       2.676   6.079 -13.019  0.00  0.00    +0.210 HD
ENDBRANCH   1   2
BRANCH   1   4
ATOM      4  C8  UNL     1       4.651   5.407 -14.548  0.00  0.00    +0.114 C 
BRANCH   4   5
ATOM      5  N1  UNL     1       3.949   6.659 -14.883  0.00  0.00    -0.310 NA
ATOM      6  H14 UNL     1       4.243   7.358 -14.193  0.00  0.00    +0.122 HD
BRANCH   5  13
ATOM      7  C1  UNL     1       2.010   8.208 -16.875  0.00  0.00    +0.009 C 
ATOM      8  C2  UNL     1       2.961   7.031 -17.113  0.00  0.00    +0.003 C 
ATOM      9  C3  UNL     1       3.322   6.923 -18.598  0.00  0.00    +0.005 C 
ATOM     10  C4  UNL     1       4.135   5.658 -18.888  0.00  0.00    +0.000 C 
ATOM     11  C5  UNL     1       4.991   5.203 -17.707  0.00  0.00    +0.002 C 
ATOM     12  C6  UNL     1       5.436   6.384 -16.854  0.00  0.00    +0.019 C 
ATOM     13  C7  UNL     1       4.245   7.152 -16.239  0.00  0.00    +0.057 C 
ENDBRANCH   5  13
ENDBRANCH   4   5
ENDBRANCH   1   4
BRANCH   1  14
ATOM     14  C10 UNL     1       3.298   3.518 -13.407  0.00  0.00    +0.154 C 
BRANCH  14  15
ATOM     15  N2  UNL     1       2.841   3.263 -14.767  0.00  0.00    -0.341 N 
ATOM     16  C11 UNL     1       3.412   2.378 -15.661  0.00  0.00    +0.020 A 
ATOM     17  C12 UNL     1       4.558   1.484 -15.322  0.00  0.00    +0.064 C 
ATOM     18  C13 UNL     1       2.728   2.495 -16.863  0.00  0.00    -0.022 A 
ATOM     19  C14 UNL     1       3.029   1.760 -18.125  0.00  0.00    +0.046 C 
ATOM     20  C15 UNL     1       1.658   3.418 -16.659  0.00  0.00    +0.003 A 
ATOM     21  C16 UNL     1       0.620   3.906 -17.483  0.00  0.00    +0.010 A 
ATOM     22  C17 UNL     1      -0.319   4.804 -16.965  0.00  0.00    +0.001 A 
ATOM     23  C18 UNL     1      -0.241   5.215 -15.640  0.00  0.00    +0.002 A 
ATOM     24  C19 UNL     1       0.777   4.749 -14.803  0.00  0.00    +0.026 A 
ATOM     25  C20 UNL     1       1.727   3.858 -15.336  0.00  0.00    +0.050 A 
ENDBRANCH  14  15
ENDBRANCH   1  14
TORSDOF 6
ENDMDL
MODEL 7
REMARK VINA RESULT:    -3.778      2.173      4.830
REMARK INTER + INTRA:          -6.849
REMARK INTER:                  -4.535
REMARK INTRA:                  -2.314
REMARK UNBOUND:                -1.857
REMARK  Name = /home/vital/Documents/PhD_2021/Malaria_codes/data/pdb_ligands_mmv/ligand_219.pdb
REMARK  9 active torsions:
REMARK  status: ('A' for Active; 'I' for Inactive)
REMARK    1  A    between atoms: C1_1  and  C2_2
REMARK    2  A    between atoms: C7_7  and  N1_8
REMARK    3  A    between atoms: N1_8  and  C8_9
REMARK    4  A    between atoms: C8_9  and  C9_10
REMARK    5  A    between atoms: C9_10  and  O1_11
REMARK    6  A    between atoms: C9_10  and  C10_12
REMARK    7  A    between atoms: C10_12  and  N2_13
REMARK    8  A    between atoms: C11_14  and  C12_15
REMARK    9  A    between atoms: C13_16  and  C14_17
REMARK                            x       y       z     vdW  Elec       q    Type
REMARK                         _______ _______ _______ _____ _____    ______ ____
ROOT
ATOM      1  C9  UNL     1      -0.047  -4.057 -29.656  0.00  0.00    +0.148 C 
ENDROOT
BRANCH   1   2
ATOM      2  O1  UNL     1      -1.217  -4.833 -29.353  0.00  0.00    -0.389 OA
ATOM      3  H18 UNL     1      -1.555  -4.516 -28.493  0.00  0.00    +0.210 HD
ENDBRANCH   1   2
BRANCH   1   4
ATOM      4  C8  UNL     1      -0.158  -3.490 -31.087  0.00  0.00    +0.114 C 
BRANCH   4   5
ATOM      5  N1  UNL     1      -0.999  -4.339 -31.952  0.00  0.00    -0.310 NA
ATOM      6  H14 UNL     1      -1.942  -4.330 -31.551  0.00  0.00    +0.122 HD
BRANCH   5  13
ATOM      7  C1  UNL     1      -1.833  -5.997 -34.537  0.00  0.00    +0.009 C 
ATOM      8  C2  UNL     1      -0.654  -5.052 -34.288  0.00  0.00    +0.003 C 
ATOM      9  C3  UNL     1      -0.098  -4.525 -35.616  0.00  0.00    +0.005 C 
ATOM     10  C4  UNL     1       1.183  -3.713 -35.406  0.00  0.00    +0.000 C 
ATOM     11  C5  UNL     1       1.241  -3.010 -34.050  0.00  0.00    +0.002 C 
ATOM     12  C6  UNL     1      -0.151  -2.640 -33.555  0.00  0.00    +0.019 C 
ATOM     13  C7  UNL     1      -1.055  -3.876 -33.350  0.00  0.00    +0.057 C 
ENDBRANCH   5  13
ENDBRANCH   4   5
ENDBRANCH   1   4
BRANCH   1  14
ATOM     14  C10 UNL     1       1.247  -4.852 -29.392  0.00  0.00    +0.154 C 
BRANCH  14  15
ATOM     15  N2  UNL     1       2.003  -5.221 -30.583  0.00  0.00    -0.341 N 
ATOM     16  C11 UNL     1       3.136  -4.584 -31.052  0.00  0.00    +0.020 A 
ATOM     17  C12 UNL     1       3.800  -3.450 -30.346  0.00  0.00    +0.064 C 
ATOM     18  C13 UNL     1       3.495  -5.193 -32.246  0.00  0.00    -0.022 A 
ATOM     19  C14 UNL     1       4.633  -4.806 -33.127  0.00  0.00    +0.046 C 
ATOM     20  C15 UNL     1       2.600  -6.286 -32.456  0.00  0.00    +0.003 A 
ATOM     21  C16 UNL     1       2.487  -7.277 -33.456  0.00  0.00    +0.010 A 
ATOM     22  C17 UNL     1       1.495  -8.258 -33.358  0.00  0.00    +0.001 A 
ATOM     23  C18 UNL     1       0.621  -8.267 -32.279  0.00  0.00    +0.002 A 
ATOM     24  C19 UNL     1       0.708  -7.297 -31.277  0.00  0.00    +0.026 A 
ATOM     25  C20 UNL     1       1.700  -6.305 -31.389  0.00  0.00    +0.050 A 
ENDBRANCH  14  15
ENDBRANCH   1  14
TORSDOF 6
ENDMDL
MODEL 8
REMARK VINA RESULT:    -3.765      9.467     12.549
REMARK INTER + INTRA:          -6.833
REMARK INTER:                  -4.725
REMARK INTRA:                  -2.108
REMARK UNBOUND:                -1.857
REMARK  Name = /home/vital/Documents/PhD_2021/Malaria_codes/data/pdb_ligands_mmv/ligand_219.pdb
REMARK  9 active torsions:
REMARK  status: ('A' for Active; 'I' for Inactive)
REMARK    1  A    between atoms: C1_1  and  C2_2
REMARK    2  A    between atoms: C7_7  and  N1_8
REMARK    3  A    between atoms: N1_8  and  C8_9
REMARK    4  A    between atoms: C8_9  and  C9_10
REMARK    5  A    between atoms: C9_10  and  O1_11
REMARK    6  A    between atoms: C9_10  and  C10_12
REMARK    7  A    between atoms: C10_12  and  N2_13
REMARK    8  A    between atoms: C11_14  and  C12_15
REMARK    9  A    between atoms: C13_16  and  C14_17
REMARK                            x       y       z     vdW  Elec       q    Type
REMARK                         _______ _______ _______ _____ _____    ______ ____
ROOT
ATOM      1  C9  UNL     1      -0.299  -0.278 -23.338  0.00  0.00    +0.148 C 
ENDROOT
BRANCH   1   2
ATOM      2  O1  UNL     1       0.862   0.492 -23.687  0.00  0.00    -0.389 OA
ATOM      3  H18 UNL     1       0.580   1.144 -24.359  0.00  0.00    +0.210 HD
ENDBRANCH   1   2
BRANCH   1   4
ATOM      4  C8  UNL     1      -0.695  -1.182 -24.524  0.00  0.00    +0.114 C 
BRANCH   4   5
ATOM      5  N1  UNL     1      -0.470  -2.609 -24.229  0.00  0.00    -0.310 NA
ATOM      6  H14 UNL     1       0.471  -2.685 -23.831  0.00  0.00    +0.122 HD
BRANCH   5  13
ATOM      7  C1  UNL     1       0.001  -3.502 -21.211  0.00  0.00    +0.009 C 
ATOM      8  C2  UNL     1      -0.730  -4.200 -22.362  0.00  0.00    +0.003 C 
ATOM      9  C3  UNL     1      -1.723  -5.234 -21.820  0.00  0.00    +0.005 C 
ATOM     10  C4  UNL     1      -2.344  -6.063 -22.948  0.00  0.00    +0.000 C 
ATOM     11  C5  UNL     1      -2.450  -5.304 -24.270  0.00  0.00    +0.002 C 
ATOM     12  C6  UNL     1      -2.637  -3.810 -24.042  0.00  0.00    +0.019 C 
ATOM     13  C7  UNL     1      -1.450  -3.173 -23.285  0.00  0.00    +0.057 C 
ENDBRANCH   5  13
ENDBRANCH   4   5
ENDBRANCH   1   4
BRANCH   1  14
ATOM     14  C10 UNL     1      -1.440   0.616 -22.817  0.00  0.00    +0.154 C 
BRANCH  14  15
ATOM     15  N2  UNL     1      -2.370  -0.035 -21.902  0.00  0.00    -0.341 N 
ATOM     16  C11 UNL     1      -2.144  -0.289 -20.563  0.00  0.00    +0.020 A 
ATOM     17  C12 UNL     1      -0.918   0.147 -19.834  0.00  0.00    +0.064 C 
ATOM     18  C13 UNL     1      -3.239  -0.991 -20.078  0.00  0.00    -0.022 A 
ATOM     19  C14 UNL     1      -3.410  -1.512 -18.692  0.00  0.00    +0.046 C 
ATOM     20  C15 UNL     1      -4.190  -1.086 -21.139  0.00  0.00    +0.003 A 
ATOM     21  C16 UNL     1      -5.484  -1.642 -21.242  0.00  0.00    +0.010 A 
ATOM     22  C17 UNL     1      -6.194  -1.543 -22.443  0.00  0.00    +0.001 A 
ATOM     23  C18 UNL     1      -5.635  -0.895 -23.537  0.00  0.00    +0.002 A 
ATOM     24  C19 UNL     1      -4.355  -0.337 -23.463  0.00  0.00    +0.026 A 
ATOM     25  C20 UNL     1      -3.642  -0.454 -22.256  0.00  0.00    +0.050 A 
ENDBRANCH  14  15
ENDBRANCH   1  14
TORSDOF 6
ENDMDL
MODEL 9
REMARK VINA RESULT:    -3.686      9.919     12.773
REMARK INTER + INTRA:          -6.728
REMARK INTER:                  -4.422
REMARK INTRA:                  -2.306
REMARK UNBOUND:                -1.857
REMARK  Name = /home/vital/Documents/PhD_2021/Malaria_codes/data/pdb_ligands_mmv/ligand_219.pdb
REMARK  9 active torsions:
REMARK  status: ('A' for Active; 'I' for Inactive)
REMARK    1  A    between atoms: C1_1  and  C2_2
REMARK    2  A    between atoms: C7_7  and  N1_8
REMARK    3  A    between atoms: N1_8  and  C8_9
REMARK    4  A    between atoms: C8_9  and  C9_10
REMARK    5  A    between atoms: C9_10  and  O1_11
REMARK    6  A    between atoms: C9_10  and  C10_12
REMARK    7  A    between atoms: C10_12  and  N2_13
REMARK    8  A    between atoms: C11_14  and  C12_15
REMARK    9  A    between atoms: C13_16  and  C14_17
REMARK                            x       y       z     vdW  Elec       q    Type
REMARK                         _______ _______ _______ _____ _____    ______ ____
ROOT
ATOM      1  C9  UNL     1      -1.484   0.920 -23.922  0.00  0.00    +0.148 C 
ENDROOT
BRANCH   1   2
ATOM      2  O1  UNL     1      -2.112   0.985 -25.212  0.00  0.00    -0.389 OA
ATOM      3  H18 UNL     1      -3.061   0.795 -25.078  0.00  0.00    +0.210 HD
ENDBRANCH   1   2
BRANCH   1   4
ATOM      4  C8  UNL     1      -1.058  -0.534 -23.628  0.00  0.00    +0.114 C 
BRANCH   4   5
ATOM      5  N1  UNL     1      -1.974  -1.512 -24.244  0.00  0.00    -0.310 NA
ATOM      6  H14 UNL     1      -1.924  -1.368 -25.258  0.00  0.00    +0.122 HD
BRANCH   5  13
ATOM      7  C1  UNL     1      -3.801  -4.097 -24.574  0.00  0.00    +0.009 C 
ATOM      8  C2  UNL     1      -2.912  -3.637 -23.414  0.00  0.00    +0.003 C 
ATOM      9  C3  UNL     1      -2.539  -4.824 -22.519  0.00  0.00    +0.005 C 
ATOM     10  C4  UNL     1      -1.793  -4.368 -21.262  0.00  0.00    +0.000 C 
ATOM     11  C5  UNL     1      -0.977  -3.092 -21.470  0.00  0.00    +0.002 C 
ATOM     12  C6  UNL     1      -0.479  -2.978 -22.906  0.00  0.00    +0.019 C 
ATOM     13  C7  UNL     1      -1.634  -2.911 -23.929  0.00  0.00    +0.057 C 
ENDBRANCH   5  13
ENDBRANCH   4   5
ENDBRANCH   1   4
BRANCH   1  14
ATOM     14  C10 UNL     1      -2.365   1.552 -22.827  0.00  0.00    +0.154 C 
BRANCH  14  15
ATOM     15  N2  UNL     1      -3.042   0.604 -21.950  0.00  0.00    -0.341 N 
ATOM     16  C11 UNL     1      -2.660   0.278 -20.663  0.00  0.00    +0.020 A 
ATOM     17  C12 UNL     1      -1.519   0.922 -19.949  0.00  0.00    +0.064 C 
ATOM     18  C13 UNL     1      -3.518  -0.715 -20.211  0.00  0.00    -0.022 A 
ATOM     19  C14 UNL     1      -3.454  -1.401 -18.889  0.00  0.00    +0.046 C 
ATOM     20  C15 UNL     1      -4.498  -0.931 -21.227  0.00  0.00    +0.003 A 
ATOM     21  C16 UNL     1      -5.628  -1.771 -21.330  0.00  0.00    +0.010 A 
ATOM     22  C17 UNL     1      -6.430  -1.725 -22.474  0.00  0.00    +0.001 A 
ATOM     23  C18 UNL     1      -6.127  -0.851 -23.510  0.00  0.00    +0.002 A 
ATOM     24  C19 UNL     1      -5.013  -0.010 -23.435  0.00  0.00    +0.026 A 
ATOM     25  C20 UNL     1      -4.202  -0.072 -22.287  0.00  0.00    +0.050 A 
ENDBRANCH  14  15
ENDBRANCH   1  14
TORSDOF 6
ENDMDL
