MODEL 1
REMARK VINA RESULT:    -5.617      0.000      0.000
REMARK INTER + INTRA:          -8.202
REMARK INTER:                  -7.094
REMARK INTRA:                  -1.108
REMARK UNBOUND:                -1.108
REMARK  Name = /home/vital/Documents/PhD_2021/Malaria_codes/data/pdb_ligands_mmv/ligand_38.pdb
REMARK  8 active torsions:
REMARK  status: ('A' for Active; 'I' for Inactive)
REMARK    1  A    between atoms: C1_1  and  C2_2
REMARK    2  A    between atoms: C2_2  and  C3_3
REMARK    3  A    between atoms: C2_2  and  C4_4
REMARK    4  A    between atoms: C2_2  and  C5_5
REMARK    5  A    between atoms: C8_8  and  O1_9
REMARK    6  A    between atoms: C9_10  and  C10_11
REMARK    7  A    between atoms: C10_11  and  N1_12
REMARK    8  A    between atoms: N1_12  and  C11_13
REMARK                            x       y       z     vdW  Elec       q    Type
REMARK                         _______ _______ _______ _____ _____    ______ ____
ROOT
ATOM      1  C5  UNL     1       1.668   7.604 -17.789  0.00  0.00    -0.041 A 
ATOM      2  C6  UNL     1       0.699   7.228 -18.732  0.00  0.00    +0.008 A 
ATOM      3  C7  UNL     1      -0.307   6.309 -18.414  0.00  0.00    +0.046 A 
ATOM      4  C8  UNL     1      -0.365   5.750 -17.140  0.00  0.00    +0.121 A 
ATOM      5  C9  UNL     1       0.568   6.099 -16.164  0.00  0.00    +0.008 A 
ATOM      6  C17 UNL     1       1.580   7.018 -16.509  0.00  0.00    +0.012 A 
ENDROOT
BRANCH   1   8
ATOM      7  C1  UNL     1       2.690   9.059 -19.575  0.00  0.00    +0.015 C 
ATOM      8  C2  UNL     1       2.791   8.609 -18.101  0.00  0.00    -0.013 C 
ATOM      9  C3  UNL     1       2.656   9.842 -17.183  0.00  0.00    +0.015 C 
ATOM     10  C4  UNL     1       4.212   8.038 -17.895  0.00  0.00    +0.015 C 
ENDBRANCH   1   8
BRANCH   4  11
ATOM     11  O1  UNL     1      -1.345   4.846 -16.839  0.00  0.00    -0.506 OA
ATOM     12  H12 UNL     1      -0.988   4.199 -16.209  0.00  0.00    +0.292 HD
ENDBRANCH   4  11
BRANCH   5  13
ATOM     13  C10 UNL     1       0.549   5.493 -14.777  0.00  0.00    +0.120 C 
BRANCH  13  14
ATOM     14  N1  UNL     1       0.979   4.087 -14.803  0.00  0.00    -0.309 NA
ATOM     15  H15 UNL     1       0.996   3.800 -15.783  0.00  0.00    +0.123 HD
BRANCH  14  16
ATOM     16  C11 UNL     1       2.311   3.887 -14.218  0.00  0.00    +0.054 C 
ATOM     17  C12 UNL     1       2.611   5.073 -13.285  0.00  0.00    +0.019 C 
ATOM     18  C13 UNL     1       4.005   4.973 -12.670  0.00  0.00    +0.002 C 
ATOM     19  C14 UNL     1       5.082   4.846 -13.741  0.00  0.00    +0.000 C 
ATOM     20  C15 UNL     1       4.799   3.679 -14.680  0.00  0.00    +0.002 C 
ATOM     21  C16 UNL     1       3.403   3.771 -15.296  0.00  0.00    +0.019 C 
ENDBRANCH  14  16
ENDBRANCH  13  14
ENDBRANCH   5  13
TORSDOF 5
ENDMDL
MODEL 2
REMARK VINA RESULT:    -5.615      0.970      2.004
REMARK INTER + INTRA:          -8.200
REMARK INTER:                  -7.229
REMARK INTRA:                  -0.972
REMARK UNBOUND:                -1.108
REMARK  Name = /home/vital/Documents/PhD_2021/Malaria_codes/data/pdb_ligands_mmv/ligand_38.pdb
REMARK  8 active torsions:
REMARK  status: ('A' for Active; 'I' for Inactive)
REMARK    1  A    between atoms: C1_1  and  C2_2
REMARK    2  A    between atoms: C2_2  and  C3_3
REMARK    3  A    between atoms: C2_2  and  C4_4
REMARK    4  A    between atoms: C2_2  and  C5_5
REMARK    5  A    between atoms: C8_8  and  O1_9
REMARK    6  A    between atoms: C9_10  and  C10_11
REMARK    7  A    between atoms: C10_11  and  N1_12
REMARK    8  A    between atoms: N1_12  and  C11_13
REMARK                            x       y       z     vdW  Elec       q    Type
REMARK                         _______ _______ _______ _____ _____    ______ ____
ROOT
ATOM      1  C5  UNL     1       1.711   7.597 -17.710  0.00  0.00    -0.041 A 
ATOM      2  C6  UNL     1       0.731   7.198 -18.633  0.00  0.00    +0.008 A 
ATOM      3  C7  UNL     1      -0.230   6.237 -18.302  0.00  0.00    +0.046 A 
ATOM      4  C8  UNL     1      -0.232   5.657 -17.036  0.00  0.00    +0.121 A 
ATOM      5  C9  UNL     1       0.714   6.027 -16.080  0.00  0.00    +0.008 A 
ATOM      6  C17 UNL     1       1.680   6.988 -16.438  0.00  0.00    +0.012 A 
ENDROOT
BRANCH   1   8
ATOM      7  C1  UNL     1       4.187   8.058 -17.765  0.00  0.00    +0.015 C 
ATOM      8  C2  UNL     1       2.786   8.648 -18.036  0.00  0.00    -0.013 C 
ATOM      9  C3  UNL     1       2.684   9.053 -19.522  0.00  0.00    +0.015 C 
ATOM     10  C4  UNL     1       2.666   9.942 -17.200  0.00  0.00    +0.015 C 
ENDBRANCH   1   8
BRANCH   4  11
ATOM     11  O1  UNL     1      -1.169   4.712 -16.724  0.00  0.00    -0.506 OA
ATOM     12  H12 UNL     1      -1.281   4.122 -17.488  0.00  0.00    +0.292 HD
ENDBRANCH   4  11
BRANCH   5  13
ATOM     13  C10 UNL     1       0.756   5.399 -14.703  0.00  0.00    +0.120 C 
BRANCH  13  14
ATOM     14  N1  UNL     1       0.925   3.941 -14.786  0.00  0.00    -0.309 NA
ATOM     15  H15 UNL     1       0.246   3.602 -15.468  0.00  0.00    +0.123 HD
BRANCH  14  16
ATOM     16  C11 UNL     1       2.274   3.547 -15.210  0.00  0.00    +0.054 C 
ATOM     17  C12 UNL     1       2.175   2.196 -15.941  0.00  0.00    +0.019 C 
ATOM     18  C13 UNL     1       3.546   1.682 -16.373  0.00  0.00    +0.002 C 
ATOM     19  C14 UNL     1       4.506   1.585 -15.193  0.00  0.00    +0.000 C 
ATOM     20  C15 UNL     1       4.613   2.913 -14.452  0.00  0.00    +0.002 C 
ATOM     21  C16 UNL     1       3.243   3.435 -14.020  0.00  0.00    +0.019 C 
ENDBRANCH  14  16
ENDBRANCH  13  14
ENDBRANCH   5  13
TORSDOF 5
ENDMDL
MODEL 3
REMARK VINA RESULT:    -5.496     10.092     12.036
REMARK INTER + INTRA:          -8.050
REMARK INTER:                  -6.985
REMARK INTRA:                  -1.065
REMARK UNBOUND:                -1.108
REMARK  Name = /home/vital/Documents/PhD_2021/Malaria_codes/data/pdb_ligands_mmv/ligand_38.pdb
REMARK  8 active torsions:
REMARK  status: ('A' for Active; 'I' for Inactive)
REMARK    1  A    between atoms: C1_1  and  C2_2
REMARK    2  A    between atoms: C2_2  and  C3_3
REMARK    3  A    between atoms: C2_2  and  C4_4
REMARK    4  A    between atoms: C2_2  and  C5_5
REMARK    5  A    between atoms: C8_8  and  O1_9
REMARK    6  A    between atoms: C9_10  and  C10_11
REMARK    7  A    between atoms: C10_11  and  N1_12
REMARK    8  A    between atoms: N1_12  and  C11_13
REMARK                            x       y       z     vdW  Elec       q    Type
REMARK                         _______ _______ _______ _____ _____    ______ ____
ROOT
ATOM      1  C5  UNL     1      -4.138  -1.231 -21.552  0.00  0.00    -0.041 A 
ATOM      2  C6  UNL     1      -4.453  -0.757 -20.269  0.00  0.00    +0.008 A 
ATOM      3  C7  UNL     1      -3.491  -0.713 -19.254  0.00  0.00    +0.046 A 
ATOM      4  C8  UNL     1      -2.189  -1.139 -19.506  0.00  0.00    +0.121 A 
ATOM      5  C9  UNL     1      -1.824  -1.608 -20.767  0.00  0.00    +0.008 A 
ATOM      6  C17 UNL     1      -2.811  -1.656 -21.772  0.00  0.00    +0.012 A 
ENDROOT
BRANCH   1   8
ATOM      7  C1  UNL     1      -5.276   0.082 -23.377  0.00  0.00    +0.015 C 
ATOM      8  C2  UNL     1      -5.168  -1.299 -22.693  0.00  0.00    -0.013 C 
ATOM      9  C3  UNL     1      -4.722  -2.347 -23.734  0.00  0.00    +0.015 C 
ATOM     10  C4  UNL     1      -6.588  -1.691 -22.228  0.00  0.00    +0.015 C 
ENDBRANCH   1   8
BRANCH   4  11
ATOM     11  O1  UNL     1      -1.257  -1.101 -18.507  0.00  0.00    -0.506 OA
ATOM     12  H12 UNL     1      -0.549  -0.488 -18.766  0.00  0.00    +0.292 HD
ENDBRANCH   4  11
BRANCH   5  13
ATOM     13  C10 UNL     1      -0.424  -2.102 -21.069  0.00  0.00    +0.120 C 
BRANCH  13  14
ATOM     14  N1  UNL     1      -0.206  -3.451 -20.527  0.00  0.00    -0.309 NA
ATOM     15  H15 UNL     1      -0.875  -3.578 -19.767  0.00  0.00    +0.123 HD
BRANCH  14  16
ATOM     16  C11 UNL     1      -0.408  -4.507 -21.528  0.00  0.00    +0.054 C 
ATOM     17  C12 UNL     1       0.047  -3.968 -22.896  0.00  0.00    +0.019 C 
ATOM     18  C13 UNL     1      -0.176  -4.988 -24.010  0.00  0.00    +0.002 C 
ATOM     19  C14 UNL     1      -1.629  -5.444 -24.069  0.00  0.00    +0.000 C 
ATOM     20  C15 UNL     1      -2.101  -5.976 -22.720  0.00  0.00    +0.002 C 
ATOM     21  C16 UNL     1      -1.876  -4.962 -21.599  0.00  0.00    +0.019 C 
ENDBRANCH  14  16
ENDBRANCH  13  14
ENDBRANCH   5  13
TORSDOF 5
ENDMDL
MODEL 4
REMARK VINA RESULT:    -5.448     19.401     21.157
REMARK INTER + INTRA:          -7.990
REMARK INTER:                  -6.942
REMARK INTRA:                  -1.048
REMARK UNBOUND:                -1.108
REMARK  Name = /home/vital/Documents/PhD_2021/Malaria_codes/data/pdb_ligands_mmv/ligand_38.pdb
REMARK  8 active torsions:
REMARK  status: ('A' for Active; 'I' for Inactive)
REMARK    1  A    between atoms: C1_1  and  C2_2
REMARK    2  A    between atoms: C2_2  and  C3_3
REMARK    3  A    between atoms: C2_2  and  C4_4
REMARK    4  A    between atoms: C2_2  and  C5_5
REMARK    5  A    between atoms: C8_8  and  O1_9
REMARK    6  A    between atoms: C9_10  and  C10_11
REMARK    7  A    between atoms: C10_11  and  N1_12
REMARK    8  A    between atoms: N1_12  and  C11_13
REMARK                            x       y       z     vdW  Elec       q    Type
REMARK                         _______ _______ _______ _____ _____    ______ ____
ROOT
ATOM      1  C5  UNL     1      -0.612  -7.580 -30.253  0.00  0.00    -0.041 A 
ATOM      2  C6  UNL     1      -1.633  -8.514 -30.485  0.00  0.00    +0.008 A 
ATOM      3  C7  UNL     1      -1.521  -9.478 -31.494  0.00  0.00    +0.046 A 
ATOM      4  C8  UNL     1      -0.379  -9.527 -32.289  0.00  0.00    +0.121 A 
ATOM      5  C9  UNL     1       0.668  -8.628 -32.091  0.00  0.00    +0.008 A 
ATOM      6  C17 UNL     1       0.530  -7.658 -31.078  0.00  0.00    +0.012 A 
ENDROOT
BRANCH   1   8
ATOM      7  C1  UNL     1       0.365  -6.782 -28.072  0.00  0.00    +0.015 C 
ATOM      8  C2  UNL     1      -0.699  -6.504 -29.157  0.00  0.00    -0.013 C 
ATOM      9  C3  UNL     1      -0.444  -5.112 -29.773  0.00  0.00    +0.015 C 
ATOM     10  C4  UNL     1      -2.070  -6.446 -28.447  0.00  0.00    +0.015 C 
ENDBRANCH   1   8
BRANCH   4  11
ATOM     11  O1  UNL     1      -0.281 -10.466 -33.278  0.00  0.00    -0.506 OA
ATOM     12  H12 UNL     1      -0.871 -10.212 -34.006  0.00  0.00    +0.292 HD
ENDBRANCH   4  11
BRANCH   5  13
ATOM     13  C10 UNL     1       1.913  -8.638 -32.952  0.00  0.00    +0.120 C 
BRANCH  13  14
ATOM     14  N1  UNL     1       1.668  -7.995 -34.251  0.00  0.00    -0.309 NA
ATOM     15  H15 UNL     1       0.656  -7.935 -34.367  0.00  0.00    +0.123 HD
BRANCH  14  16
ATOM     16  C11 UNL     1       2.246  -6.648 -34.340  0.00  0.00    +0.054 C 
ATOM     17  C12 UNL     1       3.226  -6.466 -33.167  0.00  0.00    +0.019 C 
ATOM     18  C13 UNL     1       3.838  -5.067 -33.150  0.00  0.00    +0.002 C 
ATOM     19  C14 UNL     1       2.763  -3.986 -33.126  0.00  0.00    +0.000 C 
ATOM     20  C15 UNL     1       1.778  -4.154 -34.277  0.00  0.00    +0.002 C 
ATOM     21  C16 UNL     1       1.166  -5.554 -34.302  0.00  0.00    +0.019 C 
ENDBRANCH  14  16
ENDBRANCH  13  14
ENDBRANCH   5  13
TORSDOF 5
ENDMDL
MODEL 5
REMARK VINA RESULT:    -5.215      1.638      5.504
REMARK INTER + INTRA:          -7.696
REMARK INTER:                  -6.695
REMARK INTRA:                  -1.001
REMARK UNBOUND:                -1.108
REMARK  Name = /home/vital/Documents/PhD_2021/Malaria_codes/data/pdb_ligands_mmv/ligand_38.pdb
REMARK  8 active torsions:
REMARK  status: ('A' for Active; 'I' for Inactive)
REMARK    1  A    between atoms: C1_1  and  C2_2
REMARK    2  A    between atoms: C2_2  and  C3_3
REMARK    3  A    between atoms: C2_2  and  C4_4
REMARK    4  A    between atoms: C2_2  and  C5_5
REMARK    5  A    between atoms: C8_8  and  O1_9
REMARK    6  A    between atoms: C9_10  and  C10_11
REMARK    7  A    between atoms: C10_11  and  N1_12
REMARK    8  A    between atoms: N1_12  and  C11_13
REMARK                            x       y       z     vdW  Elec       q    Type
REMARK                         _______ _______ _______ _____ _____    ______ ____
ROOT
ATOM      1  C5  UNL     1       2.923   3.731 -14.944  0.00  0.00    -0.041 A 
ATOM      2  C6  UNL     1       2.032   4.106 -13.927  0.00  0.00    +0.008 A 
ATOM      3  C7  UNL     1       0.840   4.779 -14.217  0.00  0.00    +0.046 A 
ATOM      4  C8  UNL     1       0.514   5.086 -15.536  0.00  0.00    +0.121 A 
ATOM      5  C9  UNL     1       1.361   4.725 -16.583  0.00  0.00    +0.008 A 
ATOM      6  C17 UNL     1       2.562   4.059 -16.268  0.00  0.00    +0.012 A 
ENDROOT
BRANCH   1   8
ATOM      7  C1  UNL     1       5.435   3.928 -14.970  0.00  0.00    +0.015 C 
ATOM      8  C2  UNL     1       4.244   2.993 -14.667  0.00  0.00    -0.013 C 
ATOM      9  C3  UNL     1       4.299   2.564 -13.185  0.00  0.00    +0.015 C 
ATOM     10  C4  UNL     1       4.437   1.718 -15.519  0.00  0.00    +0.015 C 
ENDBRANCH   1   8
BRANCH   4  11
ATOM     11  O1  UNL     1      -0.648   5.752 -15.810  0.00  0.00    -0.506 OA
ATOM     12  H12 UNL     1      -1.200   5.190 -16.379  0.00  0.00    +0.292 HD
ENDBRANCH   4  11
BRANCH   5  13
ATOM     13  C10 UNL     1       1.049   5.065 -18.025  0.00  0.00    +0.120 C 
BRANCH  13  14
ATOM     14  N1  UNL     1       0.723   6.490 -18.179  0.00  0.00    -0.309 NA
ATOM     15  H15 UNL     1       0.093   6.735 -17.415  0.00  0.00    +0.123 HD
BRANCH  14  16
ATOM     16  C11 UNL     1       1.908   7.356 -18.124  0.00  0.00    +0.054 C 
ATOM     17  C12 UNL     1       1.767   8.289 -16.908  0.00  0.00    +0.019 C 
ATOM     18  C13 UNL     1       2.937   9.264 -16.802  0.00  0.00    +0.002 C 
ATOM     19  C14 UNL     1       3.111  10.072 -18.083  0.00  0.00    +0.000 C 
ATOM     20  C15 UNL     1       3.246   9.164 -19.300  0.00  0.00    +0.002 C 
ATOM     21  C16 UNL     1       2.080   8.183 -19.409  0.00  0.00    +0.019 C 
ENDBRANCH  14  16
ENDBRANCH  13  14
ENDBRANCH   5  13
TORSDOF 5
ENDMDL
MODEL 6
REMARK VINA RESULT:    -5.088     18.728     20.151
REMARK INTER + INTRA:          -7.535
REMARK INTER:                  -6.703
REMARK INTRA:                  -0.833
REMARK UNBOUND:                -1.108
REMARK  Name = /home/vital/Documents/PhD_2021/Malaria_codes/data/pdb_ligands_mmv/ligand_38.pdb
REMARK  8 active torsions:
REMARK  status: ('A' for Active; 'I' for Inactive)
REMARK    1  A    between atoms: C1_1  and  C2_2
REMARK    2  A    between atoms: C2_2  and  C3_3
REMARK    3  A    between atoms: C2_2  and  C4_4
REMARK    4  A    between atoms: C2_2  and  C5_5
REMARK    5  A    between atoms: C8_8  and  O1_9
REMARK    6  A    between atoms: C9_10  and  C10_11
REMARK    7  A    between atoms: C10_11  and  N1_12
REMARK    8  A    between atoms: N1_12  and  C11_13
REMARK                            x       y       z     vdW  Elec       q    Type
REMARK                         _______ _______ _______ _____ _____    ______ ____
ROOT
ATOM      1  C5  UNL     1       3.424  -4.189 -32.643  0.00  0.00    -0.041 A 
ATOM      2  C6  UNL     1       2.828  -3.396 -33.634  0.00  0.00    +0.008 A 
ATOM      3  C7  UNL     1       1.789  -3.889 -34.432  0.00  0.00    +0.046 A 
ATOM      4  C8  UNL     1       1.323  -5.188 -34.248  0.00  0.00    +0.121 A 
ATOM      5  C9  UNL     1       1.876  -6.012 -33.269  0.00  0.00    +0.008 A 
ATOM      6  C17 UNL     1       2.929  -5.500 -32.484  0.00  0.00    +0.012 A 
ENDROOT
BRANCH   1   8
ATOM      7  C1  UNL     1       4.715  -2.155 -31.902  0.00  0.00    +0.015 C 
ATOM      8  C2  UNL     1       4.570  -3.685 -31.748  0.00  0.00    -0.013 C 
ATOM      9  C3  UNL     1       4.263  -4.019 -30.272  0.00  0.00    +0.015 C 
ATOM     10  C4  UNL     1       5.943  -4.310 -32.082  0.00  0.00    +0.015 C 
ENDBRANCH   1   8
BRANCH   4  11
ATOM     11  O1  UNL     1       0.314  -5.666 -35.037  0.00  0.00    -0.506 OA
ATOM     12  H12 UNL     1      -0.090  -4.919 -35.510  0.00  0.00    +0.292 HD
ENDBRANCH   4  11
BRANCH   5  13
ATOM     13  C10 UNL     1       1.411  -7.438 -33.058  0.00  0.00    +0.120 C 
BRANCH  13  14
ATOM     14  N1  UNL     1       1.808  -7.938 -31.734  0.00  0.00    -0.309 NA
ATOM     15  H15 UNL     1       2.447  -7.249 -31.335  0.00  0.00    +0.123 HD
BRANCH  14  16
ATOM     16  C11 UNL     1       0.668  -8.121 -30.827  0.00  0.00    +0.054 C 
ATOM     17  C12 UNL     1      -0.578  -8.432 -31.676  0.00  0.00    +0.019 C 
ATOM     18  C13 UNL     1      -1.828  -8.587 -30.813  0.00  0.00    +0.002 C 
ATOM     19  C14 UNL     1      -2.063  -7.358 -29.942  0.00  0.00    +0.000 C 
ATOM     20  C15 UNL     1      -0.836  -7.031 -29.097  0.00  0.00    +0.002 C 
ATOM     21  C16 UNL     1       0.419  -6.879 -29.955  0.00  0.00    +0.019 C 
ENDBRANCH  14  16
ENDBRANCH  13  14
ENDBRANCH   5  13
TORSDOF 5
ENDMDL
MODEL 7
REMARK VINA RESULT:    -4.942     20.179     21.330
REMARK INTER + INTRA:          -7.350
REMARK INTER:                  -6.241
REMARK INTRA:                  -1.109
REMARK UNBOUND:                -1.108
REMARK  Name = /home/vital/Documents/PhD_2021/Malaria_codes/data/pdb_ligands_mmv/ligand_38.pdb
REMARK  8 active torsions:
REMARK  status: ('A' for Active; 'I' for Inactive)
REMARK    1  A    between atoms: C1_1  and  C2_2
REMARK    2  A    between atoms: C2_2  and  C3_3
REMARK    3  A    between atoms: C2_2  and  C4_4
REMARK    4  A    between atoms: C2_2  and  C5_5
REMARK    5  A    between atoms: C8_8  and  O1_9
REMARK    6  A    between atoms: C9_10  and  C10_11
REMARK    7  A    between atoms: C10_11  and  N1_12
REMARK    8  A    between atoms: N1_12  and  C11_13
REMARK                            x       y       z     vdW  Elec       q    Type
REMARK                         _______ _______ _______ _____ _____    ______ ____
ROOT
ATOM      1  C5  UNL     1       0.735  -3.639 -34.467  0.00  0.00    -0.041 A 
ATOM      2  C6  UNL     1       1.802  -2.844 -34.022  0.00  0.00    +0.008 A 
ATOM      3  C7  UNL     1       3.004  -3.416 -33.592  0.00  0.00    +0.046 A 
ATOM      4  C8  UNL     1       3.164  -4.799 -33.603  0.00  0.00    +0.121 A 
ATOM      5  C9  UNL     1       2.137  -5.632 -34.046  0.00  0.00    +0.008 A 
ATOM      6  C17 UNL     1       0.930  -5.036 -34.464  0.00  0.00    +0.012 A 
ENDROOT
BRANCH   1   8
ATOM      7  C1  UNL     1      -0.425  -1.548 -35.262  0.00  0.00    +0.015 C 
ATOM      8  C2  UNL     1      -0.603  -3.049 -34.944  0.00  0.00    -0.013 C 
ATOM      9  C3  UNL     1      -1.072  -3.786 -36.217  0.00  0.00    +0.015 C 
ATOM     10  C4  UNL     1      -1.741  -3.163 -33.905  0.00  0.00    +0.015 C 
ENDBRANCH   1   8
BRANCH   4  11
ATOM     11  O1  UNL     1       4.339  -5.350 -33.174  0.00  0.00    -0.506 OA
ATOM     12  H12 UNL     1       4.587  -6.065 -33.783  0.00  0.00    +0.292 HD
ENDBRANCH   4  11
BRANCH   5  13
ATOM     13  C10 UNL     1       2.267  -7.141 -34.049  0.00  0.00    +0.120 C 
BRANCH  13  14
ATOM     14  N1  UNL     1       2.504  -7.658 -32.694  0.00  0.00    -0.309 NA
ATOM     15  H15 UNL     1       2.758  -6.859 -32.111  0.00  0.00    +0.123 HD
BRANCH  14  16
ATOM     16  C11 UNL     1       1.325  -8.319 -32.121  0.00  0.00    +0.054 C 
ATOM     17  C12 UNL     1       0.443  -8.819 -33.279  0.00  0.00    +0.019 C 
ATOM     18  C13 UNL     1      -0.839  -9.477 -32.773  0.00  0.00    +0.002 C 
ATOM     19  C14 UNL     1      -1.626  -8.543 -31.862  0.00  0.00    +0.000 C 
ATOM     20  C15 UNL     1      -0.767  -8.031 -30.711  0.00  0.00    +0.002 C 
ATOM     21  C16 UNL     1       0.519  -7.375 -31.211  0.00  0.00    +0.019 C 
ENDBRANCH  14  16
ENDBRANCH  13  14
ENDBRANCH   5  13
TORSDOF 5
ENDMDL
MODEL 8
REMARK VINA RESULT:    -4.915     17.380     18.645
REMARK INTER + INTRA:          -7.316
REMARK INTER:                  -6.396
REMARK INTRA:                  -0.920
REMARK UNBOUND:                -1.108
REMARK  Name = /home/vital/Documents/PhD_2021/Malaria_codes/data/pdb_ligands_mmv/ligand_38.pdb
REMARK  8 active torsions:
REMARK  status: ('A' for Active; 'I' for Inactive)
REMARK    1  A    between atoms: C1_1  and  C2_2
REMARK    2  A    between atoms: C2_2  and  C3_3
REMARK    3  A    between atoms: C2_2  and  C4_4
REMARK    4  A    between atoms: C2_2  and  C5_5
REMARK    5  A    between atoms: C8_8  and  O1_9
REMARK    6  A    between atoms: C9_10  and  C10_11
REMARK    7  A    between atoms: C10_11  and  N1_12
REMARK    8  A    between atoms: N1_12  and  C11_13
REMARK                            x       y       z     vdW  Elec       q    Type
REMARK                         _______ _______ _______ _____ _____    ______ ____
ROOT
ATOM      1  C5  UNL     1       2.709  -5.932 -32.339  0.00  0.00    -0.041 A 
ATOM      2  C6  UNL     1       3.689  -5.994 -33.342  0.00  0.00    +0.008 A 
ATOM      3  C7  UNL     1       4.812  -5.160 -33.313  0.00  0.00    +0.046 A 
ATOM      4  C8  UNL     1       4.979  -4.248 -32.274  0.00  0.00    +0.121 A 
ATOM      5  C9  UNL     1       4.039  -4.156 -31.248  0.00  0.00    +0.008 A 
ATOM      6  C17 UNL     1       2.910  -4.997 -31.302  0.00  0.00    +0.012 A 
ENDROOT
BRANCH   1   8
ATOM      7  C1  UNL     1       0.375  -6.211 -33.247  0.00  0.00    +0.015 C 
ATOM      8  C2  UNL     1       1.459  -6.829 -32.337  0.00  0.00    -0.013 C 
ATOM      9  C3  UNL     1       1.826  -8.233 -32.865  0.00  0.00    +0.015 C 
ATOM     10  C4  UNL     1       0.829  -7.016 -30.939  0.00  0.00    +0.015 C 
ENDBRANCH   1   8
BRANCH   4  11
ATOM     11  O1  UNL     1       6.075  -3.431 -32.257  0.00  0.00    -0.506 OA
ATOM     12  H12 UNL     1       6.003  -2.801 -32.993  0.00  0.00    +0.292 HD
ENDBRANCH   4  11
BRANCH   5  13
ATOM     13  C10 UNL     1       4.177  -3.160 -30.115  0.00  0.00    +0.120 C 
BRANCH  13  14
ATOM     14  N1  UNL     1       5.514  -3.226 -29.507  0.00  0.00    -0.309 NA
ATOM     15  H15 UNL     1       5.707  -2.305 -29.113  0.00  0.00    +0.123 HD
BRANCH  14  16
ATOM     16  C11 UNL     1       5.607  -4.234 -28.443  0.00  0.00    +0.054 C 
ATOM     17  C12 UNL     1       4.290  -4.218 -27.646  0.00  0.00    +0.019 C 
ATOM     18  C13 UNL     1       4.319  -5.205 -26.482  0.00  0.00    +0.002 C 
ATOM     19  C14 UNL     1       5.507  -4.951 -25.562  0.00  0.00    +0.000 C 
ATOM     20  C15 UNL     1       6.822  -4.957 -26.334  0.00  0.00    +0.002 C 
ATOM     21  C16 UNL     1       6.797  -3.975 -27.504  0.00  0.00    +0.019 C 
ENDBRANCH  14  16
ENDBRANCH  13  14
ENDBRANCH   5  13
TORSDOF 5
ENDMDL
MODEL 9
REMARK VINA RESULT:    -4.752     19.481     21.670
REMARK INTER + INTRA:          -7.110
REMARK INTER:                  -6.093
REMARK INTRA:                  -1.017
REMARK UNBOUND:                -1.108
REMARK  Name = /home/vital/Documents/PhD_2021/Malaria_codes/data/pdb_ligands_mmv/ligand_38.pdb
REMARK  8 active torsions:
REMARK  status: ('A' for Active; 'I' for Inactive)
REMARK    1  A    between atoms: C1_1  and  C2_2
REMARK    2  A    between atoms: C2_2  and  C3_3
REMARK    3  A    between atoms: C2_2  and  C4_4
REMARK    4  A    between atoms: C2_2  and  C5_5
REMARK    5  A    between atoms: C8_8  and  O1_9
REMARK    6  A    between atoms: C9_10  and  C10_11
REMARK    7  A    between atoms: C10_11  and  N1_12
REMARK    8  A    between atoms: N1_12  and  C11_13
REMARK                            x       y       z     vdW  Elec       q    Type
REMARK                         _______ _______ _______ _____ _____    ______ ____
ROOT
ATOM      1  C5  UNL     1      -0.371  -7.640 -32.320  0.00  0.00    -0.041 A 
ATOM      2  C6  UNL     1       0.545  -8.475 -32.977  0.00  0.00    +0.008 A 
ATOM      3  C7  UNL     1       1.825  -8.023 -33.318  0.00  0.00    +0.046 A 
ATOM      4  C8  UNL     1       2.214  -6.723 -33.002  0.00  0.00    +0.121 A 
ATOM      5  C9  UNL     1       1.344  -5.859 -32.339  0.00  0.00    +0.008 A 
ATOM      6  C17 UNL     1       0.056  -6.330 -32.016  0.00  0.00    +0.012 A 
ENDROOT
BRANCH   1   8
ATOM      7  C1  UNL     1      -2.825  -7.086 -32.464  0.00  0.00    +0.015 C 
ATOM      8  C2  UNL     1      -1.788  -8.098 -31.931  0.00  0.00    -0.013 C 
ATOM      9  C3  UNL     1      -2.072  -9.487 -32.543  0.00  0.00    +0.015 C 
ATOM     10  C4  UNL     1      -2.008  -8.217 -30.406  0.00  0.00    +0.015 C 
ENDBRANCH   1   8
BRANCH   4  11
ATOM     11  O1  UNL     1       3.463  -6.287 -33.346  0.00  0.00    -0.506 OA
ATOM     12  H12 UNL     1       3.766  -5.653 -32.675  0.00  0.00    +0.292 HD
ENDBRANCH   4  11
BRANCH   5  13
ATOM     13  C10 UNL     1       1.725  -4.433 -32.002  0.00  0.00    +0.120 C 
BRANCH  13  14
ATOM     14  N1  UNL     1       2.051  -3.667 -33.214  0.00  0.00    -0.309 NA
ATOM     15  H15 UNL     1       2.606  -4.279 -33.812  0.00  0.00    +0.123 HD
BRANCH  14  16
ATOM     16  C11 UNL     1       0.857  -3.228 -33.948  0.00  0.00    +0.054 C 
ATOM     17  C12 UNL     1       0.853  -3.922 -35.322  0.00  0.00    +0.019 C 
ATOM     18  C13 UNL     1      -0.332  -3.482 -36.177  0.00  0.00    +0.002 C 
ATOM     19  C14 UNL     1      -0.372  -1.967 -36.341  0.00  0.00    +0.000 C 
ATOM     20  C15 UNL     1      -0.362  -1.260 -34.990  0.00  0.00    +0.002 C 
ATOM     21  C16 UNL     1       0.820  -1.700 -34.127  0.00  0.00    +0.019 C 
ENDBRANCH  14  16
ENDBRANCH  13  14
ENDBRANCH   5  13
TORSDOF 5
ENDMDL
