MODEL 1
REMARK VINA RESULT:    -5.458      0.000      0.000
REMARK INTER + INTRA:         -12.540
REMARK INTER:                  -7.692
REMARK INTRA:                  -4.848
REMARK UNBOUND:                -4.848
REMARK  Name = /home/vital/Documents/PhD_2021/Malaria_codes/data/pdb_ligands_mmv/ligand_30.pdb
REMARK  10 active torsions:
REMARK  status: ('A' for Active; 'I' for Inactive)
REMARK    1  A    between atoms: C1_1  and  O1_2
REMARK    2  A    between atoms: O1_2  and  C2_3
REMARK    3  A    between atoms: C5_6  and  C8_9
REMARK    4  A    between atoms: C9_10  and  C10_11
REMARK    5  A    between atoms: C13_14  and  O2_15
REMARK    6  A    between atoms: O2_15  and  C14_16
REMARK    7  A    between atoms: C17_19  and  C37_43
REMARK    8  A    between atoms: N1_24  and  C22_27
REMARK    9  A    between atoms: C25_30  and  C26_31
REMARK   10  A    between atoms: C29_34  and  C31_37
REMARK                            x       y       z     vdW  Elec       q    Type
REMARK                         _______ _______ _______ _____ _____    ______ ____
ROOT
ATOM      1  C8  UNL     1       1.612  -4.607 -29.805  0.00  0.00    -0.017 C 
ATOM      2  C9  UNL     1       2.152  -3.745 -30.696  0.00  0.00    -0.017 C 
ATOM      3  C17 UNL     1       3.282  -2.953 -30.026  0.00  0.00    +0.093 C 
ATOM      4  C18 UNL     1       4.418  -3.965 -29.691  0.00  0.00    +0.111 C 
ATOM      5  C19 UNL     1       3.787  -4.975 -28.691  0.00  0.00    +0.111 C 
ATOM      6  C20 UNL     1       4.669  -4.874 -27.474  0.00  0.00    +0.232 C 
ATOM      7  O3  UNL     1       4.629  -5.724 -26.596  0.00  0.00    -0.274 OA
ATOM      8  N1  UNL     1       5.508  -3.789 -27.597  0.00  0.00    -0.210 N 
ATOM      9  C21 UNL     1       5.573  -3.382 -28.912  0.00  0.00    +0.232 C 
ATOM     10  O4  UNL     1       6.445  -2.732 -29.473  0.00  0.00    -0.274 OA
ATOM     11  C29 UNL     1       2.330  -4.473 -28.458  0.00  0.00    +0.093 C 
ATOM     12  C30 UNL     1       2.643  -3.008 -28.654  0.00  0.00    +0.164 C 
ATOM     13  O5  UNL     1       2.559  -2.105 -27.838  0.00  0.00    -0.295 OA
ENDROOT
BRANCH   8  14
ATOM     14  C22 UNL     1       6.369  -3.302 -26.553  0.00  0.00    +0.044 A 
ATOM     15  C23 UNL     1       5.985  -2.247 -25.710  0.00  0.00    +0.024 A 
ATOM     16  C24 UNL     1       6.814  -1.782 -24.677  0.00  0.00    +0.005 A 
ATOM     17  C25 UNL     1       8.050  -2.377 -24.435  0.00  0.00    -0.050 A 
ATOM     18  C26 UNL     1       8.947  -1.862 -23.351  0.00  0.00    +0.044 C 
ATOM     19  C27 UNL     1       8.448  -3.432 -25.254  0.00  0.00    +0.005 A 
ATOM     20  C28 UNL     1       7.616  -3.892 -26.286  0.00  0.00    +0.024 A 
ENDBRANCH   8  14
BRANCH   1  24
ATOM     21  C2  UNL     1      -1.381  -7.556 -30.613  0.00  0.00    +0.120 A 
ATOM     22  C3  UNL     1      -1.749  -6.291 -30.156  0.00  0.00    +0.046 A 
ATOM     23  C4  UNL     1      -0.769  -5.325 -29.894  0.00  0.00    +0.012 A 
ATOM     24  C5  UNL     1       0.586  -5.615 -30.077  0.00  0.00    -0.020 A 
ATOM     25  C6  UNL     1       0.950  -6.881 -30.544  0.00  0.00    +0.012 A 
ATOM     26  C7  UNL     1      -0.029  -7.843 -30.808  0.00  0.00    +0.046 A 
BRANCH  21  28
ATOM     27  C1  UNL     1      -3.347  -8.282 -31.733  0.00  0.00    +0.277 C 
ATOM     28  O1  UNL     1      -2.232  -8.585 -30.905  0.00  0.00    -0.495 OA
ENDBRANCH  21  28
ENDBRANCH   1  24
BRANCH   2  29
ATOM     29  C10 UNL     1       1.801  -3.622 -32.115  0.00  0.00    -0.020 A 
ATOM     30  C11 UNL     1       0.835  -2.699 -32.526  0.00  0.00    +0.012 A 
ATOM     31  C12 UNL     1       0.496  -2.581 -33.876  0.00  0.00    +0.046 A 
ATOM     32  C13 UNL     1       1.117  -3.378 -34.839  0.00  0.00    +0.120 A 
ATOM     33  C15 UNL     1       2.081  -4.301 -34.436  0.00  0.00    +0.046 A 
ATOM     34  C16 UNL     1       2.419  -4.423 -33.082  0.00  0.00    +0.012 A 
BRANCH  32  35
ATOM     35  O2  UNL     1       0.695  -3.161 -36.121  0.00  0.00    -0.495 OA
ATOM     36  C14 UNL     1      -0.430  -2.308 -36.292  0.00  0.00    +0.277 C 
ENDBRANCH  32  35
ENDBRANCH   2  29
BRANCH  11  37
ATOM     37  C31 UNL     1       1.565  -4.924 -27.240  0.00  0.00    -0.029 A 
ATOM     38  C32 UNL     1       1.572  -6.283 -26.873  0.00  0.00    +0.005 A 
ATOM     39  C33 UNL     1       0.844  -6.743 -25.773  0.00  0.00    +0.000 A 
ATOM     40  C34 UNL     1       0.082  -5.856 -25.022  0.00  0.00    +0.000 A 
ATOM     41  C35 UNL     1       0.043  -4.512 -25.375  0.00  0.00    +0.000 A 
ATOM     42  C36 UNL     1       0.772  -4.052 -26.476  0.00  0.00    +0.005 A 
ENDBRANCH  11  37
BRANCH   3  43
ATOM     43  C37 UNL     1       3.559  -1.594 -30.620  0.00  0.00    -0.029 A 
ATOM     44  C38 UNL     1       4.453  -1.438 -31.692  0.00  0.00    +0.005 A 
ATOM     45  C39 UNL     1       4.677  -0.188 -32.275  0.00  0.00    +0.000 A 
ATOM     46  C40 UNL     1       3.999   0.932 -31.808  0.00  0.00    +0.000 A 
ATOM     47  C41 UNL     1       3.091   0.801 -30.764  0.00  0.00    +0.000 A 
ATOM     48  C42 UNL     1       2.869  -0.450 -30.181  0.00  0.00    +0.005 A 
ENDBRANCH   3  43
TORSDOF 7
ENDMDL
MODEL 2
REMARK VINA RESULT:    -5.187      9.804     14.401
REMARK INTER + INTRA:         -12.158
REMARK INTER:                  -7.358
REMARK INTRA:                  -4.800
REMARK UNBOUND:                -4.848
REMARK  Name = /home/vital/Documents/PhD_2021/Malaria_codes/data/pdb_ligands_mmv/ligand_30.pdb
REMARK  10 active torsions:
REMARK  status: ('A' for Active; 'I' for Inactive)
REMARK    1  A    between atoms: C1_1  and  O1_2
REMARK    2  A    between atoms: O1_2  and  C2_3
REMARK    3  A    between atoms: C5_6  and  C8_9
REMARK    4  A    between atoms: C9_10  and  C10_11
REMARK    5  A    between atoms: C13_14  and  O2_15
REMARK    6  A    between atoms: O2_15  and  C14_16
REMARK    7  A    between atoms: C17_19  and  C37_43
REMARK    8  A    between atoms: N1_24  and  C22_27
REMARK    9  A    between atoms: C25_30  and  C26_31
REMARK   10  A    between atoms: C29_34  and  C31_37
REMARK                            x       y       z     vdW  Elec       q    Type
REMARK                         _______ _______ _______ _____ _____    ______ ____
ROOT
ATOM      1  C8  UNL     1       1.724   2.176 -18.408  0.00  0.00    -0.017 C 
ATOM      2  C9  UNL     1       1.178   1.235 -19.211  0.00  0.00    -0.017 C 
ATOM      3  C17 UNL     1       0.060   1.863 -20.054  0.00  0.00    +0.093 C 
ATOM      4  C18 UNL     1       0.730   2.888 -21.017  0.00  0.00    +0.111 C 
ATOM      5  C19 UNL     1       1.385   3.953 -20.092  0.00  0.00    +0.111 C 
ATOM      6  C20 UNL     1       0.742   5.246 -20.520  0.00  0.00    +0.232 C 
ATOM      7  O3  UNL     1       1.218   6.324 -20.193  0.00  0.00    -0.274 OA
ATOM      8  N1  UNL     1      -0.324   4.981 -21.351  0.00  0.00    -0.210 N 
ATOM      9  C21 UNL     1      -0.237   3.698 -21.846  0.00  0.00    +0.232 C 
ATOM     10  O4  UNL     1      -0.748   3.228 -22.854  0.00  0.00    -0.274 OA
ATOM     11  C29 UNL     1       1.025   3.519 -18.639  0.00  0.00    +0.093 C 
ATOM     12  C30 UNL     1      -0.300   2.885 -18.996  0.00  0.00    +0.164 C 
ATOM     13  O5  UNL     1      -1.417   3.227 -18.644  0.00  0.00    -0.295 OA
ENDROOT
BRANCH   8  14
ATOM     14  C22 UNL     1      -1.259   5.969 -21.816  0.00  0.00    +0.044 A 
ATOM     15  C23 UNL     1      -1.019   6.728 -22.973  0.00  0.00    +0.024 A 
ATOM     16  C24 UNL     1      -1.939   7.679 -23.441  0.00  0.00    +0.005 A 
ATOM     17  C25 UNL     1      -3.147   7.886 -22.780  0.00  0.00    -0.050 A 
ATOM     18  C26 UNL     1      -4.116   8.922 -23.265  0.00  0.00    +0.044 C 
ATOM     19  C27 UNL     1      -3.411   7.138 -21.635  0.00  0.00    +0.005 A 
ATOM     20  C28 UNL     1      -2.488   6.188 -21.170  0.00  0.00    +0.024 A 
ENDBRANCH   8  14
BRANCH   1  24
ATOM     21  C2  UNL     1       5.123   1.678 -15.857  0.00  0.00    +0.120 A 
ATOM     22  C3  UNL     1       3.834   1.585 -15.334  0.00  0.00    +0.046 A 
ATOM     23  C4  UNL     1       2.722   1.745 -16.169  0.00  0.00    +0.012 A 
ATOM     24  C5  UNL     1       2.885   2.009 -17.532  0.00  0.00    -0.020 A 
ATOM     25  C6  UNL     1       4.179   2.092 -18.056  0.00  0.00    +0.012 A 
ATOM     26  C7  UNL     1       5.287   1.929 -17.221  0.00  0.00    +0.046 A 
BRANCH  21  28
ATOM     27  C1  UNL     1       7.383   0.947 -15.838  0.00  0.00    +0.277 C 
ATOM     28  O1  UNL     1       6.288   1.544 -15.156  0.00  0.00    -0.495 OA
ENDBRANCH  21  28
ENDBRANCH   1  24
BRANCH   2  29
ATOM     29  C10 UNL     1       1.618  -0.157 -19.350  0.00  0.00    -0.020 A 
ATOM     30  C11 UNL     1       2.452  -0.533 -20.408  0.00  0.00    +0.012 A 
ATOM     31  C12 UNL     1       2.870  -1.859 -20.545  0.00  0.00    +0.046 A 
ATOM     32  C13 UNL     1       2.467  -2.832 -19.629  0.00  0.00    +0.120 A 
ATOM     33  C15 UNL     1       1.636  -2.465 -18.573  0.00  0.00    +0.046 A 
ATOM     34  C16 UNL     1       1.212  -1.136 -18.436  0.00  0.00    +0.012 A 
BRANCH  32  35
ATOM     35  O2  UNL     1       2.948  -4.086 -19.878  0.00  0.00    -0.495 OA
ATOM     36  C14 UNL     1       4.361  -4.231 -19.952  0.00  0.00    +0.277 C 
ENDBRANCH  32  35
ENDBRANCH   2  29
BRANCH  11  37
ATOM     37  C31 UNL     1       1.102   4.520 -17.514  0.00  0.00    -0.029 A 
ATOM     38  C32 UNL     1       2.210   5.383 -17.421  0.00  0.00    +0.005 A 
ATOM     39  C33 UNL     1       2.334   6.296 -16.371  0.00  0.00    +0.000 A 
ATOM     40  C34 UNL     1       1.358   6.359 -15.383  0.00  0.00    +0.000 A 
ATOM     41  C35 UNL     1       0.263   5.504 -15.442  0.00  0.00    +0.000 A 
ATOM     42  C36 UNL     1       0.139   4.590 -16.493  0.00  0.00    +0.005 A 
ENDBRANCH  11  37
BRANCH   3  43
ATOM     43  C37 UNL     1      -1.018   0.911 -20.509  0.00  0.00    -0.029 A 
ATOM     44  C38 UNL     1      -0.903   0.207 -21.719  0.00  0.00    +0.005 A 
ATOM     45  C39 UNL     1      -1.878  -0.710 -22.122  0.00  0.00    +0.000 A 
ATOM     46  C40 UNL     1      -2.982  -0.955 -21.315  0.00  0.00    +0.000 A 
ATOM     47  C41 UNL     1      -3.109  -0.289 -20.101  0.00  0.00    +0.000 A 
ATOM     48  C42 UNL     1      -2.134   0.628 -19.700  0.00  0.00    +0.005 A 
ENDBRANCH   3  43
TORSDOF 7
ENDMDL
MODEL 3
REMARK VINA RESULT:    -5.131      9.405     14.102
REMARK INTER + INTRA:         -12.078
REMARK INTER:                  -7.214
REMARK INTRA:                  -4.864
REMARK UNBOUND:                -4.848
REMARK  Name = /home/vital/Documents/PhD_2021/Malaria_codes/data/pdb_ligands_mmv/ligand_30.pdb
REMARK  10 active torsions:
REMARK  status: ('A' for Active; 'I' for Inactive)
REMARK    1  A    between atoms: C1_1  and  O1_2
REMARK    2  A    between atoms: O1_2  and  C2_3
REMARK    3  A    between atoms: C5_6  and  C8_9
REMARK    4  A    between atoms: C9_10  and  C10_11
REMARK    5  A    between atoms: C13_14  and  O2_15
REMARK    6  A    between atoms: O2_15  and  C14_16
REMARK    7  A    between atoms: C17_19  and  C37_43
REMARK    8  A    between atoms: N1_24  and  C22_27
REMARK    9  A    between atoms: C25_30  and  C26_31
REMARK   10  A    between atoms: C29_34  and  C31_37
REMARK                            x       y       z     vdW  Elec       q    Type
REMARK                         _______ _______ _______ _____ _____    ______ ____
ROOT
ATOM      1  C8  UNL     1       1.204   2.249 -18.962  0.00  0.00    -0.017 C 
ATOM      2  C9  UNL     1       0.698   3.397 -19.467  0.00  0.00    -0.017 C 
ATOM      3  C17 UNL     1      -0.377   3.070 -20.512  0.00  0.00    +0.093 C 
ATOM      4  C18 UNL     1      -1.561   2.394 -19.759  0.00  0.00    +0.111 C 
ATOM      5  C19 UNL     1      -0.970   1.090 -19.151  0.00  0.00    +0.111 C 
ATOM      6  C20 UNL     1      -1.826  -0.000 -19.740  0.00  0.00    +0.232 C 
ATOM      7  O3  UNL     1      -1.820  -1.129 -19.270  0.00  0.00    -0.274 OA
ATOM      8  N1  UNL     1      -2.607   0.517 -20.751  0.00  0.00    -0.210 N 
ATOM      9  C21 UNL     1      -2.669   1.890 -20.651  0.00  0.00    +0.232 C 
ATOM     10  O4  UNL     1      -3.514   2.654 -21.098  0.00  0.00    -0.274 OA
ATOM     11  C29 UNL     1       0.516   1.049 -19.620  0.00  0.00    +0.093 C 
ATOM     12  C30 UNL     1       0.281   1.770 -20.927  0.00  0.00    +0.164 C 
ATOM     13  O5  UNL     1       0.426   1.341 -22.059  0.00  0.00    -0.295 OA
ENDROOT
BRANCH   8  14
ATOM     14  C22 UNL     1      -3.423  -0.271 -21.634  0.00  0.00    +0.044 A 
ATOM     15  C23 UNL     1      -2.962  -0.688 -22.893  0.00  0.00    +0.024 A 
ATOM     16  C24 UNL     1      -3.748  -1.474 -23.749  0.00  0.00    +0.005 A 
ATOM     17  C25 UNL     1      -5.019  -1.893 -23.363  0.00  0.00    -0.050 A 
ATOM     18  C26 UNL     1      -5.869  -2.709 -24.289  0.00  0.00    +0.044 C 
ATOM     19  C27 UNL     1      -5.494  -1.499 -22.114  0.00  0.00    +0.005 A 
ATOM     20  C28 UNL     1      -4.704  -0.713 -21.262  0.00  0.00    +0.024 A 
ENDBRANCH   8  14
BRANCH   1  24
ATOM     21  C2  UNL     1       4.019   1.905 -15.758  0.00  0.00    +0.120 A 
ATOM     22  C3  UNL     1       4.455   1.864 -17.082  0.00  0.00    +0.046 A 
ATOM     23  C4  UNL     1       3.534   1.980 -18.130  0.00  0.00    +0.012 A 
ATOM     24  C5  UNL     1       2.169   2.127 -17.868  0.00  0.00    -0.020 A 
ATOM     25  C6  UNL     1       1.736   2.177 -16.539  0.00  0.00    +0.012 A 
ATOM     26  C7  UNL     1       2.657   2.065 -15.495  0.00  0.00    +0.046 A 
BRANCH  21  28
ATOM     27  C1  UNL     1       4.317   2.398 -13.453  0.00  0.00    +0.277 C 
ATOM     28  O1  UNL     1       4.809   1.803 -14.647  0.00  0.00    -0.495 OA
ENDBRANCH  21  28
ENDBRANCH   1  24
BRANCH   2  29
ATOM     29  C10 UNL     1       1.033   4.761 -19.042  0.00  0.00    -0.020 A 
ATOM     30  C11 UNL     1       0.251   5.416 -18.086  0.00  0.00    +0.012 A 
ATOM     31  C12 UNL     1       0.565   6.715 -17.682  0.00  0.00    +0.046 A 
ATOM     32  C13 UNL     1       1.666   7.383 -18.221  0.00  0.00    +0.120 A 
ATOM     33  C15 UNL     1       2.449   6.737 -19.175  0.00  0.00    +0.046 A 
ATOM     34  C16 UNL     1       2.133   5.434 -19.585  0.00  0.00    +0.012 A 
BRANCH  32  35
ATOM     35  O2  UNL     1       1.861   8.646 -17.739  0.00  0.00    -0.495 OA
ATOM     36  C14 UNL     1       3.038   8.867 -16.970  0.00  0.00    +0.277 C 
ENDBRANCH  32  35
ENDBRANCH   2  29
BRANCH  11  37
ATOM     37  C31 UNL     1       1.274  -0.254 -19.604  0.00  0.00    -0.029 A 
ATOM     38  C32 UNL     1       1.219  -1.080 -18.467  0.00  0.00    +0.005 A 
ATOM     39  C33 UNL     1       1.939  -2.276 -18.401  0.00  0.00    +0.000 A 
ATOM     40  C34 UNL     1       2.740  -2.666 -19.468  0.00  0.00    +0.000 A 
ATOM     41  C35 UNL     1       2.826  -1.857 -20.595  0.00  0.00    +0.000 A 
ATOM     42  C36 UNL     1       2.106  -0.661 -20.660  0.00  0.00    +0.005 A 
ENDBRANCH  11  37
BRANCH   3  43
ATOM     43  C37 UNL     1      -0.588   4.123 -21.572  0.00  0.00    -0.029 A 
ATOM     44  C38 UNL     1      -1.492   5.180 -21.377  0.00  0.00    +0.005 A 
ATOM     45  C39 UNL     1      -1.657   6.181 -22.338  0.00  0.00    +0.000 A 
ATOM     46  C40 UNL     1      -0.907   6.157 -23.508  0.00  0.00    +0.000 A 
ATOM     47  C41 UNL     1       0.012   5.134 -23.715  0.00  0.00    +0.000 A 
ATOM     48  C42 UNL     1       0.174   4.133 -22.754  0.00  0.00    +0.005 A 
ENDBRANCH   3  43
TORSDOF 7
ENDMDL
MODEL 4
REMARK VINA RESULT:    -5.077      2.568      4.490
REMARK INTER + INTRA:         -12.002
REMARK INTER:                  -7.285
REMARK INTRA:                  -4.717
REMARK UNBOUND:                -4.848
REMARK  Name = /home/vital/Documents/PhD_2021/Malaria_codes/data/pdb_ligands_mmv/ligand_30.pdb
REMARK  10 active torsions:
REMARK  status: ('A' for Active; 'I' for Inactive)
REMARK    1  A    between atoms: C1_1  and  O1_2
REMARK    2  A    between atoms: O1_2  and  C2_3
REMARK    3  A    between atoms: C5_6  and  C8_9
REMARK    4  A    between atoms: C9_10  and  C10_11
REMARK    5  A    between atoms: C13_14  and  O2_15
REMARK    6  A    between atoms: O2_15  and  C14_16
REMARK    7  A    between atoms: C17_19  and  C37_43
REMARK    8  A    between atoms: N1_24  and  C22_27
REMARK    9  A    between atoms: C25_30  and  C26_31
REMARK   10  A    between atoms: C29_34  and  C31_37
REMARK                            x       y       z     vdW  Elec       q    Type
REMARK                         _______ _______ _______ _____ _____    ______ ____
ROOT
ATOM      1  C8  UNL     1       3.474  -2.702 -30.326  0.00  0.00    -0.017 C 
ATOM      2  C9  UNL     1       4.332  -1.674 -30.134  0.00  0.00    -0.017 C 
ATOM      3  C17 UNL     1       4.652  -1.544 -28.638  0.00  0.00    +0.093 C 
ATOM      4  C18 UNL     1       5.440  -2.822 -28.223  0.00  0.00    +0.111 C 
ATOM      5  C19 UNL     1       4.465  -4.006 -28.475  0.00  0.00    +0.111 C 
ATOM      6  C20 UNL     1       4.344  -4.666 -27.126  0.00  0.00    +0.232 C 
ATOM      7  O3  UNL     1       3.872  -5.788 -27.014  0.00  0.00    -0.274 OA
ATOM      8  N1  UNL     1       4.908  -3.859 -26.163  0.00  0.00    -0.210 N 
ATOM      9  C21 UNL     1       5.738  -2.926 -26.747  0.00  0.00    +0.232 C 
ATOM     10  O4  UNL     1       6.666  -2.306 -26.247  0.00  0.00    -0.274 OA
ATOM     11  C29 UNL     1       3.142  -3.355 -28.981  0.00  0.00    +0.093 C 
ATOM     12  C30 UNL     1       3.300  -2.070 -28.201  0.00  0.00    +0.164 C 
ATOM     13  O5  UNL     1       2.591  -1.641 -27.307  0.00  0.00    -0.295 OA
ENDROOT
BRANCH   8  14
ATOM     14  C22 UNL     1       4.828  -4.101 -24.748  0.00  0.00    +0.044 A 
ATOM     15  C23 UNL     1       3.752  -3.632 -23.977  0.00  0.00    +0.024 A 
ATOM     16  C24 UNL     1       3.660  -3.884 -22.599  0.00  0.00    +0.005 A 
ATOM     17  C25 UNL     1       4.632  -4.640 -21.948  0.00  0.00    -0.050 A 
ATOM     18  C26 UNL     1       4.548  -4.885 -20.472  0.00  0.00    +0.044 C 
ATOM     19  C27 UNL     1       5.704  -5.123 -22.695  0.00  0.00    +0.005 A 
ATOM     20  C28 UNL     1       5.792  -4.868 -24.072  0.00  0.00    +0.024 A 
ENDBRANCH   8  14
BRANCH   1  24
ATOM     21  C2  UNL     1       2.103  -4.221 -34.083  0.00  0.00    +0.120 A 
ATOM     22  C3  UNL     1       3.209  -4.795 -33.457  0.00  0.00    +0.046 A 
ATOM     23  C4  UNL     1       3.656  -4.299 -32.226  0.00  0.00    +0.012 A 
ATOM     24  C5  UNL     1       3.010  -3.222 -31.613  0.00  0.00    -0.020 A 
ATOM     25  C6  UNL     1       1.895  -2.656 -32.239  0.00  0.00    +0.012 A 
ATOM     26  C7  UNL     1       1.449  -3.153 -33.466  0.00  0.00    +0.046 A 
BRANCH  21  28
ATOM     27  C1  UNL     1       0.562  -3.766 -35.834  0.00  0.00    +0.277 C 
ATOM     28  O1  UNL     1       1.566  -4.606 -35.280  0.00  0.00    -0.495 OA
ENDBRANCH  21  28
ENDBRANCH   1  24
BRANCH   2  29
ATOM     29  C10 UNL     1       4.953  -0.848 -31.174  0.00  0.00    -0.020 A 
ATOM     30  C11 UNL     1       6.207  -1.188 -31.692  0.00  0.00    +0.012 A 
ATOM     31  C12 UNL     1       6.803  -0.401 -32.681  0.00  0.00    +0.046 A 
ATOM     32  C13 UNL     1       6.158   0.735 -33.172  0.00  0.00    +0.120 A 
ATOM     33  C15 UNL     1       4.909   1.081 -32.660  0.00  0.00    +0.046 A 
ATOM     34  C16 UNL     1       4.312   0.295 -31.665  0.00  0.00    +0.012 A 
BRANCH  32  35
ATOM     35  O2  UNL     1       6.849   1.413 -34.137  0.00  0.00    -0.495 OA
ATOM     36  C14 UNL     1       6.322   2.671 -34.543  0.00  0.00    +0.277 C 
ENDBRANCH  32  35
ENDBRANCH   2  29
BRANCH  11  37
ATOM     37  C31 UNL     1       1.848  -4.125 -28.908  0.00  0.00    -0.029 A 
ATOM     38  C32 UNL     1       1.803  -5.459 -29.357  0.00  0.00    +0.005 A 
ATOM     39  C33 UNL     1       0.613  -6.191 -29.340  0.00  0.00    +0.000 A 
ATOM     40  C34 UNL     1      -0.561  -5.602 -28.886  0.00  0.00    +0.000 A 
ATOM     41  C35 UNL     1      -0.547  -4.280 -28.455  0.00  0.00    +0.000 A 
ATOM     42  C36 UNL     1       0.644  -3.548 -28.472  0.00  0.00    +0.005 A 
ENDBRANCH  11  37
BRANCH   3  43
ATOM     43  C37 UNL     1       5.052  -0.163 -28.181  0.00  0.00    -0.029 A 
ATOM     44  C38 UNL     1       4.105   0.733 -27.659  0.00  0.00    +0.005 A 
ATOM     45  C39 UNL     1       4.479   1.996 -27.192  0.00  0.00    +0.000 A 
ATOM     46  C40 UNL     1       5.813   2.384 -27.223  0.00  0.00    +0.000 A 
ATOM     47  C41 UNL     1       6.775   1.507 -27.713  0.00  0.00    +0.000 A 
ATOM     48  C42 UNL     1       6.398   0.245 -28.180  0.00  0.00    +0.005 A 
ENDBRANCH   3  43
TORSDOF 7
ENDMDL
MODEL 5
REMARK VINA RESULT:    -5.036      2.539      5.508
REMARK INTER + INTRA:         -11.945
REMARK INTER:                  -7.143
REMARK INTRA:                  -4.802
REMARK UNBOUND:                -4.848
REMARK  Name = /home/vital/Documents/PhD_2021/Malaria_codes/data/pdb_ligands_mmv/ligand_30.pdb
REMARK  10 active torsions:
REMARK  status: ('A' for Active; 'I' for Inactive)
REMARK    1  A    between atoms: C1_1  and  O1_2
REMARK    2  A    between atoms: O1_2  and  C2_3
REMARK    3  A    between atoms: C5_6  and  C8_9
REMARK    4  A    between atoms: C9_10  and  C10_11
REMARK    5  A    between atoms: C13_14  and  O2_15
REMARK    6  A    between atoms: O2_15  and  C14_16
REMARK    7  A    between atoms: C17_19  and  C37_43
REMARK    8  A    between atoms: N1_24  and  C22_27
REMARK    9  A    between atoms: C25_30  and  C26_31
REMARK   10  A    between atoms: C29_34  and  C31_37
REMARK                            x       y       z     vdW  Elec       q    Type
REMARK                         _______ _______ _______ _____ _____    ______ ____
ROOT
ATOM      1  C8  UNL     1       1.588  -4.112 -29.489  0.00  0.00    -0.017 C 
ATOM      2  C9  UNL     1       1.350  -4.528 -30.754  0.00  0.00    -0.017 C 
ATOM      3  C17 UNL     1       2.079  -3.609 -31.744  0.00  0.00    +0.093 C 
ATOM      4  C18 UNL     1       3.607  -3.815 -31.523  0.00  0.00    +0.111 C 
ATOM      5  C19 UNL     1       3.875  -3.367 -30.058  0.00  0.00    +0.111 C 
ATOM      6  C20 UNL     1       4.898  -2.271 -30.198  0.00  0.00    +0.232 C 
ATOM      7  O3  UNL     1       5.537  -1.878 -29.233  0.00  0.00    -0.274 OA
ATOM      8  N1  UNL     1       5.016  -1.912 -31.523  0.00  0.00    -0.210 N 
ATOM      9  C21 UNL     1       4.490  -2.896 -32.333  0.00  0.00    +0.232 C 
ATOM     10  O4  UNL     1       4.725  -3.127 -33.511  0.00  0.00    -0.274 OA
ATOM     11  C29 UNL     1       2.498  -2.880 -29.515  0.00  0.00    +0.093 C 
ATOM     12  C30 UNL     1       1.974  -2.393 -30.846  0.00  0.00    +0.164 C 
ATOM     13  O5  UNL     1       1.694  -1.252 -31.173  0.00  0.00    -0.295 OA
ENDROOT
BRANCH   8  14
ATOM     14  C22 UNL     1       5.781  -0.792 -31.999  0.00  0.00    +0.044 A 
ATOM     15  C23 UNL     1       7.185  -0.784 -31.955  0.00  0.00    +0.024 A 
ATOM     16  C24 UNL     1       7.936   0.299 -32.438  0.00  0.00    +0.005 A 
ATOM     17  C25 UNL     1       7.307   1.404 -33.007  0.00  0.00    -0.050 A 
ATOM     18  C26 UNL     1       8.109   2.572 -33.496  0.00  0.00    +0.044 C 
ATOM     19  C27 UNL     1       5.916   1.413 -33.069  0.00  0.00    +0.005 A 
ATOM     20  C28 UNL     1       5.169   0.329 -32.585  0.00  0.00    +0.024 A 
ENDBRANCH   8  14
BRANCH   1  24
ATOM     21  C2  UNL     1       0.348  -6.049 -25.882  0.00  0.00    +0.120 A 
ATOM     22  C3  UNL     1       1.595  -6.334 -26.438  0.00  0.00    +0.046 A 
ATOM     23  C4  UNL     1       2.002  -5.698 -27.617  0.00  0.00    +0.012 A 
ATOM     24  C5  UNL     1       1.165  -4.779 -28.257  0.00  0.00    -0.020 A 
ATOM     25  C6  UNL     1      -0.080  -4.489 -27.692  0.00  0.00    +0.012 A 
ATOM     26  C7  UNL     1      -0.483  -5.123 -26.514  0.00  0.00    +0.046 A 
BRANCH  21  28
ATOM     27  C1  UNL     1      -0.911  -5.733 -23.892  0.00  0.00    +0.277 C 
ATOM     28  O1  UNL     1      -0.169  -6.598 -24.741  0.00  0.00    -0.495 OA
ENDBRANCH  21  28
ENDBRANCH   1  24
BRANCH   2  29
ATOM     29  C10 UNL     1       0.594  -5.719 -31.155  0.00  0.00    -0.020 A 
ATOM     30  C11 UNL     1       1.243  -6.948 -31.313  0.00  0.00    +0.012 A 
ATOM     31  C12 UNL     1       0.526  -8.083 -31.698  0.00  0.00    +0.046 A 
ATOM     32  C13 UNL     1      -0.849  -8.015 -31.927  0.00  0.00    +0.120 A 
ATOM     33  C15 UNL     1      -1.502  -6.794 -31.772  0.00  0.00    +0.046 A 
ATOM     34  C16 UNL     1      -0.784  -5.652 -31.390  0.00  0.00    +0.012 A 
BRANCH  32  35
ATOM     35  O2  UNL     1      -1.427  -9.197 -32.296  0.00  0.00    -0.495 OA
ATOM     36  C14 UNL     1      -0.561 -10.312 -32.466  0.00  0.00    +0.277 C 
ENDBRANCH  32  35
ENDBRANCH   2  29
BRANCH  11  37
ATOM     37  C31 UNL     1       2.442  -1.977 -28.308  0.00  0.00    -0.029 A 
ATOM     38  C32 UNL     1       3.212  -2.282 -27.171  0.00  0.00    +0.005 A 
ATOM     39  C33 UNL     1       3.157  -1.490 -26.021  0.00  0.00    +0.000 A 
ATOM     40  C34 UNL     1       2.319  -0.382 -25.979  0.00  0.00    +0.000 A 
ATOM     41  C35 UNL     1       1.533  -0.070 -27.082  0.00  0.00    +0.000 A 
ATOM     42  C36 UNL     1       1.589  -0.863 -28.233  0.00  0.00    +0.005 A 
ENDBRANCH  11  37
BRANCH   3  43
ATOM     43  C37 UNL     1       1.465  -3.524 -33.119  0.00  0.00    -0.029 A 
ATOM     44  C38 UNL     1       1.745  -4.488 -34.101  0.00  0.00    +0.005 A 
ATOM     45  C39 UNL     1       1.143  -4.438 -35.361  0.00  0.00    +0.000 A 
ATOM     46  C40 UNL     1       0.233  -3.431 -35.661  0.00  0.00    +0.000 A 
ATOM     47  C41 UNL     1      -0.081  -2.478 -34.698  0.00  0.00    +0.000 A 
ATOM     48  C42 UNL     1       0.524  -2.529 -33.440  0.00  0.00    +0.005 A 
ENDBRANCH   3  43
TORSDOF 7
ENDMDL
MODEL 6
REMARK VINA RESULT:    -4.915     10.436     14.838
REMARK INTER + INTRA:         -11.774
REMARK INTER:                  -7.027
REMARK INTRA:                  -4.747
REMARK UNBOUND:                -4.848
REMARK  Name = /home/vital/Documents/PhD_2021/Malaria_codes/data/pdb_ligands_mmv/ligand_30.pdb
REMARK  10 active torsions:
REMARK  status: ('A' for Active; 'I' for Inactive)
REMARK    1  A    between atoms: C1_1  and  O1_2
REMARK    2  A    between atoms: O1_2  and  C2_3
REMARK    3  A    between atoms: C5_6  and  C8_9
REMARK    4  A    between atoms: C9_10  and  C10_11
REMARK    5  A    between atoms: C13_14  and  O2_15
REMARK    6  A    between atoms: O2_15  and  C14_16
REMARK    7  A    between atoms: C17_19  and  C37_43
REMARK    8  A    between atoms: N1_24  and  C22_27
REMARK    9  A    between atoms: C25_30  and  C26_31
REMARK   10  A    between atoms: C29_34  and  C31_37
REMARK                            x       y       z     vdW  Elec       q    Type
REMARK                         _______ _______ _______ _____ _____    ______ ____
ROOT
ATOM      1  C8  UNL     1       1.371   2.476 -19.326  0.00  0.00    -0.017 C 
ATOM      2  C9  UNL     1       1.644   3.476 -18.457  0.00  0.00    -0.017 C 
ATOM      3  C17 UNL     1       0.914   4.753 -18.895  0.00  0.00    +0.093 C 
ATOM      4  C18 UNL     1      -0.613   4.484 -18.747  0.00  0.00    +0.111 C 
ATOM      5  C19 UNL     1      -0.920   3.313 -19.723  0.00  0.00    +0.111 C 
ATOM      6  C20 UNL     1      -1.966   3.880 -20.647  0.00  0.00    +0.232 C 
ATOM      7  O3  UNL     1      -2.633   3.150 -21.367  0.00  0.00    -0.274 OA
ATOM      8  N1  UNL     1      -2.065   5.241 -20.457  0.00  0.00    -0.210 N 
ATOM      9  C21 UNL     1      -1.500   5.597 -19.250  0.00  0.00    +0.232 C 
ATOM     10  O4  UNL     1      -1.706   6.593 -18.571  0.00  0.00    -0.274 OA
ATOM     11  C29 UNL     1       0.434   2.990 -20.424  0.00  0.00    +0.093 C 
ATOM     12  C30 UNL     1       0.973   4.401 -20.367  0.00  0.00    +0.164 C 
ATOM     13  O5  UNL     1       1.233   5.145 -21.297  0.00  0.00    -0.295 OA
ENDROOT
BRANCH   8  14
ATOM     14  C22 UNL     1      -2.846   6.124 -21.279  0.00  0.00    +0.044 A 
ATOM     15  C23 UNL     1      -2.247   7.018 -22.181  0.00  0.00    +0.024 A 
ATOM     16  C24 UNL     1      -3.007   7.867 -23.000  0.00  0.00    +0.005 A 
ATOM     17  C25 UNL     1      -4.399   7.833 -22.963  0.00  0.00    -0.050 A 
ATOM     18  C26 UNL     1      -5.210   8.760 -23.818  0.00  0.00    +0.044 C 
ATOM     19  C27 UNL     1      -5.015   6.947 -22.082  0.00  0.00    +0.005 A 
ATOM     20  C28 UNL     1      -4.251   6.100 -21.265  0.00  0.00    +0.024 A 
ENDBRANCH   8  14
BRANCH   1  24
ATOM     21  C2  UNL     1       2.576  -1.612 -18.958  0.00  0.00    +0.120 A 
ATOM     22  C3  UNL     1       3.388  -0.700 -19.631  0.00  0.00    +0.046 A 
ATOM     23  C4  UNL     1       2.995   0.639 -19.748  0.00  0.00    +0.012 A 
ATOM     24  C5  UNL     1       1.784   1.078 -19.205  0.00  0.00    -0.020 A 
ATOM     25  C6  UNL     1       0.977   0.162 -18.523  0.00  0.00    +0.012 A 
ATOM     26  C7  UNL     1       1.372  -1.173 -18.403  0.00  0.00    +0.046 A 
BRANCH  21  28
ATOM     27  C1  UNL     1       3.524  -3.612 -19.822  0.00  0.00    +0.277 C 
ATOM     28  O1  UNL     1       2.840  -2.941 -18.772  0.00  0.00    -0.495 OA
ENDBRANCH  21  28
ENDBRANCH   1  24
BRANCH   2  29
ATOM     29  C10 UNL     1       2.435   3.372 -17.226  0.00  0.00    -0.020 A 
ATOM     30  C11 UNL     1       1.822   3.024 -16.018  0.00  0.00    +0.012 A 
ATOM     31  C12 UNL     1       2.572   2.928 -14.844  0.00  0.00    +0.046 A 
ATOM     32  C13 UNL     1       3.946   3.172 -14.854  0.00  0.00    +0.120 A 
ATOM     33  C15 UNL     1       4.564   3.520 -16.053  0.00  0.00    +0.046 A 
ATOM     34  C16 UNL     1       3.813   3.622 -17.231  0.00  0.00    +0.012 A 
BRANCH  32  35
ATOM     35  O2  UNL     1       4.559   3.042 -13.639  0.00  0.00    -0.495 OA
ATOM     36  C14 UNL     1       3.796   2.453 -12.593  0.00  0.00    +0.277 C 
ENDBRANCH  32  35
ENDBRANCH   2  29
BRANCH  11  37
ATOM     37  C31 UNL     1       0.445   2.232 -21.727  0.00  0.00    -0.029 A 
ATOM     38  C32 UNL     1      -0.340   1.072 -21.867  0.00  0.00    +0.005 A 
ATOM     39  C33 UNL     1      -0.326   0.323 -23.046  0.00  0.00    +0.000 A 
ATOM     40  C34 UNL     1       0.484   0.709 -24.108  0.00  0.00    +0.000 A 
ATOM     41  C35 UNL     1       1.284   1.840 -23.987  0.00  0.00    +0.000 A 
ATOM     42  C36 UNL     1       1.269   2.590 -22.806  0.00  0.00    +0.005 A 
ENDBRANCH  11  37
BRANCH   3  43
ATOM     43  C37 UNL     1       1.554   6.046 -18.454  0.00  0.00    -0.029 A 
ATOM     44  C38 UNL     1       2.434   6.746 -19.295  0.00  0.00    +0.005 A 
ATOM     45  C39 UNL     1       2.993   7.967 -18.908  0.00  0.00    +0.000 A 
ATOM     46  C40 UNL     1       2.669   8.524 -17.676  0.00  0.00    +0.000 A 
ATOM     47  C41 UNL     1       1.781   7.863 -16.834  0.00  0.00    +0.000 A 
ATOM     48  C42 UNL     1       1.225   6.642 -17.223  0.00  0.00    +0.005 A 
ENDBRANCH   3  43
TORSDOF 7
ENDMDL
MODEL 7
REMARK VINA RESULT:    -4.907      9.472     13.404
REMARK INTER + INTRA:         -11.763
REMARK INTER:                  -6.894
REMARK INTRA:                  -4.869
REMARK UNBOUND:                -4.848
REMARK  Name = /home/vital/Documents/PhD_2021/Malaria_codes/data/pdb_ligands_mmv/ligand_30.pdb
REMARK  10 active torsions:
REMARK  status: ('A' for Active; 'I' for Inactive)
REMARK    1  A    between atoms: C1_1  and  O1_2
REMARK    2  A    between atoms: O1_2  and  C2_3
REMARK    3  A    between atoms: C5_6  and  C8_9
REMARK    4  A    between atoms: C9_10  and  C10_11
REMARK    5  A    between atoms: C13_14  and  O2_15
REMARK    6  A    between atoms: O2_15  and  C14_16
REMARK    7  A    between atoms: C17_19  and  C37_43
REMARK    8  A    between atoms: N1_24  and  C22_27
REMARK    9  A    between atoms: C25_30  and  C26_31
REMARK   10  A    between atoms: C29_34  and  C31_37
REMARK                            x       y       z     vdW  Elec       q    Type
REMARK                         _______ _______ _______ _____ _____    ______ ____
ROOT
ATOM      1  C8  UNL     1      -0.643   3.763 -20.294  0.00  0.00    -0.017 C 
ATOM      2  C9  UNL     1      -1.534   3.979 -21.288  0.00  0.00    -0.017 C 
ATOM      3  C17 UNL     1      -1.836   2.657 -22.006  0.00  0.00    +0.093 C 
ATOM      4  C18 UNL     1      -2.572   1.737 -20.986  0.00  0.00    +0.111 C 
ATOM      5  C19 UNL     1      -1.558   1.515 -19.828  0.00  0.00    +0.111 C 
ATOM      6  C20 UNL     1      -1.393   0.018 -19.777  0.00  0.00    +0.232 C 
ATOM      7  O3  UNL     1      -0.880  -0.526 -18.810  0.00  0.00    -0.274 OA
ATOM      8  N1  UNL     1      -1.972  -0.550 -20.890  0.00  0.00    -0.210 N 
ATOM      9  C21 UNL     1      -2.844   0.338 -21.482  0.00  0.00    +0.232 C 
ATOM     10  O4  UNL     1      -3.786   0.106 -22.227  0.00  0.00    -0.274 OA
ATOM     11  C29 UNL     1      -0.267   2.278 -20.253  0.00  0.00    +0.093 C 
ATOM     12  C30 UNL     1      -0.460   2.083 -21.739  0.00  0.00    +0.164 C 
ATOM     13  O5  UNL     1       0.246   1.459 -22.514  0.00  0.00    -0.295 OA
ENDROOT
BRANCH   8  14
ATOM     14  C22 UNL     1      -1.862  -1.939 -21.245  0.00  0.00    +0.044 A 
ATOM     15  C23 UNL     1      -2.786  -2.894 -20.791  0.00  0.00    +0.024 A 
ATOM     16  C24 UNL     1      -2.694  -4.247 -21.152  0.00  0.00    +0.005 A 
ATOM     17  C25 UNL     1      -1.685  -4.689 -22.005  0.00  0.00    -0.050 A 
ATOM     18  C26 UNL     1      -1.570  -6.139 -22.367  0.00  0.00    +0.044 C 
ATOM     19  C27 UNL     1      -0.761  -3.757 -22.475  0.00  0.00    +0.005 A 
ATOM     20  C28 UNL     1      -0.858  -2.406 -22.111  0.00  0.00    +0.024 A 
ENDBRANCH   8  14
BRANCH   1  24
ATOM     21  C2  UNL     1       0.727   6.617 -17.417  0.00  0.00    +0.120 A 
ATOM     22  C3  UNL     1      -0.395   5.834 -17.148  0.00  0.00    +0.046 A 
ATOM     23  C4  UNL     1      -0.841   4.898 -18.088  0.00  0.00    +0.012 A 
ATOM     24  C5  UNL     1      -0.179   4.741 -19.309  0.00  0.00    -0.020 A 
ATOM     25  C6  UNL     1       0.951   5.521 -19.571  0.00  0.00    +0.012 A 
ATOM     26  C7  UNL     1       1.397   6.453 -18.630  0.00  0.00    +0.046 A 
BRANCH  21  28
ATOM     27  C1  UNL     1       2.216   8.451 -17.162  0.00  0.00    +0.277 C 
ATOM     28  O1  UNL     1       1.265   7.564 -16.590  0.00  0.00    -0.495 OA
ENDBRANCH  21  28
ENDBRANCH   1  24
BRANCH   2  29
ATOM     29  C10 UNL     1      -2.200   5.248 -21.603  0.00  0.00    -0.020 A 
ATOM     30  C11 UNL     1      -3.453   5.543 -21.058  0.00  0.00    +0.012 A 
ATOM     31  C12 UNL     1      -4.091   6.748 -21.360  0.00  0.00    +0.046 A 
ATOM     32  C13 UNL     1      -3.490   7.681 -22.206  0.00  0.00    +0.120 A 
ATOM     33  C15 UNL     1      -2.241   7.394 -22.753  0.00  0.00    +0.046 A 
ATOM     34  C16 UNL     1      -1.601   6.183 -22.455  0.00  0.00    +0.012 A 
BRANCH  32  35
ATOM     35  O2  UNL     1      -4.220   8.817 -22.416  0.00  0.00    -0.495 OA
ATOM     36  C14 UNL     1      -3.732   9.724 -23.398  0.00  0.00    +0.277 C 
ENDBRANCH  32  35
ENDBRANCH   2  29
BRANCH  11  37
ATOM     37  C31 UNL     1       1.055   1.935 -19.614  0.00  0.00    -0.029 A 
ATOM     38  C32 UNL     1       1.138   1.792 -18.216  0.00  0.00    +0.005 A 
ATOM     39  C33 UNL     1       2.353   1.512 -17.586  0.00  0.00    +0.000 A 
ATOM     40  C34 UNL     1       3.515   1.383 -18.338  0.00  0.00    +0.000 A 
ATOM     41  C35 UNL     1       3.462   1.540 -19.718  0.00  0.00    +0.000 A 
ATOM     42  C36 UNL     1       2.246   1.819 -20.349  0.00  0.00    +0.005 A 
ENDBRANCH  11  37
BRANCH   3  43
ATOM     43  C37 UNL     1      -2.279   2.788 -23.442  0.00  0.00    -0.029 A 
ATOM     44  C38 UNL     1      -3.635   2.944 -23.774  0.00  0.00    +0.005 A 
ATOM     45  C39 UNL     1      -4.044   3.112 -25.099  0.00  0.00    +0.000 A 
ATOM     46  C40 UNL     1      -3.103   3.144 -26.122  0.00  0.00    +0.000 A 
ATOM     47  C41 UNL     1      -1.752   3.016 -25.818  0.00  0.00    +0.000 A 
ATOM     48  C42 UNL     1      -1.345   2.847 -24.492  0.00  0.00    +0.005 A 
ENDBRANCH   3  43
TORSDOF 7
ENDMDL
MODEL 8
REMARK VINA RESULT:    -4.767      2.144      8.981
REMARK INTER + INTRA:         -11.565
REMARK INTER:                  -6.725
REMARK INTRA:                  -4.840
REMARK UNBOUND:                -4.848
REMARK  Name = /home/vital/Documents/PhD_2021/Malaria_codes/data/pdb_ligands_mmv/ligand_30.pdb
REMARK  10 active torsions:
REMARK  status: ('A' for Active; 'I' for Inactive)
REMARK    1  A    between atoms: C1_1  and  O1_2
REMARK    2  A    between atoms: O1_2  and  C2_3
REMARK    3  A    between atoms: C5_6  and  C8_9
REMARK    4  A    between atoms: C9_10  and  C10_11
REMARK    5  A    between atoms: C13_14  and  O2_15
REMARK    6  A    between atoms: O2_15  and  C14_16
REMARK    7  A    between atoms: C17_19  and  C37_43
REMARK    8  A    between atoms: N1_24  and  C22_27
REMARK    9  A    between atoms: C25_30  and  C26_31
REMARK   10  A    between atoms: C29_34  and  C31_37
REMARK                            x       y       z     vdW  Elec       q    Type
REMARK                         _______ _______ _______ _____ _____    ______ ____
ROOT
ATOM      1  C8  UNL     1       2.311  -3.312 -30.781  0.00  0.00    -0.017 C 
ATOM      2  C9  UNL     1       2.457  -3.923 -29.583  0.00  0.00    -0.017 C 
ATOM      3  C17 UNL     1       1.422  -5.049 -29.452  0.00  0.00    +0.093 C 
ATOM      4  C18 UNL     1       1.782  -6.131 -30.513  0.00  0.00    +0.111 C 
ATOM      5  C19 UNL     1       1.646  -5.418 -31.889  0.00  0.00    +0.111 C 
ATOM      6  C20 UNL     1       0.624  -6.246 -32.623  0.00  0.00    +0.232 C 
ATOM      7  O3  UNL     1       0.474  -6.135 -33.831  0.00  0.00    -0.274 OA
ATOM      8  N1  UNL     1       0.028  -7.129 -31.750  0.00  0.00    -0.210 N 
ATOM      9  C21 UNL     1       0.795  -7.269 -30.613  0.00  0.00    +0.232 C 
ATOM     10  O4  UNL     1       0.811  -8.189 -29.808  0.00  0.00    -0.274 OA
ATOM     11  C29 UNL     1       1.169  -3.971 -31.561  0.00  0.00    +0.093 C 
ATOM     12  C30 UNL     1       0.398  -4.345 -30.317  0.00  0.00    +0.164 C 
ATOM     13  O5  UNL     1      -0.803  -4.256 -30.121  0.00  0.00    -0.295 OA
ENDROOT
BRANCH   8  14
ATOM     14  C22 UNL     1      -1.102  -7.957 -32.074  0.00  0.00    +0.044 A 
ATOM     15  C23 UNL     1      -2.414  -7.458 -32.058  0.00  0.00    +0.024 A 
ATOM     16  C24 UNL     1      -3.517  -8.259 -32.393  0.00  0.00    +0.005 A 
ATOM     17  C25 UNL     1      -3.342  -9.584 -32.783  0.00  0.00    -0.050 A 
ATOM     18  C26 UNL     1      -4.523 -10.446 -33.114  0.00  0.00    +0.044 C 
ATOM     19  C27 UNL     1      -2.047 -10.099 -32.815  0.00  0.00    +0.005 A 
ATOM     20  C28 UNL     1      -0.948  -9.295 -32.479  0.00  0.00    +0.024 A 
ENDBRANCH   8  14
BRANCH   1  24
ATOM     21  C2  UNL     1       4.807  -0.241 -32.407  0.00  0.00    +0.120 A 
ATOM     22  C3  UNL     1       5.142  -1.583 -32.583  0.00  0.00    +0.046 A 
ATOM     23  C4  UNL     1       4.323  -2.588 -32.053  0.00  0.00    +0.012 A 
ATOM     24  C5  UNL     1       3.169  -2.263 -31.335  0.00  0.00    -0.020 A 
ATOM     25  C6  UNL     1       2.831  -0.917 -31.169  0.00  0.00    +0.012 A 
ATOM     26  C7  UNL     1       3.647   0.085 -31.701  0.00  0.00    +0.046 A 
BRANCH  21  28
ATOM     27  C1  UNL     1       6.931   0.706 -32.895  0.00  0.00    +0.277 C 
ATOM     28  O1  UNL     1       5.515   0.833 -32.870  0.00  0.00    -0.495 OA
ENDBRANCH  21  28
ENDBRANCH   1  24
BRANCH   2  29
ATOM     29  C10 UNL     1       3.488  -3.643 -28.579  0.00  0.00    -0.020 A 
ATOM     30  C11 UNL     1       4.690  -4.358 -28.582  0.00  0.00    +0.012 A 
ATOM     31  C12 UNL     1       5.672  -4.096 -27.624  0.00  0.00    +0.046 A 
ATOM     32  C13 UNL     1       5.475  -3.115 -26.650  0.00  0.00    +0.120 A 
ATOM     33  C15 UNL     1       4.280  -2.400 -26.641  0.00  0.00    +0.046 A 
ATOM     34  C16 UNL     1       3.291  -2.664 -27.598  0.00  0.00    +0.012 A 
BRANCH  32  35
ATOM     35  O2  UNL     1       6.515  -2.959 -25.777  0.00  0.00    -0.495 OA
ATOM     36  C14 UNL     1       7.656  -3.785 -25.979  0.00  0.00    +0.277 C 
ENDBRANCH  32  35
ENDBRANCH   2  29
BRANCH  11  37
ATOM     37  C31 UNL     1       0.514  -3.134 -32.630  0.00  0.00    -0.029 A 
ATOM     38  C32 UNL     1       1.080  -3.077 -33.918  0.00  0.00    +0.005 A 
ATOM     39  C33 UNL     1       0.522  -2.283 -34.923  0.00  0.00    +0.000 A 
ATOM     40  C34 UNL     1      -0.608  -1.518 -34.659  0.00  0.00    +0.000 A 
ATOM     41  C35 UNL     1      -1.174  -1.542 -33.390  0.00  0.00    +0.000 A 
ATOM     42  C36 UNL     1      -0.616  -2.337 -32.384  0.00  0.00    +0.005 A 
ENDBRANCH  11  37
BRANCH   3  43
ATOM     43  C37 UNL     1       1.028  -5.403 -28.039  0.00  0.00    -0.029 A 
ATOM     44  C38 UNL     1       1.726  -6.382 -27.313  0.00  0.00    +0.005 A 
ATOM     45  C39 UNL     1       1.393  -6.679 -25.989  0.00  0.00    +0.000 A 
ATOM     46  C40 UNL     1       0.364  -5.991 -25.355  0.00  0.00    +0.000 A 
ATOM     47  C41 UNL     1      -0.326  -5.000 -26.044  0.00  0.00    +0.000 A 
ATOM     48  C42 UNL     1       0.007  -4.705 -27.368  0.00  0.00    +0.005 A 
ENDBRANCH   3  43
TORSDOF 7
ENDMDL
MODEL 9
REMARK VINA RESULT:    -4.741      2.089      6.597
REMARK INTER + INTRA:         -11.530
REMARK INTER:                  -6.744
REMARK INTRA:                  -4.786
REMARK UNBOUND:                -4.848
REMARK  Name = /home/vital/Documents/PhD_2021/Malaria_codes/data/pdb_ligands_mmv/ligand_30.pdb
REMARK  10 active torsions:
REMARK  status: ('A' for Active; 'I' for Inactive)
REMARK    1  A    between atoms: C1_1  and  O1_2
REMARK    2  A    between atoms: O1_2  and  C2_3
REMARK    3  A    between atoms: C5_6  and  C8_9
REMARK    4  A    between atoms: C9_10  and  C10_11
REMARK    5  A    between atoms: C13_14  and  O2_15
REMARK    6  A    between atoms: O2_15  and  C14_16
REMARK    7  A    between atoms: C17_19  and  C37_43
REMARK    8  A    between atoms: N1_24  and  C22_27
REMARK    9  A    between atoms: C25_30  and  C26_31
REMARK   10  A    between atoms: C29_34  and  C31_37
REMARK                            x       y       z     vdW  Elec       q    Type
REMARK                         _______ _______ _______ _____ _____    ______ ____
ROOT
ATOM      1  C8  UNL     1       0.793  -5.313 -29.594  0.00  0.00    -0.017 C 
ATOM      2  C9  UNL     1       1.229  -4.964 -28.362  0.00  0.00    -0.017 C 
ATOM      3  C17 UNL     1       2.421  -4.006 -28.491  0.00  0.00    +0.093 C 
ATOM      4  C18 UNL     1       1.886  -2.688 -29.126  0.00  0.00    +0.111 C 
ATOM      5  C19 UNL     1       1.354  -3.096 -30.530  0.00  0.00    +0.111 C 
ATOM      6  C20 UNL     1       2.150  -2.238 -31.479  0.00  0.00    +0.232 C 
ATOM      7  O3  UNL     1       1.804  -2.099 -32.643  0.00  0.00    -0.274 OA
ATOM      8  N1  UNL     1       3.184  -1.632 -30.800  0.00  0.00    -0.210 N 
ATOM      9  C21 UNL     1       2.949  -1.664 -29.442  0.00  0.00    +0.232 C 
ATOM     10  O4  UNL     1       3.408  -0.943 -28.567  0.00  0.00    -0.274 OA
ATOM     11  C29 UNL     1       1.649  -4.621 -30.659  0.00  0.00    +0.093 C 
ATOM     12  C30 UNL     1       2.891  -4.607 -29.799  0.00  0.00    +0.164 C 
ATOM     13  O5  UNL     1       4.038  -4.859 -30.129  0.00  0.00    -0.295 OA
ENDROOT
BRANCH   8  14
ATOM     14  C22 UNL     1       4.234  -0.873 -31.424  0.00  0.00    +0.044 A 
ATOM     15  C23 UNL     1       4.015   0.421 -31.922  0.00  0.00    +0.024 A 
ATOM     16  C24 UNL     1       5.042   1.173 -32.514  0.00  0.00    +0.005 A 
ATOM     17  C25 UNL     1       6.335   0.663 -32.605  0.00  0.00    -0.050 A 
ATOM     18  C26 UNL     1       7.425   1.454 -33.262  0.00  0.00    +0.044 C 
ATOM     19  C27 UNL     1       6.577  -0.617 -32.109  0.00  0.00    +0.005 A 
ATOM     20  C28 UNL     1       5.547  -1.364 -31.519  0.00  0.00    +0.024 A 
ENDBRANCH   8  14
BRANCH   1  24
ATOM     21  C2  UNL     1      -2.647  -7.684 -30.514  0.00  0.00    +0.120 A 
ATOM     22  C3  UNL     1      -2.774  -6.308 -30.329  0.00  0.00    +0.046 A 
ATOM     23  C4  UNL     1      -1.647  -5.532 -30.031  0.00  0.00    +0.012 A 
ATOM     24  C5  UNL     1      -0.387  -6.122 -29.905  0.00  0.00    -0.020 A 
ATOM     25  C6  UNL     1      -0.262  -7.501 -30.101  0.00  0.00    +0.012 A 
ATOM     26  C7  UNL     1      -1.387  -8.274 -30.401  0.00  0.00    +0.046 A 
BRANCH  21  28
ATOM     27  C1  UNL     1      -4.981  -8.132 -30.489  0.00  0.00    +0.277 C 
ATOM     28  O1  UNL     1      -3.661  -8.554 -30.807  0.00  0.00    -0.495 OA
ENDBRANCH  21  28
ENDBRANCH   1  24
BRANCH   2  29
ATOM     29  C10 UNL     1       0.628  -5.348 -27.080  0.00  0.00    -0.020 A 
ATOM     30  C11 UNL     1       1.093  -6.471 -26.389  0.00  0.00    +0.012 A 
ATOM     31  C12 UNL     1       0.520  -6.841 -25.170  0.00  0.00    +0.046 A 
ATOM     32  C13 UNL     1      -0.523  -6.096 -24.618  0.00  0.00    +0.120 A 
ATOM     33  C15 UNL     1      -0.993  -4.977 -25.302  0.00  0.00    +0.046 A 
ATOM     34  C16 UNL     1      -0.422  -4.606 -26.527  0.00  0.00    +0.012 A 
BRANCH  32  35
ATOM     35  O2  UNL     1      -0.991  -6.566 -23.423  0.00  0.00    -0.495 OA
ATOM     36  C14 UNL     1      -1.267  -5.600 -22.415  0.00  0.00    +0.277 C 
ENDBRANCH  32  35
ENDBRANCH   2  29
BRANCH  11  37
ATOM     37  C31 UNL     1       1.682  -5.268 -32.020  0.00  0.00    -0.029 A 
ATOM     38  C32 UNL     1       0.667  -4.986 -32.953  0.00  0.00    +0.005 A 
ATOM     39  C33 UNL     1       0.645  -5.596 -34.210  0.00  0.00    +0.000 A 
ATOM     40  C34 UNL     1       1.630  -6.513 -34.557  0.00  0.00    +0.000 A 
ATOM     41  C35 UNL     1       2.633  -6.823 -33.645  0.00  0.00    +0.000 A 
ATOM     42  C36 UNL     1       2.656  -6.212 -32.388  0.00  0.00    +0.005 A 
ENDBRANCH  11  37
BRANCH   3  43
ATOM     43  C37 UNL     1       3.382  -4.010 -27.327  0.00  0.00    -0.029 A 
ATOM     44  C38 UNL     1       3.148  -3.222 -26.188  0.00  0.00    +0.005 A 
ATOM     45  C39 UNL     1       4.012  -3.258 -25.090  0.00  0.00    +0.000 A 
ATOM     46  C40 UNL     1       5.120  -4.097 -25.101  0.00  0.00    +0.000 A 
ATOM     47  C41 UNL     1       5.361  -4.905 -26.207  0.00  0.00    +0.000 A 
ATOM     48  C42 UNL     1       4.498  -4.866 -27.304  0.00  0.00    +0.005 A 
ENDBRANCH   3  43
TORSDOF 7
ENDMDL
