MODEL 1
REMARK VINA RESULT:    -4.677      0.000      0.000
REMARK INTER + INTRA:          -8.528
REMARK INTER:                  -6.590
REMARK INTRA:                  -1.938
REMARK UNBOUND:                -1.938
REMARK  Name = /home/vital/Documents/PhD_2021/Malaria_codes/data/pdb_ligands_mmv/ligand_100.pdb
REMARK  9 active torsions:
REMARK  status: ('A' for Active; 'I' for Inactive)
REMARK    1  A    between atoms: C1_1  and  C2_2
REMARK    2  A    between atoms: C2_2  and  N1_3
REMARK    3  A    between atoms: N1_3  and  C3_4
REMARK    4  A    between atoms: N1_3  and  C5_6
REMARK    5  A    between atoms: C3_4  and  C4_5
REMARK    6  A    between atoms: C5_6  and  C6_7
REMARK    7  A    between atoms: C6_7  and  C7_8
REMARK    8  A    between atoms: C7_8  and  N2_9
REMARK    9  A    between atoms: C9_12  and  C16_20
REMARK                            x       y       z     vdW  Elec       q    Type
REMARK                         _______ _______ _______ _____ _____    ______ ____
ROOT
ATOM      1  N2  UNL     1       2.773   6.087 -15.573  0.00  0.00    -0.328 N 
ATOM      2  C8  UNL     1       2.061   6.470 -16.735  0.00  0.00    +0.130 A 
ATOM      3  N3  UNL     1       2.697   7.182 -17.679  0.00  0.00    -0.212 NA
ATOM      4  C9  UNL     1       1.998   7.542 -18.767  0.00  0.00    +0.162 A 
ATOM      5  N4  UNL     1       0.706   7.242 -18.976  0.00  0.00    -0.227 NA
ATOM      6  C10 UNL     1       0.084   6.515 -18.046  0.00  0.00    +0.077 A 
ATOM      7  C11 UNL     1      -1.249   6.175 -18.248  0.00  0.00    +0.028 A 
ATOM      8  C12 UNL     1      -1.965   5.405 -17.326  0.00  0.00    +0.002 A 
ATOM      9  C13 UNL     1      -1.339   4.956 -16.171  0.00  0.00    +0.001 A 
ATOM     10  C14 UNL     1      -0.004   5.287 -15.946  0.00  0.00    +0.013 A 
ATOM     11  C15 UNL     1       0.718   6.077 -16.877  0.00  0.00    +0.040 A 
ATOM     12  H17 UNL     1       2.244   6.400 -14.763  0.00  0.00    +0.147 HD
ENDROOT
BRANCH   4  13
ATOM     13  C16 UNL     1       2.699   8.333 -19.802  0.00  0.00    +0.019 A 
ATOM     14  C17 UNL     1       3.456   9.475 -19.470  0.00  0.00    +0.013 A 
ATOM     15  C18 UNL     1       4.121  10.225 -20.447  0.00  0.00    +0.021 A 
ATOM     16  C19 UNL     1       4.039   9.846 -21.782  0.00  0.00    +0.041 A 
ATOM     17 CL1  UNL     1       4.854  10.765 -22.987  0.00  0.00    -0.084 Cl
ATOM     18  C20 UNL     1       3.300   8.726 -22.148  0.00  0.00    +0.021 A 
ATOM     19  C21 UNL     1       2.638   7.980 -21.166  0.00  0.00    +0.013 A 
ENDBRANCH   4  13
BRANCH   1  20
ATOM     20  C7  UNL     1       4.161   6.542 -15.522  0.00  0.00    +0.104 C 
BRANCH  20  21
ATOM     21  C6  UNL     1       5.093   5.435 -16.024  0.00  0.00    +0.034 C 
BRANCH  21  22
ATOM     22  C5  UNL     1       4.884   4.120 -15.255  0.00  0.00    +0.086 C 
BRANCH  22  23
ATOM     23  N1  UNL     1       3.612   3.413 -15.460  0.00  0.00    -0.303 NA
BRANCH  23  25
ATOM     24  C1  UNL     1       2.306   1.703 -16.707  0.00  0.00    +0.020 C 
ATOM     25  C2  UNL     1       3.446   2.717 -16.737  0.00  0.00    +0.081 C 
ENDBRANCH  23  25
BRANCH  23  26
ATOM     26  C3  UNL     1       3.152   2.637 -14.304  0.00  0.00    +0.081 C 
ATOM     27  C4  UNL     1       2.757   3.422 -13.061  0.00  0.00    +0.020 C 
ENDBRANCH  23  26
ENDBRANCH  22  23
ENDBRANCH  21  22
ENDBRANCH  20  21
ENDBRANCH   1  20
TORSDOF 7
ENDMDL
MODEL 2
REMARK VINA RESULT:    -4.579      8.439     11.458
REMARK INTER + INTRA:          -8.390
REMARK INTER:                  -6.487
REMARK INTRA:                  -1.904
REMARK UNBOUND:                -1.938
REMARK  Name = /home/vital/Documents/PhD_2021/Malaria_codes/data/pdb_ligands_mmv/ligand_100.pdb
REMARK  9 active torsions:
REMARK  status: ('A' for Active; 'I' for Inactive)
REMARK    1  A    between atoms: C1_1  and  C2_2
REMARK    2  A    between atoms: C2_2  and  N1_3
REMARK    3  A    between atoms: N1_3  and  C3_4
REMARK    4  A    between atoms: N1_3  and  C5_6
REMARK    5  A    between atoms: C3_4  and  C4_5
REMARK    6  A    between atoms: C5_6  and  C6_7
REMARK    7  A    between atoms: C6_7  and  C7_8
REMARK    8  A    between atoms: C7_8  and  N2_9
REMARK    9  A    between atoms: C9_12  and  C16_20
REMARK                            x       y       z     vdW  Elec       q    Type
REMARK                         _______ _______ _______ _____ _____    ______ ____
ROOT
ATOM      1  N2  UNL     1      -0.123  -3.524 -20.412  0.00  0.00    -0.328 N 
ATOM      2  C8  UNL     1       1.234  -3.150 -20.555  0.00  0.00    +0.130 A 
ATOM      3  N3  UNL     1       1.961  -3.712 -21.533  0.00  0.00    -0.212 NA
ATOM      4  C9  UNL     1       3.249  -3.348 -21.642  0.00  0.00    +0.162 A 
ATOM      5  N4  UNL     1       3.862  -2.464 -20.838  0.00  0.00    -0.227 NA
ATOM      6  C10 UNL     1       3.129  -1.891 -19.881  0.00  0.00    +0.077 A 
ATOM      7  C11 UNL     1       3.735  -0.957 -19.048  0.00  0.00    +0.028 A 
ATOM      8  C12 UNL     1       3.032  -0.306 -18.031  0.00  0.00    +0.002 A 
ATOM      9  C13 UNL     1       1.686  -0.585 -17.837  0.00  0.00    +0.001 A 
ATOM     10  C14 UNL     1       1.058  -1.518 -18.658  0.00  0.00    +0.013 A 
ATOM     11  C15 UNL     1       1.775  -2.188 -19.683  0.00  0.00    +0.040 A 
ATOM     12  H17 UNL     1      -0.267  -3.823 -19.450  0.00  0.00    +0.147 HD
ENDROOT
BRANCH   4  13
ATOM     13  C16 UNL     1       4.050  -3.973 -22.717  0.00  0.00    +0.019 A 
ATOM     14  C17 UNL     1       3.660  -3.889 -24.070  0.00  0.00    +0.013 A 
ATOM     15  C18 UNL     1       4.417  -4.478 -25.090  0.00  0.00    +0.021 A 
ATOM     16  C19 UNL     1       5.582  -5.169 -24.775  0.00  0.00    +0.041 A 
ATOM     17 CL1  UNL     1       6.514  -5.896 -26.024  0.00  0.00    -0.084 Cl
ATOM     18  C20 UNL     1       5.997  -5.274 -23.451  0.00  0.00    +0.021 A 
ATOM     19  C21 UNL     1       5.237  -4.681 -22.436  0.00  0.00    +0.013 A 
ENDBRANCH   4  13
BRANCH   1  20
ATOM     20  C7  UNL     1      -0.590  -4.527 -21.366  0.00  0.00    +0.104 C 
BRANCH  20  21
ATOM     21  C6  UNL     1      -2.120  -4.507 -21.441  0.00  0.00    +0.034 C 
BRANCH  21  22
ATOM     22  C5  UNL     1      -2.643  -3.209 -22.079  0.00  0.00    +0.086 C 
BRANCH  22  23
ATOM     23  N1  UNL     1      -2.513  -1.972 -21.295  0.00  0.00    -0.303 NA
BRANCH  23  25
ATOM     24  C1  UNL     1      -0.814  -0.250 -21.872  0.00  0.00    +0.020 C 
ATOM     25  C2  UNL     1      -2.248  -0.745 -22.046  0.00  0.00    +0.081 C 
ENDBRANCH  23  25
BRANCH  23  26
ATOM     26  C3  UNL     1      -3.519  -1.809 -20.241  0.00  0.00    +0.081 C 
ATOM     27  C4  UNL     1      -3.011  -1.424 -18.858  0.00  0.00    +0.020 C 
ENDBRANCH  23  26
ENDBRANCH  22  23
ENDBRANCH  21  22
ENDBRANCH  20  21
ENDBRANCH   1  20
TORSDOF 7
ENDMDL
MODEL 3
REMARK VINA RESULT:    -4.511     10.686     12.986
REMARK INTER + INTRA:          -8.294
REMARK INTER:                  -6.210
REMARK INTRA:                  -2.084
REMARK UNBOUND:                -1.938
REMARK  Name = /home/vital/Documents/PhD_2021/Malaria_codes/data/pdb_ligands_mmv/ligand_100.pdb
REMARK  9 active torsions:
REMARK  status: ('A' for Active; 'I' for Inactive)
REMARK    1  A    between atoms: C1_1  and  C2_2
REMARK    2  A    between atoms: C2_2  and  N1_3
REMARK    3  A    between atoms: N1_3  and  C3_4
REMARK    4  A    between atoms: N1_3  and  C5_6
REMARK    5  A    between atoms: C3_4  and  C4_5
REMARK    6  A    between atoms: C5_6  and  C6_7
REMARK    7  A    between atoms: C6_7  and  C7_8
REMARK    8  A    between atoms: C7_8  and  N2_9
REMARK    9  A    between atoms: C9_12  and  C16_20
REMARK                            x       y       z     vdW  Elec       q    Type
REMARK                         _______ _______ _______ _____ _____    ______ ____
ROOT
ATOM      1  N2  UNL     1       6.151  -5.159 -24.961  0.00  0.00    -0.328 N 
ATOM      2  C8  UNL     1       6.539  -4.116 -24.087  0.00  0.00    +0.130 A 
ATOM      3  N3  UNL     1       7.443  -3.219 -24.511  0.00  0.00    -0.212 NA
ATOM      4  C9  UNL     1       7.802  -2.244 -23.660  0.00  0.00    +0.162 A 
ATOM      5  N4  UNL     1       7.324  -2.106 -22.414  0.00  0.00    -0.227 NA
ATOM      6  C10 UNL     1       6.408  -2.987 -22.004  0.00  0.00    +0.077 A 
ATOM      7  C11 UNL     1       5.883  -2.854 -20.724  0.00  0.00    +0.028 A 
ATOM      8  C12 UNL     1       4.912  -3.729 -20.228  0.00  0.00    +0.002 A 
ATOM      9  C13 UNL     1       4.446  -4.764 -21.026  0.00  0.00    +0.001 A 
ATOM     10  C14 UNL     1       4.960  -4.919 -22.312  0.00  0.00    +0.013 A 
ATOM     11  C15 UNL     1       5.953  -4.037 -22.811  0.00  0.00    +0.040 A 
ATOM     12  H17 UNL     1       6.285  -6.043 -24.474  0.00  0.00    +0.147 HD
ENDROOT
BRANCH   4  13
ATOM     13  C16 UNL     1       8.804  -1.260 -24.127  0.00  0.00    +0.019 A 
ATOM     14  C17 UNL     1       9.612  -1.511 -25.256  0.00  0.00    +0.013 A 
ATOM     15  C18 UNL     1      10.559  -0.581 -25.701  0.00  0.00    +0.021 A 
ATOM     16  C19 UNL     1      10.720   0.621 -25.021  0.00  0.00    +0.041 A 
ATOM     17 CL1  UNL     1      11.884   1.766 -25.564  0.00  0.00    -0.084 Cl
ATOM     18  C20 UNL     1       9.941   0.902 -23.903  0.00  0.00    +0.021 A 
ATOM     19  C21 UNL     1       8.994  -0.031 -23.464  0.00  0.00    +0.013 A 
ENDBRANCH   4  13
BRANCH   1  20
ATOM     20  C7  UNL     1       6.815  -5.152 -26.263  0.00  0.00    +0.104 C 
BRANCH  20  21
ATOM     21  C6  UNL     1       5.824  -4.733 -27.353  0.00  0.00    +0.034 C 
BRANCH  21  22
ATOM     22  C5  UNL     1       4.402  -5.237 -27.057  0.00  0.00    +0.086 C 
BRANCH  22  23
ATOM     23  N1  UNL     1       3.620  -4.500 -26.054  0.00  0.00    -0.303 NA
BRANCH  23  25
ATOM     24  C1  UNL     1       3.337  -2.205 -25.140  0.00  0.00    +0.020 C 
ATOM     25  C2  UNL     1       3.294  -3.109 -26.369  0.00  0.00    +0.081 C 
ENDBRANCH  23  25
BRANCH  23  26
ATOM     26  C3  UNL     1       2.497  -5.251 -25.484  0.00  0.00    +0.081 C 
ATOM     27  C4  UNL     1       1.959  -6.414 -26.307  0.00  0.00    +0.020 C 
ENDBRANCH  23  26
ENDBRANCH  22  23
ENDBRANCH  21  22
ENDBRANCH  20  21
ENDBRANCH   1  20
TORSDOF 7
ENDMDL
MODEL 4
REMARK VINA RESULT:    -4.386      3.835      7.403
REMARK INTER + INTRA:          -8.119
REMARK INTER:                  -5.966
REMARK INTRA:                  -2.153
REMARK UNBOUND:                -1.938
REMARK  Name = /home/vital/Documents/PhD_2021/Malaria_codes/data/pdb_ligands_mmv/ligand_100.pdb
REMARK  9 active torsions:
REMARK  status: ('A' for Active; 'I' for Inactive)
REMARK    1  A    between atoms: C1_1  and  C2_2
REMARK    2  A    between atoms: C2_2  and  N1_3
REMARK    3  A    between atoms: N1_3  and  C3_4
REMARK    4  A    between atoms: N1_3  and  C5_6
REMARK    5  A    between atoms: C3_4  and  C4_5
REMARK    6  A    between atoms: C5_6  and  C6_7
REMARK    7  A    between atoms: C6_7  and  C7_8
REMARK    8  A    between atoms: C7_8  and  N2_9
REMARK    9  A    between atoms: C9_12  and  C16_20
REMARK                            x       y       z     vdW  Elec       q    Type
REMARK                         _______ _______ _______ _____ _____    ______ ____
ROOT
ATOM      1  N2  UNL     1       0.134   4.385 -17.168  0.00  0.00    -0.328 N 
ATOM      2  C8  UNL     1       1.047   3.420 -16.681  0.00  0.00    +0.130 A 
ATOM      3  N3  UNL     1       1.281   2.321 -17.416  0.00  0.00    -0.212 NA
ATOM      4  C9  UNL     1       2.145   1.416 -16.929  0.00  0.00    +0.162 A 
ATOM      5  N4  UNL     1       2.787   1.531 -15.755  0.00  0.00    -0.227 NA
ATOM      6  C10 UNL     1       2.569   2.636 -15.039  0.00  0.00    +0.077 A 
ATOM      7  C11 UNL     1       3.237   2.788 -13.829  0.00  0.00    +0.028 A 
ATOM      8  C12 UNL     1       3.071   3.921 -13.028  0.00  0.00    +0.002 A 
ATOM      9  C13 UNL     1       2.219   4.936 -13.441  0.00  0.00    +0.001 A 
ATOM     10  C14 UNL     1       1.536   4.805 -14.649  0.00  0.00    +0.013 A 
ATOM     11  C15 UNL     1       1.697   3.649 -15.455  0.00  0.00    +0.040 A 
ATOM     12  H17 UNL     1      -0.562   4.552 -16.445  0.00  0.00    +0.147 HD
ENDROOT
BRANCH   4  13
ATOM     13  C16 UNL     1       2.396   0.203 -17.737  0.00  0.00    +0.019 A 
ATOM     14  C17 UNL     1       1.446  -0.837 -17.820  0.00  0.00    +0.013 A 
ATOM     15  C18 UNL     1       1.681  -1.986 -18.584  0.00  0.00    +0.021 A 
ATOM     16  C19 UNL     1       2.877  -2.119 -19.281  0.00  0.00    +0.041 A 
ATOM     17 CL1  UNL     1       3.170  -3.530 -20.222  0.00  0.00    -0.084 Cl
ATOM     18  C20 UNL     1       3.837  -1.115 -19.222  0.00  0.00    +0.021 A 
ATOM     19  C21 UNL     1       3.596   0.032 -18.457  0.00  0.00    +0.013 A 
ENDBRANCH   4  13
BRANCH   1  20
ATOM     20  C7  UNL     1      -0.487   4.056 -18.450  0.00  0.00    +0.104 C 
BRANCH  20  21
ATOM     21  C6  UNL     1      -0.471   5.281 -19.369  0.00  0.00    +0.034 C 
BRANCH  21  22
ATOM     22  C5  UNL     1       0.963   5.739 -19.684  0.00  0.00    +0.086 C 
BRANCH  22  23
ATOM     23  N1  UNL     1       1.782   6.214 -18.559  0.00  0.00    -0.303 NA
BRANCH  23  25
ATOM     24  C1  UNL     1       3.495   4.562 -19.278  0.00  0.00    +0.020 C 
ATOM     25  C2  UNL     1       3.211   5.906 -18.613  0.00  0.00    +0.081 C 
ENDBRANCH  23  25
BRANCH  23  26
ATOM     26  C3  UNL     1       1.494   7.587 -18.131  0.00  0.00    +0.081 C 
ATOM     27  C4  UNL     1       1.698   7.906 -16.657  0.00  0.00    +0.020 C 
ENDBRANCH  23  26
ENDBRANCH  22  23
ENDBRANCH  21  22
ENDBRANCH  20  21
ENDBRANCH   1  20
TORSDOF 7
ENDMDL
MODEL 5
REMARK VINA RESULT:    -4.357     10.037     12.079
REMARK INTER + INTRA:          -8.078
REMARK INTER:                  -5.987
REMARK INTRA:                  -2.091
REMARK UNBOUND:                -1.938
REMARK  Name = /home/vital/Documents/PhD_2021/Malaria_codes/data/pdb_ligands_mmv/ligand_100.pdb
REMARK  9 active torsions:
REMARK  status: ('A' for Active; 'I' for Inactive)
REMARK    1  A    between atoms: C1_1  and  C2_2
REMARK    2  A    between atoms: C2_2  and  N1_3
REMARK    3  A    between atoms: N1_3  and  C3_4
REMARK    4  A    between atoms: N1_3  and  C5_6
REMARK    5  A    between atoms: C3_4  and  C4_5
REMARK    6  A    between atoms: C5_6  and  C6_7
REMARK    7  A    between atoms: C6_7  and  C7_8
REMARK    8  A    between atoms: C7_8  and  N2_9
REMARK    9  A    between atoms: C9_12  and  C16_20
REMARK                            x       y       z     vdW  Elec       q    Type
REMARK                         _______ _______ _______ _____ _____    ______ ____
ROOT
ATOM      1  N2  UNL     1       6.851  -2.674 -21.882  0.00  0.00    -0.328 N 
ATOM      2  C8  UNL     1       7.488  -2.562 -23.141  0.00  0.00    +0.130 A 
ATOM      3  N3  UNL     1       8.351  -1.554 -23.343  0.00  0.00    -0.212 NA
ATOM      4  C9  UNL     1       8.935  -1.464 -24.548  0.00  0.00    +0.162 A 
ATOM      5  N4  UNL     1       8.713  -2.309 -25.568  0.00  0.00    -0.227 NA
ATOM      6  C10 UNL     1       7.871  -3.323 -25.355  0.00  0.00    +0.077 A 
ATOM      7  C11 UNL     1       7.639  -4.223 -26.389  0.00  0.00    +0.028 A 
ATOM      8  C12 UNL     1       6.781  -5.316 -26.240  0.00  0.00    +0.002 A 
ATOM      9  C13 UNL     1       6.136  -5.525 -25.029  0.00  0.00    +0.001 A 
ATOM     10  C14 UNL     1       6.352  -4.635 -23.979  0.00  0.00    +0.013 A 
ATOM     11  C15 UNL     1       7.214  -3.519 -24.135  0.00  0.00    +0.040 A 
ATOM     12  H17 UNL     1       5.847  -2.716 -22.041  0.00  0.00    +0.147 HD
ENDROOT
BRANCH   4  13
ATOM     13  C16 UNL     1       9.882  -0.349 -24.771  0.00  0.00    +0.019 A 
ATOM     14  C17 UNL     1      10.812  -0.374 -25.831  0.00  0.00    +0.013 A 
ATOM     15  C18 UNL     1      11.709   0.680 -26.044  0.00  0.00    +0.021 A 
ATOM     16  C19 UNL     1      11.693   1.783 -25.197  0.00  0.00    +0.041 A 
ATOM     17 CL1  UNL     1      12.793   3.080 -25.456  0.00  0.00    -0.084 Cl
ATOM     18  C20 UNL     1      10.790   1.841 -24.141  0.00  0.00    +0.021 A 
ATOM     19  C21 UNL     1       9.896   0.785 -23.933  0.00  0.00    +0.013 A 
ENDBRANCH   4  13
BRANCH   1  20
ATOM     20  C7  UNL     1       7.203  -1.633 -20.918  0.00  0.00    +0.104 C 
BRANCH  20  21
ATOM     21  C6  UNL     1       5.941  -0.896 -20.460  0.00  0.00    +0.034 C 
BRANCH  21  22
ATOM     22  C5  UNL     1       4.805  -1.872 -20.110  0.00  0.00    +0.086 C 
BRANCH  22  23
ATOM     23  N1  UNL     1       4.129  -2.549 -21.227  0.00  0.00    -0.303 NA
BRANCH  23  25
ATOM     24  C1  UNL     1       4.304  -4.782 -20.149  0.00  0.00    +0.020 C 
ATOM     25  C2  UNL     1       3.427  -3.793 -20.911  0.00  0.00    +0.081 C 
ENDBRANCH  23  25
BRANCH  23  26
ATOM     26  C3  UNL     1       3.374  -1.657 -22.113  0.00  0.00    +0.081 C 
ATOM     27  C4  UNL     1       3.661  -1.765 -23.605  0.00  0.00    +0.020 C 
ENDBRANCH  23  26
ENDBRANCH  22  23
ENDBRANCH  21  22
ENDBRANCH  20  21
ENDBRANCH   1  20
TORSDOF 7
ENDMDL
MODEL 6
REMARK VINA RESULT:    -4.207      8.277     11.382
REMARK INTER + INTRA:          -7.866
REMARK INTER:                  -5.607
REMARK INTRA:                  -2.260
REMARK UNBOUND:                -1.938
REMARK  Name = /home/vital/Documents/PhD_2021/Malaria_codes/data/pdb_ligands_mmv/ligand_100.pdb
REMARK  9 active torsions:
REMARK  status: ('A' for Active; 'I' for Inactive)
REMARK    1  A    between atoms: C1_1  and  C2_2
REMARK    2  A    between atoms: C2_2  and  N1_3
REMARK    3  A    between atoms: N1_3  and  C3_4
REMARK    4  A    between atoms: N1_3  and  C5_6
REMARK    5  A    between atoms: C3_4  and  C4_5
REMARK    6  A    between atoms: C5_6  and  C6_7
REMARK    7  A    between atoms: C6_7  and  C7_8
REMARK    8  A    between atoms: C7_8  and  N2_9
REMARK    9  A    between atoms: C9_12  and  C16_20
REMARK                            x       y       z     vdW  Elec       q    Type
REMARK                         _______ _______ _______ _____ _____    ______ ____
ROOT
ATOM      1  N2  UNL     1      -2.410  -1.106 -23.942  0.00  0.00    -0.328 N 
ATOM      2  C8  UNL     1      -1.795  -1.892 -22.939  0.00  0.00    +0.130 A 
ATOM      3  N3  UNL     1      -1.062  -1.280 -21.996  0.00  0.00    -0.212 NA
ATOM      4  C9  UNL     1      -0.480  -2.048 -21.061  0.00  0.00    +0.162 A 
ATOM      5  N4  UNL     1      -0.576  -3.386 -21.006  0.00  0.00    -0.227 NA
ATOM      6  C10 UNL     1      -1.324  -3.988 -21.933  0.00  0.00    +0.077 A 
ATOM      7  C11 UNL     1      -1.455  -5.372 -21.886  0.00  0.00    +0.028 A 
ATOM      8  C12 UNL     1      -2.230  -6.073 -22.814  0.00  0.00    +0.002 A 
ATOM      9  C13 UNL     1      -2.899  -5.383 -23.815  0.00  0.00    +0.001 A 
ATOM     10  C14 UNL     1      -2.780  -3.996 -23.883  0.00  0.00    +0.013 A 
ATOM     11  C15 UNL     1      -1.984  -3.286 -22.948  0.00  0.00    +0.040 A 
ATOM     12  H17 UNL     1      -2.132  -1.477 -24.848  0.00  0.00    +0.147 HD
ENDROOT
BRANCH   4  13
ATOM     13  C16 UNL     1       0.332  -1.372 -20.025  0.00  0.00    +0.019 A 
ATOM     14  C17 UNL     1       0.188   0.006 -19.760  0.00  0.00    +0.013 A 
ATOM     15  C18 UNL     1       0.955   0.648 -18.780  0.00  0.00    +0.021 A 
ATOM     16  C19 UNL     1       1.885  -0.078 -18.045  0.00  0.00    +0.041 A 
ATOM     17 CL1  UNL     1       2.830   0.708 -16.841  0.00  0.00    -0.084 Cl
ATOM     18  C20 UNL     1       2.055  -1.438 -18.280  0.00  0.00    +0.021 A 
ATOM     19  C21 UNL     1       1.285  -2.075 -19.260  0.00  0.00    +0.013 A 
ENDBRANCH   4  13
BRANCH   1  20
ATOM     20  C7  UNL     1      -2.155   0.330 -23.845  0.00  0.00    +0.104 C 
BRANCH  20  21
ATOM     21  C6  UNL     1      -3.478   1.101 -23.883  0.00  0.00    +0.034 C 
BRANCH  21  22
ATOM     22  C5  UNL     1      -4.230   1.010 -22.545  0.00  0.00    +0.086 C 
BRANCH  22  23
ATOM     23  N1  UNL     1      -4.688  -0.321 -22.117  0.00  0.00    -0.303 NA
BRANCH  23  25
ATOM     24  C1  UNL     1      -3.697   0.338 -19.934  0.00  0.00    +0.020 C 
ATOM     25  C2  UNL     1      -4.640  -0.600 -20.681  0.00  0.00    +0.081 C 
ENDBRANCH  23  25
BRANCH  23  26
ATOM     26  C3  UNL     1      -5.921  -0.779 -22.764  0.00  0.00    +0.081 C 
ATOM     27  C4  UNL     1      -6.244  -2.263 -22.658  0.00  0.00    +0.020 C 
ENDBRANCH  23  26
ENDBRANCH  22  23
ENDBRANCH  21  22
ENDBRANCH  20  21
ENDBRANCH   1  20
TORSDOF 7
ENDMDL
MODEL 7
REMARK VINA RESULT:    -4.152     16.844     19.201
REMARK INTER + INTRA:          -7.788
REMARK INTER:                  -5.573
REMARK INTRA:                  -2.216
REMARK UNBOUND:                -1.938
REMARK  Name = /home/vital/Documents/PhD_2021/Malaria_codes/data/pdb_ligands_mmv/ligand_100.pdb
REMARK  9 active torsions:
REMARK  status: ('A' for Active; 'I' for Inactive)
REMARK    1  A    between atoms: C1_1  and  C2_2
REMARK    2  A    between atoms: C2_2  and  N1_3
REMARK    3  A    between atoms: N1_3  and  C3_4
REMARK    4  A    between atoms: N1_3  and  C5_6
REMARK    5  A    between atoms: C3_4  and  C4_5
REMARK    6  A    between atoms: C5_6  and  C6_7
REMARK    7  A    between atoms: C6_7  and  C7_8
REMARK    8  A    between atoms: C7_8  and  N2_9
REMARK    9  A    between atoms: C9_12  and  C16_20
REMARK                            x       y       z     vdW  Elec       q    Type
REMARK                         _______ _______ _______ _____ _____    ______ ____
ROOT
ATOM      1  N2  UNL     1       3.076  -6.148 -32.766  0.00  0.00    -0.328 N 
ATOM      2  C8  UNL     1       2.067  -6.686 -31.931  0.00  0.00    +0.130 A 
ATOM      3  N3  UNL     1       1.944  -6.215 -30.680  0.00  0.00    -0.212 NA
ATOM      4  C9  UNL     1       0.986  -6.748 -29.904  0.00  0.00    +0.162 A 
ATOM      5  N4  UNL     1       0.145  -7.721 -30.291  0.00  0.00    -0.227 NA
ATOM      6  C10 UNL     1       0.257  -8.169 -31.543  0.00  0.00    +0.077 A 
ATOM      7  C11 UNL     1      -0.615  -9.163 -31.974  0.00  0.00    +0.028 A 
ATOM      8  C12 UNL     1      -0.568  -9.675 -33.274  0.00  0.00    +0.002 A 
ATOM      9  C13 UNL     1       0.367  -9.185 -34.174  0.00  0.00    +0.001 A 
ATOM     10  C14 UNL     1       1.253  -8.191 -33.764  0.00  0.00    +0.013 A 
ATOM     11  C15 UNL     1       1.213  -7.679 -32.441  0.00  0.00    +0.040 A 
ATOM     12  H17 UNL     1       3.634  -6.921 -33.122  0.00  0.00    +0.147 HD
ENDROOT
BRANCH   4  13
ATOM     13  C16 UNL     1       0.856  -6.233 -28.523  0.00  0.00    +0.019 A 
ATOM     14  C17 UNL     1      -0.354  -6.345 -27.807  0.00  0.00    +0.013 A 
ATOM     15  C18 UNL     1      -0.481  -5.860 -26.500  0.00  0.00    +0.021 A 
ATOM     16  C19 UNL     1       0.604  -5.248 -25.883  0.00  0.00    +0.041 A 
ATOM     17 CL1  UNL     1       0.453  -4.649 -24.277  0.00  0.00    -0.084 Cl
ATOM     18  C20 UNL     1       1.813  -5.118 -26.559  0.00  0.00    +0.021 A 
ATOM     19  C21 UNL     1       1.933  -5.606 -27.865  0.00  0.00    +0.013 A 
ENDBRANCH   4  13
BRANCH   1  20
ATOM     20  C7  UNL     1       3.909  -5.121 -32.144  0.00  0.00    +0.104 C 
BRANCH  20  21
ATOM     21  C6  UNL     1       4.067  -3.930 -33.093  0.00  0.00    +0.034 C 
BRANCH  21  22
ATOM     22  C5  UNL     1       2.922  -2.916 -32.933  0.00  0.00    +0.086 C 
BRANCH  22  23
ATOM     23  N1  UNL     1       1.555  -3.396 -33.184  0.00  0.00    -0.303 NA
BRANCH  23  25
ATOM     24  C1  UNL     1       1.075  -2.793 -30.820  0.00  0.00    +0.020 C 
ATOM     25  C2  UNL     1       0.527  -2.973 -32.232  0.00  0.00    +0.081 C 
ENDBRANCH  23  25
BRANCH  23  26
ATOM     26  C3  UNL     1       1.128  -3.317 -34.584  0.00  0.00    +0.081 C 
ATOM     27  C4  UNL     1       0.964  -4.635 -35.329  0.00  0.00    +0.020 C 
ENDBRANCH  23  26
ENDBRANCH  22  23
ENDBRANCH  21  22
ENDBRANCH  20  21
ENDBRANCH   1  20
TORSDOF 7
ENDMDL
MODEL 8
REMARK VINA RESULT:    -4.126      5.729      8.000
REMARK INTER + INTRA:          -7.753
REMARK INTER:                  -6.233
REMARK INTRA:                  -1.520
REMARK UNBOUND:                -1.938
REMARK  Name = /home/vital/Documents/PhD_2021/Malaria_codes/data/pdb_ligands_mmv/ligand_100.pdb
REMARK  9 active torsions:
REMARK  status: ('A' for Active; 'I' for Inactive)
REMARK    1  A    between atoms: C1_1  and  C2_2
REMARK    2  A    between atoms: C2_2  and  N1_3
REMARK    3  A    between atoms: N1_3  and  C3_4
REMARK    4  A    between atoms: N1_3  and  C5_6
REMARK    5  A    between atoms: C3_4  and  C4_5
REMARK    6  A    between atoms: C5_6  and  C6_7
REMARK    7  A    between atoms: C6_7  and  C7_8
REMARK    8  A    between atoms: C7_8  and  N2_9
REMARK    9  A    between atoms: C9_12  and  C16_20
REMARK                            x       y       z     vdW  Elec       q    Type
REMARK                         _______ _______ _______ _____ _____    ______ ____
ROOT
ATOM      1  N2  UNL     1       0.705   2.777 -20.262  0.00  0.00    -0.328 N 
ATOM      2  C8  UNL     1      -0.682   2.830 -19.985  0.00  0.00    +0.130 A 
ATOM      3  N3  UNL     1      -1.487   1.903 -20.528  0.00  0.00    -0.212 NA
ATOM      4  C9  UNL     1      -2.800   1.979 -20.258  0.00  0.00    +0.162 A 
ATOM      5  N4  UNL     1      -3.365   2.921 -19.485  0.00  0.00    -0.227 NA
ATOM      6  C10 UNL     1      -2.558   3.827 -18.929  0.00  0.00    +0.077 A 
ATOM      7  C11 UNL     1      -3.116   4.802 -18.110  0.00  0.00    +0.028 A 
ATOM      8  C12 UNL     1      -2.337   5.777 -17.482  0.00  0.00    +0.002 A 
ATOM      9  C13 UNL     1      -0.961   5.785 -17.669  0.00  0.00    +0.001 A 
ATOM     10  C14 UNL     1      -0.380   4.819 -18.489  0.00  0.00    +0.013 A 
ATOM     11  C15 UNL     1      -1.173   3.837 -19.134  0.00  0.00    +0.040 A 
ATOM     12  H17 UNL     1       0.989   3.687 -20.619  0.00  0.00    +0.147 HD
ENDROOT
BRANCH   4  13
ATOM     13  C16 UNL     1      -3.686   0.961 -20.862  0.00  0.00    +0.019 A 
ATOM     14  C17 UNL     1      -4.074   1.033 -22.217  0.00  0.00    +0.013 A 
ATOM     15  C18 UNL     1      -4.912   0.070 -22.792  0.00  0.00    +0.021 A 
ATOM     16  C19 UNL     1      -5.381  -0.987 -22.020  0.00  0.00    +0.041 A 
ATOM     17 CL1  UNL     1      -6.411  -2.172 -22.723  0.00  0.00    -0.084 Cl
ATOM     18  C20 UNL     1      -5.020  -1.090 -20.681  0.00  0.00    +0.021 A 
ATOM     19  C21 UNL     1      -4.182  -0.125 -20.112  0.00  0.00    +0.013 A 
ENDBRANCH   4  13
BRANCH   1  20
ATOM     20  C7  UNL     1       1.115   1.694 -21.154  0.00  0.00    +0.104 C 
BRANCH  20  21
ATOM     21  C6  UNL     1       2.554   1.274 -20.839  0.00  0.00    +0.034 C 
BRANCH  21  22
ATOM     22  C5  UNL     1       2.940   1.603 -19.388  0.00  0.00    +0.086 C 
BRANCH  22  23
ATOM     23  N1  UNL     1       2.129   0.998 -18.320  0.00  0.00    -0.303 NA
BRANCH  23  25
ATOM     24  C1  UNL     1       1.133  -1.279 -18.290  0.00  0.00    +0.020 C 
ATOM     25  C2  UNL     1       2.367  -0.417 -18.038  0.00  0.00    +0.081 C 
ENDBRANCH  23  25
BRANCH  23  26
ATOM     26  C3  UNL     1       1.996   1.823 -17.115  0.00  0.00    +0.081 C 
ATOM     27  C4  UNL     1       3.176   1.832 -16.153  0.00  0.00    +0.020 C 
ENDBRANCH  23  26
ENDBRANCH  22  23
ENDBRANCH  21  22
ENDBRANCH  20  21
ENDBRANCH   1  20
TORSDOF 7
ENDMDL
MODEL 9
REMARK VINA RESULT:    -3.717     13.480     16.449
REMARK INTER + INTRA:          -7.176
REMARK INTER:                  -4.956
REMARK INTRA:                  -2.221
REMARK UNBOUND:                -1.938
REMARK  Name = /home/vital/Documents/PhD_2021/Malaria_codes/data/pdb_ligands_mmv/ligand_100.pdb
REMARK  9 active torsions:
REMARK  status: ('A' for Active; 'I' for Inactive)
REMARK    1  A    between atoms: C1_1  and  C2_2
REMARK    2  A    between atoms: C2_2  and  N1_3
REMARK    3  A    between atoms: N1_3  and  C3_4
REMARK    4  A    between atoms: N1_3  and  C5_6
REMARK    5  A    between atoms: C3_4  and  C4_5
REMARK    6  A    between atoms: C5_6  and  C6_7
REMARK    7  A    between atoms: C6_7  and  C7_8
REMARK    8  A    between atoms: C7_8  and  N2_9
REMARK    9  A    between atoms: C9_12  and  C16_20
REMARK                            x       y       z     vdW  Elec       q    Type
REMARK                         _______ _______ _______ _____ _____    ______ ____
ROOT
ATOM      1  N2  UNL     1       0.333   6.171 -31.394  0.00  0.00    -0.328 N 
ATOM      2  C8  UNL     1       1.199   6.021 -32.503  0.00  0.00    +0.130 A 
ATOM      3  N3  UNL     1       2.134   5.057 -32.469  0.00  0.00    -0.212 NA
ATOM      4  C9  UNL     1       2.950   4.941 -33.529  0.00  0.00    +0.162 A 
ATOM      5  N4  UNL     1       2.900   5.724 -34.619  0.00  0.00    -0.227 NA
ATOM      6  C10 UNL     1       1.955   6.666 -34.658  0.00  0.00    +0.077 A 
ATOM      7  C11 UNL     1       1.870   7.477 -35.783  0.00  0.00    +0.028 A 
ATOM      8  C12 UNL     1       0.901   8.477 -35.904  0.00  0.00    +0.002 A 
ATOM      9  C13 UNL     1      -0.013   8.677 -34.879  0.00  0.00    +0.001 A 
ATOM     10  C14 UNL     1       0.054   7.877 -33.740  0.00  0.00    +0.013 A 
ATOM     11  C15 UNL     1       1.045   6.870 -33.614  0.00  0.00    +0.040 A 
ATOM     12  H17 UNL     1       0.381   7.139 -31.086  0.00  0.00    +0.147 HD
ENDROOT
BRANCH   4  13
ATOM     13  C16 UNL     1       3.982   3.882 -33.487  0.00  0.00    +0.019 A 
ATOM     14  C17 UNL     1       3.913   2.822 -32.559  0.00  0.00    +0.013 A 
ATOM     15  C18 UNL     1       4.888   1.819 -32.517  0.00  0.00    +0.021 A 
ATOM     16  C19 UNL     1       5.957   1.857 -33.405  0.00  0.00    +0.041 A 
ATOM     17 CL1  UNL     1       7.158   0.626 -33.357  0.00  0.00    -0.084 Cl
ATOM     18  C20 UNL     1       6.059   2.888 -34.334  0.00  0.00    +0.021 A 
ATOM     19  C21 UNL     1       5.080   3.888 -34.371  0.00  0.00    +0.013 A 
ENDBRANCH   4  13
BRANCH   1  20
ATOM     20  C7  UNL     1       0.573   5.241 -30.293  0.00  0.00    +0.104 C 
BRANCH  20  21
ATOM     21  C6  UNL     1      -0.754   4.653 -29.804  0.00  0.00    +0.034 C 
BRANCH  21  22
ATOM     22  C5  UNL     1      -1.376   3.706 -30.844  0.00  0.00    +0.086 C 
BRANCH  22  23
ATOM     23  N1  UNL     1      -1.816   4.297 -32.117  0.00  0.00    -0.303 NA
BRANCH  23  25
ATOM     24  C1  UNL     1      -0.439   2.720 -33.459  0.00  0.00    +0.020 C 
ATOM     25  C2  UNL     1      -1.783   3.424 -33.290  0.00  0.00    +0.081 C 
ENDBRANCH  23  25
BRANCH  23  26
ATOM     26  C3  UNL     1      -3.033   5.109 -32.024  0.00  0.00    +0.081 C 
ATOM     27  C4  UNL     1      -3.456   5.862 -33.278  0.00  0.00    +0.020 C 
ENDBRANCH  23  26
ENDBRANCH  22  23
ENDBRANCH  21  22
ENDBRANCH  20  21
ENDBRANCH   1  20
TORSDOF 7
ENDMDL
