MODEL 1
REMARK VINA RESULT:    -4.262      0.000      0.000
REMARK INTER + INTRA:          -4.613
REMARK INTER:                  -4.511
REMARK INTRA:                  -0.102
REMARK UNBOUND:                -0.102
REMARK  Name = /home/vital/Documents/PhD_2021/Malaria_codes/data/pdb_ligands_mmv/ligand_239.pdb
REMARK  3 active torsions:
REMARK  status: ('A' for Active; 'I' for Inactive)
REMARK    1  A    between atoms: C1_1  and  O1_2
REMARK    2  A    between atoms: O1_2  and  C2_3
REMARK    3  A    between atoms: C7_11  and  C8_12
REMARK                            x       y       z     vdW  Elec       q    Type
REMARK                         _______ _______ _______ _____ _____    ______ ____
ROOT
ATOM      1  C2  UNL     1       3.920  10.070 -19.680  0.00  0.00    +0.121 A 
ATOM      2  C3  UNL     1       3.979  10.494 -18.358  0.00  0.00    +0.048 A 
ATOM      3  C4  UNL     1       3.253   9.812 -17.374  0.00  0.00    +0.032 A 
ATOM      4  C5  UNL     1       2.460   8.709 -17.669  0.00  0.00    +0.077 A 
ATOM      5  N1  UNL     1       1.796   8.109 -16.675  0.00  0.00    -0.215 NA
ATOM      6  C6  UNL     1       1.032   7.065 -16.991  0.00  0.00    +0.213 A 
ATOM      7  N2  UNL     1       0.359   6.435 -15.965  0.00  0.00    -0.327 N 
ATOM      8  N3  UNL     1       0.907   6.548 -18.212  0.00  0.00    -0.219 NA
ATOM      9  C7  UNL     1       1.581   7.159 -19.212  0.00  0.00    +0.051 A 
ATOM     10  C8  UNL     1       1.400   6.558 -20.575  0.00  0.00    +0.066 C 
ATOM     11  C9  UNL     1       2.397   8.276 -18.997  0.00  0.00    +0.025 A 
ATOM     12  C10 UNL     1       3.131   8.964 -19.996  0.00  0.00    +0.057 A 
ATOM     13  H6  UNL     1       0.835   6.607 -15.091  0.00  0.00    +0.145 HD
ATOM     14  H7  UNL     1       0.182   5.474 -16.218  0.00  0.00    +0.145 HD
ENDROOT
BRANCH   1  16
ATOM     15  C1  UNL     1       4.100  10.290 -22.038  0.00  0.00    +0.277 C 
ATOM     16  O1  UNL     1       4.571  10.633 -20.740  0.00  0.00    -0.495 OA
ENDBRANCH   1  16
TORSDOF 1
ENDMDL
MODEL 2
REMARK VINA RESULT:    -4.200      1.075      2.717
REMARK INTER + INTRA:          -4.547
REMARK INTER:                  -4.483
REMARK INTRA:                  -0.065
REMARK UNBOUND:                -0.102
REMARK  Name = /home/vital/Documents/PhD_2021/Malaria_codes/data/pdb_ligands_mmv/ligand_239.pdb
REMARK  3 active torsions:
REMARK  status: ('A' for Active; 'I' for Inactive)
REMARK    1  A    between atoms: C1_1  and  O1_2
REMARK    2  A    between atoms: O1_2  and  C2_3
REMARK    3  A    between atoms: C7_11  and  C8_12
REMARK                            x       y       z     vdW  Elec       q    Type
REMARK                         _______ _______ _______ _____ _____    ______ ____
ROOT
ATOM      1  C2  UNL     1       3.692   9.401 -21.135  0.00  0.00    +0.121 A 
ATOM      2  C3  UNL     1       2.965   8.258 -21.441  0.00  0.00    +0.048 A 
ATOM      3  C4  UNL     1       2.262   7.588 -20.432  0.00  0.00    +0.032 A 
ATOM      4  C5  UNL     1       2.262   8.026 -19.113  0.00  0.00    +0.077 A 
ATOM      5  N1  UNL     1       1.565   7.334 -18.205  0.00  0.00    -0.215 NA
ATOM      6  C6  UNL     1       1.597   7.769 -16.946  0.00  0.00    +0.213 A 
ATOM      7  N2  UNL     1       0.867   7.066 -16.010  0.00  0.00    -0.327 N 
ATOM      8  N3  UNL     1       2.236   8.860 -16.527  0.00  0.00    -0.219 NA
ATOM      9  C7  UNL     1       2.937   9.555 -17.451  0.00  0.00    +0.051 A 
ATOM     10  C8  UNL     1       3.658  10.767 -16.938  0.00  0.00    +0.066 C 
ATOM     11  C9  UNL     1       2.990   9.178 -18.798  0.00  0.00    +0.025 A 
ATOM     12  C10 UNL     1       3.703   9.858 -19.817  0.00  0.00    +0.057 A 
ATOM     13  H6  UNL     1       0.119   6.565 -16.470  0.00  0.00    +0.145 HD
ATOM     14  H7  UNL     1       0.619   7.678 -15.247  0.00  0.00    +0.145 HD
ENDROOT
BRANCH   1  16
ATOM     15  C1  UNL     1       4.158   9.965 -23.395  0.00  0.00    +0.277 C 
ATOM     16  O1  UNL     1       4.421  10.155 -22.010  0.00  0.00    -0.495 OA
ENDBRANCH   1  16
TORSDOF 1
ENDMDL
MODEL 3
REMARK VINA RESULT:    -4.049      3.397      5.269
REMARK INTER + INTRA:          -4.388
REMARK INTER:                  -4.283
REMARK INTRA:                  -0.105
REMARK UNBOUND:                -0.102
REMARK  Name = /home/vital/Documents/PhD_2021/Malaria_codes/data/pdb_ligands_mmv/ligand_239.pdb
REMARK  3 active torsions:
REMARK  status: ('A' for Active; 'I' for Inactive)
REMARK    1  A    between atoms: C1_1  and  O1_2
REMARK    2  A    between atoms: O1_2  and  C2_3
REMARK    3  A    between atoms: C7_11  and  C8_12
REMARK                            x       y       z     vdW  Elec       q    Type
REMARK                         _______ _______ _______ _____ _____    ______ ____
ROOT
ATOM      1  C2  UNL     1       0.701   6.525 -17.470  0.00  0.00    +0.121 A 
ATOM      2  C3  UNL     1      -0.391   5.760 -17.081  0.00  0.00    +0.048 A 
ATOM      3  C4  UNL     1      -0.281   4.894 -15.985  0.00  0.00    +0.032 A 
ATOM      4  C5  UNL     1       0.897   4.765 -15.259  0.00  0.00    +0.077 A 
ATOM      5  N1  UNL     1       0.926   3.918 -14.224  0.00  0.00    -0.215 NA
ATOM      6  C6  UNL     1       2.073   3.804 -13.556  0.00  0.00    +0.213 A 
ATOM      7  N2  UNL     1       2.100   2.942 -12.479  0.00  0.00    -0.327 N 
ATOM      8  N3  UNL     1       3.182   4.494 -13.814  0.00  0.00    -0.219 NA
ATOM      9  C7  UNL     1       3.146   5.349 -14.861  0.00  0.00    +0.051 A 
ATOM     10  C8  UNL     1       4.420   6.094 -15.131  0.00  0.00    +0.066 C 
ATOM     11  C9  UNL     1       2.001   5.534 -15.644  0.00  0.00    +0.025 A 
ATOM     12  C10 UNL     1       1.892   6.411 -16.752  0.00  0.00    +0.057 A 
ATOM     13  H6  UNL     1       1.163   2.819 -12.120  0.00  0.00    +0.145 HD
ATOM     14  H7  UNL     1       2.814   3.237 -11.830  0.00  0.00    +0.145 HD
ENDROOT
BRANCH   1  16
ATOM     15  C1  UNL     1       1.983   8.058 -18.755  0.00  0.00    +0.277 C 
ATOM     16  O1  UNL     1       0.741   7.408 -18.511  0.00  0.00    -0.495 OA
ENDBRANCH   1  16
TORSDOF 1
ENDMDL
MODEL 4
REMARK VINA RESULT:    -4.049      3.087      4.691
REMARK INTER + INTRA:          -4.388
REMARK INTER:                  -4.322
REMARK INTRA:                  -0.065
REMARK UNBOUND:                -0.102
REMARK  Name = /home/vital/Documents/PhD_2021/Malaria_codes/data/pdb_ligands_mmv/ligand_239.pdb
REMARK  3 active torsions:
REMARK  status: ('A' for Active; 'I' for Inactive)
REMARK    1  A    between atoms: C1_1  and  O1_2
REMARK    2  A    between atoms: O1_2  and  C2_3
REMARK    3  A    between atoms: C7_11  and  C8_12
REMARK                            x       y       z     vdW  Elec       q    Type
REMARK                         _______ _______ _______ _____ _____    ______ ____
ROOT
ATOM      1  C2  UNL     1       1.084   7.010 -17.403  0.00  0.00    +0.121 A 
ATOM      2  C3  UNL     1       1.744   7.960 -16.634  0.00  0.00    +0.048 A 
ATOM      3  C4  UNL     1       2.592   8.889 -17.250  0.00  0.00    +0.032 A 
ATOM      4  C5  UNL     1       2.806   8.900 -18.623  0.00  0.00    +0.077 A 
ATOM      5  N1  UNL     1       3.630   9.819 -19.139  0.00  0.00    -0.215 NA
ATOM      6  C6  UNL     1       3.828   9.795 -20.456  0.00  0.00    +0.213 A 
ATOM      7  N2  UNL     1       4.665  10.751 -20.992  0.00  0.00    -0.327 N 
ATOM      8  N3  UNL     1       3.241   8.952 -21.304  0.00  0.00    -0.219 NA
ATOM      9  C7  UNL     1       2.409   8.026 -20.776  0.00  0.00    +0.051 A 
ATOM     10  C8  UNL     1       1.782   7.084 -21.761  0.00  0.00    +0.066 C 
ATOM     11  C9  UNL     1       2.144   7.947 -19.404  0.00  0.00    +0.025 A 
ATOM     12  C10 UNL     1       1.285   7.006 -18.784  0.00  0.00    +0.057 A 
ATOM     13  H6  UNL     1       4.699  11.554 -20.379  0.00  0.00    +0.145 HD
ATOM     14  H7  UNL     1       4.419  10.911 -21.957  0.00  0.00    +0.145 HD
ENDROOT
BRANCH   1  16
ATOM     15  C1  UNL     1       0.436   5.589 -15.613  0.00  0.00    +0.277 C 
ATOM     16  O1  UNL     1       0.231   6.047 -16.944  0.00  0.00    -0.495 OA
ENDBRANCH   1  16
TORSDOF 1
ENDMDL
MODEL 5
REMARK VINA RESULT:    -3.836      9.398     10.875
REMARK INTER + INTRA:          -4.162
REMARK INTER:                  -4.059
REMARK INTRA:                  -0.104
REMARK UNBOUND:                -0.102
REMARK  Name = /home/vital/Documents/PhD_2021/Malaria_codes/data/pdb_ligands_mmv/ligand_239.pdb
REMARK  3 active torsions:
REMARK  status: ('A' for Active; 'I' for Inactive)
REMARK    1  A    between atoms: C1_1  and  O1_2
REMARK    2  A    between atoms: O1_2  and  C2_3
REMARK    3  A    between atoms: C7_11  and  C8_12
REMARK                            x       y       z     vdW  Elec       q    Type
REMARK                         _______ _______ _______ _____ _____    ______ ____
ROOT
ATOM      1  C2  UNL     1       5.917  -2.622 -20.171  0.00  0.00    +0.121 A 
ATOM      2  C3  UNL     1       5.093  -3.727 -20.347  0.00  0.00    +0.048 A 
ATOM      3  C4  UNL     1       3.764  -3.682 -19.907  0.00  0.00    +0.032 A 
ATOM      4  C5  UNL     1       3.225  -2.559 -19.292  0.00  0.00    +0.077 A 
ATOM      5  N1  UNL     1       1.946  -2.592 -18.900  0.00  0.00    -0.215 NA
ATOM      6  C6  UNL     1       1.462  -1.506 -18.298  0.00  0.00    +0.213 A 
ATOM      7  N2  UNL     1       0.139  -1.531 -17.907  0.00  0.00    -0.327 N 
ATOM      8  N3  UNL     1       2.139  -0.378 -18.090  0.00  0.00    -0.219 NA
ATOM      9  C7  UNL     1       3.430  -0.352 -18.489  0.00  0.00    +0.051 A 
ATOM     10  C8  UNL     1       4.164   0.929 -18.221  0.00  0.00    +0.066 C 
ATOM     11  C9  UNL     1       4.048  -1.442 -19.113  0.00  0.00    +0.025 A 
ATOM     12  C10 UNL     1       5.393  -1.485 -19.557  0.00  0.00    +0.057 A 
ATOM     13  H6  UNL     1      -0.367  -2.202 -18.468  0.00  0.00    +0.145 HD
ATOM     14  H7  UNL     1      -0.219  -0.589 -17.871  0.00  0.00    +0.145 HD
ENDROOT
BRANCH   1  16
ATOM     15  C1  UNL     1       7.950  -1.398 -20.058  0.00  0.00    +0.277 C 
ATOM     16  O1  UNL     1       7.226  -2.521 -20.548  0.00  0.00    -0.495 OA
ENDBRANCH   1  16
TORSDOF 1
ENDMDL
MODEL 6
REMARK VINA RESULT:    -3.731      2.260      3.894
REMARK INTER + INTRA:          -4.052
REMARK INTER:                  -3.948
REMARK INTRA:                  -0.104
REMARK UNBOUND:                -0.102
REMARK  Name = /home/vital/Documents/PhD_2021/Malaria_codes/data/pdb_ligands_mmv/ligand_239.pdb
REMARK  3 active torsions:
REMARK  status: ('A' for Active; 'I' for Inactive)
REMARK    1  A    between atoms: C1_1  and  O1_2
REMARK    2  A    between atoms: O1_2  and  C2_3
REMARK    3  A    between atoms: C7_11  and  C8_12
REMARK                            x       y       z     vdW  Elec       q    Type
REMARK                         _______ _______ _______ _____ _____    ______ ____
ROOT
ATOM      1  C2  UNL     1       1.091   7.151 -19.619  0.00  0.00    +0.121 A 
ATOM      2  C3  UNL     1       0.712   6.821 -18.323  0.00  0.00    +0.048 A 
ATOM      3  C4  UNL     1       1.385   7.389 -17.234  0.00  0.00    +0.032 A 
ATOM      4  C5  UNL     1       2.436   8.284 -17.398  0.00  0.00    +0.077 A 
ATOM      5  N1  UNL     1       3.029   8.786 -16.310  0.00  0.00    -0.215 NA
ATOM      6  C6  UNL     1       4.044   9.629 -16.498  0.00  0.00    +0.213 A 
ATOM      7  N2  UNL     1       4.647  10.160 -15.377  0.00  0.00    -0.327 N 
ATOM      8  N3  UNL     1       4.489  10.041 -17.684  0.00  0.00    -0.219 NA
ATOM      9  C7  UNL     1       3.883   9.530 -18.780  0.00  0.00    +0.051 A 
ATOM     10  C8  UNL     1       4.425  10.004 -20.096  0.00  0.00    +0.066 C 
ATOM     11  C9  UNL     1       2.821   8.622 -18.699  0.00  0.00    +0.025 A 
ATOM     12  C10 UNL     1       2.142   8.048 -19.803  0.00  0.00    +0.057 A 
ATOM     13  H6  UNL     1       4.000  10.139 -14.601  0.00  0.00    +0.145 HD
ATOM     14  H7  UNL     1       5.068  11.047 -15.609  0.00  0.00    +0.145 HD
ENDROOT
BRANCH   1  16
ATOM     15  C1  UNL     1       1.223   6.952 -21.982  0.00  0.00    +0.277 C 
ATOM     16  O1  UNL     1       0.529   6.679 -20.771  0.00  0.00    -0.495 OA
ENDBRANCH   1  16
TORSDOF 1
ENDMDL
MODEL 7
REMARK VINA RESULT:    -3.639      3.098      5.237
REMARK INTER + INTRA:          -3.954
REMARK INTER:                  -3.869
REMARK INTRA:                  -0.085
REMARK UNBOUND:                -0.102
REMARK  Name = /home/vital/Documents/PhD_2021/Malaria_codes/data/pdb_ligands_mmv/ligand_239.pdb
REMARK  3 active torsions:
REMARK  status: ('A' for Active; 'I' for Inactive)
REMARK    1  A    between atoms: C1_1  and  O1_2
REMARK    2  A    between atoms: O1_2  and  C2_3
REMARK    3  A    between atoms: C7_11  and  C8_12
REMARK                            x       y       z     vdW  Elec       q    Type
REMARK                         _______ _______ _______ _____ _____    ______ ____
ROOT
ATOM      1  C2  UNL     1       1.430   6.820 -17.743  0.00  0.00    +0.121 A 
ATOM      2  C3  UNL     1       1.383   6.457 -19.083  0.00  0.00    +0.048 A 
ATOM      3  C4  UNL     1       2.078   7.214 -20.035  0.00  0.00    +0.032 A 
ATOM      4  C5  UNL     1       2.826   8.333 -19.689  0.00  0.00    +0.077 A 
ATOM      5  N1  UNL     1       3.463   9.004 -20.655  0.00  0.00    -0.215 NA
ATOM      6  C6  UNL     1       4.159  10.082 -20.296  0.00  0.00    +0.213 A 
ATOM      7  N2  UNL     1       4.830  10.767 -21.288  0.00  0.00    -0.327 N 
ATOM      8  N3  UNL     1       4.302  10.521 -19.046  0.00  0.00    -0.219 NA
ATOM      9  C7  UNL     1       3.655   9.837 -18.076  0.00  0.00    +0.051 A 
ATOM     10  C8  UNL     1       3.825  10.374 -16.685  0.00  0.00    +0.066 C 
ATOM     11  C9  UNL     1       2.880   8.703 -18.342  0.00  0.00    +0.025 A 
ATOM     12  C10 UNL     1       2.177   7.940 -17.376  0.00  0.00    +0.057 A 
ATOM     13  H6  UNL     1       5.013  10.146 -22.064  0.00  0.00    +0.145 HD
ATOM     14  H7  UNL     1       5.616  11.256 -20.886  0.00  0.00    +0.145 HD
ENDROOT
BRANCH   1  16
ATOM     15  C1  UNL     1       1.630   5.756 -15.628  0.00  0.00    +0.277 C 
ATOM     16  O1  UNL     1       0.808   6.181 -16.708  0.00  0.00    -0.495 OA
ENDBRANCH   1  16
TORSDOF 1
ENDMDL
MODEL 8
REMARK VINA RESULT:    -3.579     19.011     20.751
REMARK INTER + INTRA:          -3.890
REMARK INTER:                  -3.794
REMARK INTRA:                  -0.096
REMARK UNBOUND:                -0.102
REMARK  Name = /home/vital/Documents/PhD_2021/Malaria_codes/data/pdb_ligands_mmv/ligand_239.pdb
REMARK  3 active torsions:
REMARK  status: ('A' for Active; 'I' for Inactive)
REMARK    1  A    between atoms: C1_1  and  O1_2
REMARK    2  A    between atoms: O1_2  and  C2_3
REMARK    3  A    between atoms: C7_11  and  C8_12
REMARK                            x       y       z     vdW  Elec       q    Type
REMARK                         _______ _______ _______ _____ _____    ______ ____
ROOT
ATOM      1  C2  UNL     1       0.209  -6.552 -33.528  0.00  0.00    +0.121 A 
ATOM      2  C3  UNL     1       1.072  -7.636 -33.424  0.00  0.00    +0.048 A 
ATOM      3  C4  UNL     1       2.451  -7.420 -33.306  0.00  0.00    +0.032 A 
ATOM      4  C5  UNL     1       3.002  -6.144 -33.288  0.00  0.00    +0.077 A 
ATOM      5  N1  UNL     1       4.328  -6.017 -33.171  0.00  0.00    -0.215 NA
ATOM      6  C6  UNL     1       4.829  -4.783 -33.173  0.00  0.00    +0.213 A 
ATOM      7  N2  UNL     1       6.195  -4.649 -33.037  0.00  0.00    -0.327 N 
ATOM      8  N3  UNL     1       4.110  -3.664 -33.245  0.00  0.00    -0.219 NA
ATOM      9  C7  UNL     1       2.770  -3.799 -33.363  0.00  0.00    +0.051 A 
ATOM     10  C8  UNL     1       1.997  -2.517 -33.459  0.00  0.00    +0.066 C 
ATOM     11  C9  UNL     1       2.139  -5.048 -33.391  0.00  0.00    +0.025 A 
ATOM     12  C10 UNL     1       0.743  -5.264 -33.511  0.00  0.00    +0.057 A 
ATOM     13  H6  UNL     1       6.571  -5.465 -32.574  0.00  0.00    +0.145 HD
ATOM     14  H7  UNL     1       6.407  -3.747 -32.637  0.00  0.00    +0.145 HD
ENDROOT
BRANCH   1  16
ATOM     15  C1  UNL     1      -1.770  -5.587 -34.419  0.00  0.00    +0.277 C 
ATOM     16  O1  UNL     1      -1.151  -6.609 -33.648  0.00  0.00    -0.495 OA
ENDBRANCH   1  16
TORSDOF 1
ENDMDL
MODEL 9
REMARK VINA RESULT:    -3.451     18.916     20.143
REMARK INTER + INTRA:          -3.755
REMARK INTER:                  -3.654
REMARK INTRA:                  -0.100
REMARK UNBOUND:                -0.102
REMARK  Name = /home/vital/Documents/PhD_2021/Malaria_codes/data/pdb_ligands_mmv/ligand_239.pdb
REMARK  3 active torsions:
REMARK  status: ('A' for Active; 'I' for Inactive)
REMARK    1  A    between atoms: C1_1  and  O1_2
REMARK    2  A    between atoms: O1_2  and  C2_3
REMARK    3  A    between atoms: C7_11  and  C8_12
REMARK                            x       y       z     vdW  Elec       q    Type
REMARK                         _______ _______ _______ _____ _____    ______ ____
ROOT
ATOM      1  C2  UNL     1       0.132  -3.636 -33.613  0.00  0.00    +0.121 A 
ATOM      2  C3  UNL     1       0.972  -2.533 -33.524  0.00  0.00    +0.048 A 
ATOM      3  C4  UNL     1       2.352  -2.717 -33.377  0.00  0.00    +0.032 A 
ATOM      4  C5  UNL     1       2.928  -3.981 -33.313  0.00  0.00    +0.077 A 
ATOM      5  N1  UNL     1       4.254  -4.077 -33.172  0.00  0.00    -0.215 NA
ATOM      6  C6  UNL     1       4.776  -5.301 -33.097  0.00  0.00    +0.213 A 
ATOM      7  N2  UNL     1       6.146  -5.403 -32.968  0.00  0.00    -0.327 N 
ATOM      8  N3  UNL     1       4.085  -6.436 -33.190  0.00  0.00    -0.219 NA
ATOM      9  C7  UNL     1       2.745  -6.331 -33.333  0.00  0.00    +0.051 A 
ATOM     10  C8  UNL     1       2.000  -7.631 -33.415  0.00  0.00    +0.066 C 
ATOM     11  C9  UNL     1       2.089  -5.096 -33.403  0.00  0.00    +0.025 A 
ATOM     12  C10 UNL     1       0.691  -4.912 -33.552  0.00  0.00    +0.057 A 
ATOM     13  H6  UNL     1       6.584  -4.568 -33.332  0.00  0.00    +0.145 HD
ATOM     14  H7  UNL     1       6.453  -6.290 -33.337  0.00  0.00    +0.145 HD
ENDROOT
BRANCH   1  16
ATOM     15  C1  UNL     1      -1.834  -4.770 -34.314  0.00  0.00    +0.277 C 
ATOM     16  O1  UNL     1      -1.226  -3.610 -33.759  0.00  0.00    -0.495 OA
ENDBRANCH   1  16
TORSDOF 1
ENDMDL
