MODEL 1
REMARK VINA RESULT:    -4.918      0.000      0.000
REMARK INTER + INTRA:          -5.818
REMARK INTER:                  -5.637
REMARK INTRA:                  -0.181
REMARK UNBOUND:                -0.181
REMARK  Name = /home/vital/Documents/PhD_2021/Malaria_codes/data/pdb_ligands_mmv/ligand_59.pdb
REMARK  5 active torsions:
REMARK  status: ('A' for Active; 'I' for Inactive)
REMARK    1  A    between atoms: C1_1  and  C2_2
REMARK    2  A    between atoms: C2_2  and  C3_3
REMARK    3  A    between atoms: C3_3  and  C4_4
REMARK    4  A    between atoms: C6_6  and  O1_7
REMARK    5  A    between atoms: N1_12  and  C11_13
REMARK                            x       y       z     vdW  Elec       q    Type
REMARK                         _______ _______ _______ _____ _____    ______ ____
ROOT
ATOM      1  C4  UNL     1       0.024   5.952 -17.973  0.00  0.00    -0.040 A 
ATOM      2  C5  UNL     1       0.784   6.803 -17.163  0.00  0.00    +0.050 A 
ATOM      3  C6  UNL     1       1.698   7.706 -17.730  0.00  0.00    +0.128 A 
ATOM      4  C7  UNL     1       1.877   7.798 -19.121  0.00  0.00    +0.062 A 
ATOM      5  C8  UNL     1       2.797   8.713 -19.827  0.00  0.00    -0.021 A 
ATOM      6  C9  UNL     1       2.918   8.636 -21.168  0.00  0.00    +0.055 A 
ATOM      7  C10 UNL     1       3.875   9.492 -21.964  0.00  0.00    +0.126 C 
ATOM      8  N1  UNL     1       4.910  10.190 -21.178  0.00  0.00    -0.301 NA
ATOM      9  C11 UNL     1       6.040   9.314 -20.871  0.00  0.00    +0.105 C 
ATOM     10  C12 UNL     1       4.312  10.767 -19.968  0.00  0.00    +0.089 C 
ATOM     11  C13 UNL     1       3.599   9.743 -19.065  0.00  0.00    +0.052 C 
ATOM     12  C14 UNL     1       2.112   7.703 -21.984  0.00  0.00    +0.342 A 
ATOM     13  O2  UNL     1       2.216   7.648 -23.204  0.00  0.00    -0.245 OA
ATOM     14  O3  UNL     1       1.215   6.899 -21.304  0.00  0.00    -0.422 OA
ATOM     15  C15 UNL     1       1.109   6.929 -19.900  0.00  0.00    +0.143 A 
ATOM     16  C16 UNL     1       0.193   6.023 -19.356  0.00  0.00    +0.051 A 
ENDROOT
BRANCH   3  17
ATOM     17  O1  UNL     1       2.427   8.492 -16.877  0.00  0.00    -0.506 OA
ATOM     18  H9  UNL     1       2.941   7.928 -16.276  0.00  0.00    +0.292 HD
ENDBRANCH   3  17
BRANCH   1  19
ATOM     19  C3  UNL     1      -0.972   4.996 -17.368  0.00  0.00    +0.035 C 
BRANCH  19  21
ATOM     20  C1  UNL     1      -3.250   4.763 -18.419  0.00  0.00    +0.004 C 
ATOM     21  C2  UNL     1      -2.396   5.547 -17.435  0.00  0.00    +0.001 C 
ENDBRANCH  19  21
ENDBRANCH   1  19
TORSDOF 3
ENDMDL
MODEL 2
REMARK VINA RESULT:    -4.477      3.055      6.676
REMARK INTER + INTRA:          -5.313
REMARK INTER:                  -5.097
REMARK INTRA:                  -0.216
REMARK UNBOUND:                -0.181
REMARK  Name = /home/vital/Documents/PhD_2021/Malaria_codes/data/pdb_ligands_mmv/ligand_59.pdb
REMARK  5 active torsions:
REMARK  status: ('A' for Active; 'I' for Inactive)
REMARK    1  A    between atoms: C1_1  and  C2_2
REMARK    2  A    between atoms: C2_2  and  C3_3
REMARK    3  A    between atoms: C3_3  and  C4_4
REMARK    4  A    between atoms: C6_6  and  O1_7
REMARK    5  A    between atoms: N1_12  and  C11_13
REMARK                            x       y       z     vdW  Elec       q    Type
REMARK                         _______ _______ _______ _____ _____    ______ ____
ROOT
ATOM      1  C4  UNL     1       2.765   7.820 -19.083  0.00  0.00    -0.040 A 
ATOM      2  C5  UNL     1       2.467   7.468 -20.404  0.00  0.00    +0.050 A 
ATOM      3  C6  UNL     1       1.277   6.790 -20.715  0.00  0.00    +0.128 A 
ATOM      4  C7  UNL     1       0.341   6.452 -19.721  0.00  0.00    +0.062 A 
ATOM      5  C8  UNL     1      -0.944   5.752 -19.931  0.00  0.00    -0.021 A 
ATOM      6  C9  UNL     1      -1.708   5.425 -18.869  0.00  0.00    +0.055 A 
ATOM      7  C10 UNL     1      -3.005   4.661 -18.987  0.00  0.00    +0.126 C 
ATOM      8  N1  UNL     1      -3.241   4.000 -20.285  0.00  0.00    -0.301 NA
ATOM      9  C11 UNL     1      -2.544   2.717 -20.373  0.00  0.00    +0.105 C 
ATOM     10  C12 UNL     1      -2.873   4.906 -21.379  0.00  0.00    +0.089 C 
ATOM     11  C13 UNL     1      -1.417   5.405 -21.325  0.00  0.00    +0.052 C 
ATOM     12  C14 UNL     1      -1.342   5.796 -17.486  0.00  0.00    +0.342 A 
ATOM     13  O2  UNL     1      -2.048   5.510 -16.527  0.00  0.00    -0.245 OA
ATOM     14  O3  UNL     1      -0.164   6.503 -17.324  0.00  0.00    -0.422 OA
ATOM     15  C15 UNL     1       0.673   6.811 -18.413  0.00  0.00    +0.143 A 
ATOM     16  C16 UNL     1       1.853   7.486 -18.083  0.00  0.00    +0.051 A 
ENDROOT
BRANCH   3  17
ATOM     17  O1  UNL     1       1.060   6.454 -22.025  0.00  0.00    -0.506 OA
ATOM     18  H9  UNL     1       1.015   7.261 -22.563  0.00  0.00    +0.292 HD
ENDBRANCH   3  17
BRANCH   1  19
ATOM     19  C3  UNL     1       4.032   8.565 -18.750  0.00  0.00    +0.035 C 
BRANCH  19  21
ATOM     20  C1  UNL     1       3.873  10.767 -17.536  0.00  0.00    +0.004 C 
ATOM     21  C2  UNL     1       3.853  10.076 -18.891  0.00  0.00    +0.001 C 
ENDBRANCH  19  21
ENDBRANCH   1  19
TORSDOF 3
ENDMDL
MODEL 3
REMARK VINA RESULT:    -4.477     16.068     17.803
REMARK INTER + INTRA:          -5.312
REMARK INTER:                  -5.104
REMARK INTRA:                  -0.208
REMARK UNBOUND:                -0.181
REMARK  Name = /home/vital/Documents/PhD_2021/Malaria_codes/data/pdb_ligands_mmv/ligand_59.pdb
REMARK  5 active torsions:
REMARK  status: ('A' for Active; 'I' for Inactive)
REMARK    1  A    between atoms: C1_1  and  C2_2
REMARK    2  A    between atoms: C2_2  and  C3_3
REMARK    3  A    between atoms: C3_3  and  C4_4
REMARK    4  A    between atoms: C6_6  and  O1_7
REMARK    5  A    between atoms: N1_12  and  C11_13
REMARK                            x       y       z     vdW  Elec       q    Type
REMARK                         _______ _______ _______ _____ _____    ______ ____
ROOT
ATOM      1  C4  UNL     1       2.203  -6.231 -33.690  0.00  0.00    -0.040 A 
ATOM      2  C5  UNL     1       1.495  -5.030 -33.812  0.00  0.00    +0.050 A 
ATOM      3  C6  UNL     1       2.057  -3.818 -33.379  0.00  0.00    +0.128 A 
ATOM      4  C7  UNL     1       3.347  -3.762 -32.822  0.00  0.00    +0.062 A 
ATOM      5  C8  UNL     1       4.043  -2.549 -32.345  0.00  0.00    -0.021 A 
ATOM      6  C9  UNL     1       5.254  -2.659 -31.761  0.00  0.00    +0.055 A 
ATOM      7  C10 UNL     1       6.009  -1.481 -31.194  0.00  0.00    +0.126 C 
ATOM      8  N1  UNL     1       5.222  -0.246 -31.012  0.00  0.00    -0.301 NA
ATOM      9  C11 UNL     1       4.450  -0.275 -29.770  0.00  0.00    +0.105 C 
ATOM     10  C12 UNL     1       4.372  -0.020 -32.187  0.00  0.00    +0.089 C 
ATOM     11  C13 UNL     1       3.417  -1.183 -32.511  0.00  0.00    +0.052 C 
ATOM     12  C14 UNL     1       5.956  -3.953 -31.631  0.00  0.00    +0.342 A 
ATOM     13  O2  UNL     1       7.063  -4.044 -31.113  0.00  0.00    -0.245 OA
ATOM     14  O3  UNL     1       5.308  -5.065 -32.140  0.00  0.00    -0.422 OA
ATOM     15  C15 UNL     1       4.023  -4.980 -32.708  0.00  0.00    +0.143 A 
ATOM     16  C16 UNL     1       3.480  -6.197 -33.133  0.00  0.00    +0.051 A 
ENDROOT
BRANCH   3  17
ATOM     17  O1  UNL     1       1.300  -2.684 -33.505  0.00  0.00    -0.506 OA
ATOM     18  H9  UNL     1       0.533  -2.740 -32.912  0.00  0.00    +0.292 HD
ENDBRANCH   3  17
BRANCH   1  19
ATOM     19  C3  UNL     1       1.609  -7.530 -34.172  0.00  0.00    +0.035 C 
BRANCH  19  21
ATOM     20  C1  UNL     1       0.258  -9.204 -32.861  0.00  0.00    +0.004 C 
ATOM     21  C2  UNL     1       1.636  -8.602 -33.082  0.00  0.00    +0.001 C 
ENDBRANCH  19  21
ENDBRANCH   1  19
TORSDOF 3
ENDMDL
MODEL 4
REMARK VINA RESULT:    -4.433      1.686      2.257
REMARK INTER + INTRA:          -5.263
REMARK INTER:                  -5.050
REMARK INTRA:                  -0.212
REMARK UNBOUND:                -0.181
REMARK  Name = /home/vital/Documents/PhD_2021/Malaria_codes/data/pdb_ligands_mmv/ligand_59.pdb
REMARK  5 active torsions:
REMARK  status: ('A' for Active; 'I' for Inactive)
REMARK    1  A    between atoms: C1_1  and  C2_2
REMARK    2  A    between atoms: C2_2  and  C3_3
REMARK    3  A    between atoms: C3_3  and  C4_4
REMARK    4  A    between atoms: C6_6  and  O1_7
REMARK    5  A    between atoms: N1_12  and  C11_13
REMARK                            x       y       z     vdW  Elec       q    Type
REMARK                         _______ _______ _______ _____ _____    ______ ____
ROOT
ATOM      1  C4  UNL     1       1.170   6.642 -16.634  0.00  0.00    -0.040 A 
ATOM      2  C5  UNL     1       2.113   7.652 -16.410  0.00  0.00    +0.050 A 
ATOM      3  C6  UNL     1       2.697   8.339 -17.486  0.00  0.00    +0.128 A 
ATOM      4  C7  UNL     1       2.351   8.052 -18.819  0.00  0.00    +0.062 A 
ATOM      5  C8  UNL     1       2.889   8.714 -20.025  0.00  0.00    -0.021 A 
ATOM      6  C9  UNL     1       2.521   8.280 -21.247  0.00  0.00    +0.055 A 
ATOM      7  C10 UNL     1       3.064   8.860 -22.531  0.00  0.00    +0.126 C 
ATOM      8  N1  UNL     1       4.264   9.706 -22.391  0.00  0.00    -0.301 NA
ATOM      9  C11 UNL     1       5.485   8.905 -22.305  0.00  0.00    +0.105 C 
ATOM     10  C12 UNL     1       4.109  10.604 -21.240  0.00  0.00    +0.089 C 
ATOM     11  C13 UNL     1       3.843   9.882 -19.906  0.00  0.00    +0.052 C 
ATOM     12  C14 UNL     1       1.538   7.191 -21.437  0.00  0.00    +0.342 A 
ATOM     13  O2  UNL     1       1.196   6.811 -22.550  0.00  0.00    -0.245 OA
ATOM     14  O3  UNL     1       1.005   6.629 -20.291  0.00  0.00    -0.422 OA
ATOM     15  C15 UNL     1       1.413   7.034 -19.006  0.00  0.00    +0.143 A 
ATOM     16  C16 UNL     1       0.821   6.337 -17.948  0.00  0.00    +0.051 A 
ENDROOT
BRANCH   3  17
ATOM     17  O1  UNL     1       3.631   9.299 -17.197  0.00  0.00    -0.506 OA
ATOM     18  H9  UNL     1       3.973   9.157 -16.299  0.00  0.00    +0.292 HD
ENDBRANCH   3  17
BRANCH   1  19
ATOM     19  C3  UNL     1       0.528   5.916 -15.479  0.00  0.00    +0.035 C 
BRANCH  19  21
ATOM     20  C1  UNL     1       1.811   4.721 -13.670  0.00  0.00    +0.004 C 
ATOM     21  C2  UNL     1       1.305   4.655 -15.103  0.00  0.00    +0.001 C 
ENDBRANCH  19  21
ENDBRANCH   1  19
TORSDOF 3
ENDMDL
MODEL 5
REMARK VINA RESULT:    -4.384      4.619      6.615
REMARK INTER + INTRA:          -5.206
REMARK INTER:                  -5.029
REMARK INTRA:                  -0.176
REMARK UNBOUND:                -0.181
REMARK  Name = /home/vital/Documents/PhD_2021/Malaria_codes/data/pdb_ligands_mmv/ligand_59.pdb
REMARK  5 active torsions:
REMARK  status: ('A' for Active; 'I' for Inactive)
REMARK    1  A    between atoms: C1_1  and  C2_2
REMARK    2  A    between atoms: C2_2  and  C3_3
REMARK    3  A    between atoms: C3_3  and  C4_4
REMARK    4  A    between atoms: C6_6  and  O1_7
REMARK    5  A    between atoms: N1_12  and  C11_13
REMARK                            x       y       z     vdW  Elec       q    Type
REMARK                         _______ _______ _______ _____ _____    ______ ____
ROOT
ATOM      1  C4  UNL     1      -0.250   5.599 -16.490  0.00  0.00    -0.040 A 
ATOM      2  C5  UNL     1       0.781   6.420 -16.961  0.00  0.00    +0.050 A 
ATOM      3  C6  UNL     1       2.055   6.381 -16.372  0.00  0.00    +0.128 A 
ATOM      4  C7  UNL     1       2.346   5.514 -15.304  0.00  0.00    +0.062 A 
ATOM      5  C8  UNL     1       3.647   5.379 -14.616  0.00  0.00    -0.021 A 
ATOM      6  C9  UNL     1       3.759   4.558 -13.553  0.00  0.00    +0.055 A 
ATOM      7  C10 UNL     1       5.033   4.402 -12.757  0.00  0.00    +0.126 C 
ATOM      8  N1  UNL     1       6.061   5.434 -12.991  0.00  0.00    -0.301 NA
ATOM      9  C11 UNL     1       5.796   6.648 -12.220  0.00  0.00    +0.105 C 
ATOM     10  C12 UNL     1       6.175   5.705 -14.429  0.00  0.00    +0.089 C 
ATOM     11  C13 UNL     1       4.859   6.145 -15.096  0.00  0.00    +0.052 C 
ATOM     12  C14 UNL     1       2.635   3.725 -13.073  0.00  0.00    +0.342 A 
ATOM     13  O2  UNL     1       2.747   2.969 -12.116  0.00  0.00    -0.245 OA
ATOM     14  O3  UNL     1       1.445   3.826 -13.772  0.00  0.00    -0.422 OA
ATOM     15  C15 UNL     1       1.293   4.714 -14.854  0.00  0.00    +0.143 A 
ATOM     16  C16 UNL     1       0.017   4.739 -15.426  0.00  0.00    +0.051 A 
ENDROOT
BRANCH   3  17
ATOM     17  O1  UNL     1       3.011   7.230 -16.865  0.00  0.00    -0.506 OA
ATOM     18  H9  UNL     1       3.604   6.739 -17.457  0.00  0.00    +0.292 HD
ENDBRANCH   3  17
BRANCH   1  19
ATOM     19  C3  UNL     1      -1.613   5.626 -17.133  0.00  0.00    +0.035 C 
BRANCH  19  21
ATOM     20  C1  UNL     1      -3.118   4.489 -18.803  0.00  0.00    +0.004 C 
ATOM     21  C2  UNL     1      -1.683   4.699 -18.347  0.00  0.00    +0.001 C 
ENDBRANCH  19  21
ENDBRANCH   1  19
TORSDOF 3
ENDMDL
MODEL 6
REMARK VINA RESULT:    -4.372      2.481      4.027
REMARK INTER + INTRA:          -5.192
REMARK INTER:                  -4.998
REMARK INTRA:                  -0.194
REMARK UNBOUND:                -0.181
REMARK  Name = /home/vital/Documents/PhD_2021/Malaria_codes/data/pdb_ligands_mmv/ligand_59.pdb
REMARK  5 active torsions:
REMARK  status: ('A' for Active; 'I' for Inactive)
REMARK    1  A    between atoms: C1_1  and  C2_2
REMARK    2  A    between atoms: C2_2  and  C3_3
REMARK    3  A    between atoms: C3_3  and  C4_4
REMARK    4  A    between atoms: C6_6  and  O1_7
REMARK    5  A    between atoms: N1_12  and  C11_13
REMARK                            x       y       z     vdW  Elec       q    Type
REMARK                         _______ _______ _______ _____ _____    ______ ____
ROOT
ATOM      1  C4  UNL     1       1.863   7.793 -18.085  0.00  0.00    -0.040 A 
ATOM      2  C5  UNL     1       1.132   6.932 -18.911  0.00  0.00    +0.050 A 
ATOM      3  C6  UNL     1       1.277   6.982 -20.307  0.00  0.00    +0.128 A 
ATOM      4  C7  UNL     1       2.163   7.883 -20.924  0.00  0.00    +0.062 A 
ATOM      5  C8  UNL     1       2.406   8.016 -22.375  0.00  0.00    -0.021 A 
ATOM      6  C9  UNL     1       3.232   8.981 -22.829  0.00  0.00    +0.055 A 
ATOM      7  C10 UNL     1       3.493   9.226 -24.296  0.00  0.00    +0.126 C 
ATOM      8  N1  UNL     1       2.552   8.575 -25.228  0.00  0.00    -0.301 NA
ATOM      9  C11 UNL     1       1.318   9.347 -25.378  0.00  0.00    +0.105 C 
ATOM     10  C12 UNL     1       2.294   7.197 -24.794  0.00  0.00    +0.089 C 
ATOM     11  C13 UNL     1       1.746   7.078 -23.360  0.00  0.00    +0.052 C 
ATOM     12  C14 UNL     1       3.966   9.887 -21.920  0.00  0.00    +0.342 A 
ATOM     13  O2  UNL     1       4.728  10.751 -22.338  0.00  0.00    -0.245 OA
ATOM     14  O3  UNL     1       3.767   9.701 -20.563  0.00  0.00    -0.422 OA
ATOM     15  C15 UNL     1       2.871   8.733 -20.071  0.00  0.00    +0.143 A 
ATOM     16  C16 UNL     1       2.741   8.699 -18.679  0.00  0.00    +0.051 A 
ENDROOT
BRANCH   3  17
ATOM     17  O1  UNL     1       0.513   6.128 -21.057  0.00  0.00    -0.506 OA
ATOM     18  H9  UNL     1      -0.080   6.642 -21.629  0.00  0.00    +0.292 HD
ENDBRANCH   3  17
BRANCH   1  19
ATOM     19  C3  UNL     1       1.723   7.728 -16.586  0.00  0.00    +0.035 C 
BRANCH  19  21
ATOM     20  C1  UNL     1       0.779   5.868 -15.174  0.00  0.00    +0.004 C 
ATOM     21  C2  UNL     1       1.933   6.309 -16.060  0.00  0.00    +0.001 C 
ENDBRANCH  19  21
ENDBRANCH   1  19
TORSDOF 3
ENDMDL
MODEL 7
REMARK VINA RESULT:    -4.329      1.015      2.912
REMARK INTER + INTRA:          -5.143
REMARK INTER:                  -4.991
REMARK INTRA:                  -0.151
REMARK UNBOUND:                -0.181
REMARK  Name = /home/vital/Documents/PhD_2021/Malaria_codes/data/pdb_ligands_mmv/ligand_59.pdb
REMARK  5 active torsions:
REMARK  status: ('A' for Active; 'I' for Inactive)
REMARK    1  A    between atoms: C1_1  and  C2_2
REMARK    2  A    between atoms: C2_2  and  C3_3
REMARK    3  A    between atoms: C3_3  and  C4_4
REMARK    4  A    between atoms: C6_6  and  O1_7
REMARK    5  A    between atoms: N1_12  and  C11_13
REMARK                            x       y       z     vdW  Elec       q    Type
REMARK                         _______ _______ _______ _____ _____    ______ ____
ROOT
ATOM      1  C4  UNL     1       0.037   6.036 -18.059  0.00  0.00    -0.040 A 
ATOM      2  C5  UNL     1       0.400   5.650 -19.355  0.00  0.00    +0.050 A 
ATOM      3  C6  UNL     1       1.413   6.331 -20.049  0.00  0.00    +0.128 A 
ATOM      4  C7  UNL     1       2.106   7.409 -19.471  0.00  0.00    +0.062 A 
ATOM      5  C8  UNL     1       3.192   8.189 -20.098  0.00  0.00    -0.021 A 
ATOM      6  C9  UNL     1       3.714   9.250 -19.451  0.00  0.00    +0.055 A 
ATOM      7  C10 UNL     1       4.785  10.136 -20.040  0.00  0.00    +0.126 C 
ATOM      8  N1  UNL     1       5.008   9.988 -21.491  0.00  0.00    -0.301 NA
ATOM      9  C11 UNL     1       4.031  10.749 -22.270  0.00  0.00    +0.105 C 
ATOM     10  C12 UNL     1       5.015   8.565 -21.851  0.00  0.00    +0.089 C 
ATOM     11  C13 UNL     1       3.734   7.807 -21.458  0.00  0.00    +0.052 C 
ATOM     12  C14 UNL     1       3.283   9.638 -18.091  0.00  0.00    +0.342 A 
ATOM     13  O2  UNL     1       3.772  10.594 -17.500  0.00  0.00    -0.245 OA
ATOM     14  O3  UNL     1       2.306   8.855 -17.502  0.00  0.00    -0.422 OA
ATOM     15  C15 UNL     1       1.714   7.773 -18.180  0.00  0.00    +0.143 A 
ATOM     16  C16 UNL     1       0.707   7.108 -17.472  0.00  0.00    +0.051 A 
ENDROOT
BRANCH   3  17
ATOM     17  O1  UNL     1       1.701   5.917 -21.323  0.00  0.00    -0.506 OA
ATOM     18  H9  UNL     1       0.894   5.949 -21.863  0.00  0.00    +0.292 HD
ENDBRANCH   3  17
BRANCH   1  19
ATOM     19  C3  UNL     1      -1.037   5.294 -17.305  0.00  0.00    +0.035 C 
BRANCH  19  21
ATOM     20  C1  UNL     1      -3.065   4.535 -18.592  0.00  0.00    +0.004 C 
ATOM     21  C2  UNL     1      -2.434   5.668 -17.799  0.00  0.00    +0.001 C 
ENDBRANCH  19  21
ENDBRANCH   1  19
TORSDOF 3
ENDMDL
MODEL 8
REMARK VINA RESULT:    -4.280      2.281      6.614
REMARK INTER + INTRA:          -5.087
REMARK INTER:                  -4.909
REMARK INTRA:                  -0.178
REMARK UNBOUND:                -0.181
REMARK  Name = /home/vital/Documents/PhD_2021/Malaria_codes/data/pdb_ligands_mmv/ligand_59.pdb
REMARK  5 active torsions:
REMARK  status: ('A' for Active; 'I' for Inactive)
REMARK    1  A    between atoms: C1_1  and  C2_2
REMARK    2  A    between atoms: C2_2  and  C3_3
REMARK    3  A    between atoms: C3_3  and  C4_4
REMARK    4  A    between atoms: C6_6  and  O1_7
REMARK    5  A    between atoms: N1_12  and  C11_13
REMARK                            x       y       z     vdW  Elec       q    Type
REMARK                         _______ _______ _______ _____ _____    ______ ____
ROOT
ATOM      1  C4  UNL     1       3.839   9.365 -22.643  0.00  0.00    -0.040 A 
ATOM      2  C5  UNL     1       2.978   8.270 -22.765  0.00  0.00    +0.050 A 
ATOM      3  C6  UNL     1       2.340   7.728 -21.637  0.00  0.00    +0.128 A 
ATOM      4  C7  UNL     1       2.532   8.268 -20.353  0.00  0.00    +0.062 A 
ATOM      5  C8  UNL     1       1.908   7.792 -19.101  0.00  0.00    -0.021 A 
ATOM      6  C9  UNL     1       2.246   8.362 -17.927  0.00  0.00    +0.055 A 
ATOM      7  C10 UNL     1       1.702   7.901 -16.596  0.00  0.00    +0.126 C 
ATOM      8  N1  UNL     1       1.035   6.585 -16.601  0.00  0.00    -0.301 NA
ATOM      9  C11 UNL     1       1.999   5.488 -16.522  0.00  0.00    +0.105 C 
ATOM     10  C12 UNL     1       0.164   6.473 -17.778  0.00  0.00    +0.089 C 
ATOM     11  C13 UNL     1       0.888   6.676 -19.121  0.00  0.00    +0.052 C 
ATOM     12  C14 UNL     1       3.182   9.503 -17.841  0.00  0.00    +0.342 A 
ATOM     13  O2  UNL     1       3.473  10.027 -16.772  0.00  0.00    -0.245 OA
ATOM     14  O3  UNL     1       3.705   9.969 -19.034  0.00  0.00    -0.422 OA
ATOM     15  C15 UNL     1       3.404   9.356 -20.265  0.00  0.00    +0.143 A 
ATOM     16  C16 UNL     1       4.048   9.910 -21.376  0.00  0.00    +0.051 A 
ENDROOT
BRANCH   3  17
ATOM     17  O1  UNL     1       1.529   6.641 -21.825  0.00  0.00    -0.506 OA
ATOM     18  H9  UNL     1       0.601   6.908 -21.720  0.00  0.00    +0.292 HD
ENDBRANCH   3  17
BRANCH   1  19
ATOM     19  C3  UNL     1       4.510   9.960 -23.855  0.00  0.00    +0.035 C 
BRANCH  19  21
ATOM     20  C1  UNL     1       6.755  10.294 -24.947  0.00  0.00    +0.004 C 
ATOM     21  C2  UNL     1       6.008  10.162 -23.630  0.00  0.00    +0.001 C 
ENDBRANCH  19  21
ENDBRANCH   1  19
TORSDOF 3
ENDMDL
MODEL 9
REMARK VINA RESULT:    -4.157     15.868     18.090
REMARK INTER + INTRA:          -4.946
REMARK INTER:                  -4.736
REMARK INTRA:                  -0.210
REMARK UNBOUND:                -0.181
REMARK  Name = /home/vital/Documents/PhD_2021/Malaria_codes/data/pdb_ligands_mmv/ligand_59.pdb
REMARK  5 active torsions:
REMARK  status: ('A' for Active; 'I' for Inactive)
REMARK    1  A    between atoms: C1_1  and  C2_2
REMARK    2  A    between atoms: C2_2  and  C3_3
REMARK    3  A    between atoms: C3_3  and  C4_4
REMARK    4  A    between atoms: C6_6  and  O1_7
REMARK    5  A    between atoms: N1_12  and  C11_13
REMARK                            x       y       z     vdW  Elec       q    Type
REMARK                         _______ _______ _______ _____ _____    ______ ____
ROOT
ATOM      1  C4  UNL     1       4.546  -3.494 -31.623  0.00  0.00    -0.040 A 
ATOM      2  C5  UNL     1       4.228  -4.568 -32.462  0.00  0.00    +0.050 A 
ATOM      3  C6  UNL     1       3.138  -4.491 -33.344  0.00  0.00    +0.128 A 
ATOM      4  C7  UNL     1       2.337  -3.338 -33.426  0.00  0.00    +0.062 A 
ATOM      5  C8  UNL     1       1.177  -3.141 -34.320  0.00  0.00    -0.021 A 
ATOM      6  C9  UNL     1       0.453  -2.006 -34.235  0.00  0.00    +0.055 A 
ATOM      7  C10 UNL     1      -0.779  -1.745 -35.068  0.00  0.00    +0.126 C 
ATOM      8  N1  UNL     1      -1.350  -2.923 -35.748  0.00  0.00    -0.301 NA
ATOM      9  C11 UNL     1      -2.194  -3.711 -34.851  0.00  0.00    +0.105 C 
ATOM     10  C12 UNL     1      -0.273  -3.725 -36.342  0.00  0.00    +0.089 C 
ATOM     11  C13 UNL     1       0.795  -4.193 -35.337  0.00  0.00    +0.052 C 
ATOM     12  C14 UNL     1       0.811  -0.905 -33.315  0.00  0.00    +0.342 A 
ATOM     13  O2  UNL     1       0.159   0.130 -33.253  0.00  0.00    -0.245 OA
ATOM     14  O3  UNL     1       1.937  -1.092 -32.532  0.00  0.00    -0.422 OA
ATOM     15  C15 UNL     1       2.677  -2.289 -32.569  0.00  0.00    +0.143 A 
ATOM     16  C16 UNL     1       3.758  -2.345 -31.684  0.00  0.00    +0.051 A 
ENDROOT
BRANCH   3  17
ATOM     17  O1  UNL     1       2.868  -5.588 -34.119  0.00  0.00    -0.506 OA
ATOM     18  H9  UNL     1       1.909  -5.660 -34.254  0.00  0.00    +0.292 HD
ENDBRANCH   3  17
BRANCH   1  19
ATOM     19  C3  UNL     1       5.727  -3.567 -30.689  0.00  0.00    +0.035 C 
BRANCH  19  21
ATOM     20  C1  UNL     1       5.721  -4.245 -28.263  0.00  0.00    +0.004 C 
ATOM     21  C2  UNL     1       5.347  -3.165 -29.265  0.00  0.00    +0.001 C 
ENDBRANCH  19  21
ENDBRANCH   1  19
TORSDOF 3
ENDMDL
