MODEL 1
REMARK VINA RESULT:    -4.656      0.000      0.000
REMARK INTER + INTRA:          -8.435
REMARK INTER:                  -6.153
REMARK INTRA:                  -2.282
REMARK UNBOUND:                -2.282
REMARK  Name = /home/vital/Documents/PhD_2021/Malaria_codes/data/pdb_ligands_mmv/ligand_95.pdb
REMARK  7 active torsions:
REMARK  status: ('A' for Active; 'I' for Inactive)
REMARK    1  A    between atoms: C1_1  and  C2_2
REMARK    2  A    between atoms: C2_2  and  O1_3
REMARK    3  A    between atoms: C2_2  and  C3_4
REMARK    4  A    between atoms: C2_2  and  C16_18
REMARK    5  A    between atoms: C3_4  and  C4_5
REMARK    6  A    between atoms: C3_4  and  C10_12
REMARK    7  A    between atoms: C4_5  and  N1_6
REMARK                            x       y       z     vdW  Elec       q    Type
REMARK                         _______ _______ _______ _____ _____    ______ ____
ROOT
ATOM      1  C3  UNL     1       0.994  -5.797 -32.761  0.00  0.00    +0.069 C 
ENDROOT
BRANCH   1   2
ATOM      2  C10 UNL     1       0.240  -7.000 -33.330  0.00  0.00    -0.040 A 
ATOM      3  C11 UNL     1      -1.049  -6.891 -33.876  0.00  0.00    +0.004 A 
ATOM      4  C12 UNL     1      -1.711  -8.012 -34.381  0.00  0.00    +0.000 A 
ATOM      5  C13 UNL     1      -1.095  -9.261 -34.348  0.00  0.00    +0.000 A 
ATOM      6  C14 UNL     1       0.183  -9.389 -33.812  0.00  0.00    +0.000 A 
ATOM      7  C15 UNL     1       0.845  -8.269 -33.307  0.00  0.00    +0.004 A 
ENDBRANCH   1   2
BRANCH   1   9
ATOM      8  C1  UNL     1       3.243  -4.647 -33.317  0.00  0.00    +0.047 C 
ATOM      9  C2  UNL     1       1.841  -5.018 -33.850  0.00  0.00    +0.096 C 
BRANCH   9  10
ATOM     10  C16 UNL     1       1.121  -3.807 -34.460  0.00  0.00    -0.016 A 
ATOM     11  C17 UNL     1       0.586  -3.871 -35.763  0.00  0.00    +0.008 A 
ATOM     12  C18 UNL     1      -0.084  -2.783 -36.331  0.00  0.00    +0.020 A 
ATOM     13  C19 UNL     1      -0.232  -1.607 -35.604  0.00  0.00    +0.041 A 
ATOM     14 CL1  UNL     1      -1.061  -0.268 -36.296  0.00  0.00    -0.084 Cl
ATOM     15  C20 UNL     1       0.287  -1.511 -34.317  0.00  0.00    +0.020 A 
ATOM     16  C21 UNL     1       0.959  -2.601 -33.753  0.00  0.00    +0.008 A 
ENDBRANCH   9  10
BRANCH   9  17
ATOM     17  O1  UNL     1       2.123  -5.930 -34.938  0.00  0.00    -0.384 OA
ATOM     18  H4  UNL     1       1.389  -5.869 -35.575  0.00  0.00    +0.211 HD
ENDBRANCH   9  17
ENDBRANCH   1   9
BRANCH   1  19
ATOM     19  C4  UNL     1       1.830  -6.108 -31.472  0.00  0.00    +0.095 C 
BRANCH  19  20
ATOM     20  N1  UNL     1       1.165  -5.795 -30.182  0.00  0.00    -0.302 NA
ATOM     21  C5  UNL     1       0.148  -4.738 -30.295  0.00  0.00    +0.084 C 
ATOM     22  C6  UNL     1      -0.844  -4.751 -29.132  0.00  0.00    +0.015 C 
ATOM     23  C7  UNL     1      -1.634  -6.059 -29.094  0.00  0.00    +0.002 C 
ATOM     24  C8  UNL     1      -0.845  -7.224 -29.688  0.00  0.00    +0.015 C 
ATOM     25  C9  UNL     1       0.659  -7.015 -29.526  0.00  0.00    +0.084 C 
ENDBRANCH  19  20
ENDBRANCH   1  19
TORSDOF 6
ENDMDL
MODEL 2
REMARK VINA RESULT:    -4.619     15.732     18.988
REMARK INTER + INTRA:          -8.387
REMARK INTER:                  -6.674
REMARK INTRA:                  -1.713
REMARK UNBOUND:                -2.282
REMARK  Name = /home/vital/Documents/PhD_2021/Malaria_codes/data/pdb_ligands_mmv/ligand_95.pdb
REMARK  7 active torsions:
REMARK  status: ('A' for Active; 'I' for Inactive)
REMARK    1  A    between atoms: C1_1  and  C2_2
REMARK    2  A    between atoms: C2_2  and  O1_3
REMARK    3  A    between atoms: C2_2  and  C3_4
REMARK    4  A    between atoms: C2_2  and  C16_18
REMARK    5  A    between atoms: C3_4  and  C4_5
REMARK    6  A    between atoms: C3_4  and  C10_12
REMARK    7  A    between atoms: C4_5  and  N1_6
REMARK                            x       y       z     vdW  Elec       q    Type
REMARK                         _______ _______ _______ _____ _____    ______ ____
ROOT
ATOM      1  C3  UNL     1       0.046   5.432 -17.412  0.00  0.00    +0.069 C 
ENDROOT
BRANCH   1   2
ATOM      2  C10 UNL     1       0.943   6.597 -17.835  0.00  0.00    -0.040 A 
ATOM      3  C11 UNL     1       1.360   6.784 -19.162  0.00  0.00    +0.004 A 
ATOM      4  C12 UNL     1       2.185   7.855 -19.511  0.00  0.00    +0.000 A 
ATOM      5  C13 UNL     1       2.606   8.758 -18.538  0.00  0.00    +0.000 A 
ATOM      6  C14 UNL     1       2.202   8.591 -17.216  0.00  0.00    +0.000 A 
ATOM      7  C15 UNL     1       1.378   7.520 -16.867  0.00  0.00    +0.004 A 
ENDBRANCH   1   2
BRANCH   1   9
ATOM      8  C1  UNL     1      -2.518   5.342 -17.091  0.00  0.00    +0.047 C 
ATOM      9  C2  UNL     1      -1.371   5.446 -18.120  0.00  0.00    +0.096 C 
BRANCH   9  10
ATOM     10  C16 UNL     1      -1.521   4.418 -19.251  0.00  0.00    -0.016 A 
ATOM     11  C17 UNL     1      -2.470   4.610 -20.275  0.00  0.00    +0.008 A 
ATOM     12  C18 UNL     1      -2.613   3.692 -21.320  0.00  0.00    +0.020 A 
ATOM     13  C19 UNL     1      -1.806   2.560 -21.360  0.00  0.00    +0.041 A 
ATOM     14 CL1  UNL     1      -1.973   1.431 -22.647  0.00  0.00    -0.084 Cl
ATOM     15  C20 UNL     1      -0.862   2.340 -20.362  0.00  0.00    +0.020 A 
ATOM     16  C21 UNL     1      -0.724   3.260 -19.317  0.00  0.00    +0.008 A 
ENDBRANCH   9  10
BRANCH   9  17
ATOM     17  O1  UNL     1      -1.566   6.752 -18.713  0.00  0.00    -0.384 OA
ATOM     18  H4  UNL     1      -2.019   7.311 -18.058  0.00  0.00    +0.211 HD
ENDBRANCH   9  17
ENDBRANCH   1   9
BRANCH   1  19
ATOM     19  C4  UNL     1      -0.068   5.231 -15.862  0.00  0.00    +0.095 C 
BRANCH  19  20
ATOM     20  N1  UNL     1       0.609   4.028 -15.316  0.00  0.00    -0.302 NA
ATOM     21  C5  UNL     1       1.503   3.375 -16.286  0.00  0.00    +0.084 C 
ATOM     22  C6  UNL     1       2.535   2.470 -15.615  0.00  0.00    +0.015 C 
ATOM     23  C7  UNL     1       3.461   3.270 -14.700  0.00  0.00    +0.002 C 
ATOM     24  C8  UNL     1       2.779   4.516 -14.140  0.00  0.00    +0.015 C 
ATOM     25  C9  UNL     1       1.268   4.319 -14.030  0.00  0.00    +0.084 C 
ENDBRANCH  19  20
ENDBRANCH   1  19
TORSDOF 6
ENDMDL
MODEL 3
REMARK VINA RESULT:    -4.528     17.255     19.761
REMARK INTER + INTRA:          -8.265
REMARK INTER:                  -6.072
REMARK INTRA:                  -2.193
REMARK UNBOUND:                -2.282
REMARK  Name = /home/vital/Documents/PhD_2021/Malaria_codes/data/pdb_ligands_mmv/ligand_95.pdb
REMARK  7 active torsions:
REMARK  status: ('A' for Active; 'I' for Inactive)
REMARK    1  A    between atoms: C1_1  and  C2_2
REMARK    2  A    between atoms: C2_2  and  O1_3
REMARK    3  A    between atoms: C2_2  and  C3_4
REMARK    4  A    between atoms: C2_2  and  C16_18
REMARK    5  A    between atoms: C3_4  and  C4_5
REMARK    6  A    between atoms: C3_4  and  C10_12
REMARK    7  A    between atoms: C4_5  and  N1_6
REMARK                            x       y       z     vdW  Elec       q    Type
REMARK                         _______ _______ _______ _____ _____    ______ ____
ROOT
ATOM      1  C3  UNL     1       1.828   5.311 -17.320  0.00  0.00    +0.069 C 
ENDROOT
BRANCH   1   2
ATOM      2  C10 UNL     1       2.264   5.210 -15.857  0.00  0.00    -0.040 A 
ATOM      3  C11 UNL     1       1.423   4.706 -14.853  0.00  0.00    +0.004 A 
ATOM      4  C12 UNL     1       1.852   4.634 -13.526  0.00  0.00    +0.000 A 
ATOM      5  C13 UNL     1       3.130   5.065 -13.182  0.00  0.00    +0.000 A 
ATOM      6  C14 UNL     1       3.981   5.566 -14.163  0.00  0.00    +0.000 A 
ATOM      7  C15 UNL     1       3.552   5.639 -15.489  0.00  0.00    +0.004 A 
ENDBRANCH   1   2
BRANCH   1   9
ATOM      8  C1  UNL     1      -0.309   6.365 -18.324  0.00  0.00    +0.047 C 
ATOM      9  C2  UNL     1       1.050   6.652 -17.648  0.00  0.00    +0.096 C 
BRANCH   9  10
ATOM     10  C16 UNL     1       1.874   7.683 -18.434  0.00  0.00    -0.016 A 
ATOM     11  C17 UNL     1       2.532   8.735 -17.766  0.00  0.00    +0.008 A 
ATOM     12  C18 UNL     1       3.298   9.676 -18.461  0.00  0.00    +0.020 A 
ATOM     13  C19 UNL     1       3.419   9.581 -19.844  0.00  0.00    +0.041 A 
ATOM     14 CL1  UNL     1       4.364  10.732 -20.704  0.00  0.00    -0.084 Cl
ATOM     15  C20 UNL     1       2.779   8.556 -20.532  0.00  0.00    +0.020 A 
ATOM     16  C21 UNL     1       2.012   7.618 -19.832  0.00  0.00    +0.008 A 
ENDBRANCH   9  10
BRANCH   9  17
ATOM     17  O1  UNL     1       0.681   7.277 -16.395  0.00  0.00    -0.384 OA
ATOM     18  H4  UNL     1      -0.288   7.366 -16.382  0.00  0.00    +0.211 HD
ENDBRANCH   9  17
ENDBRANCH   1   9
BRANCH   1  19
ATOM     19  C4  UNL     1       1.081   4.045 -17.862  0.00  0.00    +0.095 C 
BRANCH  19  20
ATOM     20  N1  UNL     1       1.946   2.983 -18.436  0.00  0.00    -0.302 NA
ATOM     21  C5  UNL     1       3.283   3.466 -18.815  0.00  0.00    +0.084 C 
ATOM     22  C6  UNL     1       4.303   2.334 -18.940  0.00  0.00    +0.015 C 
ATOM     23  C7  UNL     1       4.503   1.620 -17.604  0.00  0.00    +0.002 C 
ATOM     24  C8  UNL     1       3.258   1.690 -16.723  0.00  0.00    +0.015 C 
ATOM     25  C9  UNL     1       1.988   1.794 -17.565  0.00  0.00    +0.084 C 
ENDBRANCH  19  20
ENDBRANCH   1  19
TORSDOF 6
ENDMDL
MODEL 4
REMARK VINA RESULT:    -4.454      1.326      2.204
REMARK INTER + INTRA:          -8.169
REMARK INTER:                  -6.710
REMARK INTRA:                  -1.459
REMARK UNBOUND:                -2.282
REMARK  Name = /home/vital/Documents/PhD_2021/Malaria_codes/data/pdb_ligands_mmv/ligand_95.pdb
REMARK  7 active torsions:
REMARK  status: ('A' for Active; 'I' for Inactive)
REMARK    1  A    between atoms: C1_1  and  C2_2
REMARK    2  A    between atoms: C2_2  and  O1_3
REMARK    3  A    between atoms: C2_2  and  C3_4
REMARK    4  A    between atoms: C2_2  and  C16_18
REMARK    5  A    between atoms: C3_4  and  C4_5
REMARK    6  A    between atoms: C3_4  and  C10_12
REMARK    7  A    between atoms: C4_5  and  N1_6
REMARK                            x       y       z     vdW  Elec       q    Type
REMARK                         _______ _______ _______ _____ _____    ______ ____
ROOT
ATOM      1  C3  UNL     1       1.462  -5.341 -32.218  0.00  0.00    +0.069 C 
ENDROOT
BRANCH   1   2
ATOM      2  C10 UNL     1       0.981  -6.690 -32.754  0.00  0.00    -0.040 A 
ATOM      3  C11 UNL     1       1.754  -7.857 -32.658  0.00  0.00    +0.004 A 
ATOM      4  C12 UNL     1       1.287  -9.071 -33.166  0.00  0.00    +0.000 A 
ATOM      5  C13 UNL     1       0.038  -9.138 -33.777  0.00  0.00    +0.000 A 
ATOM      6  C14 UNL     1      -0.745  -7.992 -33.880  0.00  0.00    +0.000 A 
ATOM      7  C15 UNL     1      -0.278  -6.778 -33.374  0.00  0.00    +0.004 A 
ENDBRANCH   1   2
BRANCH   1   9
ATOM      8  C1  UNL     1       3.505  -3.821 -32.666  0.00  0.00    +0.047 C 
ATOM      9  C2  UNL     1       2.261  -4.490 -33.290  0.00  0.00    +0.096 C 
BRANCH   9  10
ATOM     10  C16 UNL     1       1.398  -3.486 -34.067  0.00  0.00    -0.016 A 
ATOM     11  C17 UNL     1       1.045  -2.247 -33.493  0.00  0.00    +0.008 A 
ATOM     12  C18 UNL     1       0.272  -1.314 -34.190  0.00  0.00    +0.020 A 
ATOM     13  C19 UNL     1      -0.165  -1.604 -35.478  0.00  0.00    +0.041 A 
ATOM     14 CL1  UNL     1      -1.112  -0.456 -36.342  0.00  0.00    -0.084 Cl
ATOM     15  C20 UNL     1       0.164  -2.818 -36.071  0.00  0.00    +0.020 A 
ATOM     16  C21 UNL     1       0.936  -3.750 -35.369  0.00  0.00    +0.008 A 
ENDBRANCH   9  10
BRANCH   9  17
ATOM     17  O1  UNL     1       2.820  -5.405 -34.263  0.00  0.00    -0.384 OA
ATOM     18  H4  UNL     1       2.080  -5.839 -34.721  0.00  0.00    +0.211 HD
ENDBRANCH   9  17
ENDBRANCH   1   9
BRANCH   1  19
ATOM     19  C4  UNL     1       2.214  -5.420 -30.845  0.00  0.00    +0.095 C 
BRANCH  19  20
ATOM     20  N1  UNL     1       1.369  -5.246 -29.636  0.00  0.00    -0.302 NA
ATOM     21  C5  UNL     1       0.787  -6.507 -29.149  0.00  0.00    +0.084 C 
ATOM     22  C6  UNL     1       0.342  -6.422 -27.689  0.00  0.00    +0.015 C 
ATOM     23  C7  UNL     1       1.528  -6.149 -26.764  0.00  0.00    +0.002 C 
ATOM     24  C8  UNL     1       2.640  -5.375 -27.469  0.00  0.00    +0.015 C 
ATOM     25  C9  UNL     1       2.081  -4.496 -28.585  0.00  0.00    +0.084 C 
ENDBRANCH  19  20
ENDBRANCH   1  19
TORSDOF 6
ENDMDL
MODEL 5
REMARK VINA RESULT:    -4.444      9.666     12.409
REMARK INTER + INTRA:          -8.155
REMARK INTER:                  -5.930
REMARK INTRA:                  -2.225
REMARK UNBOUND:                -2.282
REMARK  Name = /home/vital/Documents/PhD_2021/Malaria_codes/data/pdb_ligands_mmv/ligand_95.pdb
REMARK  7 active torsions:
REMARK  status: ('A' for Active; 'I' for Inactive)
REMARK    1  A    between atoms: C1_1  and  C2_2
REMARK    2  A    between atoms: C2_2  and  O1_3
REMARK    3  A    between atoms: C2_2  and  C3_4
REMARK    4  A    between atoms: C2_2  and  C16_18
REMARK    5  A    between atoms: C3_4  and  C4_5
REMARK    6  A    between atoms: C3_4  and  C10_12
REMARK    7  A    between atoms: C4_5  and  N1_6
REMARK                            x       y       z     vdW  Elec       q    Type
REMARK                         _______ _______ _______ _____ _____    ______ ____
ROOT
ATOM      1  C3  UNL     1      -0.245  -3.452 -22.268  0.00  0.00    +0.069 C 
ENDROOT
BRANCH   1   2
ATOM      2  C10 UNL     1       0.598  -3.008 -21.072  0.00  0.00    -0.040 A 
ATOM      3  C11 UNL     1       0.319  -1.841 -20.345  0.00  0.00    +0.004 A 
ATOM      4  C12 UNL     1       1.114  -1.462 -19.262  0.00  0.00    +0.000 A 
ATOM      5  C13 UNL     1       2.203  -2.245 -18.888  0.00  0.00    +0.000 A 
ATOM      6  C14 UNL     1       2.496  -3.408 -19.594  0.00  0.00    +0.000 A 
ATOM      7  C15 UNL     1       1.701  -3.786 -20.677  0.00  0.00    +0.004 A 
ENDBRANCH   1   2
BRANCH   1   9
ATOM      8  C1  UNL     1      -1.553  -5.675 -22.454  0.00  0.00    +0.047 C 
ATOM      9  C2  UNL     1      -1.548  -4.253 -21.853  0.00  0.00    +0.096 C 
BRANCH   9  10
ATOM     10  C16 UNL     1      -2.861  -3.508 -22.131  0.00  0.00    -0.016 A 
ATOM     11  C17 UNL     1      -3.465  -2.718 -21.132  0.00  0.00    +0.008 A 
ATOM     12  C18 UNL     1      -4.654  -2.022 -21.370  0.00  0.00    +0.020 A 
ATOM     13  C19 UNL     1      -5.263  -2.103 -22.618  0.00  0.00    +0.041 A 
ATOM     14 CL1  UNL     1      -6.722  -1.243 -22.918  0.00  0.00    -0.084 Cl
ATOM     15  C20 UNL     1      -4.694  -2.876 -23.624  0.00  0.00    +0.020 A 
ATOM     16  C21 UNL     1      -3.505  -3.573 -23.380  0.00  0.00    +0.008 A 
ENDBRANCH   9  10
BRANCH   9  17
ATOM     17  O1  UNL     1      -1.494  -4.488 -20.425  0.00  0.00    -0.384 OA
ATOM     18  H4  UNL     1      -2.366  -4.264 -20.055  0.00  0.00    +0.211 HD
ENDBRANCH   9  17
ENDBRANCH   1   9
BRANCH   1  19
ATOM     19  C4  UNL     1       0.564  -4.182 -23.396  0.00  0.00    +0.095 C 
BRANCH  19  20
ATOM     20  N1  UNL     1       0.942  -3.345 -24.562  0.00  0.00    -0.302 NA
ATOM     21  C5  UNL     1       0.083  -2.163 -24.731  0.00  0.00    +0.084 C 
ATOM     22  C6  UNL     1       0.736  -1.080 -25.590  0.00  0.00    +0.015 C 
ATOM     23  C7  UNL     1       2.013  -0.552 -24.937  0.00  0.00    +0.002 C 
ATOM     24  C8  UNL     1       2.683  -1.601 -24.053  0.00  0.00    +0.015 C 
ATOM     25  C9  UNL     1       2.380  -3.015 -24.544  0.00  0.00    +0.084 C 
ENDBRANCH  19  20
ENDBRANCH   1  19
TORSDOF 6
ENDMDL
MODEL 6
REMARK VINA RESULT:    -4.423      9.670     12.391
REMARK INTER + INTRA:          -8.128
REMARK INTER:                  -5.919
REMARK INTRA:                  -2.209
REMARK UNBOUND:                -2.282
REMARK  Name = /home/vital/Documents/PhD_2021/Malaria_codes/data/pdb_ligands_mmv/ligand_95.pdb
REMARK  7 active torsions:
REMARK  status: ('A' for Active; 'I' for Inactive)
REMARK    1  A    between atoms: C1_1  and  C2_2
REMARK    2  A    between atoms: C2_2  and  O1_3
REMARK    3  A    between atoms: C2_2  and  C3_4
REMARK    4  A    between atoms: C2_2  and  C16_18
REMARK    5  A    between atoms: C3_4  and  C4_5
REMARK    6  A    between atoms: C3_4  and  C10_12
REMARK    7  A    between atoms: C4_5  and  N1_6
REMARK                            x       y       z     vdW  Elec       q    Type
REMARK                         _______ _______ _______ _____ _____    ______ ____
ROOT
ATOM      1  C3  UNL     1      -0.298  -3.441 -22.263  0.00  0.00    +0.069 C 
ENDROOT
BRANCH   1   2
ATOM      2  C10 UNL     1       0.525  -2.995 -21.053  0.00  0.00    -0.040 A 
ATOM      3  C11 UNL     1       0.189  -1.869 -20.286  0.00  0.00    +0.004 A 
ATOM      4  C12 UNL     1       0.968  -1.487 -19.192  0.00  0.00    +0.000 A 
ATOM      5  C13 UNL     1       2.097  -2.225 -18.847  0.00  0.00    +0.000 A 
ATOM      6  C14 UNL     1       2.446  -3.346 -19.594  0.00  0.00    +0.000 A 
ATOM      7  C15 UNL     1       1.668  -3.728 -20.687  0.00  0.00    +0.004 A 
ENDBRANCH   1   2
BRANCH   1   9
ATOM      8  C1  UNL     1      -1.635  -5.641 -22.515  0.00  0.00    +0.047 C 
ATOM      9  C2  UNL     1      -1.609  -4.239 -21.867  0.00  0.00    +0.096 C 
BRANCH   9  10
ATOM     10  C16 UNL     1      -2.914  -3.469 -22.114  0.00  0.00    -0.016 A 
ATOM     11  C17 UNL     1      -3.549  -3.517 -23.372  0.00  0.00    +0.008 A 
ATOM     12  C18 UNL     1      -4.744  -2.834 -23.613  0.00  0.00    +0.020 A 
ATOM     13  C19 UNL     1      -5.329  -2.086 -22.597  0.00  0.00    +0.041 A 
ATOM     14 CL1  UNL     1      -6.803  -1.248 -22.887  0.00  0.00    -0.084 Cl
ATOM     15  C20 UNL     1      -4.726  -2.015 -21.346  0.00  0.00    +0.020 A 
ATOM     16  C21 UNL     1      -3.528  -2.699 -21.110  0.00  0.00    +0.008 A 
ENDBRANCH   9  10
BRANCH   9  17
ATOM     17  O1  UNL     1      -1.552  -4.522 -20.448  0.00  0.00    -0.384 OA
ATOM     18  H4  UNL     1      -0.987  -5.304 -20.324  0.00  0.00    +0.211 HD
ENDBRANCH   9  17
ENDBRANCH   1   9
BRANCH   1  19
ATOM     19  C4  UNL     1       0.528  -4.174 -23.374  0.00  0.00    +0.095 C 
BRANCH  19  20
ATOM     20  N1  UNL     1       0.914  -3.345 -24.543  0.00  0.00    -0.302 NA
ATOM     21  C5  UNL     1       0.051  -2.168 -24.731  0.00  0.00    +0.084 C 
ATOM     22  C6  UNL     1       0.707  -1.089 -25.591  0.00  0.00    +0.015 C 
ATOM     23  C7  UNL     1       1.974  -0.549 -24.930  0.00  0.00    +0.002 C 
ATOM     24  C8  UNL     1       2.641  -1.588 -24.032  0.00  0.00    +0.015 C 
ATOM     25  C9  UNL     1       2.350  -3.008 -24.514  0.00  0.00    +0.084 C 
ENDBRANCH  19  20
ENDBRANCH   1  19
TORSDOF 6
ENDMDL
MODEL 7
REMARK VINA RESULT:    -4.335     12.845     14.598
REMARK INTER + INTRA:          -8.010
REMARK INTER:                  -5.707
REMARK INTRA:                  -2.304
REMARK UNBOUND:                -2.282
REMARK  Name = /home/vital/Documents/PhD_2021/Malaria_codes/data/pdb_ligands_mmv/ligand_95.pdb
REMARK  7 active torsions:
REMARK  status: ('A' for Active; 'I' for Inactive)
REMARK    1  A    between atoms: C1_1  and  C2_2
REMARK    2  A    between atoms: C2_2  and  O1_3
REMARK    3  A    between atoms: C2_2  and  C3_4
REMARK    4  A    between atoms: C2_2  and  C16_18
REMARK    5  A    between atoms: C3_4  and  C4_5
REMARK    6  A    between atoms: C3_4  and  C10_12
REMARK    7  A    between atoms: C4_5  and  N1_6
REMARK                            x       y       z     vdW  Elec       q    Type
REMARK                         _______ _______ _______ _____ _____    ______ ____
ROOT
ATOM      1  C3  UNL     1       0.188  -0.265 -19.682  0.00  0.00    +0.069 C 
ENDROOT
BRANCH   1   2
ATOM      2  C10 UNL     1      -1.084  -1.089 -19.888  0.00  0.00    -0.040 A 
ATOM      3  C11 UNL     1      -1.176  -2.106 -20.851  0.00  0.00    +0.004 A 
ATOM      4  C12 UNL     1      -2.356  -2.834 -21.016  0.00  0.00    +0.000 A 
ATOM      5  C13 UNL     1      -3.464  -2.558 -20.219  0.00  0.00    +0.000 A 
ATOM      6  C14 UNL     1      -3.393  -1.554 -19.257  0.00  0.00    +0.000 A 
ATOM      7  C15 UNL     1      -2.214  -0.826 -19.092  0.00  0.00    +0.004 A 
ENDBRANCH   1   2
BRANCH   1   9
ATOM      8  C1  UNL     1       2.060   0.011 -17.919  0.00  0.00    +0.047 C 
ATOM      9  C2  UNL     1       1.268  -0.996 -18.782  0.00  0.00    +0.096 C 
BRANCH   9  10
ATOM     10  C16 UNL     1       2.197  -1.942 -19.556  0.00  0.00    -0.016 A 
ATOM     11  C17 UNL     1       2.579  -3.183 -19.007  0.00  0.00    +0.008 A 
ATOM     12  C18 UNL     1       3.413  -4.064 -19.701  0.00  0.00    +0.020 A 
ATOM     13  C19 UNL     1       3.884  -3.718 -20.963  0.00  0.00    +0.041 A 
ATOM     14 CL1  UNL     1       4.906  -4.801 -21.825  0.00  0.00    -0.084 Cl
ATOM     15  C20 UNL     1       3.529  -2.500 -21.532  0.00  0.00    +0.020 A 
ATOM     16  C21 UNL     1       2.695  -1.620 -20.832  0.00  0.00    +0.008 A 
ENDBRANCH   9  10
BRANCH   9  17
ATOM     17  O1  UNL     1       0.568  -1.803 -17.805  0.00  0.00    -0.384 OA
ATOM     18  H4  UNL     1       1.221  -2.384 -17.377  0.00  0.00    +0.211 HD
ENDBRANCH   9  17
ENDBRANCH   1   9
BRANCH   1  19
ATOM     19  C4  UNL     1      -0.064   1.212 -19.222  0.00  0.00    +0.095 C 
BRANCH  19  20
ATOM     20  N1  UNL     1      -0.110   2.225 -20.306  0.00  0.00    -0.302 NA
ATOM     21  C5  UNL     1       0.525   1.771 -21.553  0.00  0.00    +0.084 C 
ATOM     22  C6  UNL     1       0.070   2.574 -22.771  0.00  0.00    +0.015 C 
ATOM     23  C7  UNL     1      -1.431   2.413 -23.009  0.00  0.00    +0.002 C 
ATOM     24  C8  UNL     1      -2.191   2.128 -21.716  0.00  0.00    +0.015 C 
ATOM     25  C9  UNL     1      -1.479   2.735 -20.509  0.00  0.00    +0.084 C 
ENDBRANCH  19  20
ENDBRANCH   1  19
TORSDOF 6
ENDMDL
MODEL 8
REMARK VINA RESULT:    -4.214     10.752     13.179
REMARK INTER + INTRA:          -7.851
REMARK INTER:                  -5.809
REMARK INTRA:                  -2.041
REMARK UNBOUND:                -2.282
REMARK  Name = /home/vital/Documents/PhD_2021/Malaria_codes/data/pdb_ligands_mmv/ligand_95.pdb
REMARK  7 active torsions:
REMARK  status: ('A' for Active; 'I' for Inactive)
REMARK    1  A    between atoms: C1_1  and  C2_2
REMARK    2  A    between atoms: C2_2  and  O1_3
REMARK    3  A    between atoms: C2_2  and  C3_4
REMARK    4  A    between atoms: C2_2  and  C16_18
REMARK    5  A    between atoms: C3_4  and  C4_5
REMARK    6  A    between atoms: C3_4  and  C10_12
REMARK    7  A    between atoms: C4_5  and  N1_6
REMARK                            x       y       z     vdW  Elec       q    Type
REMARK                         _______ _______ _______ _____ _____    ______ ____
ROOT
ATOM      1  C3  UNL     1      -1.564  -1.540 -20.502  0.00  0.00    +0.069 C 
ENDROOT
BRANCH   1   2
ATOM      2  C10 UNL     1      -1.808  -2.666 -21.508  0.00  0.00    -0.040 A 
ATOM      3  C11 UNL     1      -2.159  -3.966 -21.113  0.00  0.00    +0.004 A 
ATOM      4  C12 UNL     1      -2.367  -4.972 -22.060  0.00  0.00    +0.000 A 
ATOM      5  C13 UNL     1      -2.230  -4.693 -23.417  0.00  0.00    +0.000 A 
ATOM      6  C14 UNL     1      -1.885  -3.409 -23.829  0.00  0.00    +0.000 A 
ATOM      7  C15 UNL     1      -1.675  -2.404 -22.884  0.00  0.00    +0.004 A 
ENDBRANCH   1   2
BRANCH   1   9
ATOM      8  C1  UNL     1      -3.467  -1.469 -18.752  0.00  0.00    +0.047 C 
ATOM      9  C2  UNL     1      -2.895  -0.821 -20.033  0.00  0.00    +0.096 C 
BRANCH   9  10
ATOM     10  C16 UNL     1      -3.960  -0.687 -21.131  0.00  0.00    -0.016 A 
ATOM     11  C17 UNL     1      -5.015  -1.617 -21.226  0.00  0.00    +0.008 A 
ATOM     12  C18 UNL     1      -6.001  -1.504 -22.211  0.00  0.00    +0.020 A 
ATOM     13  C19 UNL     1      -5.949  -0.455 -23.123  0.00  0.00    +0.041 A 
ATOM     14 CL1  UNL     1      -7.163  -0.309 -24.333  0.00  0.00    -0.084 Cl
ATOM     15  C20 UNL     1      -4.919   0.477 -23.058  0.00  0.00    +0.020 A 
ATOM     16  C21 UNL     1      -3.933   0.359 -22.072  0.00  0.00    +0.008 A 
ENDBRANCH   9  10
BRANCH   9  17
ATOM     17  O1  UNL     1      -2.557   0.522 -19.611  0.00  0.00    -0.384 OA
ATOM     18  H4  UNL     1      -3.387   0.988 -19.410  0.00  0.00    +0.211 HD
ENDBRANCH   9  17
ENDBRANCH   1   9
BRANCH   1  19
ATOM     19  C4  UNL     1      -0.457  -0.516 -20.932  0.00  0.00    +0.095 C 
BRANCH  19  20
ATOM     20  N1  UNL     1       0.864  -0.683 -20.277  0.00  0.00    -0.302 NA
ATOM     21  C5  UNL     1       0.774  -1.256 -18.925  0.00  0.00    +0.084 C 
ATOM     22  C6  UNL     1       2.095  -1.865 -18.456  0.00  0.00    +0.015 C 
ATOM     23  C7  UNL     1       2.516  -3.029 -19.352  0.00  0.00    +0.002 C 
ATOM     24  C8  UNL     1       1.989  -2.877 -20.777  0.00  0.00    +0.015 C 
ATOM     25  C9  UNL     1       1.810  -1.406 -21.148  0.00  0.00    +0.084 C 
ENDBRANCH  19  20
ENDBRANCH   1  19
TORSDOF 6
ENDMDL
MODEL 9
REMARK VINA RESULT:    -3.888     11.191     13.023
REMARK INTER + INTRA:          -7.421
REMARK INTER:                  -5.816
REMARK INTRA:                  -1.605
REMARK UNBOUND:                -2.282
REMARK  Name = /home/vital/Documents/PhD_2021/Malaria_codes/data/pdb_ligands_mmv/ligand_95.pdb
REMARK  7 active torsions:
REMARK  status: ('A' for Active; 'I' for Inactive)
REMARK    1  A    between atoms: C1_1  and  C2_2
REMARK    2  A    between atoms: C2_2  and  O1_3
REMARK    3  A    between atoms: C2_2  and  C3_4
REMARK    4  A    between atoms: C2_2  and  C16_18
REMARK    5  A    between atoms: C3_4  and  C4_5
REMARK    6  A    between atoms: C3_4  and  C10_12
REMARK    7  A    between atoms: C4_5  and  N1_6
REMARK                            x       y       z     vdW  Elec       q    Type
REMARK                         _______ _______ _______ _____ _____    ______ ____
ROOT
ATOM      1  C3  UNL     1      -0.580  -3.179 -21.703  0.00  0.00    +0.069 C 
ENDROOT
BRANCH   1   2
ATOM      2  C10 UNL     1      -0.731  -1.724 -21.258  0.00  0.00    -0.040 A 
ATOM      3  C11 UNL     1      -0.828  -1.355 -19.908  0.00  0.00    +0.004 A 
ATOM      4  C12 UNL     1      -0.973  -0.016 -19.539  0.00  0.00    +0.000 A 
ATOM      5  C13 UNL     1      -1.021   0.977 -20.514  0.00  0.00    +0.000 A 
ATOM      6  C14 UNL     1      -0.924   0.631 -21.859  0.00  0.00    +0.000 A 
ATOM      7  C15 UNL     1      -0.781  -0.707 -22.229  0.00  0.00    +0.004 A 
ENDBRANCH   1   2
BRANCH   1   9
ATOM      8  C1  UNL     1      -1.802  -5.370 -22.330  0.00  0.00    +0.047 C 
ATOM      9  C2  UNL     1      -1.934  -3.999 -21.632  0.00  0.00    +0.096 C 
BRANCH   9  10
ATOM     10  C16 UNL     1      -3.166  -3.223 -22.122  0.00  0.00    -0.016 A 
ATOM     11  C17 UNL     1      -3.492  -3.184 -23.492  0.00  0.00    +0.008 A 
ATOM     12  C18 UNL     1      -4.617  -2.494 -23.956  0.00  0.00    +0.020 A 
ATOM     13  C19 UNL     1      -5.438  -1.827 -23.053  0.00  0.00    +0.041 A 
ATOM     14 CL1  UNL     1      -6.826  -0.982 -23.618  0.00  0.00    -0.084 Cl
ATOM     15  C20 UNL     1      -5.141  -1.844 -21.695  0.00  0.00    +0.020 A 
ATOM     16  C21 UNL     1      -4.014  -2.534 -21.235  0.00  0.00    +0.008 A 
ENDBRANCH   9  10
BRANCH   9  17
ATOM     17  O1  UNL     1      -2.180  -4.345 -20.248  0.00  0.00    -0.384 OA
ATOM     18  H4  UNL     1      -2.989  -3.884 -19.966  0.00  0.00    +0.211 HD
ENDBRANCH   9  17
ENDBRANCH   1   9
BRANCH   1  19
ATOM     19  C4  UNL     1       0.610  -3.943 -21.026  0.00  0.00    +0.095 C 
BRANCH  19  20
ATOM     20  N1  UNL     1       1.893  -3.201 -20.951  0.00  0.00    -0.302 NA
ATOM     21  C5  UNL     1       2.607  -3.402 -19.680  0.00  0.00    +0.084 C 
ATOM     22  C6  UNL     1       4.093  -3.059 -19.781  0.00  0.00    +0.015 C 
ATOM     23  C7  UNL     1       4.804  -3.967 -20.783  0.00  0.00    +0.002 C 
ATOM     24  C8  UNL     1       3.863  -4.460 -21.880  0.00  0.00    +0.015 C 
ATOM     25  C9  UNL     1       2.736  -3.462 -22.133  0.00  0.00    +0.084 C 
ENDBRANCH  19  20
ENDBRANCH   1  19
TORSDOF 6
ENDMDL
