MODEL 1
REMARK VINA RESULT:    -7.913      0.000      0.000
REMARK INTER + INTRA:         -11.395
REMARK INTER:                 -10.688
REMARK INTRA:                  -0.707
REMARK UNBOUND:                -0.707
REMARK  Name = /home/vital/Documents/PhD_2021/Malaria_codes/data/pdb_ligands_mmv/ligand_352.pdb
REMARK  6 active torsions:
REMARK  status: ('A' for Active; 'I' for Inactive)
REMARK    1  A    between atoms: C2_4  and  C3_5
REMARK    2  A    between atoms: C8_12  and  C9_13
REMARK    3  A    between atoms: C11_18  and  C12_19
REMARK    4  A    between atoms: N3_21  and  C13_22
REMARK    5  A    between atoms: N4_27  and  C18_28
REMARK    6  A    between atoms: C18_28  and  C19_29
REMARK                            x       y       z     vdW  Elec       q    Type
REMARK                         _______ _______ _______ _____ _____    ______ ____
ROOT
ATOM      1  N1  UNL     1       6.099  -3.843 -26.612  0.00  0.00    -0.209 N 
ATOM      2  C1  UNL     1       4.719  -4.042 -26.562  0.00  0.00    +0.157 A 
ATOM      3  N2  UNL     1       4.032  -4.113 -25.387  0.00  0.00    -0.227 NA
ATOM      4  C2  UNL     1       4.705  -3.988 -24.275  0.00  0.00    +0.082 A 
ATOM      5  C7  UNL     1       6.193  -3.775 -24.250  0.00  0.00    +0.061 A 
ATOM      6  C8  UNL     1       6.828  -3.711 -25.437  0.00  0.00    +0.149 A 
ATOM      7  C10 UNL     1       4.294  -4.134 -27.865  0.00  0.00    +0.083 A 
ATOM      8  C11 UNL     1       5.453  -3.988 -28.656  0.00  0.00    +0.150 A 
ATOM      9  N5  UNL     1       6.549  -3.807 -27.892  0.00  0.00    -0.160 NA
ENDROOT
BRANCH   4  10
ATOM     10  C3  UNL     1       3.996  -4.056 -22.996  0.00  0.00    +0.039 A 
ATOM     11  C4  UNL     1       4.412  -4.551 -21.767  0.00  0.00    +0.019 A 
ATOM     12  C5  UNL     1       3.412  -4.435 -20.753  0.00  0.00    +0.028 A 
ATOM     13  C6  UNL     1       2.274  -3.857 -21.247  0.00  0.00    +0.079 A 
ATOM     14 CL1  UNL     1       0.831  -3.530 -20.375  0.00  0.00    -0.076 Cl
ATOM     15  S1  UNL     1       2.381  -3.454 -22.881  0.00  0.00    -0.075 S 
ENDBRANCH   4  10
BRANCH   6  16
ATOM     16  C9  UNL     1       8.286  -3.507 -25.583  0.00  0.00    +0.434 C 
ATOM     17  F1  UNL     1       8.596  -2.335 -26.190  0.00  0.00    -0.164 F 
ATOM     18  F2  UNL     1       8.849  -4.485 -26.347  0.00  0.00    -0.164 F 
ATOM     19  F3  UNL     1       8.942  -3.541 -24.395  0.00  0.00    -0.164 F 
ENDBRANCH   6  16
BRANCH   8  20
ATOM     20  C12 UNL     1       5.528  -4.008 -30.125  0.00  0.00    +0.264 C 
ATOM     21  O1  UNL     1       6.583  -4.127 -30.737  0.00  0.00    -0.268 OA
ATOM     22  N3  UNL     1       4.292  -3.899 -30.727  0.00  0.00    -0.307 N 
ATOM     23  H5  UNL     1       3.507  -3.933 -30.083  0.00  0.00    +0.149 HD
BRANCH  22  24
ATOM     24  C13 UNL     1       4.086  -4.092 -32.155  0.00  0.00    +0.076 C 
ATOM     25  C14 UNL     1       2.924  -3.241 -32.666  0.00  0.00    +0.037 C 
ATOM     26  C15 UNL     1       1.565  -3.804 -32.248  0.00  0.00    +0.086 C 
ATOM     27  C16 UNL     1       3.858  -5.565 -32.496  0.00  0.00    +0.037 C 
ATOM     28  C17 UNL     1       2.470  -6.043 -32.069  0.00  0.00    +0.086 C 
ATOM     29  N4  UNL     1       1.415  -5.205 -32.662  0.00  0.00    -0.298 NA
BRANCH  29  30
ATOM     30  C18 UNL     1       0.071  -5.696 -32.297  0.00  0.00    +0.119 C 
BRANCH  30  31
ATOM     31  C19 UNL     1      -0.108  -7.185 -32.509  0.00  0.00    -0.033 A 
ATOM     32  C20 UNL     1      -0.532  -8.010 -31.457  0.00  0.00    +0.005 A 
ATOM     33  C21 UNL     1      -0.712  -9.380 -31.660  0.00  0.00    +0.000 A 
ATOM     34  C22 UNL     1      -0.475  -9.937 -32.915  0.00  0.00    +0.000 A 
ATOM     35  C23 UNL     1      -0.059  -9.128 -33.970  0.00  0.00    +0.000 A 
ATOM     36  C24 UNL     1       0.122  -7.758 -33.768  0.00  0.00    +0.005 A 
ENDBRANCH  30  31
ENDBRANCH  29  30
ENDBRANCH  22  24
ENDBRANCH   8  20
TORSDOF 6
ENDMDL
MODEL 2
REMARK VINA RESULT:    -7.748      9.270     14.707
REMARK INTER + INTRA:         -11.172
REMARK INTER:                 -10.289
REMARK INTRA:                  -0.883
REMARK UNBOUND:                -0.707
REMARK  Name = /home/vital/Documents/PhD_2021/Malaria_codes/data/pdb_ligands_mmv/ligand_352.pdb
REMARK  6 active torsions:
REMARK  status: ('A' for Active; 'I' for Inactive)
REMARK    1  A    between atoms: C2_4  and  C3_5
REMARK    2  A    between atoms: C8_12  and  C9_13
REMARK    3  A    between atoms: C11_18  and  C12_19
REMARK    4  A    between atoms: N3_21  and  C13_22
REMARK    5  A    between atoms: N4_27  and  C18_28
REMARK    6  A    between atoms: C18_28  and  C19_29
REMARK                            x       y       z     vdW  Elec       q    Type
REMARK                         _______ _______ _______ _____ _____    ______ ____
ROOT
ATOM      1  N1  UNL     1      -1.133  -1.267 -20.024  0.00  0.00    -0.209 N 
ATOM      2  C1  UNL     1      -0.204  -1.882 -20.864  0.00  0.00    +0.157 A 
ATOM      3  N2  UNL     1      -0.574  -2.652 -21.926  0.00  0.00    -0.227 NA
ATOM      4  C2  UNL     1      -1.850  -2.811 -22.153  0.00  0.00    +0.082 A 
ATOM      5  C7  UNL     1      -2.909  -2.183 -21.290  0.00  0.00    +0.061 A 
ATOM      6  C8  UNL     1      -2.493  -1.430 -20.252  0.00  0.00    +0.149 A 
ATOM      7  C10 UNL     1       1.037  -1.537 -20.386  0.00  0.00    +0.083 A 
ATOM      8  C11 UNL     1       0.798  -0.721 -19.260  0.00  0.00    +0.150 A 
ATOM      9  N5  UNL     1      -0.522  -0.555 -19.045  0.00  0.00    -0.160 NA
ENDROOT
BRANCH   4  10
ATOM     10  C3  UNL     1      -2.281  -3.629 -23.288  0.00  0.00    +0.039 A 
ATOM     11  C4  UNL     1      -3.558  -3.952 -23.725  0.00  0.00    +0.019 A 
ATOM     12  C5  UNL     1      -3.556  -4.788 -24.884  0.00  0.00    +0.028 A 
ATOM     13  C6  UNL     1      -2.278  -5.070 -25.285  0.00  0.00    +0.079 A 
ATOM     14 CL1  UNL     1      -1.817  -6.035 -26.628  0.00  0.00    -0.076 Cl
ATOM     15  S1  UNL     1      -1.097  -4.359 -24.314  0.00  0.00    -0.075 S 
ENDBRANCH   4  10
BRANCH   6  16
ATOM     16  C9  UNL     1      -3.408  -0.747 -19.311  0.00  0.00    +0.434 C 
ATOM     17  F1  UNL     1      -3.160   0.581 -19.206  0.00  0.00    -0.164 F 
ATOM     18  F2  UNL     1      -3.288  -1.250 -18.051  0.00  0.00    -0.164 F 
ATOM     19  F3  UNL     1      -4.714  -0.897 -19.647  0.00  0.00    -0.164 F 
ENDBRANCH   6  16
BRANCH   8  20
ATOM     20  C12 UNL     1       1.809  -0.091 -18.396  0.00  0.00    +0.264 C 
ATOM     21  O1  UNL     1       2.890  -0.611 -18.147  0.00  0.00    -0.268 OA
ATOM     22  N3  UNL     1       1.415   1.142 -17.919  0.00  0.00    -0.307 N 
ATOM     23  H5  UNL     1       0.546   1.487 -18.316  0.00  0.00    +0.149 HD
BRANCH  22  24
ATOM     24  C13 UNL     1       2.314   2.042 -17.213  0.00  0.00    +0.076 C 
ATOM     25  C14 UNL     1       1.557   2.893 -16.194  0.00  0.00    +0.037 C 
ATOM     26  C15 UNL     1       0.737   4.000 -16.859  0.00  0.00    +0.086 C 
ATOM     27  C16 UNL     1       3.091   2.936 -18.181  0.00  0.00    +0.037 C 
ATOM     28  C17 UNL     1       2.208   4.031 -18.782  0.00  0.00    +0.086 C 
ATOM     29  N4  UNL     1       1.574   4.839 -17.727  0.00  0.00    -0.298 NA
BRANCH  29  30
ATOM     30  C18 UNL     1       0.765   5.931 -18.302  0.00  0.00    +0.119 C 
BRANCH  30  31
ATOM     31  C19 UNL     1       1.482   7.266 -18.333  0.00  0.00    -0.033 A 
ATOM     32  C20 UNL     1       1.645   8.016 -17.160  0.00  0.00    +0.005 A 
ATOM     33  C21 UNL     1       2.320   9.238 -17.189  0.00  0.00    +0.000 A 
ATOM     34  C22 UNL     1       2.843   9.719 -18.387  0.00  0.00    +0.000 A 
ATOM     35  C23 UNL     1       2.692   8.980 -19.559  0.00  0.00    +0.000 A 
ATOM     36  C24 UNL     1       2.017   7.759 -19.532  0.00  0.00    +0.005 A 
ENDBRANCH  30  31
ENDBRANCH  29  30
ENDBRANCH  22  24
ENDBRANCH   8  20
TORSDOF 6
ENDMDL
MODEL 3
REMARK VINA RESULT:    -7.745      7.481     10.427
REMARK INTER + INTRA:         -11.168
REMARK INTER:                 -10.325
REMARK INTRA:                  -0.843
REMARK UNBOUND:                -0.707
REMARK  Name = /home/vital/Documents/PhD_2021/Malaria_codes/data/pdb_ligands_mmv/ligand_352.pdb
REMARK  6 active torsions:
REMARK  status: ('A' for Active; 'I' for Inactive)
REMARK    1  A    between atoms: C2_4  and  C3_5
REMARK    2  A    between atoms: C8_12  and  C9_13
REMARK    3  A    between atoms: C11_18  and  C12_19
REMARK    4  A    between atoms: N3_21  and  C13_22
REMARK    5  A    between atoms: N4_27  and  C18_28
REMARK    6  A    between atoms: C18_28  and  C19_29
REMARK                            x       y       z     vdW  Elec       q    Type
REMARK                         _______ _______ _______ _____ _____    ______ ____
ROOT
ATOM      1  N1  UNL     1       7.495  -2.487 -23.629  0.00  0.00    -0.209 N 
ATOM      2  C1  UNL     1       8.181  -1.447 -23.000  0.00  0.00    +0.157 A 
ATOM      3  N2  UNL     1       9.067  -0.650 -23.662  0.00  0.00    -0.227 NA
ATOM      4  C2  UNL     1       9.270  -0.881 -24.931  0.00  0.00    +0.082 A 
ATOM      5  C7  UNL     1       8.570  -1.984 -25.674  0.00  0.00    +0.061 A 
ATOM      6  C8  UNL     1       7.703  -2.745 -24.977  0.00  0.00    +0.149 A 
ATOM      7  C10 UNL     1       7.767  -1.446 -21.691  0.00  0.00    +0.083 A 
ATOM      8  C11 UNL     1       6.838  -2.503 -21.584  0.00  0.00    +0.150 A 
ATOM      9  N5  UNL     1       6.671  -3.131 -22.764  0.00  0.00    -0.160 NA
ENDROOT
BRANCH   4  10
ATOM     10  C3  UNL     1      10.213  -0.040 -25.672  0.00  0.00    +0.039 A 
ATOM     11  C4  UNL     1      11.047  -0.355 -26.736  0.00  0.00    +0.019 A 
ATOM     12  C5  UNL     1      11.825   0.759 -27.181  0.00  0.00    +0.028 A 
ATOM     13  C6  UNL     1      11.554   1.877 -26.440  0.00  0.00    +0.079 A 
ATOM     14 CL1  UNL     1      12.260   3.429 -26.635  0.00  0.00    -0.076 Cl
ATOM     15  S1  UNL     1      10.398   1.622 -25.238  0.00  0.00    -0.075 S 
ENDBRANCH   4  10
BRANCH   6  16
ATOM     16  C9  UNL     1       6.936  -3.868 -25.562  0.00  0.00    +0.434 C 
ATOM     17  F1  UNL     1       7.313  -4.159 -26.831  0.00  0.00    -0.164 F 
ATOM     18  F2  UNL     1       5.606  -3.581 -25.622  0.00  0.00    -0.164 F 
ATOM     19  F3  UNL     1       7.037  -5.008 -24.831  0.00  0.00    -0.164 F 
ENDBRANCH   6  16
BRANCH   8  20
ATOM     20  C12 UNL     1       6.103  -2.913 -20.377  0.00  0.00    +0.264 C 
ATOM     21  O1  UNL     1       6.643  -3.073 -19.289  0.00  0.00    -0.268 OA
ATOM     22  N3  UNL     1       4.752  -3.078 -20.601  0.00  0.00    -0.307 N 
ATOM     23  H5  UNL     1       4.441  -2.789 -21.525  0.00  0.00    +0.149 HD
BRANCH  22  24
ATOM     24  C13 UNL     1       3.790  -3.286 -19.529  0.00  0.00    +0.076 C 
ATOM     25  C14 UNL     1       2.639  -4.182 -19.984  0.00  0.00    +0.037 C 
ATOM     26  C15 UNL     1       1.666  -3.450 -20.911  0.00  0.00    +0.086 C 
ATOM     27  C16 UNL     1       3.252  -1.958 -18.992  0.00  0.00    +0.037 C 
ATOM     28  C17 UNL     1       2.269  -1.304 -19.964  0.00  0.00    +0.086 C 
ATOM     29  N4  UNL     1       1.161  -2.217 -20.292  0.00  0.00    -0.298 NA
BRANCH  29  30
ATOM     30  C18 UNL     1       0.181  -1.571 -21.186  0.00  0.00    +0.119 C 
BRANCH  30  31
ATOM     31  C19 UNL     1      -1.223  -1.528 -20.617  0.00  0.00    -0.033 A 
ATOM     32  C20 UNL     1      -2.237  -2.331 -21.157  0.00  0.00    +0.005 A 
ATOM     33  C21 UNL     1      -3.525  -2.300 -20.620  0.00  0.00    +0.000 A 
ATOM     34  C22 UNL     1      -3.812  -1.472 -19.536  0.00  0.00    +0.000 A 
ATOM     35  C23 UNL     1      -2.811  -0.673 -18.987  0.00  0.00    +0.000 A 
ATOM     36  C24 UNL     1      -1.523  -0.702 -19.523  0.00  0.00    +0.005 A 
ENDBRANCH  30  31
ENDBRANCH  29  30
ENDBRANCH  22  24
ENDBRANCH   8  20
TORSDOF 6
ENDMDL
MODEL 4
REMARK VINA RESULT:    -7.720      6.566     10.250
REMARK INTER + INTRA:         -11.135
REMARK INTER:                 -10.326
REMARK INTRA:                  -0.809
REMARK UNBOUND:                -0.707
REMARK  Name = /home/vital/Documents/PhD_2021/Malaria_codes/data/pdb_ligands_mmv/ligand_352.pdb
REMARK  6 active torsions:
REMARK  status: ('A' for Active; 'I' for Inactive)
REMARK    1  A    between atoms: C2_4  and  C3_5
REMARK    2  A    between atoms: C8_12  and  C9_13
REMARK    3  A    between atoms: C11_18  and  C12_19
REMARK    4  A    between atoms: N3_21  and  C13_22
REMARK    5  A    between atoms: N4_27  and  C18_28
REMARK    6  A    between atoms: C18_28  and  C19_29
REMARK                            x       y       z     vdW  Elec       q    Type
REMARK                         _______ _______ _______ _____ _____    ______ ____
ROOT
ATOM      1  N1  UNL     1       6.618  -3.475 -24.509  0.00  0.00    -0.209 N 
ATOM      2  C1  UNL     1       7.200  -2.518 -23.676  0.00  0.00    +0.157 A 
ATOM      3  N2  UNL     1       8.163  -1.657 -24.112  0.00  0.00    -0.227 NA
ATOM      4  C2  UNL     1       8.546  -1.744 -25.357  0.00  0.00    +0.082 A 
ATOM      5  C7  UNL     1       7.967  -2.752 -26.312  0.00  0.00    +0.061 A 
ATOM      6  C8  UNL     1       7.017  -3.580 -25.834  0.00  0.00    +0.149 A 
ATOM      7  C10 UNL     1       6.605  -2.662 -22.446  0.00  0.00    +0.083 A 
ATOM      8  C11 UNL     1       5.680  -3.717 -22.591  0.00  0.00    +0.150 A 
ATOM      9  N5  UNL     1       5.687  -4.207 -23.847  0.00  0.00    -0.160 NA
ENDROOT
BRANCH   4  10
ATOM     10  C3  UNL     1       9.575  -0.832 -25.858  0.00  0.00    +0.039 A 
ATOM     11  C4  UNL     1      10.837  -0.544 -25.355  0.00  0.00    +0.019 A 
ATOM     12  C5  UNL     1      11.544   0.416 -26.142  0.00  0.00    +0.028 A 
ATOM     13  C6  UNL     1      10.795   0.823 -27.213  0.00  0.00    +0.079 A 
ATOM     14 CL1  UNL     1      11.258   1.961 -28.412  0.00  0.00    -0.076 Cl
ATOM     15  S1  UNL     1       9.282   0.084 -27.293  0.00  0.00    -0.075 S 
ENDBRANCH   4  10
BRANCH   6  16
ATOM     16  C9  UNL     1       6.351  -4.625 -26.644  0.00  0.00    +0.434 C 
ATOM     17  F1  UNL     1       6.692  -4.572 -27.955  0.00  0.00    -0.164 F 
ATOM     18  F2  UNL     1       4.995  -4.492 -26.605  0.00  0.00    -0.164 F 
ATOM     19  F3  UNL     1       6.614  -5.880 -26.200  0.00  0.00    -0.164 F 
ENDBRANCH   6  16
BRANCH   8  20
ATOM     20  C12 UNL     1       4.786  -4.256 -21.555  0.00  0.00    +0.264 C 
ATOM     21  O1  UNL     1       4.911  -5.380 -21.085  0.00  0.00    -0.268 OA
ATOM     22  N3  UNL     1       3.814  -3.358 -21.164  0.00  0.00    -0.307 N 
ATOM     23  H5  UNL     1       3.920  -2.427 -21.558  0.00  0.00    +0.149 HD
BRANCH  22  24
ATOM     24  C13 UNL     1       2.941  -3.582 -20.022  0.00  0.00    +0.076 C 
ATOM     25  C14 UNL     1       1.514  -3.898 -20.470  0.00  0.00    +0.037 C 
ATOM     26  C15 UNL     1       0.777  -2.656 -20.973  0.00  0.00    +0.086 C 
ATOM     27  C16 UNL     1       2.948  -2.388 -19.066  0.00  0.00    +0.037 C 
ATOM     28  C17 UNL     1       2.170  -1.199 -19.630  0.00  0.00    +0.086 C 
ATOM     29  N4  UNL     1       0.789  -1.582 -19.970  0.00  0.00    -0.298 NA
BRANCH  29  30
ATOM     30  C18 UNL     1       0.018  -0.424 -20.464  0.00  0.00    +0.119 C 
BRANCH  30  31
ATOM     31  C19 UNL     1      -1.475  -0.553 -20.243  0.00  0.00    -0.033 A 
ATOM     32  C20 UNL     1      -2.370  -0.406 -21.312  0.00  0.00    +0.005 A 
ATOM     33  C21 UNL     1      -3.745  -0.541 -21.109  0.00  0.00    +0.000 A 
ATOM     34  C22 UNL     1      -4.238  -0.828 -19.838  0.00  0.00    +0.000 A 
ATOM     35  C23 UNL     1      -3.359  -0.980 -18.767  0.00  0.00    +0.000 A 
ATOM     36  C24 UNL     1      -1.985  -0.846 -18.970  0.00  0.00    +0.005 A 
ENDBRANCH  30  31
ENDBRANCH  29  30
ENDBRANCH  22  24
ENDBRANCH   8  20
TORSDOF 6
ENDMDL
MODEL 5
REMARK VINA RESULT:    -7.684      5.749      9.203
REMARK INTER + INTRA:         -11.086
REMARK INTER:                 -10.154
REMARK INTRA:                  -0.932
REMARK UNBOUND:                -0.707
REMARK  Name = /home/vital/Documents/PhD_2021/Malaria_codes/data/pdb_ligands_mmv/ligand_352.pdb
REMARK  6 active torsions:
REMARK  status: ('A' for Active; 'I' for Inactive)
REMARK    1  A    between atoms: C2_4  and  C3_5
REMARK    2  A    between atoms: C8_12  and  C9_13
REMARK    3  A    between atoms: C11_18  and  C12_19
REMARK    4  A    between atoms: N3_21  and  C13_22
REMARK    5  A    between atoms: N4_27  and  C18_28
REMARK    6  A    between atoms: C18_28  and  C19_29
REMARK                            x       y       z     vdW  Elec       q    Type
REMARK                         _______ _______ _______ _____ _____    ______ ____
ROOT
ATOM      1  N1  UNL     1       2.554  -3.938 -22.730  0.00  0.00    -0.209 N 
ATOM      2  C1  UNL     1       1.441  -3.792 -23.559  0.00  0.00    +0.157 A 
ATOM      3  N2  UNL     1       0.193  -3.541 -23.072  0.00  0.00    -0.227 NA
ATOM      4  C2  UNL     1       0.049  -3.437 -21.778  0.00  0.00    +0.082 A 
ATOM      5  C7  UNL     1       1.201  -3.584 -20.822  0.00  0.00    +0.061 A 
ATOM      6  C8  UNL     1       2.415  -3.831 -21.352  0.00  0.00    +0.149 A 
ATOM      7  C10 UNL     1       1.895  -3.949 -24.846  0.00  0.00    +0.083 A 
ATOM      8  C11 UNL     1       3.280  -4.190 -24.735  0.00  0.00    +0.150 A 
ATOM      9  N5  UNL     1       3.679  -4.178 -23.448  0.00  0.00    -0.160 NA
ENDROOT
BRANCH   4  10
ATOM     10  C3  UNL     1      -1.278  -3.164 -21.223  0.00  0.00    +0.039 A 
ATOM     11  C4  UNL     1      -2.395  -3.983 -21.132  0.00  0.00    +0.019 A 
ATOM     12  C5  UNL     1      -3.511  -3.334 -20.517  0.00  0.00    +0.028 A 
ATOM     13  C6  UNL     1      -3.202  -2.049 -20.165  0.00  0.00    +0.079 A 
ATOM     14 CL1  UNL     1      -4.244  -0.918 -19.402  0.00  0.00    -0.076 Cl
ATOM     15  S1  UNL     1      -1.619  -1.610 -20.548  0.00  0.00    -0.075 S 
ENDBRANCH   4  10
BRANCH   6  16
ATOM     16  C9  UNL     1       3.646  -4.003 -20.548  0.00  0.00    +0.434 C 
ATOM     17  F1  UNL     1       4.179  -5.244 -20.660  0.00  0.00    -0.164 F 
ATOM     18  F2  UNL     1       3.400  -3.819 -19.221  0.00  0.00    -0.164 F 
ATOM     19  F3  UNL     1       4.614  -3.108 -20.873  0.00  0.00    -0.164 F 
ENDBRANCH   6  16
BRANCH   8  20
ATOM     20  C12 UNL     1       4.227  -4.420 -25.838  0.00  0.00    +0.264 C 
ATOM     21  O1  UNL     1       3.918  -4.998 -26.873  0.00  0.00    -0.268 OA
ATOM     22  N3  UNL     1       5.481  -3.904 -25.585  0.00  0.00    -0.307 N 
ATOM     23  H5  UNL     1       5.544  -3.348 -24.737  0.00  0.00    +0.149 HD
BRANCH  22  24
ATOM     24  C13 UNL     1       6.526  -3.829 -26.596  0.00  0.00    +0.076 C 
ATOM     25  C14 UNL     1       7.806  -4.515 -26.119  0.00  0.00    +0.037 C 
ATOM     26  C15 UNL     1       8.555  -3.684 -25.077  0.00  0.00    +0.086 C 
ATOM     27  C16 UNL     1       6.815  -2.383 -27.000  0.00  0.00    +0.037 C 
ATOM     28  C17 UNL     1       7.587  -1.629 -25.917  0.00  0.00    +0.086 C 
ATOM     29  N4  UNL     1       8.835  -2.329 -25.571  0.00  0.00    -0.298 NA
BRANCH  29  30
ATOM     30  C18 UNL     1       9.611  -1.577 -24.566  0.00  0.00    +0.119 C 
BRANCH  30  31
ATOM     31  C19 UNL     1      10.213  -0.294 -25.100  0.00  0.00    -0.033 A 
ATOM     32  C20 UNL     1      10.020   0.921 -24.427  0.00  0.00    +0.005 A 
ATOM     33  C21 UNL     1      10.589   2.099 -24.914  0.00  0.00    +0.000 A 
ATOM     34  C22 UNL     1      11.361   2.075 -26.074  0.00  0.00    +0.000 A 
ATOM     35  C23 UNL     1      11.565   0.874 -26.750  0.00  0.00    +0.000 A 
ATOM     36  C24 UNL     1      10.996  -0.305 -26.264  0.00  0.00    +0.005 A 
ENDBRANCH  30  31
ENDBRANCH  29  30
ENDBRANCH  22  24
ENDBRANCH   8  20
TORSDOF 6
ENDMDL
MODEL 6
REMARK VINA RESULT:    -7.541      2.088      3.550
REMARK INTER + INTRA:         -10.893
REMARK INTER:                 -10.054
REMARK INTRA:                  -0.839
REMARK UNBOUND:                -0.707
REMARK  Name = /home/vital/Documents/PhD_2021/Malaria_codes/data/pdb_ligands_mmv/ligand_352.pdb
REMARK  6 active torsions:
REMARK  status: ('A' for Active; 'I' for Inactive)
REMARK    1  A    between atoms: C2_4  and  C3_5
REMARK    2  A    between atoms: C8_12  and  C9_13
REMARK    3  A    between atoms: C11_18  and  C12_19
REMARK    4  A    between atoms: N3_21  and  C13_22
REMARK    5  A    between atoms: N4_27  and  C18_28
REMARK    6  A    between atoms: C18_28  and  C19_29
REMARK                            x       y       z     vdW  Elec       q    Type
REMARK                         _______ _______ _______ _____ _____    ______ ____
ROOT
ATOM      1  N1  UNL     1       6.057  -3.701 -26.411  0.00  0.00    -0.209 N 
ATOM      2  C1  UNL     1       4.678  -3.907 -26.364  0.00  0.00    +0.157 A 
ATOM      3  N2  UNL     1       3.983  -3.942 -25.192  0.00  0.00    -0.227 NA
ATOM      4  C2  UNL     1       4.647  -3.775 -24.080  0.00  0.00    +0.082 A 
ATOM      5  C7  UNL     1       6.133  -3.551 -24.052  0.00  0.00    +0.061 A 
ATOM      6  C8  UNL     1       6.776  -3.524 -25.237  0.00  0.00    +0.149 A 
ATOM      7  C10 UNL     1       4.262  -4.046 -27.666  0.00  0.00    +0.083 A 
ATOM      8  C11 UNL     1       5.426  -3.920 -28.453  0.00  0.00    +0.150 A 
ATOM      9  N5  UNL     1       6.515  -3.706 -27.688  0.00  0.00    -0.160 NA
ENDROOT
BRANCH   4  10
ATOM     10  C3  UNL     1       3.930  -3.803 -22.804  0.00  0.00    +0.039 A 
ATOM     11  C4  UNL     1       4.275  -4.392 -21.596  0.00  0.00    +0.019 A 
ATOM     12  C5  UNL     1       3.292  -4.192 -20.578  0.00  0.00    +0.028 A 
ATOM     13  C6  UNL     1       2.237  -3.459 -21.048  0.00  0.00    +0.079 A 
ATOM     14 CL1  UNL     1       0.843  -2.989 -20.164  0.00  0.00    -0.076 Cl
ATOM     15  S1  UNL     1       2.401  -3.010 -22.666  0.00  0.00    -0.075 S 
ENDBRANCH   4  10
BRANCH   6  16
ATOM     16  C9  UNL     1       8.235  -3.316 -25.379  0.00  0.00    +0.434 C 
ATOM     17  F1  UNL     1       8.833  -4.276 -26.125  0.00  0.00    -0.164 F 
ATOM     18  F2  UNL     1       8.858  -3.340 -24.168  0.00  0.00    -0.164 F 
ATOM     19  F3  UNL     1       8.541  -2.114 -25.931  0.00  0.00    -0.164 F 
ENDBRANCH   6  16
BRANCH   8  20
ATOM     20  C12 UNL     1       5.512  -3.990 -29.920  0.00  0.00    +0.264 C 
ATOM     21  O1  UNL     1       6.573  -4.100 -30.522  0.00  0.00    -0.268 OA
ATOM     22  N3  UNL     1       4.277  -3.937 -30.533  0.00  0.00    -0.307 N 
ATOM     23  H5  UNL     1       3.489  -3.971 -29.893  0.00  0.00    +0.149 HD
BRANCH  22  24
ATOM     24  C13 UNL     1       4.087  -4.187 -31.955  0.00  0.00    +0.076 C 
ATOM     25  C14 UNL     1       3.922  -2.879 -32.728  0.00  0.00    +0.037 C 
ATOM     26  C15 UNL     1       2.548  -2.244 -32.508  0.00  0.00    +0.086 C 
ATOM     27  C16 UNL     1       2.894  -5.110 -32.208  0.00  0.00    +0.037 C 
ATOM     28  C17 UNL     1       1.560  -4.394 -31.992  0.00  0.00    +0.086 C 
ATOM     29  N4  UNL     1       1.465  -3.185 -32.827  0.00  0.00    -0.298 NA
BRANCH  29  30
ATOM     30  C18 UNL     1       0.158  -2.520 -32.662  0.00  0.00    +0.119 C 
BRANCH  30  31
ATOM     31  C19 UNL     1      -0.265  -1.709 -33.870  0.00  0.00    -0.033 A 
ATOM     32  C20 UNL     1      -0.974  -0.509 -33.711  0.00  0.00    +0.005 A 
ATOM     33  C21 UNL     1      -1.348   0.244 -34.826  0.00  0.00    +0.000 A 
ATOM     34  C22 UNL     1      -1.016  -0.190 -36.107  0.00  0.00    +0.000 A 
ATOM     35  C23 UNL     1      -0.308  -1.379 -36.278  0.00  0.00    +0.000 A 
ATOM     36  C24 UNL     1       0.067  -2.133 -35.165  0.00  0.00    +0.005 A 
ENDBRANCH  30  31
ENDBRANCH  29  30
ENDBRANCH  22  24
ENDBRANCH   8  20
TORSDOF 6
ENDMDL
MODEL 7
REMARK VINA RESULT:    -7.477      9.443     14.723
REMARK INTER + INTRA:         -10.806
REMARK INTER:                 -10.144
REMARK INTRA:                  -0.662
REMARK UNBOUND:                -0.707
REMARK  Name = /home/vital/Documents/PhD_2021/Malaria_codes/data/pdb_ligands_mmv/ligand_352.pdb
REMARK  6 active torsions:
REMARK  status: ('A' for Active; 'I' for Inactive)
REMARK    1  A    between atoms: C2_4  and  C3_5
REMARK    2  A    between atoms: C8_12  and  C9_13
REMARK    3  A    between atoms: C11_18  and  C12_19
REMARK    4  A    between atoms: N3_21  and  C13_22
REMARK    5  A    between atoms: N4_27  and  C18_28
REMARK    6  A    between atoms: C18_28  and  C19_29
REMARK                            x       y       z     vdW  Elec       q    Type
REMARK                         _______ _______ _______ _____ _____    ______ ____
ROOT
ATOM      1  N1  UNL     1       0.020  -1.401 -20.503  0.00  0.00    -0.209 N 
ATOM      2  C1  UNL     1      -0.930  -0.452 -20.122  0.00  0.00    +0.157 A 
ATOM      3  N2  UNL     1      -2.204  -0.458 -20.605  0.00  0.00    -0.227 NA
ATOM      4  C2  UNL     1      -2.534  -1.392 -21.455  0.00  0.00    +0.082 A 
ATOM      5  C7  UNL     1      -1.564  -2.446 -21.914  0.00  0.00    +0.061 A 
ATOM      6  C8  UNL     1      -0.316  -2.399 -21.407  0.00  0.00    +0.149 A 
ATOM      7  C10 UNL     1      -0.304   0.387 -19.233  0.00  0.00    +0.083 A 
ATOM      8  C11 UNL     1       1.017  -0.096 -19.117  0.00  0.00    +0.150 A 
ATOM      9  N5  UNL     1       1.209  -1.186 -19.887  0.00  0.00    -0.160 NA
ENDROOT
BRANCH   4  10
ATOM     10  C3  UNL     1      -3.896  -1.429 -21.990  0.00  0.00    +0.039 A 
ATOM     11  C4  UNL     1      -4.947  -2.290 -21.703  0.00  0.00    +0.019 A 
ATOM     12  C5  UNL     1      -6.130  -1.992 -22.449  0.00  0.00    +0.028 A 
ATOM     13  C6  UNL     1      -5.935  -0.918 -23.274  0.00  0.00    +0.079 A 
ATOM     14 CL1  UNL     1      -7.087  -0.223 -24.340  0.00  0.00    -0.076 Cl
ATOM     15  S1  UNL     1      -4.382  -0.266 -23.171  0.00  0.00    -0.075 S 
ENDBRANCH   4  10
BRANCH   6  16
ATOM     16  C9  UNL     1       0.753  -3.361 -21.758  0.00  0.00    +0.434 C 
ATOM     17  F1  UNL     1       1.196  -4.067 -20.690  0.00  0.00    -0.164 F 
ATOM     18  F2  UNL     1       1.845  -2.723 -22.265  0.00  0.00    -0.164 F 
ATOM     19  F3  UNL     1       0.368  -4.249 -22.709  0.00  0.00    -0.164 F 
ENDBRANCH   6  16
BRANCH   8  20
ATOM     20  C12 UNL     1       2.090   0.458 -18.277  0.00  0.00    +0.264 C 
ATOM     21  O1  UNL     1       3.243   0.047 -18.311  0.00  0.00    -0.268 OA
ATOM     22  N3  UNL     1       1.660   1.491 -17.470  0.00  0.00    -0.307 N 
ATOM     23  H5  UNL     1       0.706   1.794 -17.647  0.00  0.00    +0.149 HD
BRANCH  22  24
ATOM     24  C13 UNL     1       2.570   2.327 -16.700  0.00  0.00    +0.076 C 
ATOM     25  C14 UNL     1       1.848   3.004 -15.536  0.00  0.00    +0.037 C 
ATOM     26  C15 UNL     1       0.953   4.155 -15.999  0.00  0.00    +0.086 C 
ATOM     27  C16 UNL     1       3.256   3.371 -17.583  0.00  0.00    +0.037 C 
ATOM     28  C17 UNL     1       2.302   4.499 -17.981  0.00  0.00    +0.086 C 
ATOM     29  N4  UNL     1       1.707   5.134 -16.794  0.00  0.00    -0.298 NA
BRANCH  29  30
ATOM     30  C18 UNL     1       0.829   6.259 -17.171  0.00  0.00    +0.119 C 
BRANCH  30  31
ATOM     31  C19 UNL     1       1.583   7.493 -17.622  0.00  0.00    -0.033 A 
ATOM     32  C20 UNL     1       1.833   7.719 -18.982  0.00  0.00    +0.005 A 
ATOM     33  C21 UNL     1       2.515   8.865 -19.396  0.00  0.00    +0.000 A 
ATOM     34  C22 UNL     1       2.949   9.798 -18.455  0.00  0.00    +0.000 A 
ATOM     35  C23 UNL     1       2.703   9.586 -17.100  0.00  0.00    +0.000 A 
ATOM     36  C24 UNL     1       2.022   8.441 -16.686  0.00  0.00    +0.005 A 
ENDBRANCH  30  31
ENDBRANCH  29  30
ENDBRANCH  22  24
ENDBRANCH   8  20
TORSDOF 6
ENDMDL
MODEL 8
REMARK VINA RESULT:    -7.308      4.900     10.211
REMARK INTER + INTRA:         -10.578
REMARK INTER:                  -9.745
REMARK INTRA:                  -0.833
REMARK UNBOUND:                -0.707
REMARK  Name = /home/vital/Documents/PhD_2021/Malaria_codes/data/pdb_ligands_mmv/ligand_352.pdb
REMARK  6 active torsions:
REMARK  status: ('A' for Active; 'I' for Inactive)
REMARK    1  A    between atoms: C2_4  and  C3_5
REMARK    2  A    between atoms: C8_12  and  C9_13
REMARK    3  A    between atoms: C11_18  and  C12_19
REMARK    4  A    between atoms: N3_21  and  C13_22
REMARK    5  A    between atoms: N4_27  and  C18_28
REMARK    6  A    between atoms: C18_28  and  C19_29
REMARK                            x       y       z     vdW  Elec       q    Type
REMARK                         _______ _______ _______ _____ _____    ______ ____
ROOT
ATOM      1  N1  UNL     1       2.892  -4.423 -32.401  0.00  0.00    -0.209 N 
ATOM      2  C1  UNL     1       2.956  -3.029 -32.413  0.00  0.00    +0.157 A 
ATOM      3  N2  UNL     1       2.088  -2.262 -33.131  0.00  0.00    -0.227 NA
ATOM      4  C2  UNL     1       1.168  -2.869 -33.831  0.00  0.00    +0.082 A 
ATOM      5  C7  UNL     1       1.039  -4.367 -33.870  0.00  0.00    +0.061 A 
ATOM      6  C8  UNL     1       1.920  -5.082 -33.142  0.00  0.00    +0.149 A 
ATOM      7  C10 UNL     1       4.006  -2.683 -31.597  0.00  0.00    +0.083 A 
ATOM      8  C11 UNL     1       4.540  -3.901 -31.126  0.00  0.00    +0.150 A 
ATOM      9  N5  UNL     1       3.858  -4.957 -31.612  0.00  0.00    -0.160 NA
ENDROOT
BRANCH   4  10
ATOM     10  C3  UNL     1       0.217  -2.075 -34.611  0.00  0.00    +0.039 A 
ATOM     11  C4  UNL     1      -0.226  -2.238 -35.916  0.00  0.00    +0.019 A 
ATOM     12  C5  UNL     1      -1.165  -1.236 -36.314  0.00  0.00    +0.028 A 
ATOM     13  C6  UNL     1      -1.401  -0.351 -35.298  0.00  0.00    +0.079 A 
ATOM     14 CL1  UNL     1      -2.458   1.001 -35.344  0.00  0.00    -0.076 Cl
ATOM     15  S1  UNL     1      -0.532  -0.693 -33.894  0.00  0.00    -0.075 S 
ENDBRANCH   4  10
BRANCH   6  16
ATOM     16  C9  UNL     1       1.927  -6.560 -33.075  0.00  0.00    +0.434 C 
ATOM     17  F1  UNL     1       1.636  -7.033 -31.839  0.00  0.00    -0.164 F 
ATOM     18  F2  UNL     1       3.153  -7.064 -33.389  0.00  0.00    -0.164 F 
ATOM     19  F3  UNL     1       1.058  -7.129 -33.949  0.00  0.00    -0.164 F 
ENDBRANCH   6  16
BRANCH   8  20
ATOM     20  C12 UNL     1       5.681  -4.070 -30.212  0.00  0.00    +0.264 C 
ATOM     21  O1  UNL     1       6.830  -4.233 -30.604  0.00  0.00    -0.268 OA
ATOM     22  N3  UNL     1       5.318  -4.007 -28.882  0.00  0.00    -0.307 N 
ATOM     23  H5  UNL     1       4.349  -3.744 -28.724  0.00  0.00    +0.149 HD
BRANCH  22  24
ATOM     24  C13 UNL     1       6.287  -3.948 -27.798  0.00  0.00    +0.076 C 
ATOM     25  C14 UNL     1       6.227  -5.206 -26.934  0.00  0.00    +0.037 C 
ATOM     26  C15 UNL     1       4.996  -5.227 -26.025  0.00  0.00    +0.086 C 
ATOM     27  C16 UNL     1       6.091  -2.699 -26.937  0.00  0.00    +0.037 C 
ATOM     28  C17 UNL     1       4.857  -2.809 -26.042  0.00  0.00    +0.086 C 
ATOM     29  N4  UNL     1       4.919  -4.015 -25.199  0.00  0.00    -0.298 NA
BRANCH  29  30
ATOM     30  C18 UNL     1       3.757  -4.097 -24.293  0.00  0.00    +0.119 C 
BRANCH  30  31
ATOM     31  C19 UNL     1       4.130  -4.078 -22.825  0.00  0.00    -0.033 A 
ATOM     32  C20 UNL     1       3.148  -4.234 -21.836  0.00  0.00    +0.005 A 
ATOM     33  C21 UNL     1       3.497  -4.232 -20.485  0.00  0.00    +0.000 A 
ATOM     34  C22 UNL     1       4.830  -4.079 -20.107  0.00  0.00    +0.000 A 
ATOM     35  C23 UNL     1       5.816  -3.927 -21.080  0.00  0.00    +0.000 A 
ATOM     36  C24 UNL     1       5.468  -3.929 -22.432  0.00  0.00    +0.005 A 
ENDBRANCH  30  31
ENDBRANCH  29  30
ENDBRANCH  22  24
ENDBRANCH   8  20
TORSDOF 6
ENDMDL
MODEL 9
REMARK VINA RESULT:    -7.219      9.679     14.780
REMARK INTER + INTRA:         -10.458
REMARK INTER:                  -9.862
REMARK INTRA:                  -0.596
REMARK UNBOUND:                -0.707
REMARK  Name = /home/vital/Documents/PhD_2021/Malaria_codes/data/pdb_ligands_mmv/ligand_352.pdb
REMARK  6 active torsions:
REMARK  status: ('A' for Active; 'I' for Inactive)
REMARK    1  A    between atoms: C2_4  and  C3_5
REMARK    2  A    between atoms: C8_12  and  C9_13
REMARK    3  A    between atoms: C11_18  and  C12_19
REMARK    4  A    between atoms: N3_21  and  C13_22
REMARK    5  A    between atoms: N4_27  and  C18_28
REMARK    6  A    between atoms: C18_28  and  C19_29
REMARK                            x       y       z     vdW  Elec       q    Type
REMARK                         _______ _______ _______ _____ _____    ______ ____
ROOT
ATOM      1  N1  UNL     1      -1.078  -0.479 -20.668  0.00  0.00    -0.209 N 
ATOM      2  C1  UNL     1       0.197  -0.025 -20.329  0.00  0.00    +0.157 A 
ATOM      3  N2  UNL     1       1.301  -0.821 -20.403  0.00  0.00    -0.227 NA
ATOM      4  C2  UNL     1       1.143  -2.053 -20.807  0.00  0.00    +0.082 A 
ATOM      5  C7  UNL     1      -0.199  -2.613 -21.186  0.00  0.00    +0.061 A 
ATOM      6  C8  UNL     1      -1.261  -1.787 -21.098  0.00  0.00    +0.149 A 
ATOM      7  C10 UNL     1       0.052   1.287 -19.949  0.00  0.00    +0.083 A 
ATOM      8  C11 UNL     1      -1.325   1.570 -20.073  0.00  0.00    +0.150 A 
ATOM      9  N5  UNL     1      -2.009   0.496 -20.515  0.00  0.00    -0.160 NA
ENDROOT
BRANCH   4  10
ATOM     10  C3  UNL     1       2.309  -2.932 -20.901  0.00  0.00    +0.039 A 
ATOM     11  C4  UNL     1       2.785  -3.886 -20.012  0.00  0.00    +0.019 A 
ATOM     12  C5  UNL     1       3.969  -4.539 -20.476  0.00  0.00    +0.028 A 
ATOM     13  C6  UNL     1       4.349  -4.058 -21.699  0.00  0.00    +0.079 A 
ATOM     14 CL1  UNL     1       5.709  -4.561 -22.618  0.00  0.00    -0.076 Cl
ATOM     15  S1  UNL     1       3.327  -2.856 -22.295  0.00  0.00    -0.075 S 
ENDBRANCH   4  10
BRANCH   6  16
ATOM     16  C9  UNL     1      -2.646  -2.185 -21.433  0.00  0.00    +0.434 C 
ATOM     17  F1  UNL     1      -3.150  -1.501 -22.489  0.00  0.00    -0.164 F 
ATOM     18  F2  UNL     1      -3.495  -1.947 -20.394  0.00  0.00    -0.164 F 
ATOM     19  F3  UNL     1      -2.759  -3.509 -21.708  0.00  0.00    -0.164 F 
ENDBRANCH   6  16
BRANCH   8  20
ATOM     20  C12 UNL     1      -1.992   2.850 -19.788  0.00  0.00    +0.264 C 
ATOM     21  O1  UNL     1      -3.142   2.924 -19.373  0.00  0.00    -0.268 OA
ATOM     22  N3  UNL     1      -1.181   3.942 -20.020  0.00  0.00    -0.307 N 
ATOM     23  H5  UNL     1      -0.217   3.710 -20.243  0.00  0.00    +0.149 HD
BRANCH  22  24
ATOM     24  C13 UNL     1      -1.543   5.296 -19.626  0.00  0.00    +0.076 C 
ATOM     25  C14 UNL     1      -0.728   6.333 -20.397  0.00  0.00    +0.037 C 
ATOM     26  C15 UNL     1       0.717   6.420 -19.901  0.00  0.00    +0.086 C 
ATOM     27  C16 UNL     1      -1.383   5.504 -18.119  0.00  0.00    +0.037 C 
ATOM     28  C17 UNL     1       0.087   5.607 -17.709  0.00  0.00    +0.086 C 
ATOM     29  N4  UNL     1       0.773   6.674 -18.455  0.00  0.00    -0.298 NA
BRANCH  29  30
ATOM     30  C18 UNL     1       2.177   6.814 -18.024  0.00  0.00    +0.119 C 
BRANCH  30  31
ATOM     31  C19 UNL     1       2.741   8.204 -18.233  0.00  0.00    -0.033 A 
ATOM     32  C20 UNL     1       2.768   9.130 -17.180  0.00  0.00    +0.005 A 
ATOM     33  C21 UNL     1       3.302  10.405 -17.372  0.00  0.00    +0.000 A 
ATOM     34  C22 UNL     1       3.818  10.767 -18.615  0.00  0.00    +0.000 A 
ATOM     35  C23 UNL     1       3.802   9.855 -19.668  0.00  0.00    +0.000 A 
ATOM     36  C24 UNL     1       3.268   8.580 -19.478  0.00  0.00    +0.005 A 
ENDBRANCH  30  31
ENDBRANCH  29  30
ENDBRANCH  22  24
ENDBRANCH   8  20
TORSDOF 6
ENDMDL
