MODEL 1
REMARK VINA RESULT:    -6.145      0.000      0.000
REMARK INTER + INTRA:          -8.868
REMARK INTER:                  -7.941
REMARK INTRA:                  -0.927
REMARK UNBOUND:                -0.927
REMARK  Name = /home/vital/Documents/PhD_2021/Malaria_codes/data/pdb_ligands_mmv/ligand_174.pdb
REMARK  6 active torsions:
REMARK  status: ('A' for Active; 'I' for Inactive)
REMARK    1  A    between atoms: C1_1  and  C2_2
REMARK    2  A    between atoms: C2_2  and  O1_3
REMARK    3  A    between atoms: O1_3  and  C3_4
REMARK    4  A    between atoms: C7_8  and  C9_10
REMARK    5  A    between atoms: N1_12  and  C10_13
REMARK    6  A    between atoms: C13_16  and  C16_19
REMARK                            x       y       z     vdW  Elec       q    Type
REMARK                         _______ _______ _______ _____ _____    ______ ____
ROOT
ATOM      1  C10 UNL     1      -1.659   6.266 -19.361  0.00  0.00    +0.034 A 
ATOM      2  C11 UNL     1      -2.195   5.760 -18.180  0.00  0.00    +0.024 A 
ATOM      3  C12 UNL     1      -1.356   5.261 -17.175  0.00  0.00    +0.013 A 
ATOM      4  C13 UNL     1       0.037   5.250 -17.328  0.00  0.00    +0.017 A 
ATOM      5  C14 UNL     1       0.572   5.768 -18.514  0.00  0.00    +0.013 A 
ATOM      6  C15 UNL     1      -0.268   6.271 -19.518  0.00  0.00    +0.024 A 
ENDROOT
BRANCH   4   7
ATOM      7  C16 UNL     1       0.874   4.714 -16.249  0.00  0.00    +0.139 A 
ATOM      8  N2  UNL     1       1.001   5.231 -15.038  0.00  0.00    -0.228 NA
ATOM      9  C17 UNL     1       1.866   4.411 -14.357  0.00  0.00    +0.089 A 
ATOM     10  C18 UNL     1       2.346   4.504 -13.043  0.00  0.00    +0.030 A 
ATOM     11  C19 UNL     1       3.230   3.520 -12.582  0.00  0.00    +0.002 A 
ATOM     12  C20 UNL     1       3.626   2.468 -13.410  0.00  0.00    +0.002 A 
ATOM     13  C21 UNL     1       3.156   2.360 -14.725  0.00  0.00    +0.028 A 
ATOM     14  C22 UNL     1       2.278   3.355 -15.158  0.00  0.00    +0.066 A 
ATOM     15  N3  UNL     1       1.632   3.567 -16.347  0.00  0.00    -0.338 N 
ATOM     16  H19 UNL     1       1.687   2.968 -17.155  0.00  0.00    +0.167 HD
ENDBRANCH   4   7
BRANCH   1  19
ATOM     17  C9  UNL     1      -3.324   6.114 -21.224  0.00  0.00    +0.248 C 
ATOM     18  O2  UNL     1      -3.557   4.912 -21.218  0.00  0.00    -0.270 OA
ATOM     19  N1  UNL     1      -2.430   6.795 -20.417  0.00  0.00    -0.282 N 
ATOM     20  H10 UNL     1      -2.254   7.763 -20.648  0.00  0.00    +0.155 HD
BRANCH  17  25
ATOM     21  C3  UNL     1      -5.665   7.133 -24.007  0.00  0.00    +0.121 A 
ATOM     22  C4  UNL     1      -5.403   8.500 -24.107  0.00  0.00    +0.046 A 
ATOM     23  C5  UNL     1      -4.467   9.103 -23.258  0.00  0.00    +0.004 A 
ATOM     24  C6  UNL     1      -3.783   8.341 -22.312  0.00  0.00    +0.013 A 
ATOM     25  C7  UNL     1      -4.030   6.966 -22.220  0.00  0.00    +0.040 A 
ATOM     26  C8  UNL     1      -4.979   6.371 -23.057  0.00  0.00    +0.058 A 
BRANCH  21  27
ATOM     27  O1  UNL     1      -6.554   6.428 -24.771  0.00  0.00    -0.492 OA
BRANCH  27  29
ATOM     28  C1  UNL     1      -8.569   5.204 -24.437  0.00  0.00    +0.048 C 
ATOM     29  C2  UNL     1      -7.067   5.215 -24.224  0.00  0.00    +0.225 C 
ENDBRANCH  27  29
ENDBRANCH  21  27
ENDBRANCH  17  25
ENDBRANCH   1  19
TORSDOF 5
ENDMDL
MODEL 2
REMARK VINA RESULT:    -6.063     16.974     18.806
REMARK INTER + INTRA:          -8.762
REMARK INTER:                  -7.789
REMARK INTRA:                  -0.972
REMARK UNBOUND:                -0.927
REMARK  Name = /home/vital/Documents/PhD_2021/Malaria_codes/data/pdb_ligands_mmv/ligand_174.pdb
REMARK  6 active torsions:
REMARK  status: ('A' for Active; 'I' for Inactive)
REMARK    1  A    between atoms: C1_1  and  C2_2
REMARK    2  A    between atoms: C2_2  and  O1_3
REMARK    3  A    between atoms: O1_3  and  C3_4
REMARK    4  A    between atoms: C7_8  and  C9_10
REMARK    5  A    between atoms: N1_12  and  C10_13
REMARK    6  A    between atoms: C13_16  and  C16_19
REMARK                            x       y       z     vdW  Elec       q    Type
REMARK                         _______ _______ _______ _____ _____    ______ ____
ROOT
ATOM      1  C10 UNL     1       4.617  -2.800 -32.859  0.00  0.00    +0.034 A 
ATOM      2  C11 UNL     1       5.130  -4.094 -32.894  0.00  0.00    +0.024 A 
ATOM      3  C12 UNL     1       4.275  -5.200 -32.807  0.00  0.00    +0.013 A 
ATOM      4  C13 UNL     1       2.888  -5.041 -32.678  0.00  0.00    +0.017 A 
ATOM      5  C14 UNL     1       2.376  -3.738 -32.652  0.00  0.00    +0.013 A 
ATOM      6  C15 UNL     1       3.232  -2.631 -32.742  0.00  0.00    +0.024 A 
ENDROOT
BRANCH   4   7
ATOM      7  C16 UNL     1       2.034  -6.231 -32.587  0.00  0.00    +0.139 A 
ATOM      8  N2  UNL     1       2.013  -7.236 -33.446  0.00  0.00    -0.228 NA
ATOM      9  C17 UNL     1       1.083  -8.129 -32.973  0.00  0.00    +0.089 A 
ATOM     10  C18 UNL     1       0.667  -9.357 -33.503  0.00  0.00    +0.030 A 
ATOM     11  C19 UNL     1      -0.310 -10.088 -32.815  0.00  0.00    +0.002 A 
ATOM     12  C20 UNL     1      -0.859  -9.604 -31.624  0.00  0.00    +0.002 A 
ATOM     13  C21 UNL     1      -0.453  -8.379 -31.081  0.00  0.00    +0.028 A 
ATOM     14  C22 UNL     1       0.520  -7.673 -31.790  0.00  0.00    +0.066 A 
ATOM     15  N3  UNL     1       1.143  -6.473 -31.565  0.00  0.00    -0.338 N 
ATOM     16  H19 UNL     1       0.988  -5.876 -30.768  0.00  0.00    +0.167 HD
ENDBRANCH   4   7
BRANCH   1  19
ATOM     17  C9  UNL     1       6.267  -1.129 -31.993  0.00  0.00    +0.248 C 
ATOM     18  O2  UNL     1       6.449  -1.560 -30.862  0.00  0.00    -0.270 OA
ATOM     19  N1  UNL     1       5.405  -1.634 -32.950  0.00  0.00    -0.282 N 
ATOM     20  H10 UNL     1       5.269  -1.074 -33.781  0.00  0.00    +0.155 HD
BRANCH  17  25
ATOM     21  C3  UNL     1       7.070   2.103 -33.774  0.00  0.00    +0.121 A 
ATOM     22  C4  UNL     1       8.318   2.418 -33.234  0.00  0.00    +0.046 A 
ATOM     23  C5  UNL     1       8.903   1.583 -32.275  0.00  0.00    +0.004 A 
ATOM     24  C6  UNL     1       8.247   0.425 -31.858  0.00  0.00    +0.013 A 
ATOM     25  C7  UNL     1       7.003   0.096 -32.409  0.00  0.00    +0.040 A 
ATOM     26  C8  UNL     1       6.414   0.943 -33.354  0.00  0.00    +0.058 A 
BRANCH  21  27
ATOM     27  O1  UNL     1       6.392   2.835 -34.710  0.00  0.00    -0.492 OA
BRANCH  27  29
ATOM     28  C1  UNL     1       5.353   4.820 -33.904  0.00  0.00    +0.048 C 
ATOM     29  C2  UNL     1       5.131   3.379 -34.326  0.00  0.00    +0.225 C 
ENDBRANCH  27  29
ENDBRANCH  21  27
ENDBRANCH  17  25
ENDBRANCH   1  19
TORSDOF 5
ENDMDL
MODEL 3
REMARK VINA RESULT:    -6.046     16.996     19.107
REMARK INTER + INTRA:          -8.740
REMARK INTER:                  -7.812
REMARK INTRA:                  -0.928
REMARK UNBOUND:                -0.927
REMARK  Name = /home/vital/Documents/PhD_2021/Malaria_codes/data/pdb_ligands_mmv/ligand_174.pdb
REMARK  6 active torsions:
REMARK  status: ('A' for Active; 'I' for Inactive)
REMARK    1  A    between atoms: C1_1  and  C2_2
REMARK    2  A    between atoms: C2_2  and  O1_3
REMARK    3  A    between atoms: O1_3  and  C3_4
REMARK    4  A    between atoms: C7_8  and  C9_10
REMARK    5  A    between atoms: N1_12  and  C10_13
REMARK    6  A    between atoms: C13_16  and  C16_19
REMARK                            x       y       z     vdW  Elec       q    Type
REMARK                         _______ _______ _______ _____ _____    ______ ____
ROOT
ATOM      1  C10 UNL     1       4.563  -2.716 -32.808  0.00  0.00    +0.034 A 
ATOM      2  C11 UNL     1       5.067  -3.999 -33.011  0.00  0.00    +0.024 A 
ATOM      3  C12 UNL     1       4.222  -5.114 -32.938  0.00  0.00    +0.013 A 
ATOM      4  C13 UNL     1       2.856  -4.976 -32.655  0.00  0.00    +0.017 A 
ATOM      5  C14 UNL     1       2.352  -3.685 -32.460  0.00  0.00    +0.013 A 
ATOM      6  C15 UNL     1       3.198  -2.568 -32.537  0.00  0.00    +0.024 A 
ENDROOT
BRANCH   4   7
ATOM      7  C16 UNL     1       2.013  -6.175 -32.586  0.00  0.00    +0.139 A 
ATOM      8  N2  UNL     1       1.302  -6.561 -31.541  0.00  0.00    -0.228 NA
ATOM      9  C17 UNL     1       0.664  -7.718 -31.913  0.00  0.00    +0.089 A 
ATOM     10  C18 UNL     1      -0.205  -8.541 -31.183  0.00  0.00    +0.030 A 
ATOM     11  C19 UNL     1      -0.730  -9.680 -31.806  0.00  0.00    +0.002 A 
ATOM     12  C20 UNL     1      -0.397  -9.993 -33.126  0.00  0.00    +0.002 A 
ATOM     13  C21 UNL     1       0.470  -9.182 -33.869  0.00  0.00    +0.028 A 
ATOM     14  C22 UNL     1       0.978  -8.054 -33.222  0.00  0.00    +0.066 A 
ATOM     15  N3  UNL     1       1.829  -7.059 -33.627  0.00  0.00    -0.338 N 
ATOM     16  H19 UNL     1       2.236  -6.977 -34.544  0.00  0.00    +0.167 HD
ENDBRANCH   4   7
BRANCH   1  19
ATOM     17  C9  UNL     1       6.214  -1.061 -31.913  0.00  0.00    +0.248 C 
ATOM     18  O2  UNL     1       6.418  -1.528 -30.800  0.00  0.00    -0.270 OA
ATOM     19  N1  UNL     1       5.341  -1.542 -32.872  0.00  0.00    -0.282 N 
ATOM     20  H10 UNL     1       5.187  -0.956 -33.682  0.00  0.00    +0.155 HD
BRANCH  17  25
ATOM     21  C3  UNL     1       8.627   1.841 -31.771  0.00  0.00    +0.121 A 
ATOM     22  C4  UNL     1       8.336   2.505 -32.963  0.00  0.00    +0.046 A 
ATOM     23  C5  UNL     1       7.357   2.005 -33.829  0.00  0.00    +0.004 A 
ATOM     24  C6  UNL     1       6.658   0.844 -33.503  0.00  0.00    +0.013 A 
ATOM     25  C7  UNL     1       6.934   0.183 -32.300  0.00  0.00    +0.040 A 
ATOM     26  C8  UNL     1       7.927   0.676 -31.447  0.00  0.00    +0.058 A 
BRANCH  21  27
ATOM     27  O1  UNL     1       9.559   2.222 -30.846  0.00  0.00    -0.492 OA
BRANCH  27  29
ATOM     28  C1  UNL     1      11.908   2.298 -30.459  0.00  0.00    +0.048 C 
ATOM     29  C2  UNL     1      10.712   1.395 -30.700  0.00  0.00    +0.225 C 
ENDBRANCH  27  29
ENDBRANCH  21  27
ENDBRANCH  17  25
ENDBRANCH   1  19
TORSDOF 5
ENDMDL
MODEL 4
REMARK VINA RESULT:    -5.828     17.091     18.436
REMARK INTER + INTRA:          -8.459
REMARK INTER:                  -7.475
REMARK INTRA:                  -0.984
REMARK UNBOUND:                -0.927
REMARK  Name = /home/vital/Documents/PhD_2021/Malaria_codes/data/pdb_ligands_mmv/ligand_174.pdb
REMARK  6 active torsions:
REMARK  status: ('A' for Active; 'I' for Inactive)
REMARK    1  A    between atoms: C1_1  and  C2_2
REMARK    2  A    between atoms: C2_2  and  O1_3
REMARK    3  A    between atoms: O1_3  and  C3_4
REMARK    4  A    between atoms: C7_8  and  C9_10
REMARK    5  A    between atoms: N1_12  and  C10_13
REMARK    6  A    between atoms: C13_16  and  C16_19
REMARK                            x       y       z     vdW  Elec       q    Type
REMARK                         _______ _______ _______ _____ _____    ______ ____
ROOT
ATOM      1  C10 UNL     1       3.325  -4.999 -32.544  0.00  0.00    +0.034 A 
ATOM      2  C11 UNL     1       4.715  -5.088 -32.538  0.00  0.00    +0.024 A 
ATOM      3  C12 UNL     1       5.501  -3.928 -32.535  0.00  0.00    +0.013 A 
ATOM      4  C13 UNL     1       4.919  -2.653 -32.544  0.00  0.00    +0.017 A 
ATOM      5  C14 UNL     1       3.521  -2.569 -32.541  0.00  0.00    +0.013 A 
ATOM      6  C15 UNL     1       2.734  -3.730 -32.541  0.00  0.00    +0.024 A 
ENDROOT
BRANCH   4   7
ATOM      7  C16 UNL     1       5.784  -1.469 -32.544  0.00  0.00    +0.139 A 
ATOM      8  N2  UNL     1       6.831  -1.275 -31.760  0.00  0.00    -0.228 NA
ATOM      9  C17 UNL     1       7.348  -0.050 -32.102  0.00  0.00    +0.089 A 
ATOM     10  C18 UNL     1       8.452   0.637 -31.578  0.00  0.00    +0.030 A 
ATOM     11  C19 UNL     1       8.777   1.890 -32.113  0.00  0.00    +0.002 A 
ATOM     12  C20 UNL     1       8.019   2.445 -33.148  0.00  0.00    +0.002 A 
ATOM     13  C21 UNL     1       6.914   1.771 -33.682  0.00  0.00    +0.028 A 
ATOM     14  C22 UNL     1       6.614   0.526 -33.128  0.00  0.00    +0.066 A 
ATOM     15  N3  UNL     1       5.634  -0.394 -33.393  0.00  0.00    -0.338 N 
ATOM     16  H19 UNL     1       4.930  -0.306 -34.109  0.00  0.00    +0.167 HD
ENDBRANCH   4   7
BRANCH   1  19
ATOM     17  C9  UNL     1       1.798  -6.654 -31.451  0.00  0.00    +0.248 C 
ATOM     18  O2  UNL     1       1.897  -6.309 -30.280  0.00  0.00    -0.270 OA
ATOM     19  N1  UNL     1       2.461  -6.114 -32.538  0.00  0.00    -0.282 N 
ATOM     20  H10 UNL     1       2.376  -6.609 -33.416  0.00  0.00    +0.155 HD
BRANCH  17  25
ATOM     21  C3  UNL     1      -1.097  -9.072 -31.271  0.00  0.00    +0.121 A 
ATOM     22  C4  UNL     1      -0.811  -9.931 -32.333  0.00  0.00    +0.046 A 
ATOM     23  C5  UNL     1       0.324  -9.721 -33.124  0.00  0.00    +0.004 A 
ATOM     24  C6  UNL     1       1.184  -8.657 -32.852  0.00  0.00    +0.013 A 
ATOM     25  C7  UNL     1       0.910  -7.803 -31.777  0.00  0.00    +0.040 A 
ATOM     26  C8  UNL     1      -0.236  -8.006 -31.000  0.00  0.00    +0.058 A 
BRANCH  21  27
ATOM     27  O1  UNL     1      -2.171  -9.165 -30.430  0.00  0.00    -0.492 OA
BRANCH  27  29
ATOM     28  C1  UNL     1      -4.127  -8.127 -31.308  0.00  0.00    +0.048 C 
ATOM     29  C2  UNL     1      -3.001  -8.012 -30.297  0.00  0.00    +0.225 C 
ENDBRANCH  27  29
ENDBRANCH  21  27
ENDBRANCH  17  25
ENDBRANCH   1  19
TORSDOF 5
ENDMDL
MODEL 5
REMARK VINA RESULT:    -5.453      2.817     10.809
REMARK INTER + INTRA:          -7.974
REMARK INTER:                  -7.017
REMARK INTRA:                  -0.957
REMARK UNBOUND:                -0.927
REMARK  Name = /home/vital/Documents/PhD_2021/Malaria_codes/data/pdb_ligands_mmv/ligand_174.pdb
REMARK  6 active torsions:
REMARK  status: ('A' for Active; 'I' for Inactive)
REMARK    1  A    between atoms: C1_1  and  C2_2
REMARK    2  A    between atoms: C2_2  and  O1_3
REMARK    3  A    between atoms: O1_3  and  C3_4
REMARK    4  A    between atoms: C7_8  and  C9_10
REMARK    5  A    between atoms: N1_12  and  C10_13
REMARK    6  A    between atoms: C13_16  and  C16_19
REMARK                            x       y       z     vdW  Elec       q    Type
REMARK                         _______ _______ _______ _____ _____    ______ ____
ROOT
ATOM      1  C10 UNL     1      -0.531   4.955 -17.638  0.00  0.00    +0.034 A 
ATOM      2  C11 UNL     1      -1.917   4.823 -17.602  0.00  0.00    +0.024 A 
ATOM      3  C12 UNL     1      -2.701   5.267 -18.676  0.00  0.00    +0.013 A 
ATOM      4  C13 UNL     1      -2.121   5.859 -19.806  0.00  0.00    +0.017 A 
ATOM      5  C14 UNL     1      -0.726   5.981 -19.841  0.00  0.00    +0.013 A 
ATOM      6  C15 UNL     1       0.059   5.533 -18.769  0.00  0.00    +0.024 A 
ENDROOT
BRANCH   4   7
ATOM      7  C16 UNL     1      -2.984   6.312 -20.902  0.00  0.00    +0.139 A 
ATOM      8  N2  UNL     1      -3.761   5.541 -21.644  0.00  0.00    -0.228 NA
ATOM      9  C17 UNL     1      -4.393   6.373 -22.535  0.00  0.00    +0.089 A 
ATOM     10  C18 UNL     1      -5.316   6.072 -23.546  0.00  0.00    +0.030 A 
ATOM     11  C19 UNL     1      -5.820   7.121 -24.327  0.00  0.00    +0.002 A 
ATOM     12  C20 UNL     1      -5.414   8.439 -24.103  0.00  0.00    +0.002 A 
ATOM     13  C21 UNL     1      -4.494   8.756 -23.097  0.00  0.00    +0.028 A 
ATOM     14  C22 UNL     1      -4.007   7.691 -22.337  0.00  0.00    +0.066 A 
ATOM     15  N3  UNL     1      -3.120   7.626 -21.295  0.00  0.00    -0.338 N 
ATOM     16  H19 UNL     1      -2.658   8.415 -20.872  0.00  0.00    +0.167 HD
ENDBRANCH   4   7
BRANCH   1  19
ATOM     17  C9  UNL     1       1.143   3.407 -16.606  0.00  0.00    +0.248 C 
ATOM     18  O2  UNL     1       1.210   2.541 -17.470  0.00  0.00    -0.270 OA
ATOM     19  N1  UNL     1       0.331   4.526 -16.607  0.00  0.00    -0.282 N 
ATOM     20  H10 UNL     1       0.294   5.064 -15.751  0.00  0.00    +0.155 HD
BRANCH  17  25
ATOM     21  C3  UNL     1       3.903   2.224 -14.315  0.00  0.00    +0.121 A 
ATOM     22  C4  UNL     1       3.611   2.922 -13.142  0.00  0.00    +0.046 A 
ATOM     23  C5  UNL     1       2.518   3.794 -13.093  0.00  0.00    +0.004 A 
ATOM     24  C6  UNL     1       1.705   3.965 -14.213  0.00  0.00    +0.013 A 
ATOM     25  C7  UNL     1       1.983   3.254 -15.386  0.00  0.00    +0.040 A 
ATOM     26  C8  UNL     1       3.088   2.398 -15.437  0.00  0.00    +0.058 A 
BRANCH  21  27
ATOM     27  O1  UNL     1       4.939   1.350 -14.492  0.00  0.00    -0.492 OA
BRANCH  27  29
ATOM     28  C1  UNL     1       6.886   2.372 -15.408  0.00  0.00    +0.048 C 
ATOM     29  C2  UNL     1       5.699   1.471 -15.694  0.00  0.00    +0.225 C 
ENDBRANCH  27  29
ENDBRANCH  21  27
ENDBRANCH  17  25
ENDBRANCH   1  19
TORSDOF 5
ENDMDL
MODEL 6
REMARK VINA RESULT:    -5.208     13.223     15.631
REMARK INTER + INTRA:          -7.657
REMARK INTER:                  -6.741
REMARK INTRA:                  -0.915
REMARK UNBOUND:                -0.927
REMARK  Name = /home/vital/Documents/PhD_2021/Malaria_codes/data/pdb_ligands_mmv/ligand_174.pdb
REMARK  6 active torsions:
REMARK  status: ('A' for Active; 'I' for Inactive)
REMARK    1  A    between atoms: C1_1  and  C2_2
REMARK    2  A    between atoms: C2_2  and  O1_3
REMARK    3  A    between atoms: O1_3  and  C3_4
REMARK    4  A    between atoms: C7_8  and  C9_10
REMARK    5  A    between atoms: N1_12  and  C10_13
REMARK    6  A    between atoms: C13_16  and  C16_19
REMARK                            x       y       z     vdW  Elec       q    Type
REMARK                         _______ _______ _______ _____ _____    ______ ____
ROOT
ATOM      1  C10 UNL     1      -1.794  -5.136 -25.897  0.00  0.00    +0.034 A 
ATOM      2  C11 UNL     1      -0.488  -5.581 -26.088  0.00  0.00    +0.024 A 
ATOM      3  C12 UNL     1      -0.127  -6.237 -27.272  0.00  0.00    +0.013 A 
ATOM      4  C13 UNL     1      -1.061  -6.469 -28.291  0.00  0.00    +0.017 A 
ATOM      5  C14 UNL     1      -2.370  -6.012 -28.098  0.00  0.00    +0.013 A 
ATOM      6  C15 UNL     1      -2.731  -5.352 -26.915  0.00  0.00    +0.024 A 
ENDROOT
BRANCH   4   7
ATOM      7  C16 UNL     1      -0.635  -7.164 -29.511  0.00  0.00    +0.139 A 
ATOM      8  N2  UNL     1      -1.311  -8.111 -30.138  0.00  0.00    -0.228 NA
ATOM      9  C17 UNL     1      -0.555  -8.469 -31.227  0.00  0.00    +0.089 A 
ATOM     10  C18 UNL     1      -0.804  -9.429 -32.218  0.00  0.00    +0.030 A 
ATOM     11  C19 UNL     1       0.140  -9.600 -33.237  0.00  0.00    +0.002 A 
ATOM     12  C20 UNL     1       1.307  -8.831 -33.269  0.00  0.00    +0.002 A 
ATOM     13  C21 UNL     1       1.571  -7.869 -32.287  0.00  0.00    +0.028 A 
ATOM     14  C22 UNL     1       0.613  -7.722 -31.283  0.00  0.00    +0.066 A 
ATOM     15  N3  UNL     1       0.535  -6.900 -30.189  0.00  0.00    -0.338 N 
ATOM     16  H19 UNL     1       1.215  -6.201 -29.936  0.00  0.00    +0.167 HD
ENDBRANCH   4   7
BRANCH   1  19
ATOM     17  C9  UNL     1      -2.754  -5.023 -23.589  0.00  0.00    +0.248 C 
ATOM     18  O2  UNL     1      -2.989  -6.207 -23.386  0.00  0.00    -0.270 OA
ATOM     19  N1  UNL     1      -2.238  -4.460 -24.742  0.00  0.00    -0.282 N 
ATOM     20  H10 UNL     1      -2.240  -3.450 -24.796  0.00  0.00    +0.155 HD
BRANCH  17  25
ATOM     21  C3  UNL     1      -4.273  -2.035 -21.848  0.00  0.00    +0.121 A 
ATOM     22  C4  UNL     1      -3.757  -2.170 -20.558  0.00  0.00    +0.046 A 
ATOM     23  C5  UNL     1      -2.918  -3.245 -20.243  0.00  0.00    +0.004 A 
ATOM     24  C6  UNL     1      -2.583  -4.185 -21.218  0.00  0.00    +0.013 A 
ATOM     25  C7  UNL     1      -3.084  -4.043 -22.517  0.00  0.00    +0.040 A 
ATOM     26  C8  UNL     1      -3.937  -2.978 -22.823  0.00  0.00    +0.058 A 
BRANCH  21  27
ATOM     27  O1  UNL     1      -5.102  -1.037 -22.281  0.00  0.00    -0.492 OA
BRANCH  27  29
ATOM     28  C1  UNL     1      -6.816  -0.334 -23.777  0.00  0.00    +0.048 C 
ATOM     29  C2  UNL     1      -6.362  -1.425 -22.825  0.00  0.00    +0.225 C 
ENDBRANCH  27  29
ENDBRANCH  21  27
ENDBRANCH  17  25
ENDBRANCH   1  19
TORSDOF 5
ENDMDL
MODEL 7
REMARK VINA RESULT:    -5.059      4.430      6.057
REMARK INTER + INTRA:          -7.465
REMARK INTER:                  -6.517
REMARK INTRA:                  -0.948
REMARK UNBOUND:                -0.927
REMARK  Name = /home/vital/Documents/PhD_2021/Malaria_codes/data/pdb_ligands_mmv/ligand_174.pdb
REMARK  6 active torsions:
REMARK  status: ('A' for Active; 'I' for Inactive)
REMARK    1  A    between atoms: C1_1  and  C2_2
REMARK    2  A    between atoms: C2_2  and  O1_3
REMARK    3  A    between atoms: O1_3  and  C3_4
REMARK    4  A    between atoms: C7_8  and  C9_10
REMARK    5  A    between atoms: N1_12  and  C10_13
REMARK    6  A    between atoms: C13_16  and  C16_19
REMARK                            x       y       z     vdW  Elec       q    Type
REMARK                         _______ _______ _______ _____ _____    ______ ____
ROOT
ATOM      1  C10 UNL     1      -1.998   3.251 -20.316  0.00  0.00    +0.034 A 
ATOM      2  C11 UNL     1      -0.646   3.027 -20.069  0.00  0.00    +0.024 A 
ATOM      3  C12 UNL     1       0.195   4.088 -19.705  0.00  0.00    +0.013 A 
ATOM      4  C13 UNL     1      -0.293   5.396 -19.584  0.00  0.00    +0.017 A 
ATOM      5  C14 UNL     1      -1.655   5.614 -19.824  0.00  0.00    +0.013 A 
ATOM      6  C15 UNL     1      -2.497   4.552 -20.185  0.00  0.00    +0.024 A 
ENDROOT
BRANCH   4   7
ATOM      7  C16 UNL     1       0.628   6.473 -19.204  0.00  0.00    +0.139 A 
ATOM      8  N2  UNL     1       1.387   7.170 -20.032  0.00  0.00    -0.228 NA
ATOM      9  C17 UNL     1       2.076   8.072 -19.259  0.00  0.00    +0.089 A 
ATOM     10  C18 UNL     1       3.016   9.042 -19.632  0.00  0.00    +0.030 A 
ATOM     11  C19 UNL     1       3.578   9.849 -18.634  0.00  0.00    +0.002 A 
ATOM     12  C20 UNL     1       3.209   9.694 -17.295  0.00  0.00    +0.002 A 
ATOM     13  C21 UNL     1       2.271   8.730 -16.906  0.00  0.00    +0.028 A 
ATOM     14  C22 UNL     1       1.730   7.939 -17.922  0.00  0.00    +0.066 A 
ATOM     15  N3  UNL     1       0.809   6.925 -17.915  0.00  0.00    -0.338 N 
ATOM     16  H19 UNL     1       0.327   6.581 -17.100  0.00  0.00    +0.167 HD
ENDBRANCH   4   7
BRANCH   1  19
ATOM     17  C9  UNL     1      -3.260   1.842 -21.955  0.00  0.00    +0.248 C 
ATOM     18  O2  UNL     1      -2.892   2.343 -23.010  0.00  0.00    -0.270 OA
ATOM     19  N1  UNL     1      -2.913   2.241 -20.677  0.00  0.00    -0.282 N 
ATOM     20  H10 UNL     1      -3.419   1.812 -19.913  0.00  0.00    +0.155 HD
BRANCH  17  25
ATOM     21  C3  UNL     1      -5.996  -0.445 -23.198  0.00  0.00    +0.121 A 
ATOM     22  C4  UNL     1      -6.038  -1.406 -22.188  0.00  0.00    +0.046 A 
ATOM     23  C5  UNL     1      -5.166  -1.322 -21.097  0.00  0.00    +0.004 A 
ATOM     24  C6  UNL     1      -4.253  -0.271 -21.006  0.00  0.00    +0.013 A 
ATOM     25  C7  UNL     1      -4.219   0.705 -22.009  0.00  0.00    +0.040 A 
ATOM     26  C8  UNL     1      -5.080   0.606 -23.107  0.00  0.00    +0.058 A 
BRANCH  21  27
ATOM     27  O1  UNL     1      -6.788  -0.417 -24.313  0.00  0.00    -0.492 OA
BRANCH  27  29
ATOM     28  C1  UNL     1      -8.822   0.683 -24.882  0.00  0.00    +0.048 C 
ATOM     29  C2  UNL     1      -7.325   0.846 -24.702  0.00  0.00    +0.225 C 
ENDBRANCH  27  29
ENDBRANCH  21  27
ENDBRANCH  17  25
ENDBRANCH   1  19
TORSDOF 5
ENDMDL
MODEL 8
REMARK VINA RESULT:    -4.813      5.310      8.483
REMARK INTER + INTRA:          -7.147
REMARK INTER:                  -6.210
REMARK INTRA:                  -0.937
REMARK UNBOUND:                -0.927
REMARK  Name = /home/vital/Documents/PhD_2021/Malaria_codes/data/pdb_ligands_mmv/ligand_174.pdb
REMARK  6 active torsions:
REMARK  status: ('A' for Active; 'I' for Inactive)
REMARK    1  A    between atoms: C1_1  and  C2_2
REMARK    2  A    between atoms: C2_2  and  O1_3
REMARK    3  A    between atoms: O1_3  and  C3_4
REMARK    4  A    between atoms: C7_8  and  C9_10
REMARK    5  A    between atoms: N1_12  and  C10_13
REMARK    6  A    between atoms: C13_16  and  C16_19
REMARK                            x       y       z     vdW  Elec       q    Type
REMARK                         _______ _______ _______ _____ _____    ______ ____
ROOT
ATOM      1  C10 UNL     1       0.164   5.692 -19.528  0.00  0.00    +0.034 A 
ATOM      2  C11 UNL     1      -1.195   5.612 -19.233  0.00  0.00    +0.024 A 
ATOM      3  C12 UNL     1      -1.908   4.431 -19.481  0.00  0.00    +0.013 A 
ATOM      4  C13 UNL     1      -1.283   3.305 -20.034  0.00  0.00    +0.017 A 
ATOM      5  C14 UNL     1       0.085   3.387 -20.321  0.00  0.00    +0.013 A 
ATOM      6  C15 UNL     1       0.799   4.568 -20.070  0.00  0.00    +0.024 A 
ENDROOT
BRANCH   4   7
ATOM      7  C16 UNL     1      -2.073   2.093 -20.278  0.00  0.00    +0.139 A 
ATOM      8  N2  UNL     1      -2.987   1.942 -21.222  0.00  0.00    -0.228 NA
ATOM      9  C17 UNL     1      -3.465   0.662 -21.096  0.00  0.00    +0.089 A 
ATOM     10  C18 UNL     1      -4.446  -0.008 -21.839  0.00  0.00    +0.030 A 
ATOM     11  C19 UNL     1      -4.752  -1.334 -21.504  0.00  0.00    +0.002 A 
ATOM     12  C20 UNL     1      -4.092  -1.977 -20.453  0.00  0.00    +0.002 A 
ATOM     13  C21 UNL     1      -3.109  -1.322 -19.702  0.00  0.00    +0.028 A 
ATOM     14  C22 UNL     1      -2.827  -0.002 -20.057  0.00  0.00    +0.066 A 
ATOM     15  N3  UNL     1      -1.948   0.924 -19.560  0.00  0.00    -0.338 N 
ATOM     16  H19 UNL     1      -1.301   0.766 -18.804  0.00  0.00    +0.167 HD
ENDBRANCH   4   7
BRANCH   1  19
ATOM     17  C9  UNL     1       1.742   7.106 -18.196  0.00  0.00    +0.248 C 
ATOM     18  O2  UNL     1       1.837   6.434 -17.176  0.00  0.00    -0.270 OA
ATOM     19  N1  UNL     1       0.956   6.836 -19.302  0.00  0.00    -0.282 N 
ATOM     20  H10 UNL     1       0.884   7.566 -19.998  0.00  0.00    +0.155 HD
BRANCH  17  25
ATOM     21  C3  UNL     1       3.658  10.014 -19.655  0.00  0.00    +0.121 A 
ATOM     22  C4  UNL     1       3.941  10.765 -18.513  0.00  0.00    +0.046 A 
ATOM     23  C5  UNL     1       3.498  10.333 -17.258  0.00  0.00    +0.004 A 
ATOM     24  C6  UNL     1       2.779   9.145 -17.137  0.00  0.00    +0.013 A 
ATOM     25  C7  UNL     1       2.508   8.380 -18.277  0.00  0.00    +0.040 A 
ATOM     26  C8  UNL     1       2.936   8.825 -19.533  0.00  0.00    +0.058 A 
BRANCH  21  27
ATOM     27  O1  UNL     1       4.028  10.328 -20.934  0.00  0.00    -0.492 OA
BRANCH  27  29
ATOM     28  C1  UNL     1       3.771   9.780 -23.238  0.00  0.00    +0.048 C 
ATOM     29  C2  UNL     1       4.142   9.252 -21.864  0.00  0.00    +0.225 C 
ENDBRANCH  27  29
ENDBRANCH  21  27
ENDBRANCH  17  25
ENDBRANCH   1  19
TORSDOF 5
ENDMDL
MODEL 9
REMARK VINA RESULT:    -4.416     17.801     20.042
REMARK INTER + INTRA:          -6.633
REMARK INTER:                  -5.686
REMARK INTRA:                  -0.947
REMARK UNBOUND:                -0.927
REMARK  Name = /home/vital/Documents/PhD_2021/Malaria_codes/data/pdb_ligands_mmv/ligand_174.pdb
REMARK  6 active torsions:
REMARK  status: ('A' for Active; 'I' for Inactive)
REMARK    1  A    between atoms: C1_1  and  C2_2
REMARK    2  A    between atoms: C2_2  and  O1_3
REMARK    3  A    between atoms: O1_3  and  C3_4
REMARK    4  A    between atoms: C7_8  and  C9_10
REMARK    5  A    between atoms: N1_12  and  C10_13
REMARK    6  A    between atoms: C13_16  and  C16_19
REMARK                            x       y       z     vdW  Elec       q    Type
REMARK                         _______ _______ _______ _____ _____    ______ ____
ROOT
ATOM      1  C10 UNL     1     -10.076  -5.937 -32.607  0.00  0.00    +0.034 A 
ATOM      2  C11 UNL     1     -11.170  -6.797 -32.547  0.00  0.00    +0.024 A 
ATOM      3  C12 UNL     1     -11.064  -8.037 -31.904  0.00  0.00    +0.013 A 
ATOM      4  C13 UNL     1      -9.863  -8.451 -31.311  0.00  0.00    +0.017 A 
ATOM      5  C14 UNL     1      -8.769  -7.579 -31.366  0.00  0.00    +0.013 A 
ATOM      6  C15 UNL     1      -8.876  -6.336 -32.006  0.00  0.00    +0.024 A 
ENDROOT
BRANCH   4   7
ATOM      7  C16 UNL     1      -9.802  -9.760 -30.653  0.00  0.00    +0.139 A 
ATOM      8  N2  UNL     1      -9.091 -10.053 -29.577  0.00  0.00    -0.228 NA
ATOM      9  C17 UNL     1      -9.334 -11.376 -29.302  0.00  0.00    +0.089 A 
ATOM     10  C18 UNL     1      -8.830 -12.187 -28.276  0.00  0.00    +0.030 A 
ATOM     11  C19 UNL     1      -9.244 -13.524 -28.215  0.00  0.00    +0.002 A 
ATOM     12  C20 UNL     1     -10.141 -14.040 -29.154  0.00  0.00    +0.002 A 
ATOM     13  C21 UNL     1     -10.653 -13.243 -30.184  0.00  0.00    +0.028 A 
ATOM     14  C22 UNL     1     -10.222 -11.916 -30.221  0.00  0.00    +0.066 A 
ATOM     15  N3  UNL     1     -10.506 -10.872 -31.062  0.00  0.00    -0.338 N 
ATOM     16  H19 UNL     1     -11.145 -10.907 -31.840  0.00  0.00    +0.167 HD
ENDBRANCH   4   7
BRANCH   1  19
ATOM     17  C9  UNL     1     -10.091  -3.434 -32.602  0.00  0.00    +0.248 C 
ATOM     18  O2  UNL     1     -10.137  -3.213 -31.399  0.00  0.00    -0.270 OA
ATOM     19  N1  UNL     1     -10.099  -4.669 -33.225  0.00  0.00    -0.282 N 
ATOM     20  H10 UNL     1     -10.202  -4.672 -34.231  0.00  0.00    +0.155 HD
BRANCH  17  25
ATOM     21  C3  UNL     1      -9.009  -0.197 -34.219  0.00  0.00    +0.121 A 
ATOM     22  C4  UNL     1      -9.943  -0.072 -35.248  0.00  0.00    +0.046 A 
ATOM     23  C5  UNL     1     -10.928  -1.049 -35.430  0.00  0.00    +0.004 A 
ATOM     24  C6  UNL     1     -10.989  -2.152 -34.578  0.00  0.00    +0.013 A 
ATOM     25  C7  UNL     1     -10.065  -2.273 -33.534  0.00  0.00    +0.040 A 
ATOM     26  C8  UNL     1      -9.071  -1.303 -33.368  0.00  0.00    +0.058 A 
BRANCH  21  27
ATOM     27  O1  UNL     1      -8.000   0.683 -33.939  0.00  0.00    -0.492 OA
BRANCH  27  29
ATOM     28  C1  UNL     1      -6.052   0.780 -35.306  0.00  0.00    +0.048 C 
ATOM     29  C2  UNL     1      -6.662   0.198 -34.045  0.00  0.00    +0.225 C 
ENDBRANCH  27  29
ENDBRANCH  21  27
ENDBRANCH  17  25
ENDBRANCH   1  19
TORSDOF 5
ENDMDL
