MODEL 1
REMARK VINA RESULT:    -5.779      0.000      0.000
REMARK INTER + INTRA:          -9.649
REMARK INTER:                  -8.482
REMARK INTRA:                  -1.167
REMARK UNBOUND:                -1.167
REMARK  Name = /home/vital/Documents/PhD_2021/Malaria_codes/data/pdb_ligands_mmv/ligand_147.pdb
REMARK  12 active torsions:
REMARK  status: ('A' for Active; 'I' for Inactive)
REMARK    1  A    between atoms: C1_1  and  C2_2
REMARK    2  A    between atoms: C2_2  and  O1_3
REMARK    3  A    between atoms: O1_3  and  C3_4
REMARK    4  A    between atoms: C6_8  and  C11_14
REMARK    5  A    between atoms: C8_10  and  O2_11
REMARK    6  A    between atoms: O2_11  and  C9_12
REMARK    7  A    between atoms: C9_12  and  C10_13
REMARK    8  A    between atoms: C11_14  and  C12_15
REMARK    9  A    between atoms: C11_14  and  N1_16
REMARK   10  A    between atoms: C13_17  and  C14_19
REMARK   11  A    between atoms: C18_23  and  O4_24
REMARK   12  A    between atoms: O4_24  and  C19_25
REMARK                            x       y       z     vdW  Elec       q    Type
REMARK                         _______ _______ _______ _____ _____    ______ ____
ROOT
ATOM      1  C11 UNL     1       4.847  -3.295 -30.735  0.00  0.00    +0.102 C 
ATOM      2  C12 UNL     1       5.115  -4.411 -31.747  0.00  0.00    +0.033 C 
ENDROOT
BRANCH   1   7
ATOM      3  C3  UNL     1       5.587  -4.827 -26.745  0.00  0.00    +0.163 A 
ATOM      4  C4  UNL     1       4.334  -5.009 -27.328  0.00  0.00    +0.065 A 
ATOM      5  C5  UNL     1       4.080  -4.504 -28.605  0.00  0.00    +0.026 A 
ATOM      6 BR1  UNL     1       2.337  -4.807 -29.298  0.00  0.00    -0.050 Br
ATOM      7  C6  UNL     1       5.083  -3.825 -29.324  0.00  0.00    -0.010 A 
ATOM      8  C7  UNL     1       6.357  -3.689 -28.720  0.00  0.00    +0.056 A 
ATOM      9  C8  UNL     1       6.619  -4.182 -27.437  0.00  0.00    +0.162 A 
BRANCH   3  10
ATOM     10  O1  UNL     1       5.773  -5.372 -25.500  0.00  0.00    -0.489 OA
BRANCH  10  12
ATOM     11  C1  UNL     1       5.757  -4.966 -23.151  0.00  0.00    +0.048 C 
ATOM     12  C2  UNL     1       5.153  -4.574 -24.492  0.00  0.00    +0.226 C 
ENDBRANCH  10  12
ENDBRANCH   3  10
BRANCH   9  13
ATOM     13  O2  UNL     1       7.826  -4.104 -26.795  0.00  0.00    -0.489 OA
BRANCH  13  14
ATOM     14  C9  UNL     1       8.140  -2.892 -26.116  0.00  0.00    +0.226 C 
ATOM     15  C10 UNL     1       8.746  -3.254 -24.776  0.00  0.00    +0.048 C 
ENDBRANCH  13  14
ENDBRANCH   9  13
ENDBRANCH   1   7
BRANCH   1  16
ATOM     16  N1  UNL     1       5.664  -2.130 -31.070  0.00  0.00    -0.305 N 
ATOM     17  C13 UNL     1       5.222  -1.210 -32.007  0.00  0.00    +0.245 C 
ATOM     18  O3  UNL     1       4.101  -1.214 -32.502  0.00  0.00    -0.270 OA
ATOM     19  H17 UNL     1       6.661  -2.282 -31.081  0.00  0.00    +0.150 HD
BRANCH  17  20
ATOM     20  C14 UNL     1       6.235  -0.213 -32.447  0.00  0.00    +0.040 A 
ATOM     21  C15 UNL     1       5.895   0.843 -33.303  0.00  0.00    +0.013 A 
ATOM     22  C16 UNL     1       6.867   1.770 -33.677  0.00  0.00    +0.004 A 
ATOM     23  C17 UNL     1       8.176   1.646 -33.202  0.00  0.00    +0.045 A 
ATOM     24  C18 UNL     1       8.525   0.589 -32.356  0.00  0.00    +0.121 A 
ATOM     25  C20 UNL     1       7.552  -0.344 -31.991  0.00  0.00    +0.058 A 
BRANCH  24  26
ATOM     26  O4  UNL     1       9.764   0.363 -31.823  0.00  0.00    -0.495 OA
ATOM     27  C19 UNL     1      10.191   1.243 -30.789  0.00  0.00    +0.277 C 
ENDBRANCH  24  26
ENDBRANCH  17  20
ENDBRANCH   1  16
TORSDOF 8
ENDMDL
MODEL 2
REMARK VINA RESULT:    -5.627      3.900      6.007
REMARK INTER + INTRA:          -9.426
REMARK INTER:                  -8.210
REMARK INTRA:                  -1.216
REMARK UNBOUND:                -1.167
REMARK  Name = /home/vital/Documents/PhD_2021/Malaria_codes/data/pdb_ligands_mmv/ligand_147.pdb
REMARK  12 active torsions:
REMARK  status: ('A' for Active; 'I' for Inactive)
REMARK    1  A    between atoms: C1_1  and  C2_2
REMARK    2  A    between atoms: C2_2  and  O1_3
REMARK    3  A    between atoms: O1_3  and  C3_4
REMARK    4  A    between atoms: C6_8  and  C11_14
REMARK    5  A    between atoms: C8_10  and  O2_11
REMARK    6  A    between atoms: O2_11  and  C9_12
REMARK    7  A    between atoms: C9_12  and  C10_13
REMARK    8  A    between atoms: C11_14  and  C12_15
REMARK    9  A    between atoms: C11_14  and  N1_16
REMARK   10  A    between atoms: C13_17  and  C14_19
REMARK   11  A    between atoms: C18_23  and  O4_24
REMARK   12  A    between atoms: O4_24  and  C19_25
REMARK                            x       y       z     vdW  Elec       q    Type
REMARK                         _______ _______ _______ _____ _____    ______ ____
ROOT
ATOM      1  C11 UNL     1       5.925  -2.310 -26.698  0.00  0.00    +0.102 C 
ATOM      2  C12 UNL     1       5.385  -0.893 -26.494  0.00  0.00    +0.033 C 
ENDROOT
BRANCH   1   7
ATOM      3  C3  UNL     1       5.203  -4.585 -23.075  0.00  0.00    +0.163 A 
ATOM      4  C4  UNL     1       6.514  -4.301 -23.458  0.00  0.00    +0.065 A 
ATOM      5  C5  UNL     1       6.757  -3.585 -24.632  0.00  0.00    +0.026 A 
ATOM      6 BR1  UNL     1       8.581  -3.262 -25.057  0.00  0.00    -0.050 Br
ATOM      7  C6  UNL     1       5.692  -3.127 -25.430  0.00  0.00    -0.010 A 
ATOM      8  C7  UNL     1       4.372  -3.397 -24.995  0.00  0.00    +0.056 A 
ATOM      9  C8  UNL     1       4.115  -4.123 -23.825  0.00  0.00    +0.162 A 
BRANCH   3  10
ATOM     10  O1  UNL     1       5.039  -5.269 -21.898  0.00  0.00    -0.489 OA
BRANCH  10  12
ATOM     11  C1  UNL     1       4.192  -4.611 -19.769  0.00  0.00    +0.048 C 
ATOM     12  C2  UNL     1       5.321  -4.435 -20.774  0.00  0.00    +0.226 C 
ENDBRANCH  10  12
ENDBRANCH   3  10
BRANCH   9  13
ATOM     13  O2  UNL     1       2.871  -4.409 -23.333  0.00  0.00    -0.489 OA
BRANCH  13  14
ATOM     14  C9  UNL     1       2.064  -3.319 -22.894  0.00  0.00    +0.226 C 
ATOM     15  C10 UNL     1       1.169  -3.823 -21.780  0.00  0.00    +0.048 C 
ENDBRANCH  13  14
ENDBRANCH   9  13
ENDBRANCH   1   7
BRANCH   1  16
ATOM     16  N1  UNL     1       5.318  -2.893 -27.893  0.00  0.00    -0.305 N 
ATOM     17  C13 UNL     1       6.056  -3.727 -28.717  0.00  0.00    +0.245 C 
ATOM     18  O3  UNL     1       7.177  -4.144 -28.452  0.00  0.00    -0.270 OA
ATOM     19  H17 UNL     1       4.661  -2.305 -28.383  0.00  0.00    +0.150 HD
BRANCH  17  20
ATOM     20  C14 UNL     1       5.421  -4.056 -30.023  0.00  0.00    +0.040 A 
ATOM     21  C15 UNL     1       6.149  -4.014 -31.219  0.00  0.00    +0.013 A 
ATOM     22  C16 UNL     1       5.525  -4.350 -32.420  0.00  0.00    +0.004 A 
ATOM     23  C17 UNL     1       4.177  -4.723 -32.431  0.00  0.00    +0.045 A 
ATOM     24  C18 UNL     1       3.442  -4.755 -31.243  0.00  0.00    +0.121 A 
ATOM     25  C20 UNL     1       4.067  -4.410 -30.042  0.00  0.00    +0.058 A 
BRANCH  24  26
ATOM     26  O4  UNL     1       2.125  -5.107 -31.123  0.00  0.00    -0.495 OA
ATOM     27  C19 UNL     1       1.723  -6.318 -31.752  0.00  0.00    +0.277 C 
ENDBRANCH  24  26
ENDBRANCH  17  20
ENDBRANCH   1  16
TORSDOF 8
ENDMDL
MODEL 3
REMARK VINA RESULT:    -5.589      3.798      7.818
REMARK INTER + INTRA:          -9.370
REMARK INTER:                  -8.238
REMARK INTRA:                  -1.132
REMARK UNBOUND:                -1.167
REMARK  Name = /home/vital/Documents/PhD_2021/Malaria_codes/data/pdb_ligands_mmv/ligand_147.pdb
REMARK  12 active torsions:
REMARK  status: ('A' for Active; 'I' for Inactive)
REMARK    1  A    between atoms: C1_1  and  C2_2
REMARK    2  A    between atoms: C2_2  and  O1_3
REMARK    3  A    between atoms: O1_3  and  C3_4
REMARK    4  A    between atoms: C6_8  and  C11_14
REMARK    5  A    between atoms: C8_10  and  O2_11
REMARK    6  A    between atoms: O2_11  and  C9_12
REMARK    7  A    between atoms: C9_12  and  C10_13
REMARK    8  A    between atoms: C11_14  and  C12_15
REMARK    9  A    between atoms: C11_14  and  N1_16
REMARK   10  A    between atoms: C13_17  and  C14_19
REMARK   11  A    between atoms: C18_23  and  O4_24
REMARK   12  A    between atoms: O4_24  and  C19_25
REMARK                            x       y       z     vdW  Elec       q    Type
REMARK                         _______ _______ _______ _____ _____    ______ ____
ROOT
ATOM      1  C11 UNL     1       4.711  -3.899 -31.964  0.00  0.00    +0.102 C 
ATOM      2  C12 UNL     1       5.851  -4.530 -32.767  0.00  0.00    +0.033 C 
ENDROOT
BRANCH   1   7
ATOM      3  C3  UNL     1       0.952  -5.059 -33.792  0.00  0.00    +0.163 A 
ATOM      4  C4  UNL     1       1.145  -3.735 -33.401  0.00  0.00    +0.065 A 
ATOM      5  C5  UNL     1       2.345  -3.355 -32.795  0.00  0.00    +0.026 A 
ATOM      6 BR1  UNL     1       2.495  -1.527 -32.299  0.00  0.00    -0.050 Br
ATOM      7  C6  UNL     1       3.376  -4.292 -32.589  0.00  0.00    -0.010 A 
ATOM      8  C7  UNL     1       3.165  -5.620 -33.032  0.00  0.00    +0.056 A 
ATOM      9  C8  UNL     1       1.962  -6.014 -33.631  0.00  0.00    +0.162 A 
BRANCH   3  10
ATOM     10  O1  UNL     1      -0.240  -5.354 -34.404  0.00  0.00    -0.489 OA
BRANCH  10  12
ATOM     11  C1  UNL     1      -2.050  -6.761 -33.754  0.00  0.00    +0.048 C 
ATOM     12  C2  UNL     1      -1.291  -5.478 -33.447  0.00  0.00    +0.226 C 
ENDBRANCH  10  12
ENDBRANCH   3  10
BRANCH   9  13
ATOM     13  O2  UNL     1       1.691  -7.272 -34.098  0.00  0.00    -0.489 OA
BRANCH  13  14
ATOM     14  C9  UNL     1       1.918  -8.370 -33.220  0.00  0.00    +0.226 C 
ATOM     15  C10 UNL     1       0.899  -8.288 -32.101  0.00  0.00    +0.048 C 
ENDBRANCH  13  14
ENDBRANCH   9  13
ENDBRANCH   1   7
BRANCH   1  16
ATOM     16  N1  UNL     1       4.838  -4.281 -30.559  0.00  0.00    -0.305 N 
ATOM     17  C13 UNL     1       5.563  -3.491 -29.681  0.00  0.00    +0.245 C 
ATOM     18  O3  UNL     1       6.014  -2.387 -29.958  0.00  0.00    -0.270 OA
ATOM     19  H17 UNL     1       4.909  -5.271 -30.378  0.00  0.00    +0.150 HD
BRANCH  17  20
ATOM     20  C14 UNL     1       5.832  -4.101 -28.350  0.00  0.00    +0.040 A 
ATOM     21  C15 UNL     1       4.858  -4.856 -27.685  0.00  0.00    +0.013 A 
ATOM     22  C16 UNL     1       5.153  -5.430 -26.449  0.00  0.00    +0.004 A 
ATOM     23  C17 UNL     1       6.415  -5.250 -25.874  0.00  0.00    +0.045 A 
ATOM     24  C18 UNL     1       7.387  -4.490 -26.527  0.00  0.00    +0.121 A 
ATOM     25  C20 UNL     1       7.087  -3.907 -27.761  0.00  0.00    +0.058 A 
BRANCH  24  26
ATOM     26  O4  UNL     1       8.655  -4.246 -26.073  0.00  0.00    -0.495 OA
ATOM     27  C19 UNL     1       8.796  -3.264 -25.053  0.00  0.00    +0.277 C 
ENDBRANCH  24  26
ENDBRANCH  17  20
ENDBRANCH   1  16
TORSDOF 8
ENDMDL
MODEL 4
REMARK VINA RESULT:    -5.587      4.045      7.171
REMARK INTER + INTRA:          -9.367
REMARK INTER:                  -8.240
REMARK INTRA:                  -1.127
REMARK UNBOUND:                -1.167
REMARK  Name = /home/vital/Documents/PhD_2021/Malaria_codes/data/pdb_ligands_mmv/ligand_147.pdb
REMARK  12 active torsions:
REMARK  status: ('A' for Active; 'I' for Inactive)
REMARK    1  A    between atoms: C1_1  and  C2_2
REMARK    2  A    between atoms: C2_2  and  O1_3
REMARK    3  A    between atoms: O1_3  and  C3_4
REMARK    4  A    between atoms: C6_8  and  C11_14
REMARK    5  A    between atoms: C8_10  and  O2_11
REMARK    6  A    between atoms: O2_11  and  C9_12
REMARK    7  A    between atoms: C9_12  and  C10_13
REMARK    8  A    between atoms: C11_14  and  C12_15
REMARK    9  A    between atoms: C11_14  and  N1_16
REMARK   10  A    between atoms: C13_17  and  C14_19
REMARK   11  A    between atoms: C18_23  and  O4_24
REMARK   12  A    between atoms: O4_24  and  C19_25
REMARK                            x       y       z     vdW  Elec       q    Type
REMARK                         _______ _______ _______ _____ _____    ______ ____
ROOT
ATOM      1  C11 UNL     1       3.117  -4.173 -29.268  0.00  0.00    +0.102 C 
ATOM      2  C12 UNL     1       2.001  -3.767 -28.303  0.00  0.00    +0.033 C 
ENDROOT
BRANCH   1   7
ATOM      3  C3  UNL     1       6.825  -4.439 -27.031  0.00  0.00    +0.163 A 
ATOM      4  C4  UNL     1       6.859  -4.071 -28.375  0.00  0.00    +0.065 A 
ATOM      5  C5  UNL     1       5.673  -4.001 -29.109  0.00  0.00    +0.026 A 
ATOM      6 BR1  UNL     1       5.841  -3.495 -30.933  0.00  0.00    -0.050 Br
ATOM      7  C6  UNL     1       4.433  -4.279 -28.502  0.00  0.00    -0.010 A 
ATOM      8  C7  UNL     1       4.427  -4.611 -27.126  0.00  0.00    +0.056 A 
ATOM      9  C8  UNL     1       5.610  -4.696 -26.383  0.00  0.00    +0.162 A 
BRANCH   3  10
ATOM     10  O1  UNL     1       8.024  -4.462 -26.367  0.00  0.00    -0.489 OA
BRANCH  10  12
ATOM     11  C1  UNL     1       9.177  -3.308 -24.629  0.00  0.00    +0.048 C 
ATOM     12  C2  UNL     1       8.393  -3.157 -25.924  0.00  0.00    +0.226 C 
ENDBRANCH  10  12
ENDBRANCH   3  10
BRANCH   9  13
ATOM     13  O2  UNL     1       5.683  -4.994 -25.049  0.00  0.00    -0.489 OA
BRANCH  13  14
ATOM     14  C9  UNL     1       5.004  -4.134 -24.139  0.00  0.00    +0.226 C 
ATOM     15  C10 UNL     1       5.879  -3.974 -22.912  0.00  0.00    +0.048 C 
ENDBRANCH  13  14
ENDBRANCH   9  13
ENDBRANCH   1   7
BRANCH   1  16
ATOM     16  N1  UNL     1       2.738  -5.404 -29.958  0.00  0.00    -0.305 N 
ATOM     17  C13 UNL     1       2.421  -5.382 -31.306  0.00  0.00    +0.245 C 
ATOM     18  O3  UNL     1       2.566  -4.408 -32.033  0.00  0.00    -0.270 OA
ATOM     19  H17 UNL     1       2.195  -6.061 -29.417  0.00  0.00    +0.150 HD
BRANCH  17  20
ATOM     20  C14 UNL     1       1.814  -6.634 -31.837  0.00  0.00    +0.040 A 
ATOM     21  C15 UNL     1       2.357  -7.293 -32.948  0.00  0.00    +0.013 A 
ATOM     22  C16 UNL     1       1.773  -8.474 -33.404  0.00  0.00    +0.004 A 
ATOM     23  C17 UNL     1       0.648  -8.997 -32.758  0.00  0.00    +0.045 A 
ATOM     24  C18 UNL     1       0.095  -8.339 -31.657  0.00  0.00    +0.121 A 
ATOM     25  C20 UNL     1       0.675  -7.150 -31.207  0.00  0.00    +0.058 A 
BRANCH  24  26
ATOM     26  O4  UNL     1      -0.995  -8.750 -30.939  0.00  0.00    -0.495 OA
ATOM     27  C19 UNL     1      -2.275  -8.434 -31.476  0.00  0.00    +0.277 C 
ENDBRANCH  24  26
ENDBRANCH  17  20
ENDBRANCH   1  16
TORSDOF 8
ENDMDL
MODEL 5
REMARK VINA RESULT:    -5.541      2.853      5.107
REMARK INTER + INTRA:          -9.299
REMARK INTER:                  -8.267
REMARK INTRA:                  -1.032
REMARK UNBOUND:                -1.167
REMARK  Name = /home/vital/Documents/PhD_2021/Malaria_codes/data/pdb_ligands_mmv/ligand_147.pdb
REMARK  12 active torsions:
REMARK  status: ('A' for Active; 'I' for Inactive)
REMARK    1  A    between atoms: C1_1  and  C2_2
REMARK    2  A    between atoms: C2_2  and  O1_3
REMARK    3  A    between atoms: O1_3  and  C3_4
REMARK    4  A    between atoms: C6_8  and  C11_14
REMARK    5  A    between atoms: C8_10  and  O2_11
REMARK    6  A    between atoms: O2_11  and  C9_12
REMARK    7  A    between atoms: C9_12  and  C10_13
REMARK    8  A    between atoms: C11_14  and  C12_15
REMARK    9  A    between atoms: C11_14  and  N1_16
REMARK   10  A    between atoms: C13_17  and  C14_19
REMARK   11  A    between atoms: C18_23  and  O4_24
REMARK   12  A    between atoms: O4_24  and  C19_25
REMARK                            x       y       z     vdW  Elec       q    Type
REMARK                         _______ _______ _______ _____ _____    ______ ____
ROOT
ATOM      1  C11 UNL     1       5.804  -4.752 -26.077  0.00  0.00    +0.102 C 
ATOM      2  C12 UNL     1       6.530  -6.083 -26.282  0.00  0.00    +0.033 C 
ENDROOT
BRANCH   1   7
ATOM      3  C3  UNL     1       8.125  -2.331 -23.326  0.00  0.00    +0.163 A 
ATOM      4  C4  UNL     1       6.925  -2.896 -22.898  0.00  0.00    +0.065 A 
ATOM      5  C5  UNL     1       6.161  -3.662 -23.781  0.00  0.00    +0.026 A 
ATOM      6 BR1  UNL     1       4.542  -4.378 -23.091  0.00  0.00    -0.050 Br
ATOM      7  C6  UNL     1       6.597  -3.888 -25.101  0.00  0.00    -0.010 A 
ATOM      8  C7  UNL     1       7.839  -3.334 -25.494  0.00  0.00    +0.056 A 
ATOM      9  C8  UNL     1       8.608  -2.555 -24.621  0.00  0.00    +0.162 A 
BRANCH   3  10
ATOM     10  O1  UNL     1       8.835  -1.612 -22.398  0.00  0.00    -0.489 OA
BRANCH  10  12
ATOM     11  C1  UNL     1       8.931   0.292 -20.968  0.00  0.00    +0.048 C 
ATOM     12  C2  UNL     1       8.234  -0.339 -22.164  0.00  0.00    +0.226 C 
ENDBRANCH  10  12
ENDBRANCH   3  10
BRANCH   9  13
ATOM     13  O2  UNL     1       9.823  -2.000 -24.922  0.00  0.00    -0.489 OA
BRANCH  13  14
ATOM     14  C9  UNL     1       9.837  -0.851 -25.764  0.00  0.00    +0.226 C 
ATOM     15  C10 UNL     1      10.971   0.044 -25.308  0.00  0.00    +0.048 C 
ENDBRANCH  13  14
ENDBRANCH   9  13
ENDBRANCH   1   7
BRANCH   1  16
ATOM     16  N1  UNL     1       5.579  -4.117 -27.374  0.00  0.00    -0.305 N 
ATOM     17  C13 UNL     1       4.531  -4.527 -28.182  0.00  0.00    +0.245 C 
ATOM     18  O3  UNL     1       3.659  -5.314 -27.835  0.00  0.00    -0.270 OA
ATOM     19  H17 UNL     1       6.409  -3.847 -27.881  0.00  0.00    +0.150 HD
BRANCH  17  20
ATOM     20  C14 UNL     1       4.550  -3.991 -29.571  0.00  0.00    +0.040 A 
ATOM     21  C15 UNL     1       3.667  -4.467 -30.549  0.00  0.00    +0.013 A 
ATOM     22  C16 UNL     1       3.701  -3.925 -31.833  0.00  0.00    +0.004 A 
ATOM     23  C17 UNL     1       4.614  -2.913 -32.145  0.00  0.00    +0.045 A 
ATOM     24  C18 UNL     1       5.504  -2.441 -31.177  0.00  0.00    +0.121 A 
ATOM     25  C20 UNL     1       5.476  -2.992 -29.894  0.00  0.00    +0.058 A 
BRANCH  24  26
ATOM     26  O4  UNL     1       6.437  -1.455 -31.357  0.00  0.00    -0.495 OA
ATOM     27  C19 UNL     1       6.053  -0.345 -32.159  0.00  0.00    +0.277 C 
ENDBRANCH  24  26
ENDBRANCH  17  20
ENDBRANCH   1  16
TORSDOF 8
ENDMDL
MODEL 6
REMARK VINA RESULT:    -5.477      8.443     12.055
REMARK INTER + INTRA:          -9.206
REMARK INTER:                  -8.138
REMARK INTRA:                  -1.068
REMARK UNBOUND:                -1.167
REMARK  Name = /home/vital/Documents/PhD_2021/Malaria_codes/data/pdb_ligands_mmv/ligand_147.pdb
REMARK  12 active torsions:
REMARK  status: ('A' for Active; 'I' for Inactive)
REMARK    1  A    between atoms: C1_1  and  C2_2
REMARK    2  A    between atoms: C2_2  and  O1_3
REMARK    3  A    between atoms: O1_3  and  C3_4
REMARK    4  A    between atoms: C6_8  and  C11_14
REMARK    5  A    between atoms: C8_10  and  O2_11
REMARK    6  A    between atoms: O2_11  and  C9_12
REMARK    7  A    between atoms: C9_12  and  C10_13
REMARK    8  A    between atoms: C11_14  and  C12_15
REMARK    9  A    between atoms: C11_14  and  N1_16
REMARK   10  A    between atoms: C13_17  and  C14_19
REMARK   11  A    between atoms: C18_23  and  O4_24
REMARK   12  A    between atoms: O4_24  and  C19_25
REMARK                            x       y       z     vdW  Elec       q    Type
REMARK                         _______ _______ _______ _____ _____    ______ ____
ROOT
ATOM      1  C11 UNL     1      -1.520  -4.906 -22.937  0.00  0.00    +0.102 C 
ATOM      2  C12 UNL     1      -1.900  -6.354 -22.618  0.00  0.00    +0.033 C 
ENDROOT
BRANCH   1   7
ATOM      3  C3  UNL     1      -5.060  -2.425 -22.578  0.00  0.00    +0.163 A 
ATOM      4  C4  UNL     1      -4.806  -3.089 -23.777  0.00  0.00    +0.065 A 
ATOM      5  C5  UNL     1      -3.659  -3.875 -23.909  0.00  0.00    +0.026 A 
ATOM      6 BR1  UNL     1      -3.413  -4.728 -25.589  0.00  0.00    -0.050 Br
ATOM      7  C6  UNL     1      -2.760  -4.024 -22.835  0.00  0.00    -0.010 A 
ATOM      8  C7  UNL     1      -3.066  -3.369 -21.618  0.00  0.00    +0.056 A 
ATOM      9  C8  UNL     1      -4.206  -2.569 -21.477  0.00  0.00    +0.162 A 
BRANCH   3  10
ATOM     10  O1  UNL     1      -6.217  -1.692 -22.511  0.00  0.00    -0.489 OA
BRANCH  10  12
ATOM     11  C1  UNL     1      -7.187  -0.239 -24.132  0.00  0.00    +0.048 C 
ATOM     12  C2  UNL     1      -6.054  -0.417 -23.133  0.00  0.00    +0.226 C 
ENDBRANCH  10  12
ENDBRANCH   3  10
BRANCH   9  13
ATOM     13  O2  UNL     1      -4.576  -1.919 -20.331  0.00  0.00    -0.489 OA
BRANCH  13  14
ATOM     14  C9  UNL     1      -3.761  -0.837 -19.889  0.00  0.00    +0.226 C 
ATOM     15  C10 UNL     1      -3.147  -1.230 -18.561  0.00  0.00    +0.048 C 
ENDBRANCH  13  14
ENDBRANCH   9  13
ENDBRANCH   1   7
BRANCH   1  16
ATOM     16  N1  UNL     1      -0.427  -4.488 -22.061  0.00  0.00    -0.305 N 
ATOM     17  C13 UNL     1       0.712  -3.905 -22.591  0.00  0.00    +0.245 C 
ATOM     18  O3  UNL     1       0.835  -3.573 -23.763  0.00  0.00    -0.270 OA
ATOM     19  H17 UNL     1      -0.254  -5.080 -21.262  0.00  0.00    +0.150 HD
BRANCH  17  20
ATOM     20  C14 UNL     1       1.850  -3.752 -21.642  0.00  0.00    +0.040 A 
ATOM     21  C15 UNL     1       1.634  -3.497 -20.282  0.00  0.00    +0.013 A 
ATOM     22  C16 UNL     1       2.723  -3.380 -19.420  0.00  0.00    +0.004 A 
ATOM     23  C17 UNL     1       4.026  -3.515 -19.911  0.00  0.00    +0.045 A 
ATOM     24  C18 UNL     1       4.248  -3.759 -21.268  0.00  0.00    +0.121 A 
ATOM     25  C20 UNL     1       3.156  -3.866 -22.133  0.00  0.00    +0.058 A 
BRANCH  24  26
ATOM     26  O4  UNL     1       5.469  -3.915 -21.867  0.00  0.00    -0.495 OA
ATOM     27  C19 UNL     1       5.589  -4.964 -22.820  0.00  0.00    +0.277 C 
ENDBRANCH  24  26
ENDBRANCH  17  20
ENDBRANCH   1  16
TORSDOF 8
ENDMDL
MODEL 7
REMARK VINA RESULT:    -5.427      3.890      8.200
REMARK INTER + INTRA:          -9.132
REMARK INTER:                  -7.955
REMARK INTRA:                  -1.177
REMARK UNBOUND:                -1.167
REMARK  Name = /home/vital/Documents/PhD_2021/Malaria_codes/data/pdb_ligands_mmv/ligand_147.pdb
REMARK  12 active torsions:
REMARK  status: ('A' for Active; 'I' for Inactive)
REMARK    1  A    between atoms: C1_1  and  C2_2
REMARK    2  A    between atoms: C2_2  and  O1_3
REMARK    3  A    between atoms: O1_3  and  C3_4
REMARK    4  A    between atoms: C6_8  and  C11_14
REMARK    5  A    between atoms: C8_10  and  O2_11
REMARK    6  A    between atoms: O2_11  and  C9_12
REMARK    7  A    between atoms: C9_12  and  C10_13
REMARK    8  A    between atoms: C11_14  and  C12_15
REMARK    9  A    between atoms: C11_14  and  N1_16
REMARK   10  A    between atoms: C13_17  and  C14_19
REMARK   11  A    between atoms: C18_23  and  O4_24
REMARK   12  A    between atoms: O4_24  and  C19_25
REMARK                            x       y       z     vdW  Elec       q    Type
REMARK                         _______ _______ _______ _____ _____    ______ ____
ROOT
ATOM      1  C11 UNL     1       4.700  -3.951 -31.995  0.00  0.00    +0.102 C 
ATOM      2  C12 UNL     1       5.871  -4.636 -32.703  0.00  0.00    +0.033 C 
ENDROOT
BRANCH   1   7
ATOM      3  C3  UNL     1       1.028  -5.122 -33.987  0.00  0.00    +0.163 A 
ATOM      4  C4  UNL     1       1.225  -3.786 -33.641  0.00  0.00    +0.065 A 
ATOM      5  C5  UNL     1       2.396  -3.401 -32.983  0.00  0.00    +0.026 A 
ATOM      6 BR1  UNL     1       2.554  -1.556 -32.556  0.00  0.00    -0.050 Br
ATOM      7  C6  UNL     1       3.394  -4.346 -32.679  0.00  0.00    -0.010 A 
ATOM      8  C7  UNL     1       3.183  -5.689 -33.077  0.00  0.00    +0.056 A 
ATOM      9  C8  UNL     1       2.008  -6.087 -33.727  0.00  0.00    +0.162 A 
BRANCH   3  10
ATOM     10  O1  UNL     1      -0.132  -5.422 -34.653  0.00  0.00    -0.489 OA
BRANCH  10  12
ATOM     11  C1  UNL     1      -1.922  -6.916 -34.155  0.00  0.00    +0.048 C 
ATOM     12  C2  UNL     1      -1.208  -5.638 -33.740  0.00  0.00    +0.226 C 
ENDBRANCH  10  12
ENDBRANCH   3  10
BRANCH   9  13
ATOM     13  O2  UNL     1       1.739  -7.359 -34.156  0.00  0.00    -0.489 OA
BRANCH  13  14
ATOM     14  C9  UNL     1       1.961  -8.429 -33.243  0.00  0.00    +0.226 C 
ATOM     15  C10 UNL     1       0.837  -8.413 -32.227  0.00  0.00    +0.048 C 
ENDBRANCH  13  14
ENDBRANCH   9  13
ENDBRANCH   1   7
BRANCH   1  16
ATOM     16  N1  UNL     1       4.739  -4.273 -30.570  0.00  0.00    -0.305 N 
ATOM     17  C13 UNL     1       5.507  -3.515 -29.701  0.00  0.00    +0.245 C 
ATOM     18  O3  UNL     1       6.073  -2.475 -30.010  0.00  0.00    -0.270 OA
ATOM     19  H17 UNL     1       4.706  -5.255 -30.341  0.00  0.00    +0.150 HD
BRANCH  17  20
ATOM     20  C14 UNL     1       5.667  -4.082 -28.334  0.00  0.00    +0.040 A 
ATOM     21  C15 UNL     1       6.934  -4.335 -27.793  0.00  0.00    +0.013 A 
ATOM     22  C16 UNL     1       7.045  -4.847 -26.501  0.00  0.00    +0.004 A 
ATOM     23  C17 UNL     1       5.896  -5.109 -25.748  0.00  0.00    +0.045 A 
ATOM     24  C18 UNL     1       4.628  -4.869 -26.285  0.00  0.00    +0.121 A 
ATOM     25  C20 UNL     1       4.519  -4.366 -27.584  0.00  0.00    +0.058 A 
BRANCH  24  26
ATOM     26  O4  UNL     1       3.434  -5.079 -25.651  0.00  0.00    -0.495 OA
ATOM     27  C19 UNL     1       2.418  -4.104 -25.853  0.00  0.00    +0.277 C 
ENDBRANCH  24  26
ENDBRANCH  17  20
ENDBRANCH   1  16
TORSDOF 8
ENDMDL
MODEL 8
REMARK VINA RESULT:    -5.396      4.893      8.235
REMARK INTER + INTRA:          -9.086
REMARK INTER:                  -7.886
REMARK INTRA:                  -1.200
REMARK UNBOUND:                -1.167
REMARK  Name = /home/vital/Documents/PhD_2021/Malaria_codes/data/pdb_ligands_mmv/ligand_147.pdb
REMARK  12 active torsions:
REMARK  status: ('A' for Active; 'I' for Inactive)
REMARK    1  A    between atoms: C1_1  and  C2_2
REMARK    2  A    between atoms: C2_2  and  O1_3
REMARK    3  A    between atoms: O1_3  and  C3_4
REMARK    4  A    between atoms: C6_8  and  C11_14
REMARK    5  A    between atoms: C8_10  and  O2_11
REMARK    6  A    between atoms: O2_11  and  C9_12
REMARK    7  A    between atoms: C9_12  and  C10_13
REMARK    8  A    between atoms: C11_14  and  C12_15
REMARK    9  A    between atoms: C11_14  and  N1_16
REMARK   10  A    between atoms: C13_17  and  C14_19
REMARK   11  A    between atoms: C18_23  and  O4_24
REMARK   12  A    between atoms: O4_24  and  C19_25
REMARK                            x       y       z     vdW  Elec       q    Type
REMARK                         _______ _______ _______ _____ _____    ______ ____
ROOT
ATOM      1  C11 UNL     1       2.603  -4.861 -31.783  0.00  0.00    +0.102 C 
ATOM      2  C12 UNL     1       1.782  -3.632 -32.179  0.00  0.00    +0.033 C 
ENDROOT
BRANCH   1   7
ATOM      3  C3  UNL     1       5.021  -3.846 -28.328  0.00  0.00    +0.163 A 
ATOM      4  C4  UNL     1       5.615  -3.905 -29.588  0.00  0.00    +0.065 A 
ATOM      5  C5  UNL     1       4.849  -4.249 -30.704  0.00  0.00    +0.026 A 
ATOM      6 BR1  UNL     1       5.765  -4.303 -32.368  0.00  0.00    -0.050 Br
ATOM      7  C6  UNL     1       3.473  -4.520 -30.577  0.00  0.00    -0.010 A 
ATOM      8  C7  UNL     1       2.891  -4.414 -29.291  0.00  0.00    +0.056 A 
ATOM      9  C8  UNL     1       3.651  -4.081 -28.163  0.00  0.00    +0.162 A 
BRANCH   3  10
ATOM     10  O1  UNL     1       5.828  -3.477 -27.282  0.00  0.00    -0.489 OA
BRANCH  10  12
ATOM     11  C1  UNL     1       6.907  -5.246 -26.103  0.00  0.00    +0.048 C 
ATOM     12  C2  UNL     1       7.023  -4.257 -27.254  0.00  0.00    +0.226 C 
ENDBRANCH  10  12
ENDBRANCH   3  10
BRANCH   9  13
ATOM     13  O2  UNL     1       3.158  -3.943 -26.894  0.00  0.00    -0.489 OA
BRANCH  13  14
ATOM     14  C9  UNL     1       3.016  -5.121 -26.106  0.00  0.00    +0.226 C 
ATOM     15  C10 UNL     1       1.547  -5.284 -25.774  0.00  0.00    +0.048 C 
ENDBRANCH  13  14
ENDBRANCH   9  13
ENDBRANCH   1   7
BRANCH   1  16
ATOM     16  N1  UNL     1       1.705  -5.993 -31.559  0.00  0.00    -0.305 N 
ATOM     17  C13 UNL     1       1.889  -7.180 -32.250  0.00  0.00    +0.245 C 
ATOM     18  O3  UNL     1       2.856  -7.422 -32.961  0.00  0.00    -0.270 OA
ATOM     19  H17 UNL     1       0.738  -5.759 -31.391  0.00  0.00    +0.150 HD
BRANCH  17  20
ATOM     20  C14 UNL     1       0.778  -8.164 -32.129  0.00  0.00    +0.040 A 
ATOM     21  C15 UNL     1       0.710  -9.290 -32.959  0.00  0.00    +0.013 A 
ATOM     22  C16 UNL     1      -0.334 -10.202 -32.802  0.00  0.00    +0.004 A 
ATOM     23  C17 UNL     1      -1.310  -9.991 -31.824  0.00  0.00    +0.045 A 
ATOM     24  C18 UNL     1      -1.254  -8.863 -31.000  0.00  0.00    +0.121 A 
ATOM     25  C20 UNL     1      -0.213  -7.947 -31.165  0.00  0.00    +0.058 A 
BRANCH  24  26
ATOM     26  O4  UNL     1      -2.141  -8.549 -30.007  0.00  0.00    -0.495 OA
ATOM     27  C19 UNL     1      -2.890  -7.350 -30.169  0.00  0.00    +0.277 C 
ENDBRANCH  24  26
ENDBRANCH  17  20
ENDBRANCH   1  16
TORSDOF 8
ENDMDL
MODEL 9
REMARK VINA RESULT:    -5.334     13.680     15.621
REMARK INTER + INTRA:          -8.995
REMARK INTER:                  -7.865
REMARK INTRA:                  -1.130
REMARK UNBOUND:                -1.167
REMARK  Name = /home/vital/Documents/PhD_2021/Malaria_codes/data/pdb_ligands_mmv/ligand_147.pdb
REMARK  12 active torsions:
REMARK  status: ('A' for Active; 'I' for Inactive)
REMARK    1  A    between atoms: C1_1  and  C2_2
REMARK    2  A    between atoms: C2_2  and  O1_3
REMARK    3  A    between atoms: O1_3  and  C3_4
REMARK    4  A    between atoms: C6_8  and  C11_14
REMARK    5  A    between atoms: C8_10  and  O2_11
REMARK    6  A    between atoms: O2_11  and  C9_12
REMARK    7  A    between atoms: C9_12  and  C10_13
REMARK    8  A    between atoms: C11_14  and  C12_15
REMARK    9  A    between atoms: C11_14  and  N1_16
REMARK   10  A    between atoms: C13_17  and  C14_19
REMARK   11  A    between atoms: C18_23  and  O4_24
REMARK   12  A    between atoms: O4_24  and  C19_25
REMARK                            x       y       z     vdW  Elec       q    Type
REMARK                         _______ _______ _______ _____ _____    ______ ____
ROOT
ATOM      1  C11 UNL     1      -2.432   4.413 -19.398  0.00  0.00    +0.102 C 
ATOM      2  C12 UNL     1      -3.368   4.843 -18.266  0.00  0.00    +0.033 C 
ENDROOT
BRANCH   1   7
ATOM      3  C3  UNL     1       1.440   6.258 -18.750  0.00  0.00    +0.163 A 
ATOM      4  C4  UNL     1       0.726   6.549 -19.912  0.00  0.00    +0.065 A 
ATOM      5  C5  UNL     1      -0.513   5.947 -20.139  0.00  0.00    +0.026 A 
ATOM      6 BR1  UNL     1      -1.392   6.413 -21.758  0.00  0.00    -0.050 Br
ATOM      7  C6  UNL     1      -1.064   5.057 -19.196  0.00  0.00    -0.010 A 
ATOM      8  C7  UNL     1      -0.334   4.812 -18.008  0.00  0.00    +0.056 A 
ATOM      9  C8  UNL     1       0.914   5.402 -17.775  0.00  0.00    +0.162 A 
BRANCH   3  10
ATOM     10  O1  UNL     1       2.637   6.906 -18.582  0.00  0.00    -0.489 OA
BRANCH  10  12
ATOM     11  C1  UNL     1       2.171   8.922 -17.399  0.00  0.00    +0.048 C 
ATOM     12  C2  UNL     1       2.488   8.315 -18.758  0.00  0.00    +0.226 C 
ENDBRANCH  10  12
ENDBRANCH   3  10
BRANCH   9  13
ATOM     13  O2  UNL     1       1.670   5.227 -16.648  0.00  0.00    -0.489 OA
BRANCH  13  14
ATOM     14  C9  UNL     1       1.234   5.865 -15.451  0.00  0.00    +0.226 C 
ATOM     15  C10 UNL     1       0.886   4.784 -14.448  0.00  0.00    +0.048 C 
ENDBRANCH  13  14
ENDBRANCH   9  13
ENDBRANCH   1   7
BRANCH   1  16
ATOM     16  N1  UNL     1      -2.391   2.953 -19.464  0.00  0.00    -0.305 N 
ATOM     17  C13 UNL     1      -2.956   2.284 -20.538  0.00  0.00    +0.245 C 
ATOM     18  O3  UNL     1      -3.387   2.834 -21.544  0.00  0.00    -0.270 OA
ATOM     19  H17 UNL     1      -2.484   2.471 -18.583  0.00  0.00    +0.150 HD
BRANCH  17  20
ATOM     20  C14 UNL     1      -3.075   0.809 -20.377  0.00  0.00    +0.040 A 
ATOM     21  C15 UNL     1      -2.450   0.139 -19.317  0.00  0.00    +0.013 A 
ATOM     22  C16 UNL     1      -2.602  -1.241 -19.187  0.00  0.00    +0.004 A 
ATOM     23  C17 UNL     1      -3.372  -1.954 -20.111  0.00  0.00    +0.045 A 
ATOM     24  C18 UNL     1      -3.988  -1.293 -21.177  0.00  0.00    +0.121 A 
ATOM     25  C20 UNL     1      -3.828   0.088 -21.311  0.00  0.00    +0.058 A 
BRANCH  24  26
ATOM     26  O4  UNL     1      -4.768  -1.875 -22.139  0.00  0.00    -0.495 OA
ATOM     27  C19 UNL     1      -6.111  -1.419 -22.242  0.00  0.00    +0.277 C 
ENDBRANCH  24  26
ENDBRANCH  17  20
ENDBRANCH   1  16
TORSDOF 8
ENDMDL
