MODEL 1
REMARK VINA RESULT:    -5.174      0.000      0.000
REMARK INTER + INTRA:         -11.251
REMARK INTER:                  -6.687
REMARK INTRA:                  -4.564
REMARK UNBOUND:                -4.564
REMARK  Name = /home/vital/Documents/PhD_2021/Malaria_codes/data/pdb_ligands_mmv/ligand_53.pdb
REMARK  8 active torsions:
REMARK  status: ('A' for Active; 'I' for Inactive)
REMARK    1  A    between atoms: C1_1  and  C2_2
REMARK    2  A    between atoms: C5_5  and  N1_8
REMARK    3  A    between atoms: N2_10  and  S2_35
REMARK    4  A    between atoms: N3_18  and  S1_25
REMARK    5  A    between atoms: S1_25  and  C22_28
REMARK    6  A    between atoms: C25_31  and  C26_32
REMARK    7  A    between atoms: S2_35  and  C29_38
REMARK    8  A    between atoms: C32_41  and  C33_42
REMARK                            x       y       z     vdW  Elec       q    Type
REMARK                         _______ _______ _______ _____ _____    ______ ____
ROOT
ATOM      1  N1  UNL     1      -0.160  -4.822 -30.744  0.00  0.00    -0.282 N 
ATOM      2  C8  UNL     1      -0.911  -6.009 -30.431  0.00  0.00    +0.218 C 
ATOM      3  N2  UNL     1      -0.875  -6.296 -28.972  0.00  0.00    -0.178 N 
ATOM      4  C9  UNL     1       0.419  -6.092 -28.338  0.00  0.00    +0.060 A 
ATOM      5  C10 UNL     1       0.684  -6.618 -27.069  0.00  0.00    +0.025 A 
ATOM      6  C11 UNL     1       1.924  -6.423 -26.456  0.00  0.00    +0.002 A 
ATOM      7  C12 UNL     1       2.924  -5.716 -27.114  0.00  0.00    +0.000 A 
ATOM      8  C13 UNL     1       2.689  -5.222 -28.394  0.00  0.00    +0.009 A 
ATOM      9  C14 UNL     1       1.440  -5.408 -29.015  0.00  0.00    +0.015 A 
ATOM     10  C15 UNL     1       1.247  -4.964 -30.452  0.00  0.00    +0.218 C 
ATOM     11  N3  UNL     1       1.832  -5.973 -31.365  0.00  0.00    -0.178 N 
ATOM     12  C16 UNL     1       1.007  -7.126 -31.675  0.00  0.00    +0.060 A 
ATOM     13  C17 UNL     1       1.540  -8.262 -32.294  0.00  0.00    +0.025 A 
ATOM     14  C18 UNL     1       0.747  -9.385 -32.551  0.00  0.00    +0.002 A 
ATOM     15  C19 UNL     1      -0.586  -9.400 -32.159  0.00  0.00    +0.000 A 
ATOM     16  C20 UNL     1      -1.122  -8.302 -31.492  0.00  0.00    +0.009 A 
ATOM     17  C21 UNL     1      -0.330  -7.166 -31.234  0.00  0.00    +0.015 A 
ENDROOT
BRANCH   1  22
ATOM     18  C1  UNL     1      -2.563   0.040 -32.574  0.00  0.00    +0.044 C 
ATOM     19  C2  UNL     1      -1.958  -1.231 -32.062  0.00  0.00    -0.050 A 
ATOM     20  C3  UNL     1      -2.399  -2.467 -32.533  0.00  0.00    +0.005 A 
ATOM     21  C4  UNL     1      -1.808  -3.653 -32.080  0.00  0.00    +0.023 A 
ATOM     22  C5  UNL     1      -0.749  -3.650 -31.159  0.00  0.00    +0.033 A 
ATOM     23  C6  UNL     1      -0.315  -2.398 -30.705  0.00  0.00    +0.023 A 
ATOM     24  C7  UNL     1      -0.905  -1.206 -31.147  0.00  0.00    +0.005 A 
ENDBRANCH   1  22
BRANCH  11  25
ATOM     25  S1  UNL     1       2.883  -5.314 -32.529  0.00  0.00    +0.077 S 
ATOM     26  O1  UNL     1       3.747  -4.362 -31.855  0.00  0.00    -0.150 OA
ATOM     27  O2  UNL     1       3.485  -6.356 -33.332  0.00  0.00    -0.150 OA
BRANCH  25  28
ATOM     28  C22 UNL     1       1.812  -4.387 -33.609  0.00  0.00    +0.109 A 
ATOM     29  C23 UNL     1       1.842  -2.991 -33.582  0.00  0.00    +0.029 A 
ATOM     30  C24 UNL     1       1.034  -2.265 -34.460  0.00  0.00    +0.005 A 
ATOM     31  C25 UNL     1       0.199  -2.928 -35.369  0.00  0.00    -0.050 A 
ATOM     32  C26 UNL     1      -0.656  -2.147 -36.323  0.00  0.00    +0.044 C 
ATOM     33  C27 UNL     1       0.209  -4.329 -35.414  0.00  0.00    +0.005 A 
ATOM     34  C28 UNL     1       1.015  -5.061 -34.538  0.00  0.00    +0.029 A 
ENDBRANCH  25  28
ENDBRANCH  11  25
BRANCH   3  35
ATOM     35  S2  UNL     1      -2.205  -5.645 -28.103  0.00  0.00    +0.077 S 
ATOM     36  O3  UNL     1      -2.305  -6.269 -26.797  0.00  0.00    -0.150 OA
ATOM     37  O4  UNL     1      -2.196  -4.201 -28.222  0.00  0.00    -0.150 OA
BRANCH  35  38
ATOM     38  C29 UNL     1      -3.614  -6.248 -29.015  0.00  0.00    +0.109 A 
ATOM     39  C30 UNL     1      -3.952  -7.600 -28.920  0.00  0.00    +0.029 A 
ATOM     40  C31 UNL     1      -5.058  -8.079 -29.622  0.00  0.00    +0.005 A 
ATOM     41  C32 UNL     1      -5.823  -7.215 -30.418  0.00  0.00    -0.050 A 
ATOM     42  C33 UNL     1      -7.043  -7.725 -31.133  0.00  0.00    +0.044 C 
ATOM     43  C34 UNL     1      -5.484  -5.855 -30.484  0.00  0.00    +0.005 A 
ATOM     44  C35 UNL     1      -4.381  -5.368 -29.783  0.00  0.00    +0.029 A 
ENDBRANCH  35  38
ENDBRANCH   3  35
TORSDOF 5
ENDMDL
MODEL 2
REMARK VINA RESULT:    -5.119     15.052     18.064
REMARK INTER + INTRA:         -11.180
REMARK INTER:                  -7.177
REMARK INTRA:                  -4.003
REMARK UNBOUND:                -4.564
REMARK  Name = /home/vital/Documents/PhD_2021/Malaria_codes/data/pdb_ligands_mmv/ligand_53.pdb
REMARK  8 active torsions:
REMARK  status: ('A' for Active; 'I' for Inactive)
REMARK    1  A    between atoms: C1_1  and  C2_2
REMARK    2  A    between atoms: C5_5  and  N1_8
REMARK    3  A    between atoms: N2_10  and  S2_35
REMARK    4  A    between atoms: N3_18  and  S1_25
REMARK    5  A    between atoms: S1_25  and  C22_28
REMARK    6  A    between atoms: C25_31  and  C26_32
REMARK    7  A    between atoms: S2_35  and  C29_38
REMARK    8  A    between atoms: C32_41  and  C33_42
REMARK                            x       y       z     vdW  Elec       q    Type
REMARK                         _______ _______ _______ _____ _____    ______ ____
ROOT
ATOM      1  N1  UNL     1       3.203   5.715 -18.871  0.00  0.00    -0.282 N 
ATOM      2  C8  UNL     1       2.776   6.246 -20.139  0.00  0.00    +0.218 C 
ATOM      3  N2  UNL     1       3.338   7.605 -20.365  0.00  0.00    -0.178 N 
ATOM      4  C9  UNL     1       3.334   8.473 -19.199  0.00  0.00    +0.060 A 
ATOM      5  C10 UNL     1       3.527   9.853 -19.334  0.00  0.00    +0.025 A 
ATOM      6  C11 UNL     1       3.525  10.691 -18.216  0.00  0.00    +0.002 A 
ATOM      7  C12 UNL     1       3.311  10.162 -16.948  0.00  0.00    +0.000 A 
ATOM      8  C13 UNL     1       3.077   8.797 -16.802  0.00  0.00    +0.009 A 
ATOM      9  C14 UNL     1       3.084   7.946 -17.923  0.00  0.00    +0.015 A 
ATOM     10  C15 UNL     1       2.712   6.486 -17.754  0.00  0.00    +0.218 C 
ATOM     11  N3  UNL     1       1.238   6.355 -17.685  0.00  0.00    -0.178 N 
ATOM     12  C16 UNL     1       0.528   6.326 -18.949  0.00  0.00    +0.060 A 
ATOM     13  C17 UNL     1      -0.862   6.480 -19.013  0.00  0.00    +0.025 A 
ATOM     14  C18 UNL     1      -1.533   6.493 -20.240  0.00  0.00    +0.002 A 
ATOM     15  C19 UNL     1      -0.818   6.387 -21.426  0.00  0.00    +0.000 A 
ATOM     16  C20 UNL     1       0.571   6.289 -21.388  0.00  0.00    +0.009 A 
ATOM     17  C21 UNL     1       1.253   6.271 -20.156  0.00  0.00    +0.015 A 
ENDROOT
BRANCH   1  22
ATOM     18  C1  UNL     1       6.767   1.263 -18.372  0.00  0.00    +0.044 C 
ATOM     19  C2  UNL     1       5.864   2.450 -18.519  0.00  0.00    -0.050 A 
ATOM     20  C3  UNL     1       4.973   2.535 -19.588  0.00  0.00    +0.005 A 
ATOM     21  C4  UNL     1       4.104   3.627 -19.705  0.00  0.00    +0.023 A 
ATOM     22  C5  UNL     1       4.081   4.661 -18.757  0.00  0.00    +0.033 A 
ATOM     23  C6  UNL     1       4.978   4.553 -17.688  0.00  0.00    +0.023 A 
ATOM     24  C7  UNL     1       5.856   3.468 -17.565  0.00  0.00    +0.005 A 
ENDBRANCH   1  22
BRANCH  11  25
ATOM     25  S1  UNL     1       0.694   5.441 -16.358  0.00  0.00    +0.077 S 
ATOM     26  O1  UNL     1       1.457   5.854 -15.194  0.00  0.00    -0.150 OA
ATOM     27  O2  UNL     1      -0.751   5.447 -16.282  0.00  0.00    -0.150 OA
BRANCH  25  28
ATOM     28  C22 UNL     1       1.181   3.773 -16.747  0.00  0.00    +0.109 A 
ATOM     29  C23 UNL     1       0.729   3.177 -17.926  0.00  0.00    +0.029 A 
ATOM     30  C24 UNL     1       1.147   1.885 -18.253  0.00  0.00    +0.005 A 
ATOM     31  C25 UNL     1       2.019   1.186 -17.407  0.00  0.00    -0.050 A 
ATOM     32  C26 UNL     1       2.481  -0.196 -17.766  0.00  0.00    +0.044 C 
ATOM     33  C27 UNL     1       2.498   1.812 -16.247  0.00  0.00    +0.005 A 
ATOM     34  C28 UNL     1       2.083   3.104 -15.916  0.00  0.00    +0.029 A 
ENDBRANCH  25  28
ENDBRANCH  11  25
BRANCH   3  35
ATOM     35  S2  UNL     1       4.809   7.609 -21.252  0.00  0.00    +0.077 S 
ATOM     36  O3  UNL     1       5.715   8.607 -20.718  0.00  0.00    -0.150 OA
ATOM     37  O4  UNL     1       5.257   6.245 -21.443  0.00  0.00    -0.150 OA
BRANCH  35  38
ATOM     38  C29 UNL     1       4.313   8.237 -22.847  0.00  0.00    +0.109 A 
ATOM     39  C30 UNL     1       3.004   8.693 -23.016  0.00  0.00    +0.029 A 
ATOM     40  C31 UNL     1       2.610   9.196 -24.256  0.00  0.00    +0.005 A 
ATOM     41  C32 UNL     1       3.517   9.239 -25.325  0.00  0.00    -0.050 A 
ATOM     42  C33 UNL     1       3.102   9.828 -26.645  0.00  0.00    +0.044 C 
ATOM     43  C34 UNL     1       4.834   8.800 -25.132  0.00  0.00    +0.005 A 
ATOM     44  C35 UNL     1       5.237   8.299 -23.894  0.00  0.00    +0.029 A 
ENDBRANCH  35  38
ENDBRANCH   3  35
TORSDOF 5
ENDMDL
MODEL 3
REMARK VINA RESULT:    -5.007     14.488     18.082
REMARK INTER + INTRA:         -11.034
REMARK INTER:                  -6.368
REMARK INTRA:                  -4.666
REMARK UNBOUND:                -4.564
REMARK  Name = /home/vital/Documents/PhD_2021/Malaria_codes/data/pdb_ligands_mmv/ligand_53.pdb
REMARK  8 active torsions:
REMARK  status: ('A' for Active; 'I' for Inactive)
REMARK    1  A    between atoms: C1_1  and  C2_2
REMARK    2  A    between atoms: C5_5  and  N1_8
REMARK    3  A    between atoms: N2_10  and  S2_35
REMARK    4  A    between atoms: N3_18  and  S1_25
REMARK    5  A    between atoms: S1_25  and  C22_28
REMARK    6  A    between atoms: C25_31  and  C26_32
REMARK    7  A    between atoms: S2_35  and  C29_38
REMARK    8  A    between atoms: C32_41  and  C33_42
REMARK                            x       y       z     vdW  Elec       q    Type
REMARK                         _______ _______ _______ _____ _____    ______ ____
ROOT
ATOM      1  N1  UNL     1       3.278   3.857 -18.053  0.00  0.00    -0.282 N 
ATOM      2  C8  UNL     1       3.919   3.139 -16.984  0.00  0.00    +0.218 C 
ATOM      3  N2  UNL     1       3.957   1.679 -17.269  0.00  0.00    -0.178 N 
ATOM      4  C9  UNL     1       2.742   1.136 -17.855  0.00  0.00    +0.060 A 
ATOM      5  C10 UNL     1       2.514  -0.245 -17.878  0.00  0.00    +0.025 A 
ATOM      6  C11 UNL     1       1.349  -0.771 -18.441  0.00  0.00    +0.002 A 
ATOM      7  C12 UNL     1       0.386   0.079 -18.972  0.00  0.00    +0.000 A 
ATOM      8  C13 UNL     1       0.579   1.457 -18.920  0.00  0.00    +0.009 A 
ATOM      9  C14 UNL     1       1.753   1.994 -18.360  0.00  0.00    +0.015 A 
ATOM     10  C15 UNL     1       1.889   3.496 -18.208  0.00  0.00    +0.218 C 
ATOM     11  N3  UNL     1       1.135   3.944 -17.014  0.00  0.00    -0.178 N 
ATOM     12  C16 UNL     1       1.808   3.816 -15.736  0.00  0.00    +0.060 A 
ATOM     13  C17 UNL     1       1.114   3.944 -14.527  0.00  0.00    +0.025 A 
ATOM     14  C18 UNL     1       1.762   3.777 -13.299  0.00  0.00    +0.002 A 
ATOM     15  C19 UNL     1       3.110   3.445 -13.263  0.00  0.00    +0.000 A 
ATOM     16  C20 UNL     1       3.807   3.258 -14.454  0.00  0.00    +0.009 A 
ATOM     17  C21 UNL     1       3.162   3.428 -15.694  0.00  0.00    +0.015 A 
ENDROOT
BRANCH   1  22
ATOM     18  C1  UNL     1       6.045   7.455 -21.542  0.00  0.00    +0.044 C 
ATOM     19  C2  UNL     1       5.347   6.484 -20.638  0.00  0.00    -0.050 A 
ATOM     20  C3  UNL     1       5.590   6.492 -19.265  0.00  0.00    +0.005 A 
ATOM     21  C4  UNL     1       4.911   5.609 -18.417  0.00  0.00    +0.023 A 
ATOM     22  C5  UNL     1       3.958   4.701 -18.902  0.00  0.00    +0.033 A 
ATOM     23  C6  UNL     1       3.722   4.714 -20.282  0.00  0.00    +0.023 A 
ATOM     24  C7  UNL     1       4.402   5.589 -21.140  0.00  0.00    +0.005 A 
ENDBRANCH   1  22
BRANCH  11  25
ATOM     25  S1  UNL     1       0.080   5.242 -17.319  0.00  0.00    +0.077 S 
ATOM     26  O1  UNL     1      -0.623   4.959 -18.557  0.00  0.00    -0.150 OA
ATOM     27  O2  UNL     1      -0.691   5.570 -16.139  0.00  0.00    -0.150 OA
BRANCH  25  28
ATOM     28  C22 UNL     1       1.162   6.622 -17.627  0.00  0.00    +0.109 A 
ATOM     29  C23 UNL     1       1.281   7.133 -18.921  0.00  0.00    +0.029 A 
ATOM     30  C24 UNL     1       2.097   8.243 -19.154  0.00  0.00    +0.005 A 
ATOM     31  C25 UNL     1       2.791   8.848 -18.098  0.00  0.00    -0.050 A 
ATOM     32  C26 UNL     1       3.654  10.050 -18.346  0.00  0.00    +0.044 C 
ATOM     33  C27 UNL     1       2.630   8.350 -16.797  0.00  0.00    +0.005 A 
ATOM     34  C28 UNL     1       1.816   7.240 -16.558  0.00  0.00    +0.029 A 
ENDBRANCH  25  28
ENDBRANCH  11  25
BRANCH   3  35
ATOM     35  S2  UNL     1       5.408   1.156 -18.023  0.00  0.00    +0.077 S 
ATOM     36  O3  UNL     1       5.631  -0.253 -17.762  0.00  0.00    -0.150 OA
ATOM     37  O4  UNL     1       5.452   1.662 -19.380  0.00  0.00    -0.150 OA
BRANCH  35  38
ATOM     38  C29 UNL     1       6.672   2.007 -17.095  0.00  0.00    +0.109 A 
ATOM     39  C30 UNL     1       6.930   1.607 -15.782  0.00  0.00    +0.029 A 
ATOM     40  C31 UNL     1       7.923   2.259 -15.051  0.00  0.00    +0.005 A 
ATOM     41  C32 UNL     1       8.655   3.309 -15.626  0.00  0.00    -0.050 A 
ATOM     42  C33 UNL     1       9.758   3.975 -14.853  0.00  0.00    +0.044 C 
ATOM     43  C34 UNL     1       8.400   3.682 -16.954  0.00  0.00    +0.005 A 
ATOM     44  C35 UNL     1       7.410   3.032 -17.692  0.00  0.00    +0.029 A 
ENDBRANCH  35  38
ENDBRANCH   3  35
TORSDOF 5
ENDMDL
MODEL 4
REMARK VINA RESULT:    -4.833     14.642     17.893
REMARK INTER + INTRA:         -10.810
REMARK INTER:                  -6.095
REMARK INTRA:                  -4.715
REMARK UNBOUND:                -4.564
REMARK  Name = /home/vital/Documents/PhD_2021/Malaria_codes/data/pdb_ligands_mmv/ligand_53.pdb
REMARK  8 active torsions:
REMARK  status: ('A' for Active; 'I' for Inactive)
REMARK    1  A    between atoms: C1_1  and  C2_2
REMARK    2  A    between atoms: C5_5  and  N1_8
REMARK    3  A    between atoms: N2_10  and  S2_35
REMARK    4  A    between atoms: N3_18  and  S1_25
REMARK    5  A    between atoms: S1_25  and  C22_28
REMARK    6  A    between atoms: C25_31  and  C26_32
REMARK    7  A    between atoms: S2_35  and  C29_38
REMARK    8  A    between atoms: C32_41  and  C33_42
REMARK                            x       y       z     vdW  Elec       q    Type
REMARK                         _______ _______ _______ _____ _____    ______ ____
ROOT
ATOM      1  N1  UNL     1       2.494   4.686 -18.534  0.00  0.00    -0.282 N 
ATOM      2  C8  UNL     1       2.633   5.304 -17.242  0.00  0.00    +0.218 C 
ATOM      3  N2  UNL     1       1.431   5.060 -16.400  0.00  0.00    -0.178 N 
ATOM      4  C9  UNL     1       0.160   5.166 -17.099  0.00  0.00    +0.060 A 
ATOM      5  C10 UNL     1      -1.040   5.280 -16.388  0.00  0.00    +0.025 A 
ATOM      6  C11 UNL     1      -2.263   5.380 -17.055  0.00  0.00    +0.002 A 
ATOM      7  C12 UNL     1      -2.301   5.387 -18.445  0.00  0.00    +0.000 A 
ATOM      8  C13 UNL     1      -1.112   5.315 -19.167  0.00  0.00    +0.009 A 
ATOM      9  C14 UNL     1       0.123   5.207 -18.501  0.00  0.00    +0.015 A 
ATOM     10  C15 UNL     1       1.410   5.249 -19.303  0.00  0.00    +0.218 C 
ATOM     11  N3  UNL     1       1.736   6.653 -19.645  0.00  0.00    -0.178 N 
ATOM     12  C16 UNL     1       2.417   7.428 -18.626  0.00  0.00    +0.060 A 
ATOM     13  C17 UNL     1       2.533   8.820 -18.720  0.00  0.00    +0.025 A 
ATOM     14  C18 UNL     1       3.156   9.563 -17.713  0.00  0.00    +0.002 A 
ATOM     15  C19 UNL     1       3.642   8.928 -16.577  0.00  0.00    +0.000 A 
ATOM     16  C20 UNL     1       3.488   7.551 -16.438  0.00  0.00    +0.009 A 
ATOM     17  C21 UNL     1       2.866   6.795 -17.450  0.00  0.00    +0.015 A 
ENDROOT
BRANCH   1  22
ATOM     18  C1  UNL     1       5.654   0.231 -20.249  0.00  0.00    +0.044 C 
ATOM     19  C2  UNL     1       4.812   1.375 -19.769  0.00  0.00    -0.050 A 
ATOM     20  C3  UNL     1       5.370   2.389 -18.992  0.00  0.00    +0.005 A 
ATOM     21  C4  UNL     1       4.592   3.476 -18.575  0.00  0.00    +0.023 A 
ATOM     22  C5  UNL     1       3.240   3.598 -18.929  0.00  0.00    +0.033 A 
ATOM     23  C6  UNL     1       2.700   2.574 -19.716  0.00  0.00    +0.023 A 
ATOM     24  C7  UNL     1       3.469   1.479 -20.133  0.00  0.00    +0.005 A 
ENDBRANCH   1  22
BRANCH  11  25
ATOM     25  S1  UNL     1       2.068   6.895 -21.295  0.00  0.00    +0.077 S 
ATOM     26  O1  UNL     1       1.037   6.217 -22.058  0.00  0.00    -0.150 OA
ATOM     27  O2  UNL     1       2.335   8.290 -21.570  0.00  0.00    -0.150 OA
BRANCH  25  28
ATOM     28  C22 UNL     1       3.594   6.017 -21.566  0.00  0.00    +0.109 A 
ATOM     29  C23 UNL     1       3.615   4.914 -22.423  0.00  0.00    +0.029 A 
ATOM     30  C24 UNL     1       4.820   4.252 -22.669  0.00  0.00    +0.005 A 
ATOM     31  C25 UNL     1       6.006   4.691 -22.067  0.00  0.00    -0.050 A 
ATOM     32  C26 UNL     1       7.304   3.990 -22.345  0.00  0.00    +0.044 C 
ATOM     33  C27 UNL     1       5.979   5.825 -21.241  0.00  0.00    +0.005 A 
ATOM     34  C28 UNL     1       4.776   6.490 -20.991  0.00  0.00    +0.029 A 
ENDBRANCH  25  28
ENDBRANCH  11  25
BRANCH   3  35
ATOM     35  S2  UNL     1       1.569   3.691 -15.373  0.00  0.00    +0.077 S 
ATOM     36  O3  UNL     1       0.609   3.777 -14.289  0.00  0.00    -0.150 OA
ATOM     37  O4  UNL     1       1.649   2.491 -16.181  0.00  0.00    -0.150 OA
BRANCH  35  38
ATOM     38  C29 UNL     1       3.162   3.925 -14.604  0.00  0.00    +0.109 A 
ATOM     39  C30 UNL     1       3.316   4.952 -13.671  0.00  0.00    +0.029 A 
ATOM     40  C31 UNL     1       4.555   5.136 -13.056  0.00  0.00    +0.005 A 
ATOM     41  C32 UNL     1       5.636   4.301 -13.373  0.00  0.00    -0.050 A 
ATOM     42  C33 UNL     1       6.955   4.472 -12.672  0.00  0.00    +0.044 C 
ATOM     43  C34 UNL     1       5.457   3.259 -14.295  0.00  0.00    +0.005 A 
ATOM     44  C35 UNL     1       4.221   3.066 -14.911  0.00  0.00    +0.029 A 
ENDBRANCH  35  38
ENDBRANCH   3  35
TORSDOF 5
ENDMDL
MODEL 5
REMARK VINA RESULT:    -4.782      2.718      6.295
REMARK INTER + INTRA:         -10.744
REMARK INTER:                  -6.027
REMARK INTRA:                  -4.717
REMARK UNBOUND:                -4.564
REMARK  Name = /home/vital/Documents/PhD_2021/Malaria_codes/data/pdb_ligands_mmv/ligand_53.pdb
REMARK  8 active torsions:
REMARK  status: ('A' for Active; 'I' for Inactive)
REMARK    1  A    between atoms: C1_1  and  C2_2
REMARK    2  A    between atoms: C5_5  and  N1_8
REMARK    3  A    between atoms: N2_10  and  S2_35
REMARK    4  A    between atoms: N3_18  and  S1_25
REMARK    5  A    between atoms: S1_25  and  C22_28
REMARK    6  A    between atoms: C25_31  and  C26_32
REMARK    7  A    between atoms: S2_35  and  C29_38
REMARK    8  A    between atoms: C32_41  and  C33_42
REMARK                            x       y       z     vdW  Elec       q    Type
REMARK                         _______ _______ _______ _____ _____    ______ ____
ROOT
ATOM      1  N1  UNL     1       0.300  -3.070 -31.519  0.00  0.00    -0.282 N 
ATOM      2  C8  UNL     1       0.877  -3.783 -32.629  0.00  0.00    +0.218 C 
ATOM      3  N2  UNL     1       2.363  -3.708 -32.596  0.00  0.00    -0.178 N 
ATOM      4  C9  UNL     1       2.904  -2.408 -32.233  0.00  0.00    +0.060 A 
ATOM      5  C10 UNL     1       4.249  -2.102 -32.470  0.00  0.00    +0.025 A 
ATOM      6  C11 UNL     1       4.774  -0.855 -32.122  0.00  0.00    +0.002 A 
ATOM      7  C12 UNL     1       3.955   0.112 -31.550  0.00  0.00    +0.000 A 
ATOM      8  C13 UNL     1       2.605  -0.163 -31.346  0.00  0.00    +0.009 A 
ATOM      9  C14 UNL     1       2.071  -1.420 -31.687  0.00  0.00    +0.015 A 
ATOM     10  C15 UNL     1       0.578  -1.655 -31.565  0.00  0.00    +0.218 C 
ATOM     11  N3  UNL     1      -0.114  -1.061 -32.733  0.00  0.00    -0.178 N 
ATOM     12  C16 UNL     1      -0.149  -1.861 -33.943  0.00  0.00    +0.060 A 
ATOM     13  C17 UNL     1      -0.526  -1.311 -35.173  0.00  0.00    +0.025 A 
ATOM     14  C18 UNL     1      -0.517  -2.078 -36.342  0.00  0.00    +0.002 A 
ATOM     15  C19 UNL     1      -0.097  -3.401 -36.303  0.00  0.00    +0.000 A 
ATOM     16  C20 UNL     1       0.335  -3.953 -35.099  0.00  0.00    +0.009 A 
ATOM     17  C21 UNL     1       0.324  -3.187 -33.917  0.00  0.00    +0.015 A 
ENDROOT
BRANCH   1  22
ATOM     18  C1  UNL     1      -2.460  -5.636 -27.210  0.00  0.00    +0.044 C 
ATOM     19  C2  UNL     1      -1.706  -4.989 -28.332  0.00  0.00    -0.050 A 
ATOM     20  C3  UNL     1      -1.948  -5.357 -29.655  0.00  0.00    +0.005 A 
ATOM     21  C4  UNL     1      -1.269  -4.726 -30.704  0.00  0.00    +0.023 A 
ATOM     22  C5  UNL     1      -0.340  -3.700 -30.476  0.00  0.00    +0.033 A 
ATOM     23  C6  UNL     1      -0.117  -3.339 -29.142  0.00  0.00    +0.023 A 
ATOM     24  C7  UNL     1      -0.787  -3.969 -28.084  0.00  0.00    +0.005 A 
ENDBRANCH   1  22
BRANCH  11  25
ATOM     25  S1  UNL     1      -1.418  -0.053 -32.315  0.00  0.00    +0.077 S 
ATOM     26  O1  UNL     1      -1.000   0.769 -31.194  0.00  0.00    -0.150 OA
ATOM     27  O2  UNL     1      -1.969   0.593 -33.486  0.00  0.00    -0.150 OA
BRANCH  25  28
ATOM     28  C22 UNL     1      -2.663  -1.176 -31.713  0.00  0.00    +0.109 A 
ATOM     29  C23 UNL     1      -3.037  -1.140 -30.368  0.00  0.00    +0.029 A 
ATOM     30  C24 UNL     1      -4.043  -1.991 -29.907  0.00  0.00    +0.005 A 
ATOM     31  C25 UNL     1      -4.683  -2.875 -30.786  0.00  0.00    -0.050 A 
ATOM     32  C26 UNL     1      -5.777  -3.777 -30.293  0.00  0.00    +0.044 C 
ATOM     33  C27 UNL     1      -4.328  -2.872 -32.142  0.00  0.00    +0.005 A 
ATOM     34  C28 UNL     1      -3.321  -2.023 -32.609  0.00  0.00    +0.029 A 
ENDBRANCH  25  28
ENDBRANCH  11  25
BRANCH   3  35
ATOM     35  S2  UNL     1       3.108  -5.037 -31.804  0.00  0.00    +0.077 S 
ATOM     36  O3  UNL     1       4.412  -5.299 -32.383  0.00  0.00    -0.150 OA
ATOM     37  O4  UNL     1       2.964  -4.883 -30.371  0.00  0.00    -0.150 OA
BRANCH  35  38
ATOM     38  C29 UNL     1       2.093  -6.419 -32.299  0.00  0.00    +0.109 A 
ATOM     39  C30 UNL     1       2.158  -6.865 -33.621  0.00  0.00    +0.029 A 
ATOM     40  C31 UNL     1       1.376  -7.951 -34.014  0.00  0.00    +0.005 A 
ATOM     41  C32 UNL     1       0.530  -8.588 -33.094  0.00  0.00    -0.050 A 
ATOM     42  C33 UNL     1      -0.272  -9.789 -33.510  0.00  0.00    +0.044 C 
ATOM     43  C34 UNL     1       0.496  -8.142 -31.765  0.00  0.00    +0.005 A 
ATOM     44  C35 UNL     1       1.277  -7.059 -31.363  0.00  0.00    +0.029 A 
ENDBRANCH  35  38
ENDBRANCH   3  35
TORSDOF 5
ENDMDL
MODEL 6
REMARK VINA RESULT:    -4.774     13.790     17.139
REMARK INTER + INTRA:         -10.734
REMARK INTER:                  -6.088
REMARK INTRA:                  -4.646
REMARK UNBOUND:                -4.564
REMARK  Name = /home/vital/Documents/PhD_2021/Malaria_codes/data/pdb_ligands_mmv/ligand_53.pdb
REMARK  8 active torsions:
REMARK  status: ('A' for Active; 'I' for Inactive)
REMARK    1  A    between atoms: C1_1  and  C2_2
REMARK    2  A    between atoms: C5_5  and  N1_8
REMARK    3  A    between atoms: N2_10  and  S2_35
REMARK    4  A    between atoms: N3_18  and  S1_25
REMARK    5  A    between atoms: S1_25  and  C22_28
REMARK    6  A    between atoms: C25_31  and  C26_32
REMARK    7  A    between atoms: S2_35  and  C29_38
REMARK    8  A    between atoms: C32_41  and  C33_42
REMARK                            x       y       z     vdW  Elec       q    Type
REMARK                         _______ _______ _______ _____ _____    ______ ____
ROOT
ATOM      1  N1  UNL     1       2.796   5.110 -18.948  0.00  0.00    -0.282 N 
ATOM      2  C8  UNL     1       1.757   5.802 -19.665  0.00  0.00    +0.218 C 
ATOM      3  N2  UNL     1       2.103   7.236 -19.854  0.00  0.00    -0.178 N 
ATOM      4  C9  UNL     1       2.712   7.878 -18.699  0.00  0.00    +0.060 A 
ATOM      5  C10 UNL     1       2.793   9.273 -18.616  0.00  0.00    +0.025 A 
ATOM      6  C11 UNL     1       3.378   9.894 -17.510  0.00  0.00    +0.002 A 
ATOM      7  C12 UNL     1       3.873   9.127 -16.461  0.00  0.00    +0.000 A 
ATOM      8  C13 UNL     1       3.763   7.740 -16.510  0.00  0.00    +0.009 A 
ATOM      9  C14 UNL     1       3.181   7.108 -17.625  0.00  0.00    +0.015 A 
ATOM     10  C15 UNL     1       2.966   5.607 -17.604  0.00  0.00    +0.218 C 
ATOM     11  N3  UNL     1       1.755   5.290 -16.813  0.00  0.00    -0.178 N 
ATOM     12  C16 UNL     1       0.483   5.401 -17.500  0.00  0.00    +0.060 A 
ATOM     13  C17 UNL     1      -0.730   5.395 -16.801  0.00  0.00    +0.025 A 
ATOM     14  C18 UNL     1      -1.950   5.545 -17.468  0.00  0.00    +0.002 A 
ATOM     15  C19 UNL     1      -1.973   5.736 -18.844  0.00  0.00    +0.000 A 
ATOM     16  C20 UNL     1      -0.775   5.800 -19.551  0.00  0.00    +0.009 A 
ATOM     17  C21 UNL     1       0.457   5.646 -18.887  0.00  0.00    +0.015 A 
ENDROOT
BRANCH   1  22
ATOM     18  C1  UNL     1       6.119   1.099 -21.324  0.00  0.00    +0.044 C 
ATOM     19  C2  UNL     1       5.264   2.176 -20.728  0.00  0.00    -0.050 A 
ATOM     20  C3  UNL     1       3.927   2.308 -21.100  0.00  0.00    +0.005 A 
ATOM     21  C4  UNL     1       3.120   3.291 -20.516  0.00  0.00    +0.023 A 
ATOM     22  C5  UNL     1       3.609   4.165 -19.533  0.00  0.00    +0.033 A 
ATOM     23  C6  UNL     1       4.952   4.012 -19.168  0.00  0.00    +0.023 A 
ATOM     24  C7  UNL     1       5.770   3.035 -19.752  0.00  0.00    +0.005 A 
ENDBRANCH   1  22
BRANCH  11  25
ATOM     25  S1  UNL     1       2.005   4.097 -15.626  0.00  0.00    +0.077 S 
ATOM     26  O1  UNL     1       3.198   4.458 -14.882  0.00  0.00    -0.150 OA
ATOM     27  O2  UNL     1       0.785   3.826 -14.899  0.00  0.00    -0.150 OA
BRANCH  25  28
ATOM     28  C22 UNL     1       2.385   2.628 -16.558  0.00  0.00    +0.109 A 
ATOM     29  C23 UNL     1       3.616   1.992 -16.378  0.00  0.00    +0.029 A 
ATOM     30  C24 UNL     1       3.896   0.816 -17.077  0.00  0.00    +0.005 A 
ATOM     31  C25 UNL     1       2.948   0.268 -17.952  0.00  0.00    -0.050 A 
ATOM     32  C26 UNL     1       3.243  -1.005 -18.689  0.00  0.00    +0.044 C 
ATOM     33  C27 UNL     1       1.701   0.893 -18.092  0.00  0.00    +0.005 A 
ATOM     34  C28 UNL     1       1.416   2.070 -17.396  0.00  0.00    +0.029 A 
ENDBRANCH  25  28
ENDBRANCH  11  25
BRANCH   3  35
ATOM     35  S2  UNL     1       2.878   7.573 -21.348  0.00  0.00    +0.077 S 
ATOM     36  O3  UNL     1       2.709   8.971 -21.698  0.00  0.00    -0.150 OA
ATOM     37  O4  UNL     1       4.199   6.977 -21.349  0.00  0.00    -0.150 OA
BRANCH  35  38
ATOM     38  C29 UNL     1       1.885   6.675 -22.527  0.00  0.00    +0.109 A 
ATOM     39  C30 UNL     1       0.580   7.105 -22.777  0.00  0.00    +0.029 A 
ATOM     40  C31 UNL     1      -0.201   6.415 -23.705  0.00  0.00    +0.005 A 
ATOM     41  C32 UNL     1       0.316   5.299 -24.378  0.00  0.00    -0.050 A 
ATOM     42  C33 UNL     1      -0.512   4.589 -25.413  0.00  0.00    +0.044 C 
ATOM     43  C34 UNL     1       1.636   4.895 -24.132  0.00  0.00    +0.005 A 
ATOM     44  C35 UNL     1       2.425   5.581 -23.209  0.00  0.00    +0.029 A 
ENDBRANCH  35  38
ENDBRANCH   3  35
TORSDOF 5
ENDMDL
MODEL 7
REMARK VINA RESULT:    -4.763     13.057     15.992
REMARK INTER + INTRA:         -10.719
REMARK INTER:                  -5.999
REMARK INTRA:                  -4.720
REMARK UNBOUND:                -4.564
REMARK  Name = /home/vital/Documents/PhD_2021/Malaria_codes/data/pdb_ligands_mmv/ligand_53.pdb
REMARK  8 active torsions:
REMARK  status: ('A' for Active; 'I' for Inactive)
REMARK    1  A    between atoms: C1_1  and  C2_2
REMARK    2  A    between atoms: C5_5  and  N1_8
REMARK    3  A    between atoms: N2_10  and  S2_35
REMARK    4  A    between atoms: N3_18  and  S1_25
REMARK    5  A    between atoms: S1_25  and  C22_28
REMARK    6  A    between atoms: C25_31  and  C26_32
REMARK    7  A    between atoms: S2_35  and  C29_38
REMARK    8  A    between atoms: C32_41  and  C33_42
REMARK                            x       y       z     vdW  Elec       q    Type
REMARK                         _______ _______ _______ _____ _____    ______ ____
ROOT
ATOM      1  N1  UNL     1       0.839   4.735 -20.757  0.00  0.00    -0.282 N 
ATOM      2  C8  UNL     1       0.823   5.011 -19.344  0.00  0.00    +0.218 C 
ATOM      3  N2  UNL     1       1.615   3.999 -18.593  0.00  0.00    -0.178 N 
ATOM      4  C9  UNL     1       1.445   2.628 -19.046  0.00  0.00    +0.060 A 
ATOM      5  C10 UNL     1       1.862   1.555 -18.250  0.00  0.00    +0.025 A 
ATOM      6  C11 UNL     1       1.703   0.236 -18.682  0.00  0.00    +0.002 A 
ATOM      7  C12 UNL     1       1.104  -0.029 -19.909  0.00  0.00    +0.000 A 
ATOM      8  C13 UNL     1       0.647   1.026 -20.693  0.00  0.00    +0.009 A 
ATOM      9  C14 UNL     1       0.811   2.358 -20.268  0.00  0.00    +0.015 A 
ATOM     10  C15 UNL     1       0.201   3.482 -21.082  0.00  0.00    +0.218 C 
ATOM     11  N3  UNL     1      -1.247   3.582 -20.783  0.00  0.00    -0.178 N 
ATOM     12  C16 UNL     1      -1.614   4.327 -19.594  0.00  0.00    +0.060 A 
ATOM     13  C17 UNL     1      -2.907   4.263 -19.061  0.00  0.00    +0.025 A 
ATOM     14  C18 UNL     1      -3.241   4.951 -17.890  0.00  0.00    +0.002 A 
ATOM     15  C19 UNL     1      -2.276   5.687 -17.215  0.00  0.00    +0.000 A 
ATOM     16  C20 UNL     1      -0.970   5.719 -17.698  0.00  0.00    +0.009 A 
ATOM     17  C21 UNL     1      -0.627   5.032 -18.879  0.00  0.00    +0.015 A 
ENDROOT
BRANCH   1  22
ATOM     18  C1  UNL     1       3.482   8.061 -24.594  0.00  0.00    +0.044 C 
ATOM     19  C2  UNL     1       2.825   7.187 -23.569  0.00  0.00    -0.050 A 
ATOM     20  C3  UNL     1       2.076   7.747 -22.534  0.00  0.00    +0.005 A 
ATOM     21  C4  UNL     1       1.433   6.927 -21.598  0.00  0.00    +0.023 A 
ATOM     22  C5  UNL     1       1.499   5.528 -21.668  0.00  0.00    +0.033 A 
ATOM     23  C6  UNL     1       2.249   4.985 -22.719  0.00  0.00    +0.023 A 
ATOM     24  C7  UNL     1       2.902   5.797 -23.656  0.00  0.00    +0.005 A 
ENDBRANCH   1  22
BRANCH  11  25
ATOM     25  S1  UNL     1      -2.231   3.611 -22.170  0.00  0.00    +0.077 S 
ATOM     26  O1  UNL     1      -1.731   2.604 -23.088  0.00  0.00    -0.150 OA
ATOM     27  O2  UNL     1      -3.632   3.591 -21.811  0.00  0.00    -0.150 OA
BRANCH  25  28
ATOM     28  C22 UNL     1      -1.910   5.202 -22.901  0.00  0.00    +0.109 A 
ATOM     29  C23 UNL     1      -1.254   5.279 -24.132  0.00  0.00    +0.029 A 
ATOM     30  C24 UNL     1      -1.041   6.525 -24.726  0.00  0.00    +0.005 A 
ATOM     31  C25 UNL     1      -1.486   7.696 -24.097  0.00  0.00    -0.050 A 
ATOM     32  C26 UNL     1      -1.271   9.033 -24.743  0.00  0.00    +0.044 C 
ATOM     33  C27 UNL     1      -2.179   7.602 -22.882  0.00  0.00    +0.005 A 
ATOM     34  C28 UNL     1      -2.394   6.358 -22.283  0.00  0.00    +0.029 A 
ENDBRANCH  25  28
ENDBRANCH  11  25
BRANCH   3  35
ATOM     35  S2  UNL     1       3.245   4.461 -18.313  0.00  0.00    +0.077 S 
ATOM     36  O3  UNL     1       3.721   3.890 -17.068  0.00  0.00    -0.150 OA
ATOM     37  O4  UNL     1       4.008   4.291 -19.533  0.00  0.00    -0.150 OA
BRANCH  35  38
ATOM     38  C29 UNL     1       3.117   6.213 -18.002  0.00  0.00    +0.109 A 
ATOM     39  C30 UNL     1       2.402   6.651 -16.885  0.00  0.00    +0.029 A 
ATOM     40  C31 UNL     1       2.306   8.018 -16.627  0.00  0.00    +0.005 A 
ATOM     41  C32 UNL     1       2.917   8.947 -17.482  0.00  0.00    -0.050 A 
ATOM     42  C33 UNL     1       2.853  10.416 -17.173  0.00  0.00    +0.044 C 
ATOM     43  C34 UNL     1       3.651   8.490 -18.586  0.00  0.00    +0.005 A 
ATOM     44  C35 UNL     1       3.756   7.124 -18.848  0.00  0.00    +0.029 A 
ENDBRANCH  35  38
ENDBRANCH   3  35
TORSDOF 5
ENDMDL
MODEL 8
REMARK VINA RESULT:    -4.722      2.011      6.721
REMARK INTER + INTRA:         -10.667
REMARK INTER:                  -6.149
REMARK INTRA:                  -4.518
REMARK UNBOUND:                -4.564
REMARK  Name = /home/vital/Documents/PhD_2021/Malaria_codes/data/pdb_ligands_mmv/ligand_53.pdb
REMARK  8 active torsions:
REMARK  status: ('A' for Active; 'I' for Inactive)
REMARK    1  A    between atoms: C1_1  and  C2_2
REMARK    2  A    between atoms: C5_5  and  N1_8
REMARK    3  A    between atoms: N2_10  and  S2_35
REMARK    4  A    between atoms: N3_18  and  S1_25
REMARK    5  A    between atoms: S1_25  and  C22_28
REMARK    6  A    between atoms: C25_31  and  C26_32
REMARK    7  A    between atoms: S2_35  and  C29_38
REMARK    8  A    between atoms: C32_41  and  C33_42
REMARK                            x       y       z     vdW  Elec       q    Type
REMARK                         _______ _______ _______ _____ _____    ______ ____
ROOT
ATOM      1  N1  UNL     1      -0.853  -5.293 -31.707  0.00  0.00    -0.282 N 
ATOM      2  C8  UNL     1       0.553  -5.431 -31.434  0.00  0.00    +0.218 C 
ATOM      3  N2  UNL     1       1.140  -6.554 -32.214  0.00  0.00    -0.178 N 
ATOM      4  C9  UNL     1       0.314  -7.749 -32.286  0.00  0.00    +0.060 A 
ATOM      5  C10 UNL     1       0.859  -8.970 -32.700  0.00  0.00    +0.025 A 
ATOM      6  C11 UNL     1       0.069 -10.120 -32.774  0.00  0.00    +0.002 A 
ATOM      7  C12 UNL     1      -1.274 -10.069 -32.414  0.00  0.00    +0.000 A 
ATOM      8  C13 UNL     1      -1.819  -8.870 -31.962  0.00  0.00    +0.009 A 
ATOM      9  C14 UNL     1      -1.031  -7.706 -31.892  0.00  0.00    +0.015 A 
ATOM     10  C15 UNL     1      -1.615  -6.445 -31.286  0.00  0.00    +0.218 C 
ATOM     11  N3  UNL     1      -1.575  -6.540 -29.809  0.00  0.00    -0.178 N 
ATOM     12  C16 UNL     1      -0.321  -6.193 -29.169  0.00  0.00    +0.060 A 
ATOM     13  C17 UNL     1      -0.075  -6.500 -27.826  0.00  0.00    +0.025 A 
ATOM     14  C18 UNL     1       1.153  -6.199 -27.228  0.00  0.00    +0.002 A 
ATOM     15  C19 UNL     1       2.168  -5.618 -27.977  0.00  0.00    +0.000 A 
ATOM     16  C20 UNL     1       1.964  -5.354 -29.329  0.00  0.00    +0.009 A 
ATOM     17  C21 UNL     1       0.728  -5.650 -29.937  0.00  0.00    +0.015 A 
ENDROOT
BRANCH   1  22
ATOM     18  C1  UNL     1      -3.091  -0.823 -34.497  0.00  0.00    +0.044 C 
ATOM     19  C2  UNL     1      -2.483  -2.002 -33.799  0.00  0.00    -0.050 A 
ATOM     20  C3  UNL     1      -1.409  -1.834 -32.926  0.00  0.00    +0.005 A 
ATOM     21  C4  UNL     1      -0.866  -2.932 -32.247  0.00  0.00    +0.023 A 
ATOM     22  C5  UNL     1      -1.380  -4.228 -32.401  0.00  0.00    +0.033 A 
ATOM     23  C6  UNL     1      -2.463  -4.374 -33.276  0.00  0.00    +0.023 A 
ATOM     24  C7  UNL     1      -3.010  -3.283 -33.965  0.00  0.00    +0.005 A 
ENDBRANCH   1  22
BRANCH  11  25
ATOM     25  S1  UNL     1      -3.062  -6.191 -29.061  0.00  0.00    +0.077 S 
ATOM     26  O1  UNL     1      -4.098  -6.911 -29.778  0.00  0.00    -0.150 OA
ATOM     27  O2  UNL     1      -2.970  -6.349 -27.626  0.00  0.00    -0.150 OA
BRANCH  25  28
ATOM     28  C22 UNL     1      -3.311  -4.455 -29.372  0.00  0.00    +0.109 A 
ATOM     29  C23 UNL     1      -4.390  -4.039 -30.154  0.00  0.00    +0.029 A 
ATOM     30  C24 UNL     1      -4.610  -2.676 -30.362  0.00  0.00    +0.005 A 
ATOM     31  C25 UNL     1      -3.757  -1.724 -29.787  0.00  0.00    -0.050 A 
ATOM     32  C26 UNL     1      -4.004  -0.259 -29.997  0.00  0.00    +0.044 C 
ATOM     33  C27 UNL     1      -2.701  -2.153 -28.971  0.00  0.00    +0.005 A 
ATOM     34  C28 UNL     1      -2.477  -3.516 -28.760  0.00  0.00    +0.029 A 
ENDBRANCH  25  28
ENDBRANCH  11  25
BRANCH   3  35
ATOM     35  S2  UNL     1       1.833  -6.073 -33.709  0.00  0.00    +0.077 S 
ATOM     36  O3  UNL     1       2.615  -7.157 -34.272  0.00  0.00    -0.150 OA
ATOM     37  O4  UNL     1       0.827  -5.408 -34.512  0.00  0.00    -0.150 OA
BRANCH  35  38
ATOM     38  C29 UNL     1       3.028  -4.842 -33.221  0.00  0.00    +0.109 A 
ATOM     39  C30 UNL     1       4.274  -5.260 -32.750  0.00  0.00    +0.029 A 
ATOM     40  C31 UNL     1       5.219  -4.304 -32.376  0.00  0.00    +0.005 A 
ATOM     41  C32 UNL     1       4.921  -2.937 -32.466  0.00  0.00    -0.050 A 
ATOM     42  C33 UNL     1       5.959  -1.911 -32.109  0.00  0.00    +0.044 C 
ATOM     43  C34 UNL     1       3.673  -2.534 -32.964  0.00  0.00    +0.005 A 
ATOM     44  C35 UNL     1       2.724  -3.483 -33.344  0.00  0.00    +0.029 A 
ENDBRANCH  35  38
ENDBRANCH   3  35
TORSDOF 5
ENDMDL
MODEL 9
REMARK VINA RESULT:    -4.717     14.280     17.045
REMARK INTER + INTRA:         -10.660
REMARK INTER:                  -5.922
REMARK INTRA:                  -4.739
REMARK UNBOUND:                -4.564
REMARK  Name = /home/vital/Documents/PhD_2021/Malaria_codes/data/pdb_ligands_mmv/ligand_53.pdb
REMARK  8 active torsions:
REMARK  status: ('A' for Active; 'I' for Inactive)
REMARK    1  A    between atoms: C1_1  and  C2_2
REMARK    2  A    between atoms: C5_5  and  N1_8
REMARK    3  A    between atoms: N2_10  and  S2_35
REMARK    4  A    between atoms: N3_18  and  S1_25
REMARK    5  A    between atoms: S1_25  and  C22_28
REMARK    6  A    between atoms: C25_31  and  C26_32
REMARK    7  A    between atoms: S2_35  and  C29_38
REMARK    8  A    between atoms: C32_41  and  C33_42
REMARK                            x       y       z     vdW  Elec       q    Type
REMARK                         _______ _______ _______ _____ _____    ______ ____
ROOT
ATOM      1  N1  UNL     1       2.055   6.140 -19.761  0.00  0.00    -0.282 N 
ATOM      2  C8  UNL     1       3.139   6.126 -18.814  0.00  0.00    +0.218 C 
ATOM      3  N2  UNL     1       3.605   7.507 -18.514  0.00  0.00    -0.178 N 
ATOM      4  C9  UNL     1       3.687   8.390 -19.667  0.00  0.00    +0.060 A 
ATOM      5  C10 UNL     1       4.400   9.592 -19.597  0.00  0.00    +0.025 A 
ATOM      6  C11 UNL     1       4.479  10.446 -20.700  0.00  0.00    +0.002 A 
ATOM      7  C12 UNL     1       3.862  10.098 -21.896  0.00  0.00    +0.000 A 
ATOM      8  C13 UNL     1       3.183   8.886 -21.994  0.00  0.00    +0.009 A 
ATOM      9  C14 UNL     1       3.093   8.025 -20.884  0.00  0.00    +0.015 A 
ATOM     10  C15 UNL     1       2.451   6.661 -21.047  0.00  0.00    +0.218 C 
ATOM     11  N3  UNL     1       3.419   5.729 -21.671  0.00  0.00    -0.178 N 
ATOM     12  C16 UNL     1       4.381   5.102 -20.785  0.00  0.00    +0.060 A 
ATOM     13  C17 UNL     1       5.502   4.427 -21.281  0.00  0.00    +0.025 A 
ATOM     14  C18 UNL     1       6.446   3.861 -20.418  0.00  0.00    +0.002 A 
ATOM     15  C19 UNL     1       6.300   3.994 -19.043  0.00  0.00    +0.000 A 
ATOM     16  C20 UNL     1       5.222   4.709 -18.529  0.00  0.00    +0.009 A 
ATOM     17  C21 UNL     1       4.265   5.278 -19.392  0.00  0.00    +0.015 A 
ENDROOT
BRANCH   1  22
ATOM     18  C1  UNL     1      -3.312   4.657 -18.434  0.00  0.00    +0.044 C 
ATOM     19  C2  UNL     1      -1.908   5.073 -18.751  0.00  0.00    -0.050 A 
ATOM     20  C3  UNL     1      -0.824   4.341 -18.267  0.00  0.00    +0.005 A 
ATOM     21  C4  UNL     1       0.486   4.710 -18.595  0.00  0.00    +0.023 A 
ATOM     22  C5  UNL     1       0.763   5.806 -19.425  0.00  0.00    +0.033 A 
ATOM     23  C6  UNL     1      -0.339   6.523 -19.908  0.00  0.00    +0.023 A 
ATOM     24  C7  UNL     1      -1.654   6.166 -19.580  0.00  0.00    +0.005 A 
ENDBRANCH   1  22
BRANCH  11  25
ATOM     25  S1  UNL     1       2.795   4.892 -23.014  0.00  0.00    +0.077 S 
ATOM     26  O1  UNL     1       2.090   5.852 -23.844  0.00  0.00    -0.150 OA
ATOM     27  O2  UNL     1       3.808   4.057 -23.620  0.00  0.00    -0.150 OA
BRANCH  25  28
ATOM     28  C22 UNL     1       1.575   3.797 -22.317  0.00  0.00    +0.109 A 
ATOM     29  C23 UNL     1       0.225   3.980 -22.623  0.00  0.00    +0.029 A 
ATOM     30  C24 UNL     1      -0.727   3.094 -22.112  0.00  0.00    +0.005 A 
ATOM     31  C25 UNL     1      -0.334   2.023 -21.299  0.00  0.00    -0.050 A 
ATOM     32  C26 UNL     1      -1.355   1.062 -20.763  0.00  0.00    +0.044 C 
ATOM     33  C27 UNL     1       1.029   1.826 -21.033  0.00  0.00    +0.005 A 
ATOM     34  C28 UNL     1       1.985   2.709 -21.542  0.00  0.00    +0.029 A 
ENDBRANCH  25  28
ENDBRANCH  11  25
BRANCH   3  35
ATOM     35  S2  UNL     1       2.866   8.204 -17.131  0.00  0.00    +0.077 S 
ATOM     36  O3  UNL     1       3.795   9.094 -16.461  0.00  0.00    -0.150 OA
ATOM     37  O4  UNL     1       1.537   8.665 -17.477  0.00  0.00    -0.150 OA
BRANCH  35  38
ATOM     38  C29 UNL     1       2.680   6.812 -16.030  0.00  0.00    +0.109 A 
ATOM     39  C30 UNL     1       3.825   6.193 -15.525  0.00  0.00    +0.029 A 
ATOM     40  C31 UNL     1       3.690   5.110 -14.656  0.00  0.00    +0.005 A 
ATOM     41  C32 UNL     1       2.417   4.644 -14.295  0.00  0.00    -0.050 A 
ATOM     42  C33 UNL     1       2.276   3.510 -13.319  0.00  0.00    +0.044 C 
ATOM     43  C34 UNL     1       1.278   5.293 -14.792  0.00  0.00    +0.005 A 
ATOM     44  C35 UNL     1       1.405   6.378 -15.659  0.00  0.00    +0.029 A 
ENDBRANCH  35  38
ENDBRANCH   3  35
TORSDOF 5
ENDMDL
