MODEL 1
REMARK VINA RESULT:    -7.409      0.000      0.000
REMARK INTER + INTRA:          -9.759
REMARK INTER:                  -9.141
REMARK INTRA:                  -0.618
REMARK UNBOUND:                -0.618
REMARK  Name = /home/vital/Documents/PhD_2021/Malaria_codes/data/pdb_ligands_mmv/ligand_359.pdb
REMARK  4 active torsions:
REMARK  status: ('A' for Active; 'I' for Inactive)
REMARK    1  A    between atoms: N1_3  and  C2_4
REMARK    2  A    between atoms: C6_8  and  C8_10
REMARK    3  A    between atoms: N4_15  and  C11_16
REMARK    4  A    between atoms: C15_20  and  C17_22
REMARK                            x       y       z     vdW  Elec       q    Type
REMARK                         _______ _______ _______ _____ _____    ______ ____
ROOT
ATOM      1  O1  UNL     1       8.528  -0.650 -26.018  0.00  0.00    -0.252 OA
ATOM      2  C1  UNL     1       9.515  -1.286 -25.669  0.00  0.00    +0.308 C 
ATOM      3  N1  UNL     1       9.518  -2.627 -25.313  0.00  0.00    -0.269 N 
ATOM      4  N4  UNL     1      10.798  -0.764 -25.564  0.00  0.00    -0.269 N 
ATOM      5  H1  UNL     1      10.424  -3.070 -25.275  0.00  0.00    +0.156 HD
ATOM      6  H11 UNL     1      11.439  -1.290 -24.989  0.00  0.00    +0.156 HD
ENDROOT
BRANCH   3   7
ATOM      7  C2  UNL     1       8.410  -3.491 -25.195  0.00  0.00    +0.035 A 
ATOM      8  C3  UNL     1       7.972  -4.344 -26.209  0.00  0.00    +0.023 A 
ATOM      9  C4  UNL     1       6.862  -5.172 -26.012  0.00  0.00    +0.002 A 
ATOM     10  C5  UNL     1       6.172  -5.147 -24.801  0.00  0.00    +0.011 A 
ATOM     11  C6  UNL     1       6.588  -4.284 -23.785  0.00  0.00    +0.016 A 
ATOM     12  C7  UNL     1       7.708  -3.464 -23.984  0.00  0.00    +0.034 A 
BRANCH  11  13
ATOM     13  C8  UNL     1       5.866  -4.226 -22.490  0.00  0.00    +0.121 C 
ATOM     14  N2  UNL     1       5.049  -5.184 -22.121  0.00  0.00    -0.267 NA
ATOM     15  C9  UNL     1       4.529  -4.746 -20.797  0.00  0.00    +0.162 C 
ATOM     16  C10 UNL     1       5.430  -3.597 -20.341  0.00  0.00    +0.126 C 
ATOM     17  N3  UNL     1       6.027  -3.193 -21.594  0.00  0.00    -0.327 N 
ATOM     18  H10 UNL     1       6.953  -2.785 -21.534  0.00  0.00    +0.148 HD
ENDBRANCH  11  13
ENDBRANCH   3   7
BRANCH   4  19
ATOM     19  C11 UNL     1      11.228   0.523 -25.954  0.00  0.00    +0.035 A 
ATOM     20  C12 UNL     1      11.540   1.432 -24.934  0.00  0.00    +0.023 A 
ATOM     21  C13 UNL     1      11.975   2.723 -25.240  0.00  0.00    +0.002 A 
ATOM     22  C14 UNL     1      12.105   3.115 -26.571  0.00  0.00    +0.011 A 
ATOM     23  C15 UNL     1      11.806   2.214 -27.598  0.00  0.00    +0.016 A 
ATOM     24  C16 UNL     1      11.380   0.916 -27.286  0.00  0.00    +0.034 A 
BRANCH  23  25
ATOM     25  C17 UNL     1      11.948   2.645 -29.013  0.00  0.00    +0.121 C 
ATOM     26  N5  UNL     1      12.972   3.365 -29.410  0.00  0.00    -0.267 NA
ATOM     27  C18 UNL     1      12.741   3.573 -30.867  0.00  0.00    +0.162 C 
ATOM     28  C19 UNL     1      11.292   3.168 -31.134  0.00  0.00    +0.126 C 
ATOM     29  N6  UNL     1      11.016   2.346 -29.981  0.00  0.00    -0.327 N 
ATOM     30  H20 UNL     1      10.046   2.282 -29.688  0.00  0.00    +0.148 HD
ENDBRANCH  23  25
ENDBRANCH   4  19
TORSDOF 4
ENDMDL
MODEL 2
REMARK VINA RESULT:    -7.343      1.970      9.347
REMARK INTER + INTRA:          -9.678
REMARK INTER:                  -9.073
REMARK INTRA:                  -0.605
REMARK UNBOUND:                -0.618
REMARK  Name = /home/vital/Documents/PhD_2021/Malaria_codes/data/pdb_ligands_mmv/ligand_359.pdb
REMARK  4 active torsions:
REMARK  status: ('A' for Active; 'I' for Inactive)
REMARK    1  A    between atoms: N1_3  and  C2_4
REMARK    2  A    between atoms: C6_8  and  C8_10
REMARK    3  A    between atoms: N4_15  and  C11_16
REMARK    4  A    between atoms: C15_20  and  C17_22
REMARK                            x       y       z     vdW  Elec       q    Type
REMARK                         _______ _______ _______ _____ _____    ______ ____
ROOT
ATOM      1  O1  UNL     1       8.552  -0.551 -25.506  0.00  0.00    -0.252 OA
ATOM      2  C1  UNL     1       9.552  -1.256 -25.456  0.00  0.00    +0.308 C 
ATOM      3  N1  UNL     1      10.859  -0.799 -25.545  0.00  0.00    -0.269 N 
ATOM      4  N4  UNL     1       9.541  -2.638 -25.311  0.00  0.00    -0.269 N 
ATOM      5  H1  UNL     1      11.574  -1.451 -25.259  0.00  0.00    +0.156 HD
ATOM      6  H11 UNL     1      10.387  -3.113 -25.588  0.00  0.00    +0.156 HD
ENDROOT
BRANCH   3   7
ATOM      7  C2  UNL     1      11.297   0.519 -25.792  0.00  0.00    +0.035 A 
ATOM      8  C3  UNL     1      11.546   1.036 -27.064  0.00  0.00    +0.023 A 
ATOM      9  C4  UNL     1      11.980   2.356 -27.223  0.00  0.00    +0.002 A 
ATOM     10  C5  UNL     1      12.179   3.171 -26.108  0.00  0.00    +0.011 A 
ATOM     11  C6  UNL     1      11.952   2.659 -24.829  0.00  0.00    +0.016 A 
ATOM     12  C7  UNL     1      11.508   1.338 -24.675  0.00  0.00    +0.034 A 
BRANCH  11  13
ATOM     13  C8  UNL     1      12.168   3.498 -23.623  0.00  0.00    +0.121 C 
ATOM     14  N2  UNL     1      12.569   4.743 -23.722  0.00  0.00    -0.267 NA
ATOM     15  C9  UNL     1      12.675   5.216 -22.314  0.00  0.00    +0.162 C 
ATOM     16  C10 UNL     1      11.951   4.177 -21.457  0.00  0.00    +0.126 C 
ATOM     17  N3  UNL     1      11.937   3.038 -22.347  0.00  0.00    -0.327 N 
ATOM     18  H10 UNL     1      11.164   2.392 -22.229  0.00  0.00    +0.148 HD
ENDBRANCH  11  13
ENDBRANCH   3   7
BRANCH   4  19
ATOM     19  C11 UNL     1       8.420  -3.459 -25.065  0.00  0.00    +0.035 A 
ATOM     20  C12 UNL     1       8.038  -4.344 -26.082  0.00  0.00    +0.023 A 
ATOM     21  C13 UNL     1       6.941  -5.191 -25.912  0.00  0.00    +0.002 A 
ATOM     22  C14 UNL     1       6.218  -5.162 -24.721  0.00  0.00    +0.011 A 
ATOM     23  C15 UNL     1       6.595  -4.289 -23.695  0.00  0.00    +0.016 A 
ATOM     24  C16 UNL     1       7.703  -3.449 -23.866  0.00  0.00    +0.034 A 
BRANCH  23  25
ATOM     25  C17 UNL     1       5.815  -4.267 -22.430  0.00  0.00    +0.121 C 
ATOM     26  N5  UNL     1       5.002  -5.247 -22.111  0.00  0.00    -0.267 NA
ATOM     27  C18 UNL     1       4.432  -4.847 -20.794  0.00  0.00    +0.162 C 
ATOM     28  C19 UNL     1       4.780  -3.370 -20.607  0.00  0.00    +0.126 C 
ATOM     29  N6  UNL     1       5.873  -3.222 -21.537  0.00  0.00    -0.327 N 
ATOM     30  H20 UNL     1       6.025  -2.293 -21.918  0.00  0.00    +0.148 HD
ENDBRANCH  23  25
ENDBRANCH   4  19
TORSDOF 4
ENDMDL
MODEL 3
REMARK VINA RESULT:    -7.305      0.365      9.829
REMARK INTER + INTRA:          -9.631
REMARK INTER:                  -9.042
REMARK INTRA:                  -0.589
REMARK UNBOUND:                -0.618
REMARK  Name = /home/vital/Documents/PhD_2021/Malaria_codes/data/pdb_ligands_mmv/ligand_359.pdb
REMARK  4 active torsions:
REMARK  status: ('A' for Active; 'I' for Inactive)
REMARK    1  A    between atoms: N1_3  and  C2_4
REMARK    2  A    between atoms: C6_8  and  C8_10
REMARK    3  A    between atoms: N4_15  and  C11_16
REMARK    4  A    between atoms: C15_20  and  C17_22
REMARK                            x       y       z     vdW  Elec       q    Type
REMARK                         _______ _______ _______ _____ _____    ______ ____
ROOT
ATOM      1  O1  UNL     1       8.577  -0.606 -25.737  0.00  0.00    -0.252 OA
ATOM      2  C1  UNL     1       9.564  -1.318 -25.593  0.00  0.00    +0.308 C 
ATOM      3  N1  UNL     1      10.879  -0.883 -25.653  0.00  0.00    -0.269 N 
ATOM      4  N4  UNL     1       9.525  -2.686 -25.353  0.00  0.00    -0.269 N 
ATOM      5  H1  UNL     1      11.571  -1.522 -25.289  0.00  0.00    +0.156 HD
ATOM      6  H11 UNL     1      10.376  -3.189 -25.557  0.00  0.00    +0.156 HD
ENDROOT
BRANCH   3   7
ATOM      7  C2  UNL     1      11.348   0.409 -25.969  0.00  0.00    +0.035 A 
ATOM      8  C3  UNL     1      11.892   1.294 -25.037  0.00  0.00    +0.023 A 
ATOM      9  C4  UNL     1      12.335   2.560 -25.433  0.00  0.00    +0.002 A 
ATOM     10  C5  UNL     1      12.229   2.958 -26.766  0.00  0.00    +0.011 A 
ATOM     11  C6  UNL     1      11.669   2.088 -27.705  0.00  0.00    +0.016 A 
ATOM     12  C7  UNL     1      11.236   0.817 -27.304  0.00  0.00    +0.034 A 
BRANCH  11  13
ATOM     13  C8  UNL     1      11.531   2.489 -29.127  0.00  0.00    +0.121 C 
ATOM     14  N2  UNL     1      10.497   2.117 -29.844  0.00  0.00    -0.267 NA
ATOM     15  C9  UNL     1      10.743   2.702 -31.190  0.00  0.00    +0.162 C 
ATOM     16  C10 UNL     1      11.867   3.724 -31.015  0.00  0.00    +0.126 C 
ATOM     17  N3  UNL     1      12.452   3.289 -29.766  0.00  0.00    -0.327 N 
ATOM     18  H10 UNL     1      12.892   4.011 -29.207  0.00  0.00    +0.148 HD
ENDBRANCH  11  13
ENDBRANCH   3   7
BRANCH   4  19
ATOM     19  C11 UNL     1       8.382  -3.474 -25.102  0.00  0.00    +0.035 A 
ATOM     20  C12 UNL     1       7.945  -4.317 -26.134  0.00  0.00    +0.023 A 
ATOM     21  C13 UNL     1       6.823  -5.130 -25.960  0.00  0.00    +0.002 A 
ATOM     22  C14 UNL     1       6.130  -5.109 -24.751  0.00  0.00    +0.011 A 
ATOM     23  C15 UNL     1       6.561  -4.280 -23.712  0.00  0.00    +0.016 A 
ATOM     24  C16 UNL     1       7.694  -3.474 -23.886  0.00  0.00    +0.034 A 
BRANCH  23  25
ATOM     25  C17 UNL     1       5.812  -4.267 -22.428  0.00  0.00    +0.121 C 
ATOM     26  N5  UNL     1       4.979  -5.231 -22.113  0.00  0.00    -0.267 NA
ATOM     27  C18 UNL     1       4.452  -4.847 -20.773  0.00  0.00    +0.162 C 
ATOM     28  C19 UNL     1       4.846  -3.386 -20.559  0.00  0.00    +0.126 C 
ATOM     29  N6  UNL     1       5.922  -3.246 -21.512  0.00  0.00    -0.327 N 
ATOM     30  H20 UNL     1       6.092  -2.313 -21.873  0.00  0.00    +0.148 HD
ENDBRANCH  23  25
ENDBRANCH   4  19
TORSDOF 4
ENDMDL
MODEL 4
REMARK VINA RESULT:    -7.150      5.650      9.393
REMARK INTER + INTRA:          -9.440
REMARK INTER:                  -8.871
REMARK INTRA:                  -0.569
REMARK UNBOUND:                -0.618
REMARK  Name = /home/vital/Documents/PhD_2021/Malaria_codes/data/pdb_ligands_mmv/ligand_359.pdb
REMARK  4 active torsions:
REMARK  status: ('A' for Active; 'I' for Inactive)
REMARK    1  A    between atoms: N1_3  and  C2_4
REMARK    2  A    between atoms: C6_8  and  C8_10
REMARK    3  A    between atoms: N4_15  and  C11_16
REMARK    4  A    between atoms: C15_20  and  C17_22
REMARK                            x       y       z     vdW  Elec       q    Type
REMARK                         _______ _______ _______ _____ _____    ______ ____
ROOT
ATOM      1  O1  UNL     1       6.754  -4.138 -29.011  0.00  0.00    -0.252 OA
ATOM      2  C1  UNL     1       6.010  -3.237 -28.643  0.00  0.00    +0.308 C 
ATOM      3  N1  UNL     1       6.176  -2.483 -27.491  0.00  0.00    -0.269 N 
ATOM      4  N4  UNL     1       4.868  -2.827 -29.319  0.00  0.00    -0.269 N 
ATOM      5  H1  UNL     1       5.631  -1.636 -27.437  0.00  0.00    +0.156 HD
ATOM      6  H11 UNL     1       4.199  -2.307 -28.771  0.00  0.00    +0.156 HD
ENDROOT
BRANCH   3   7
ATOM      7  C2  UNL     1       7.153  -2.645 -26.487  0.00  0.00    +0.035 A 
ATOM      8  C3  UNL     1       7.180  -3.710 -25.585  0.00  0.00    +0.023 A 
ATOM      9  C4  UNL     1       8.185  -3.798 -24.617  0.00  0.00    +0.002 A 
ATOM     10  C5  UNL     1       9.170  -2.813 -24.534  0.00  0.00    +0.011 A 
ATOM     11  C6  UNL     1       9.144  -1.732 -25.418  0.00  0.00    +0.016 A 
ATOM     12  C7  UNL     1       8.140  -1.655 -26.393  0.00  0.00    +0.034 A 
BRANCH  11  13
ATOM     13  C8  UNL     1      10.171  -0.663 -25.345  0.00  0.00    +0.121 C 
ATOM     14  N2  UNL     1      10.931  -0.376 -26.374  0.00  0.00    -0.267 NA
ATOM     15  C9  UNL     1      11.817   0.720 -25.894  0.00  0.00    +0.162 C 
ATOM     16  C10 UNL     1      11.206   1.222 -24.585  0.00  0.00    +0.126 C 
ATOM     17  N3  UNL     1      10.366   0.103 -24.218  0.00  0.00    -0.327 N 
ATOM     18  H10 UNL     1       9.543   0.327 -23.671  0.00  0.00    +0.148 HD
ENDBRANCH  11  13
ENDBRANCH   3   7
BRANCH   4  19
ATOM     19  C11 UNL     1       4.427  -3.261 -30.587  0.00  0.00    +0.035 A 
ATOM     20  C12 UNL     1       4.692  -2.424 -31.679  0.00  0.00    +0.023 A 
ATOM     21  C13 UNL     1       4.289  -2.786 -32.967  0.00  0.00    +0.002 A 
ATOM     22  C14 UNL     1       3.621  -3.991 -33.173  0.00  0.00    +0.011 A 
ATOM     23  C15 UNL     1       3.358  -4.839 -32.093  0.00  0.00    +0.016 A 
ATOM     24  C16 UNL     1       3.774  -4.477 -30.804  0.00  0.00    +0.034 A 
BRANCH  23  25
ATOM     25  C17 UNL     1       2.644  -6.121 -32.326  0.00  0.00    +0.121 C 
ATOM     26  N5  UNL     1       1.917  -6.680 -31.387  0.00  0.00    -0.267 NA
ATOM     27  C18 UNL     1       1.381  -7.920 -32.016  0.00  0.00    +0.162 C 
ATOM     28  C19 UNL     1       2.186  -8.133 -33.298  0.00  0.00    +0.126 C 
ATOM     29  N6  UNL     1       2.717  -6.809 -33.516  0.00  0.00    -0.327 N 
ATOM     30  H20 UNL     1       3.586  -6.747 -34.036  0.00  0.00    +0.148 HD
ENDBRANCH  23  25
ENDBRANCH   4  19
TORSDOF 4
ENDMDL
MODEL 5
REMARK VINA RESULT:    -7.143      6.097      8.931
REMARK INTER + INTRA:          -9.431
REMARK INTER:                  -8.851
REMARK INTRA:                  -0.580
REMARK UNBOUND:                -0.618
REMARK  Name = /home/vital/Documents/PhD_2021/Malaria_codes/data/pdb_ligands_mmv/ligand_359.pdb
REMARK  4 active torsions:
REMARK  status: ('A' for Active; 'I' for Inactive)
REMARK    1  A    between atoms: N1_3  and  C2_4
REMARK    2  A    between atoms: C6_8  and  C8_10
REMARK    3  A    between atoms: N4_15  and  C11_16
REMARK    4  A    between atoms: C15_20  and  C17_22
REMARK                            x       y       z     vdW  Elec       q    Type
REMARK                         _______ _______ _______ _____ _____    ______ ____
ROOT
ATOM      1  O1  UNL     1       4.604  -3.734 -28.468  0.00  0.00    -0.252 OA
ATOM      2  C1  UNL     1       5.704  -3.938 -28.967  0.00  0.00    +0.308 C 
ATOM      3  N1  UNL     1       5.968  -3.986 -30.328  0.00  0.00    -0.269 N 
ATOM      4  N4  UNL     1       6.870  -4.164 -28.248  0.00  0.00    -0.269 N 
ATOM      5  H1  UNL     1       6.941  -3.929 -30.589  0.00  0.00    +0.156 HD
ATOM      6  H11 UNL     1       7.618  -4.611 -28.757  0.00  0.00    +0.156 HD
ENDROOT
BRANCH   3   7
ATOM      7  C2  UNL     1       5.044  -3.902 -31.390  0.00  0.00    +0.035 A 
ATOM      8  C3  UNL     1       4.807  -2.743 -32.132  0.00  0.00    +0.023 A 
ATOM      9  C4  UNL     1       3.873  -2.743 -33.172  0.00  0.00    +0.002 A 
ATOM     10  C5  UNL     1       3.157  -3.901 -33.475  0.00  0.00    +0.011 A 
ATOM     11  C6  UNL     1       3.370  -5.061 -32.728  0.00  0.00    +0.016 A 
ATOM     12  C7  UNL     1       4.316  -5.059 -31.693  0.00  0.00    +0.034 A 
BRANCH  11  13
ATOM     13  C8  UNL     1       2.614  -6.305 -33.019  0.00  0.00    +0.121 C 
ATOM     14  N2  UNL     1       2.124  -7.047 -32.055  0.00  0.00    -0.267 NA
ATOM     15  C9  UNL     1       1.464  -8.184 -32.753  0.00  0.00    +0.162 C 
ATOM     16  C10 UNL     1       1.361  -7.781 -34.225  0.00  0.00    +0.126 C 
ATOM     17  N3  UNL     1       2.356  -6.735 -34.301  0.00  0.00    -0.327 N 
ATOM     18  H10 UNL     1       2.193  -6.017 -34.998  0.00  0.00    +0.148 HD
ENDBRANCH  11  13
ENDBRANCH   3   7
BRANCH   4  19
ATOM     19  C11 UNL     1       7.040  -4.073 -26.850  0.00  0.00    +0.035 A 
ATOM     20  C12 UNL     1       6.582  -5.148 -26.076  0.00  0.00    +0.023 A 
ATOM     21  C13 UNL     1       6.718  -5.133 -24.687  0.00  0.00    +0.002 A 
ATOM     22  C14 UNL     1       7.315  -4.042 -24.059  0.00  0.00    +0.011 A 
ATOM     23  C15 UNL     1       7.783  -2.966 -24.819  0.00  0.00    +0.016 A 
ATOM     24  C16 UNL     1       7.656  -2.991 -26.215  0.00  0.00    +0.034 A 
BRANCH  23  25
ATOM     25  C17 UNL     1       8.417  -1.808 -24.137  0.00  0.00    +0.121 C 
ATOM     26  N5  UNL     1       7.895  -1.284 -23.052  0.00  0.00    -0.267 NA
ATOM     27  C18 UNL     1       8.819  -0.173 -22.692  0.00  0.00    +0.162 C 
ATOM     28  C19 UNL     1       9.715   0.054 -23.909  0.00  0.00    +0.126 C 
ATOM     29  N6  UNL     1       9.560  -1.202 -24.605  0.00  0.00    -0.327 N 
ATOM     30  H20 UNL     1       9.700  -1.187 -25.610  0.00  0.00    +0.148 HD
ENDBRANCH  23  25
ENDBRANCH   4  19
TORSDOF 4
ENDMDL
MODEL 6
REMARK VINA RESULT:    -7.086      2.009      3.515
REMARK INTER + INTRA:          -9.360
REMARK INTER:                  -8.773
REMARK INTRA:                  -0.587
REMARK UNBOUND:                -0.618
REMARK  Name = /home/vital/Documents/PhD_2021/Malaria_codes/data/pdb_ligands_mmv/ligand_359.pdb
REMARK  4 active torsions:
REMARK  status: ('A' for Active; 'I' for Inactive)
REMARK    1  A    between atoms: N1_3  and  C2_4
REMARK    2  A    between atoms: C6_8  and  C8_10
REMARK    3  A    between atoms: N4_15  and  C11_16
REMARK    4  A    between atoms: C15_20  and  C17_22
REMARK                            x       y       z     vdW  Elec       q    Type
REMARK                         _______ _______ _______ _____ _____    ______ ____
ROOT
ATOM      1  O1  UNL     1       8.572  -0.491 -25.446  0.00  0.00    -0.252 OA
ATOM      2  C1  UNL     1       9.578  -1.186 -25.391  0.00  0.00    +0.308 C 
ATOM      3  N1  UNL     1       9.591  -2.572 -25.328  0.00  0.00    -0.269 N 
ATOM      4  N4  UNL     1      10.879  -0.698 -25.374  0.00  0.00    -0.269 N 
ATOM      5  H1  UNL     1      10.478  -3.013 -25.521  0.00  0.00    +0.156 HD
ATOM      6  H11 UNL     1      11.580  -1.334 -25.025  0.00  0.00    +0.156 HD
ENDROOT
BRANCH   3   7
ATOM      7  C2  UNL     1       8.485  -3.442 -25.228  0.00  0.00    +0.035 A 
ATOM      8  C3  UNL     1       8.052  -4.278 -26.258  0.00  0.00    +0.023 A 
ATOM      9  C4  UNL     1       6.944  -5.113 -26.078  0.00  0.00    +0.002 A 
ATOM     10  C5  UNL     1       6.251  -5.111 -24.867  0.00  0.00    +0.011 A 
ATOM     11  C6  UNL     1       6.663  -4.265 -23.836  0.00  0.00    +0.016 A 
ATOM     12  C7  UNL     1       7.780  -3.438 -24.018  0.00  0.00    +0.034 A 
BRANCH  11  13
ATOM     13  C8  UNL     1       5.937  -4.232 -22.541  0.00  0.00    +0.121 C 
ATOM     14  N2  UNL     1       5.153  -5.217 -22.174  0.00  0.00    -0.267 NA
ATOM     15  C9  UNL     1       4.617  -4.798 -20.850  0.00  0.00    +0.162 C 
ATOM     16  C10 UNL     1       5.479  -3.620 -20.392  0.00  0.00    +0.126 C 
ATOM     17  N3  UNL     1       6.064  -3.196 -21.644  0.00  0.00    -0.327 N 
ATOM     18  H10 UNL     1       6.976  -2.757 -21.582  0.00  0.00    +0.148 HD
ENDBRANCH  11  13
ENDBRANCH   3   7
BRANCH   4  19
ATOM     19  C11 UNL     1      11.287   0.642 -25.546  0.00  0.00    +0.035 A 
ATOM     20  C12 UNL     1      11.499   1.084 -26.859  0.00  0.00    +0.023 A 
ATOM     21  C13 UNL     1      11.902   2.398 -27.111  0.00  0.00    +0.002 A 
ATOM     22  C14 UNL     1      12.093   3.281 -26.050  0.00  0.00    +0.011 A 
ATOM     23  C15 UNL     1      11.876   2.855 -24.736  0.00  0.00    +0.016 A 
ATOM     24  C16 UNL     1      11.462   1.539 -24.489  0.00  0.00    +0.034 A 
BRANCH  23  25
ATOM     25  C17 UNL     1      12.085   3.807 -23.614  0.00  0.00    +0.121 C 
ATOM     26  N5  UNL     1      12.935   4.803 -23.711  0.00  0.00    -0.267 NA
ATOM     27  C18 UNL     1      12.841   5.504 -22.400  0.00  0.00    +0.162 C 
ATOM     28  C19 UNL     1      12.088   4.561 -21.461  0.00  0.00    +0.126 C 
ATOM     29  N6  UNL     1      11.430   3.693 -22.409  0.00  0.00    -0.327 N 
ATOM     30  H20 UNL     1      11.205   2.757 -22.089  0.00  0.00    +0.148 HD
ENDBRANCH  23  25
ENDBRANCH   4  19
TORSDOF 4
ENDMDL
MODEL 7
REMARK VINA RESULT:    -6.900     13.418     15.070
REMARK INTER + INTRA:          -9.131
REMARK INTER:                  -8.636
REMARK INTRA:                  -0.495
REMARK UNBOUND:                -0.618
REMARK  Name = /home/vital/Documents/PhD_2021/Malaria_codes/data/pdb_ligands_mmv/ligand_359.pdb
REMARK  4 active torsions:
REMARK  status: ('A' for Active; 'I' for Inactive)
REMARK    1  A    between atoms: N1_3  and  C2_4
REMARK    2  A    between atoms: C6_8  and  C8_10
REMARK    3  A    between atoms: N4_15  and  C11_16
REMARK    4  A    between atoms: C15_20  and  C17_22
REMARK                            x       y       z     vdW  Elec       q    Type
REMARK                         _______ _______ _______ _____ _____    ______ ____
ROOT
ATOM      1  O1  UNL     1      -3.981   1.809 -19.439  0.00  0.00    -0.252 OA
ATOM      2  C1  UNL     1      -3.184   1.849 -20.368  0.00  0.00    +0.308 C 
ATOM      3  N1  UNL     1      -3.291   1.122 -21.545  0.00  0.00    -0.269 N 
ATOM      4  N4  UNL     1      -2.033   2.625 -20.391  0.00  0.00    -0.269 N 
ATOM      5  H1  UNL     1      -2.699   1.425 -22.304  0.00  0.00    +0.156 HD
ATOM      6  H11 UNL     1      -1.328   2.342 -21.055  0.00  0.00    +0.156 HD
ENDROOT
BRANCH   3   7
ATOM      7  C2  UNL     1      -4.258   0.150 -21.875  0.00  0.00    +0.035 A 
ATOM      8  C3  UNL     1      -4.329  -1.114 -21.288  0.00  0.00    +0.023 A 
ATOM      9  C4  UNL     1      -5.322  -2.022 -21.672  0.00  0.00    +0.002 A 
ATOM     10  C5  UNL     1      -6.248  -1.677 -22.656  0.00  0.00    +0.011 A 
ATOM     11  C6  UNL     1      -6.176  -0.422 -23.265  0.00  0.00    +0.016 A 
ATOM     12  C7  UNL     1      -5.185   0.488 -22.869  0.00  0.00    +0.034 A 
BRANCH  11  13
ATOM     13  C8  UNL     1      -7.140  -0.032 -24.324  0.00  0.00    +0.121 C 
ATOM     14  N2  UNL     1      -6.911  -0.303 -25.587  0.00  0.00    -0.267 NA
ATOM     15  C9  UNL     1      -8.087   0.256 -26.310  0.00  0.00    +0.162 C 
ATOM     16  C10 UNL     1      -9.142   0.557 -25.244  0.00  0.00    +0.126 C 
ATOM     17  N3  UNL     1      -8.330   0.602 -24.048  0.00  0.00    -0.327 N 
ATOM     18  H10 UNL     1      -8.795   0.341 -23.186  0.00  0.00    +0.148 HD
ENDBRANCH  11  13
ENDBRANCH   3   7
BRANCH   4  19
ATOM     19  C11 UNL     1      -1.637   3.590 -19.440  0.00  0.00    +0.035 A 
ATOM     20  C12 UNL     1      -2.408   4.757 -19.350  0.00  0.00    +0.023 A 
ATOM     21  C13 UNL     1      -2.082   5.756 -18.431  0.00  0.00    +0.002 A 
ATOM     22  C14 UNL     1      -0.981   5.595 -17.592  0.00  0.00    +0.011 A 
ATOM     23  C15 UNL     1      -0.208   4.432 -17.666  0.00  0.00    +0.016 A 
ATOM     24  C16 UNL     1      -0.547   3.427 -18.581  0.00  0.00    +0.034 A 
BRANCH  23  25
ATOM     25  C17 UNL     1       0.963   4.274 -16.765  0.00  0.00    +0.121 C 
ATOM     26  N5  UNL     1       0.826   3.843 -15.533  0.00  0.00    -0.267 NA
ATOM     27  C18 UNL     1       2.211   3.825 -14.986  0.00  0.00    +0.162 C 
ATOM     28  C19 UNL     1       3.070   4.625 -15.965  0.00  0.00    +0.126 C 
ATOM     29  N6  UNL     1       2.246   4.590 -17.150  0.00  0.00    -0.327 N 
ATOM     30  H20 UNL     1       2.360   5.355 -17.806  0.00  0.00    +0.148 HD
ENDBRANCH  23  25
ENDBRANCH   4  19
TORSDOF 4
ENDMDL
MODEL 8
REMARK VINA RESULT:    -6.830     13.442     15.554
REMARK INTER + INTRA:          -9.045
REMARK INTER:                  -8.442
REMARK INTRA:                  -0.603
REMARK UNBOUND:                -0.618
REMARK  Name = /home/vital/Documents/PhD_2021/Malaria_codes/data/pdb_ligands_mmv/ligand_359.pdb
REMARK  4 active torsions:
REMARK  status: ('A' for Active; 'I' for Inactive)
REMARK    1  A    between atoms: N1_3  and  C2_4
REMARK    2  A    between atoms: C6_8  and  C8_10
REMARK    3  A    between atoms: N4_15  and  C11_16
REMARK    4  A    between atoms: C15_20  and  C17_22
REMARK                            x       y       z     vdW  Elec       q    Type
REMARK                         _______ _______ _______ _____ _____    ______ ____
ROOT
ATOM      1  O1  UNL     1      -3.223   2.806 -19.436  0.00  0.00    -0.252 OA
ATOM      2  C1  UNL     1      -2.194   2.434 -19.985  0.00  0.00    +0.308 C 
ATOM      3  N1  UNL     1      -0.955   3.046 -19.862  0.00  0.00    -0.269 N 
ATOM      4  N4  UNL     1      -2.100   1.337 -20.832  0.00  0.00    -0.269 N 
ATOM      5  H1  UNL     1      -0.163   2.505 -20.176  0.00  0.00    +0.156 HD
ATOM      6  H11 UNL     1      -1.296   1.323 -21.442  0.00  0.00    +0.156 HD
ENDROOT
BRANCH   3   7
ATOM      7  C2  UNL     1      -0.645   4.237 -19.173  0.00  0.00    +0.035 A 
ATOM      8  C3  UNL     1      -0.889   5.517 -19.675  0.00  0.00    +0.023 A 
ATOM      9  C4  UNL     1      -0.551   6.650 -18.927  0.00  0.00    +0.002 A 
ATOM     10  C5  UNL     1       0.043   6.514 -17.673  0.00  0.00    +0.011 A 
ATOM     11  C6  UNL     1       0.309   5.239 -17.168  0.00  0.00    +0.016 A 
ATOM     12  C7  UNL     1      -0.040   4.107 -17.917  0.00  0.00    +0.034 A 
BRANCH  11  13
ATOM     13  C8  UNL     1       0.953   5.064 -15.842  0.00  0.00    +0.121 C 
ATOM     14  N2  UNL     1       0.617   4.077 -15.046  0.00  0.00    -0.267 NA
ATOM     15  C9  UNL     1       1.466   4.263 -13.837  0.00  0.00    +0.162 C 
ATOM     16  C10 UNL     1       2.547   5.273 -14.225  0.00  0.00    +0.126 C 
ATOM     17  N3  UNL     1       1.949   5.896 -15.384  0.00  0.00    -0.327 N 
ATOM     18  H10 UNL     1       2.594   6.257 -16.077  0.00  0.00    +0.148 HD
ENDBRANCH  11  13
ENDBRANCH   3   7
BRANCH   4  19
ATOM     19  C11 UNL     1      -3.106   0.389 -21.112  0.00  0.00    +0.035 A 
ATOM     20  C12 UNL     1      -3.233  -0.692 -20.228  0.00  0.00    +0.023 A 
ATOM     21  C13 UNL     1      -4.208  -1.670 -20.436  0.00  0.00    +0.002 A 
ATOM     22  C14 UNL     1      -5.066  -1.574 -21.529  0.00  0.00    +0.011 A 
ATOM     23  C15 UNL     1      -4.956  -0.497 -22.414  0.00  0.00    +0.016 A 
ATOM     24  C16 UNL     1      -3.984   0.489 -22.195  0.00  0.00    +0.034 A 
BRANCH  23  25
ATOM     25  C17 UNL     1      -5.877  -0.407 -23.576  0.00  0.00    +0.121 C 
ATOM     26  N5  UNL     1      -5.432  -0.480 -24.809  0.00  0.00    -0.267 NA
ATOM     27  C18 UNL     1      -6.652  -0.355 -25.655  0.00  0.00    +0.162 C 
ATOM     28  C19 UNL     1      -7.766   0.139 -24.733  0.00  0.00    +0.126 C 
ATOM     29  N6  UNL     1      -7.233  -0.217 -23.439  0.00  0.00    -0.327 N 
ATOM     30  H20 UNL     1      -7.548   0.336 -22.649  0.00  0.00    +0.148 HD
ENDBRANCH  23  25
ENDBRANCH   4  19
TORSDOF 4
ENDMDL
MODEL 9
REMARK VINA RESULT:    -6.757      6.206      9.537
REMARK INTER + INTRA:          -8.955
REMARK INTER:                  -8.481
REMARK INTRA:                  -0.474
REMARK UNBOUND:                -0.618
REMARK  Name = /home/vital/Documents/PhD_2021/Malaria_codes/data/pdb_ligands_mmv/ligand_359.pdb
REMARK  4 active torsions:
REMARK  status: ('A' for Active; 'I' for Inactive)
REMARK    1  A    between atoms: N1_3  and  C2_4
REMARK    2  A    between atoms: C6_8  and  C8_10
REMARK    3  A    between atoms: N4_15  and  C11_16
REMARK    4  A    between atoms: C15_20  and  C17_22
REMARK                            x       y       z     vdW  Elec       q    Type
REMARK                         _______ _______ _______ _____ _____    ______ ____
ROOT
ATOM      1  O1  UNL     1       4.413  -4.095 -28.539  0.00  0.00    -0.252 OA
ATOM      2  C1  UNL     1       5.504  -4.092 -29.095  0.00  0.00    +0.308 C 
ATOM      3  N1  UNL     1       6.731  -4.137 -28.450  0.00  0.00    -0.269 N 
ATOM      4  N4  UNL     1       5.693  -4.033 -30.470  0.00  0.00    -0.269 N 
ATOM      5  H1  UNL     1       7.526  -4.361 -29.030  0.00  0.00    +0.156 HD
ATOM      6  H11 UNL     1       6.607  -3.733 -30.774  0.00  0.00    +0.156 HD
ENDROOT
BRANCH   3   7
ATOM      7  C2  UNL     1       6.978  -4.107 -27.061  0.00  0.00    +0.035 A 
ATOM      8  C3  UNL     1       6.533  -5.082 -26.167  0.00  0.00    +0.023 A 
ATOM      9  C4  UNL     1       6.821  -4.980 -24.802  0.00  0.00    +0.002 A 
ATOM     10  C5  UNL     1       7.548  -3.893 -24.316  0.00  0.00    +0.011 A 
ATOM     11  C6  UNL     1       7.982  -2.901 -25.198  0.00  0.00    +0.016 A 
ATOM     12  C7  UNL     1       7.700  -3.015 -26.567  0.00  0.00    +0.034 A 
BRANCH  11  13
ATOM     13  C8  UNL     1       8.747  -1.728 -24.708  0.00  0.00    +0.121 C 
ATOM     14  N2  UNL     1       9.591  -1.090 -25.484  0.00  0.00    -0.267 NA
ATOM     15  C9  UNL     1      10.148  -0.009 -24.627  0.00  0.00    +0.162 C 
ATOM     16  C10 UNL     1       9.244   0.071 -23.395  0.00  0.00    +0.126 C 
ATOM     17  N3  UNL     1       8.599  -1.223 -23.436  0.00  0.00    -0.327 N 
ATOM     18  H10 UNL     1       7.669  -1.268 -23.034  0.00  0.00    +0.148 HD
ENDBRANCH  11  13
ENDBRANCH   3   7
BRANCH   4  19
ATOM     19  C11 UNL     1       4.698  -4.100 -31.470  0.00  0.00    +0.035 A 
ATOM     20  C12 UNL     1       4.549  -2.983 -32.302  0.00  0.00    +0.023 A 
ATOM     21  C13 UNL     1       3.589  -2.974 -33.316  0.00  0.00    +0.002 A 
ATOM     22  C14 UNL     1       2.771  -4.086 -33.507  0.00  0.00    +0.011 A 
ATOM     23  C15 UNL     1       2.915  -5.211 -32.689  0.00  0.00    +0.016 A 
ATOM     24  C16 UNL     1       3.888  -5.219 -31.681  0.00  0.00    +0.034 A 
BRANCH  23  25
ATOM     25  C17 UNL     1       2.036  -6.389 -32.904  0.00  0.00    +0.121 C 
ATOM     26  N5  UNL     1       1.622  -7.126 -31.899  0.00  0.00    -0.267 NA
ATOM     27  C18 UNL     1       0.779  -8.179 -32.530  0.00  0.00    +0.162 C 
ATOM     28  C19 UNL     1       1.068  -8.121 -34.030  0.00  0.00    +0.126 C 
ATOM     29  N6  UNL     1       1.626  -6.795 -34.153  0.00  0.00    -0.327 N 
ATOM     30  H20 UNL     1       2.266  -6.640 -34.926  0.00  0.00    +0.148 HD
ENDBRANCH  23  25
ENDBRANCH   4  19
TORSDOF 4
ENDMDL
