MODEL 1
REMARK VINA RESULT:    -5.135      0.000      0.000
REMARK INTER + INTRA:          -6.039
REMARK INTER:                  -5.735
REMARK INTRA:                  -0.304
REMARK UNBOUND:                -0.304
REMARK  Name = /home/vital/Documents/PhD_2021/Malaria_codes/data/pdb_ligands_mmv/ligand_367.pdb
REMARK  2 active torsions:
REMARK  status: ('A' for Active; 'I' for Inactive)
REMARK    1  A    between atoms: C4_5  and  N1_6
REMARK    2  A    between atoms: N2_9  and  C6_10
REMARK                            x       y       z     vdW  Elec       q    Type
REMARK                         _______ _______ _______ _____ _____    ______ ____
ROOT
ATOM      1  N1  UNL     1      -0.476  -4.018 -20.528  0.00  0.00    -0.269 N 
ATOM      2  C5  UNL     1       0.425  -2.961 -20.560  0.00  0.00    +0.308 C 
ATOM      3  O1  UNL     1       0.672  -2.283 -21.547  0.00  0.00    -0.252 OA
ATOM      4  N2  UNL     1       1.005  -2.790 -19.310  0.00  0.00    -0.269 N 
ATOM      5  H3  UNL     1      -0.382  -4.648 -19.746  0.00  0.00    +0.156 HD
ATOM      6  H4  UNL     1       0.528  -3.236 -18.541  0.00  0.00    +0.156 HD
ENDROOT
BRANCH   1  11
ATOM      7 CL1  UNL     1      -3.979  -6.079 -24.869  0.00  0.00    -0.082 Cl
ATOM      8  C1  UNL     1      -3.003  -5.415 -23.609  0.00  0.00    +0.059 A 
ATOM      9  C2  UNL     1      -1.939  -6.184 -23.138  0.00  0.00    +0.023 A 
ATOM     10  C3  UNL     1      -1.118  -5.696 -22.116  0.00  0.00    +0.025 A 
ATOM     11  C4  UNL     1      -1.345  -4.431 -21.559  0.00  0.00    +0.036 A 
ATOM     12  C12 UNL     1      -2.418  -3.669 -22.030  0.00  0.00    +0.044 A 
ATOM     13  C13 UNL     1      -3.245  -4.155 -23.053  0.00  0.00    +0.061 A 
ATOM     14 CL4  UNL     1      -4.552  -3.152 -23.578  0.00  0.00    -0.082 Cl
ENDBRANCH   1  11
BRANCH   4  15
ATOM     15  C6  UNL     1       2.045  -1.899 -18.965  0.00  0.00    +0.036 A 
ATOM     16  C7  UNL     1       3.351  -2.003 -19.447  0.00  0.00    +0.025 A 
ATOM     17  C8  UNL     1       4.332  -1.086 -19.048  0.00  0.00    +0.023 A 
ATOM     18  C9  UNL     1       4.016  -0.057 -18.160  0.00  0.00    +0.059 A 
ATOM     19 CL2  UNL     1       5.274   1.038 -17.711  0.00  0.00    -0.082 Cl
ATOM     20  C10 UNL     1       2.714   0.049 -17.667  0.00  0.00    +0.061 A 
ATOM     21 CL3  UNL     1       2.242   1.289 -16.558  0.00  0.00    -0.082 Cl
ATOM     22  C11 UNL     1       1.735  -0.870 -18.066  0.00  0.00    +0.044 A 
ENDBRANCH   4  15
TORSDOF 2
ENDMDL
MODEL 2
REMARK VINA RESULT:    -5.041      2.626      8.638
REMARK INTER + INTRA:          -5.935
REMARK INTER:                  -5.572
REMARK INTRA:                  -0.363
REMARK UNBOUND:                -0.304
REMARK  Name = /home/vital/Documents/PhD_2021/Malaria_codes/data/pdb_ligands_mmv/ligand_367.pdb
REMARK  2 active torsions:
REMARK  status: ('A' for Active; 'I' for Inactive)
REMARK    1  A    between atoms: C4_5  and  N1_6
REMARK    2  A    between atoms: N2_9  and  C6_10
REMARK                            x       y       z     vdW  Elec       q    Type
REMARK                         _______ _______ _______ _____ _____    ______ ____
ROOT
ATOM      1  N1  UNL     1       0.722  -0.818 -18.004  0.00  0.00    -0.269 N 
ATOM      2  C5  UNL     1      -0.165  -0.647 -19.059  0.00  0.00    +0.308 C 
ATOM      3  O1  UNL     1       0.054   0.029 -20.054  0.00  0.00    -0.252 OA
ATOM      4  N2  UNL     1      -1.335  -1.354 -18.819  0.00  0.00    -0.269 N 
ATOM      5  H3  UNL     1       0.319  -1.165 -17.147  0.00  0.00    +0.156 HD
ATOM      6  H4  UNL     1      -1.280  -2.063 -18.103  0.00  0.00    +0.156 HD
ENDROOT
BRANCH   1  11
ATOM      7 CL1  UNL     1       6.229   1.347 -17.409  0.00  0.00    -0.082 Cl
ATOM      8  C1  UNL     1       4.658   0.667 -17.633  0.00  0.00    +0.059 A 
ATOM      9  C2  UNL     1       3.595   1.244 -16.937  0.00  0.00    +0.023 A 
ATOM     10  C3  UNL     1       2.301   0.732 -17.080  0.00  0.00    +0.025 A 
ATOM     11  C4  UNL     1       2.053  -0.358 -17.924  0.00  0.00    +0.036 A 
ATOM     12  C12 UNL     1       3.123  -0.937 -18.612  0.00  0.00    +0.044 A 
ATOM     13  C13 UNL     1       4.422  -0.428 -18.471  0.00  0.00    +0.061 A 
ATOM     14 CL4  UNL     1       5.691  -1.201 -19.354  0.00  0.00    -0.082 Cl
ENDBRANCH   1  11
BRANCH   4  15
ATOM     15  C6  UNL     1      -2.515  -1.346 -19.596  0.00  0.00    +0.036 A 
ATOM     16  C7  UNL     1      -3.602  -0.505 -19.352  0.00  0.00    +0.025 A 
ATOM     17  C8  UNL     1      -4.743  -0.565 -20.161  0.00  0.00    +0.023 A 
ATOM     18  C9  UNL     1      -4.810  -1.469 -21.222  0.00  0.00    +0.059 A 
ATOM     19 CL2  UNL     1      -6.247  -1.489 -22.179  0.00  0.00    -0.082 Cl
ATOM     20  C10 UNL     1      -3.730  -2.320 -21.468  0.00  0.00    +0.061 A 
ATOM     21 CL3  UNL     1      -3.734  -3.473 -22.755  0.00  0.00    -0.082 Cl
ATOM     22  C11 UNL     1      -2.590  -2.259 -20.656  0.00  0.00    +0.044 A 
ENDBRANCH   4  15
TORSDOF 2
ENDMDL
MODEL 3
REMARK VINA RESULT:    -4.976      2.590      3.646
REMARK INTER + INTRA:          -5.862
REMARK INTER:                  -5.498
REMARK INTRA:                  -0.364
REMARK UNBOUND:                -0.304
REMARK  Name = /home/vital/Documents/PhD_2021/Malaria_codes/data/pdb_ligands_mmv/ligand_367.pdb
REMARK  2 active torsions:
REMARK  status: ('A' for Active; 'I' for Inactive)
REMARK    1  A    between atoms: C4_5  and  N1_6
REMARK    2  A    between atoms: N2_9  and  C6_10
REMARK                            x       y       z     vdW  Elec       q    Type
REMARK                         _______ _______ _______ _____ _____    ______ ____
ROOT
ATOM      1  N1  UNL     1      -1.357  -1.419 -18.938  0.00  0.00    -0.269 N 
ATOM      2  C5  UNL     1      -0.213  -0.652 -19.116  0.00  0.00    +0.308 C 
ATOM      3  O1  UNL     1       0.013   0.053 -20.088  0.00  0.00    -0.252 OA
ATOM      4  N2  UNL     1       0.638  -0.806 -18.029  0.00  0.00    -0.269 N 
ATOM      5  H3  UNL     1      -1.293  -2.145 -18.242  0.00  0.00    +0.156 HD
ATOM      6  H4  UNL     1       0.222  -1.200 -17.199  0.00  0.00    +0.156 HD
ENDROOT
BRANCH   1  11
ATOM      7 CL1  UNL     1      -6.307  -1.233 -22.230  0.00  0.00    -0.082 Cl
ATOM      8  C1  UNL     1      -4.845  -1.346 -21.318  0.00  0.00    +0.059 A 
ATOM      9  C2  UNL     1      -4.683  -0.476 -20.239  0.00  0.00    +0.023 A 
ATOM     10  C3  UNL     1      -3.518  -0.523 -19.468  0.00  0.00    +0.025 A 
ATOM     11  C4  UNL     1      -2.504  -1.444 -19.760  0.00  0.00    +0.036 A 
ATOM     12  C12 UNL     1      -2.668  -2.306 -20.847  0.00  0.00    +0.044 A 
ATOM     13  C13 UNL     1      -3.834  -2.262 -21.624  0.00  0.00    +0.061 A 
ATOM     14 CL4  UNL     1      -3.960  -3.362 -22.953  0.00  0.00    -0.082 Cl
ENDBRANCH   1  11
BRANCH   4  15
ATOM     15  C6  UNL     1       1.942  -0.284 -17.883  0.00  0.00    +0.036 A 
ATOM     16  C7  UNL     1       2.252   0.829 -17.100  0.00  0.00    +0.025 A 
ATOM     17  C8  UNL     1       3.570   1.295 -17.014  0.00  0.00    +0.023 A 
ATOM     18  C9  UNL     1       4.592   0.653 -17.715  0.00  0.00    +0.059 A 
ATOM     19 CL2  UNL     1       6.194   1.280 -17.564  0.00  0.00    -0.082 Cl
ATOM     20  C10 UNL     1       4.290  -0.456 -18.507  0.00  0.00    +0.061 A 
ATOM     21 CL3  UNL     1       5.494  -1.304 -19.413  0.00  0.00    -0.082 Cl
ATOM     22  C11 UNL     1       2.970  -0.919 -18.592  0.00  0.00    +0.044 A 
ENDBRANCH   4  15
TORSDOF 2
ENDMDL
MODEL 4
REMARK VINA RESULT:    -4.912      0.840      8.350
REMARK INTER + INTRA:          -5.791
REMARK INTER:                  -5.495
REMARK INTRA:                  -0.296
REMARK UNBOUND:                -0.304
REMARK  Name = /home/vital/Documents/PhD_2021/Malaria_codes/data/pdb_ligands_mmv/ligand_367.pdb
REMARK  2 active torsions:
REMARK  status: ('A' for Active; 'I' for Inactive)
REMARK    1  A    between atoms: C4_5  and  N1_6
REMARK    2  A    between atoms: N2_9  and  C6_10
REMARK                            x       y       z     vdW  Elec       q    Type
REMARK                         _______ _______ _______ _____ _____    ______ ____
ROOT
ATOM      1  N1  UNL     1       1.041  -3.002 -19.433  0.00  0.00    -0.269 N 
ATOM      2  C5  UNL     1       0.453  -3.203 -20.675  0.00  0.00    +0.308 C 
ATOM      3  O1  UNL     1       0.718  -2.568 -21.685  0.00  0.00    -0.252 OA
ATOM      4  N2  UNL     1      -0.481  -4.228 -20.601  0.00  0.00    -0.269 N 
ATOM      5  H3  UNL     1       0.547  -3.395 -18.647  0.00  0.00    +0.156 HD
ATOM      6  H4  UNL     1      -0.411  -4.827 -19.791  0.00  0.00    +0.156 HD
ENDROOT
BRANCH   1  11
ATOM      7 CL1  UNL     1       5.328   0.831 -17.916  0.00  0.00    -0.082 Cl
ATOM      8  C1  UNL     1       4.136  -0.321 -18.398  0.00  0.00    +0.059 A 
ATOM      9  C2  UNL     1       2.825  -0.123 -17.960  0.00  0.00    +0.023 A 
ATOM     10  C3  UNL     1       1.821  -1.026 -18.319  0.00  0.00    +0.025 A 
ATOM     11  C4  UNL     1       2.110  -2.134 -19.125  0.00  0.00    +0.036 A 
ATOM     12  C12 UNL     1       3.426  -2.333 -19.553  0.00  0.00    +0.044 A 
ATOM     13  C13 UNL     1       4.437  -1.430 -19.195  0.00  0.00    +0.061 A 
ATOM     14 CL4  UNL     1       6.039  -1.746 -19.764  0.00  0.00    -0.082 Cl
ENDBRANCH   1  11
BRANCH   4  15
ATOM     15  C6  UNL     1      -1.363  -4.656 -21.617  0.00  0.00    +0.036 A 
ATOM     16  C7  UNL     1      -1.263  -5.887 -22.268  0.00  0.00    +0.025 A 
ATOM     17  C8  UNL     1      -2.171  -6.236 -23.275  0.00  0.00    +0.023 A 
ATOM     18  C9  UNL     1      -3.188  -5.355 -23.644  0.00  0.00    +0.059 A 
ATOM     19 CL2  UNL     1      -4.273  -5.849 -24.893  0.00  0.00    -0.082 Cl
ATOM     20  C10 UNL     1      -3.292  -4.118 -23.003  0.00  0.00    +0.061 A 
ATOM     21 CL3  UNL     1      -4.516  -2.966 -23.404  0.00  0.00    -0.082 Cl
ATOM     22  C11 UNL     1      -2.380  -3.772 -21.997  0.00  0.00    +0.044 A 
ENDBRANCH   4  15
TORSDOF 2
ENDMDL
MODEL 5
REMARK VINA RESULT:    -4.792     16.095     16.705
REMARK INTER + INTRA:          -5.657
REMARK INTER:                  -5.332
REMARK INTRA:                  -0.324
REMARK UNBOUND:                -0.304
REMARK  Name = /home/vital/Documents/PhD_2021/Malaria_codes/data/pdb_ligands_mmv/ligand_367.pdb
REMARK  2 active torsions:
REMARK  status: ('A' for Active; 'I' for Inactive)
REMARK    1  A    between atoms: C4_5  and  N1_6
REMARK    2  A    between atoms: N2_9  and  C6_10
REMARK                            x       y       z     vdW  Elec       q    Type
REMARK                         _______ _______ _______ _____ _____    ______ ____
ROOT
ATOM      1  N1  UNL     1       2.751   6.732 -34.192  0.00  0.00    -0.269 N 
ATOM      2  C5  UNL     1       3.010   5.368 -34.219  0.00  0.00    +0.308 C 
ATOM      3  O1  UNL     1       2.202   4.509 -34.543  0.00  0.00    -0.252 OA
ATOM      4  N2  UNL     1       4.318   5.122 -33.825  0.00  0.00    -0.269 N 
ATOM      5  H3  UNL     1       3.400   7.289 -33.658  0.00  0.00    +0.156 HD
ATOM      6  H4  UNL     1       4.938   5.919 -33.840  0.00  0.00    +0.156 HD
ENDROOT
BRANCH   1  11
ATOM      7 CL1  UNL     1      -2.007   9.580 -36.341  0.00  0.00    -0.082 Cl
ATOM      8  C1  UNL     1      -0.668   8.732 -35.656  0.00  0.00    +0.059 A 
ATOM      9  C2  UNL     1       0.547   8.772 -36.342  0.00  0.00    +0.023 A 
ATOM     10  C3  UNL     1       1.663   8.100 -35.833  0.00  0.00    +0.025 A 
ATOM     11  C4  UNL     1       1.581   7.388 -34.630  0.00  0.00    +0.036 A 
ATOM     12  C12 UNL     1       0.360   7.345 -33.952  0.00  0.00    +0.044 A 
ATOM     13  C13 UNL     1      -0.762   8.016 -34.459  0.00  0.00    +0.061 A 
ATOM     14 CL4  UNL     1      -2.237   7.913 -33.561  0.00  0.00    -0.082 Cl
ENDBRANCH   1  11
BRANCH   4  15
ATOM     15  C6  UNL     1       4.927   3.865 -33.617  0.00  0.00    +0.036 A 
ATOM     16  C7  UNL     1       5.852   3.293 -34.493  0.00  0.00    +0.025 A 
ATOM     17  C8  UNL     1       6.404   2.035 -34.222  0.00  0.00    +0.023 A 
ATOM     18  C9  UNL     1       6.034   1.334 -33.073  0.00  0.00    +0.059 A 
ATOM     19 CL2  UNL     1       6.754  -0.212 -32.802  0.00  0.00    -0.082 Cl
ATOM     20  C10 UNL     1       5.104   1.895 -32.196  0.00  0.00    +0.061 A 
ATOM     21 CL3  UNL     1       4.586   1.091 -30.756  0.00  0.00    -0.082 Cl
ATOM     22  C11 UNL     1       4.553   3.154 -32.470  0.00  0.00    +0.044 A 
ENDBRANCH   4  15
TORSDOF 2
ENDMDL
MODEL 6
REMARK VINA RESULT:    -4.617      1.772      8.230
REMARK INTER + INTRA:          -5.461
REMARK INTER:                  -5.097
REMARK INTRA:                  -0.364
REMARK UNBOUND:                -0.304
REMARK  Name = /home/vital/Documents/PhD_2021/Malaria_codes/data/pdb_ligands_mmv/ligand_367.pdb
REMARK  2 active torsions:
REMARK  status: ('A' for Active; 'I' for Inactive)
REMARK    1  A    between atoms: C4_5  and  N1_6
REMARK    2  A    between atoms: N2_9  and  C6_10
REMARK                            x       y       z     vdW  Elec       q    Type
REMARK                         _______ _______ _______ _____ _____    ______ ____
ROOT
ATOM      1  N1  UNL     1       1.030  -3.845 -20.276  0.00  0.00    -0.269 N 
ATOM      2  C5  UNL     1       0.373  -4.017 -21.488  0.00  0.00    +0.308 C 
ATOM      3  O1  UNL     1       0.859  -3.785 -22.585  0.00  0.00    -0.252 OA
ATOM      4  N2  UNL     1      -0.914  -4.489 -21.270  0.00  0.00    -0.269 N 
ATOM      5  H3  UNL     1       0.438  -3.812 -19.459  0.00  0.00    +0.156 HD
ATOM      6  H4  UNL     1      -1.091  -4.877 -20.356  0.00  0.00    +0.156 HD
ENDROOT
BRANCH   1  11
ATOM      7 CL1  UNL     1       6.820  -2.688 -19.572  0.00  0.00    -0.082 Cl
ATOM      8  C1  UNL     1       5.124  -2.951 -19.755  0.00  0.00    +0.059 A 
ATOM      9  C2  UNL     1       4.700  -4.227 -20.127  0.00  0.00    +0.023 A 
ATOM     10  C3  UNL     1       3.338  -4.495 -20.291  0.00  0.00    +0.025 A 
ATOM     11  C4  UNL     1       2.382  -3.494 -20.079  0.00  0.00    +0.036 A 
ATOM     12  C12 UNL     1       2.812  -2.215 -19.716  0.00  0.00    +0.044 A 
ATOM     13  C13 UNL     1       4.178  -1.941 -19.551  0.00  0.00    +0.061 A 
ATOM     14 CL4  UNL     1       4.629  -0.334 -19.102  0.00  0.00    -0.082 Cl
ENDBRANCH   1  11
BRANCH   4  15
ATOM     15  C6  UNL     1      -1.928  -4.684 -22.234  0.00  0.00    +0.036 A 
ATOM     16  C7  UNL     1      -2.140  -5.887 -22.909  0.00  0.00    +0.025 A 
ATOM     17  C8  UNL     1      -3.160  -5.999 -23.862  0.00  0.00    +0.023 A 
ATOM     18  C9  UNL     1      -3.978  -4.906 -24.152  0.00  0.00    +0.059 A 
ATOM     19 CL2  UNL     1      -5.216  -5.114 -25.337  0.00  0.00    -0.082 Cl
ATOM     20  C10 UNL     1      -3.768  -3.696 -23.487  0.00  0.00    +0.061 A 
ATOM     21 CL3  UNL     1      -4.729  -2.292 -23.792  0.00  0.00    -0.082 Cl
ATOM     22  C11 UNL     1      -2.745  -3.587 -22.535  0.00  0.00    +0.044 A 
ENDBRANCH   4  15
TORSDOF 2
ENDMDL
MODEL 7
REMARK VINA RESULT:    -4.478      6.546      9.175
REMARK INTER + INTRA:          -5.306
REMARK INTER:                  -4.971
REMARK INTRA:                  -0.335
REMARK UNBOUND:                -0.304
REMARK  Name = /home/vital/Documents/PhD_2021/Malaria_codes/data/pdb_ligands_mmv/ligand_367.pdb
REMARK  2 active torsions:
REMARK  status: ('A' for Active; 'I' for Inactive)
REMARK    1  A    between atoms: C4_5  and  N1_6
REMARK    2  A    between atoms: N2_9  and  C6_10
REMARK                            x       y       z     vdW  Elec       q    Type
REMARK                         _______ _______ _______ _____ _____    ______ ____
ROOT
ATOM      1  N1  UNL     1      -7.507  -0.054 -23.892  0.00  0.00    -0.269 N 
ATOM      2  C5  UNL     1      -6.191  -0.393 -23.606  0.00  0.00    +0.308 C 
ATOM      3  O1  UNL     1      -5.209   0.195 -24.035  0.00  0.00    -0.252 OA
ATOM      4  N2  UNL     1      -6.155  -1.495 -22.763  0.00  0.00    -0.269 N 
ATOM      5  H3  UNL     1      -8.194  -0.768 -23.702  0.00  0.00    +0.156 HD
ATOM      6  H4  UNL     1      -7.018  -1.712 -22.287  0.00  0.00    +0.156 HD
ENDROOT
BRANCH   1  11
ATOM      7 CL1  UNL     1      -9.537   4.455 -27.196  0.00  0.00    -0.082 Cl
ATOM      8  C1  UNL     1      -8.930   3.197 -26.181  0.00  0.00    +0.059 A 
ATOM      9  C2  UNL     1      -8.934   1.896 -26.686  0.00  0.00    +0.023 A 
ATOM     10  C3  UNL     1      -8.456   0.839 -25.906  0.00  0.00    +0.025 A 
ATOM     11  C4  UNL     1      -7.962   1.069 -24.615  0.00  0.00    +0.036 A 
ATOM     12  C12 UNL     1      -7.969   2.373 -24.112  0.00  0.00    +0.044 A 
ATOM     13  C13 UNL     1      -8.449   3.436 -24.890  0.00  0.00    +0.061 A 
ATOM     14 CL4  UNL     1      -8.425   5.019 -24.195  0.00  0.00    -0.082 Cl
ENDBRANCH   1  11
BRANCH   4  15
ATOM     15  C6  UNL     1      -5.013  -2.207 -22.335  0.00  0.00    +0.036 A 
ATOM     16  C7  UNL     1      -4.485  -2.130 -21.044  0.00  0.00    +0.025 A 
ATOM     17  C8  UNL     1      -3.341  -2.859 -20.698  0.00  0.00    +0.023 A 
ATOM     18  C9  UNL     1      -2.709  -3.671 -21.641  0.00  0.00    +0.059 A 
ATOM     19 CL2  UNL     1      -1.303  -4.542 -21.147  0.00  0.00    -0.082 Cl
ATOM     20  C10 UNL     1      -3.225  -3.748 -22.936  0.00  0.00    +0.061 A 
ATOM     21 CL3  UNL     1      -2.501  -4.724 -24.166  0.00  0.00    -0.082 Cl
ATOM     22  C11 UNL     1      -4.370  -3.017 -23.280  0.00  0.00    +0.044 A 
ENDBRANCH   4  15
TORSDOF 2
ENDMDL
MODEL 8
REMARK VINA RESULT:    -4.478      1.830      2.343
REMARK INTER + INTRA:          -5.305
REMARK INTER:                  -4.936
REMARK INTRA:                  -0.369
REMARK UNBOUND:                -0.304
REMARK  Name = /home/vital/Documents/PhD_2021/Malaria_codes/data/pdb_ligands_mmv/ligand_367.pdb
REMARK  2 active torsions:
REMARK  status: ('A' for Active; 'I' for Inactive)
REMARK    1  A    between atoms: C4_5  and  N1_6
REMARK    2  A    between atoms: N2_9  and  C6_10
REMARK                            x       y       z     vdW  Elec       q    Type
REMARK                         _______ _______ _______ _____ _____    ______ ____
ROOT
ATOM      1  N1  UNL     1      -0.914  -4.369 -21.350  0.00  0.00    -0.269 N 
ATOM      2  C5  UNL     1       0.410  -4.028 -21.591  0.00  0.00    +0.308 C 
ATOM      3  O1  UNL     1       0.909  -3.901 -22.700  0.00  0.00    -0.252 OA
ATOM      4  N2  UNL     1       1.085  -3.854 -20.390  0.00  0.00    -0.269 N 
ATOM      5  H3  UNL     1      -1.118  -4.700 -20.419  0.00  0.00    +0.156 HD
ATOM      6  H4  UNL     1       0.504  -3.734 -19.574  0.00  0.00    +0.156 HD
ENDROOT
BRANCH   1  11
ATOM      7 CL1  UNL     1      -5.184  -5.339 -25.374  0.00  0.00    -0.082 Cl
ATOM      8  C1  UNL     1      -3.968  -4.983 -24.201  0.00  0.00    +0.059 A 
ATOM      9  C2  UNL     1      -3.095  -6.010 -23.839  0.00  0.00    +0.023 A 
ATOM     10  C3  UNL     1      -2.092  -5.777 -22.892  0.00  0.00    +0.025 A 
ATOM     11  C4  UNL     1      -1.945  -4.516 -22.302  0.00  0.00    +0.036 A 
ATOM     12  C12 UNL     1      -2.828  -3.494 -22.662  0.00  0.00    +0.044 A 
ATOM     13  C13 UNL     1      -3.836  -3.723 -23.610  0.00  0.00    +0.061 A 
ATOM     14 CL4  UNL     1      -4.888  -2.408 -24.001  0.00  0.00    -0.082 Cl
ENDBRANCH   1  11
BRANCH   4  15
ATOM     15  C6  UNL     1       2.465  -3.614 -20.212  0.00  0.00    +0.036 A 
ATOM     16  C7  UNL     1       3.441  -4.611 -20.258  0.00  0.00    +0.025 A 
ATOM     17  C8  UNL     1       4.791  -4.295 -20.059  0.00  0.00    +0.023 A 
ATOM     18  C9  UNL     1       5.179  -2.978 -19.808  0.00  0.00    +0.059 A 
ATOM     19 CL2  UNL     1       6.859  -2.660 -19.572  0.00  0.00    -0.082 Cl
ATOM     20  C10 UNL     1       4.208  -1.976 -19.752  0.00  0.00    +0.061 A 
ATOM     21 CL3  UNL     1       4.601  -0.322 -19.439  0.00  0.00    -0.082 Cl
ATOM     22  C11 UNL     1       2.858  -2.295 -19.950  0.00  0.00    +0.044 A 
ENDBRANCH   4  15
TORSDOF 2
ENDMDL
MODEL 9
REMARK VINA RESULT:    -4.458      6.488      9.976
REMARK INTER + INTRA:          -5.283
REMARK INTER:                  -4.976
REMARK INTRA:                  -0.308
REMARK UNBOUND:                -0.304
REMARK  Name = /home/vital/Documents/PhD_2021/Malaria_codes/data/pdb_ligands_mmv/ligand_367.pdb
REMARK  2 active torsions:
REMARK  status: ('A' for Active; 'I' for Inactive)
REMARK    1  A    between atoms: C4_5  and  N1_6
REMARK    2  A    between atoms: N2_9  and  C6_10
REMARK                            x       y       z     vdW  Elec       q    Type
REMARK                         _______ _______ _______ _____ _____    ______ ____
ROOT
ATOM      1  N1  UNL     1      -6.028  -1.485 -22.756  0.00  0.00    -0.269 N 
ATOM      2  C5  UNL     1      -6.150  -0.533 -23.760  0.00  0.00    +0.308 C 
ATOM      3  O1  UNL     1      -5.237  -0.157 -24.482  0.00  0.00    -0.252 OA
ATOM      4  N2  UNL     1      -7.458  -0.071 -23.823  0.00  0.00    -0.269 N 
ATOM      5  H3  UNL     1      -6.771  -1.500 -22.075  0.00  0.00    +0.156 HD
ATOM      6  H4  UNL     1      -8.148  -0.643 -23.359  0.00  0.00    +0.156 HD
ENDROOT
BRANCH   1  11
ATOM      7 CL1  UNL     1      -1.275  -4.677 -21.148  0.00  0.00    -0.082 Cl
ATOM      8  C1  UNL     1      -2.649  -3.781 -21.686  0.00  0.00    +0.059 A 
ATOM      9  C2  UNL     1      -3.254  -2.912 -20.777  0.00  0.00    +0.023 A 
ATOM     10  C3  UNL     1      -4.372  -2.164 -21.159  0.00  0.00    +0.025 A 
ATOM     11  C4  UNL     1      -4.893  -2.268 -22.455  0.00  0.00    +0.036 A 
ATOM     12  C12 UNL     1      -4.288  -3.146 -23.358  0.00  0.00    +0.044 A 
ATOM     13  C13 UNL     1      -3.168  -3.900 -22.979  0.00  0.00    +0.061 A 
ATOM     14 CL4  UNL     1      -2.477  -4.965 -24.153  0.00  0.00    -0.082 Cl
ENDBRANCH   1  11
BRANCH   4  15
ATOM     15  C6  UNL     1      -7.958   0.973 -24.632  0.00  0.00    +0.036 A 
ATOM     16  C7  UNL     1      -8.439   0.791 -25.930  0.00  0.00    +0.025 A 
ATOM     17  C8  UNL     1      -8.909   1.880 -26.674  0.00  0.00    +0.023 A 
ATOM     18  C9  UNL     1      -8.898   3.164 -26.129  0.00  0.00    +0.059 A 
ATOM     19 CL2  UNL     1      -9.492   4.461 -27.102  0.00  0.00    -0.082 Cl
ATOM     20  C10 UNL     1      -8.411   3.357 -24.835  0.00  0.00    +0.061 A 
ATOM     21 CL3  UNL     1      -8.356   4.915 -24.087  0.00  0.00    -0.082 Cl
ATOM     22  C11 UNL     1      -7.941   2.265 -24.092  0.00  0.00    +0.044 A 
ENDBRANCH   4  15
TORSDOF 2
ENDMDL
