MODEL 1
REMARK VINA RESULT:    -5.744      0.000      0.000
REMARK INTER + INTRA:          -8.287
REMARK INTER:                  -7.591
REMARK INTRA:                  -0.696
REMARK UNBOUND:                -0.696
REMARK  Name = /home/vital/Documents/PhD_2021/Malaria_codes/data/pdb_ligands_mmv/ligand_167.pdb
REMARK  6 active torsions:
REMARK  status: ('A' for Active; 'I' for Inactive)
REMARK    1  A    between atoms: O1_1  and  C1_2
REMARK    2  A    between atoms: C6_7  and  C7_8
REMARK    3  A    between atoms: C7_8  and  N1_9
REMARK    4  A    between atoms: N2_12  and  C12_15
REMARK    5  A    between atoms: C12_15  and  C13_16
REMARK    6  A    between atoms: C12_15  and  C19_22
REMARK                            x       y       z     vdW  Elec       q    Type
REMARK                         _______ _______ _______ _____ _____    ______ ____
ROOT
ATOM      1  N1  UNL     1       4.635  -3.939 -27.978  0.00  0.00    -0.296 NA
ATOM      2  C8  UNL     1       4.639  -5.118 -27.091  0.00  0.00    +0.100 C 
ATOM      3  C9  UNL     1       3.866  -4.926 -25.766  0.00  0.00    +0.100 C 
ATOM      4  N2  UNL     1       4.319  -3.784 -24.934  0.00  0.00    -0.289 NA
ATOM      5  C10 UNL     1       4.998  -2.772 -25.785  0.00  0.00    +0.100 C 
ATOM      6  C11 UNL     1       4.411  -2.696 -27.210  0.00  0.00    +0.100 C 
ENDROOT
BRANCH   1   7
ATOM      7  C7  UNL     1       3.676  -4.087 -29.083  0.00  0.00    +0.123 C 
BRANCH   7  13
ATOM      8  C1  UNL     1       5.673  -3.900 -30.695  0.00  0.00    +0.121 A 
ATOM      9  C2  UNL     1       6.204  -4.000 -31.982  0.00  0.00    +0.046 A 
ATOM     10  C3  UNL     1       5.415  -4.462 -33.032  0.00  0.00    +0.004 A 
ATOM     11  C4  UNL     1       4.091  -4.822 -32.796  0.00  0.00    +0.001 A 
ATOM     12  C5  UNL     1       3.558  -4.707 -31.511  0.00  0.00    +0.008 A 
ATOM     13  C6  UNL     1       4.337  -4.234 -30.437  0.00  0.00    +0.008 A 
BRANCH   8  14
ATOM     14  O1  UNL     1       6.539  -3.461 -29.734  0.00  0.00    -0.506 OA
ATOM     15  H1  UNL     1       6.045  -3.273 -28.922  0.00  0.00    +0.292 HD
ENDBRANCH   8  14
ENDBRANCH   7  13
ENDBRANCH   1   7
BRANCH   4  16
ATOM     16  C12 UNL     1       5.193  -4.215 -23.801  0.00  0.00    +0.117 C 
BRANCH  16  17
ATOM     17  C13 UNL     1       4.497  -4.151 -22.432  0.00  0.00    -0.026 A 
ATOM     18  C14 UNL     1       3.267  -3.481 -22.307  0.00  0.00    +0.005 A 
ATOM     19  C15 UNL     1       2.608  -3.423 -21.078  0.00  0.00    +0.000 A 
ATOM     20  C16 UNL     1       3.164  -4.037 -19.958  0.00  0.00    +0.000 A 
ATOM     21  C17 UNL     1       4.377  -4.712 -20.066  0.00  0.00    +0.000 A 
ATOM     22  C18 UNL     1       5.038  -4.772 -21.294  0.00  0.00    +0.005 A 
ENDBRANCH  16  17
BRANCH  16  23
ATOM     23  C19 UNL     1       6.523  -3.452 -23.731  0.00  0.00    -0.026 A 
ATOM     24  C20 UNL     1       7.660  -3.887 -24.433  0.00  0.00    +0.005 A 
ATOM     25  C21 UNL     1       8.858  -3.174 -24.364  0.00  0.00    +0.000 A 
ATOM     26  C22 UNL     1       8.936  -2.014 -23.596  0.00  0.00    +0.000 A 
ATOM     27  C23 UNL     1       7.818  -1.565 -22.898  0.00  0.00    +0.000 A 
ATOM     28  C24 UNL     1       6.619  -2.277 -22.965  0.00  0.00    +0.005 A 
ENDBRANCH  16  23
ENDBRANCH   4  16
TORSDOF 6
ENDMDL
MODEL 2
REMARK VINA RESULT:    -5.564     11.129     13.381
REMARK INTER + INTRA:          -8.049
REMARK INTER:                  -7.299
REMARK INTRA:                  -0.750
REMARK UNBOUND:                -0.696
REMARK  Name = /home/vital/Documents/PhD_2021/Malaria_codes/data/pdb_ligands_mmv/ligand_167.pdb
REMARK  6 active torsions:
REMARK  status: ('A' for Active; 'I' for Inactive)
REMARK    1  A    between atoms: O1_1  and  C1_2
REMARK    2  A    between atoms: C6_7  and  C7_8
REMARK    3  A    between atoms: C7_8  and  N1_9
REMARK    4  A    between atoms: N2_12  and  C12_15
REMARK    5  A    between atoms: C12_15  and  C13_16
REMARK    6  A    between atoms: C12_15  and  C19_22
REMARK                            x       y       z     vdW  Elec       q    Type
REMARK                         _______ _______ _______ _____ _____    ______ ____
ROOT
ATOM      1  N1  UNL     1      -0.777   3.006 -19.364  0.00  0.00    -0.296 NA
ATOM      2  C8  UNL     1      -1.460   4.166 -18.762  0.00  0.00    +0.100 C 
ATOM      3  C9  UNL     1      -0.920   5.539 -19.223  0.00  0.00    +0.100 C 
ATOM      4  N2  UNL     1       0.531   5.752 -18.997  0.00  0.00    -0.289 NA
ATOM      5  C10 UNL     1       1.230   4.444 -18.910  0.00  0.00    +0.100 C 
ATOM      6  C11 UNL     1       0.588   3.361 -19.803  0.00  0.00    +0.100 C 
ENDROOT
BRANCH   1   7
ATOM      7  C7  UNL     1      -1.569   2.406 -20.447  0.00  0.00    +0.123 C 
BRANCH   7  13
ATOM      8  C1  UNL     1      -1.706   0.111 -19.291  0.00  0.00    +0.121 A 
ATOM      9  C2  UNL     1      -2.413  -1.056 -18.995  0.00  0.00    +0.046 A 
ATOM     10  C3  UNL     1      -3.733  -1.202 -19.416  0.00  0.00    +0.004 A 
ATOM     11  C4  UNL     1      -4.346  -0.182 -20.137  0.00  0.00    +0.001 A 
ATOM     12  C5  UNL     1      -3.632   0.978 -20.444  0.00  0.00    +0.008 A 
ATOM     13  C6  UNL     1      -2.295   1.143 -20.034  0.00  0.00    +0.008 A 
BRANCH   8  14
ATOM     14  O1  UNL     1      -0.430   0.164 -18.808  0.00  0.00    -0.506 OA
ATOM     15  H1  UNL     1      -0.283   1.025 -18.390  0.00  0.00    +0.292 HD
ENDBRANCH   8  14
ENDBRANCH   7  13
ENDBRANCH   1   7
BRANCH   4  16
ATOM     16  C12 UNL     1       0.803   6.592 -17.791  0.00  0.00    +0.117 C 
BRANCH  16  17
ATOM     17  C13 UNL     1       1.754   7.768 -18.065  0.00  0.00    -0.026 A 
ATOM     18  C14 UNL     1       2.210   8.004 -19.374  0.00  0.00    +0.005 A 
ATOM     19  C15 UNL     1       3.061   9.075 -19.652  0.00  0.00    +0.000 A 
ATOM     20  C16 UNL     1       3.463   9.930 -18.628  0.00  0.00    +0.000 A 
ATOM     21  C17 UNL     1       3.014   9.717 -17.327  0.00  0.00    +0.000 A 
ATOM     22  C18 UNL     1       2.163   8.646 -17.048  0.00  0.00    +0.005 A 
ENDBRANCH  16  17
BRANCH  16  23
ATOM     23  C19 UNL     1       1.322   5.789 -16.591  0.00  0.00    -0.026 A 
ATOM     24  C20 UNL     1       2.679   5.443 -16.467  0.00  0.00    +0.005 A 
ATOM     25  C21 UNL     1       3.134   4.720 -15.362  0.00  0.00    +0.000 A 
ATOM     26  C22 UNL     1       2.240   4.336 -14.364  0.00  0.00    +0.000 A 
ATOM     27  C23 UNL     1       0.893   4.674 -14.468  0.00  0.00    +0.000 A 
ATOM     28  C24 UNL     1       0.436   5.397 -15.573  0.00  0.00    +0.005 A 
ENDBRANCH  16  23
ENDBRANCH   4  16
TORSDOF 6
ENDMDL
MODEL 3
REMARK VINA RESULT:    -5.240      8.969     12.588
REMARK INTER + INTRA:          -7.621
REMARK INTER:                  -6.547
REMARK INTRA:                  -1.074
REMARK UNBOUND:                -0.696
REMARK  Name = /home/vital/Documents/PhD_2021/Malaria_codes/data/pdb_ligands_mmv/ligand_167.pdb
REMARK  6 active torsions:
REMARK  status: ('A' for Active; 'I' for Inactive)
REMARK    1  A    between atoms: O1_1  and  C1_2
REMARK    2  A    between atoms: C6_7  and  C7_8
REMARK    3  A    between atoms: C7_8  and  N1_9
REMARK    4  A    between atoms: N2_12  and  C12_15
REMARK    5  A    between atoms: C12_15  and  C13_16
REMARK    6  A    between atoms: C12_15  and  C19_22
REMARK                            x       y       z     vdW  Elec       q    Type
REMARK                         _______ _______ _______ _____ _____    ______ ____
ROOT
ATOM      1  N1  UNL     1       3.456   1.580 -18.306  0.00  0.00    -0.296 NA
ATOM      2  C8  UNL     1       3.831   2.898 -18.850  0.00  0.00    +0.100 C 
ATOM      3  C9  UNL     1       3.430   4.097 -17.962  0.00  0.00    +0.100 C 
ATOM      4  N2  UNL     1       1.985   4.182 -17.636  0.00  0.00    -0.289 NA
ATOM      5  C10 UNL     1       1.357   2.840 -17.749  0.00  0.00    +0.100 C 
ATOM      6  C11 UNL     1       2.320   1.695 -17.368  0.00  0.00    +0.100 C 
ENDROOT
BRANCH   1   7
ATOM      7  C7  UNL     1       4.605   0.890 -17.701  0.00  0.00    +0.123 C 
BRANCH   7  13
ATOM      8  C1  UNL     1       4.300  -1.182 -19.197  0.00  0.00    +0.121 A 
ATOM      9  C2  UNL     1       4.843  -2.257 -19.902  0.00  0.00    +0.046 A 
ATOM     10  C3  UNL     1       6.225  -2.417 -19.983  0.00  0.00    +0.004 A 
ATOM     11  C4  UNL     1       7.064  -1.501 -19.356  0.00  0.00    +0.001 A 
ATOM     12  C5  UNL     1       6.518  -0.435 -18.639  0.00  0.00    +0.008 A 
ATOM     13  C6  UNL     1       5.125  -0.261 -18.538  0.00  0.00    +0.008 A 
BRANCH   8  14
ATOM     14  O1  UNL     1       2.937  -1.104 -19.203  0.00  0.00    -0.506 OA
ATOM     15  H1  UNL     1       2.670  -0.181 -19.078  0.00  0.00    +0.292 HD
ENDBRANCH   8  14
ENDBRANCH   7  13
ENDBRANCH   1   7
BRANCH   4  16
ATOM     16  C12 UNL     1       1.268   5.187 -18.479  0.00  0.00    +0.117 C 
BRANCH  16  17
ATOM     17  C13 UNL     1       1.800   6.620 -18.310  0.00  0.00    -0.026 A 
ATOM     18  C14 UNL     1       2.220   7.343 -19.440  0.00  0.00    +0.005 A 
ATOM     19  C15 UNL     1       2.691   8.651 -19.315  0.00  0.00    +0.000 A 
ATOM     20  C16 UNL     1       2.745   9.257 -18.062  0.00  0.00    +0.000 A 
ATOM     21  C17 UNL     1       2.325   8.558 -16.933  0.00  0.00    +0.000 A 
ATOM     22  C18 UNL     1       1.852   7.250 -17.056  0.00  0.00    +0.005 A 
ENDBRANCH  16  17
BRANCH  16  23
ATOM     23  C19 UNL     1      -0.253   5.183 -18.275  0.00  0.00    -0.026 A 
ATOM     24  C20 UNL     1      -0.824   5.240 -16.992  0.00  0.00    +0.005 A 
ATOM     25  C21 UNL     1      -2.211   5.245 -16.827  0.00  0.00    +0.000 A 
ATOM     26  C22 UNL     1      -3.046   5.198 -17.942  0.00  0.00    +0.000 A 
ATOM     27  C23 UNL     1      -2.497   5.146 -19.221  0.00  0.00    +0.000 A 
ATOM     28  C24 UNL     1      -1.110   5.140 -19.387  0.00  0.00    +0.005 A 
ENDBRANCH  16  23
ENDBRANCH   4  16
TORSDOF 6
ENDMDL
MODEL 4
REMARK VINA RESULT:    -5.210      8.359     12.030
REMARK INTER + INTRA:          -7.581
REMARK INTER:                  -6.610
REMARK INTRA:                  -0.971
REMARK UNBOUND:                -0.696
REMARK  Name = /home/vital/Documents/PhD_2021/Malaria_codes/data/pdb_ligands_mmv/ligand_167.pdb
REMARK  6 active torsions:
REMARK  status: ('A' for Active; 'I' for Inactive)
REMARK    1  A    between atoms: O1_1  and  C1_2
REMARK    2  A    between atoms: C6_7  and  C7_8
REMARK    3  A    between atoms: C7_8  and  N1_9
REMARK    4  A    between atoms: N2_12  and  C12_15
REMARK    5  A    between atoms: C12_15  and  C13_16
REMARK    6  A    between atoms: C12_15  and  C19_22
REMARK                            x       y       z     vdW  Elec       q    Type
REMARK                         _______ _______ _______ _____ _____    ______ ____
ROOT
ATOM      1  N1  UNL     1       2.723   0.795 -18.861  0.00  0.00    -0.296 NA
ATOM      2  C8  UNL     1       2.976   1.852 -19.856  0.00  0.00    +0.100 C 
ATOM      3  C9  UNL     1       3.069   3.278 -19.268  0.00  0.00    +0.100 C 
ATOM      4  N2  UNL     1       1.883   3.718 -18.493  0.00  0.00    -0.289 NA
ATOM      5  C10 UNL     1       1.139   2.535 -17.987  0.00  0.00    +0.100 C 
ATOM      6  C11 UNL     1       2.062   1.343 -17.658  0.00  0.00    +0.100 C 
ENDROOT
BRANCH   1   7
ATOM      7  C7  UNL     1       3.947   0.050 -18.529  0.00  0.00    +0.123 C 
BRANCH   7  13
ATOM      8  C1  UNL     1       2.880  -2.225 -19.082  0.00  0.00    +0.121 A 
ATOM      9  C2  UNL     1       2.990  -3.527 -19.574  0.00  0.00    +0.046 A 
ATOM     10  C3  UNL     1       4.191  -3.970 -20.121  0.00  0.00    +0.004 A 
ATOM     11  C4  UNL     1       5.286  -3.112 -20.175  0.00  0.00    +0.001 A 
ATOM     12  C5  UNL     1       5.178  -1.815 -19.669  0.00  0.00    +0.008 A 
ATOM     13  C6  UNL     1       3.975  -1.350 -19.104  0.00  0.00    +0.008 A 
BRANCH   8  14
ATOM     14  O1  UNL     1       1.652  -1.884 -18.592  0.00  0.00    -0.506 OA
ATOM     15  H1  UNL     1       1.765  -1.288 -17.835  0.00  0.00    +0.292 HD
ENDBRANCH   8  14
ENDBRANCH   7  13
ENDBRANCH   1   7
BRANCH   4  16
ATOM     16  C12 UNL     1       0.990   4.622 -19.280  0.00  0.00    +0.117 C 
BRANCH  16  17
ATOM     17  C13 UNL     1       1.617   5.994 -19.577  0.00  0.00    -0.026 A 
ATOM     18  C14 UNL     1       1.704   6.446 -20.905  0.00  0.00    +0.005 A 
ATOM     19  C15 UNL     1       2.254   7.696 -21.199  0.00  0.00    +0.000 A 
ATOM     20  C16 UNL     1       2.717   8.514 -20.171  0.00  0.00    +0.000 A 
ATOM     21  C17 UNL     1       2.630   8.085 -18.848  0.00  0.00    +0.000 A 
ATOM     22  C18 UNL     1       2.080   6.837 -18.553  0.00  0.00    +0.005 A 
ENDBRANCH  16  17
BRANCH  16  23
ATOM     23  C19 UNL     1      -0.392   4.822 -18.644  0.00  0.00    -0.026 A 
ATOM     24  C20 UNL     1      -0.539   5.120 -17.279  0.00  0.00    +0.005 A 
ATOM     25  C21 UNL     1      -1.805   5.308 -16.721  0.00  0.00    +0.000 A 
ATOM     26  C22 UNL     1      -2.942   5.204 -17.520  0.00  0.00    +0.000 A 
ATOM     27  C23 UNL     1      -2.815   4.913 -18.876  0.00  0.00    +0.000 A 
ATOM     28  C24 UNL     1      -1.549   4.724 -19.436  0.00  0.00    +0.005 A 
ENDBRANCH  16  23
ENDBRANCH   4  16
TORSDOF 6
ENDMDL
MODEL 5
REMARK VINA RESULT:    -5.168      8.416     12.242
REMARK INTER + INTRA:          -7.526
REMARK INTER:                  -6.622
REMARK INTRA:                  -0.903
REMARK UNBOUND:                -0.696
REMARK  Name = /home/vital/Documents/PhD_2021/Malaria_codes/data/pdb_ligands_mmv/ligand_167.pdb
REMARK  6 active torsions:
REMARK  status: ('A' for Active; 'I' for Inactive)
REMARK    1  A    between atoms: O1_1  and  C1_2
REMARK    2  A    between atoms: C6_7  and  C7_8
REMARK    3  A    between atoms: C7_8  and  N1_9
REMARK    4  A    between atoms: N2_12  and  C12_15
REMARK    5  A    between atoms: C12_15  and  C13_16
REMARK    6  A    between atoms: C12_15  and  C19_22
REMARK                            x       y       z     vdW  Elec       q    Type
REMARK                         _______ _______ _______ _____ _____    ______ ____
ROOT
ATOM      1  N1  UNL     1       0.573   4.701 -19.230  0.00  0.00    -0.296 NA
ATOM      2  C8  UNL     1      -0.644   4.087 -19.794  0.00  0.00    +0.100 C 
ATOM      3  C9  UNL     1      -1.132   2.825 -19.048  0.00  0.00    +0.100 C 
ATOM      4  N2  UNL     1      -0.133   1.733 -18.940  0.00  0.00    -0.289 NA
ATOM      5  C10 UNL     1       1.241   2.287 -19.059  0.00  0.00    +0.100 C 
ATOM      6  C11 UNL     1       1.367   3.709 -18.474  0.00  0.00    +0.100 C 
ENDROOT
BRANCH   1   7
ATOM      7  C7  UNL     1       0.264   5.891 -18.425  0.00  0.00    +0.123 C 
BRANCH   7  13
ATOM      8  C1  UNL     1       1.738   7.390 -19.909  0.00  0.00    +0.121 A 
ATOM      9  C2  UNL     1       2.670   8.420 -20.042  0.00  0.00    +0.046 A 
ATOM     10  C3  UNL     1       3.088   9.137 -18.924  0.00  0.00    +0.004 A 
ATOM     11  C4  UNL     1       2.576   8.822 -17.669  0.00  0.00    +0.001 A 
ATOM     12  C5  UNL     1       1.655   7.781 -17.536  0.00  0.00    +0.008 A 
ATOM     13  C6  UNL     1       1.225   7.039 -18.653  0.00  0.00    +0.008 A 
BRANCH   8  14
ATOM     14  O1  UNL     1       1.377   6.770 -21.071  0.00  0.00    -0.506 OA
ATOM     15  H1  UNL     1       2.136   6.278 -21.419  0.00  0.00    +0.292 HD
ENDBRANCH   8  14
ENDBRANCH   7  13
ENDBRANCH   1   7
BRANCH   4  16
ATOM     16  C12 UNL     1      -0.367   0.645 -19.937  0.00  0.00    +0.117 C 
BRANCH  16  17
ATOM     17  C13 UNL     1      -1.829   0.174 -19.998  0.00  0.00    -0.026 A 
ATOM     18  C14 UNL     1      -2.677   0.668 -21.004  0.00  0.00    +0.005 A 
ATOM     19  C15 UNL     1      -4.004   0.243 -21.091  0.00  0.00    +0.000 A 
ATOM     20  C16 UNL     1      -4.501  -0.685 -20.178  0.00  0.00    +0.000 A 
ATOM     21  C17 UNL     1      -3.672  -1.192 -19.181  0.00  0.00    +0.000 A 
ATOM     22  C18 UNL     1      -2.344  -0.769 -19.093  0.00  0.00    +0.005 A 
ENDBRANCH  16  17
BRANCH  16  23
ATOM     23  C19 UNL     1       0.550  -0.570 -19.742  0.00  0.00    -0.026 A 
ATOM     24  C20 UNL     1       1.010  -0.950 -18.470  0.00  0.00    +0.005 A 
ATOM     25  C21 UNL     1       1.836  -2.065 -18.312  0.00  0.00    +0.000 A 
ATOM     26  C22 UNL     1       2.211  -2.817 -19.423  0.00  0.00    +0.000 A 
ATOM     27  C23 UNL     1       1.761  -2.458 -20.691  0.00  0.00    +0.000 A 
ATOM     28  C24 UNL     1       0.935  -1.343 -20.851  0.00  0.00    +0.005 A 
ENDBRANCH  16  23
ENDBRANCH   4  16
TORSDOF 6
ENDMDL
MODEL 6
REMARK VINA RESULT:    -5.159      6.373     10.809
REMARK INTER + INTRA:          -7.514
REMARK INTER:                  -6.603
REMARK INTRA:                  -0.911
REMARK UNBOUND:                -0.696
REMARK  Name = /home/vital/Documents/PhD_2021/Malaria_codes/data/pdb_ligands_mmv/ligand_167.pdb
REMARK  6 active torsions:
REMARK  status: ('A' for Active; 'I' for Inactive)
REMARK    1  A    between atoms: O1_1  and  C1_2
REMARK    2  A    between atoms: C6_7  and  C7_8
REMARK    3  A    between atoms: C7_8  and  N1_9
REMARK    4  A    between atoms: N2_12  and  C12_15
REMARK    5  A    between atoms: C12_15  and  C13_16
REMARK    6  A    between atoms: C12_15  and  C19_22
REMARK                            x       y       z     vdW  Elec       q    Type
REMARK                         _______ _______ _______ _____ _____    ______ ____
ROOT
ATOM      1  N1  UNL     1      -0.595   1.153 -20.298  0.00  0.00    -0.296 NA
ATOM      2  C8  UNL     1       0.450   0.339 -19.650  0.00  0.00    +0.100 C 
ATOM      3  C9  UNL     1       1.357  -0.438 -20.629  0.00  0.00    +0.100 C 
ATOM      4  N2  UNL     1       0.645  -1.349 -21.559  0.00  0.00    -0.289 NA
ATOM      5  C10 UNL     1      -0.763  -0.903 -21.729  0.00  0.00    +0.100 C 
ATOM      6  C11 UNL     1      -0.921   0.629 -21.641  0.00  0.00    +0.100 C 
ENDROOT
BRANCH   1   7
ATOM      7  C7  UNL     1      -0.238   2.579 -20.331  0.00  0.00    +0.123 C 
BRANCH   7  13
ATOM      8  C1  UNL     1      -2.491   3.522 -19.523  0.00  0.00    +0.121 A 
ATOM      9  C2  UNL     1      -3.219   4.380 -18.696  0.00  0.00    +0.046 A 
ATOM     10  C3  UNL     1      -2.566   5.149 -17.735  0.00  0.00    +0.004 A 
ATOM     11  C4  UNL     1      -1.183   5.063 -17.604  0.00  0.00    +0.001 A 
ATOM     12  C5  UNL     1      -0.456   4.215 -18.442  0.00  0.00    +0.008 A 
ATOM     13  C6  UNL     1      -1.096   3.436 -19.425  0.00  0.00    +0.008 A 
BRANCH   8  14
ATOM     14  O1  UNL     1      -3.231   2.795 -20.411  0.00  0.00    -0.506 OA
ATOM     15  H1  UNL     1      -3.325   3.297 -21.234  0.00  0.00    +0.292 HD
ENDBRANCH   8  14
ENDBRANCH   7  13
ENDBRANCH   1   7
BRANCH   4  16
ATOM     16  C12 UNL     1       0.712  -2.777 -21.122  0.00  0.00    +0.117 C 
BRANCH  16  17
ATOM     17  C13 UNL     1       2.145  -3.327 -21.045  0.00  0.00    -0.026 A 
ATOM     18  C14 UNL     1       2.627  -3.844 -19.830  0.00  0.00    +0.005 A 
ATOM     19  C15 UNL     1       3.919  -4.365 -19.738  0.00  0.00    +0.000 A 
ATOM     20  C16 UNL     1       4.746  -4.382 -20.859  0.00  0.00    +0.000 A 
ATOM     21  C17 UNL     1       4.281  -3.882 -22.073  0.00  0.00    +0.000 A 
ATOM     22  C18 UNL     1       2.989  -3.362 -22.167  0.00  0.00    +0.005 A 
ENDBRANCH  16  17
BRANCH  16  23
ATOM     23  C19 UNL     1      -0.148  -3.718 -21.976  0.00  0.00    -0.026 A 
ATOM     24  C20 UNL     1      -0.096  -3.693 -23.380  0.00  0.00    +0.005 A 
ATOM     25  C21 UNL     1      -0.879  -4.565 -24.140  0.00  0.00    +0.000 A 
ATOM     26  C22 UNL     1      -1.722  -5.476 -23.507  0.00  0.00    +0.000 A 
ATOM     27  C23 UNL     1      -1.783  -5.517 -22.117  0.00  0.00    +0.000 A 
ATOM     28  C24 UNL     1      -1.001  -4.646 -21.355  0.00  0.00    +0.005 A 
ENDBRANCH  16  23
ENDBRANCH   4  16
TORSDOF 6
ENDMDL
MODEL 7
REMARK VINA RESULT:    -5.154      4.662      8.069
REMARK INTER + INTRA:          -7.507
REMARK INTER:                  -6.687
REMARK INTRA:                  -0.820
REMARK UNBOUND:                -0.696
REMARK  Name = /home/vital/Documents/PhD_2021/Malaria_codes/data/pdb_ligands_mmv/ligand_167.pdb
REMARK  6 active torsions:
REMARK  status: ('A' for Active; 'I' for Inactive)
REMARK    1  A    between atoms: O1_1  and  C1_2
REMARK    2  A    between atoms: C6_7  and  C7_8
REMARK    3  A    between atoms: C7_8  and  N1_9
REMARK    4  A    between atoms: N2_12  and  C12_15
REMARK    5  A    between atoms: C12_15  and  C13_16
REMARK    6  A    between atoms: C12_15  and  C19_22
REMARK                            x       y       z     vdW  Elec       q    Type
REMARK                         _______ _______ _______ _____ _____    ______ ____
ROOT
ATOM      1  N1  UNL     1       3.260  -3.533 -21.791  0.00  0.00    -0.296 NA
ATOM      2  C8  UNL     1       2.585  -2.522 -22.626  0.00  0.00    +0.100 C 
ATOM      3  C9  UNL     1       1.580  -1.628 -21.866  0.00  0.00    +0.100 C 
ATOM      4  N2  UNL     1       0.503  -2.359 -21.153  0.00  0.00    -0.289 NA
ATOM      5  C10 UNL     1       0.938  -3.749 -20.861  0.00  0.00    +0.100 C 
ATOM      6  C11 UNL     1       2.454  -3.859 -20.596  0.00  0.00    +0.100 C 
ENDROOT
BRANCH   1   7
ATOM      7  C7  UNL     1       4.630  -3.131 -21.442  0.00  0.00    +0.123 C 
BRANCH   7  13
ATOM      8  C1  UNL     1       5.693  -4.682 -23.199  0.00  0.00    +0.121 A 
ATOM      9  C2  UNL     1       6.694  -4.944 -24.135  0.00  0.00    +0.046 A 
ATOM     10  C3  UNL     1       7.654  -3.978 -24.425  0.00  0.00    +0.004 A 
ATOM     11  C4  UNL     1       7.615  -2.747 -23.776  0.00  0.00    +0.001 A 
ATOM     12  C5  UNL     1       6.621  -2.492 -22.829  0.00  0.00    +0.008 A 
ATOM     13  C6  UNL     1       5.646  -3.459 -22.516  0.00  0.00    +0.008 A 
BRANCH   8  14
ATOM     14  O1  UNL     1       4.787  -5.686 -23.010  0.00  0.00    -0.506 OA
ATOM     15  H1  UNL     1       4.535  -6.054 -23.870  0.00  0.00    +0.292 HD
ENDBRANCH   8  14
ENDBRANCH   7  13
ENDBRANCH   1   7
BRANCH   4  16
ATOM     16  C12 UNL     1      -0.790  -2.342 -21.903  0.00  0.00    +0.117 C 
BRANCH  16  17
ATOM     17  C13 UNL     1      -1.968  -1.794 -21.082  0.00  0.00    -0.026 A 
ATOM     18  C14 UNL     1      -3.234  -1.667 -21.680  0.00  0.00    +0.005 A 
ATOM     19  C15 UNL     1      -4.323  -1.188 -20.951  0.00  0.00    +0.000 A 
ATOM     20  C16 UNL     1      -4.166  -0.833 -19.613  0.00  0.00    +0.000 A 
ATOM     21  C17 UNL     1      -2.921  -0.960 -19.002  0.00  0.00    +0.000 A 
ATOM     22  C18 UNL     1      -1.830  -1.441 -19.729  0.00  0.00    +0.005 A 
ENDBRANCH  16  17
BRANCH  16  23
ATOM     23  C19 UNL     1      -1.173  -3.707 -22.492  0.00  0.00    -0.026 A 
ATOM     24  C20 UNL     1      -1.768  -4.707 -21.705  0.00  0.00    +0.005 A 
ATOM     25  C21 UNL     1      -2.119  -5.939 -22.262  0.00  0.00    +0.000 A 
ATOM     26  C22 UNL     1      -1.882  -6.187 -23.612  0.00  0.00    +0.000 A 
ATOM     27  C23 UNL     1      -1.297  -5.205 -24.408  0.00  0.00    +0.000 A 
ATOM     28  C24 UNL     1      -0.946  -3.972 -23.853  0.00  0.00    +0.005 A 
ENDBRANCH  16  23
ENDBRANCH   4  16
TORSDOF 6
ENDMDL
MODEL 8
REMARK VINA RESULT:    -5.120      3.657      9.993
REMARK INTER + INTRA:          -7.463
REMARK INTER:                  -6.826
REMARK INTRA:                  -0.636
REMARK UNBOUND:                -0.696
REMARK  Name = /home/vital/Documents/PhD_2021/Malaria_codes/data/pdb_ligands_mmv/ligand_167.pdb
REMARK  6 active torsions:
REMARK  status: ('A' for Active; 'I' for Inactive)
REMARK    1  A    between atoms: O1_1  and  C1_2
REMARK    2  A    between atoms: C6_7  and  C7_8
REMARK    3  A    between atoms: C7_8  and  N1_9
REMARK    4  A    between atoms: N2_12  and  C12_15
REMARK    5  A    between atoms: C12_15  and  C13_16
REMARK    6  A    between atoms: C12_15  and  C19_22
REMARK                            x       y       z     vdW  Elec       q    Type
REMARK                         _______ _______ _______ _____ _____    ______ ____
ROOT
ATOM      1  N1  UNL     1       4.022  -3.899 -29.776  0.00  0.00    -0.296 NA
ATOM      2  C8  UNL     1       4.603  -4.095 -31.116  0.00  0.00    +0.100 C 
ATOM      3  C9  UNL     1       4.033  -3.160 -32.206  0.00  0.00    +0.100 C 
ATOM      4  N2  UNL     1       2.561  -3.223 -32.383  0.00  0.00    -0.289 NA
ATOM      5  C10 UNL     1       1.920  -3.722 -31.138  0.00  0.00    +0.100 C 
ATOM      6  C11 UNL     1       2.676  -3.294 -29.862  0.00  0.00    +0.100 C 
ENDROOT
BRANCH   1   7
ATOM      7  C7  UNL     1       4.917  -3.133 -28.897  0.00  0.00    +0.123 C 
BRANCH   7  13
ATOM      8  C1  UNL     1       5.088  -5.173 -27.338  0.00  0.00    +0.121 A 
ATOM      9  C2  UNL     1       5.759  -5.882 -26.339  0.00  0.00    +0.046 A 
ATOM     10  C3  UNL     1       6.987  -5.429 -25.862  0.00  0.00    +0.004 A 
ATOM     11  C4  UNL     1       7.544  -4.265 -26.383  0.00  0.00    +0.001 A 
ATOM     12  C5  UNL     1       6.865  -3.551 -27.371  0.00  0.00    +0.008 A 
ATOM     13  C6  UNL     1       5.619  -3.987 -27.861  0.00  0.00    +0.008 A 
BRANCH   8  14
ATOM     14  O1  UNL     1       3.906  -5.718 -27.751  0.00  0.00    -0.506 OA
ATOM     15  H1  UNL     1       3.542  -6.266 -27.040  0.00  0.00    +0.292 HD
ENDBRANCH   8  14
ENDBRANCH   7  13
ENDBRANCH   1   7
BRANCH   4  16
ATOM     16  C12 UNL     1       2.163  -4.047 -33.564  0.00  0.00    +0.117 C 
BRANCH  16  17
ATOM     17  C13 UNL     1       1.104  -3.374 -34.452  0.00  0.00    -0.026 A 
ATOM     18  C14 UNL     1       0.734  -2.041 -34.204  0.00  0.00    +0.005 A 
ATOM     19  C15 UNL     1      -0.214  -1.402 -35.006  0.00  0.00    +0.000 A 
ATOM     20  C16 UNL     1      -0.800  -2.083 -36.070  0.00  0.00    +0.000 A 
ATOM     21  C17 UNL     1      -0.438  -3.402 -36.336  0.00  0.00    +0.000 A 
ATOM     22  C18 UNL     1       0.509  -4.042 -35.536  0.00  0.00    +0.005 A 
ENDBRANCH  16  17
BRANCH  16  23
ATOM     23  C19 UNL     1       1.692  -5.460 -33.194  0.00  0.00    -0.026 A 
ATOM     24  C20 UNL     1       0.466  -5.681 -32.544  0.00  0.00    +0.005 A 
ATOM     25  C21 UNL     1       0.049  -6.975 -32.224  0.00  0.00    +0.000 A 
ATOM     26  C22 UNL     1       0.851  -8.066 -32.552  0.00  0.00    +0.000 A 
ATOM     27  C23 UNL     1       2.067  -7.866 -33.201  0.00  0.00    +0.000 A 
ATOM     28  C24 UNL     1       2.485  -6.573 -33.521  0.00  0.00    +0.005 A 
ENDBRANCH  16  23
ENDBRANCH   4  16
TORSDOF 6
ENDMDL
MODEL 9
REMARK VINA RESULT:    -5.082      6.586     10.291
REMARK INTER + INTRA:          -7.413
REMARK INTER:                  -6.285
REMARK INTRA:                  -1.128
REMARK UNBOUND:                -0.696
REMARK  Name = /home/vital/Documents/PhD_2021/Malaria_codes/data/pdb_ligands_mmv/ligand_167.pdb
REMARK  6 active torsions:
REMARK  status: ('A' for Active; 'I' for Inactive)
REMARK    1  A    between atoms: O1_1  and  C1_2
REMARK    2  A    between atoms: C6_7  and  C7_8
REMARK    3  A    between atoms: C7_8  and  N1_9
REMARK    4  A    between atoms: N2_12  and  C12_15
REMARK    5  A    between atoms: C12_15  and  C13_16
REMARK    6  A    between atoms: C12_15  and  C19_22
REMARK                            x       y       z     vdW  Elec       q    Type
REMARK                         _______ _______ _______ _____ _____    ______ ____
ROOT
ATOM      1  N1  UNL     1      -0.901  -5.521 -29.235  0.00  0.00    -0.296 NA
ATOM      2  C8  UNL     1      -1.220  -4.528 -30.278  0.00  0.00    +0.100 C 
ATOM      3  C9  UNL     1      -0.683  -4.879 -31.683  0.00  0.00    +0.100 C 
ATOM      4  N2  UNL     1       0.782  -5.101 -31.760  0.00  0.00    -0.289 NA
ATOM      5  C10 UNL     1       1.309  -5.487 -30.425  0.00  0.00    +0.100 C 
ATOM      6  C11 UNL     1       0.297  -6.306 -29.596  0.00  0.00    +0.100 C 
ENDROOT
BRANCH   1   7
ATOM      7  C7  UNL     1      -2.054  -6.379 -28.925  0.00  0.00    +0.123 C 
BRANCH   7  13
ATOM      8  C1  UNL     1      -1.969  -5.558 -26.488  0.00  0.00    +0.121 A 
ATOM      9  C2  UNL     1      -2.588  -5.371 -25.251  0.00  0.00    +0.046 A 
ATOM     10  C3  UNL     1      -3.934  -5.689 -25.084  0.00  0.00    +0.004 A 
ATOM     11  C4  UNL     1      -4.662  -6.197 -26.156  0.00  0.00    +0.001 A 
ATOM     12  C5  UNL     1      -4.037  -6.396 -27.389  0.00  0.00    +0.008 A 
ATOM     13  C6  UNL     1      -2.676  -6.089 -27.575  0.00  0.00    +0.008 A 
BRANCH   8  14
ATOM     14  O1  UNL     1      -0.656  -5.189 -26.550  0.00  0.00    -0.506 OA
ATOM     15  H1  UNL     1      -0.500  -4.700 -27.372  0.00  0.00    +0.292 HD
ENDBRANCH   8  14
ENDBRANCH   7  13
ENDBRANCH   1   7
BRANCH   4  16
ATOM     16  C12 UNL     1       1.510  -3.916 -32.307  0.00  0.00    +0.117 C 
BRANCH  16  17
ATOM     17  C13 UNL     1       0.986  -3.454 -33.676  0.00  0.00    -0.026 A 
ATOM     18  C14 UNL     1       0.503  -2.143 -33.829  0.00  0.00    +0.005 A 
ATOM     19  C15 UNL     1       0.037  -1.693 -35.066  0.00  0.00    +0.000 A 
ATOM     20  C16 UNL     1       0.053  -2.544 -36.169  0.00  0.00    +0.000 A 
ATOM     21  C17 UNL     1       0.537  -3.844 -36.038  0.00  0.00    +0.000 A 
ATOM     22  C18 UNL     1       1.004  -4.294 -34.802  0.00  0.00    +0.005 A 
ENDBRANCH  16  17
BRANCH  16  23
ATOM     23  C19 UNL     1       3.030  -4.115 -32.386  0.00  0.00    -0.026 A 
ATOM     24  C20 UNL     1       3.593  -5.293 -32.908  0.00  0.00    +0.005 A 
ATOM     25  C21 UNL     1       4.978  -5.451 -32.981  0.00  0.00    +0.000 A 
ATOM     26  C22 UNL     1       5.821  -4.434 -32.536  0.00  0.00    +0.000 A 
ATOM     27  C23 UNL     1       5.280  -3.259 -32.019  0.00  0.00    +0.000 A 
ATOM     28  C24 UNL     1       3.895  -3.099 -31.946  0.00  0.00    +0.005 A 
ENDBRANCH  16  23
ENDBRANCH   4  16
TORSDOF 6
ENDMDL
