MODEL 1
REMARK VINA RESULT:    -4.898      0.000      0.000
REMARK INTER + INTRA:          -9.695
REMARK INTER:                  -6.616
REMARK INTRA:                  -3.079
REMARK UNBOUND:                -3.079
REMARK  Name = /home/vital/Documents/PhD_2021/Malaria_codes/data/pdb_ligands_mmv/ligand_344.pdb
REMARK  7 active torsions:
REMARK  status: ('A' for Active; 'I' for Inactive)
REMARK    1  A    between atoms: C1_1  and  O1_2
REMARK    2  A    between atoms: O1_2  and  C2_3
REMARK    3  A    between atoms: C7_8  and  C8_9
REMARK    4  A    between atoms: C8_9  and  O3_11
REMARK    5  A    between atoms: O3_11  and  N1_12
REMARK    6  A    between atoms: C9_13  and  C10_15
REMARK    7  A    between atoms: C10_15  and  C11_16
REMARK                            x       y       z     vdW  Elec       q    Type
REMARK                         _______ _______ _______ _____ _____    ______ ____
ROOT
ATOM      1  N1  UNL     1       1.443  -7.216 -31.374  0.00  0.00    -0.063 NA
ATOM      2  C9  UNL     1       1.477  -8.050 -32.370  0.00  0.00    +0.137 C 
ATOM      3  N2  UNL     1       0.984  -9.336 -32.314  0.00  0.00    -0.344 N 
ATOM      4  H8  UNL     1       0.859  -9.659 -31.357  0.00  0.00    +0.144 HD
ATOM      5  H9  UNL     1       1.468 -10.017 -32.892  0.00  0.00    +0.144 HD
ENDROOT
BRANCH   1   6
ATOM      6  O3  UNL     1       0.847  -7.820 -30.252  0.00  0.00    -0.310 OA
BRANCH   6   7
ATOM      7  C8  UNL     1       1.001  -7.041 -29.146  0.00  0.00    +0.370 C 
ATOM      8  O2  UNL     1       1.126  -7.388 -27.981  0.00  0.00    -0.242 OA
BRANCH   7  14
ATOM      9  C2  UNL     1       2.197  -4.817 -29.412  0.00  0.00    +0.134 A 
ATOM     10  C3  UNL     1       2.166  -3.475 -29.800  0.00  0.00    +0.046 A 
ATOM     11  C4  UNL     1       1.016  -2.940 -30.385  0.00  0.00    +0.004 A 
ATOM     12  C5  UNL     1      -0.109  -3.743 -30.572  0.00  0.00    +0.001 A 
ATOM     13  C6  UNL     1      -0.087  -5.079 -30.166  0.00  0.00    +0.019 A 
ATOM     14  C7  UNL     1       1.059  -5.621 -29.565  0.00  0.00    +0.103 A 
BRANCH   9  16
ATOM     15  C1  UNL     1       4.252  -4.199 -28.591  0.00  0.00    +0.277 C 
ATOM     16  O1  UNL     1       3.355  -5.284 -28.843  0.00  0.00    -0.494 OA
ENDBRANCH   9  16
ENDBRANCH   7  14
ENDBRANCH   6   7
ENDBRANCH   1   6
BRANCH   2  17
ATOM     17  C10 UNL     1       2.089  -7.550 -33.676  0.00  0.00    +0.110 C 
BRANCH  17  18
ATOM     18  C11 UNL     1       1.996  -6.045 -33.835  0.00  0.00    -0.033 A 
ATOM     19  C12 UNL     1       0.809  -5.531 -34.391  0.00  0.00    +0.004 A 
ATOM     20  C13 UNL     1       0.630  -4.164 -34.550  0.00  0.00    +0.001 A 
ATOM     21  C14 UNL     1       1.631  -3.284 -34.151  0.00  0.00    +0.008 A 
ATOM     22  C15 UNL     1       2.823  -3.758 -33.584  0.00  0.00    -0.018 A 
ATOM     23  C16 UNL     1       3.815  -2.848 -33.182  0.00  0.00    +0.008 A 
ATOM     24  C17 UNL     1       5.005  -3.289 -32.607  0.00  0.00    +0.001 A 
ATOM     25  C18 UNL     1       5.219  -4.648 -32.429  0.00  0.00    +0.001 A 
ATOM     26  C19 UNL     1       4.243  -5.567 -32.828  0.00  0.00    +0.009 A 
ATOM     27  C20 UNL     1       3.024  -5.152 -33.415  0.00  0.00    -0.014 A 
ENDBRANCH  17  18
ENDBRANCH   2  17
TORSDOF 6
ENDMDL
MODEL 2
REMARK VINA RESULT:    -4.839      0.808      1.982
REMARK INTER + INTRA:          -9.616
REMARK INTER:                  -6.250
REMARK INTRA:                  -3.365
REMARK UNBOUND:                -3.079
REMARK  Name = /home/vital/Documents/PhD_2021/Malaria_codes/data/pdb_ligands_mmv/ligand_344.pdb
REMARK  7 active torsions:
REMARK  status: ('A' for Active; 'I' for Inactive)
REMARK    1  A    between atoms: C1_1  and  O1_2
REMARK    2  A    between atoms: O1_2  and  C2_3
REMARK    3  A    between atoms: C7_8  and  C8_9
REMARK    4  A    between atoms: C8_9  and  O3_11
REMARK    5  A    between atoms: O3_11  and  N1_12
REMARK    6  A    between atoms: C9_13  and  C10_15
REMARK    7  A    between atoms: C10_15  and  C11_16
REMARK                            x       y       z     vdW  Elec       q    Type
REMARK                         _______ _______ _______ _____ _____    ______ ____
ROOT
ATOM      1  N1  UNL     1       1.599  -7.329 -31.192  0.00  0.00    -0.063 NA
ATOM      2  C9  UNL     1       1.419  -8.095 -32.226  0.00  0.00    +0.137 C 
ATOM      3  N2  UNL     1       0.685  -9.262 -32.201  0.00  0.00    -0.344 N 
ATOM      4  H8  UNL     1       0.544  -9.608 -31.254  0.00  0.00    +0.144 HD
ATOM      5  H9  UNL     1       0.996  -9.990 -32.837  0.00  0.00    +0.144 HD
ENDROOT
BRANCH   1   6
ATOM      6  O3  UNL     1       0.951  -7.868 -30.066  0.00  0.00    -0.310 OA
BRANCH   6   7
ATOM      7  C8  UNL     1       1.006  -7.001 -29.018  0.00  0.00    +0.370 C 
ATOM      8  O2  UNL     1       1.158  -7.251 -27.831  0.00  0.00    -0.242 OA
BRANCH   7  14
ATOM      9  C2  UNL     1      -0.250  -5.096 -30.132  0.00  0.00    +0.134 A 
ATOM     10  C3  UNL     1      -0.257  -3.789 -30.628  0.00  0.00    +0.046 A 
ATOM     11  C4  UNL     1       0.874  -2.981 -30.491  0.00  0.00    +0.004 A 
ATOM     12  C5  UNL     1       2.017  -3.481 -29.868  0.00  0.00    +0.001 A 
ATOM     13  C6  UNL     1       2.034  -4.793 -29.390  0.00  0.00    +0.019 A 
ATOM     14  C7  UNL     1       0.907  -5.617 -29.536  0.00  0.00    +0.103 A 
BRANCH   9  16
ATOM     15  C1  UNL     1      -1.887  -5.690 -31.629  0.00  0.00    +0.277 C 
ATOM     16  O1  UNL     1      -1.389  -5.841 -30.297  0.00  0.00    -0.494 OA
ENDBRANCH   9  16
ENDBRANCH   7  14
ENDBRANCH   6   7
ENDBRANCH   1   6
BRANCH   2  17
ATOM     17  C10 UNL     1       2.054  -7.652 -33.541  0.00  0.00    +0.110 C 
BRANCH  17  18
ATOM     18  C11 UNL     1       1.943  -6.158 -33.777  0.00  0.00    -0.033 A 
ATOM     19  C12 UNL     1       0.751  -5.688 -34.361  0.00  0.00    +0.004 A 
ATOM     20  C13 UNL     1       0.556  -4.333 -34.590  0.00  0.00    +0.001 A 
ATOM     21  C14 UNL     1       1.545  -3.421 -34.234  0.00  0.00    +0.008 A 
ATOM     22  C15 UNL     1       2.742  -3.851 -33.642  0.00  0.00    -0.018 A 
ATOM     23  C16 UNL     1       3.721  -2.910 -33.285  0.00  0.00    +0.008 A 
ATOM     24  C17 UNL     1       4.915  -3.306 -32.686  0.00  0.00    +0.001 A 
ATOM     25  C18 UNL     1       5.145  -4.651 -32.438  0.00  0.00    +0.001 A 
ATOM     26  C19 UNL     1       4.182  -5.601 -32.792  0.00  0.00    +0.009 A 
ATOM     27  C20 UNL     1       2.959  -5.232 -33.402  0.00  0.00    -0.014 A 
ENDBRANCH  17  18
ENDBRANCH   2  17
TORSDOF 6
ENDMDL
MODEL 3
REMARK VINA RESULT:    -4.647     17.438     19.441
REMARK INTER + INTRA:          -9.356
REMARK INTER:                  -6.352
REMARK INTRA:                  -3.005
REMARK UNBOUND:                -3.079
REMARK  Name = /home/vital/Documents/PhD_2021/Malaria_codes/data/pdb_ligands_mmv/ligand_344.pdb
REMARK  7 active torsions:
REMARK  status: ('A' for Active; 'I' for Inactive)
REMARK    1  A    between atoms: C1_1  and  O1_2
REMARK    2  A    between atoms: O1_2  and  C2_3
REMARK    3  A    between atoms: C7_8  and  C8_9
REMARK    4  A    between atoms: C8_9  and  O3_11
REMARK    5  A    between atoms: O3_11  and  N1_12
REMARK    6  A    between atoms: C9_13  and  C10_15
REMARK    7  A    between atoms: C10_15  and  C11_16
REMARK                            x       y       z     vdW  Elec       q    Type
REMARK                         _______ _______ _______ _____ _____    ______ ____
ROOT
ATOM      1  N1  UNL     1       5.226   8.538 -16.758  0.00  0.00    -0.063 NA
ATOM      2  C9  UNL     1       4.565   9.452 -16.113  0.00  0.00    +0.137 C 
ATOM      3  N2  UNL     1       4.920   9.925 -14.867  0.00  0.00    -0.344 N 
ATOM      4  H8  UNL     1       5.565   9.301 -14.388  0.00  0.00    +0.144 HD
ATOM      5  H9  UNL     1       4.150  10.218 -14.273  0.00  0.00    +0.144 HD
ENDROOT
BRANCH   1   6
ATOM      6  O3  UNL     1       6.331   8.109 -16.000  0.00  0.00    -0.310 OA
BRANCH   6   7
ATOM      7  C8  UNL     1       6.937   7.043 -16.591  0.00  0.00    +0.370 C 
ATOM      8  O2  UNL     1       8.111   6.708 -16.537  0.00  0.00    -0.242 OA
BRANCH   7  14
ATOM      9  C2  UNL     1       4.886   5.547 -16.673  0.00  0.00    +0.134 A 
ATOM     10  C3  UNL     1       3.977   4.795 -17.421  0.00  0.00    +0.046 A 
ATOM     11  C4  UNL     1       4.061   4.777 -18.815  0.00  0.00    +0.004 A 
ATOM     12  C5  UNL     1       5.060   5.504 -19.463  0.00  0.00    +0.001 A 
ATOM     13  C6  UNL     1       5.982   6.240 -18.717  0.00  0.00    +0.019 A 
ATOM     14  C7  UNL     1       5.914   6.252 -17.315  0.00  0.00    +0.103 A 
BRANCH   9  16
ATOM     15  C1  UNL     1       3.389   5.739 -14.942  0.00  0.00    +0.277 C 
ATOM     16  O1  UNL     1       4.754   5.524 -15.308  0.00  0.00    -0.494 OA
ENDBRANCH   9  16
ENDBRANCH   7  14
ENDBRANCH   6   7
ENDBRANCH   1   6
BRANCH   2  17
ATOM     17  C10 UNL     1       3.333  10.035 -16.800  0.00  0.00    +0.110 C 
BRANCH  17  18
ATOM     18  C11 UNL     1       2.729   9.097 -17.827  0.00  0.00    -0.033 A 
ATOM     19  C12 UNL     1       1.787   8.159 -17.364  0.00  0.00    +0.004 A 
ATOM     20  C13 UNL     1       1.169   7.278 -18.240  0.00  0.00    +0.001 A 
ATOM     21  C14 UNL     1       1.475   7.321 -19.596  0.00  0.00    +0.008 A 
ATOM     22  C15 UNL     1       2.402   8.247 -20.096  0.00  0.00    -0.018 A 
ATOM     23  C16 UNL     1       2.688   8.276 -21.471  0.00  0.00    +0.008 A 
ATOM     24  C17 UNL     1       3.597   9.191 -21.998  0.00  0.00    +0.001 A 
ATOM     25  C18 UNL     1       4.233  10.090 -21.154  0.00  0.00    +0.001 A 
ATOM     26  C19 UNL     1       3.962  10.072 -19.783  0.00  0.00    +0.009 A 
ATOM     27  C20 UNL     1       3.045   9.155 -19.215  0.00  0.00    -0.014 A 
ENDBRANCH  17  18
ENDBRANCH   2  17
TORSDOF 6
ENDMDL
MODEL 4
REMARK VINA RESULT:    -4.637      1.903      3.402
REMARK INTER + INTRA:          -9.343
REMARK INTER:                  -6.134
REMARK INTRA:                  -3.208
REMARK UNBOUND:                -3.079
REMARK  Name = /home/vital/Documents/PhD_2021/Malaria_codes/data/pdb_ligands_mmv/ligand_344.pdb
REMARK  7 active torsions:
REMARK  status: ('A' for Active; 'I' for Inactive)
REMARK    1  A    between atoms: C1_1  and  O1_2
REMARK    2  A    between atoms: O1_2  and  C2_3
REMARK    3  A    between atoms: C7_8  and  C8_9
REMARK    4  A    between atoms: C8_9  and  O3_11
REMARK    5  A    between atoms: O3_11  and  N1_12
REMARK    6  A    between atoms: C9_13  and  C10_15
REMARK    7  A    between atoms: C10_15  and  C11_16
REMARK                            x       y       z     vdW  Elec       q    Type
REMARK                         _______ _______ _______ _____ _____    ______ ____
ROOT
ATOM      1  N1  UNL     1       0.033  -7.978 -32.609  0.00  0.00    -0.063 NA
ATOM      2  C9  UNL     1       1.106  -8.486 -33.139  0.00  0.00    +0.137 C 
ATOM      3  N2  UNL     1       1.666  -9.683 -32.746  0.00  0.00    -0.344 N 
ATOM      4  H8  UNL     1       1.335  -9.980 -31.831  0.00  0.00    +0.144 HD
ATOM      5  H9  UNL     1       2.676  -9.744 -32.832  0.00  0.00    +0.144 HD
ENDROOT
BRANCH   1   6
ATOM      6  O3  UNL     1      -0.451  -8.816 -31.589  0.00  0.00    -0.310 OA
BRANCH   6   7
ATOM      7  C8  UNL     1      -1.132  -8.096 -30.656  0.00  0.00    +0.370 C 
ATOM      8  O2  UNL     1      -2.114  -8.425 -30.008  0.00  0.00    -0.242 OA
BRANCH   7  14
ATOM      9  C2  UNL     1      -0.939  -5.586 -30.989  0.00  0.00    +0.134 A 
ATOM     10  C3  UNL     1      -0.224  -4.400 -30.799  0.00  0.00    +0.046 A 
ATOM     11  C4  UNL     1       0.954  -4.404 -30.051  0.00  0.00    +0.004 A 
ATOM     12  C5  UNL     1       1.427  -5.595 -29.500  0.00  0.00    +0.001 A 
ATOM     13  C6  UNL     1       0.726  -6.785 -29.705  0.00  0.00    +0.019 A 
ATOM     14  C7  UNL     1      -0.452  -6.793 -30.468  0.00  0.00    +0.103 A 
BRANCH   9  16
ATOM     15  C1  UNL     1      -2.346  -4.168 -32.121  0.00  0.00    +0.277 C 
ATOM     16  O1  UNL     1      -2.088  -5.520 -31.734  0.00  0.00    -0.494 OA
ENDBRANCH   9  16
ENDBRANCH   7  14
ENDBRANCH   6   7
ENDBRANCH   1   6
BRANCH   2  17
ATOM     17  C10 UNL     1       1.761  -7.702 -34.273  0.00  0.00    +0.110 C 
BRANCH  17  18
ATOM     18  C11 UNL     1       2.254  -6.335 -33.839  0.00  0.00    -0.033 A 
ATOM     19  C12 UNL     1       3.430  -6.294 -33.067  0.00  0.00    +0.004 A 
ATOM     20  C13 UNL     1       3.964  -5.083 -32.646  0.00  0.00    +0.001 A 
ATOM     21  C14 UNL     1       3.336  -3.891 -32.995  0.00  0.00    +0.008 A 
ATOM     22  C15 UNL     1       2.167  -3.893 -33.771  0.00  0.00    -0.018 A 
ATOM     23  C16 UNL     1       1.557  -2.675 -34.116  0.00  0.00    +0.008 A 
ATOM     24  C17 UNL     1       0.402  -2.645 -34.893  0.00  0.00    +0.001 A 
ATOM     25  C18 UNL     1      -0.160  -3.835 -35.334  0.00  0.00    +0.001 A 
ATOM     26  C19 UNL     1       0.433  -5.055 -34.996  0.00  0.00    +0.009 A 
ATOM     27  C20 UNL     1       1.607  -5.121 -34.208  0.00  0.00    -0.014 A 
ENDBRANCH  17  18
ENDBRANCH   2  17
TORSDOF 6
ENDMDL
MODEL 5
REMARK VINA RESULT:    -4.529     15.512     17.970
REMARK INTER + INTRA:          -9.197
REMARK INTER:                  -5.786
REMARK INTRA:                  -3.411
REMARK UNBOUND:                -3.079
REMARK  Name = /home/vital/Documents/PhD_2021/Malaria_codes/data/pdb_ligands_mmv/ligand_344.pdb
REMARK  7 active torsions:
REMARK  status: ('A' for Active; 'I' for Inactive)
REMARK    1  A    between atoms: C1_1  and  O1_2
REMARK    2  A    between atoms: O1_2  and  C2_3
REMARK    3  A    between atoms: C7_8  and  C8_9
REMARK    4  A    between atoms: C8_9  and  O3_11
REMARK    5  A    between atoms: O3_11  and  N1_12
REMARK    6  A    between atoms: C9_13  and  C10_15
REMARK    7  A    between atoms: C10_15  and  C11_16
REMARK                            x       y       z     vdW  Elec       q    Type
REMARK                         _______ _______ _______ _____ _____    ______ ____
ROOT
ATOM      1  N1  UNL     1       1.474   2.893 -15.512  0.00  0.00    -0.063 NA
ATOM      2  C9  UNL     1       1.789   3.680 -14.527  0.00  0.00    +0.137 C 
ATOM      3  N2  UNL     1       2.753   3.388 -13.586  0.00  0.00    -0.344 N 
ATOM      4  H8  UNL     1       2.985   2.397 -13.567  0.00  0.00    +0.144 HD
ATOM      5  H9  UNL     1       2.590   3.765 -12.657  0.00  0.00    +0.144 HD
ENDROOT
BRANCH   1   6
ATOM      6  O3  UNL     1       2.247   1.719 -15.465  0.00  0.00    -0.310 OA
BRANCH   6   7
ATOM      7  C8  UNL     1       2.383   1.181 -16.708  0.00  0.00    +0.370 C 
ATOM      8  O2  UNL     1       2.264   0.014 -17.049  0.00  0.00    -0.242 OA
BRANCH   7  14
ATOM      9  C2  UNL     1       3.853   3.003 -17.691  0.00  0.00    +0.134 A 
ATOM     10  C3  UNL     1       4.028   4.040 -18.611  0.00  0.00    +0.046 A 
ATOM     11  C4  UNL     1       3.031   4.323 -19.546  0.00  0.00    +0.004 A 
ATOM     12  C5  UNL     1       1.853   3.576 -19.557  0.00  0.00    +0.001 A 
ATOM     13  C6  UNL     1       1.667   2.552 -18.626  0.00  0.00    +0.019 A 
ATOM     14  C7  UNL     1       2.658   2.271 -17.673  0.00  0.00    +0.103 A 
BRANCH   9  16
ATOM     15  C1  UNL     1       5.303   4.008 -16.220  0.00  0.00    +0.277 C 
ATOM     16  O1  UNL     1       4.867   2.774 -16.796  0.00  0.00    -0.494 OA
ENDBRANCH   9  16
ENDBRANCH   7  14
ENDBRANCH   6   7
ENDBRANCH   1   6
BRANCH   2  17
ATOM     17  C10 UNL     1       1.046   5.010 -14.432  0.00  0.00    +0.110 C 
BRANCH  17  18
ATOM     18  C11 UNL     1       0.564   5.515 -15.779  0.00  0.00    -0.033 A 
ATOM     19  C12 UNL     1      -0.712   5.095 -16.201  0.00  0.00    +0.004 A 
ATOM     20  C13 UNL     1      -1.240   5.528 -17.410  0.00  0.00    +0.001 A 
ATOM     21  C14 UNL     1      -0.506   6.393 -18.215  0.00  0.00    +0.008 A 
ATOM     22  C15 UNL     1       0.764   6.840 -17.823  0.00  0.00    -0.018 A 
ATOM     23  C16 UNL     1       1.481   7.720 -18.651  0.00  0.00    +0.008 A 
ATOM     24  C17 UNL     1       2.740   8.188 -18.283  0.00  0.00    +0.001 A 
ATOM     25  C18 UNL     1       3.300   7.780 -17.081  0.00  0.00    +0.001 A 
ATOM     26  C19 UNL     1       2.601   6.901 -16.248  0.00  0.00    +0.009 A 
ATOM     27  C20 UNL     1       1.320   6.407 -16.592  0.00  0.00    -0.014 A 
ENDBRANCH  17  18
ENDBRANCH   2  17
TORSDOF 6
ENDMDL
MODEL 6
REMARK VINA RESULT:    -4.529     10.546     12.707
REMARK INTER + INTRA:          -9.196
REMARK INTER:                  -5.720
REMARK INTRA:                  -3.476
REMARK UNBOUND:                -3.079
REMARK  Name = /home/vital/Documents/PhD_2021/Malaria_codes/data/pdb_ligands_mmv/ligand_344.pdb
REMARK  7 active torsions:
REMARK  status: ('A' for Active; 'I' for Inactive)
REMARK    1  A    between atoms: C1_1  and  O1_2
REMARK    2  A    between atoms: O1_2  and  C2_3
REMARK    3  A    between atoms: C7_8  and  C8_9
REMARK    4  A    between atoms: C8_9  and  O3_11
REMARK    5  A    between atoms: O3_11  and  N1_12
REMARK    6  A    between atoms: C9_13  and  C10_15
REMARK    7  A    between atoms: C10_15  and  C11_16
REMARK                            x       y       z     vdW  Elec       q    Type
REMARK                         _______ _______ _______ _____ _____    ______ ____
ROOT
ATOM      1  N1  UNL     1      -2.532   0.164 -19.823  0.00  0.00    -0.063 NA
ATOM      2  C9  UNL     1      -2.394  -0.948 -19.164  0.00  0.00    +0.137 C 
ATOM      3  N2  UNL     1      -1.340  -1.213 -18.315  0.00  0.00    -0.344 N 
ATOM      4  H8  UNL     1      -0.552  -0.589 -18.472  0.00  0.00    +0.144 HD
ATOM      5  H9  UNL     1      -1.058  -2.187 -18.257  0.00  0.00    +0.144 HD
ENDROOT
BRANCH   1   6
ATOM      6  O3  UNL     1      -1.460   1.032 -19.547  0.00  0.00    -0.310 OA
BRANCH   6   7
ATOM      7  C8  UNL     1      -1.154   1.783 -20.640  0.00  0.00    +0.370 C 
ATOM      8  O2  UNL     1      -0.778   2.945 -20.685  0.00  0.00    -0.242 OA
BRANCH   7  14
ATOM      9  C2  UNL     1      -0.388  -0.073 -22.194  0.00  0.00    +0.134 A 
ATOM     10  C3  UNL     1      -0.564  -0.803 -23.373  0.00  0.00    +0.046 A 
ATOM     11  C4  UNL     1      -1.666  -0.555 -24.193  0.00  0.00    +0.004 A 
ATOM     12  C5  UNL     1      -2.589   0.431 -23.842  0.00  0.00    +0.001 A 
ATOM     13  C6  UNL     1      -2.404   1.175 -22.676  0.00  0.00    +0.019 A 
ATOM     14  C7  UNL     1      -1.292   0.943 -21.852  0.00  0.00    +0.103 A 
BRANCH   9  16
ATOM     15  C1  UNL     1       0.814  -1.772 -21.223  0.00  0.00    +0.277 C 
ATOM     16  O1  UNL     1       0.715  -0.361 -21.431  0.00  0.00    -0.494 OA
ENDBRANCH   9  16
ENDBRANCH   7  14
ENDBRANCH   6   7
ENDBRANCH   1   6
BRANCH   2  17
ATOM     17  C10 UNL     1      -3.480  -2.004 -19.344  0.00  0.00    +0.110 C 
BRANCH  17  18
ATOM     18  C11 UNL     1      -3.454  -2.651 -20.715  0.00  0.00    -0.033 A 
ATOM     19  C12 UNL     1      -2.512  -3.676 -20.922  0.00  0.00    +0.004 A 
ATOM     20  C13 UNL     1      -2.435  -4.338 -22.140  0.00  0.00    +0.001 A 
ATOM     21  C14 UNL     1      -3.303  -3.992 -23.172  0.00  0.00    +0.008 A 
ATOM     22  C15 UNL     1      -4.261  -2.982 -22.999  0.00  0.00    -0.018 A 
ATOM     23  C16 UNL     1      -5.131  -2.658 -24.054  0.00  0.00    +0.008 A 
ATOM     24  C17 UNL     1      -6.098  -1.667 -23.908  0.00  0.00    +0.001 A 
ATOM     25  C18 UNL     1      -6.207  -0.985 -22.705  0.00  0.00    +0.001 A 
ATOM     26  C19 UNL     1      -5.347  -1.293 -21.647  0.00  0.00    +0.009 A 
ATOM     27  C20 UNL     1      -4.353  -2.294 -21.762  0.00  0.00    -0.014 A 
ENDBRANCH  17  18
ENDBRANCH   2  17
TORSDOF 6
ENDMDL
MODEL 7
REMARK VINA RESULT:    -4.513     15.631     18.304
REMARK INTER + INTRA:          -9.175
REMARK INTER:                  -6.083
REMARK INTRA:                  -3.092
REMARK UNBOUND:                -3.079
REMARK  Name = /home/vital/Documents/PhD_2021/Malaria_codes/data/pdb_ligands_mmv/ligand_344.pdb
REMARK  7 active torsions:
REMARK  status: ('A' for Active; 'I' for Inactive)
REMARK    1  A    between atoms: C1_1  and  O1_2
REMARK    2  A    between atoms: O1_2  and  C2_3
REMARK    3  A    between atoms: C7_8  and  C8_9
REMARK    4  A    between atoms: C8_9  and  O3_11
REMARK    5  A    between atoms: O3_11  and  N1_12
REMARK    6  A    between atoms: C9_13  and  C10_15
REMARK    7  A    between atoms: C10_15  and  C11_16
REMARK                            x       y       z     vdW  Elec       q    Type
REMARK                         _______ _______ _______ _____ _____    ______ ____
ROOT
ATOM      1  N1  UNL     1       3.166   3.753 -14.841  0.00  0.00    -0.063 NA
ATOM      2  C9  UNL     1       2.232   3.977 -13.966  0.00  0.00    +0.137 C 
ATOM      3  N2  UNL     1       1.880   3.089 -12.971  0.00  0.00    -0.344 N 
ATOM      4  H8  UNL     1       2.213   2.147 -13.161  0.00  0.00    +0.144 HD
ATOM      5  H9  UNL     1       0.903   3.106 -12.693  0.00  0.00    +0.144 HD
ENDROOT
BRANCH   1   6
ATOM      6  O3  UNL     1       3.744   2.489 -14.626  0.00  0.00    -0.310 OA
BRANCH   6   7
ATOM      7  C8  UNL     1       4.415   2.071 -15.734  0.00  0.00    +0.370 C 
ATOM      8  O2  UNL     1       5.406   1.359 -15.800  0.00  0.00    -0.242 OA
BRANCH   7  14
ATOM      9  C2  UNL     1       2.530   2.010 -17.434  0.00  0.00    +0.134 A 
ATOM     10  C3  UNL     1       1.943   2.519 -18.596  0.00  0.00    +0.046 A 
ATOM     11  C4  UNL     1       2.507   3.621 -19.242  0.00  0.00    +0.004 A 
ATOM     12  C5  UNL     1       3.665   4.210 -18.734  0.00  0.00    +0.001 A 
ATOM     13  C6  UNL     1       4.265   3.690 -17.585  0.00  0.00    +0.019 A 
ATOM     14  C7  UNL     1       3.713   2.574 -16.937  0.00  0.00    +0.103 A 
BRANCH   9  16
ATOM     15  C1  UNL     1       1.913  -0.179 -17.753  0.00  0.00    +0.277 C 
ATOM     16  O1  UNL     1       1.931   0.925 -16.845  0.00  0.00    -0.494 OA
ENDBRANCH   9  16
ENDBRANCH   7  14
ENDBRANCH   6   7
ENDBRANCH   1   6
BRANCH   2  17
ATOM     17  C10 UNL     1       1.502   5.315 -14.052  0.00  0.00    +0.110 C 
BRANCH  17  18
ATOM     18  C11 UNL     1       0.885   5.564 -15.415  0.00  0.00    -0.033 A 
ATOM     19  C12 UNL     1      -0.332   4.914 -15.696  0.00  0.00    +0.004 A 
ATOM     20  C13 UNL     1      -0.977   5.104 -16.910  0.00  0.00    +0.001 A 
ATOM     21  C14 UNL     1      -0.423   5.953 -17.864  0.00  0.00    +0.008 A 
ATOM     22  C15 UNL     1       0.783   6.624 -17.616  0.00  0.00    -0.018 A 
ATOM     23  C16 UNL     1       1.318   7.482 -18.592  0.00  0.00    +0.008 A 
ATOM     24  C17 UNL     1       2.509   8.169 -18.370  0.00  0.00    +0.001 A 
ATOM     25  C18 UNL     1       3.182   8.007 -17.167  0.00  0.00    +0.001 A 
ATOM     26  C19 UNL     1       2.665   7.155 -16.188  0.00  0.00    +0.009 A 
ATOM     27  C20 UNL     1       1.458   6.440 -16.381  0.00  0.00    -0.014 A 
ENDBRANCH  17  18
ENDBRANCH   2  17
TORSDOF 6
ENDMDL
MODEL 8
REMARK VINA RESULT:    -4.475      9.676     12.195
REMARK INTER + INTRA:          -9.124
REMARK INTER:                  -5.710
REMARK INTRA:                  -3.413
REMARK UNBOUND:                -3.079
REMARK  Name = /home/vital/Documents/PhD_2021/Malaria_codes/data/pdb_ligands_mmv/ligand_344.pdb
REMARK  7 active torsions:
REMARK  status: ('A' for Active; 'I' for Inactive)
REMARK    1  A    between atoms: C1_1  and  O1_2
REMARK    2  A    between atoms: O1_2  and  C2_3
REMARK    3  A    between atoms: C7_8  and  C8_9
REMARK    4  A    between atoms: C8_9  and  O3_11
REMARK    5  A    between atoms: O3_11  and  N1_12
REMARK    6  A    between atoms: C9_13  and  C10_15
REMARK    7  A    between atoms: C10_15  and  C11_16
REMARK                            x       y       z     vdW  Elec       q    Type
REMARK                         _______ _______ _______ _____ _____    ______ ____
ROOT
ATOM      1  N1  UNL     1      -1.858  -0.042 -20.237  0.00  0.00    -0.063 NA
ATOM      2  C9  UNL     1      -2.079  -0.905 -19.290  0.00  0.00    +0.137 C 
ATOM      3  N2  UNL     1      -1.168  -1.216 -18.304  0.00  0.00    -0.344 N 
ATOM      4  H8  UNL     1      -0.223  -0.929 -18.548  0.00  0.00    +0.144 HD
ATOM      5  H9  UNL     1      -1.205  -2.170 -17.956  0.00  0.00    +0.144 HD
ENDROOT
BRANCH   1   6
ATOM      6  O3  UNL     1      -0.569   0.506 -20.106  0.00  0.00    -0.310 OA
BRANCH   6   7
ATOM      7  C8  UNL     1      -0.109   0.949 -21.308  0.00  0.00    +0.370 C 
ATOM      8  O2  UNL     1       0.342   2.048 -21.593  0.00  0.00    -0.242 OA
BRANCH   7  14
ATOM      9  C2  UNL     1       0.579  -1.339 -22.169  0.00  0.00    +0.134 A 
ATOM     10  C3  UNL     1       0.489  -2.331 -23.148  0.00  0.00    +0.046 A 
ATOM     11  C4  UNL     1      -0.387  -2.176 -24.225  0.00  0.00    +0.004 A 
ATOM     12  C5  UNL     1      -1.167  -1.024 -24.329  0.00  0.00    +0.001 A 
ATOM     13  C6  UNL     1      -1.064  -0.022 -23.362  0.00  0.00    +0.019 A 
ATOM     14  C7  UNL     1      -0.175  -0.163 -22.285  0.00  0.00    +0.103 A 
BRANCH   9  16
ATOM     15  C1  UNL     1       1.236  -2.834 -20.554  0.00  0.00    +0.277 C 
ATOM     16  O1  UNL     1       1.458  -1.547 -21.136  0.00  0.00    -0.494 OA
ENDBRANCH   9  16
ENDBRANCH   7  14
ENDBRANCH   6   7
ENDBRANCH   1   6
BRANCH   2  17
ATOM     17  C10 UNL     1      -3.441  -1.594 -19.280  0.00  0.00    +0.110 C 
BRANCH  17  18
ATOM     18  C11 UNL     1      -3.962  -1.894 -20.672  0.00  0.00    -0.033 A 
ATOM     19  C12 UNL     1      -4.944  -1.028 -21.190  0.00  0.00    +0.004 A 
ATOM     20  C13 UNL     1      -5.459  -1.216 -22.465  0.00  0.00    +0.001 A 
ATOM     21  C14 UNL     1      -4.998  -2.268 -23.250  0.00  0.00    +0.008 A 
ATOM     22  C15 UNL     1      -4.014  -3.146 -22.772  0.00  0.00    -0.018 A 
ATOM     23  C16 UNL     1      -3.559  -4.196 -23.587  0.00  0.00    +0.008 A 
ATOM     24  C17 UNL     1      -2.576  -5.077 -23.143  0.00  0.00    +0.001 A 
ATOM     25  C18 UNL     1      -2.035  -4.920 -21.875  0.00  0.00    +0.001 A 
ATOM     26  C19 UNL     1      -2.479  -3.882 -21.050  0.00  0.00    +0.009 A 
ATOM     27  C20 UNL     1      -3.477  -2.970 -21.470  0.00  0.00    -0.014 A 
ENDBRANCH  17  18
ENDBRANCH   2  17
TORSDOF 6
ENDMDL
MODEL 9
REMARK VINA RESULT:    -4.362     15.851     17.923
REMARK INTER + INTRA:          -8.970
REMARK INTER:                  -5.538
REMARK INTRA:                  -3.432
REMARK UNBOUND:                -3.079
REMARK  Name = /home/vital/Documents/PhD_2021/Malaria_codes/data/pdb_ligands_mmv/ligand_344.pdb
REMARK  7 active torsions:
REMARK  status: ('A' for Active; 'I' for Inactive)
REMARK    1  A    between atoms: C1_1  and  O1_2
REMARK    2  A    between atoms: O1_2  and  C2_3
REMARK    3  A    between atoms: C7_8  and  C8_9
REMARK    4  A    between atoms: C8_9  and  O3_11
REMARK    5  A    between atoms: O3_11  and  N1_12
REMARK    6  A    between atoms: C9_13  and  C10_15
REMARK    7  A    between atoms: C10_15  and  C11_16
REMARK                            x       y       z     vdW  Elec       q    Type
REMARK                         _______ _______ _______ _____ _____    ______ ____
ROOT
ATOM      1  N1  UNL     1       0.712   3.601 -16.431  0.00  0.00    -0.063 NA
ATOM      2  C9  UNL     1       0.290   4.654 -15.797  0.00  0.00    +0.137 C 
ATOM      3  N2  UNL     1       0.605   4.940 -14.485  0.00  0.00    -0.344 N 
ATOM      4  H8  UNL     1       0.951   4.124 -13.986  0.00  0.00    +0.144 HD
ATOM      5  H9  UNL     1      -0.107   5.442 -13.963  0.00  0.00    +0.144 HD
ENDROOT
BRANCH   1   6
ATOM      6  O3  UNL     1       1.514   2.811 -15.588  0.00  0.00    -0.310 OA
BRANCH   6   7
ATOM      7  C8  UNL     1       2.487   2.181 -16.299  0.00  0.00    +0.370 C 
ATOM      8  O2  UNL     1       2.799   1.000 -16.282  0.00  0.00    -0.242 OA
BRANCH   7  14
ATOM      9  C2  UNL     1       3.994   4.173 -16.755  0.00  0.00    +0.134 A 
ATOM     10  C3  UNL     1       4.539   5.085 -17.663  0.00  0.00    +0.046 A 
ATOM     11  C4  UNL     1       4.263   4.966 -19.027  0.00  0.00    +0.004 A 
ATOM     12  C5  UNL     1       3.433   3.942 -19.484  0.00  0.00    +0.001 A 
ATOM     13  C6  UNL     1       2.871   3.042 -18.576  0.00  0.00    +0.019 A 
ATOM     14  C7  UNL     1       3.132   3.163 -17.202  0.00  0.00    +0.103 A 
BRANCH   9  16
ATOM     15  C1  UNL     1       4.225   5.727 -15.079  0.00  0.00    +0.277 C 
ATOM     16  O1  UNL     1       4.301   4.342 -15.429  0.00  0.00    -0.494 OA
ENDBRANCH   9  16
ENDBRANCH   7  14
ENDBRANCH   6   7
ENDBRANCH   1   6
BRANCH   2  17
ATOM     17  C10 UNL     1      -0.593   5.628 -16.573  0.00  0.00    +0.110 C 
BRANCH  17  18
ATOM     18  C11 UNL     1       0.009   6.039 -17.903  0.00  0.00    -0.033 A 
ATOM     19  C12 UNL     1      -0.483   5.397 -19.055  0.00  0.00    +0.004 A 
ATOM     20  C13 UNL     1      -0.005   5.729 -20.315  0.00  0.00    +0.001 A 
ATOM     21  C14 UNL     1       0.968   6.714 -20.449  0.00  0.00    +0.008 A 
ATOM     22  C15 UNL     1       1.476   7.382 -19.325  0.00  0.00    -0.018 A 
ATOM     23  C16 UNL     1       2.453   8.379 -19.487  0.00  0.00    +0.008 A 
ATOM     24  C17 UNL     1       2.968   9.066 -18.391  0.00  0.00    +0.001 A 
ATOM     25  C18 UNL     1       2.513   8.764 -17.115  0.00  0.00    +0.001 A 
ATOM     26  C19 UNL     1       1.544   7.772 -16.937  0.00  0.00    +0.009 A 
ATOM     27  C20 UNL     1       1.000   7.055 -18.029  0.00  0.00    -0.014 A 
ENDBRANCH  17  18
ENDBRANCH   2  17
TORSDOF 6
ENDMDL
