MODEL 1
REMARK VINA RESULT:    -6.141      0.000      0.000
REMARK INTER + INTRA:          -8.516
REMARK INTER:                  -7.577
REMARK INTRA:                  -0.939
REMARK UNBOUND:                -0.939
REMARK  Name = /home/vital/Documents/PhD_2021/Malaria_codes/data/pdb_ligands_mmv/ligand_241.pdb
REMARK  5 active torsions:
REMARK  status: ('A' for Active; 'I' for Inactive)
REMARK    1  A    between atoms: C1_1  and  O1_2
REMARK    2  A    between atoms: O1_2  and  C2_3
REMARK    3  A    between atoms: C5_6  and  C8_9
REMARK    4  A    between atoms: C8_9  and  C9_11
REMARK    5  A    between atoms: C11_13  and  C12_14
REMARK                            x       y       z     vdW  Elec       q    Type
REMARK                         _______ _______ _______ _____ _____    ______ ____
ROOT
ATOM      1  C8  UNL     1       0.713   6.650 -19.123  0.00  0.00    +0.167 C 
ATOM      2  O2  UNL     1       1.088   5.809 -19.931  0.00  0.00    -0.292 OA
ENDROOT
BRANCH   1   6
ATOM      3  C2  UNL     1       3.317   9.796 -17.772  0.00  0.00    +0.120 A 
ATOM      4  C3  UNL     1       2.666   8.958 -16.865  0.00  0.00    +0.046 A 
ATOM      5  C4  UNL     1       1.826   7.936 -17.315  0.00  0.00    +0.015 A 
ATOM      6  C5  UNL     1       1.623   7.745 -18.686  0.00  0.00    +0.018 A 
ATOM      7  C6  UNL     1       2.279   8.582 -19.597  0.00  0.00    +0.015 A 
ATOM      8  C7  UNL     1       3.122   9.604 -19.140  0.00  0.00    +0.046 A 
BRANCH   3  10
ATOM      9  C1  UNL     1       4.481  10.555 -15.842  0.00  0.00    +0.277 C 
ATOM     10  O1  UNL     1       4.109  10.752 -17.199  0.00  0.00    -0.495 OA
ENDBRANCH   3  10
ENDBRANCH   1   6
BRANCH   1  11
ATOM     11  C9  UNL     1      -0.676   6.598 -18.580  0.00  0.00    +0.068 C 
ATOM     12  C10 UNL     1      -1.528   5.382 -18.852  0.00  0.00    +0.021 C 
ATOM     13  C11 UNL     1      -1.058   5.655 -17.446  0.00  0.00    +0.030 C 
BRANCH  13  14
ATOM     14  C12 UNL     1      -0.015   4.792 -16.769  0.00  0.00    -0.043 A 
ATOM     15  C13 UNL     1       0.528   3.643 -17.372  0.00  0.00    +0.005 A 
ATOM     16  C14 UNL     1       1.490   2.860 -16.725  0.00  0.00    +0.020 A 
ATOM     17  C15 UNL     1       1.921   3.209 -15.450  0.00  0.00    +0.041 A 
ATOM     18 CL1  UNL     1       3.103   2.249 -14.650  0.00  0.00    -0.084 Cl
ATOM     19  C16 UNL     1       1.392   4.328 -14.818  0.00  0.00    +0.020 A 
ATOM     20  C17 UNL     1       0.430   5.104 -15.472  0.00  0.00    +0.005 A 
ENDBRANCH  13  14
ENDBRANCH   1  11
TORSDOF 4
ENDMDL
MODEL 2
REMARK VINA RESULT:    -5.949     15.901     17.678
REMARK INTER + INTRA:          -8.279
REMARK INTER:                  -7.276
REMARK INTRA:                  -1.002
REMARK UNBOUND:                -0.939
REMARK  Name = /home/vital/Documents/PhD_2021/Malaria_codes/data/pdb_ligands_mmv/ligand_241.pdb
REMARK  5 active torsions:
REMARK  status: ('A' for Active; 'I' for Inactive)
REMARK    1  A    between atoms: C1_1  and  O1_2
REMARK    2  A    between atoms: O1_2  and  C2_3
REMARK    3  A    between atoms: C5_6  and  C8_9
REMARK    4  A    between atoms: C8_9  and  C9_11
REMARK    5  A    between atoms: C11_13  and  C12_14
REMARK                            x       y       z     vdW  Elec       q    Type
REMARK                         _______ _______ _______ _____ _____    ______ ____
ROOT
ATOM      1  C8  UNL     1       5.786  -3.680 -30.333  0.00  0.00    +0.167 C 
ATOM      2  O2  UNL     1       6.581  -4.182 -31.118  0.00  0.00    -0.292 OA
ENDROOT
BRANCH   1   6
ATOM      3  C2  UNL     1       5.711  -4.982 -26.234  0.00  0.00    +0.120 A 
ATOM      4  C3  UNL     1       6.907  -4.612 -26.853  0.00  0.00    +0.046 A 
ATOM      5  C4  UNL     1       6.919  -4.186 -28.183  0.00  0.00    +0.015 A 
ATOM      6  C5  UNL     1       5.729  -4.131 -28.915  0.00  0.00    +0.018 A 
ATOM      7  C6  UNL     1       4.528  -4.497 -28.295  0.00  0.00    +0.015 A 
ATOM      8  C7  UNL     1       4.521  -4.922 -26.959  0.00  0.00    +0.046 A 
BRANCH   3  10
ATOM      9  C1  UNL     1       6.876  -4.769 -24.171  0.00  0.00    +0.277 C 
ATOM     10  O1  UNL     1       5.841  -5.377 -24.932  0.00  0.00    -0.495 OA
ENDBRANCH   3  10
ENDBRANCH   1   6
BRANCH   1  11
ATOM     11  C9  UNL     1       4.874  -2.590 -30.788  0.00  0.00    +0.068 C 
ATOM     12  C10 UNL     1       4.820  -2.238 -32.254  0.00  0.00    +0.021 C 
ATOM     13  C11 UNL     1       3.622  -2.881 -31.604  0.00  0.00    +0.030 C 
BRANCH  13  14
ATOM     14  C12 UNL     1       3.210  -4.304 -31.914  0.00  0.00    -0.043 A 
ATOM     15  C13 UNL     1       3.718  -5.020 -33.012  0.00  0.00    +0.005 A 
ATOM     16  C14 UNL     1       3.321  -6.335 -33.279  0.00  0.00    +0.020 A 
ATOM     17  C15 UNL     1       2.393  -6.958 -32.451  0.00  0.00    +0.041 A 
ATOM     18 CL1  UNL     1       1.902  -8.573 -32.775  0.00  0.00    -0.084 Cl
ATOM     19  C16 UNL     1       1.858  -6.273 -31.367  0.00  0.00    +0.020 A 
ATOM     20  C17 UNL     1       2.260  -4.959 -31.109  0.00  0.00    +0.005 A 
ENDBRANCH  13  14
ENDBRANCH   1  11
TORSDOF 4
ENDMDL
MODEL 3
REMARK VINA RESULT:    -5.892     11.332     13.671
REMARK INTER + INTRA:          -8.209
REMARK INTER:                  -6.931
REMARK INTRA:                  -1.278
REMARK UNBOUND:                -0.939
REMARK  Name = /home/vital/Documents/PhD_2021/Malaria_codes/data/pdb_ligands_mmv/ligand_241.pdb
REMARK  5 active torsions:
REMARK  status: ('A' for Active; 'I' for Inactive)
REMARK    1  A    between atoms: C1_1  and  O1_2
REMARK    2  A    between atoms: O1_2  and  C2_3
REMARK    3  A    between atoms: C5_6  and  C8_9
REMARK    4  A    between atoms: C8_9  and  C9_11
REMARK    5  A    between atoms: C11_13  and  C12_14
REMARK                            x       y       z     vdW  Elec       q    Type
REMARK                         _______ _______ _______ _____ _____    ______ ____
ROOT
ATOM      1  C8  UNL     1       4.988  -3.947 -24.793  0.00  0.00    +0.167 C 
ATOM      2  O2  UNL     1       4.151  -3.257 -25.362  0.00  0.00    -0.292 OA
ENDROOT
BRANCH   1   6
ATOM      3  C2  UNL     1       5.991  -3.196 -20.678  0.00  0.00    +0.120 A 
ATOM      4  C3  UNL     1       6.264  -2.254 -21.672  0.00  0.00    +0.046 A 
ATOM      5  C4  UNL     1       5.930  -2.506 -23.005  0.00  0.00    +0.015 A 
ATOM      6  C5  UNL     1       5.320  -3.714 -23.360  0.00  0.00    +0.018 A 
ATOM      7  C6  UNL     1       5.041  -4.658 -22.364  0.00  0.00    +0.015 A 
ATOM      8  C7  UNL     1       5.377  -4.398 -21.029  0.00  0.00    +0.046 A 
BRANCH   3  10
ATOM      9  C1  UNL     1       7.040  -1.576 -19.287  0.00  0.00    +0.277 C 
ATOM     10  O1  UNL     1       6.369  -2.823 -19.419  0.00  0.00    -0.495 OA
ENDBRANCH   3  10
ENDBRANCH   1   6
BRANCH   1  11
ATOM     11  C9  UNL     1       5.674  -5.049 -25.529  0.00  0.00    +0.068 C 
ATOM     12  C10 UNL     1       5.919  -4.904 -27.011  0.00  0.00    +0.021 C 
ATOM     13  C11 UNL     1       7.091  -4.895 -26.064  0.00  0.00    +0.030 C 
BRANCH  13  14
ATOM     14  C12 UNL     1       7.891  -3.638 -25.793  0.00  0.00    -0.043 A 
ATOM     15  C13 UNL     1       7.701  -2.446 -26.513  0.00  0.00    +0.005 A 
ATOM     16  C14 UNL     1       8.454  -1.298 -26.245  0.00  0.00    +0.020 A 
ATOM     17  C15 UNL     1       9.426  -1.326 -25.250  0.00  0.00    +0.041 A 
ATOM     18 CL1  UNL     1      10.354   0.083 -24.917  0.00  0.00    -0.084 Cl
ATOM     19  C16 UNL     1       9.652  -2.493 -24.531  0.00  0.00    +0.020 A 
ATOM     20  C17 UNL     1       8.896  -3.636 -24.807  0.00  0.00    +0.005 A 
ENDBRANCH  13  14
ENDBRANCH   1  11
TORSDOF 4
ENDMDL
MODEL 4
REMARK VINA RESULT:    -5.701      3.482      5.836
REMARK INTER + INTRA:          -7.974
REMARK INTER:                  -6.774
REMARK INTRA:                  -1.199
REMARK UNBOUND:                -0.939
REMARK  Name = /home/vital/Documents/PhD_2021/Malaria_codes/data/pdb_ligands_mmv/ligand_241.pdb
REMARK  5 active torsions:
REMARK  status: ('A' for Active; 'I' for Inactive)
REMARK    1  A    between atoms: C1_1  and  O1_2
REMARK    2  A    between atoms: O1_2  and  C2_3
REMARK    3  A    between atoms: C5_6  and  C8_9
REMARK    4  A    between atoms: C8_9  and  C9_11
REMARK    5  A    between atoms: C11_13  and  C12_14
REMARK                            x       y       z     vdW  Elec       q    Type
REMARK                         _______ _______ _______ _____ _____    ______ ____
ROOT
ATOM      1  C8  UNL     1       0.737   4.209 -15.769  0.00  0.00    +0.167 C 
ATOM      2  O2  UNL     1      -0.253   4.731 -15.272  0.00  0.00    -0.292 OA
ENDROOT
BRANCH   1   6
ATOM      3  C2  UNL     1       4.047   3.084 -13.263  0.00  0.00    +0.120 A 
ATOM      4  C3  UNL     1       3.252   4.191 -12.957  0.00  0.00    +0.046 A 
ATOM      5  C4  UNL     1       2.177   4.545 -13.775  0.00  0.00    +0.015 A 
ATOM      6  C5  UNL     1       1.887   3.793 -14.919  0.00  0.00    +0.018 A 
ATOM      7  C6  UNL     1       2.679   2.680 -15.224  0.00  0.00    +0.015 A 
ATOM      8  C7  UNL     1       3.756   2.329 -14.398  0.00  0.00    +0.046 A 
BRANCH   3  10
ATOM      9  C1  UNL     1       6.330   3.420 -12.684  0.00  0.00    +0.277 C 
ATOM     10  O1  UNL     1       5.064   2.850 -12.379  0.00  0.00    -0.495 OA
ENDBRANCH   3  10
ENDBRANCH   1   6
BRANCH   1  11
ATOM     11  C9  UNL     1       0.794   3.965 -17.240  0.00  0.00    +0.068 C 
ATOM     12  C10 UNL     1      -0.057   4.805 -18.161  0.00  0.00    +0.021 C 
ATOM     13  C11 UNL     1       1.442   4.960 -18.194  0.00  0.00    +0.030 C 
BRANCH  13  14
ATOM     14  C12 UNL     1       2.130   6.202 -17.670  0.00  0.00    -0.043 A 
ATOM     15  C13 UNL     1       3.470   6.206 -17.245  0.00  0.00    +0.005 A 
ATOM     16  C14 UNL     1       4.084   7.367 -16.763  0.00  0.00    +0.020 A 
ATOM     17  C15 UNL     1       3.358   8.551 -16.686  0.00  0.00    +0.041 A 
ATOM     18 CL1  UNL     1       4.108   9.981 -16.093  0.00  0.00    -0.084 Cl
ATOM     19  C16 UNL     1       2.026   8.579 -17.081  0.00  0.00    +0.020 A 
ATOM     20  C17 UNL     1       1.421   7.413 -17.560  0.00  0.00    +0.005 A 
ENDBRANCH  13  14
ENDBRANCH   1  11
TORSDOF 4
ENDMDL
MODEL 5
REMARK VINA RESULT:    -5.633     12.483     13.881
REMARK INTER + INTRA:          -7.889
REMARK INTER:                  -6.814
REMARK INTRA:                  -1.075
REMARK UNBOUND:                -0.939
REMARK  Name = /home/vital/Documents/PhD_2021/Malaria_codes/data/pdb_ligands_mmv/ligand_241.pdb
REMARK  5 active torsions:
REMARK  status: ('A' for Active; 'I' for Inactive)
REMARK    1  A    between atoms: C1_1  and  O1_2
REMARK    2  A    between atoms: O1_2  and  C2_3
REMARK    3  A    between atoms: C5_6  and  C8_9
REMARK    4  A    between atoms: C8_9  and  C9_11
REMARK    5  A    between atoms: C11_13  and  C12_14
REMARK                            x       y       z     vdW  Elec       q    Type
REMARK                         _______ _______ _______ _____ _____    ______ ____
ROOT
ATOM      1  C8  UNL     1       8.315   0.221 -24.465  0.00  0.00    +0.167 C 
ATOM      2  O2  UNL     1       7.143   0.569 -24.388  0.00  0.00    -0.292 OA
ENDROOT
BRANCH   1   6
ATOM      3  C2  UNL     1      10.409   0.596 -28.204  0.00  0.00    +0.120 A 
ATOM      4  C3  UNL     1       9.021   0.447 -28.165  0.00  0.00    +0.046 A 
ATOM      5  C4  UNL     1       8.351   0.331 -26.945  0.00  0.00    +0.015 A 
ATOM      6  C5  UNL     1       9.067   0.357 -25.744  0.00  0.00    +0.018 A 
ATOM      7  C6  UNL     1      10.458   0.512 -25.781  0.00  0.00    +0.015 A 
ATOM      8  C7  UNL     1      11.125   0.630 -27.007  0.00  0.00    +0.046 A 
BRANCH   3  10
ATOM      9  C1  UNL     1      10.734   1.927 -30.149  0.00  0.00    +0.277 C 
ATOM     10  O1  UNL     1      10.937   0.700 -29.461  0.00  0.00    -0.495 OA
ENDBRANCH   3  10
ENDBRANCH   1   6
BRANCH   1  11
ATOM     11  C9  UNL     1       9.012  -0.330 -23.266  0.00  0.00    +0.068 C 
ATOM     12  C10 UNL     1       8.192  -0.851 -22.111  0.00  0.00    +0.021 C 
ATOM     13  C11 UNL     1       8.997  -1.817 -22.942  0.00  0.00    +0.030 C 
BRANCH  13  14
ATOM     14  C12 UNL     1       8.339  -2.809 -23.878  0.00  0.00    -0.043 A 
ATOM     15  C13 UNL     1       8.933  -3.226 -25.083  0.00  0.00    +0.005 A 
ATOM     16  C14 UNL     1       8.304  -4.142 -25.932  0.00  0.00    +0.020 A 
ATOM     17  C15 UNL     1       7.056  -4.654 -25.595  0.00  0.00    +0.041 A 
ATOM     18 CL1  UNL     1       6.279  -5.780 -26.636  0.00  0.00    -0.084 Cl
ATOM     19  C16 UNL     1       6.432  -4.250 -24.420  0.00  0.00    +0.020 A 
ATOM     20  C17 UNL     1       7.068  -3.332 -23.578  0.00  0.00    +0.005 A 
ENDBRANCH  13  14
ENDBRANCH   1  11
TORSDOF 4
ENDMDL
MODEL 6
REMARK VINA RESULT:    -5.517      9.321     12.716
REMARK INTER + INTRA:          -7.746
REMARK INTER:                  -6.423
REMARK INTRA:                  -1.323
REMARK UNBOUND:                -0.939
REMARK  Name = /home/vital/Documents/PhD_2021/Malaria_codes/data/pdb_ligands_mmv/ligand_241.pdb
REMARK  5 active torsions:
REMARK  status: ('A' for Active; 'I' for Inactive)
REMARK    1  A    between atoms: C1_1  and  O1_2
REMARK    2  A    between atoms: O1_2  and  C2_3
REMARK    3  A    between atoms: C5_6  and  C8_9
REMARK    4  A    between atoms: C8_9  and  C9_11
REMARK    5  A    between atoms: C11_13  and  C12_14
REMARK                            x       y       z     vdW  Elec       q    Type
REMARK                         _______ _______ _______ _____ _____    ______ ____
ROOT
ATOM      1  C8  UNL     1      -1.371  -1.727 -21.580  0.00  0.00    +0.167 C 
ATOM      2  O2  UNL     1      -0.578  -1.039 -22.212  0.00  0.00    -0.292 OA
ENDROOT
BRANCH   1   6
ATOM      3  C2  UNL     1      -3.010  -5.300 -23.328  0.00  0.00    +0.120 A 
ATOM      4  C3  UNL     1      -3.172  -4.056 -23.941  0.00  0.00    +0.046 A 
ATOM      5  C4  UNL     1      -2.631  -2.902 -23.367  0.00  0.00    +0.015 A 
ATOM      6  C5  UNL     1      -1.924  -2.982 -22.163  0.00  0.00    +0.018 A 
ATOM      7  C6  UNL     1      -1.756  -4.229 -21.549  0.00  0.00    +0.015 A 
ATOM      8  C7  UNL     1      -2.298  -5.383 -22.131  0.00  0.00    +0.046 A 
BRANCH   3  10
ATOM      9  C1  UNL     1      -4.571  -6.025 -24.970  0.00  0.00    +0.277 C 
ATOM     10  O1  UNL     1      -3.588  -6.344 -23.994  0.00  0.00    -0.495 OA
ENDBRANCH   3  10
ENDBRANCH   1   6
BRANCH   1  11
ATOM     11  C9  UNL     1      -1.779  -1.323 -20.203  0.00  0.00    +0.068 C 
ATOM     12  C10 UNL     1      -1.916   0.144 -19.876  0.00  0.00    +0.021 C 
ATOM     13  C11 UNL     1      -3.149  -0.722 -19.917  0.00  0.00    +0.030 C 
BRANCH  13  14
ATOM     14  C12 UNL     1      -4.184  -0.590 -21.014  0.00  0.00    -0.043 A 
ATOM     15  C13 UNL     1      -4.190   0.479 -21.927  0.00  0.00    +0.005 A 
ATOM     16  C14 UNL     1      -5.158   0.580 -22.932  0.00  0.00    +0.020 A 
ATOM     17  C15 UNL     1      -6.151  -0.389 -23.035  0.00  0.00    +0.041 A 
ATOM     18 CL1  UNL     1      -7.344  -0.269 -24.268  0.00  0.00    -0.084 Cl
ATOM     19  C16 UNL     1      -6.185  -1.449 -22.138  0.00  0.00    +0.020 A 
ATOM     20  C17 UNL     1      -5.213  -1.541 -21.136  0.00  0.00    +0.005 A 
ENDBRANCH  13  14
ENDBRANCH   1  11
TORSDOF 4
ENDMDL
MODEL 7
REMARK VINA RESULT:    -5.460     13.020     14.485
REMARK INTER + INTRA:          -7.676
REMARK INTER:                  -6.433
REMARK INTRA:                  -1.243
REMARK UNBOUND:                -0.939
REMARK  Name = /home/vital/Documents/PhD_2021/Malaria_codes/data/pdb_ligands_mmv/ligand_241.pdb
REMARK  5 active torsions:
REMARK  status: ('A' for Active; 'I' for Inactive)
REMARK    1  A    between atoms: C1_1  and  O1_2
REMARK    2  A    between atoms: O1_2  and  C2_3
REMARK    3  A    between atoms: C5_6  and  C8_9
REMARK    4  A    between atoms: C8_9  and  C9_11
REMARK    5  A    between atoms: C11_13  and  C12_14
REMARK                            x       y       z     vdW  Elec       q    Type
REMARK                         _______ _______ _______ _____ _____    ______ ____
ROOT
ATOM      1  C8  UNL     1       6.646  -2.686 -23.984  0.00  0.00    +0.167 C 
ATOM      2  O2  UNL     1       5.618  -2.162 -23.573  0.00  0.00    -0.292 OA
ENDROOT
BRANCH   1   6
ATOM      3  C2  UNL     1       9.571  -0.452 -26.212  0.00  0.00    +0.120 A 
ATOM      4  C3  UNL     1       9.953  -1.331 -25.196  0.00  0.00    +0.046 A 
ATOM      5  C4  UNL     1       8.995  -2.055 -24.482  0.00  0.00    +0.015 A 
ATOM      6  C5  UNL     1       7.636  -1.902 -24.775  0.00  0.00    +0.018 A 
ATOM      7  C6  UNL     1       7.251  -1.025 -25.797  0.00  0.00    +0.015 A 
ATOM      8  C7  UNL     1       8.217  -0.303 -26.511  0.00  0.00    +0.046 A 
BRANCH   3  10
ATOM      9  C1  UNL     1      10.415   0.575 -28.185  0.00  0.00    +0.277 C 
ATOM     10  O1  UNL     1      10.607   0.191 -26.830  0.00  0.00    -0.495 OA
ENDBRANCH   3  10
ENDBRANCH   1   6
BRANCH   1  11
ATOM     11  C9  UNL     1       6.929  -4.119 -23.680  0.00  0.00    +0.068 C 
ATOM     12  C10 UNL     1       5.776  -5.077 -23.504  0.00  0.00    +0.021 C 
ATOM     13  C11 UNL     1       6.680  -5.220 -24.702  0.00  0.00    +0.030 C 
BRANCH  13  14
ATOM     14  C12 UNL     1       6.212  -4.888 -26.103  0.00  0.00    -0.043 A 
ATOM     15  C13 UNL     1       7.097  -4.520 -27.132  0.00  0.00    +0.005 A 
ATOM     16  C14 UNL     1       6.640  -4.216 -28.419  0.00  0.00    +0.020 A 
ATOM     17  C15 UNL     1       5.278  -4.264 -28.698  0.00  0.00    +0.041 A 
ATOM     18 CL1  UNL     1       4.711  -3.890 -30.278  0.00  0.00    -0.084 Cl
ATOM     19  C16 UNL     1       4.374  -4.607 -27.699  0.00  0.00    +0.020 A 
ATOM     20  C17 UNL     1       4.841  -4.908 -26.416  0.00  0.00    +0.005 A 
ENDBRANCH  13  14
ENDBRANCH   1  11
TORSDOF 4
ENDMDL
MODEL 8
REMARK VINA RESULT:    -5.439     19.154     21.353
REMARK INTER + INTRA:          -7.650
REMARK INTER:                  -6.526
REMARK INTRA:                  -1.124
REMARK UNBOUND:                -0.939
REMARK  Name = /home/vital/Documents/PhD_2021/Malaria_codes/data/pdb_ligands_mmv/ligand_241.pdb
REMARK  5 active torsions:
REMARK  status: ('A' for Active; 'I' for Inactive)
REMARK    1  A    between atoms: C1_1  and  O1_2
REMARK    2  A    between atoms: O1_2  and  C2_3
REMARK    3  A    between atoms: C5_6  and  C8_9
REMARK    4  A    between atoms: C8_9  and  C9_11
REMARK    5  A    between atoms: C11_13  and  C12_14
REMARK                            x       y       z     vdW  Elec       q    Type
REMARK                         _______ _______ _______ _____ _____    ______ ____
ROOT
ATOM      1  C8  UNL     1       0.900  -6.047 -31.512  0.00  0.00    +0.167 C 
ATOM      2  O2  UNL     1       0.655  -5.027 -30.881  0.00  0.00    -0.292 OA
ENDROOT
BRANCH   1   6
ATOM      3  C2  UNL     1      -2.156  -8.972 -32.289  0.00  0.00    +0.120 A 
ATOM      4  C3  UNL     1      -1.194  -9.179 -31.298  0.00  0.00    +0.046 A 
ATOM      5  C4  UNL     1      -0.209  -8.220 -31.051  0.00  0.00    +0.015 A 
ATOM      6  C5  UNL     1      -0.172  -7.040 -31.801  0.00  0.00    +0.018 A 
ATOM      7  C6  UNL     1      -1.139  -6.829 -32.792  0.00  0.00    +0.015 A 
ATOM      8  C7  UNL     1      -2.126  -7.794 -33.034  0.00  0.00    +0.046 A 
BRANCH   3  10
ATOM      9  C1  UNL     1      -4.065  -9.831 -33.420  0.00  0.00    +0.277 C 
ATOM     10  O1  UNL     1      -3.061  -9.988 -32.426  0.00  0.00    -0.495 OA
ENDBRANCH   3  10
ENDBRANCH   1   6
BRANCH   1  11
ATOM     11  C9  UNL     1       2.281  -6.300 -32.017  0.00  0.00    +0.068 C 
ATOM     12  C10 UNL     1       2.469  -7.106 -33.279  0.00  0.00    +0.021 C 
ATOM     13  C11 UNL     1       2.806  -5.637 -33.284  0.00  0.00    +0.030 C 
BRANCH  13  14
ATOM     14  C12 UNL     1       1.967  -4.625 -34.035  0.00  0.00    -0.043 A 
ATOM     15  C13 UNL     1       1.942  -3.260 -33.699  0.00  0.00    +0.005 A 
ATOM     16  C14 UNL     1       1.156  -2.345 -34.408  0.00  0.00    +0.020 A 
ATOM     17  C15 UNL     1       0.368  -2.784 -35.466  0.00  0.00    +0.041 A 
ATOM     18 CL1  UNL     1      -0.599  -1.662 -36.339  0.00  0.00    -0.084 Cl
ATOM     19  C16 UNL     1       0.355  -4.129 -35.813  0.00  0.00    +0.020 A 
ATOM     20  C17 UNL     1       1.143  -5.037 -35.098  0.00  0.00    +0.005 A 
ENDBRANCH  13  14
ENDBRANCH   1  11
TORSDOF 4
ENDMDL
MODEL 9
REMARK VINA RESULT:    -5.311     18.617     20.526
REMARK INTER + INTRA:          -7.491
REMARK INTER:                  -6.157
REMARK INTRA:                  -1.335
REMARK UNBOUND:                -0.939
REMARK  Name = /home/vital/Documents/PhD_2021/Malaria_codes/data/pdb_ligands_mmv/ligand_241.pdb
REMARK  5 active torsions:
REMARK  status: ('A' for Active; 'I' for Inactive)
REMARK    1  A    between atoms: C1_1  and  O1_2
REMARK    2  A    between atoms: O1_2  and  C2_3
REMARK    3  A    between atoms: C5_6  and  C8_9
REMARK    4  A    between atoms: C8_9  and  C9_11
REMARK    5  A    between atoms: C11_13  and  C12_14
REMARK                            x       y       z     vdW  Elec       q    Type
REMARK                         _______ _______ _______ _____ _____    ______ ____
ROOT
ATOM      1  C8  UNL     1       1.854  -3.039 -33.113  0.00  0.00    +0.167 C 
ATOM      2  O2  UNL     1       1.638  -2.272 -32.183  0.00  0.00    -0.292 OA
ENDROOT
BRANCH   1   6
ATOM      3  C2  UNL     1      -1.372  -4.304 -35.661  0.00  0.00    +0.120 A 
ATOM      4  C3  UNL     1      -1.471  -4.393 -34.271  0.00  0.00    +0.046 A 
ATOM      5  C4  UNL     1      -0.419  -3.975 -33.453  0.00  0.00    +0.015 A 
ATOM      6  C5  UNL     1       0.753  -3.465 -34.021  0.00  0.00    +0.018 A 
ATOM      7  C6  UNL     1       0.853  -3.371 -35.414  0.00  0.00    +0.015 A 
ATOM      8  C7  UNL     1      -0.207  -3.790 -36.230  0.00  0.00    +0.046 A 
BRANCH   3  10
ATOM      9  C1  UNL     1      -3.027  -5.991 -35.935  0.00  0.00    +0.277 C 
ATOM     10  O1  UNL     1      -2.472  -4.747 -36.342  0.00  0.00    -0.495 OA
ENDBRANCH   3  10
ENDBRANCH   1   6
BRANCH   1  11
ATOM     11  C9  UNL     1       3.237  -3.542 -33.361  0.00  0.00    +0.068 C 
ATOM     12  C10 UNL     1       4.076  -3.998 -32.192  0.00  0.00    +0.021 C 
ATOM     13  C11 UNL     1       3.596  -5.013 -33.197  0.00  0.00    +0.030 C 
BRANCH  13  14
ATOM     14  C12 UNL     1       2.536  -6.038 -32.857  0.00  0.00    -0.043 A 
ATOM     15  C13 UNL     1       2.054  -6.227 -31.549  0.00  0.00    +0.005 A 
ATOM     16  C14 UNL     1       1.074  -7.183 -31.259  0.00  0.00    +0.020 A 
ATOM     17  C15 UNL     1       0.562  -7.979 -32.278  0.00  0.00    +0.041 A 
ATOM     18 CL1  UNL     1      -0.642  -9.155 -31.926  0.00  0.00    -0.084 Cl
ATOM     19  C16 UNL     1       1.028  -7.830 -33.579  0.00  0.00    +0.020 A 
ATOM     20  C17 UNL     1       2.009  -6.873 -33.859  0.00  0.00    +0.005 A 
ENDBRANCH  13  14
ENDBRANCH   1  11
TORSDOF 4
ENDMDL
