MODEL 1
REMARK VINA RESULT:    -4.430      0.000      0.000
REMARK INTER + INTRA:          -9.499
REMARK INTER:                  -5.984
REMARK INTRA:                  -3.515
REMARK UNBOUND:                -3.515
REMARK  Name = /home/vital/Documents/PhD_2021/Malaria_codes/data/pdb_ligands_mmv/ligand_255.pdb
REMARK  6 active torsions:
REMARK  status: ('A' for Active; 'I' for Inactive)
REMARK    1  A    between atoms: C6_8  and  C10_12
REMARK    2  A    between atoms: N1_14  and  C11_15
REMARK    3  A    between atoms: C11_15  and  C12_16
REMARK    4  A    between atoms: C12_16  and  C13_17
REMARK    5  A    between atoms: C13_17  and  N2_18
REMARK    6  A    between atoms: C16_21  and  N3_24
REMARK                            x       y       z     vdW  Elec       q    Type
REMARK                         _______ _______ _______ _____ _____    ______ ____
ROOT
ATOM      1  C10 UNL     1       3.811   9.099 -18.703  0.00  0.00    +0.243 C 
ATOM      2  O2  UNL     1       4.869   9.530 -18.260  0.00  0.00    -0.270 OA
ATOM      3  N1  UNL     1       3.293   9.474 -19.922  0.00  0.00    -0.311 N 
ATOM      4  H7  UNL     1       2.317   9.301 -20.111  0.00  0.00    +0.149 HD
ENDROOT
BRANCH   1  12
ATOM      5 BR1  UNL     1      -2.756   5.041 -18.072  0.00  0.00    -0.050 Br
ATOM      6  C1  UNL     1      -1.091   5.623 -17.393  0.00  0.00    +0.019 A 
ATOM      7  C2  UNL     1      -0.663   5.180 -16.142  0.00  0.00    +0.019 A 
ATOM      8  C3  UNL     1       0.565   5.613 -15.641  0.00  0.00    +0.047 A 
ATOM      9  C4  UNL     1       1.363   6.476 -16.393  0.00  0.00    +0.128 A 
ATOM     10  O1  UNL     1       2.539   6.868 -15.819  0.00  0.00    -0.487 OA
ATOM     11  C5  UNL     1       3.501   7.516 -16.668  0.00  0.00    +0.269 C 
ATOM     12  C6  UNL     1       2.984   8.126 -17.934  0.00  0.00    +0.052 C 
ATOM     13  C7  UNL     1       1.755   7.858 -18.399  0.00  0.00    +0.023 C 
ATOM     14  C8  UNL     1       0.930   6.926 -17.645  0.00  0.00    +0.018 A 
ATOM     15  C9  UNL     1      -0.304   6.496 -18.145  0.00  0.00    +0.026 A 
ENDBRANCH   1  12
BRANCH   3  16
ATOM     16  C11 UNL     1       3.921  10.528 -20.702  0.00  0.00    +0.106 C 
BRANCH  16  17
ATOM     17  C12 UNL     1       4.450   9.982 -22.027  0.00  0.00    +0.034 C 
BRANCH  17  18
ATOM     18  C13 UNL     1       3.411   9.133 -22.769  0.00  0.00    +0.086 C 
BRANCH  18  19
ATOM     19  N2  UNL     1       2.934   7.969 -22.002  0.00  0.00    -0.302 NA
ATOM     20  C14 UNL     1       3.914   6.872 -21.995  0.00  0.00    +0.086 C 
ATOM     21  C15 UNL     1       3.423   5.686 -21.160  0.00  0.00    +0.034 C 
ATOM     22  C16 UNL     1       2.071   5.177 -21.681  0.00  0.00    +0.059 C 
ATOM     23  C17 UNL     1       1.073   6.344 -21.728  0.00  0.00    +0.034 C 
ATOM     24  C18 UNL     1       1.642   7.509 -22.541  0.00  0.00    +0.086 C 
BRANCH  22  25
ATOM     25  N3  UNL     1       1.502   4.026 -20.953  0.00  0.00    -0.299 NA
ATOM     26  C19 UNL     1       2.160   3.805 -19.655  0.00  0.00    +0.084 C 
ATOM     27  C20 UNL     1       1.343   2.944 -18.681  0.00  0.00    +0.015 C 
ATOM     28  C21 UNL     1       0.501   1.916 -19.421  0.00  0.00    +0.002 C 
ATOM     29  C22 UNL     1      -0.421   2.593 -20.439  0.00  0.00    +0.015 C 
ATOM     30  C23 UNL     1       0.046   3.998 -20.842  0.00  0.00    +0.084 C 
ENDBRANCH  22  25
ENDBRANCH  18  19
ENDBRANCH  17  18
ENDBRANCH  16  17
ENDBRANCH   3  16
TORSDOF 6
ENDMDL
MODEL 2
REMARK VINA RESULT:    -4.120      3.108      6.302
REMARK INTER + INTRA:          -9.081
REMARK INTER:                  -5.591
REMARK INTRA:                  -3.490
REMARK UNBOUND:                -3.515
REMARK  Name = /home/vital/Documents/PhD_2021/Malaria_codes/data/pdb_ligands_mmv/ligand_255.pdb
REMARK  6 active torsions:
REMARK  status: ('A' for Active; 'I' for Inactive)
REMARK    1  A    between atoms: C6_8  and  C10_12
REMARK    2  A    between atoms: N1_14  and  C11_15
REMARK    3  A    between atoms: C11_15  and  C12_16
REMARK    4  A    between atoms: C12_16  and  C13_17
REMARK    5  A    between atoms: C13_17  and  N2_18
REMARK    6  A    between atoms: C16_21  and  N3_24
REMARK                            x       y       z     vdW  Elec       q    Type
REMARK                         _______ _______ _______ _____ _____    ______ ____
ROOT
ATOM      1  C10 UNL     1       0.962   6.808 -17.075  0.00  0.00    +0.243 C 
ATOM      2  O2  UNL     1      -0.070   6.331 -17.535  0.00  0.00    -0.270 OA
ATOM      3  N1  UNL     1       1.460   6.476 -15.836  0.00  0.00    -0.311 N 
ATOM      4  H7  UNL     1       2.145   7.081 -15.407  0.00  0.00    +0.149 HD
ENDROOT
BRANCH   1  12
ATOM      5 BR1  UNL     1       3.726   9.297 -23.868  0.00  0.00    -0.050 Br
ATOM      6  C1  UNL     1       3.605   9.402 -21.985  0.00  0.00    +0.019 A 
ATOM      7  C2  UNL     1       4.313  10.391 -21.301  0.00  0.00    +0.019 A 
ATOM      8  C3  UNL     1       4.225  10.465 -19.911  0.00  0.00    +0.047 A 
ATOM      9  C4  UNL     1       3.425   9.560 -19.212  0.00  0.00    +0.128 A 
ATOM     10  O1  UNL     1       3.413   9.689 -17.852  0.00  0.00    -0.487 OA
ATOM     11  C5  UNL     1       2.395   8.972 -17.133  0.00  0.00    +0.269 C 
ATOM     12  C6  UNL     1       1.762   7.811 -17.834  0.00  0.00    +0.052 C 
ATOM     13  C7  UNL     1       1.923   7.603 -19.149  0.00  0.00    +0.023 C 
ATOM     14  C8  UNL     1       2.720   8.564 -19.896  0.00  0.00    +0.018 A 
ATOM     15  C9  UNL     1       2.813   8.487 -21.290  0.00  0.00    +0.026 A 
ENDBRANCH   1  12
BRANCH   3  16
ATOM     16  C11 UNL     1       0.700   5.627 -14.933  0.00  0.00    +0.106 C 
BRANCH  16  17
ATOM     17  C12 UNL     1       1.630   4.752 -14.096  0.00  0.00    +0.034 C 
BRANCH  17  18
ATOM     18  C13 UNL     1       2.435   3.766 -14.951  0.00  0.00    +0.086 C 
BRANCH  18  19
ATOM     19  N2  UNL     1       3.018   4.366 -16.163  0.00  0.00    -0.302 NA
ATOM     20  C14 UNL     1       2.964   3.450 -17.314  0.00  0.00    +0.086 C 
ATOM     21  C15 UNL     1       3.534   4.100 -18.577  0.00  0.00    +0.034 C 
ATOM     22  C16 UNL     1       4.980   4.563 -18.344  0.00  0.00    +0.059 C 
ATOM     23  C17 UNL     1       5.028   5.479 -17.112  0.00  0.00    +0.034 C 
ATOM     24  C18 UNL     1       4.406   4.785 -15.898  0.00  0.00    +0.086 C 
BRANCH  22  25
ATOM     25  N3  UNL     1       5.636   5.202 -19.502  0.00  0.00    -0.299 NA
ATOM     26  C19 UNL     1       4.963   4.886 -20.772  0.00  0.00    +0.084 C 
ATOM     27  C20 UNL     1       5.304   5.852 -21.915  0.00  0.00    +0.015 C 
ATOM     28  C21 UNL     1       6.723   6.385 -21.787  0.00  0.00    +0.002 C 
ATOM     29  C22 UNL     1       6.933   7.065 -20.431  0.00  0.00    +0.015 C 
ATOM     30  C23 UNL     1       5.916   6.629 -19.369  0.00  0.00    +0.084 C 
ENDBRANCH  22  25
ENDBRANCH  18  19
ENDBRANCH  17  18
ENDBRANCH  16  17
ENDBRANCH   3  16
TORSDOF 6
ENDMDL
MODEL 3
REMARK VINA RESULT:    -4.070      3.543      5.000
REMARK INTER + INTRA:          -9.013
REMARK INTER:                  -5.070
REMARK INTRA:                  -3.943
REMARK UNBOUND:                -3.515
REMARK  Name = /home/vital/Documents/PhD_2021/Malaria_codes/data/pdb_ligands_mmv/ligand_255.pdb
REMARK  6 active torsions:
REMARK  status: ('A' for Active; 'I' for Inactive)
REMARK    1  A    between atoms: C6_8  and  C10_12
REMARK    2  A    between atoms: N1_14  and  C11_15
REMARK    3  A    between atoms: C11_15  and  C12_16
REMARK    4  A    between atoms: C12_16  and  C13_17
REMARK    5  A    between atoms: C13_17  and  N2_18
REMARK    6  A    between atoms: C16_21  and  N3_24
REMARK                            x       y       z     vdW  Elec       q    Type
REMARK                         _______ _______ _______ _____ _____    ______ ____
ROOT
ATOM      1  C10 UNL     1      -2.756   5.668 -19.946  0.00  0.00    +0.243 C 
ATOM      2  O2  UNL     1      -3.922   5.290 -19.958  0.00  0.00    -0.270 OA
ATOM      3  N1  UNL     1      -2.093   6.110 -21.068  0.00  0.00    -0.311 N 
ATOM      4  H7  UNL     1      -1.086   6.152 -21.054  0.00  0.00    +0.149 HD
ENDROOT
BRANCH   1  12
ATOM      5 BR1  UNL     1       3.838   7.491 -16.315  0.00  0.00    -0.050 Br
ATOM      6  C1  UNL     1       2.134   6.672 -16.354  0.00  0.00    +0.019 A 
ATOM      7  C2  UNL     1       1.656   6.019 -15.219  0.00  0.00    +0.019 A 
ATOM      8  C3  UNL     1       0.400   5.413 -15.251  0.00  0.00    +0.047 A 
ATOM      9  C4  UNL     1      -0.376   5.471 -16.410  0.00  0.00    +0.128 A 
ATOM     10  O1  UNL     1      -1.583   4.833 -16.362  0.00  0.00    -0.487 OA
ATOM     11  C5  UNL     1      -2.515   5.112 -17.421  0.00  0.00    +0.269 C 
ATOM     12  C6  UNL     1      -1.950   5.666 -18.691  0.00  0.00    +0.052 C 
ATOM     13  C7  UNL     1      -0.697   6.138 -18.764  0.00  0.00    +0.023 C 
ATOM     14  C8  UNL     1       0.107   6.121 -17.550  0.00  0.00    +0.018 A 
ATOM     15  C9  UNL     1       1.369   6.724 -17.520  0.00  0.00    +0.026 A 
ENDBRANCH   1  12
BRANCH   3  16
ATOM     16  C11 UNL     1      -2.714   6.020 -22.380  0.00  0.00    +0.106 C 
BRANCH  16  17
ATOM     17  C12 UNL     1      -2.301   4.733 -23.090  0.00  0.00    +0.034 C 
BRANCH  17  18
ATOM     18  C13 UNL     1      -0.779   4.591 -23.211  0.00  0.00    +0.086 C 
BRANCH  18  19
ATOM     19  N2  UNL     1      -0.100   4.337 -21.928  0.00  0.00    -0.302 NA
ATOM     20  C14 UNL     1       1.344   4.610 -22.004  0.00  0.00    +0.086 C 
ATOM     21  C15 UNL     1       2.030   4.382 -20.654  0.00  0.00    +0.034 C 
ATOM     22  C16 UNL     1       1.794   2.948 -20.160  0.00  0.00    +0.059 C 
ATOM     23  C17 UNL     1       0.285   2.662 -20.132  0.00  0.00    +0.034 C 
ATOM     24  C18 UNL     1      -0.344   2.949 -21.498  0.00  0.00    +0.086 C 
BRANCH  22  25
ATOM     25  N3  UNL     1       2.418   2.612 -18.865  0.00  0.00    -0.299 NA
ATOM     26  C19 UNL     1       3.572   3.472 -18.559  0.00  0.00    +0.084 C 
ATOM     27  C20 UNL     1       3.968   3.481 -17.076  0.00  0.00    +0.015 C 
ATOM     28  C21 UNL     1       3.676   2.142 -16.416  0.00  0.00    +0.002 C 
ATOM     29  C22 UNL     1       2.202   1.760 -16.575  0.00  0.00    +0.015 C 
ATOM     30  C23 UNL     1       1.506   2.492 -17.730  0.00  0.00    +0.084 C 
ENDBRANCH  22  25
ENDBRANCH  18  19
ENDBRANCH  17  18
ENDBRANCH  16  17
ENDBRANCH   3  16
TORSDOF 6
ENDMDL
MODEL 4
REMARK VINA RESULT:    -4.039     14.981     17.214
REMARK INTER + INTRA:          -8.971
REMARK INTER:                  -5.060
REMARK INTRA:                  -3.911
REMARK UNBOUND:                -3.515
REMARK  Name = /home/vital/Documents/PhD_2021/Malaria_codes/data/pdb_ligands_mmv/ligand_255.pdb
REMARK  6 active torsions:
REMARK  status: ('A' for Active; 'I' for Inactive)
REMARK    1  A    between atoms: C6_8  and  C10_12
REMARK    2  A    between atoms: N1_14  and  C11_15
REMARK    3  A    between atoms: C11_15  and  C12_16
REMARK    4  A    between atoms: C12_16  and  C13_17
REMARK    5  A    between atoms: C13_17  and  N2_18
REMARK    6  A    between atoms: C16_21  and  N3_24
REMARK                            x       y       z     vdW  Elec       q    Type
REMARK                         _______ _______ _______ _____ _____    ______ ____
ROOT
ATOM      1  C10 UNL     1      -0.211   0.095 -32.664  0.00  0.00    +0.243 C 
ATOM      2  O2  UNL     1      -1.045   0.761 -32.061  0.00  0.00    -0.270 OA
ATOM      3  N1  UNL     1      -0.002   0.195 -34.020  0.00  0.00    -0.311 N 
ATOM      4  H7  UNL     1       0.493  -0.547 -34.493  0.00  0.00    +0.149 HD
ENDROOT
BRANCH   1  12
ATOM      5 BR1  UNL     1       5.690  -4.915 -32.929  0.00  0.00    -0.050 Br
ATOM      6  C1  UNL     1       4.240  -4.102 -32.029  0.00  0.00    +0.019 A 
ATOM      7  C2  UNL     1       3.942  -4.476 -30.719  0.00  0.00    +0.019 A 
ATOM      8  C3  UNL     1       2.870  -3.877 -30.058  0.00  0.00    +0.047 A 
ATOM      9  C4  UNL     1       2.108  -2.902 -30.702  0.00  0.00    +0.128 A 
ATOM     10  O1  UNL     1       1.063  -2.383 -29.990  0.00  0.00    -0.487 OA
ATOM     11  C5  UNL     1       0.443  -1.193 -30.506  0.00  0.00    +0.269 C 
ATOM     12  C6  UNL     1       0.648  -0.899 -31.960  0.00  0.00    +0.052 C 
ATOM     13  C7  UNL     1       1.571  -1.542 -32.690  0.00  0.00    +0.023 C 
ATOM     14  C8  UNL     1       2.401  -2.531 -32.018  0.00  0.00    +0.018 A 
ATOM     15  C9  UNL     1       3.474  -3.136 -32.683  0.00  0.00    +0.026 A 
ENDBRANCH   1  12
BRANCH   3  16
ATOM     16  C11 UNL     1      -0.873   1.014 -34.847  0.00  0.00    +0.106 C 
BRANCH  16  17
ATOM     17  C12 UNL     1      -1.994   0.174 -35.455  0.00  0.00    +0.034 C 
BRANCH  17  18
ATOM     18  C13 UNL     1      -1.463  -0.990 -36.300  0.00  0.00    +0.086 C 
BRANCH  18  19
ATOM     19  N2  UNL     1      -0.808  -2.049 -35.512  0.00  0.00    -0.302 NA
ATOM     20  C14 UNL     1       0.093  -2.872 -36.335  0.00  0.00    +0.086 C 
ATOM     21  C15 UNL     1       0.799  -3.941 -35.496  0.00  0.00    +0.034 C 
ATOM     22  C16 UNL     1      -0.225  -4.837 -34.783  0.00  0.00    +0.059 C 
ATOM     23  C17 UNL     1      -1.186  -3.959 -33.968  0.00  0.00    +0.034 C 
ATOM     24  C18 UNL     1      -1.825  -2.888 -34.855  0.00  0.00    +0.086 C 
BRANCH  22  25
ATOM     25  N3  UNL     1       0.346  -5.911 -33.947  0.00  0.00    -0.299 NA
ATOM     26  C19 UNL     1       1.674  -6.339 -34.414  0.00  0.00    +0.084 C 
ATOM     27  C20 UNL     1       2.490  -7.100 -33.360  0.00  0.00    +0.015 C 
ATOM     28  C21 UNL     1       1.589  -7.902 -32.433  0.00  0.00    +0.002 C 
ATOM     29  C22 UNL     1       0.552  -7.000 -31.759  0.00  0.00    +0.015 C 
ATOM     30  C23 UNL     1       0.318  -5.680 -32.505  0.00  0.00    +0.084 C 
ENDBRANCH  22  25
ENDBRANCH  18  19
ENDBRANCH  17  18
ENDBRANCH  16  17
ENDBRANCH   3  16
TORSDOF 6
ENDMDL
MODEL 5
REMARK VINA RESULT:    -3.978     14.180     16.701
REMARK INTER + INTRA:          -8.889
REMARK INTER:                  -4.974
REMARK INTRA:                  -3.915
REMARK UNBOUND:                -3.515
REMARK  Name = /home/vital/Documents/PhD_2021/Malaria_codes/data/pdb_ligands_mmv/ligand_255.pdb
REMARK  6 active torsions:
REMARK  status: ('A' for Active; 'I' for Inactive)
REMARK    1  A    between atoms: C6_8  and  C10_12
REMARK    2  A    between atoms: N1_14  and  C11_15
REMARK    3  A    between atoms: C11_15  and  C12_16
REMARK    4  A    between atoms: C12_16  and  C13_17
REMARK    5  A    between atoms: C13_17  and  N2_18
REMARK    6  A    between atoms: C16_21  and  N3_24
REMARK                            x       y       z     vdW  Elec       q    Type
REMARK                         _______ _______ _______ _____ _____    ______ ____
ROOT
ATOM      1  C10 UNL     1       5.825  -2.872 -32.005  0.00  0.00    +0.243 C 
ATOM      2  O2  UNL     1       6.966  -3.206 -31.705  0.00  0.00    -0.270 OA
ATOM      3  N1  UNL     1       5.335  -1.601 -31.815  0.00  0.00    -0.311 N 
ATOM      4  H7  UNL     1       4.337  -1.456 -31.828  0.00  0.00    +0.149 HD
ENDROOT
BRANCH   1  12
ATOM      5 BR1  UNL     1      -1.041  -4.174 -35.345  0.00  0.00    -0.050 Br
ATOM      6  C1  UNL     1       0.588  -4.783 -34.603  0.00  0.00    +0.019 A 
ATOM      7  C2  UNL     1       0.862  -6.149 -34.565  0.00  0.00    +0.019 A 
ATOM      8  C3  UNL     1       2.063  -6.597 -34.015  0.00  0.00    +0.047 A 
ATOM      9  C4  UNL     1       2.988  -5.679 -33.515  0.00  0.00    +0.128 A 
ATOM     10  O1  UNL     1       4.128  -6.203 -32.974  0.00  0.00    -0.487 OA
ATOM     11  C5  UNL     1       5.211  -5.293 -32.715  0.00  0.00    +0.269 C 
ATOM     12  C6  UNL     1       4.862  -3.842 -32.600  0.00  0.00    +0.052 C 
ATOM     13  C7  UNL     1       3.667  -3.367 -32.983  0.00  0.00    +0.023 C 
ATOM     14  C8  UNL     1       2.710  -4.309 -33.546  0.00  0.00    +0.018 A 
ATOM     15  C9  UNL     1       1.503  -3.861 -34.094  0.00  0.00    +0.026 A 
ENDBRANCH   1  12
BRANCH   3  16
ATOM     16  C11 UNL     1       6.118  -0.602 -31.106  0.00  0.00    +0.106 C 
BRANCH  16  17
ATOM     17  C12 UNL     1       5.862  -0.676 -29.602  0.00  0.00    +0.034 C 
BRANCH  17  18
ATOM     18  C13 UNL     1       4.379  -0.512 -29.251  0.00  0.00    +0.086 C 
BRANCH  18  19
ATOM     19  N2  UNL     1       3.537  -1.645 -29.673  0.00  0.00    -0.302 NA
ATOM     20  C14 UNL     1       2.115  -1.276 -29.753  0.00  0.00    +0.086 C 
ATOM     21  C15 UNL     1       1.257  -2.450 -30.233  0.00  0.00    +0.034 C 
ATOM     22  C16 UNL     1       1.431  -3.664 -29.310  0.00  0.00    +0.059 C 
ATOM     23  C17 UNL     1       2.924  -4.007 -29.197  0.00  0.00    +0.034 C 
ATOM     24  C18 UNL     1       3.728  -2.782 -28.755  0.00  0.00    +0.086 C 
BRANCH  22  25
ATOM     25  N3  UNL     1       0.643  -4.858 -29.674  0.00  0.00    -0.299 NA
ATOM     26  C19 UNL     1      -0.522  -4.526 -30.510  0.00  0.00    +0.084 C 
ATOM     27  C20 UNL     1      -1.100  -5.723 -31.277  0.00  0.00    +0.015 C 
ATOM     28  C21 UNL     1      -0.923  -7.018 -30.500  0.00  0.00    +0.002 C 
ATOM     29  C22 UNL     1       0.551  -7.259 -30.164  0.00  0.00    +0.015 C 
ATOM     30  C23 UNL     1       1.402  -5.984 -30.212  0.00  0.00    +0.084 C 
ENDBRANCH  22  25
ENDBRANCH  18  19
ENDBRANCH  17  18
ENDBRANCH  16  17
ENDBRANCH   3  16
TORSDOF 6
ENDMDL
MODEL 6
REMARK VINA RESULT:    -3.961      3.664      5.295
REMARK INTER + INTRA:          -8.866
REMARK INTER:                  -5.065
REMARK INTRA:                  -3.801
REMARK UNBOUND:                -3.515
REMARK  Name = /home/vital/Documents/PhD_2021/Malaria_codes/data/pdb_ligands_mmv/ligand_255.pdb
REMARK  6 active torsions:
REMARK  status: ('A' for Active; 'I' for Inactive)
REMARK    1  A    between atoms: C6_8  and  C10_12
REMARK    2  A    between atoms: N1_14  and  C11_15
REMARK    3  A    between atoms: C11_15  and  C12_16
REMARK    4  A    between atoms: C12_16  and  C13_17
REMARK    5  A    between atoms: C13_17  and  N2_18
REMARK    6  A    between atoms: C16_21  and  N3_24
REMARK                            x       y       z     vdW  Elec       q    Type
REMARK                         _______ _______ _______ _____ _____    ______ ____
ROOT
ATOM      1  C10 UNL     1      -2.062   5.613 -17.959  0.00  0.00    +0.243 C 
ATOM      2  O2  UNL     1      -3.012   5.179 -17.318  0.00  0.00    -0.270 OA
ATOM      3  N1  UNL     1      -2.158   6.019 -19.271  0.00  0.00    -0.311 N 
ATOM      4  H7  UNL     1      -1.314   6.111 -19.816  0.00  0.00    +0.149 HD
ENDROOT
BRANCH   1  12
ATOM      5 BR1  UNL     1       3.094   3.122 -12.744  0.00  0.00    -0.050 Br
ATOM      6  C1  UNL     1       2.550   4.320 -14.101  0.00  0.00    +0.019 A 
ATOM      7  C2  UNL     1       3.405   5.346 -14.500  0.00  0.00    +0.019 A 
ATOM      8  C3  UNL     1       3.001   6.231 -15.500  0.00  0.00    +0.047 A 
ATOM      9  C4  UNL     1       1.751   6.082 -16.102  0.00  0.00    +0.128 A 
ATOM     10  O1  UNL     1       1.426   7.005 -17.056  0.00  0.00    -0.487 OA
ATOM     11  C5  UNL     1       0.287   6.718 -17.886  0.00  0.00    +0.269 C 
ATOM     12  C6  UNL     1      -0.702   5.727 -17.357  0.00  0.00    +0.052 C 
ATOM     13  C7  UNL     1      -0.427   4.940 -16.307  0.00  0.00    +0.023 C 
ATOM     14  C8  UNL     1       0.890   5.057 -15.697  0.00  0.00    +0.018 A 
ATOM     15  C9  UNL     1       1.294   4.173 -14.691  0.00  0.00    +0.026 A 
ENDBRANCH   1  12
BRANCH   3  16
ATOM     16  C11 UNL     1      -3.387   5.820 -20.021  0.00  0.00    +0.106 C 
BRANCH  16  17
ATOM     17  C12 UNL     1      -3.087   5.487 -21.481  0.00  0.00    +0.034 C 
BRANCH  17  18
ATOM     18  C13 UNL     1      -2.434   4.110 -21.646  0.00  0.00    +0.086 C 
BRANCH  18  19
ATOM     19  N2  UNL     1      -1.306   3.870 -20.729  0.00  0.00    -0.302 NA
ATOM     20  C14 UNL     1      -0.008   4.140 -21.366  0.00  0.00    +0.086 C 
ATOM     21  C15 UNL     1       1.152   3.926 -20.389  0.00  0.00    +0.034 C 
ATOM     22  C16 UNL     1       1.133   2.498 -19.825  0.00  0.00    +0.059 C 
ATOM     23  C17 UNL     1      -0.245   2.215 -19.207  0.00  0.00    +0.034 C 
ATOM     24  C18 UNL     1      -1.359   2.487 -20.220  0.00  0.00    +0.086 C 
BRANCH  22  25
ATOM     25  N3  UNL     1       2.214   2.177 -18.873  0.00  0.00    -0.299 NA
ATOM     26  C19 UNL     1       3.241   3.228 -18.817  0.00  0.00    +0.084 C 
ATOM     27  C20 UNL     1       4.120   3.175 -17.560  0.00  0.00    +0.015 C 
ATOM     28  C21 UNL     1       4.304   1.746 -17.072  0.00  0.00    +0.002 C 
ATOM     29  C22 UNL     1       2.952   1.078 -16.808  0.00  0.00    +0.015 C 
ATOM     30  C23 UNL     1       1.787   1.755 -17.542  0.00  0.00    +0.084 C 
ENDBRANCH  22  25
ENDBRANCH  18  19
ENDBRANCH  17  18
ENDBRANCH  16  17
ENDBRANCH   3  16
TORSDOF 6
ENDMDL
MODEL 7
REMARK VINA RESULT:    -3.765      6.995      9.213
REMARK INTER + INTRA:          -8.600
REMARK INTER:                  -4.865
REMARK INTRA:                  -3.736
REMARK UNBOUND:                -3.515
REMARK  Name = /home/vital/Documents/PhD_2021/Malaria_codes/data/pdb_ligands_mmv/ligand_255.pdb
REMARK  6 active torsions:
REMARK  status: ('A' for Active; 'I' for Inactive)
REMARK    1  A    between atoms: C6_8  and  C10_12
REMARK    2  A    between atoms: N1_14  and  C11_15
REMARK    3  A    between atoms: C11_15  and  C12_16
REMARK    4  A    between atoms: C12_16  and  C13_17
REMARK    5  A    between atoms: C13_17  and  N2_18
REMARK    6  A    between atoms: C16_21  and  N3_24
REMARK                            x       y       z     vdW  Elec       q    Type
REMARK                         _______ _______ _______ _____ _____    ______ ____
ROOT
ATOM      1  C10 UNL     1       9.052   0.071 -20.198  0.00  0.00    +0.243 C 
ATOM      2  O2  UNL     1       9.888   0.177 -19.308  0.00  0.00    -0.270 OA
ATOM      3  N1  UNL     1       8.890   1.002 -21.198  0.00  0.00    -0.311 N 
ATOM      4  H7  UNL     1       8.035   1.001 -21.732  0.00  0.00    +0.149 HD
ENDROOT
BRANCH   1  12
ATOM      5 BR1  UNL     1       4.344  -4.429 -24.391  0.00  0.00    -0.050 Br
ATOM      6  C1  UNL     1       5.106  -3.902 -22.743  0.00  0.00    +0.019 A 
ATOM      7  C2  UNL     1       4.752  -4.572 -21.573  0.00  0.00    +0.019 A 
ATOM      8  C3  UNL     1       5.314  -4.179 -20.357  0.00  0.00    +0.047 A 
ATOM      9  C4  UNL     1       6.231  -3.129 -20.318  0.00  0.00    +0.128 A 
ATOM     10  O1  UNL     1       6.715  -2.795 -19.084  0.00  0.00    -0.487 OA
ATOM     11  C5  UNL     1       7.858  -1.923 -19.041  0.00  0.00    +0.269 C 
ATOM     12  C6  UNL     1       8.122  -1.093 -20.258  0.00  0.00    +0.052 C 
ATOM     13  C7  UNL     1       7.507  -1.331 -21.426  0.00  0.00    +0.023 C 
ATOM     14  C8  UNL     1       6.581  -2.451 -21.491  0.00  0.00    +0.018 A 
ATOM     15  C9  UNL     1       6.014  -2.842 -22.709  0.00  0.00    +0.026 A 
ENDBRANCH   1  12
BRANCH   3  16
ATOM     16  C11 UNL     1       9.628   2.255 -21.171  0.00  0.00    +0.106 C 
BRANCH  16  17
ATOM     17  C12 UNL     1       8.699   3.439 -21.429  0.00  0.00    +0.034 C 
BRANCH  17  18
ATOM     18  C13 UNL     1       7.594   3.559 -20.373  0.00  0.00    +0.086 C 
BRANCH  18  19
ATOM     19  N2  UNL     1       6.665   2.415 -20.349  0.00  0.00    -0.302 NA
ATOM     20  C14 UNL     1       5.598   2.548 -21.354  0.00  0.00    +0.086 C 
ATOM     21  C15 UNL     1       4.666   1.334 -21.346  0.00  0.00    +0.034 C 
ATOM     22  C16 UNL     1       4.051   1.130 -19.953  0.00  0.00    +0.059 C 
ATOM     23  C17 UNL     1       5.175   1.041 -18.910  0.00  0.00    +0.034 C 
ATOM     24  C18 UNL     1       6.093   2.263 -19.000  0.00  0.00    +0.086 C 
BRANCH  22  25
ATOM     25  N3  UNL     1       3.126  -0.014 -19.829  0.00  0.00    -0.299 NA
ATOM     26  C19 UNL     1       2.711  -0.543 -21.138  0.00  0.00    +0.084 C 
ATOM     27  C20 UNL     1       2.137  -1.965 -21.083  0.00  0.00    +0.015 C 
ATOM     28  C21 UNL     1       1.417  -2.222 -19.768  0.00  0.00    +0.002 C 
ATOM     29  C22 UNL     1       2.346  -1.973 -18.576  0.00  0.00    +0.015 C 
ATOM     30  C23 UNL     1       3.543  -1.075 -18.916  0.00  0.00    +0.084 C 
ENDBRANCH  22  25
ENDBRANCH  18  19
ENDBRANCH  17  18
ENDBRANCH  16  17
ENDBRANCH   3  16
TORSDOF 6
ENDMDL
MODEL 8
REMARK VINA RESULT:    -3.746      3.726      6.197
REMARK INTER + INTRA:          -8.575
REMARK INTER:                  -4.726
REMARK INTRA:                  -3.850
REMARK UNBOUND:                -3.515
REMARK  Name = /home/vital/Documents/PhD_2021/Malaria_codes/data/pdb_ligands_mmv/ligand_255.pdb
REMARK  6 active torsions:
REMARK  status: ('A' for Active; 'I' for Inactive)
REMARK    1  A    between atoms: C6_8  and  C10_12
REMARK    2  A    between atoms: N1_14  and  C11_15
REMARK    3  A    between atoms: C11_15  and  C12_16
REMARK    4  A    between atoms: C12_16  and  C13_17
REMARK    5  A    between atoms: C13_17  and  N2_18
REMARK    6  A    between atoms: C16_21  and  N3_24
REMARK                            x       y       z     vdW  Elec       q    Type
REMARK                         _______ _______ _______ _____ _____    ______ ____
ROOT
ATOM      1  C10 UNL     1       5.336   1.131 -15.978  0.00  0.00    +0.243 C 
ATOM      2  O2  UNL     1       6.236   0.686 -15.274  0.00  0.00    -0.270 OA
ATOM      3  N1  UNL     1       5.153   0.764 -17.292  0.00  0.00    -0.311 N 
ATOM      4  H7  UNL     1       4.580   1.345 -17.885  0.00  0.00    +0.149 HD
ENDROOT
BRANCH   1  12
ATOM      5 BR1  UNL     1      -1.173   5.197 -17.024  0.00  0.00    -0.050 Br
ATOM      6  C1  UNL     1       0.379   4.771 -16.032  0.00  0.00    +0.019 A 
ATOM      7  C2  UNL     1       0.636   5.436 -14.833  0.00  0.00    +0.019 A 
ATOM      8  C3  UNL     1       1.783   5.122 -14.104  0.00  0.00    +0.047 A 
ATOM      9  C4  UNL     1       2.661   4.142 -14.568  0.00  0.00    +0.128 A 
ATOM     10  O1  UNL     1       3.771   3.913 -13.805  0.00  0.00    -0.487 OA
ATOM     11  C5  UNL     1       4.537   2.732 -14.096  0.00  0.00    +0.269 C 
ATOM     12  C6  UNL     1       4.360   2.129 -15.455  0.00  0.00    +0.052 C 
ATOM     13  C7  UNL     1       3.354   2.490 -16.265  0.00  0.00    +0.023 C 
ATOM     14  C8  UNL     1       2.407   3.480 -15.774  0.00  0.00    +0.018 A 
ATOM     15  C9  UNL     1       1.259   3.799 -16.508  0.00  0.00    +0.026 A 
ENDBRANCH   1  12
BRANCH   3  16
ATOM     16  C11 UNL     1       6.122  -0.084 -17.967  0.00  0.00    +0.106 C 
BRANCH  16  17
ATOM     17  C12 UNL     1       6.360   0.395 -19.397  0.00  0.00    +0.034 C 
BRANCH  17  18
ATOM     18  C13 UNL     1       6.944   1.811 -19.452  0.00  0.00    +0.086 C 
BRANCH  18  19
ATOM     19  N2  UNL     1       6.015   2.857 -18.990  0.00  0.00    -0.302 NA
ATOM     20  C14 UNL     1       5.158   3.356 -20.077  0.00  0.00    +0.086 C 
ATOM     21  C15 UNL     1       4.170   4.412 -19.575  0.00  0.00    +0.034 C 
ATOM     22  C16 UNL     1       4.914   5.583 -18.916  0.00  0.00    +0.059 C 
ATOM     23  C17 UNL     1       5.839   5.042 -17.816  0.00  0.00    +0.034 C 
ATOM     24  C18 UNL     1       6.770   3.963 -18.375  0.00  0.00    +0.086 C 
BRANCH  22  25
ATOM     25  N3  UNL     1       4.058   6.668 -18.398  0.00  0.00    -0.299 NA
ATOM     26  C19 UNL     1       2.738   6.698 -19.047  0.00  0.00    +0.084 C 
ATOM     27  C20 UNL     1       1.675   7.479 -18.262  0.00  0.00    +0.015 C 
ATOM     28  C21 UNL     1       2.294   8.631 -17.486  0.00  0.00    +0.002 C 
ATOM     29  C22 UNL     1       3.393   8.131 -16.545  0.00  0.00    +0.015 C 
ATOM     30  C23 UNL     1       3.957   6.761 -16.943  0.00  0.00    +0.084 C 
ENDBRANCH  22  25
ENDBRANCH  18  19
ENDBRANCH  17  18
ENDBRANCH  16  17
ENDBRANCH   3  16
TORSDOF 6
ENDMDL
