MODEL 1
REMARK VINA RESULT:    -7.878      0.000      0.000
REMARK INTER + INTRA:         -11.724
REMARK INTER:                 -10.871
REMARK INTRA:                  -0.852
REMARK UNBOUND:                -0.852
REMARK  Name = /home/vital/Documents/PhD_2021/Malaria_codes/data/pdb_ligands_mmv/ligand_396.pdb
REMARK  8 active torsions:
REMARK  status: ('A' for Active; 'I' for Inactive)
REMARK    1  A    between atoms: C1_1  and  O1_2
REMARK    2  A    between atoms: O1_2  and  C2_3
REMARK    3  A    between atoms: C5_6  and  N1_7
REMARK    4  A    between atoms: N3_11  and  N4_12
REMARK    5  A    between atoms: C8_13  and  C9_14
REMARK    6  A    between atoms: C12_17  and  O2_18
REMARK    7  A    between atoms: N6_23  and  C16_24
REMARK    8  A    between atoms: C19_27  and  N7_30
REMARK                            x       y       z     vdW  Elec       q    Type
REMARK                         _______ _______ _______ _____ _____    ______ ____
ROOT
ATOM      1  N1  UNL     1       1.095  -2.463 -33.222  0.00  0.00    -0.283 N 
ATOM      2  C6  UNL     1       2.206  -3.232 -32.881  0.00  0.00    +0.225 A 
ATOM      3  N2  UNL     1       3.377  -2.687 -32.599  0.00  0.00    -0.179 NA
ATOM      4  C7  UNL     1       4.350  -3.524 -32.258  0.00  0.00    +0.241 A 
ATOM      5  N3  UNL     1       5.634  -3.030 -31.909  0.00  0.00    -0.205 N 
ATOM      6  N5  UNL     1       4.210  -4.844 -32.214  0.00  0.00    -0.179 NA
ATOM      7  C15 UNL     1       3.003  -5.310 -32.502  0.00  0.00    +0.225 A 
ATOM      8  N6  UNL     1       2.875  -6.696 -32.421  0.00  0.00    -0.283 N 
ATOM      9  N8  UNL     1       1.981  -4.541 -32.844  0.00  0.00    -0.181 NA
ATOM     10  H6  UNL     1       0.303  -3.074 -33.362  0.00  0.00    +0.155 HD
ATOM     11  H7  UNL     1       6.047  -3.823 -31.411  0.00  0.00    +0.177 HD
ATOM     12  H14 UNL     1       3.770  -7.089 -32.157  0.00  0.00    +0.155 HD
ENDROOT
BRANCH   1  16
ATOM     13  C2  UNL     1       0.193   1.679 -33.325  0.00  0.00    +0.120 A 
ATOM     14  C3  UNL     1      -0.308   0.809 -34.288  0.00  0.00    +0.047 A 
ATOM     15  C4  UNL     1       0.013  -0.556 -34.236  0.00  0.00    +0.027 A 
ATOM     16  C5  UNL     1       0.831  -1.087 -33.221  0.00  0.00    +0.034 A 
ATOM     17  C22 UNL     1       1.332  -0.196 -32.270  0.00  0.00    +0.027 A 
ATOM     18  C23 UNL     1       1.014   1.169 -32.319  0.00  0.00    +0.047 A 
BRANCH  13  20
ATOM     19  C1  UNL     1       1.086   3.877 -33.299  0.00  0.00    +0.277 C 
ATOM     20  O1  UNL     1      -0.045   3.023 -33.251  0.00  0.00    -0.495 OA
ENDBRANCH  13  20
ENDBRANCH   1  16
BRANCH   8  21
ATOM     21  C16 UNL     1       1.781  -7.569 -32.394  0.00  0.00    +0.034 A 
ATOM     22  C17 UNL     1       1.437  -8.422 -33.451  0.00  0.00    +0.025 A 
ATOM     23  C18 UNL     1       0.344  -9.293 -33.362  0.00  0.00    +0.034 A 
ATOM     24  C19 UNL     1      -0.419  -9.327 -32.192  0.00  0.00    +0.126 A 
ATOM     25  C20 UNL     1      -0.090  -8.500 -31.115  0.00  0.00    +0.034 A 
ATOM     26  C21 UNL     1       1.007  -7.637 -31.222  0.00  0.00    +0.025 A 
BRANCH  24  27
ATOM     27  N7  UNL     1      -1.572 -10.231 -32.096  0.00  0.00    +0.056 N 
ATOM     28  O3  UNL     1      -1.386 -11.351 -31.595  0.00  0.00    -0.126 OA
ATOM     29  O4  UNL     1      -2.664  -9.823 -32.524  0.00  0.00    -0.126 OA
ENDBRANCH  24  27
ENDBRANCH   8  21
BRANCH   5  30
ATOM     30  N4  UNL     1       5.672  -1.864 -31.198  0.00  0.00    -0.188 NA
ATOM     31  C8  UNL     1       5.680  -1.938 -29.897  0.00  0.00    +0.138 C 
BRANCH  31  32
ATOM     32  C9  UNL     1       5.555  -3.101 -28.991  0.00  0.00    -0.005 A 
ATOM     33  C10 UNL     1       4.273  -3.649 -28.828  0.00  0.00    +0.013 A 
ATOM     34  C11 UNL     1       4.089  -4.784 -28.031  0.00  0.00    +0.046 A 
ATOM     35  C12 UNL     1       5.188  -5.371 -27.411  0.00  0.00    +0.117 A 
ATOM     36  C13 UNL     1       6.466  -4.845 -27.576  0.00  0.00    +0.046 A 
ATOM     37  C14 UNL     1       6.652  -3.710 -28.373  0.00  0.00    +0.013 A 
BRANCH  35  38
ATOM     38  O2  UNL     1       5.053  -6.484 -26.631  0.00  0.00    -0.507 OA
ATOM     39  H11 UNL     1       4.909  -7.249 -27.214  0.00  0.00    +0.292 HD
ENDBRANCH  35  38
ENDBRANCH  31  32
ENDBRANCH   5  30
TORSDOF 7
ENDMDL
MODEL 2
REMARK VINA RESULT:    -7.846     13.942     17.540
REMARK INTER + INTRA:         -11.679
REMARK INTER:                 -10.991
REMARK INTRA:                  -0.689
REMARK UNBOUND:                -0.852
REMARK  Name = /home/vital/Documents/PhD_2021/Malaria_codes/data/pdb_ligands_mmv/ligand_396.pdb
REMARK  8 active torsions:
REMARK  status: ('A' for Active; 'I' for Inactive)
REMARK    1  A    between atoms: C1_1  and  O1_2
REMARK    2  A    between atoms: O1_2  and  C2_3
REMARK    3  A    between atoms: C5_6  and  N1_7
REMARK    4  A    between atoms: N3_11  and  N4_12
REMARK    5  A    between atoms: C8_13  and  C9_14
REMARK    6  A    between atoms: C12_17  and  O2_18
REMARK    7  A    between atoms: N6_23  and  C16_24
REMARK    8  A    between atoms: C19_27  and  N7_30
REMARK                            x       y       z     vdW  Elec       q    Type
REMARK                         _______ _______ _______ _____ _____    ______ ____
ROOT
ATOM      1  N1  UNL     1      -1.790   1.534 -19.421  0.00  0.00    -0.283 N 
ATOM      2  C6  UNL     1      -1.544   2.905 -19.379  0.00  0.00    +0.225 A 
ATOM      3  N2  UNL     1      -2.191   3.759 -20.155  0.00  0.00    -0.179 NA
ATOM      4  C7  UNL     1      -1.889   5.042 -19.999  0.00  0.00    +0.241 A 
ATOM      5  N3  UNL     1      -2.553   6.035 -20.765  0.00  0.00    -0.205 N 
ATOM      6  N5  UNL     1      -0.977   5.490 -19.144  0.00  0.00    -0.179 NA
ATOM      7  C15 UNL     1      -0.380   4.571 -18.397  0.00  0.00    +0.225 A 
ATOM      8  N6  UNL     1       0.552   5.071 -17.488  0.00  0.00    -0.283 N 
ATOM      9  N8  UNL     1      -0.630   3.275 -18.488  0.00  0.00    -0.181 NA
ATOM     10  H6  UNL     1      -1.216   1.076 -18.728  0.00  0.00    +0.155 HD
ATOM     11  H7  UNL     1      -2.364   6.888 -20.232  0.00  0.00    +0.177 HD
ATOM     12  H14 UNL     1       0.597   6.077 -17.590  0.00  0.00    +0.155 HD
ENDROOT
BRANCH   1  16
ATOM     13  C2  UNL     1      -4.734  -0.929 -21.221  0.00  0.00    +0.120 A 
ATOM     14  C3  UNL     1      -4.347  -1.120 -19.899  0.00  0.00    +0.047 A 
ATOM     15  C4  UNL     1      -3.364  -0.296 -19.330  0.00  0.00    +0.027 A 
ATOM     16  C5  UNL     1      -2.752   0.740 -20.060  0.00  0.00    +0.034 A 
ATOM     17  C22 UNL     1      -3.147   0.909 -21.388  0.00  0.00    +0.027 A 
ATOM     18  C23 UNL     1      -4.129   0.087 -21.961  0.00  0.00    +0.047 A 
BRANCH  13  20
ATOM     19  C1  UNL     1      -6.461  -0.944 -22.849  0.00  0.00    +0.277 C 
ATOM     20  O1  UNL     1      -5.681  -1.648 -21.896  0.00  0.00    -0.495 OA
ENDBRANCH  13  20
ENDBRANCH   1  16
BRANCH   8  21
ATOM     21  C16 UNL     1       1.211   4.528 -16.378  0.00  0.00    +0.034 A 
ATOM     22  C17 UNL     1       0.886   4.834 -15.051  0.00  0.00    +0.025 A 
ATOM     23  C18 UNL     1       1.563   4.244 -13.976  0.00  0.00    +0.034 A 
ATOM     24  C19 UNL     1       2.578   3.317 -14.226  0.00  0.00    +0.126 A 
ATOM     25  C20 UNL     1       2.914   2.978 -15.539  0.00  0.00    +0.034 A 
ATOM     26  C21 UNL     1       2.225   3.578 -16.600  0.00  0.00    +0.025 A 
BRANCH  24  27
ATOM     27  N7  UNL     1       3.298   2.701 -13.104  0.00  0.00    +0.056 N 
ATOM     28  O3  UNL     1       4.292   2.006 -13.368  0.00  0.00    -0.126 OA
ATOM     29  O4  UNL     1       2.869   2.911 -11.957  0.00  0.00    -0.126 OA
ENDBRANCH  24  27
ENDBRANCH   8  21
BRANCH   5  30
ATOM     30  N4  UNL     1      -3.882   5.834 -21.013  0.00  0.00    -0.188 NA
ATOM     31  C8  UNL     1      -4.426   6.478 -22.007  0.00  0.00    +0.138 C 
BRANCH  31  32
ATOM     32  C9  UNL     1      -3.874   7.513 -22.909  0.00  0.00    -0.005 A 
ATOM     33  C10 UNL     1      -4.043   8.852 -22.525  0.00  0.00    +0.013 A 
ATOM     34  C11 UNL     1      -3.499   9.881 -23.301  0.00  0.00    +0.046 A 
ATOM     35  C12 UNL     1      -2.779   9.564 -24.450  0.00  0.00    +0.117 A 
ATOM     36  C13 UNL     1      -2.594   8.240 -24.835  0.00  0.00    +0.046 A 
ATOM     37  C14 UNL     1      -3.138   7.210 -24.059  0.00  0.00    +0.013 A 
BRANCH  35  38
ATOM     38  O2  UNL     1      -2.225  10.539 -25.232  0.00  0.00    -0.507 OA
ATOM     39  H11 UNL     1      -2.065  11.320 -24.676  0.00  0.00    +0.292 HD
ENDBRANCH  35  38
ENDBRANCH  31  32
ENDBRANCH   5  30
TORSDOF 7
ENDMDL
MODEL 3
REMARK VINA RESULT:    -7.526      3.680     10.161
REMARK INTER + INTRA:         -11.238
REMARK INTER:                 -10.309
REMARK INTRA:                  -0.930
REMARK UNBOUND:                -0.852
REMARK  Name = /home/vital/Documents/PhD_2021/Malaria_codes/data/pdb_ligands_mmv/ligand_396.pdb
REMARK  8 active torsions:
REMARK  status: ('A' for Active; 'I' for Inactive)
REMARK    1  A    between atoms: C1_1  and  O1_2
REMARK    2  A    between atoms: O1_2  and  C2_3
REMARK    3  A    between atoms: C5_6  and  N1_7
REMARK    4  A    between atoms: N3_11  and  N4_12
REMARK    5  A    between atoms: C8_13  and  C9_14
REMARK    6  A    between atoms: C12_17  and  O2_18
REMARK    7  A    between atoms: N6_23  and  C16_24
REMARK    8  A    between atoms: C19_27  and  N7_30
REMARK                            x       y       z     vdW  Elec       q    Type
REMARK                         _______ _______ _______ _____ _____    ______ ____
ROOT
ATOM      1  N1  UNL     1       6.212  -3.034 -27.920  0.00  0.00    -0.283 N 
ATOM      2  C6  UNL     1       5.581  -3.161 -29.156  0.00  0.00    +0.225 A 
ATOM      3  N2  UNL     1       4.667  -4.089 -29.386  0.00  0.00    -0.179 NA
ATOM      4  C7  UNL     1       4.117  -4.088 -30.594  0.00  0.00    +0.241 A 
ATOM      5  N3  UNL     1       3.105  -5.027 -30.924  0.00  0.00    -0.205 N 
ATOM      6  N5  UNL     1       4.450  -3.240 -31.559  0.00  0.00    -0.179 NA
ATOM      7  C15 UNL     1       5.368  -2.335 -31.246  0.00  0.00    +0.225 A 
ATOM      8  N6  UNL     1       5.679  -1.438 -32.268  0.00  0.00    -0.283 N 
ATOM      9  N8  UNL     1       5.958  -2.266 -30.063  0.00  0.00    -0.181 NA
ATOM     10  H6  UNL     1       6.843  -2.246 -27.953  0.00  0.00    +0.155 HD
ATOM     11  H7  UNL     1       2.670  -4.603 -31.747  0.00  0.00    +0.177 HD
ATOM     12  H14 UNL     1       5.127  -1.672 -33.084  0.00  0.00    +0.155 HD
ENDROOT
BRANCH   1  16
ATOM     13  C2  UNL     1       5.741  -4.903 -24.144  0.00  0.00    +0.120 A 
ATOM     14  C3  UNL     1       6.695  -5.349 -25.053  0.00  0.00    +0.047 A 
ATOM     15  C4  UNL     1       6.824  -4.717 -26.300  0.00  0.00    +0.027 A 
ATOM     16  C5  UNL     1       6.015  -3.626 -26.665  0.00  0.00    +0.034 A 
ATOM     17  C22 UNL     1       5.058  -3.200 -25.743  0.00  0.00    +0.027 A 
ATOM     18  C23 UNL     1       4.924  -3.828 -24.496  0.00  0.00    +0.047 A 
BRANCH  13  20
ATOM     19  C1  UNL     1       4.718  -4.637 -22.020  0.00  0.00    +0.277 C 
ATOM     20  O1  UNL     1       5.514  -5.417 -22.898  0.00  0.00    -0.495 OA
ENDBRANCH  13  20
ENDBRANCH   1  16
BRANCH   8  21
ATOM     21  C16 UNL     1       6.370  -0.222 -32.313  0.00  0.00    +0.034 A 
ATOM     22  C17 UNL     1       5.747   1.032 -32.257  0.00  0.00    +0.025 A 
ATOM     23  C18 UNL     1       6.490   2.220 -32.282  0.00  0.00    +0.034 A 
ATOM     24  C19 UNL     1       7.884   2.161 -32.352  0.00  0.00    +0.126 A 
ATOM     25  C20 UNL     1       8.534   0.924 -32.391  0.00  0.00    +0.034 A 
ATOM     26  C21 UNL     1       7.775  -0.251 -32.364  0.00  0.00    +0.025 A 
BRANCH  24  27
ATOM     27  N7  UNL     1       8.667   3.402 -32.388  0.00  0.00    +0.056 N 
ATOM     28  O3  UNL     1       9.749   3.420 -31.779  0.00  0.00    -0.126 OA
ATOM     29  O4  UNL     1       8.201   4.362 -33.024  0.00  0.00    -0.126 OA
ENDBRANCH  24  27
ENDBRANCH   8  21
BRANCH   5  30
ATOM     30  N4  UNL     1       2.210  -5.338 -29.939  0.00  0.00    -0.188 NA
ATOM     31  C8  UNL     1       1.251  -6.174 -30.222  0.00  0.00    +0.138 C 
BRANCH  31  32
ATOM     32  C9  UNL     1       0.867  -6.812 -31.501  0.00  0.00    -0.005 A 
ATOM     33  C10 UNL     1       1.378  -8.094 -31.753  0.00  0.00    +0.013 A 
ATOM     34  C11 UNL     1       1.012  -8.781 -32.916  0.00  0.00    +0.046 A 
ATOM     35  C12 UNL     1       0.129  -8.187 -33.813  0.00  0.00    +0.117 A 
ATOM     36  C13 UNL     1      -0.396  -6.922 -33.567  0.00  0.00    +0.046 A 
ATOM     37  C14 UNL     1      -0.030  -6.234 -32.405  0.00  0.00    +0.013 A 
BRANCH  35  38
ATOM     38  O2  UNL     1      -0.260  -8.828 -34.956  0.00  0.00    -0.507 OA
ATOM     39  H11 UNL     1      -1.104  -8.445 -35.247  0.00  0.00    +0.292 HD
ENDBRANCH  35  38
ENDBRANCH  31  32
ENDBRANCH   5  30
TORSDOF 7
ENDMDL
MODEL 4
REMARK VINA RESULT:    -7.326      3.002      7.061
REMARK INTER + INTRA:         -10.962
REMARK INTER:                 -10.069
REMARK INTRA:                  -0.893
REMARK UNBOUND:                -0.852
REMARK  Name = /home/vital/Documents/PhD_2021/Malaria_codes/data/pdb_ligands_mmv/ligand_396.pdb
REMARK  8 active torsions:
REMARK  status: ('A' for Active; 'I' for Inactive)
REMARK    1  A    between atoms: C1_1  and  O1_2
REMARK    2  A    between atoms: O1_2  and  C2_3
REMARK    3  A    between atoms: C5_6  and  N1_7
REMARK    4  A    between atoms: N3_11  and  N4_12
REMARK    5  A    between atoms: C8_13  and  C9_14
REMARK    6  A    between atoms: C12_17  and  O2_18
REMARK    7  A    between atoms: N6_23  and  C16_24
REMARK    8  A    between atoms: C19_27  and  N7_30
REMARK                            x       y       z     vdW  Elec       q    Type
REMARK                         _______ _______ _______ _____ _____    ______ ____
ROOT
ATOM      1  N1  UNL     1       4.706  -4.086 -28.620  0.00  0.00    -0.283 N 
ATOM      2  C6  UNL     1       4.483  -3.578 -29.898  0.00  0.00    +0.225 A 
ATOM      3  N2  UNL     1       5.125  -2.515 -30.353  0.00  0.00    -0.179 NA
ATOM      4  C7  UNL     1       4.848  -2.147 -31.598  0.00  0.00    +0.241 A 
ATOM      5  N3  UNL     1       5.510  -1.036 -32.184  0.00  0.00    -0.205 N 
ATOM      6  N5  UNL     1       3.963  -2.763 -32.373  0.00  0.00    -0.179 NA
ATOM      7  C15 UNL     1       3.368  -3.824 -31.846  0.00  0.00    +0.225 A 
ATOM      8  N6  UNL     1       2.465  -4.469 -32.690  0.00  0.00    -0.283 N 
ATOM      9  N8  UNL     1       3.595  -4.258 -30.616  0.00  0.00    -0.181 NA
ATOM     10  H6  UNL     1       4.141  -4.914 -28.493  0.00  0.00    +0.155 HD
ATOM     11  H7  UNL     1       5.347  -1.185 -33.183  0.00  0.00    +0.177 HD
ATOM     12  H14 UNL     1       2.434  -3.973 -33.572  0.00  0.00    +0.155 HD
ENDROOT
BRANCH   1  16
ATOM     13  C2  UNL     1       7.439  -3.138 -25.520  0.00  0.00    +0.120 A 
ATOM     14  C3  UNL     1       6.300  -2.369 -25.736  0.00  0.00    +0.047 A 
ATOM     15  C4  UNL     1       5.416  -2.700 -26.774  0.00  0.00    +0.027 A 
ATOM     16  C5  UNL     1       5.640  -3.807 -27.614  0.00  0.00    +0.034 A 
ATOM     17  C22 UNL     1       6.793  -4.560 -27.388  0.00  0.00    +0.027 A 
ATOM     18  C23 UNL     1       7.680  -4.233 -26.352  0.00  0.00    +0.047 A 
BRANCH  13  20
ATOM     19  C1  UNL     1       7.953  -2.232 -23.389  0.00  0.00    +0.277 C 
ATOM     20  O1  UNL     1       8.375  -2.937 -24.545  0.00  0.00    -0.495 OA
ENDBRANCH  13  20
ENDBRANCH   1  16
BRANCH   8  21
ATOM     21  C16 UNL     1       1.824  -5.713 -32.654  0.00  0.00    +0.034 A 
ATOM     22  C17 UNL     1       2.346  -6.878 -33.231  0.00  0.00    +0.025 A 
ATOM     23  C18 UNL     1       1.671  -8.103 -33.145  0.00  0.00    +0.034 A 
ATOM     24  C19 UNL     1       0.456  -8.175 -32.460  0.00  0.00    +0.126 A 
ATOM     25  C20 UNL     1      -0.081  -7.033 -31.859  0.00  0.00    +0.034 A 
ATOM     26  C21 UNL     1       0.607  -5.819 -31.955  0.00  0.00    +0.025 A 
BRANCH  24  27
ATOM     27  N7  UNL     1      -0.260  -9.454 -32.374  0.00  0.00    +0.056 N 
ATOM     28  O3  UNL     1      -0.912  -9.682 -31.343  0.00  0.00    -0.126 OA
ATOM     29  O4  UNL     1      -0.170 -10.233 -33.338  0.00  0.00    -0.126 OA
ENDBRANCH  24  27
ENDBRANCH   8  21
BRANCH   5  30
ATOM     30  N4  UNL     1       6.830  -0.872 -31.869  0.00  0.00    -0.188 NA
ATOM     31  C8  UNL     1       7.335   0.327 -31.947  0.00  0.00    +0.138 C 
BRANCH  31  32
ATOM     32  C9  UNL     1       6.747   1.597 -32.428  0.00  0.00    -0.005 A 
ATOM     33  C10 UNL     1       6.642   1.767 -33.817  0.00  0.00    +0.013 A 
ATOM     34  C11 UNL     1       6.046   2.919 -34.342  0.00  0.00    +0.046 A 
ATOM     35  C12 UNL     1       5.548   3.887 -33.476  0.00  0.00    +0.117 A 
ATOM     36  C13 UNL     1       5.634   3.725 -32.097  0.00  0.00    +0.046 A 
ATOM     37  C14 UNL     1       6.231   2.574 -31.570  0.00  0.00    +0.013 A 
BRANCH  35  38
ATOM     38  O2  UNL     1       4.952   5.023 -33.948  0.00  0.00    -0.507 OA
ATOM     39  H11 UNL     1       5.367   5.256 -34.795  0.00  0.00    +0.292 HD
ENDBRANCH  35  38
ENDBRANCH  31  32
ENDBRANCH   5  30
TORSDOF 7
ENDMDL
MODEL 5
REMARK VINA RESULT:    -7.244     13.602     16.691
REMARK INTER + INTRA:         -10.849
REMARK INTER:                  -9.991
REMARK INTRA:                  -0.858
REMARK UNBOUND:                -0.852
REMARK  Name = /home/vital/Documents/PhD_2021/Malaria_codes/data/pdb_ligands_mmv/ligand_396.pdb
REMARK  8 active torsions:
REMARK  status: ('A' for Active; 'I' for Inactive)
REMARK    1  A    between atoms: C1_1  and  O1_2
REMARK    2  A    between atoms: O1_2  and  C2_3
REMARK    3  A    between atoms: C5_6  and  N1_7
REMARK    4  A    between atoms: N3_11  and  N4_12
REMARK    5  A    between atoms: C8_13  and  C9_14
REMARK    6  A    between atoms: C12_17  and  O2_18
REMARK    7  A    between atoms: N6_23  and  C16_24
REMARK    8  A    between atoms: C19_27  and  N7_30
REMARK                            x       y       z     vdW  Elec       q    Type
REMARK                         _______ _______ _______ _____ _____    ______ ____
ROOT
ATOM      1  N1  UNL     1      -3.166   2.298 -20.991  0.00  0.00    -0.283 N 
ATOM      2  C6  UNL     1      -2.462   3.368 -20.442  0.00  0.00    +0.225 A 
ATOM      3  N2  UNL     1      -1.562   3.200 -19.487  0.00  0.00    -0.179 NA
ATOM      4  C7  UNL     1      -0.936   4.293 -19.069  0.00  0.00    +0.241 A 
ATOM      5  N3  UNL     1       0.067   4.209 -18.068  0.00  0.00    -0.205 N 
ATOM      6  N5  UNL     1      -1.183   5.512 -19.534  0.00  0.00    -0.179 NA
ATOM      7  C15 UNL     1      -2.092   5.594 -20.496  0.00  0.00    +0.225 A 
ATOM      8  N6  UNL     1      -2.312   6.881 -20.986  0.00  0.00    -0.283 N 
ATOM      9  N8  UNL     1      -2.754   4.551 -20.971  0.00  0.00    -0.181 NA
ATOM     10  H6  UNL     1      -3.770   2.644 -21.722  0.00  0.00    +0.155 HD
ATOM     11  H7  UNL     1       0.565   5.096 -18.180  0.00  0.00    +0.177 HD
ATOM     12  H14 UNL     1      -1.716   7.526 -20.482  0.00  0.00    +0.155 HD
ENDROOT
BRANCH   1  16
ATOM     13  C2  UNL     1      -3.003  -1.916 -20.558  0.00  0.00    +0.120 A 
ATOM     14  C3  UNL     1      -4.030  -1.174 -19.985  0.00  0.00    +0.047 A 
ATOM     15  C4  UNL     1      -4.055   0.221 -20.136  0.00  0.00    +0.027 A 
ATOM     16  C5  UNL     1      -3.067   0.906 -20.868  0.00  0.00    +0.034 A 
ATOM     17  C22 UNL     1      -2.040   0.144 -21.427  0.00  0.00    +0.027 A 
ATOM     18  C23 UNL     1      -2.009  -1.251 -21.278  0.00  0.00    +0.047 A 
BRANCH  13  20
ATOM     19  C1  UNL     1      -2.079  -3.881 -21.515  0.00  0.00    +0.277 C 
ATOM     20  O1  UNL     1      -2.860  -3.275 -20.498  0.00  0.00    -0.495 OA
ENDBRANCH  13  20
ENDBRANCH   1  16
BRANCH   8  21
ATOM     21  C16 UNL     1      -2.963   7.389 -22.116  0.00  0.00    +0.034 A 
ATOM     22  C17 UNL     1      -2.311   7.711 -23.314  0.00  0.00    +0.025 A 
ATOM     23  C18 UNL     1      -3.016   8.195 -24.424  0.00  0.00    +0.034 A 
ATOM     24  C19 UNL     1      -4.402   8.352 -24.346  0.00  0.00    +0.126 A 
ATOM     25  C20 UNL     1      -5.082   8.023 -23.171  0.00  0.00    +0.034 A 
ATOM     26  C21 UNL     1      -4.361   7.539 -22.073  0.00  0.00    +0.025 A 
BRANCH  24  27
ATOM     27  N7  UNL     1      -5.146   8.868 -25.503  0.00  0.00    +0.056 N 
ATOM     28  O3  UNL     1      -4.548   9.629 -26.280  0.00  0.00    -0.126 OA
ATOM     29  O4  UNL     1      -6.329   8.513 -25.634  0.00  0.00    -0.126 OA
ENDBRANCH  24  27
ENDBRANCH   8  21
BRANCH   5  30
ATOM     30  N4  UNL     1       0.888   3.118 -18.111  0.00  0.00    -0.188 NA
ATOM     31  C8  UNL     1       1.687   2.910 -17.103  0.00  0.00    +0.138 C 
BRANCH  31  32
ATOM     32  C9  UNL     1       1.959   3.724 -15.897  0.00  0.00    -0.005 A 
ATOM     33  C10 UNL     1       1.562   3.189 -14.662  0.00  0.00    +0.013 A 
ATOM     34  C11 UNL     1       1.837   3.877 -13.476  0.00  0.00    +0.046 A 
ATOM     35  C12 UNL     1       2.518   5.090 -13.530  0.00  0.00    +0.117 A 
ATOM     36  C13 UNL     1       2.929   5.624 -14.748  0.00  0.00    +0.046 A 
ATOM     37  C14 UNL     1       2.653   4.937 -15.935  0.00  0.00    +0.013 A 
BRANCH  35  38
ATOM     38  O2  UNL     1       2.813   5.790 -12.395  0.00  0.00    -0.507 OA
ATOM     39  H11 UNL     1       3.729   6.109 -12.463  0.00  0.00    +0.292 HD
ENDBRANCH  35  38
ENDBRANCH  31  32
ENDBRANCH   5  30
TORSDOF 7
ENDMDL
MODEL 6
REMARK VINA RESULT:    -7.166      3.456      7.398
REMARK INTER + INTRA:         -10.742
REMARK INTER:                  -9.808
REMARK INTRA:                  -0.934
REMARK UNBOUND:                -0.852
REMARK  Name = /home/vital/Documents/PhD_2021/Malaria_codes/data/pdb_ligands_mmv/ligand_396.pdb
REMARK  8 active torsions:
REMARK  status: ('A' for Active; 'I' for Inactive)
REMARK    1  A    between atoms: C1_1  and  O1_2
REMARK    2  A    between atoms: O1_2  and  C2_3
REMARK    3  A    between atoms: C5_6  and  N1_7
REMARK    4  A    between atoms: N3_11  and  N4_12
REMARK    5  A    between atoms: C8_13  and  C9_14
REMARK    6  A    between atoms: C12_17  and  O2_18
REMARK    7  A    between atoms: N6_23  and  C16_24
REMARK    8  A    between atoms: C19_27  and  N7_30
REMARK                            x       y       z     vdW  Elec       q    Type
REMARK                         _______ _______ _______ _____ _____    ______ ____
ROOT
ATOM      1  N1  UNL     1       5.060  -3.544 -28.763  0.00  0.00    -0.283 N 
ATOM      2  C6  UNL     1       5.048  -2.976 -30.036  0.00  0.00    +0.225 A 
ATOM      3  N2  UNL     1       5.787  -1.924 -30.343  0.00  0.00    -0.179 NA
ATOM      4  C7  UNL     1       5.711  -1.495 -31.596  0.00  0.00    +0.241 A 
ATOM      5  N3  UNL     1       6.491  -0.390 -32.028  0.00  0.00    -0.205 N 
ATOM      6  N5  UNL     1       4.930  -2.042 -32.520  0.00  0.00    -0.179 NA
ATOM      7  C15 UNL     1       4.227  -3.098 -32.136  0.00  0.00    +0.225 A 
ATOM      8  N6  UNL     1       3.437  -3.671 -33.132  0.00  0.00    -0.283 N 
ATOM      9  N8  UNL     1       4.254  -3.590 -30.907  0.00  0.00    -0.181 NA
ATOM     10  H6  UNL     1       4.454  -4.351 -28.758  0.00  0.00    +0.155 HD
ATOM     11  H7  UNL     1       6.474  -0.492 -33.046  0.00  0.00    +0.177 HD
ATOM     12  H14 UNL     1       3.555  -3.139 -33.985  0.00  0.00    +0.155 HD
ENDROOT
BRANCH   1  16
ATOM     13  C2  UNL     1       7.529  -3.038 -25.354  0.00  0.00    +0.120 A 
ATOM     14  C3  UNL     1       7.760  -4.065 -26.263  0.00  0.00    +0.047 A 
ATOM     15  C4  UNL     1       6.922  -4.215 -27.379  0.00  0.00    +0.027 A 
ATOM     16  C5  UNL     1       5.844  -3.343 -27.619  0.00  0.00    +0.034 A 
ATOM     17  C22 UNL     1       5.623  -2.325 -26.690  0.00  0.00    +0.027 A 
ATOM     18  C23 UNL     1       6.457  -2.172 -25.572  0.00  0.00    +0.047 A 
BRANCH  13  20
ATOM     19  C1  UNL     1       9.668  -2.973 -24.329  0.00  0.00    +0.277 C 
ATOM     20  O1  UNL     1       8.267  -2.772 -24.234  0.00  0.00    -0.495 OA
ENDBRANCH  13  20
ENDBRANCH   1  16
BRANCH   8  21
ATOM     21  C16 UNL     1       2.754  -4.888 -33.247  0.00  0.00    +0.034 A 
ATOM     22  C17 UNL     1       3.373  -6.142 -33.163  0.00  0.00    +0.025 A 
ATOM     23  C18 UNL     1       2.637  -7.330 -33.262  0.00  0.00    +0.034 A 
ATOM     24  C19 UNL     1       1.252  -7.270 -33.437  0.00  0.00    +0.126 A 
ATOM     25  C20 UNL     1       0.604  -6.034 -33.507  0.00  0.00    +0.034 A 
ATOM     26  C21 UNL     1       1.356  -4.858 -33.405  0.00  0.00    +0.025 A 
BRANCH  24  27
ATOM     27  N7  UNL     1       0.476  -8.512 -33.551  0.00  0.00    +0.056 N 
ATOM     28  O3  UNL     1      -0.535  -8.627 -32.840  0.00  0.00    -0.126 OA
ATOM     29  O4  UNL     1       0.878  -9.374 -34.350  0.00  0.00    -0.126 OA
ENDBRANCH  24  27
ENDBRANCH   8  21
BRANCH   5  30
ATOM     30  N4  UNL     1       7.755  -0.293 -31.515  0.00  0.00    -0.188 NA
ATOM     31  C8  UNL     1       8.246   0.897 -31.313  0.00  0.00    +0.138 C 
BRANCH  31  32
ATOM     32  C9  UNL     1       7.706   2.237 -31.638  0.00  0.00    -0.005 A 
ATOM     33  C10 UNL     1       8.062   2.785 -32.880  0.00  0.00    +0.013 A 
ATOM     34  C11 UNL     1       7.544   4.022 -33.277  0.00  0.00    +0.046 A 
ATOM     35  C12 UNL     1       6.664   4.698 -32.436  0.00  0.00    +0.117 A 
ATOM     36  C13 UNL     1       6.293   4.158 -31.208  0.00  0.00    +0.046 A 
ATOM     37  C14 UNL     1       6.811   2.921 -30.809  0.00  0.00    +0.013 A 
BRANCH  35  38
ATOM     38  O2  UNL     1       6.130   5.905 -32.790  0.00  0.00    -0.507 OA
ATOM     39  H11 UNL     1       5.648   6.261 -32.024  0.00  0.00    +0.292 HD
ENDBRANCH  35  38
ENDBRANCH  31  32
ENDBRANCH   5  30
TORSDOF 7
ENDMDL
MODEL 7
REMARK VINA RESULT:    -7.143     13.560     16.601
REMARK INTER + INTRA:         -10.710
REMARK INTER:                 -10.134
REMARK INTRA:                  -0.576
REMARK UNBOUND:                -0.852
REMARK  Name = /home/vital/Documents/PhD_2021/Malaria_codes/data/pdb_ligands_mmv/ligand_396.pdb
REMARK  8 active torsions:
REMARK  status: ('A' for Active; 'I' for Inactive)
REMARK    1  A    between atoms: C1_1  and  O1_2
REMARK    2  A    between atoms: O1_2  and  C2_3
REMARK    3  A    between atoms: C5_6  and  N1_7
REMARK    4  A    between atoms: N3_11  and  N4_12
REMARK    5  A    between atoms: C8_13  and  C9_14
REMARK    6  A    between atoms: C12_17  and  O2_18
REMARK    7  A    between atoms: N6_23  and  C16_24
REMARK    8  A    between atoms: C19_27  and  N7_30
REMARK                            x       y       z     vdW  Elec       q    Type
REMARK                         _______ _______ _______ _____ _____    ______ ____
ROOT
ATOM      1  N1  UNL     1      -3.234   6.964 -21.378  0.00  0.00    -0.283 N 
ATOM      2  C6  UNL     1      -2.572   5.835 -20.899  0.00  0.00    +0.225 A 
ATOM      3  N2  UNL     1      -2.910   4.612 -21.271  0.00  0.00    -0.179 NA
ATOM      4  C7  UNL     1      -2.185   3.621 -20.768  0.00  0.00    +0.241 A 
ATOM      5  N3  UNL     1      -2.453   2.276 -21.133  0.00  0.00    -0.205 N 
ATOM      6  N5  UNL     1      -1.182   3.796 -19.915  0.00  0.00    -0.179 NA
ATOM      7  C15 UNL     1      -0.900   5.053 -19.599  0.00  0.00    +0.225 A 
ATOM      8  N6  UNL     1       0.174   5.210 -18.724  0.00  0.00    -0.283 N 
ATOM      9  N8  UNL     1      -1.573   6.094 -20.063  0.00  0.00    -0.181 NA
ATOM     10  H6  UNL     1      -2.795   7.789 -20.996  0.00  0.00    +0.155 HD
ATOM     11  H7  UNL     1      -1.587   1.799 -20.869  0.00  0.00    +0.177 HD
ATOM     12  H14 UNL     1       0.535   4.295 -18.486  0.00  0.00    +0.155 HD
ENDROOT
BRANCH   1  16
ATOM     13  C2  UNL     1      -6.082   7.720 -24.427  0.00  0.00    +0.120 A 
ATOM     14  C3  UNL     1      -5.098   8.653 -24.113  0.00  0.00    +0.047 A 
ATOM     15  C4  UNL     1      -4.173   8.381 -23.094  0.00  0.00    +0.027 A 
ATOM     16  C5  UNL     1      -4.200   7.174 -22.372  0.00  0.00    +0.034 A 
ATOM     17  C22 UNL     1      -5.200   6.255 -22.694  0.00  0.00    +0.027 A 
ATOM     18  C23 UNL     1      -6.127   6.522 -23.712  0.00  0.00    +0.047 A 
BRANCH  13  20
ATOM     19  C1  UNL     1      -6.608   8.353 -26.652  0.00  0.00    +0.277 C 
ATOM     20  O1  UNL     1      -7.036   7.849 -25.398  0.00  0.00    -0.495 OA
ENDBRANCH  13  20
ENDBRANCH   1  16
BRANCH   8  21
ATOM     21  C16 UNL     1       0.950   6.306 -18.331  0.00  0.00    +0.034 A 
ATOM     22  C17 UNL     1       1.016   6.785 -17.016  0.00  0.00    +0.025 A 
ATOM     23  C18 UNL     1       1.828   7.873 -16.672  0.00  0.00    +0.034 A 
ATOM     24  C19 UNL     1       2.603   8.493 -17.655  0.00  0.00    +0.126 A 
ATOM     25  C20 UNL     1       2.573   8.027 -18.972  0.00  0.00    +0.034 A 
ATOM     26  C21 UNL     1       1.756   6.938 -19.296  0.00  0.00    +0.025 A 
BRANCH  24  27
ATOM     27  N7  UNL     1       3.451   9.640 -17.303  0.00  0.00    +0.056 N 
ATOM     28  O3  UNL     1       2.931  10.767 -17.318  0.00  0.00    -0.126 OA
ATOM     29  O4  UNL     1       4.637   9.414 -17.013  0.00  0.00    -0.126 OA
ENDBRANCH  24  27
ENDBRANCH   8  21
BRANCH   5  30
ATOM     30  N4  UNL     1      -2.820   2.053 -22.431  0.00  0.00    -0.188 NA
ATOM     31  C8  UNL     1      -3.112   0.833 -22.785  0.00  0.00    +0.138 C 
BRANCH  31  32
ATOM     32  C9  UNL     1      -3.028  -0.441 -22.037  0.00  0.00    -0.005 A 
ATOM     33  C10 UNL     1      -4.232  -0.985 -21.564  0.00  0.00    +0.013 A 
ATOM     34  C11 UNL     1      -4.234  -2.215 -20.897  0.00  0.00    +0.046 A 
ATOM     35  C12 UNL     1      -3.035  -2.899 -20.718  0.00  0.00    +0.117 A 
ATOM     36  C13 UNL     1      -1.836  -2.376 -21.194  0.00  0.00    +0.046 A 
ATOM     37  C14 UNL     1      -1.833  -1.146 -21.861  0.00  0.00    +0.013 A 
BRANCH  35  38
ATOM     38  O2  UNL     1      -2.994  -4.106 -20.079  0.00  0.00    -0.507 OA
ATOM     39  H11 UNL     1      -3.072  -4.807 -20.748  0.00  0.00    +0.292 HD
ENDBRANCH  35  38
ENDBRANCH  31  32
ENDBRANCH   5  30
TORSDOF 7
ENDMDL
MODEL 8
REMARK VINA RESULT:    -7.038      4.669      7.311
REMARK INTER + INTRA:         -10.565
REMARK INTER:                  -9.609
REMARK INTRA:                  -0.956
REMARK UNBOUND:                -0.852
REMARK  Name = /home/vital/Documents/PhD_2021/Malaria_codes/data/pdb_ligands_mmv/ligand_396.pdb
REMARK  8 active torsions:
REMARK  status: ('A' for Active; 'I' for Inactive)
REMARK    1  A    between atoms: C1_1  and  O1_2
REMARK    2  A    between atoms: O1_2  and  C2_3
REMARK    3  A    between atoms: C5_6  and  N1_7
REMARK    4  A    between atoms: N3_11  and  N4_12
REMARK    5  A    between atoms: C8_13  and  C9_14
REMARK    6  A    between atoms: C12_17  and  O2_18
REMARK    7  A    between atoms: N6_23  and  C16_24
REMARK    8  A    between atoms: C19_27  and  N7_30
REMARK                            x       y       z     vdW  Elec       q    Type
REMARK                         _______ _______ _______ _____ _____    ______ ____
ROOT
ATOM      1  N1  UNL     1       1.857  -3.912 -27.096  0.00  0.00    -0.283 N 
ATOM      2  C6  UNL     1       3.118  -4.089 -27.663  0.00  0.00    +0.225 A 
ATOM      3  N2  UNL     1       4.193  -4.319 -26.927  0.00  0.00    -0.179 NA
ATOM      4  C7  UNL     1       5.330  -4.501 -27.586  0.00  0.00    +0.241 A 
ATOM      5  N3  UNL     1       6.531  -4.783 -26.884  0.00  0.00    -0.205 N 
ATOM      6  N5  UNL     1       5.439  -4.439 -28.908  0.00  0.00    -0.179 NA
ATOM      7  C15 UNL     1       4.314  -4.214 -29.573  0.00  0.00    +0.225 A 
ATOM      8  N6  UNL     1       4.450  -4.183 -30.961  0.00  0.00    -0.283 N 
ATOM      9  N8  UNL     1       3.140  -4.029 -28.990  0.00  0.00    -0.181 NA
ATOM     10  H6  UNL     1       1.180  -3.786 -27.835  0.00  0.00    +0.155 HD
ATOM     11  H7  UNL     1       7.129  -5.173 -27.617  0.00  0.00    +0.177 HD
ATOM     12  H14 UNL     1       5.424  -4.334 -31.194  0.00  0.00    +0.155 HD
ENDROOT
BRANCH   1  16
ATOM     13  C2  UNL     1       0.254  -4.483 -23.212  0.00  0.00    +0.120 A 
ATOM     14  C3  UNL     1      -0.104  -5.315 -24.268  0.00  0.00    +0.047 A 
ATOM     15  C4  UNL     1       0.435  -5.099 -25.546  0.00  0.00    +0.027 A 
ATOM     16  C5  UNL     1       1.347  -4.058 -25.799  0.00  0.00    +0.034 A 
ATOM     17  C22 UNL     1       1.686  -3.228 -24.729  0.00  0.00    +0.027 A 
ATOM     18  C23 UNL     1       1.150  -3.439 -23.451  0.00  0.00    +0.047 A 
BRANCH  13  20
ATOM     19  C1  UNL     1      -1.586  -4.529 -21.716  0.00  0.00    +0.277 C 
ATOM     20  O1  UNL     1      -0.184  -4.584 -21.922  0.00  0.00    -0.495 OA
ENDBRANCH  13  20
ENDBRANCH   1  16
BRANCH   8  21
ATOM     21  C16 UNL     1       3.542  -4.223 -32.025  0.00  0.00    +0.034 A 
ATOM     22  C17 UNL     1       3.199  -3.109 -32.802  0.00  0.00    +0.025 A 
ATOM     23  C18 UNL     1       2.300  -3.212 -33.872  0.00  0.00    +0.034 A 
ATOM     24  C19 UNL     1       1.738  -4.452 -34.184  0.00  0.00    +0.126 A 
ATOM     25  C20 UNL     1       2.074  -5.584 -33.438  0.00  0.00    +0.034 A 
ATOM     26  C21 UNL     1       2.975  -5.463 -32.374  0.00  0.00    +0.025 A 
BRANCH  24  27
ATOM     27  N7  UNL     1       0.788  -4.564 -35.299  0.00  0.00    +0.056 N 
ATOM     28  O3  UNL     1       1.044  -3.938 -36.340  0.00  0.00    -0.126 OA
ATOM     29  O4  UNL     1      -0.216  -5.276 -35.133  0.00  0.00    -0.126 OA
ENDBRANCH  24  27
ENDBRANCH   8  21
BRANCH   5  30
ATOM     30  N4  UNL     1       6.426  -5.589 -25.785  0.00  0.00    -0.188 NA
ATOM     31  C8  UNL     1       6.832  -5.121 -24.639  0.00  0.00    +0.138 C 
BRANCH  31  32
ATOM     32  C9  UNL     1       7.510  -3.851 -24.295  0.00  0.00    -0.005 A 
ATOM     33  C10 UNL     1       6.810  -2.956 -23.472  0.00  0.00    +0.013 A 
ATOM     34  C11 UNL     1       7.411  -1.761 -23.061  0.00  0.00    +0.046 A 
ATOM     35  C12 UNL     1       8.712  -1.475 -23.465  0.00  0.00    +0.117 A 
ATOM     36  C13 UNL     1       9.422  -2.362 -24.269  0.00  0.00    +0.046 A 
ATOM     37  C14 UNL     1       8.821  -3.557 -24.682  0.00  0.00    +0.013 A 
BRANCH  35  38
ATOM     38  O2  UNL     1       9.338  -0.323 -23.079  0.00  0.00    -0.507 OA
ATOM     39  H11 UNL     1      10.199  -0.280 -23.528  0.00  0.00    +0.292 HD
ENDBRANCH  35  38
ENDBRANCH  31  32
ENDBRANCH   5  30
TORSDOF 7
ENDMDL
MODEL 9
REMARK VINA RESULT:    -6.827      6.470      9.650
REMARK INTER + INTRA:         -10.274
REMARK INTER:                  -9.519
REMARK INTRA:                  -0.755
REMARK UNBOUND:                -0.852
REMARK  Name = /home/vital/Documents/PhD_2021/Malaria_codes/data/pdb_ligands_mmv/ligand_396.pdb
REMARK  8 active torsions:
REMARK  status: ('A' for Active; 'I' for Inactive)
REMARK    1  A    between atoms: C1_1  and  O1_2
REMARK    2  A    between atoms: O1_2  and  C2_3
REMARK    3  A    between atoms: C5_6  and  N1_7
REMARK    4  A    between atoms: N3_11  and  N4_12
REMARK    5  A    between atoms: C8_13  and  C9_14
REMARK    6  A    between atoms: C12_17  and  O2_18
REMARK    7  A    between atoms: N6_23  and  C16_24
REMARK    8  A    between atoms: C19_27  and  N7_30
REMARK                            x       y       z     vdW  Elec       q    Type
REMARK                         _______ _______ _______ _____ _____    ______ ____
ROOT
ATOM      1  N1  UNL     1       8.828  -1.192 -26.334  0.00  0.00    -0.283 N 
ATOM      2  C6  UNL     1       7.899  -2.060 -25.764  0.00  0.00    +0.225 A 
ATOM      3  N2  UNL     1       7.783  -2.204 -24.455  0.00  0.00    -0.179 NA
ATOM      4  C7  UNL     1       6.840  -3.038 -24.035  0.00  0.00    +0.241 A 
ATOM      5  N3  UNL     1       6.621  -3.235 -22.646  0.00  0.00    -0.205 N 
ATOM      6  N5  UNL     1       6.049  -3.731 -24.845  0.00  0.00    -0.179 NA
ATOM      7  C15 UNL     1       6.222  -3.523 -26.143  0.00  0.00    +0.225 A 
ATOM      8  N6  UNL     1       5.360  -4.241 -26.972  0.00  0.00    -0.283 N 
ATOM      9  N8  UNL     1       7.135  -2.704 -26.640  0.00  0.00    -0.181 NA
ATOM     10  H6  UNL     1       8.723  -1.211 -27.338  0.00  0.00    +0.155 HD
ATOM     11  H7  UNL     1       5.683  -3.644 -22.627  0.00  0.00    +0.177 HD
ATOM     12  H14 UNL     1       4.754  -4.810 -26.393  0.00  0.00    +0.155 HD
ENDROOT
BRANCH   1  16
ATOM     13  C2  UNL     1      11.328   1.810 -24.686  0.00  0.00    +0.120 A 
ATOM     14  C3  UNL     1       9.947   1.851 -24.518  0.00  0.00    +0.047 A 
ATOM     15  C4  UNL     1       9.142   0.849 -25.082  0.00  0.00    +0.027 A 
ATOM     16  C5  UNL     1       9.692  -0.219 -25.815  0.00  0.00    +0.034 A 
ATOM     17  C22 UNL     1      11.078  -0.237 -25.980  0.00  0.00    +0.027 A 
ATOM     18  C23 UNL     1      11.887   0.763 -25.420  0.00  0.00    +0.047 A 
BRANCH  13  20
ATOM     19  C1  UNL     1      13.596   2.475 -24.477  0.00  0.00    +0.277 C 
ATOM     20  O1  UNL     1      12.228   2.710 -24.187  0.00  0.00    -0.495 OA
ENDBRANCH  13  20
ENDBRANCH   1  16
BRANCH   8  21
ATOM     21  C16 UNL     1       5.025  -4.157 -28.328  0.00  0.00    +0.034 A 
ATOM     22  C17 UNL     1       5.966  -4.027 -29.358  0.00  0.00    +0.025 A 
ATOM     23  C18 UNL     1       5.576  -3.969 -30.702  0.00  0.00    +0.034 A 
ATOM     24  C19 UNL     1       4.222  -4.056 -31.032  0.00  0.00    +0.126 A 
ATOM     25  C20 UNL     1       3.261  -4.204 -30.028  0.00  0.00    +0.034 A 
ATOM     26  C21 UNL     1       3.670  -4.260 -28.691  0.00  0.00    +0.025 A 
BRANCH  24  27
ATOM     27  N7  UNL     1       3.806  -3.988 -32.439  0.00  0.00    +0.056 N 
ATOM     28  O3  UNL     1       2.602  -4.150 -32.694  0.00  0.00    -0.126 OA
ATOM     29  O4  UNL     1       4.684  -3.774 -33.292  0.00  0.00    -0.126 OA
ENDBRANCH  24  27
ENDBRANCH   8  21
BRANCH   5  30
ATOM     30  N4  UNL     1       6.748  -2.137 -21.842  0.00  0.00    -0.188 NA
ATOM     31  C8  UNL     1       5.749  -1.824 -21.066  0.00  0.00    +0.138 C 
BRANCH  31  32
ATOM     32  C9  UNL     1       4.392  -2.405 -20.950  0.00  0.00    -0.005 A 
ATOM     33  C10 UNL     1       4.152  -3.256 -19.860  0.00  0.00    +0.013 A 
ATOM     34  C11 UNL     1       2.878  -3.796 -19.657  0.00  0.00    +0.046 A 
ATOM     35  C12 UNL     1       1.849  -3.473 -20.537  0.00  0.00    +0.117 A 
ATOM     36  C13 UNL     1       2.071  -2.620 -21.613  0.00  0.00    +0.046 A 
ATOM     37  C14 UNL     1       3.345  -2.079 -21.819  0.00  0.00    +0.013 A 
BRANCH  35  38
ATOM     38  O2  UNL     1       0.588  -3.973 -20.369  0.00  0.00    -0.507 OA
ATOM     39  H11 UNL     1       0.650  -4.941 -20.308  0.00  0.00    +0.292 HD
ENDBRANCH  35  38
ENDBRANCH  31  32
ENDBRANCH   5  30
TORSDOF 7
ENDMDL
