MODEL 1
REMARK VINA RESULT:    -5.793      0.000      0.000
REMARK INTER + INTRA:          -7.957
REMARK INTER:                  -7.317
REMARK INTRA:                  -0.641
REMARK UNBOUND:                -0.641
REMARK  Name = /home/vital/Documents/PhD_2021/Malaria_codes/data/pdb_ligands_mmv/ligand_127.pdb
REMARK  6 active torsions:
REMARK  status: ('A' for Active; 'I' for Inactive)
REMARK    1  A    between atoms: C1_1  and  C2_2
REMARK    2  A    between atoms: C2_2  and  N1_3
REMARK    3  A    between atoms: C2_2  and  C10_11
REMARK    4  A    between atoms: N1_3  and  C3_4
REMARK    5  A    between atoms: C3_4  and  C4_5
REMARK    6  A    between atoms: C15_17  and  O1_18
REMARK                            x       y       z     vdW  Elec       q    Type
REMARK                         _______ _______ _______ _____ _____    ______ ____
ROOT
ATOM      1  C1  UNL     1      -0.670   4.910 -16.162  0.00  0.00    +0.029 C 
ATOM      2  C2  UNL     1       0.473   5.449 -15.294  0.00  0.00    +0.085 C 
ENDROOT
BRANCH   2   3
ATOM      3  C10 UNL     1       1.500   4.438 -14.792  0.00  0.00    +0.012 A 
ATOM      4  C11 UNL     1       1.878   3.403 -15.675  0.00  0.00    +0.028 A 
ATOM      5  C12 UNL     1       2.806   2.433 -15.294  0.00  0.00    +0.042 A 
ATOM      6 CL1  UNL     1       3.246   1.189 -16.398  0.00  0.00    -0.084 Cl
ATOM      7  C13 UNL     1       3.376   2.465 -14.027  0.00  0.00    +0.023 A 
ATOM      8  C14 UNL     1       3.011   3.471 -13.134  0.00  0.00    +0.047 A 
ATOM      9  C15 UNL     1       2.078   4.443 -13.515  0.00  0.00    +0.122 A 
BRANCH   9  10
ATOM     10  O1  UNL     1       1.719   5.395 -12.605  0.00  0.00    -0.506 OA
ATOM     11  H16 UNL     1       2.268   6.186 -12.728  0.00  0.00    +0.292 HD
ENDBRANCH   9  10
ENDBRANCH   2   3
BRANCH   2  12
ATOM     12  N1  UNL     1       1.094   6.663 -15.849  0.00  0.00    -0.305 NA
ATOM     13  H5  UNL     1       2.100   6.624 -15.694  0.00  0.00    +0.123 HD
BRANCH  12  14
ATOM     14  C3  UNL     1       0.858   6.867 -17.277  0.00  0.00    +0.117 C 
BRANCH  14  15
ATOM     15  C4  UNL     1       1.806   7.914 -17.820  0.00  0.00    -0.034 A 
ATOM     16  C5  UNL     1       2.340   8.901 -16.979  0.00  0.00    +0.005 A 
ATOM     17  C6  UNL     1       3.206   9.871 -17.488  0.00  0.00    +0.000 A 
ATOM     18  C7  UNL     1       3.540   9.869 -18.841  0.00  0.00    +0.000 A 
ATOM     19  C8  UNL     1       3.006   8.900 -19.688  0.00  0.00    +0.000 A 
ATOM     20  C9  UNL     1       2.142   7.929 -19.182  0.00  0.00    +0.005 A 
ENDBRANCH  14  15
ENDBRANCH  12  14
ENDBRANCH   2  12
TORSDOF 5
ENDMDL
MODEL 2
REMARK VINA RESULT:    -5.555      9.291     10.992
REMARK INTER + INTRA:          -7.658
REMARK INTER:                  -6.643
REMARK INTRA:                  -1.015
REMARK UNBOUND:                -0.641
REMARK  Name = /home/vital/Documents/PhD_2021/Malaria_codes/data/pdb_ligands_mmv/ligand_127.pdb
REMARK  6 active torsions:
REMARK  status: ('A' for Active; 'I' for Inactive)
REMARK    1  A    between atoms: C1_1  and  C2_2
REMARK    2  A    between atoms: C2_2  and  N1_3
REMARK    3  A    between atoms: C2_2  and  C10_11
REMARK    4  A    between atoms: N1_3  and  C3_4
REMARK    5  A    between atoms: C3_4  and  C4_5
REMARK    6  A    between atoms: C15_17  and  O1_18
REMARK                            x       y       z     vdW  Elec       q    Type
REMARK                         _______ _______ _______ _____ _____    ______ ____
ROOT
ATOM      1  C1  UNL     1      -0.074  -3.944 -22.784  0.00  0.00    +0.029 C 
ATOM      2  C2  UNL     1       0.049  -4.267 -21.290  0.00  0.00    +0.085 C 
ENDROOT
BRANCH   2   3
ATOM      3  C10 UNL     1       1.208  -3.624 -20.535  0.00  0.00    +0.012 A 
ATOM      4  C11 UNL     1       2.476  -4.236 -20.644  0.00  0.00    +0.028 A 
ATOM      5  C12 UNL     1       3.588  -3.717 -19.981  0.00  0.00    +0.042 A 
ATOM      6 CL1  UNL     1       5.117  -4.489 -20.140  0.00  0.00    -0.084 Cl
ATOM      7  C13 UNL     1       3.468  -2.580 -19.190  0.00  0.00    +0.023 A 
ATOM      8  C14 UNL     1       2.225  -1.963 -19.059  0.00  0.00    +0.047 A 
ATOM      9  C15 UNL     1       1.108  -2.485 -19.722  0.00  0.00    +0.122 A 
BRANCH   9  10
ATOM     10  O1  UNL     1      -0.100  -1.875 -19.546  0.00  0.00    -0.506 OA
ATOM     11  H16 UNL     1      -0.813  -2.518 -19.689  0.00  0.00    +0.292 HD
ENDBRANCH   9  10
ENDBRANCH   2   3
BRANCH   2  12
ATOM     12  N1  UNL     1      -1.230  -4.157 -20.571  0.00  0.00    -0.305 NA
ATOM     13  H5  UNL     1      -1.225  -3.307 -20.009  0.00  0.00    +0.123 HD
BRANCH  12  14
ATOM     14  C3  UNL     1      -2.411  -4.130 -21.432  0.00  0.00    +0.117 C 
BRANCH  14  15
ATOM     15  C4  UNL     1      -3.272  -2.930 -21.101  0.00  0.00    -0.034 A 
ATOM     16  C5  UNL     1      -4.208  -2.444 -22.025  0.00  0.00    +0.005 A 
ATOM     17  C6  UNL     1      -4.991  -1.330 -21.719  0.00  0.00    +0.000 A 
ATOM     18  C7  UNL     1      -4.842  -0.686 -20.492  0.00  0.00    +0.000 A 
ATOM     19  C8  UNL     1      -3.907  -1.154 -19.570  0.00  0.00    +0.000 A 
ATOM     20  C9  UNL     1      -3.123  -2.267 -19.873  0.00  0.00    +0.005 A 
ENDBRANCH  14  15
ENDBRANCH  12  14
ENDBRANCH   2  12
TORSDOF 5
ENDMDL
MODEL 3
REMARK VINA RESULT:    -5.532     16.603     18.199
REMARK INTER + INTRA:          -7.628
REMARK INTER:                  -6.142
REMARK INTRA:                  -1.486
REMARK UNBOUND:                -0.641
REMARK  Name = /home/vital/Documents/PhD_2021/Malaria_codes/data/pdb_ligands_mmv/ligand_127.pdb
REMARK  6 active torsions:
REMARK  status: ('A' for Active; 'I' for Inactive)
REMARK    1  A    between atoms: C1_1  and  C2_2
REMARK    2  A    between atoms: C2_2  and  N1_3
REMARK    3  A    between atoms: C2_2  and  C10_11
REMARK    4  A    between atoms: N1_3  and  C3_4
REMARK    5  A    between atoms: C3_4  and  C4_5
REMARK    6  A    between atoms: C15_17  and  O1_18
REMARK                            x       y       z     vdW  Elec       q    Type
REMARK                         _______ _______ _______ _____ _____    ______ ____
ROOT
ATOM      1  C1  UNL     1       6.366  -0.413 -31.973  0.00  0.00    +0.029 C 
ATOM      2  C2  UNL     1       5.687  -1.492 -31.121  0.00  0.00    +0.085 C 
ENDROOT
BRANCH   2   3
ATOM      3  C10 UNL     1       5.270  -2.776 -31.832  0.00  0.00    +0.012 A 
ATOM      4  C11 UNL     1       4.084  -2.742 -32.596  0.00  0.00    +0.028 A 
ATOM      5  C12 UNL     1       3.628  -3.873 -33.273  0.00  0.00    +0.042 A 
ATOM      6 CL1  UNL     1       2.180  -3.792 -34.198  0.00  0.00    -0.084 Cl
ATOM      7  C13 UNL     1       4.336  -5.067 -33.203  0.00  0.00    +0.023 A 
ATOM      8  C14 UNL     1       5.505  -5.129 -32.446  0.00  0.00    +0.047 A 
ATOM      9  C15 UNL     1       5.961  -3.995 -31.765  0.00  0.00    +0.122 A 
BRANCH   9  10
ATOM     10  O1  UNL     1       7.091  -4.099 -31.007  0.00  0.00    -0.506 OA
ATOM     11  H16 UNL     1       6.854  -4.365 -30.104  0.00  0.00    +0.292 HD
ENDBRANCH   9  10
ENDBRANCH   2   3
BRANCH   2  12
ATOM     12  N1  UNL     1       6.383  -1.745 -29.850  0.00  0.00    -0.305 NA
ATOM     13  H5  UNL     1       7.033  -0.981 -29.669  0.00  0.00    +0.123 HD
BRANCH  12  14
ATOM     14  C3  UNL     1       5.503  -1.882 -28.691  0.00  0.00    +0.117 C 
BRANCH  14  15
ATOM     15  C4  UNL     1       5.805  -3.169 -27.954  0.00  0.00    -0.034 A 
ATOM     16  C5  UNL     1       4.852  -4.195 -27.885  0.00  0.00    +0.005 A 
ATOM     17  C6  UNL     1       5.133  -5.375 -27.194  0.00  0.00    +0.000 A 
ATOM     18  C7  UNL     1       6.363  -5.538 -26.559  0.00  0.00    +0.000 A 
ATOM     19  C8  UNL     1       7.313  -4.520 -26.612  0.00  0.00    +0.000 A 
ATOM     20  C9  UNL     1       7.036  -3.340 -27.302  0.00  0.00    +0.005 A 
ENDBRANCH  14  15
ENDBRANCH  12  14
ENDBRANCH   2  12
TORSDOF 5
ENDMDL
MODEL 4
REMARK VINA RESULT:    -5.441      2.822      6.133
REMARK INTER + INTRA:          -7.513
REMARK INTER:                  -6.276
REMARK INTRA:                  -1.237
REMARK UNBOUND:                -0.641
REMARK  Name = /home/vital/Documents/PhD_2021/Malaria_codes/data/pdb_ligands_mmv/ligand_127.pdb
REMARK  6 active torsions:
REMARK  status: ('A' for Active; 'I' for Inactive)
REMARK    1  A    between atoms: C1_1  and  C2_2
REMARK    2  A    between atoms: C2_2  and  N1_3
REMARK    3  A    between atoms: C2_2  and  C10_11
REMARK    4  A    between atoms: N1_3  and  C3_4
REMARK    5  A    between atoms: C3_4  and  C4_5
REMARK    6  A    between atoms: C15_17  and  O1_18
REMARK                            x       y       z     vdW  Elec       q    Type
REMARK                         _______ _______ _______ _____ _____    ______ ____
ROOT
ATOM      1  C1  UNL     1       0.624   6.458 -20.122  0.00  0.00    +0.029 C 
ATOM      2  C2  UNL     1       0.991   6.811 -18.676  0.00  0.00    +0.085 C 
ENDROOT
BRANCH   2   3
ATOM      3  C10 UNL     1       1.891   8.024 -18.464  0.00  0.00    +0.012 A 
ATOM      4  C11 UNL     1       2.627   8.490 -19.576  0.00  0.00    +0.028 A 
ATOM      5  C12 UNL     1       3.478   9.590 -19.468  0.00  0.00    +0.042 A 
ATOM      6 CL1  UNL     1       4.355  10.132 -20.845  0.00  0.00    -0.084 Cl
ATOM      7  C13 UNL     1       3.624  10.250 -18.253  0.00  0.00    +0.023 A 
ATOM      8  C14 UNL     1       2.916   9.802 -17.139  0.00  0.00    +0.047 A 
ATOM      9  C15 UNL     1       2.064   8.697 -17.246  0.00  0.00    +0.122 A 
BRANCH   9  10
ATOM     10  O1  UNL     1       1.411   8.266 -16.128  0.00  0.00    -0.506 OA
ATOM     11  H16 UNL     1       1.615   8.855 -15.385  0.00  0.00    +0.292 HD
ENDBRANCH   9  10
ENDBRANCH   2   3
BRANCH   2  12
ATOM     12  N1  UNL     1      -0.168   6.796 -17.769  0.00  0.00    -0.305 NA
ATOM     13  H5  UNL     1      -0.929   7.323 -18.193  0.00  0.00    +0.123 HD
BRANCH  12  14
ATOM     14  C3  UNL     1      -0.664   5.462 -17.438  0.00  0.00    +0.117 C 
BRANCH  14  15
ATOM     15  C4  UNL     1       0.288   4.771 -16.485  0.00  0.00    -0.034 A 
ATOM     16  C5  UNL     1       0.472   5.254 -15.181  0.00  0.00    +0.005 A 
ATOM     17  C6  UNL     1       1.360   4.620 -14.311  0.00  0.00    +0.000 A 
ATOM     18  C7  UNL     1       2.079   3.504 -14.736  0.00  0.00    +0.000 A 
ATOM     19  C8  UNL     1       1.912   3.022 -16.033  0.00  0.00    +0.000 A 
ATOM     20  C9  UNL     1       1.025   3.654 -16.904  0.00  0.00    +0.005 A 
ENDBRANCH  14  15
ENDBRANCH  12  14
ENDBRANCH   2  12
TORSDOF 5
ENDMDL
MODEL 5
REMARK VINA RESULT:    -5.383      2.551      6.121
REMARK INTER + INTRA:          -7.439
REMARK INTER:                  -6.272
REMARK INTRA:                  -1.167
REMARK UNBOUND:                -0.641
REMARK  Name = /home/vital/Documents/PhD_2021/Malaria_codes/data/pdb_ligands_mmv/ligand_127.pdb
REMARK  6 active torsions:
REMARK  status: ('A' for Active; 'I' for Inactive)
REMARK    1  A    between atoms: C1_1  and  C2_2
REMARK    2  A    between atoms: C2_2  and  N1_3
REMARK    3  A    between atoms: C2_2  and  C10_11
REMARK    4  A    between atoms: N1_3  and  C3_4
REMARK    5  A    between atoms: C3_4  and  C4_5
REMARK    6  A    between atoms: C15_17  and  O1_18
REMARK                            x       y       z     vdW  Elec       q    Type
REMARK                         _______ _______ _______ _____ _____    ______ ____
ROOT
ATOM      1  C1  UNL     1      -1.175   6.205 -18.723  0.00  0.00    +0.029 C 
ATOM      2  C2  UNL     1       0.238   5.964 -18.179  0.00  0.00    +0.085 C 
ENDROOT
BRANCH   2   3
ATOM      3  C10 UNL     1       1.198   7.150 -18.188  0.00  0.00    +0.012 A 
ATOM      4  C11 UNL     1       1.782   7.505 -19.424  0.00  0.00    +0.028 A 
ATOM      5  C12 UNL     1       2.675   8.572 -19.520  0.00  0.00    +0.042 A 
ATOM      6 CL1  UNL     1       3.363   8.977 -21.044  0.00  0.00    -0.084 Cl
ATOM      7  C13 UNL     1       3.012   9.310 -18.392  0.00  0.00    +0.023 A 
ATOM      8  C14 UNL     1       2.457   8.973 -17.159  0.00  0.00    +0.047 A 
ATOM      9  C15 UNL     1       1.563   7.900 -17.061  0.00  0.00    +0.122 A 
BRANCH   9  10
ATOM     10  O1  UNL     1       1.063   7.577 -15.833  0.00  0.00    -0.506 OA
ATOM     11  H16 UNL     1       1.563   6.831 -15.464  0.00  0.00    +0.292 HD
ENDBRANCH   9  10
ENDBRANCH   2   3
BRANCH   2  12
ATOM     12  N1  UNL     1       0.245   5.236 -16.899  0.00  0.00    -0.305 NA
ATOM     13  H5  UNL     1      -0.716   5.098 -16.590  0.00  0.00    +0.123 HD
BRANCH  12  14
ATOM     14  C3  UNL     1       0.903   3.932 -16.945  0.00  0.00    +0.117 C 
BRANCH  14  15
ATOM     15  C4  UNL     1       1.645   3.675 -15.652  0.00  0.00    -0.034 A 
ATOM     16  C5  UNL     1       2.625   2.674 -15.575  0.00  0.00    +0.005 A 
ATOM     17  C6  UNL     1       3.298   2.434 -14.376  0.00  0.00    +0.000 A 
ATOM     18  C7  UNL     1       2.994   3.184 -13.241  0.00  0.00    +0.000 A 
ATOM     19  C8  UNL     1       2.015   4.174 -13.303  0.00  0.00    +0.000 A 
ATOM     20  C9  UNL     1       1.341   4.416 -14.500  0.00  0.00    +0.005 A 
ENDBRANCH  14  15
ENDBRANCH  12  14
ENDBRANCH   2  12
TORSDOF 5
ENDMDL
MODEL 6
REMARK VINA RESULT:    -5.381      1.390      1.608
REMARK INTER + INTRA:          -7.437
REMARK INTER:                  -6.110
REMARK INTRA:                  -1.327
REMARK UNBOUND:                -0.641
REMARK  Name = /home/vital/Documents/PhD_2021/Malaria_codes/data/pdb_ligands_mmv/ligand_127.pdb
REMARK  6 active torsions:
REMARK  status: ('A' for Active; 'I' for Inactive)
REMARK    1  A    between atoms: C1_1  and  C2_2
REMARK    2  A    between atoms: C2_2  and  N1_3
REMARK    3  A    between atoms: C2_2  and  C10_11
REMARK    4  A    between atoms: N1_3  and  C3_4
REMARK    5  A    between atoms: C3_4  and  C4_5
REMARK    6  A    between atoms: C15_17  and  O1_18
REMARK                            x       y       z     vdW  Elec       q    Type
REMARK                         _______ _______ _______ _____ _____    ______ ____
ROOT
ATOM      1  C1  UNL     1       0.661   3.841 -18.384  0.00  0.00    +0.029 C 
ATOM      2  C2  UNL     1       0.376   4.788 -17.213  0.00  0.00    +0.085 C 
ENDROOT
BRANCH   2   3
ATOM      3  C10 UNL     1       1.185   4.576 -15.937  0.00  0.00    +0.012 A 
ATOM      4  C11 UNL     1       2.079   3.484 -15.907  0.00  0.00    +0.028 A 
ATOM      5  C12 UNL     1       2.852   3.214 -14.778  0.00  0.00    +0.042 A 
ATOM      6 CL1  UNL     1       3.934   1.877 -14.780  0.00  0.00    -0.084 Cl
ATOM      7  C13 UNL     1       2.753   4.020 -13.649  0.00  0.00    +0.023 A 
ATOM      8  C14 UNL     1       1.870   5.098 -13.651  0.00  0.00    +0.047 A 
ATOM      9  C15 UNL     1       1.092   5.367 -14.783  0.00  0.00    +0.122 A 
BRANCH   9  10
ATOM     10  O1  UNL     1       0.214   6.411 -14.738  0.00  0.00    -0.506 OA
ATOM     11  H16 UNL     1      -0.432   6.324 -15.457  0.00  0.00    +0.292 HD
ENDBRANCH   9  10
ENDBRANCH   2   3
BRANCH   2  12
ATOM     12  N1  UNL     1       0.312   6.201 -17.619  0.00  0.00    -0.305 NA
ATOM     13  H5  UNL     1       0.617   6.785 -16.842  0.00  0.00    +0.123 HD
BRANCH  12  14
ATOM     14  C3  UNL     1       1.122   6.535 -18.789  0.00  0.00    +0.117 C 
BRANCH  14  15
ATOM     15  C4  UNL     1       1.952   7.770 -18.515  0.00  0.00    -0.034 A 
ATOM     16  C5  UNL     1       2.088   8.268 -17.211  0.00  0.00    +0.005 A 
ATOM     17  C6  UNL     1       2.846   9.414 -16.967  0.00  0.00    +0.000 A 
ATOM     18  C7  UNL     1       3.469  10.078 -18.022  0.00  0.00    +0.000 A 
ATOM     19  C8  UNL     1       3.332   9.599 -19.323  0.00  0.00    +0.000 A 
ATOM     20  C9  UNL     1       2.575   8.454 -19.570  0.00  0.00    +0.005 A 
ENDBRANCH  14  15
ENDBRANCH  12  14
ENDBRANCH   2  12
TORSDOF 5
ENDMDL
MODEL 7
REMARK VINA RESULT:    -5.132     19.612     21.345
REMARK INTER + INTRA:          -7.123
REMARK INTER:                  -5.954
REMARK INTRA:                  -1.169
REMARK UNBOUND:                -0.641
REMARK  Name = /home/vital/Documents/PhD_2021/Malaria_codes/data/pdb_ligands_mmv/ligand_127.pdb
REMARK  6 active torsions:
REMARK  status: ('A' for Active; 'I' for Inactive)
REMARK    1  A    between atoms: C1_1  and  C2_2
REMARK    2  A    between atoms: C2_2  and  N1_3
REMARK    3  A    between atoms: C2_2  and  C10_11
REMARK    4  A    between atoms: N1_3  and  C3_4
REMARK    5  A    between atoms: C3_4  and  C4_5
REMARK    6  A    between atoms: C15_17  and  O1_18
REMARK                            x       y       z     vdW  Elec       q    Type
REMARK                         _______ _______ _______ _____ _____    ______ ____
ROOT
ATOM      1  C1  UNL     1       2.560  -2.092 -32.210  0.00  0.00    +0.029 C 
ATOM      2  C2  UNL     1       2.140  -3.268 -33.099  0.00  0.00    +0.085 C 
ENDROOT
BRANCH   2   3
ATOM      3  C10 UNL     1       1.186  -2.962 -34.250  0.00  0.00    +0.012 A 
ATOM      4  C11 UNL     1       0.496  -1.730 -34.213  0.00  0.00    +0.028 A 
ATOM      5  C12 UNL     1      -0.399  -1.374 -35.222  0.00  0.00    +0.042 A 
ATOM      6 CL1  UNL     1      -1.218   0.137 -35.144  0.00  0.00    -0.084 Cl
ATOM      7  C13 UNL     1      -0.634  -2.233 -36.288  0.00  0.00    +0.023 A 
ATOM      8  C14 UNL     1       0.027  -3.459 -36.342  0.00  0.00    +0.047 A 
ATOM      9  C15 UNL     1       0.923  -3.818 -35.329  0.00  0.00    +0.122 A 
BRANCH   9  10
ATOM     10  O1  UNL     1       1.529  -5.039 -35.396  0.00  0.00    -0.506 OA
ATOM     11  H16 UNL     1       1.579  -5.427 -34.507  0.00  0.00    +0.292 HD
ENDBRANCH   9  10
ENDBRANCH   2   3
BRANCH   2  12
ATOM     12  N1  UNL     1       3.273  -4.113 -33.508  0.00  0.00    -0.305 NA
ATOM     13  H5  UNL     1       4.062  -3.517 -33.754  0.00  0.00    +0.123 HD
BRANCH  12  14
ATOM     14  C3  UNL     1       3.718  -5.066 -32.493  0.00  0.00    +0.117 C 
BRANCH  14  15
ATOM     15  C4  UNL     1       2.717  -6.193 -32.358  0.00  0.00    -0.034 A 
ATOM     16  C5  UNL     1       2.654  -7.214 -33.317  0.00  0.00    +0.005 A 
ATOM     17  C6  UNL     1       1.721  -8.244 -33.193  0.00  0.00    +0.000 A 
ATOM     18  C7  UNL     1       0.837  -8.261 -32.116  0.00  0.00    +0.000 A 
ATOM     19  C8  UNL     1       0.883  -7.246 -31.162  0.00  0.00    +0.000 A 
ATOM     20  C9  UNL     1       1.815  -6.215 -31.284  0.00  0.00    +0.005 A 
ENDBRANCH  14  15
ENDBRANCH  12  14
ENDBRANCH   2  12
TORSDOF 5
ENDMDL
MODEL 8
REMARK VINA RESULT:    -4.721     10.128     12.001
REMARK INTER + INTRA:          -6.604
REMARK INTER:                  -4.941
REMARK INTRA:                  -1.663
REMARK UNBOUND:                -0.641
REMARK  Name = /home/vital/Documents/PhD_2021/Malaria_codes/data/pdb_ligands_mmv/ligand_127.pdb
REMARK  6 active torsions:
REMARK  status: ('A' for Active; 'I' for Inactive)
REMARK    1  A    between atoms: C1_1  and  C2_2
REMARK    2  A    between atoms: C2_2  and  N1_3
REMARK    3  A    between atoms: C2_2  and  C10_11
REMARK    4  A    between atoms: N1_3  and  C3_4
REMARK    5  A    between atoms: C3_4  and  C4_5
REMARK    6  A    between atoms: C15_17  and  O1_18
REMARK                            x       y       z     vdW  Elec       q    Type
REMARK                         _______ _______ _______ _____ _____    ______ ____
ROOT
ATOM      1  C1  UNL     1       1.165  -2.961 -20.190  0.00  0.00    +0.029 C 
ATOM      2  C2  UNL     1      -0.142  -2.702 -20.948  0.00  0.00    +0.085 C 
ENDROOT
BRANCH   2   3
ATOM      3  C10 UNL     1      -0.664  -3.828 -21.835  0.00  0.00    +0.012 A 
ATOM      4  C11 UNL     1      -0.025  -4.027 -23.079  0.00  0.00    +0.028 A 
ATOM      5  C12 UNL     1      -0.443  -5.030 -23.954  0.00  0.00    +0.042 A 
ATOM      6 CL1  UNL     1       0.363  -5.244 -25.458  0.00  0.00    -0.084 Cl
ATOM      7  C13 UNL     1      -1.508  -5.857 -23.617  0.00  0.00    +0.023 A 
ATOM      8  C14 UNL     1      -2.161  -5.674 -22.399  0.00  0.00    +0.047 A 
ATOM      9  C15 UNL     1      -1.744  -4.666 -21.523  0.00  0.00    +0.122 A 
BRANCH   9  10
ATOM     10  O1  UNL     1      -2.426  -4.494 -20.353  0.00  0.00    -0.506 OA
ATOM     11  H16 UNL     1      -2.960  -3.685 -20.404  0.00  0.00    +0.292 HD
ENDBRANCH   9  10
ENDBRANCH   2   3
BRANCH   2  12
ATOM     12  N1  UNL     1      -1.191  -2.112 -20.102  0.00  0.00    -0.305 NA
ATOM     13  H5  UNL     1      -0.828  -1.992 -19.157  0.00  0.00    +0.123 HD
BRANCH  12  14
ATOM     14  C3  UNL     1      -1.691  -0.819 -20.567  0.00  0.00    +0.117 C 
BRANCH  14  15
ATOM     15  C4  UNL     1      -3.005  -0.999 -21.295  0.00  0.00    -0.034 A 
ATOM     16  C5  UNL     1      -3.056  -0.975 -22.697  0.00  0.00    +0.005 A 
ATOM     17  C6  UNL     1      -4.273  -1.129 -23.363  0.00  0.00    +0.000 A 
ATOM     18  C7  UNL     1      -5.451  -1.301 -22.637  0.00  0.00    +0.000 A 
ATOM     19  C8  UNL     1      -5.413  -1.316 -21.244  0.00  0.00    +0.000 A 
ATOM     20  C9  UNL     1      -4.199  -1.162 -20.576  0.00  0.00    +0.005 A 
ENDBRANCH  14  15
ENDBRANCH  12  14
ENDBRANCH   2  12
TORSDOF 5
ENDMDL
MODEL 9
REMARK VINA RESULT:    -4.478     19.146     20.253
REMARK INTER + INTRA:          -6.296
REMARK INTER:                  -4.965
REMARK INTRA:                  -1.331
REMARK UNBOUND:                -0.641
REMARK  Name = /home/vital/Documents/PhD_2021/Malaria_codes/data/pdb_ligands_mmv/ligand_127.pdb
REMARK  6 active torsions:
REMARK  status: ('A' for Active; 'I' for Inactive)
REMARK    1  A    between atoms: C1_1  and  C2_2
REMARK    2  A    between atoms: C2_2  and  N1_3
REMARK    3  A    between atoms: C2_2  and  C10_11
REMARK    4  A    between atoms: N1_3  and  C3_4
REMARK    5  A    between atoms: C3_4  and  C4_5
REMARK    6  A    between atoms: C15_17  and  O1_18
REMARK                            x       y       z     vdW  Elec       q    Type
REMARK                         _______ _______ _______ _____ _____    ______ ____
ROOT
ATOM      1  C1  UNL     1       3.171  -3.401 -30.880  0.00  0.00    +0.029 C 
ATOM      2  C2  UNL     1       3.089  -4.214 -32.178  0.00  0.00    +0.085 C 
ENDROOT
BRANCH   2   3
ATOM      3  C10 UNL     1       2.253  -5.490 -32.146  0.00  0.00    +0.012 A 
ATOM      4  C11 UNL     1       1.535  -5.768 -30.962  0.00  0.00    +0.028 A 
ATOM      5  C12 UNL     1       0.750  -6.916 -30.846  0.00  0.00    +0.042 A 
ATOM      6 CL1  UNL     1      -0.113  -7.219 -29.390  0.00  0.00    -0.084 Cl
ATOM      7  C13 UNL     1       0.663  -7.817 -31.901  0.00  0.00    +0.023 A 
ATOM      8  C14 UNL     1       1.371  -7.569 -33.076  0.00  0.00    +0.047 A 
ATOM      9  C15 UNL     1       2.160  -6.419 -33.192  0.00  0.00    +0.122 A 
BRANCH   9  10
ATOM     10  O1  UNL     1       2.865  -6.224 -34.344  0.00  0.00    -0.506 OA
ATOM     11  H16 UNL     1       3.798  -6.062 -34.131  0.00  0.00    +0.292 HD
ENDBRANCH   9  10
ENDBRANCH   2   3
BRANCH   2  12
ATOM     12  N1  UNL     1       2.816  -3.383 -33.361  0.00  0.00    -0.305 NA
ATOM     13  H5  UNL     1       2.507  -3.982 -34.125  0.00  0.00    +0.123 HD
BRANCH  12  14
ATOM     14  C3  UNL     1       1.805  -2.347 -33.155  0.00  0.00    +0.117 C 
BRANCH  14  15
ATOM     15  C4  UNL     1       0.779  -2.388 -34.267  0.00  0.00    -0.034 A 
ATOM     16  C5  UNL     1       0.801  -3.413 -35.224  0.00  0.00    +0.005 A 
ATOM     17  C6  UNL     1      -0.141  -3.439 -36.253  0.00  0.00    +0.000 A 
ATOM     18  C7  UNL     1      -1.108  -2.439 -36.342  0.00  0.00    +0.000 A 
ATOM     19  C8  UNL     1      -1.132  -1.410 -35.403  0.00  0.00    +0.000 A 
ATOM     20  C9  UNL     1      -0.192  -1.382 -34.372  0.00  0.00    +0.005 A 
ENDBRANCH  14  15
ENDBRANCH  12  14
ENDBRANCH   2  12
TORSDOF 5
ENDMDL
