MODEL 1
REMARK VINA RESULT:    -5.605      0.000      0.000
REMARK INTER + INTRA:          -8.672
REMARK INTER:                  -7.243
REMARK INTRA:                  -1.429
REMARK UNBOUND:                -1.429
REMARK  Name = /home/vital/Documents/PhD_2021/Malaria_codes/data/pdb_ligands_mmv/ligand_107.pdb
REMARK  6 active torsions:
REMARK  status: ('A' for Active; 'I' for Inactive)
REMARK    1  A    between atoms: C1_1  and  O1_2
REMARK    2  A    between atoms: O1_2  and  C2_3
REMARK    3  A    between atoms: C5_6  and  C8_9
REMARK    4  A    between atoms: N1_11  and  C9_12
REMARK    5  A    between atoms: C14_18  and  C15_19
REMARK    6  A    between atoms: N2_21  and  C16_22
REMARK                            x       y       z     vdW  Elec       q    Type
REMARK                         _______ _______ _______ _____ _____    ______ ____
ROOT
ATOM      1  C9  UNL     1       3.244   7.928 -18.842  0.00  0.00    +0.046 A 
ATOM      2  C10 UNL     1       4.194   8.956 -18.875  0.00  0.00    +0.025 A 
ATOM      3  C11 UNL     1       4.367   9.738 -20.024  0.00  0.00    +0.022 A 
ATOM      4  C12 UNL     1       3.596   9.494 -21.153  0.00  0.00    +0.042 A 
ATOM      5 CL1  UNL     1       3.827  10.440 -22.570  0.00  0.00    -0.084 Cl
ATOM      6  C13 UNL     1       2.633   8.490 -21.144  0.00  0.00    +0.035 A 
ATOM      7  C14 UNL     1       2.433   7.721 -19.984  0.00  0.00    +0.060 A 
ENDROOT
BRANCH   1  10
ATOM      8  C8  UNL     1       2.140   7.192 -16.697  0.00  0.00    +0.248 C 
ATOM      9  O2  UNL     1       1.267   8.048 -16.598  0.00  0.00    -0.270 OA
ATOM     10  N1  UNL     1       3.072   7.090 -17.711  0.00  0.00    -0.281 N 
ATOM     11  H8  UNL     1       3.806   6.389 -17.599  0.00  0.00    +0.155 HD
BRANCH   8  15
ATOM     12  C2  UNL     1       2.555   4.241 -13.587  0.00  0.00    +0.120 A 
ATOM     13  C3  UNL     1       1.287   4.543 -14.093  0.00  0.00    +0.046 A 
ATOM     14  C4  UNL     1       1.126   5.498 -15.102  0.00  0.00    +0.016 A 
ATOM     15  C5  UNL     1       2.243   6.158 -15.624  0.00  0.00    +0.037 A 
ATOM     16  C6  UNL     1       3.512   5.866 -15.105  0.00  0.00    +0.016 A 
ATOM     17  C7  UNL     1       3.669   4.910 -14.095  0.00  0.00    +0.046 A 
BRANCH  12  19
ATOM     18  C1  UNL     1       3.694   2.424 -12.562  0.00  0.00    +0.277 C 
ATOM     19  O1  UNL     1       2.565   3.289 -12.606  0.00  0.00    -0.495 OA
ENDBRANCH  12  19
ENDBRANCH   8  15
ENDBRANCH   1  10
BRANCH   7  20
ATOM     20  C15 UNL     1       1.355   6.680 -19.974  0.00  0.00    +0.250 C 
ATOM     21  O3  UNL     1       1.611   5.573 -20.438  0.00  0.00    -0.270 OA
ATOM     22  N2  UNL     1       0.171   7.055 -19.364  0.00  0.00    -0.281 N 
ATOM     23  H12 UNL     1       0.159   7.938 -18.869  0.00  0.00    +0.155 HD
BRANCH  22  24
ATOM     24  C16 UNL     1      -1.011   6.286 -19.257  0.00  0.00    +0.037 A 
ATOM     25  C17 UNL     1      -1.441   5.946 -17.973  0.00  0.00    +0.043 A 
ATOM     26  C18 UNL     1      -2.599   5.199 -17.836  0.00  0.00    +0.112 A 
ATOM     27  N3  UNL     1      -3.344   4.777 -18.876  0.00  0.00    -0.263 NA
ATOM     28  C19 UNL     1      -2.913   5.123 -20.107  0.00  0.00    +0.112 A 
ATOM     29  C20 UNL     1      -1.767   5.867 -20.346  0.00  0.00    +0.043 A 
ENDBRANCH  22  24
ENDBRANCH   7  20
TORSDOF 5
ENDMDL
MODEL 2
REMARK VINA RESULT:    -5.486     12.105     13.549
REMARK INTER + INTRA:          -8.518
REMARK INTER:                  -7.079
REMARK INTRA:                  -1.439
REMARK UNBOUND:                -1.429
REMARK  Name = /home/vital/Documents/PhD_2021/Malaria_codes/data/pdb_ligands_mmv/ligand_107.pdb
REMARK  6 active torsions:
REMARK  status: ('A' for Active; 'I' for Inactive)
REMARK    1  A    between atoms: C1_1  and  O1_2
REMARK    2  A    between atoms: O1_2  and  C2_3
REMARK    3  A    between atoms: C5_6  and  C8_9
REMARK    4  A    between atoms: N1_11  and  C9_12
REMARK    5  A    between atoms: C14_18  and  C15_19
REMARK    6  A    between atoms: N2_21  and  C16_22
REMARK                            x       y       z     vdW  Elec       q    Type
REMARK                         _______ _______ _______ _____ _____    ______ ____
ROOT
ATOM      1  C9  UNL     1       9.973  -0.523 -25.387  0.00  0.00    +0.046 A 
ATOM      2  C10 UNL     1      11.052  -0.282 -26.246  0.00  0.00    +0.025 A 
ATOM      3  C11 UNL     1      11.926   0.788 -26.020  0.00  0.00    +0.022 A 
ATOM      4  C12 UNL     1      11.726   1.631 -24.934  0.00  0.00    +0.042 A 
ATOM      5 CL1  UNL     1      12.787   2.959 -24.672  0.00  0.00    -0.084 Cl
ATOM      6  C13 UNL     1      10.672   1.408 -24.055  0.00  0.00    +0.035 A 
ATOM      7  C14 UNL     1       9.808   0.318 -24.259  0.00  0.00    +0.060 A 
ENDROOT
BRANCH   1  10
ATOM      8  C8  UNL     1       8.978  -2.808 -25.002  0.00  0.00    +0.248 C 
ATOM      9  O2  UNL     1       9.731  -3.227 -24.129  0.00  0.00    -0.270 OA
ATOM     10  N1  UNL     1       9.044  -1.570 -25.611  0.00  0.00    -0.281 N 
ATOM     11  H8  UNL     1       8.415  -1.405 -26.399  0.00  0.00    +0.155 HD
BRANCH   8  15
ATOM     12  C2  UNL     1       5.797  -5.412 -26.286  0.00  0.00    +0.120 A 
ATOM     13  C3  UNL     1       6.511  -4.670 -27.231  0.00  0.00    +0.046 A 
ATOM     14  C4  UNL     1       7.547  -3.816 -26.840  0.00  0.00    +0.016 A 
ATOM     15  C5  UNL     1       7.887  -3.705 -25.487  0.00  0.00    +0.037 A 
ATOM     16  C6  UNL     1       7.161  -4.439 -24.539  0.00  0.00    +0.016 A 
ATOM     17  C7  UNL     1       6.124  -5.291 -24.936  0.00  0.00    +0.046 A 
BRANCH  12  19
ATOM     18  C1  UNL     1       3.525  -5.619 -26.954  0.00  0.00    +0.277 C 
ATOM     19  O1  UNL     1       4.813  -6.205 -26.808  0.00  0.00    -0.495 OA
ENDBRANCH  12  19
ENDBRANCH   8  15
ENDBRANCH   1  10
BRANCH   7  20
ATOM     20  C15 UNL     1       8.711   0.059 -23.272  0.00  0.00    +0.250 C 
ATOM     21  O3  UNL     1       7.649   0.658 -23.411  0.00  0.00    -0.270 OA
ATOM     22  N2  UNL     1       8.983  -0.905 -22.317  0.00  0.00    -0.281 N 
ATOM     23  H12 UNL     1       9.834  -1.444 -22.426  0.00  0.00    +0.155 HD
BRANCH  22  24
ATOM     24  C16 UNL     1       8.146  -1.307 -21.251  0.00  0.00    +0.037 A 
ATOM     25  C17 UNL     1       7.026  -2.077 -21.570  0.00  0.00    +0.043 A 
ATOM     26  C18 UNL     1       6.190  -2.490 -20.546  0.00  0.00    +0.112 A 
ATOM     27  N3  UNL     1       6.394  -2.194 -19.247  0.00  0.00    -0.263 NA
ATOM     28  C19 UNL     1       7.486  -1.455 -18.963  0.00  0.00    +0.112 A 
ATOM     29  C20 UNL     1       8.381  -0.994 -19.917  0.00  0.00    +0.043 A 
ENDBRANCH  22  24
ENDBRANCH   7  20
TORSDOF 5
ENDMDL
MODEL 3
REMARK VINA RESULT:    -5.486     16.520     18.987
REMARK INTER + INTRA:          -8.518
REMARK INTER:                  -7.161
REMARK INTRA:                  -1.357
REMARK UNBOUND:                -1.429
REMARK  Name = /home/vital/Documents/PhD_2021/Malaria_codes/data/pdb_ligands_mmv/ligand_107.pdb
REMARK  6 active torsions:
REMARK  status: ('A' for Active; 'I' for Inactive)
REMARK    1  A    between atoms: C1_1  and  O1_2
REMARK    2  A    between atoms: O1_2  and  C2_3
REMARK    3  A    between atoms: C5_6  and  C8_9
REMARK    4  A    between atoms: N1_11  and  C9_12
REMARK    5  A    between atoms: C14_18  and  C15_19
REMARK    6  A    between atoms: N2_21  and  C16_22
REMARK                            x       y       z     vdW  Elec       q    Type
REMARK                         _______ _______ _______ _____ _____    ______ ____
ROOT
ATOM      1  C9  UNL     1       1.677  -7.204 -32.339  0.00  0.00    +0.046 A 
ATOM      2  C10 UNL     1       1.591  -8.028 -33.468  0.00  0.00    +0.025 A 
ATOM      3  C11 UNL     1       0.676  -9.086 -33.518  0.00  0.00    +0.022 A 
ATOM      4  C12 UNL     1      -0.158  -9.335 -32.435  0.00  0.00    +0.042 A 
ATOM      5 CL1  UNL     1      -1.265 -10.650 -32.489  0.00  0.00    -0.084 Cl
ATOM      6  C13 UNL     1      -0.106  -8.524 -31.306  0.00  0.00    +0.035 A 
ATOM      7  C14 UNL     1       0.789  -7.441 -31.261  0.00  0.00    +0.060 A 
ENDROOT
BRANCH   1  10
ATOM      8  C8  UNL     1       2.816  -5.084 -33.093  0.00  0.00    +0.248 C 
ATOM      9  O2  UNL     1       2.182  -4.851 -34.117  0.00  0.00    -0.270 OA
ATOM     10  N1  UNL     1       2.621  -6.151 -32.238  0.00  0.00    -0.281 N 
ATOM     11  H8  UNL     1       3.300  -6.274 -31.484  0.00  0.00    +0.155 HD
BRANCH   8  15
ATOM     12  C2  UNL     1       5.933  -2.311 -32.023  0.00  0.00    +0.120 A 
ATOM     13  C3  UNL     1       6.154  -3.686 -31.897  0.00  0.00    +0.046 A 
ATOM     14  C4  UNL     1       5.157  -4.607 -32.237  0.00  0.00    +0.016 A 
ATOM     15  C5  UNL     1       3.924  -4.155 -32.718  0.00  0.00    +0.037 A 
ATOM     16  C6  UNL     1       3.698  -2.776 -32.830  0.00  0.00    +0.016 A 
ATOM     17  C7  UNL     1       4.699  -1.858 -32.487  0.00  0.00    +0.046 A 
BRANCH  12  19
ATOM     18  C1  UNL     1       7.023  -0.205 -32.177  0.00  0.00    +0.277 C 
ATOM     19  O1  UNL     1       6.992  -1.528 -31.656  0.00  0.00    -0.495 OA
ENDBRANCH  12  19
ENDBRANCH   8  15
ENDBRANCH   1  10
BRANCH   7  20
ATOM     20  C15 UNL     1       0.794  -6.545 -30.061  0.00  0.00    +0.250 C 
ATOM     21  O3  UNL     1       0.985  -5.345 -30.231  0.00  0.00    -0.270 OA
ATOM     22  N2  UNL     1       0.506  -7.161 -28.855  0.00  0.00    -0.281 N 
ATOM     23  H12 UNL     1       0.197  -8.125 -28.886  0.00  0.00    +0.155 HD
BRANCH  22  24
ATOM     24  C16 UNL     1       0.489  -6.561 -27.576  0.00  0.00    +0.037 A 
ATOM     25  C17 UNL     1      -0.713  -5.993 -27.149  0.00  0.00    +0.043 A 
ATOM     26  C18 UNL     1      -0.761  -5.402 -25.897  0.00  0.00    +0.112 A 
ATOM     27  N3  UNL     1       0.290  -5.344 -25.056  0.00  0.00    -0.263 NA
ATOM     28  C19 UNL     1       1.439  -5.905 -25.487  0.00  0.00    +0.112 A 
ATOM     29  C20 UNL     1       1.586  -6.518 -26.722  0.00  0.00    +0.043 A 
ENDBRANCH  22  24
ENDBRANCH   7  20
TORSDOF 5
ENDMDL
MODEL 4
REMARK VINA RESULT:    -5.396      4.997      7.795
REMARK INTER + INTRA:          -8.402
REMARK INTER:                  -7.098
REMARK INTRA:                  -1.305
REMARK UNBOUND:                -1.429
REMARK  Name = /home/vital/Documents/PhD_2021/Malaria_codes/data/pdb_ligands_mmv/ligand_107.pdb
REMARK  6 active torsions:
REMARK  status: ('A' for Active; 'I' for Inactive)
REMARK    1  A    between atoms: C1_1  and  O1_2
REMARK    2  A    between atoms: O1_2  and  C2_3
REMARK    3  A    between atoms: C5_6  and  C8_9
REMARK    4  A    between atoms: N1_11  and  C9_12
REMARK    5  A    between atoms: C14_18  and  C15_19
REMARK    6  A    between atoms: N2_21  and  C16_22
REMARK                            x       y       z     vdW  Elec       q    Type
REMARK                         _______ _______ _______ _____ _____    ______ ____
ROOT
ATOM      1  C9  UNL     1       1.507   3.768 -15.274  0.00  0.00    +0.046 A 
ATOM      2  C10 UNL     1       1.665   4.455 -14.064  0.00  0.00    +0.025 A 
ATOM      3  C11 UNL     1       2.610   4.037 -13.119  0.00  0.00    +0.022 A 
ATOM      4  C12 UNL     1       3.401   2.924 -13.372  0.00  0.00    +0.042 A 
ATOM      5 CL1  UNL     1       4.544   2.399 -12.199  0.00  0.00    -0.084 Cl
ATOM      6  C13 UNL     1       3.277   2.230 -14.571  0.00  0.00    +0.035 A 
ATOM      7  C14 UNL     1       2.352   2.662 -15.538  0.00  0.00    +0.060 A 
ENDROOT
BRANCH   1  10
ATOM      8  C8  UNL     1       0.236   5.395 -16.722  0.00  0.00    +0.248 C 
ATOM      9  O2  UNL     1       0.789   6.443 -16.406  0.00  0.00    -0.270 OA
ATOM     10  N1  UNL     1       0.531   4.137 -16.234  0.00  0.00    -0.281 N 
ATOM     11  H8  UNL     1      -0.089   3.374 -16.509  0.00  0.00    +0.155 HD
BRANCH   8  15
ATOM     12  C2  UNL     1      -3.058   5.536 -19.493  0.00  0.00    +0.120 A 
ATOM     13  C3  UNL     1      -1.792   5.967 -19.898  0.00  0.00    +0.046 A 
ATOM     14  C4  UNL     1      -0.706   5.933 -19.017  0.00  0.00    +0.016 A 
ATOM     15  C5  UNL     1      -0.879   5.453 -17.714  0.00  0.00    +0.037 A 
ATOM     16  C6  UNL     1      -2.153   5.035 -17.304  0.00  0.00    +0.016 A 
ATOM     17  C7  UNL     1      -3.237   5.072 -18.190  0.00  0.00    +0.046 A 
BRANCH  12  19
ATOM     18  C1  UNL     1      -3.676   6.303 -21.656  0.00  0.00    +0.277 C 
ATOM     19  O1  UNL     1      -4.025   5.625 -20.456  0.00  0.00    -0.495 OA
ENDBRANCH  12  19
ENDBRANCH   8  15
ENDBRANCH   1  10
BRANCH   7  20
ATOM     20  C15 UNL     1       2.269   1.938 -16.846  0.00  0.00    +0.250 C 
ATOM     21  O3  UNL     1       2.035   2.590 -17.859  0.00  0.00    -0.270 OA
ATOM     22  N2  UNL     1       2.540   0.581 -16.795  0.00  0.00    -0.281 N 
ATOM     23  H12 UNL     1       2.889   0.208 -15.921  0.00  0.00    +0.155 HD
BRANCH  22  24
ATOM     24  C16 UNL     1       2.488  -0.338 -17.868  0.00  0.00    +0.037 A 
ATOM     25  C17 UNL     1       3.602  -0.409 -18.706  0.00  0.00    +0.043 A 
ATOM     26  C18 UNL     1       3.583  -1.304 -19.763  0.00  0.00    +0.112 A 
ATOM     27  N3  UNL     1       2.546  -2.121 -20.033  0.00  0.00    -0.263 NA
ATOM     28  C19 UNL     1       1.483  -2.039 -19.206  0.00  0.00    +0.112 A 
ATOM     29  C20 UNL     1       1.408  -1.175 -18.124  0.00  0.00    +0.043 A 
ENDBRANCH  22  24
ENDBRANCH   7  20
TORSDOF 5
ENDMDL
MODEL 5
REMARK VINA RESULT:    -5.156      3.890      8.698
REMARK INTER + INTRA:          -8.092
REMARK INTER:                  -7.095
REMARK INTRA:                  -0.996
REMARK UNBOUND:                -1.429
REMARK  Name = /home/vital/Documents/PhD_2021/Malaria_codes/data/pdb_ligands_mmv/ligand_107.pdb
REMARK  6 active torsions:
REMARK  status: ('A' for Active; 'I' for Inactive)
REMARK    1  A    between atoms: C1_1  and  O1_2
REMARK    2  A    between atoms: O1_2  and  C2_3
REMARK    3  A    between atoms: C5_6  and  C8_9
REMARK    4  A    between atoms: N1_11  and  C9_12
REMARK    5  A    between atoms: C14_18  and  C15_19
REMARK    6  A    between atoms: N2_21  and  C16_22
REMARK                            x       y       z     vdW  Elec       q    Type
REMARK                         _______ _______ _______ _____ _____    ______ ____
ROOT
ATOM      1  C9  UNL     1      -1.376   6.357 -18.756  0.00  0.00    +0.046 A 
ATOM      2  C10 UNL     1      -2.228   5.791 -17.800  0.00  0.00    +0.025 A 
ATOM      3  C11 UNL     1      -1.712   5.156 -16.664  0.00  0.00    +0.022 A 
ATOM      4  C12 UNL     1      -0.338   5.075 -16.476  0.00  0.00    +0.042 A 
ATOM      5 CL1  UNL     1       0.293   4.273 -15.092  0.00  0.00    -0.084 Cl
ATOM      6  C13 UNL     1       0.533   5.641 -17.401  0.00  0.00    +0.035 A 
ATOM      7  C14 UNL     1       0.021   6.307 -18.528  0.00  0.00    +0.060 A 
ENDROOT
BRANCH   1  10
ATOM      8  C8  UNL     1      -2.548   6.390 -20.988  0.00  0.00    +0.248 C 
ATOM      9  O2  UNL     1      -2.871   5.210 -21.080  0.00  0.00    -0.270 OA
ATOM     10  N1  UNL     1      -1.863   6.969 -19.939  0.00  0.00    -0.281 N 
ATOM     11  H8  UNL     1      -1.569   7.941 -20.053  0.00  0.00    +0.155 HD
BRANCH   8  15
ATOM     12  C2  UNL     1      -3.456   9.012 -24.282  0.00  0.00    +0.120 A 
ATOM     13  C3  UNL     1      -4.422   8.771 -23.300  0.00  0.00    +0.046 A 
ATOM     14  C4  UNL     1      -4.152   7.922 -22.222  0.00  0.00    +0.016 A 
ATOM     15  C5  UNL     1      -2.899   7.311 -22.111  0.00  0.00    +0.037 A 
ATOM     16  C6  UNL     1      -1.937   7.542 -23.104  0.00  0.00    +0.016 A 
ATOM     17  C7  UNL     1      -2.212   8.391 -24.182  0.00  0.00    +0.046 A 
BRANCH  12  19
ATOM     18  C1  UNL     1      -2.835  10.603 -25.936  0.00  0.00    +0.277 C 
ATOM     19  O1  UNL     1      -3.855   9.862 -25.277  0.00  0.00    -0.495 OA
ENDBRANCH  12  19
ENDBRANCH   8  15
ENDBRANCH   1  10
BRANCH   7  20
ATOM     20  C15 UNL     1       0.971   6.959 -19.486  0.00  0.00    +0.250 C 
ATOM     21  O3  UNL     1       1.004   6.551 -20.643  0.00  0.00    -0.270 OA
ATOM     22  N2  UNL     1       1.687   8.031 -18.980  0.00  0.00    -0.281 N 
ATOM     23  H12 UNL     1       1.432   8.369 -18.060  0.00  0.00    +0.155 HD
BRANCH  22  24
ATOM     24  C16 UNL     1       2.673   8.788 -19.652  0.00  0.00    +0.037 A 
ATOM     25  C17 UNL     1       3.408   9.701 -18.893  0.00  0.00    +0.043 A 
ATOM     26  C18 UNL     1       4.386  10.453 -19.523  0.00  0.00    +0.112 A 
ATOM     27  N3  UNL     1       4.676  10.356 -20.835  0.00  0.00    -0.263 NA
ATOM     28  C19 UNL     1       3.957   9.463 -21.546  0.00  0.00    +0.112 A 
ATOM     29  C20 UNL     1       2.959   8.666 -21.007  0.00  0.00    +0.043 A 
ENDBRANCH  22  24
ENDBRANCH   7  20
TORSDOF 5
ENDMDL
MODEL 6
REMARK VINA RESULT:    -4.967      4.225      8.836
REMARK INTER + INTRA:          -7.847
REMARK INTER:                  -6.420
REMARK INTRA:                  -1.427
REMARK UNBOUND:                -1.429
REMARK  Name = /home/vital/Documents/PhD_2021/Malaria_codes/data/pdb_ligands_mmv/ligand_107.pdb
REMARK  6 active torsions:
REMARK  status: ('A' for Active; 'I' for Inactive)
REMARK    1  A    between atoms: C1_1  and  O1_2
REMARK    2  A    between atoms: O1_2  and  C2_3
REMARK    3  A    between atoms: C5_6  and  C8_9
REMARK    4  A    between atoms: N1_11  and  C9_12
REMARK    5  A    between atoms: C14_18  and  C15_19
REMARK    6  A    between atoms: N2_21  and  C16_22
REMARK                            x       y       z     vdW  Elec       q    Type
REMARK                         _______ _______ _______ _____ _____    ______ ____
ROOT
ATOM      1  C9  UNL     1       3.251   5.892 -15.822  0.00  0.00    +0.046 A 
ATOM      2  C10 UNL     1       2.126   5.069 -15.686  0.00  0.00    +0.025 A 
ATOM      3  C11 UNL     1       2.034   4.146 -14.638  0.00  0.00    +0.022 A 
ATOM      4  C12 UNL     1       3.069   4.032 -13.719  0.00  0.00    +0.042 A 
ATOM      5 CL1  UNL     1       2.963   2.880 -12.446  0.00  0.00    -0.084 Cl
ATOM      6  C13 UNL     1       4.192   4.847 -13.819  0.00  0.00    +0.035 A 
ATOM      7  C14 UNL     1       4.278   5.797 -14.852  0.00  0.00    +0.060 A 
ENDROOT
BRANCH   1  10
ATOM      8  C8  UNL     1       2.668   7.951 -17.157  0.00  0.00    +0.248 C 
ATOM      9  O2  UNL     1       1.744   8.393 -16.481  0.00  0.00    -0.270 OA
ATOM     10  N1  UNL     1       3.396   6.807 -16.896  0.00  0.00    -0.281 N 
ATOM     11  H8  UNL     1       4.063   6.506 -17.609  0.00  0.00    +0.155 HD
BRANCH   8  15
ATOM     12  C2  UNL     1       3.846  10.154 -20.666  0.00  0.00    +0.120 A 
ATOM     13  C3  UNL     1       3.171   8.937 -20.804  0.00  0.00    +0.046 A 
ATOM     14  C4  UNL     1       2.779   8.202 -19.680  0.00  0.00    +0.016 A 
ATOM     15  C5  UNL     1       3.054   8.688 -18.397  0.00  0.00    +0.037 A 
ATOM     16  C6  UNL     1       3.743   9.901 -18.260  0.00  0.00    +0.016 A 
ATOM     17  C7  UNL     1       4.134  10.632 -19.388  0.00  0.00    +0.046 A 
BRANCH  12  19
ATOM     18  C1  UNL     1       3.996   9.998 -23.033  0.00  0.00    +0.277 C 
ATOM     19  O1  UNL     1       4.167  10.764 -21.846  0.00  0.00    -0.495 OA
ENDBRANCH  12  19
ENDBRANCH   8  15
ENDBRANCH   1  10
BRANCH   7  20
ATOM     20  C15 UNL     1       5.469   6.704 -14.914  0.00  0.00    +0.250 C 
ATOM     21  O3  UNL     1       6.170   6.677 -15.920  0.00  0.00    -0.270 OA
ATOM     22  N2  UNL     1       5.627   7.555 -13.834  0.00  0.00    -0.281 N 
ATOM     23  H12 UNL     1       4.876   7.593 -13.155  0.00  0.00    +0.155 HD
BRANCH  22  24
ATOM     24  C16 UNL     1       6.681   8.473 -13.621  0.00  0.00    +0.037 A 
ATOM     25  C17 UNL     1       6.554   9.740 -14.192  0.00  0.00    +0.043 A 
ATOM     26  C18 UNL     1       7.568  10.662 -13.997  0.00  0.00    +0.112 A 
ATOM     27  N3  UNL     1       8.681  10.410 -13.279  0.00  0.00    -0.263 NA
ATOM     28  C19 UNL     1       8.778   9.181 -12.731  0.00  0.00    +0.112 A 
ATOM     29  C20 UNL     1       7.818   8.191 -12.871  0.00  0.00    +0.043 A 
ENDBRANCH  22  24
ENDBRANCH   7  20
TORSDOF 5
ENDMDL
MODEL 7
REMARK VINA RESULT:    -4.869     10.955     13.248
REMARK INTER + INTRA:          -7.721
REMARK INTER:                  -6.261
REMARK INTRA:                  -1.460
REMARK UNBOUND:                -1.429
REMARK  Name = /home/vital/Documents/PhD_2021/Malaria_codes/data/pdb_ligands_mmv/ligand_107.pdb
REMARK  6 active torsions:
REMARK  status: ('A' for Active; 'I' for Inactive)
REMARK    1  A    between atoms: C1_1  and  O1_2
REMARK    2  A    between atoms: O1_2  and  C2_3
REMARK    3  A    between atoms: C5_6  and  C8_9
REMARK    4  A    between atoms: N1_11  and  C9_12
REMARK    5  A    between atoms: C14_18  and  C15_19
REMARK    6  A    between atoms: N2_21  and  C16_22
REMARK                            x       y       z     vdW  Elec       q    Type
REMARK                         _______ _______ _______ _____ _____    ______ ____
ROOT
ATOM      1  C9  UNL     1       1.309  -3.264 -21.104  0.00  0.00    +0.046 A 
ATOM      2  C10 UNL     1       1.755  -3.049 -19.794  0.00  0.00    +0.025 A 
ATOM      3  C11 UNL     1       3.093  -3.269 -19.445  0.00  0.00    +0.022 A 
ATOM      4  C12 UNL     1       3.997  -3.712 -20.402  0.00  0.00    +0.042 A 
ATOM      5 CL1  UNL     1       5.635  -4.004 -19.966  0.00  0.00    -0.084 Cl
ATOM      6  C13 UNL     1       3.586  -3.920 -21.715  0.00  0.00    +0.035 A 
ATOM      7  C14 UNL     1       2.251  -3.672 -22.079  0.00  0.00    +0.060 A 
ENDROOT
BRANCH   1  10
ATOM      8  C8  UNL     1      -1.093  -3.988 -21.362  0.00  0.00    +0.248 C 
ATOM      9  O2  UNL     1      -1.030  -5.118 -20.889  0.00  0.00    -0.270 OA
ATOM     10  N1  UNL     1      -0.048  -3.094 -21.480  0.00  0.00    -0.281 N 
ATOM     11  H8  UNL     1      -0.229  -2.230 -21.995  0.00  0.00    +0.155 HD
BRANCH   8  15
ATOM     12  C2  UNL     1      -4.897  -2.541 -22.771  0.00  0.00    +0.120 A 
ATOM     13  C3  UNL     1      -4.091  -3.311 -23.615  0.00  0.00    +0.046 A 
ATOM     14  C4  UNL     1      -2.851  -3.791 -23.182  0.00  0.00    +0.016 A 
ATOM     15  C5  UNL     1      -2.408  -3.510 -21.885  0.00  0.00    +0.037 A 
ATOM     16  C6  UNL     1      -3.211  -2.726 -21.045  0.00  0.00    +0.016 A 
ATOM     17  C7  UNL     1      -4.451  -2.247 -21.484  0.00  0.00    +0.046 A 
BRANCH  12  19
ATOM     18  C1  UNL     1      -6.028  -1.615 -24.646  0.00  0.00    +0.277 C 
ATOM     19  O1  UNL     1      -6.082  -2.140 -23.324  0.00  0.00    -0.495 OA
ENDBRANCH  12  19
ENDBRANCH   8  15
ENDBRANCH   1  10
BRANCH   7  20
ATOM     20  C15 UNL     1       1.838  -3.848 -23.508  0.00  0.00    +0.250 C 
ATOM     21  O3  UNL     1       1.022  -3.062 -23.979  0.00  0.00    -0.270 OA
ATOM     22  N2  UNL     1       2.484  -4.862 -24.195  0.00  0.00    -0.281 N 
ATOM     23  H12 UNL     1       3.260  -5.318 -23.732  0.00  0.00    +0.155 HD
BRANCH  22  24
ATOM     24  C16 UNL     1       2.252  -5.266 -25.530  0.00  0.00    +0.037 A 
ATOM     25  C17 UNL     1       3.046  -4.687 -26.522  0.00  0.00    +0.043 A 
ATOM     26  C18 UNL     1       2.846  -5.068 -27.839  0.00  0.00    +0.112 A 
ATOM     27  N3  UNL     1       1.926  -5.973 -28.225  0.00  0.00    -0.263 NA
ATOM     28  C19 UNL     1       1.176  -6.524 -27.248  0.00  0.00    +0.112 A 
ATOM     29  C20 UNL     1       1.300  -6.208 -25.903  0.00  0.00    +0.043 A 
ENDBRANCH  22  24
ENDBRANCH   7  20
TORSDOF 5
ENDMDL
MODEL 8
REMARK VINA RESULT:    -4.784      2.950      6.349
REMARK INTER + INTRA:          -7.612
REMARK INTER:                  -6.310
REMARK INTRA:                  -1.301
REMARK UNBOUND:                -1.429
REMARK  Name = /home/vital/Documents/PhD_2021/Malaria_codes/data/pdb_ligands_mmv/ligand_107.pdb
REMARK  6 active torsions:
REMARK  status: ('A' for Active; 'I' for Inactive)
REMARK    1  A    between atoms: C1_1  and  O1_2
REMARK    2  A    between atoms: O1_2  and  C2_3
REMARK    3  A    between atoms: C5_6  and  C8_9
REMARK    4  A    between atoms: N1_11  and  C9_12
REMARK    5  A    between atoms: C14_18  and  C15_19
REMARK    6  A    between atoms: N2_21  and  C16_22
REMARK                            x       y       z     vdW  Elec       q    Type
REMARK                         _______ _______ _______ _____ _____    ______ ____
ROOT
ATOM      1  C9  UNL     1       3.381   5.992 -15.868  0.00  0.00    +0.046 A 
ATOM      2  C10 UNL     1       4.252   6.001 -14.771  0.00  0.00    +0.025 A 
ATOM      3  C11 UNL     1       4.064   5.124 -13.697  0.00  0.00    +0.022 A 
ATOM      4  C12 UNL     1       2.998   4.234 -13.705  0.00  0.00    +0.042 A 
ATOM      5 CL1  UNL     1       2.755   3.175 -12.372  0.00  0.00    -0.084 Cl
ATOM      6  C13 UNL     1       2.125   4.191 -14.786  0.00  0.00    +0.035 A 
ATOM      7  C14 UNL     1       2.326   5.048 -15.883  0.00  0.00    +0.060 A 
ENDROOT
BRANCH   1  10
ATOM      8  C8  UNL     1       2.797   8.044 -17.212  0.00  0.00    +0.248 C 
ATOM      9  O2  UNL     1       1.891   8.502 -16.524  0.00  0.00    -0.270 OA
ATOM     10  N1  UNL     1       3.517   6.895 -16.953  0.00  0.00    -0.281 N 
ATOM     11  H8  UNL     1       4.168   6.580 -17.674  0.00  0.00    +0.155 HD
BRANCH   8  15
ATOM     12  C2  UNL     1       3.806  10.041 -20.892  0.00  0.00    +0.120 A 
ATOM     13  C3  UNL     1       4.103  10.649 -19.668  0.00  0.00    +0.046 A 
ATOM     14  C4  UNL     1       3.784  10.022 -18.459  0.00  0.00    +0.016 A 
ATOM     15  C5  UNL     1       3.169   8.766 -18.466  0.00  0.00    +0.037 A 
ATOM     16  C6  UNL     1       2.859   8.164 -19.693  0.00  0.00    +0.016 A 
ATOM     17  C7  UNL     1       3.179   8.796 -20.900  0.00  0.00    +0.046 A 
BRANCH  12  19
ATOM     18  C1  UNL     1       5.083  10.147 -22.894  0.00  0.00    +0.277 C 
ATOM     19  O1  UNL     1       4.174  10.766 -21.992  0.00  0.00    -0.495 OA
ENDBRANCH  12  19
ENDBRANCH   8  15
ENDBRANCH   1  10
BRANCH   7  20
ATOM     20  C15 UNL     1       1.409   4.951 -17.064  0.00  0.00    +0.250 C 
ATOM     21  O3  UNL     1       1.804   4.355 -18.061  0.00  0.00    -0.270 OA
ATOM     22  N2  UNL     1       0.149   5.497 -16.887  0.00  0.00    -0.281 N 
ATOM     23  H12 UNL     1      -0.100   5.803 -15.955  0.00  0.00    +0.155 HD
BRANCH  22  24
ATOM     24  C16 UNL     1      -0.884   5.580 -17.848  0.00  0.00    +0.037 A 
ATOM     25  C17 UNL     1      -2.117   5.016 -17.513  0.00  0.00    +0.043 A 
ATOM     26  C18 UNL     1      -3.151   5.087 -18.432  0.00  0.00    +0.112 A 
ATOM     27  N3  UNL     1      -3.040   5.673 -19.640  0.00  0.00    -0.263 NA
ATOM     28  C19 UNL     1      -1.842   6.216 -19.939  0.00  0.00    +0.112 A 
ATOM     29  C20 UNL     1      -0.748   6.196 -19.087  0.00  0.00    +0.043 A 
ENDBRANCH  22  24
ENDBRANCH   7  20
TORSDOF 5
ENDMDL
MODEL 9
REMARK VINA RESULT:    -4.724     17.287     19.354
REMARK INTER + INTRA:          -7.533
REMARK INTER:                  -6.079
REMARK INTRA:                  -1.454
REMARK UNBOUND:                -1.429
REMARK  Name = /home/vital/Documents/PhD_2021/Malaria_codes/data/pdb_ligands_mmv/ligand_107.pdb
REMARK  6 active torsions:
REMARK  status: ('A' for Active; 'I' for Inactive)
REMARK    1  A    between atoms: C1_1  and  O1_2
REMARK    2  A    between atoms: O1_2  and  C2_3
REMARK    3  A    between atoms: C5_6  and  C8_9
REMARK    4  A    between atoms: N1_11  and  C9_12
REMARK    5  A    between atoms: C14_18  and  C15_19
REMARK    6  A    between atoms: N2_21  and  C16_22
REMARK                            x       y       z     vdW  Elec       q    Type
REMARK                         _______ _______ _______ _____ _____    ______ ____
ROOT
ATOM      1  C9  UNL     1       3.611  -3.891 -31.808  0.00  0.00    +0.046 A 
ATOM      2  C10 UNL     1       4.906  -3.935 -31.274  0.00  0.00    +0.025 A 
ATOM      3  C11 UNL     1       5.748  -2.819 -31.338  0.00  0.00    +0.022 A 
ATOM      4  C12 UNL     1       5.307  -1.650 -31.943  0.00  0.00    +0.042 A 
ATOM      5 CL1  UNL     1       6.353  -0.288 -32.042  0.00  0.00    -0.084 Cl
ATOM      6  C13 UNL     1       4.021  -1.570 -32.468  0.00  0.00    +0.035 A 
ATOM      7  C14 UNL     1       3.159  -2.677 -32.380  0.00  0.00    +0.060 A 
ENDROOT
BRANCH   1  10
ATOM      8  C8  UNL     1       2.848  -6.184 -32.527  0.00  0.00    +0.248 C 
ATOM      9  O2  UNL     1       3.733  -6.464 -33.330  0.00  0.00    -0.270 OA
ATOM     10  N1  UNL     1       2.748  -5.016 -31.798  0.00  0.00    -0.281 N 
ATOM     11  H8  UNL     1       1.896  -4.879 -31.252  0.00  0.00    +0.155 HD
BRANCH   8  15
ATOM     12  C2  UNL     1      -0.271  -9.105 -31.986  0.00  0.00    +0.120 A 
ATOM     13  C3  UNL     1      -0.146  -8.047 -31.081  0.00  0.00    +0.046 A 
ATOM     14  C4  UNL     1       0.859  -7.087 -31.234  0.00  0.00    +0.016 A 
ATOM     15  C5  UNL     1       1.750  -7.173 -32.309  0.00  0.00    +0.037 A 
ATOM     16  C6  UNL     1       1.633  -8.242 -33.208  0.00  0.00    +0.016 A 
ATOM     17  C7  UNL     1       0.626  -9.202 -33.050  0.00  0.00    +0.046 A 
BRANCH  12  19
ATOM     18  C1  UNL     1      -2.495  -9.795 -32.463  0.00  0.00    +0.277 C 
ATOM     19  O1  UNL     1      -1.296  -9.968 -31.716  0.00  0.00    -0.495 OA
ENDBRANCH  12  19
ENDBRANCH   8  15
ENDBRANCH   1  10
BRANCH   7  20
ATOM     20  C15 UNL     1       1.760  -2.558 -32.902  0.00  0.00    +0.250 C 
ATOM     21  O3  UNL     1       0.959  -1.876 -32.269  0.00  0.00    -0.270 OA
ATOM     22  N2  UNL     1       1.518  -3.185 -34.112  0.00  0.00    -0.281 N 
ATOM     23  H12 UNL     1       2.316  -3.564 -34.608  0.00  0.00    +0.155 HD
BRANCH  22  24
ATOM     24  C16 UNL     1       0.285  -3.264 -34.797  0.00  0.00    +0.037 A 
ATOM     25  C17 UNL     1      -0.043  -2.210 -35.651  0.00  0.00    +0.043 A 
ATOM     26  C18 UNL     1      -1.243  -2.262 -36.341  0.00  0.00    +0.112 A 
ATOM     27  N3  UNL     1      -2.121  -3.280 -36.240  0.00  0.00    -0.263 NA
ATOM     28  C19 UNL     1      -1.779  -4.290 -35.415  0.00  0.00    +0.112 A 
ATOM     29  C20 UNL     1      -0.602  -4.329 -34.682  0.00  0.00    +0.043 A 
ENDBRANCH  22  24
ENDBRANCH   7  20
TORSDOF 5
ENDMDL
