MODEL 1
REMARK VINA RESULT:    -4.603      0.000      0.000
REMARK INTER + INTRA:          -7.827
REMARK INTER:                  -6.621
REMARK INTRA:                  -1.206
REMARK UNBOUND:                -1.206
REMARK  Name = /home/vital/Documents/PhD_2021/Malaria_codes/data/pdb_ligands_mmv/ligand_238.pdb
REMARK  11 active torsions:
REMARK  status: ('A' for Active; 'I' for Inactive)
REMARK    1  A    between atoms: C1_1  and  C2_2
REMARK    2  A    between atoms: C2_2  and  O1_3
REMARK    3  A    between atoms: O1_3  and  C3_4
REMARK    4  A    between atoms: C5_6  and  C9_12
REMARK    5  A    between atoms: C8_10  and  O2_11
REMARK    6  A    between atoms: C14_18  and  O3_19
REMARK    7  A    between atoms: O3_19  and  C15_20
REMARK    8  A    between atoms: C15_20  and  C16_21
REMARK    9  A    between atoms: C17_22  and  O4_23
REMARK   10  A    between atoms: O4_23  and  C18_24
REMARK   11  A    between atoms: C18_24  and  C19_25
REMARK                            x       y       z     vdW  Elec       q    Type
REMARK                         _______ _______ _______ _____ _____    ______ ____
ROOT
ATOM      1  C9  UNL     1       6.156  -4.939 -23.966  0.00  0.00    +0.115 C 
ATOM      2  N1  UNL     1       5.602  -5.550 -25.190  0.00  0.00    -0.305 NA
ATOM      3  C10 UNL     1       6.629  -5.735 -26.209  0.00  0.00    +0.086 C 
ATOM      4  C11 UNL     1       7.147  -4.377 -26.685  0.00  0.00    +0.050 C 
ATOM      5  C12 UNL     1       7.623  -3.540 -25.527  0.00  0.00    -0.037 A 
ATOM      6  C13 UNL     1       8.524  -2.486 -25.751  0.00  0.00    +0.053 A 
ATOM      7  C14 UNL     1       8.984  -1.708 -24.685  0.00  0.00    +0.162 A 
ATOM      8  C17 UNL     1       8.500  -1.950 -23.399  0.00  0.00    +0.162 A 
ATOM      9  C20 UNL     1       7.609  -3.000 -23.168  0.00  0.00    +0.055 A 
ATOM     10  C21 UNL     1       7.133  -3.789 -24.229  0.00  0.00    -0.019 A 
ATOM     11  H10 UNL     1       5.189  -6.445 -24.941  0.00  0.00    +0.123 HD
ENDROOT
BRANCH   1  14
ATOM     12  C3  UNL     1       2.752  -3.590 -22.813  0.00  0.00    +0.163 A 
ATOM     13  C4  UNL     1       3.832  -3.951 -23.627  0.00  0.00    +0.055 A 
ATOM     14  C5  UNL     1       4.987  -4.531 -23.073  0.00  0.00    -0.021 A 
ATOM     15  C6  UNL     1       5.053  -4.719 -21.681  0.00  0.00    +0.029 A 
ATOM     16  C7  UNL     1       3.989  -4.337 -20.868  0.00  0.00    +0.086 A 
ATOM     17 CL1  UNL     1       4.104  -4.570 -19.163  0.00  0.00    -0.080 Cl
ATOM     18  C8  UNL     1       2.843  -3.769 -21.430  0.00  0.00    +0.177 A 
BRANCH  18  19
ATOM     19  O2  UNL     1       1.787  -3.390 -20.642  0.00  0.00    -0.502 OA
ATOM     20  H8  UNL     1       0.974  -3.678 -21.093  0.00  0.00    +0.292 HD
ENDBRANCH  18  19
BRANCH  12  21
ATOM     21  O1  UNL     1       1.623  -2.988 -23.298  0.00  0.00    -0.489 OA
BRANCH  21  23
ATOM     22  C1  UNL     1      -0.556  -3.987 -23.509  0.00  0.00    +0.048 C 
ATOM     23  C2  UNL     1       0.801  -3.781 -24.158  0.00  0.00    +0.226 C 
ENDBRANCH  21  23
ENDBRANCH  12  21
ENDBRANCH   1  14
BRANCH   7  24
ATOM     24  O3  UNL     1       9.855  -0.673 -24.891  0.00  0.00    -0.489 OA
BRANCH  24  25
ATOM     25  C15 UNL     1      10.104  -0.396 -26.275  0.00  0.00    +0.226 C 
ATOM     26  C16 UNL     1      11.554   0.023 -26.439  0.00  0.00    +0.048 C 
ENDBRANCH  24  25
ENDBRANCH   7  24
BRANCH   8  27
ATOM     27  O4  UNL     1       8.911  -1.242 -22.300  0.00  0.00    -0.489 OA
BRANCH  27  28
ATOM     28  C18 UNL     1       7.868  -1.144 -21.321  0.00  0.00    +0.226 C 
ATOM     29  C19 UNL     1       8.525  -0.934 -19.970  0.00  0.00    +0.048 C 
ENDBRANCH  27  28
ENDBRANCH   8  27
TORSDOF 8
ENDMDL
MODEL 2
REMARK VINA RESULT:    -4.442     11.812     12.679
REMARK INTER + INTRA:          -7.595
REMARK INTER:                  -6.205
REMARK INTRA:                  -1.390
REMARK UNBOUND:                -1.206
REMARK  Name = /home/vital/Documents/PhD_2021/Malaria_codes/data/pdb_ligands_mmv/ligand_238.pdb
REMARK  11 active torsions:
REMARK  status: ('A' for Active; 'I' for Inactive)
REMARK    1  A    between atoms: C1_1  and  C2_2
REMARK    2  A    between atoms: C2_2  and  O1_3
REMARK    3  A    between atoms: O1_3  and  C3_4
REMARK    4  A    between atoms: C5_6  and  C9_12
REMARK    5  A    between atoms: C8_10  and  O2_11
REMARK    6  A    between atoms: C14_18  and  O3_19
REMARK    7  A    between atoms: O3_19  and  C15_20
REMARK    8  A    between atoms: C15_20  and  C16_21
REMARK    9  A    between atoms: C17_22  and  O4_23
REMARK   10  A    between atoms: O4_23  and  C18_24
REMARK   11  A    between atoms: C18_24  and  C19_25
REMARK                            x       y       z     vdW  Elec       q    Type
REMARK                         _______ _______ _______ _____ _____    ______ ____
ROOT
ATOM      1  C9  UNL     1       0.580   6.694 -23.056  0.00  0.00    +0.115 C 
ATOM      2  N1  UNL     1       0.400   7.236 -24.417  0.00  0.00    -0.305 NA
ATOM      3  C10 UNL     1       1.676   7.590 -25.027  0.00  0.00    +0.086 C 
ATOM      4  C11 UNL     1       2.324   8.743 -24.261  0.00  0.00    +0.050 C 
ATOM      5  C12 UNL     1       2.451   8.419 -22.794  0.00  0.00    -0.037 A 
ATOM      6  C13 UNL     1       3.389   9.107 -22.006  0.00  0.00    +0.053 A 
ATOM      7  C14 UNL     1       3.527   8.809 -20.648  0.00  0.00    +0.162 A 
ATOM      8  C17 UNL     1       2.686   7.860 -20.064  0.00  0.00    +0.162 A 
ATOM      9  C20 UNL     1       1.758   7.168 -20.843  0.00  0.00    +0.055 A 
ATOM     10  C21 UNL     1       1.602   7.458 -22.210  0.00  0.00    -0.019 A 
ATOM     11  H10 UNL     1      -0.076   6.536 -24.980  0.00  0.00    +0.123 HD
ENDROOT
BRANCH   1  14
ATOM     12  C3  UNL     1      -2.309   5.588 -20.783  0.00  0.00    +0.163 A 
ATOM     13  C4  UNL     1      -1.055   5.655 -21.402  0.00  0.00    +0.055 A 
ATOM     14  C5  UNL     1      -0.794   6.613 -22.396  0.00  0.00    -0.021 A 
ATOM     15  C6  UNL     1      -1.823   7.490 -22.783  0.00  0.00    +0.029 A 
ATOM     16  C7  UNL     1      -3.079   7.408 -22.186  0.00  0.00    +0.086 A 
ATOM     17 CL1  UNL     1      -4.324   8.489 -22.689  0.00  0.00    -0.080 Cl
ATOM     18  C8  UNL     1      -3.324   6.457 -21.193  0.00  0.00    +0.177 A 
BRANCH  18  19
ATOM     19  O2  UNL     1      -4.555   6.366 -20.595  0.00  0.00    -0.502 OA
ATOM     20  H8  UNL     1      -4.926   5.499 -20.832  0.00  0.00    +0.292 HD
ENDBRANCH  18  19
BRANCH  12  21
ATOM     21  O1  UNL     1      -2.625   4.650 -19.838  0.00  0.00    -0.489 OA
BRANCH  21  23
ATOM     22  C1  UNL     1      -2.611   5.519 -17.594  0.00  0.00    +0.048 C 
ATOM     23  C2  UNL     1      -1.867   4.690 -18.627  0.00  0.00    +0.226 C 
ENDBRANCH  21  23
ENDBRANCH  12  21
ENDBRANCH   1  14
BRANCH   7  24
ATOM     24  O3  UNL     1       4.429   9.477 -19.866  0.00  0.00    -0.489 OA
BRANCH  24  25
ATOM     25  C15 UNL     1       3.974  10.766 -19.436  0.00  0.00    +0.226 C 
ATOM     26  C16 UNL     1       3.864  10.767 -17.921  0.00  0.00    +0.048 C 
ENDBRANCH  24  25
ENDBRANCH   7  24
BRANCH   8  27
ATOM     27  O4  UNL     1       2.767   7.501 -18.744  0.00  0.00    -0.489 OA
BRANCH  27  28
ATOM     28  C18 UNL     1       1.539   6.923 -18.283  0.00  0.00    +0.226 C 
ATOM     29  C19 UNL     1       1.383   7.283 -16.818  0.00  0.00    +0.048 C 
ENDBRANCH  27  28
ENDBRANCH   8  27
TORSDOF 8
ENDMDL
MODEL 3
REMARK VINA RESULT:    -4.357      3.713      6.053
REMARK INTER + INTRA:          -7.474
REMARK INTER:                  -6.204
REMARK INTRA:                  -1.269
REMARK UNBOUND:                -1.206
REMARK  Name = /home/vital/Documents/PhD_2021/Malaria_codes/data/pdb_ligands_mmv/ligand_238.pdb
REMARK  11 active torsions:
REMARK  status: ('A' for Active; 'I' for Inactive)
REMARK    1  A    between atoms: C1_1  and  C2_2
REMARK    2  A    between atoms: C2_2  and  O1_3
REMARK    3  A    between atoms: O1_3  and  C3_4
REMARK    4  A    between atoms: C5_6  and  C9_12
REMARK    5  A    between atoms: C8_10  and  O2_11
REMARK    6  A    between atoms: C14_18  and  O3_19
REMARK    7  A    between atoms: O3_19  and  C15_20
REMARK    8  A    between atoms: C15_20  and  C16_21
REMARK    9  A    between atoms: C17_22  and  O4_23
REMARK   10  A    between atoms: O4_23  and  C18_24
REMARK   11  A    between atoms: C18_24  and  C19_25
REMARK                            x       y       z     vdW  Elec       q    Type
REMARK                         _______ _______ _______ _____ _____    ______ ____
ROOT
ATOM      1  C9  UNL     1       2.200  -3.011 -20.818  0.00  0.00    +0.115 C 
ATOM      2  N1  UNL     1       2.491  -3.405 -19.425  0.00  0.00    -0.305 NA
ATOM      3  C10 UNL     1       3.925  -3.403 -19.156  0.00  0.00    +0.086 C 
ATOM      4  C11 UNL     1       4.617  -4.483 -19.989  0.00  0.00    +0.050 C 
ATOM      5  C12 UNL     1       4.301  -4.326 -21.455  0.00  0.00    -0.037 A 
ATOM      6  C13 UNL     1       5.151  -4.894 -22.417  0.00  0.00    +0.053 A 
ATOM      7  C14 UNL     1       4.878  -4.747 -23.779  0.00  0.00    +0.162 A 
ATOM      8  C17 UNL     1       3.722  -4.076 -24.179  0.00  0.00    +0.162 A 
ATOM      9  C20 UNL     1       2.876  -3.502 -23.228  0.00  0.00    +0.055 A 
ATOM     10  C21 UNL     1       3.133  -3.645 -21.853  0.00  0.00    -0.019 A 
ATOM     11  H10 UNL     1       2.017  -2.755 -18.804  0.00  0.00    +0.123 HD
ENDROOT
BRANCH   1  14
ATOM     12  C3  UNL     1      -1.595  -2.563 -21.183  0.00  0.00    +0.163 A 
ATOM     13  C4  UNL     1      -0.246  -2.303 -20.919  0.00  0.00    +0.055 A 
ATOM     14  C5  UNL     1       0.727  -3.304 -21.090  0.00  0.00    -0.021 A 
ATOM     15  C6  UNL     1       0.319  -4.584 -21.507  0.00  0.00    +0.029 A 
ATOM     16  C7  UNL     1      -1.027  -4.851 -21.745  0.00  0.00    +0.086 A 
ATOM     17 CL1  UNL     1      -1.497  -6.433 -22.244  0.00  0.00    -0.080 Cl
ATOM     18  C8  UNL     1      -1.983  -3.846 -21.580  0.00  0.00    +0.177 A 
BRANCH  18  19
ATOM     19  O2  UNL     1      -3.312  -4.094 -21.813  0.00  0.00    -0.502 OA
ATOM     20  H8  UNL     1      -3.515  -3.756 -22.702  0.00  0.00    +0.292 HD
ENDBRANCH  18  19
BRANCH  12  21
ATOM     21  O1  UNL     1      -2.584  -1.636 -20.995  0.00  0.00    -0.489 OA
BRANCH  21  23
ATOM     22  C1  UNL     1      -3.332  -1.377 -18.722  0.00  0.00    +0.048 C 
ATOM     23  C2  UNL     1      -2.466  -0.811 -19.834  0.00  0.00    +0.226 C 
ENDBRANCH  21  23
ENDBRANCH  12  21
ENDBRANCH   1  14
BRANCH   7  24
ATOM     24  O3  UNL     1       5.693  -5.304 -24.727  0.00  0.00    -0.489 OA
BRANCH  24  25
ATOM     25  C15 UNL     1       6.764  -4.446 -25.141  0.00  0.00    +0.226 C 
ATOM     26  C16 UNL     1       7.015  -4.655 -26.624  0.00  0.00    +0.048 C 
ENDBRANCH  24  25
ENDBRANCH   7  24
BRANCH   8  27
ATOM     27  O4  UNL     1       3.390  -3.877 -25.494  0.00  0.00    -0.489 OA
BRANCH  27  28
ATOM     28  C18 UNL     1       2.206  -4.603 -25.851  0.00  0.00    +0.226 C 
ATOM     29  C19 UNL     1       2.634  -5.810 -26.661  0.00  0.00    +0.048 C 
ENDBRANCH  27  28
ENDBRANCH   8  27
TORSDOF 8
ENDMDL
MODEL 4
REMARK VINA RESULT:    -4.293      7.899     10.777
REMARK INTER + INTRA:          -7.381
REMARK INTER:                  -6.231
REMARK INTRA:                  -1.150
REMARK UNBOUND:                -1.206
REMARK  Name = /home/vital/Documents/PhD_2021/Malaria_codes/data/pdb_ligands_mmv/ligand_238.pdb
REMARK  11 active torsions:
REMARK  status: ('A' for Active; 'I' for Inactive)
REMARK    1  A    between atoms: C1_1  and  C2_2
REMARK    2  A    between atoms: C2_2  and  O1_3
REMARK    3  A    between atoms: O1_3  and  C3_4
REMARK    4  A    between atoms: C5_6  and  C9_12
REMARK    5  A    between atoms: C8_10  and  O2_11
REMARK    6  A    between atoms: C14_18  and  O3_19
REMARK    7  A    between atoms: O3_19  and  C15_20
REMARK    8  A    between atoms: C15_20  and  C16_21
REMARK    9  A    between atoms: C17_22  and  O4_23
REMARK   10  A    between atoms: O4_23  and  C18_24
REMARK   11  A    between atoms: C18_24  and  C19_25
REMARK                            x       y       z     vdW  Elec       q    Type
REMARK                         _______ _______ _______ _____ _____    ______ ____
ROOT
ATOM      1  C9  UNL     1       1.442   3.210 -19.567  0.00  0.00    +0.115 C 
ATOM      2  N1  UNL     1       2.707   3.955 -19.407  0.00  0.00    -0.305 NA
ATOM      3  C10 UNL     1       3.833   3.227 -19.980  0.00  0.00    +0.086 C 
ATOM      4  C11 UNL     1       4.075   1.934 -19.201  0.00  0.00    +0.050 C 
ATOM      5  C12 UNL     1       2.821   1.100 -19.129  0.00  0.00    -0.037 A 
ATOM      6  C13 UNL     1       2.913  -0.278 -18.873  0.00  0.00    +0.053 A 
ATOM      7  C14 UNL     1       1.762  -1.066 -18.815  0.00  0.00    +0.162 A 
ATOM      8  C17 UNL     1       0.510  -0.466 -18.959  0.00  0.00    +0.162 A 
ATOM      9  C20 UNL     1       0.412   0.902 -19.222  0.00  0.00    +0.055 A 
ATOM     10  C21 UNL     1       1.560   1.711 -19.278  0.00  0.00    -0.019 A 
ATOM     11  H10 UNL     1       2.605   4.858 -19.861  0.00  0.00    +0.123 HD
ENDROOT
BRANCH   1  14
ATOM     12  C3  UNL     1      -0.316   4.874 -16.587  0.00  0.00    +0.163 A 
ATOM     13  C4  UNL     1       0.648   4.230 -17.371  0.00  0.00    +0.055 A 
ATOM     14  C5  UNL     1       0.381   3.897 -18.710  0.00  0.00    -0.021 A 
ATOM     15  C6  UNL     1      -0.885   4.195 -19.246  0.00  0.00    +0.029 A 
ATOM     16  C7  UNL     1      -1.854   4.812 -18.460  0.00  0.00    +0.086 A 
ATOM     17 CL1  UNL     1      -3.400   5.156 -19.142  0.00  0.00    -0.080 Cl
ATOM     18  C8  UNL     1      -1.574   5.147 -17.133  0.00  0.00    +0.177 A 
BRANCH  18  19
ATOM     19  O2  UNL     1      -2.518   5.757 -16.347  0.00  0.00    -0.502 OA
ATOM     20  H8  UNL     1      -3.192   6.128 -16.943  0.00  0.00    +0.292 HD
ENDBRANCH  18  19
BRANCH  12  21
ATOM     21  O1  UNL     1      -0.119   5.185 -15.269  0.00  0.00    -0.489 OA
BRANCH  21  23
ATOM     22  C1  UNL     1       1.697   4.758 -13.750  0.00  0.00    +0.048 C 
ATOM     23  C2  UNL     1       1.198   5.605 -14.907  0.00  0.00    +0.226 C 
ENDBRANCH  21  23
ENDBRANCH  12  21
ENDBRANCH   1  14
BRANCH   7  24
ATOM     24  O3  UNL     1       1.836  -2.408 -18.556  0.00  0.00    -0.489 OA
BRANCH  24  25
ATOM     25  C15 UNL     1       1.997  -3.212 -19.731  0.00  0.00    +0.226 C 
ATOM     26  C16 UNL     1       3.355  -3.891 -19.679  0.00  0.00    +0.048 C 
ENDBRANCH  24  25
ENDBRANCH   7  24
BRANCH   8  27
ATOM     27  O4  UNL     1      -0.665  -1.170 -18.929  0.00  0.00    -0.489 OA
BRANCH  27  28
ATOM     28  C18 UNL     1      -1.769  -0.366 -19.367  0.00  0.00    +0.226 C 
ATOM     29  C19 UNL     1      -3.044  -1.112 -19.029  0.00  0.00    +0.048 C 
ENDBRANCH  27  28
ENDBRANCH   8  27
TORSDOF 8
ENDMDL
MODEL 5
REMARK VINA RESULT:    -4.174     10.343     12.585
REMARK INTER + INTRA:          -7.210
REMARK INTER:                  -5.668
REMARK INTRA:                  -1.542
REMARK UNBOUND:                -1.206
REMARK  Name = /home/vital/Documents/PhD_2021/Malaria_codes/data/pdb_ligands_mmv/ligand_238.pdb
REMARK  11 active torsions:
REMARK  status: ('A' for Active; 'I' for Inactive)
REMARK    1  A    between atoms: C1_1  and  C2_2
REMARK    2  A    between atoms: C2_2  and  O1_3
REMARK    3  A    between atoms: O1_3  and  C3_4
REMARK    4  A    between atoms: C5_6  and  C9_12
REMARK    5  A    between atoms: C8_10  and  O2_11
REMARK    6  A    between atoms: C14_18  and  O3_19
REMARK    7  A    between atoms: O3_19  and  C15_20
REMARK    8  A    between atoms: C15_20  and  C16_21
REMARK    9  A    between atoms: C17_22  and  O4_23
REMARK   10  A    between atoms: O4_23  and  C18_24
REMARK   11  A    between atoms: C18_24  and  C19_25
REMARK                            x       y       z     vdW  Elec       q    Type
REMARK                         _______ _______ _______ _____ _____    ______ ____
ROOT
ATOM      1  C9  UNL     1       0.894   5.038 -15.147  0.00  0.00    +0.115 C 
ATOM      2  N1  UNL     1       0.964   3.826 -14.307  0.00  0.00    -0.305 NA
ATOM      3  C10 UNL     1       1.838   4.021 -13.156  0.00  0.00    +0.086 C 
ATOM      4  C11 UNL     1       3.281   4.223 -13.620  0.00  0.00    +0.050 C 
ATOM      5  C12 UNL     1       3.379   5.346 -14.621  0.00  0.00    -0.037 A 
ATOM      6  C13 UNL     1       4.610   5.988 -14.832  0.00  0.00    +0.053 A 
ATOM      7  C14 UNL     1       4.714   7.039 -15.747  0.00  0.00    +0.162 A 
ATOM      8  C17 UNL     1       3.595   7.412 -16.493  0.00  0.00    +0.162 A 
ATOM      9  C20 UNL     1       2.367   6.783 -16.283  0.00  0.00    +0.055 A 
ATOM     10  C21 UNL     1       2.246   5.721 -15.370  0.00  0.00    -0.019 A 
ATOM     11  H10 UNL     1       0.023   3.596 -13.998  0.00  0.00    +0.123 HD
ENDROOT
BRANCH   1  14
ATOM     12  C3  UNL     1       0.152   3.414 -18.545  0.00  0.00    +0.163 A 
ATOM     13  C4  UNL     1       0.796   3.770 -17.355  0.00  0.00    +0.055 A 
ATOM     14  C5  UNL     1       0.196   4.665 -16.452  0.00  0.00    -0.021 A 
ATOM     15  C6  UNL     1      -1.055   5.222 -16.777  0.00  0.00    +0.029 A 
ATOM     16  C7  UNL     1      -1.685   4.888 -17.972  0.00  0.00    +0.086 A 
ATOM     17 CL1  UNL     1      -3.212   5.596 -18.348  0.00  0.00    -0.080 Cl
ATOM     18  C8  UNL     1      -1.083   3.991 -18.858  0.00  0.00    +0.177 A 
BRANCH  18  19
ATOM     19  O2  UNL     1      -1.693   3.651 -20.038  0.00  0.00    -0.502 OA
ATOM     20  H8  UNL     1      -1.771   2.681 -20.053  0.00  0.00    +0.292 HD
ENDBRANCH  18  19
BRANCH  12  21
ATOM     21  O1  UNL     1       0.710   2.577 -19.473  0.00  0.00    -0.489 OA
BRANCH  21  23
ATOM     22  C1  UNL     1      -0.022   0.293 -19.279  0.00  0.00    +0.048 C 
ATOM     23  C2  UNL     1       1.098   1.283 -19.008  0.00  0.00    +0.226 C 
ENDBRANCH  21  23
ENDBRANCH  12  21
ENDBRANCH   1  14
BRANCH   7  24
ATOM     24  O3  UNL     1       5.909   7.667 -15.969  0.00  0.00    -0.489 OA
BRANCH  24  25
ATOM     25  C15 UNL     1       6.574   8.079 -14.769  0.00  0.00    +0.226 C 
ATOM     26  C16 UNL     1       6.224   9.529 -14.486  0.00  0.00    +0.048 C 
ENDBRANCH  24  25
ENDBRANCH   7  24
BRANCH   8  27
ATOM     27  O4  UNL     1       3.611   8.441 -17.399  0.00  0.00    -0.489 OA
BRANCH  27  28
ATOM     28  C18 UNL     1       2.642   9.445 -17.068  0.00  0.00    +0.226 C 
ATOM     29  C19 UNL     1       3.374  10.767 -16.949  0.00  0.00    +0.048 C 
ENDBRANCH  27  28
ENDBRANCH   8  27
TORSDOF 8
ENDMDL
MODEL 6
REMARK VINA RESULT:    -4.132      3.830      5.911
REMARK INTER + INTRA:          -7.150
REMARK INTER:                  -5.784
REMARK INTRA:                  -1.366
REMARK UNBOUND:                -1.206
REMARK  Name = /home/vital/Documents/PhD_2021/Malaria_codes/data/pdb_ligands_mmv/ligand_238.pdb
REMARK  11 active torsions:
REMARK  status: ('A' for Active; 'I' for Inactive)
REMARK    1  A    between atoms: C1_1  and  C2_2
REMARK    2  A    between atoms: C2_2  and  O1_3
REMARK    3  A    between atoms: O1_3  and  C3_4
REMARK    4  A    between atoms: C5_6  and  C9_12
REMARK    5  A    between atoms: C8_10  and  O2_11
REMARK    6  A    between atoms: C14_18  and  O3_19
REMARK    7  A    between atoms: O3_19  and  C15_20
REMARK    8  A    between atoms: C15_20  and  C16_21
REMARK    9  A    between atoms: C17_22  and  O4_23
REMARK   10  A    between atoms: O4_23  and  C18_24
REMARK   11  A    between atoms: C18_24  and  C19_25
REMARK                            x       y       z     vdW  Elec       q    Type
REMARK                         _______ _______ _______ _____ _____    ______ ____
ROOT
ATOM      1  C9  UNL     1       2.442  -2.852 -20.827  0.00  0.00    +0.115 C 
ATOM      2  N1  UNL     1       2.782  -3.333 -19.474  0.00  0.00    -0.305 NA
ATOM      3  C10 UNL     1       4.223  -3.474 -19.301  0.00  0.00    +0.086 C 
ATOM      4  C11 UNL     1       4.757  -4.574 -20.219  0.00  0.00    +0.050 C 
ATOM      5  C12 UNL     1       4.365  -4.324 -21.653  0.00  0.00    -0.037 A 
ATOM      6  C13 UNL     1       5.096  -4.925 -22.692  0.00  0.00    +0.053 A 
ATOM      7  C14 UNL     1       4.753  -4.693 -24.025  0.00  0.00    +0.162 A 
ATOM      8  C17 UNL     1       3.642  -3.901 -24.321  0.00  0.00    +0.162 A 
ATOM      9  C20 UNL     1       2.916  -3.295 -23.295  0.00  0.00    +0.055 A 
ATOM     10  C21 UNL     1       3.244  -3.522 -21.946  0.00  0.00    -0.019 A 
ATOM     11  H10 UNL     1       2.411  -2.670 -18.797  0.00  0.00    +0.123 HD
ENDROOT
BRANCH   1  14
ATOM     12  C3  UNL     1      -1.037  -4.403 -21.301  0.00  0.00    +0.163 A 
ATOM     13  C4  UNL     1       0.347  -4.266 -21.147  0.00  0.00    +0.055 A 
ATOM     14  C5  UNL     1       0.933  -2.996 -21.012  0.00  0.00    -0.021 A 
ATOM     15  C6  UNL     1       0.109  -1.857 -21.061  0.00  0.00    +0.029 A 
ATOM     16  C7  UNL     1      -1.265  -1.991 -21.239  0.00  0.00    +0.086 A 
ATOM     17 CL1  UNL     1      -2.249  -0.576 -21.307  0.00  0.00    -0.080 Cl
ATOM     18  C8  UNL     1      -1.838  -3.259 -21.364  0.00  0.00    +0.177 A 
BRANCH  18  19
ATOM     19  O2  UNL     1      -3.191  -3.406 -21.538  0.00  0.00    -0.502 OA
ATOM     20  H8  UNL     1      -3.628  -2.907 -20.827  0.00  0.00    +0.292 HD
ENDBRANCH  18  19
BRANCH  12  21
ATOM     21  O1  UNL     1      -1.652  -5.613 -21.475  0.00  0.00    -0.489 OA
BRANCH  21  23
ATOM     22  C1  UNL     1      -2.788  -6.147 -23.529  0.00  0.00    +0.048 C 
ATOM     23  C2  UNL     1      -1.485  -6.231 -22.753  0.00  0.00    +0.226 C 
ENDBRANCH  21  23
ENDBRANCH  12  21
ENDBRANCH   1  14
BRANCH   7  24
ATOM     24  O3  UNL     1       5.450  -5.279 -25.047  0.00  0.00    -0.489 OA
BRANCH  24  25
ATOM     25  C15 UNL     1       6.665  -4.597 -25.380  0.00  0.00    +0.226 C 
ATOM     26  C16 UNL     1       6.815  -4.570 -26.891  0.00  0.00    +0.048 C 
ENDBRANCH  24  25
ENDBRANCH   7  24
BRANCH   8  27
ATOM     27  O4  UNL     1       3.248  -3.614 -25.603  0.00  0.00    -0.489 OA
BRANCH  27  28
ATOM     28  C18 UNL     1       2.194  -4.486 -26.033  0.00  0.00    +0.226 C 
ATOM     29  C19 UNL     1       2.675  -5.208 -27.276  0.00  0.00    +0.048 C 
ENDBRANCH  27  28
ENDBRANCH   8  27
TORSDOF 8
ENDMDL
MODEL 7
REMARK VINA RESULT:    -4.006     11.931     14.123
REMARK INTER + INTRA:          -6.968
REMARK INTER:                  -6.092
REMARK INTRA:                  -0.876
REMARK UNBOUND:                -1.206
REMARK  Name = /home/vital/Documents/PhD_2021/Malaria_codes/data/pdb_ligands_mmv/ligand_238.pdb
REMARK  11 active torsions:
REMARK  status: ('A' for Active; 'I' for Inactive)
REMARK    1  A    between atoms: C1_1  and  C2_2
REMARK    2  A    between atoms: C2_2  and  O1_3
REMARK    3  A    between atoms: O1_3  and  C3_4
REMARK    4  A    between atoms: C5_6  and  C9_12
REMARK    5  A    between atoms: C8_10  and  O2_11
REMARK    6  A    between atoms: C14_18  and  O3_19
REMARK    7  A    between atoms: O3_19  and  C15_20
REMARK    8  A    between atoms: C15_20  and  C16_21
REMARK    9  A    between atoms: C17_22  and  O4_23
REMARK   10  A    between atoms: O4_23  and  C18_24
REMARK   11  A    between atoms: C18_24  and  C19_25
REMARK                            x       y       z     vdW  Elec       q    Type
REMARK                         _______ _______ _______ _____ _____    ______ ____
ROOT
ATOM      1  C9  UNL     1       1.239   6.295 -18.266  0.00  0.00    +0.115 C 
ATOM      2  N1  UNL     1       0.763   6.215 -16.871  0.00  0.00    -0.305 NA
ATOM      3  C10 UNL     1      -0.330   5.261 -16.731  0.00  0.00    +0.086 C 
ATOM      4  C11 UNL     1      -1.556   5.749 -17.504  0.00  0.00    +0.050 C 
ATOM      5  C12 UNL     1      -1.214   6.033 -18.944  0.00  0.00    -0.037 A 
ATOM      6  C13 UNL     1      -2.231   6.052 -19.912  0.00  0.00    +0.053 A 
ATOM      7  C14 UNL     1      -1.929   6.302 -21.253  0.00  0.00    +0.162 A 
ATOM      8  C17 UNL     1      -0.613   6.588 -21.618  0.00  0.00    +0.162 A 
ATOM      9  C20 UNL     1       0.404   6.564 -20.662  0.00  0.00    +0.055 A 
ATOM     10  C21 UNL     1       0.117   6.319 -19.308  0.00  0.00    -0.019 A 
ATOM     11  H10 UNL     1       1.546   5.942 -16.282  0.00  0.00    +0.123 HD
ENDROOT
BRANCH   1  14
ATOM     12  C3  UNL     1       3.792   8.808 -19.645  0.00  0.00    +0.163 A 
ATOM     13  C4  UNL     1       2.945   7.700 -19.534  0.00  0.00    +0.055 A 
ATOM     14  C5  UNL     1       2.175   7.496 -18.376  0.00  0.00    -0.021 A 
ATOM     15  C6  UNL     1       2.290   8.410 -17.313  0.00  0.00    +0.029 A 
ATOM     16  C7  UNL     1       3.152   9.499 -17.412  0.00  0.00    +0.086 A 
ATOM     17 CL1  UNL     1       3.280  10.596 -16.087  0.00  0.00    -0.080 Cl
ATOM     18  C8  UNL     1       3.905   9.696 -18.571  0.00  0.00    +0.177 A 
BRANCH  18  19
ATOM     19  O2  UNL     1       4.757  10.766 -18.683  0.00  0.00    -0.502 OA
ATOM     20  H8  UNL     1       5.641  10.458 -18.419  0.00  0.00    +0.292 HD
ENDBRANCH  18  19
BRANCH  12  21
ATOM     21  O1  UNL     1       4.590   9.031 -20.734  0.00  0.00    -0.489 OA
BRANCH  21  23
ATOM     22  C1  UNL     1       4.722   9.567 -23.077  0.00  0.00    +0.048 C 
ATOM     23  C2  UNL     1       4.051   9.880 -21.750  0.00  0.00    +0.226 C 
ENDBRANCH  21  23
ENDBRANCH  12  21
ENDBRANCH   1  14
BRANCH   7  24
ATOM     24  O3  UNL     1      -2.911   6.332 -22.205  0.00  0.00    -0.489 OA
BRANCH  24  25
ATOM     25  C15 UNL     1      -4.008   7.192 -21.872  0.00  0.00    +0.226 C 
ATOM     26  C16 UNL     1      -3.796   8.539 -22.539  0.00  0.00    +0.048 C 
ENDBRANCH  24  25
ENDBRANCH   7  24
BRANCH   8  27
ATOM     27  O4  UNL     1      -0.232   6.830 -22.912  0.00  0.00    -0.489 OA
BRANCH  27  28
ATOM     28  C18 UNL     1       1.197   6.859 -23.040  0.00  0.00    +0.226 C 
ATOM     29  C19 UNL     1       1.527   7.589 -24.327  0.00  0.00    +0.048 C 
ENDBRANCH  27  28
ENDBRANCH   8  27
TORSDOF 8
ENDMDL
MODEL 8
REMARK VINA RESULT:    -3.707     11.552     14.064
REMARK INTER + INTRA:          -6.538
REMARK INTER:                  -5.148
REMARK INTRA:                  -1.390
REMARK UNBOUND:                -1.206
REMARK  Name = /home/vital/Documents/PhD_2021/Malaria_codes/data/pdb_ligands_mmv/ligand_238.pdb
REMARK  11 active torsions:
REMARK  status: ('A' for Active; 'I' for Inactive)
REMARK    1  A    between atoms: C1_1  and  C2_2
REMARK    2  A    between atoms: C2_2  and  O1_3
REMARK    3  A    between atoms: O1_3  and  C3_4
REMARK    4  A    between atoms: C5_6  and  C9_12
REMARK    5  A    between atoms: C8_10  and  O2_11
REMARK    6  A    between atoms: C14_18  and  O3_19
REMARK    7  A    between atoms: O3_19  and  C15_20
REMARK    8  A    between atoms: C15_20  and  C16_21
REMARK    9  A    between atoms: C17_22  and  O4_23
REMARK   10  A    between atoms: O4_23  and  C18_24
REMARK   11  A    between atoms: C18_24  and  C19_25
REMARK                            x       y       z     vdW  Elec       q    Type
REMARK                         _______ _______ _______ _____ _____    ______ ____
ROOT
ATOM      1  C9  UNL     1       4.747   9.410 -19.400  0.00  0.00    +0.115 C 
ATOM      2  N1  UNL     1       4.678  10.767 -18.821  0.00  0.00    -0.305 NA
ATOM      3  C10 UNL     1       4.322  10.729 -17.407  0.00  0.00    +0.086 C 
ATOM      4  C11 UNL     1       2.901  10.191 -17.237  0.00  0.00    +0.050 C 
ATOM      5  C12 UNL     1       2.742   8.852 -17.912  0.00  0.00    -0.037 A 
ATOM      6  C13 UNL     1       1.705   7.991 -17.517  0.00  0.00    +0.053 A 
ATOM      7  C14 UNL     1       1.552   6.742 -18.125  0.00  0.00    +0.162 A 
ATOM      8  C17 UNL     1       2.404   6.377 -19.168  0.00  0.00    +0.162 A 
ATOM      9  C20 UNL     1       3.441   7.225 -19.560  0.00  0.00    +0.055 A 
ATOM     10  C21 UNL     1       3.607   8.487 -18.963  0.00  0.00    -0.019 A 
ATOM     11  H10 UNL     1       5.584  11.213 -18.944  0.00  0.00    +0.123 HD
ENDROOT
BRANCH   1  14
ATOM     12  C3  UNL     1       3.784   9.888 -23.085  0.00  0.00    +0.163 A 
ATOM     13  C4  UNL     1       3.694   9.743 -21.696  0.00  0.00    +0.055 A 
ATOM     14  C5  UNL     1       4.848   9.551 -20.916  0.00  0.00    -0.021 A 
ATOM     15  C6  UNL     1       6.098   9.478 -21.558  0.00  0.00    +0.029 A 
ATOM     16  C7  UNL     1       6.185   9.597 -22.942  0.00  0.00    +0.086 A 
ATOM     17 CL1  UNL     1       7.730   9.493 -23.702  0.00  0.00    -0.080 Cl
ATOM     18  C8  UNL     1       5.032   9.796 -23.706  0.00  0.00    +0.177 A 
BRANCH  18  19
ATOM     19  O2  UNL     1       5.104   9.917 -25.070  0.00  0.00    -0.502 OA
ATOM     20  H8  UNL     1       4.950  10.853 -25.284  0.00  0.00    +0.292 HD
ENDBRANCH  18  19
BRANCH  12  21
ATOM     21  O1  UNL     1       2.688  10.038 -23.891  0.00  0.00    -0.489 OA
BRANCH  21  23
ATOM     22  C1  UNL     1       0.761   9.201 -25.064  0.00  0.00    +0.048 C 
ATOM     23  C2  UNL     1       1.928   8.857 -24.154  0.00  0.00    +0.226 C 
ENDBRANCH  21  23
ENDBRANCH  12  21
ENDBRANCH   1  14
BRANCH   7  24
ATOM     24  O3  UNL     1       0.541   5.897 -17.757  0.00  0.00    -0.489 OA
BRANCH  24  25
ATOM     25  C15 UNL     1      -0.755   6.326 -18.193  0.00  0.00    +0.226 C 
ATOM     26  C16 UNL     1      -1.478   5.147 -18.820  0.00  0.00    +0.048 C 
ENDBRANCH  24  25
ENDBRANCH   7  24
BRANCH   8  27
ATOM     27  O4  UNL     1       2.329   5.165 -19.805  0.00  0.00    -0.489 OA
BRANCH  27  28
ATOM     28  C18 UNL     1       2.497   5.309 -21.222  0.00  0.00    +0.226 C 
ATOM     29  C19 UNL     1       1.133   5.596 -21.819  0.00  0.00    +0.048 C 
ENDBRANCH  27  28
ENDBRANCH   8  27
TORSDOF 8
ENDMDL
