MODEL 1
REMARK VINA RESULT:    -4.179      0.000      0.000
REMARK INTER + INTRA:          -4.899
REMARK INTER:                  -4.423
REMARK INTRA:                  -0.476
REMARK UNBOUND:                -0.476
REMARK  Name = /home/vital/Documents/PhD_2021/Malaria_codes/data/pdb_ligands_mmv/ligand_227.pdb
REMARK  1 active torsions:
REMARK  status: ('A' for Active; 'I' for Inactive)
REMARK    1  A    between atoms: C5_6  and  N2_12
REMARK                            x       y       z     vdW  Elec       q    Type
REMARK                         _______ _______ _______ _____ _____    ______ ____
ROOT
ATOM      1 CL1  UNL     1      -3.913  -0.922 -19.323  0.00  0.00    -0.083 Cl
ATOM      2  C1  UNL     1      -3.653  -2.055 -20.591  0.00  0.00    +0.043 A 
ATOM      3  C2  UNL     1      -4.348  -1.924 -21.785  0.00  0.00    +0.021 A 
ATOM      4  C3  UNL     1      -4.128  -2.848 -22.803  0.00  0.00    +0.013 A 
ATOM      5  C4  UNL     1      -3.214  -3.916 -22.637  0.00  0.00    +0.021 A 
ATOM      6  C5  UNL     1      -2.957  -4.879 -23.648  0.00  0.00    +0.040 A 
ATOM      7  C6  UNL     1      -2.028  -5.886 -23.380  0.00  0.00    +0.043 A 
ATOM      8  C7  UNL     1      -1.393  -5.902 -22.153  0.00  0.00    +0.113 A 
ATOM      9  N1  UNL     1      -1.618  -5.001 -21.177  0.00  0.00    -0.255 NA
ATOM     10  C8  UNL     1      -2.510  -4.027 -21.416  0.00  0.00    +0.074 A 
ATOM     11  C9  UNL     1      -2.744  -3.097 -20.414  0.00  0.00    +0.048 A 
ENDROOT
BRANCH   6  12
ATOM     12  N2  UNL     1      -3.667  -4.830 -24.865  0.00  0.00    -0.329 N 
ATOM     13  C10 UNL     1      -2.904  -4.622 -26.109  0.00  0.00    +0.105 C 
ATOM     14  C11 UNL     1      -3.230  -5.830 -26.981  0.00  0.00    +0.020 C 
ATOM     15  C12 UNL     1      -4.640  -6.185 -26.544  0.00  0.00    +0.020 C 
ATOM     16  C13 UNL     1      -4.572  -5.984 -25.034  0.00  0.00    +0.105 C 
ENDBRANCH   6  12
TORSDOF 1
ENDMDL
MODEL 2
REMARK VINA RESULT:    -4.048      8.887     10.973
REMARK INTER + INTRA:          -4.760
REMARK INTER:                  -4.325
REMARK INTRA:                  -0.435
REMARK UNBOUND:                -0.476
REMARK  Name = /home/vital/Documents/PhD_2021/Malaria_codes/data/pdb_ligands_mmv/ligand_227.pdb
REMARK  1 active torsions:
REMARK  status: ('A' for Active; 'I' for Inactive)
REMARK    1  A    between atoms: C5_6  and  N2_12
REMARK                            x       y       z     vdW  Elec       q    Type
REMARK                         _______ _______ _______ _____ _____    ______ ____
ROOT
ATOM      1 CL1  UNL     1       7.002  -5.231 -26.191  0.00  0.00    -0.083 Cl
ATOM      2  C1  UNL     1       6.667  -4.534 -24.654  0.00  0.00    +0.043 A 
ATOM      3  C2  UNL     1       7.241  -3.318 -24.310  0.00  0.00    +0.021 A 
ATOM      4  C3  UNL     1       6.961  -2.765 -23.062  0.00  0.00    +0.013 A 
ATOM      5  C4  UNL     1       6.109  -3.423 -22.144  0.00  0.00    +0.021 A 
ATOM      6  C5  UNL     1       5.795  -2.896 -20.864  0.00  0.00    +0.040 A 
ATOM      7  C6  UNL     1       4.935  -3.627 -20.041  0.00  0.00    +0.043 A 
ATOM      8  C7  UNL     1       4.421  -4.822 -20.505  0.00  0.00    +0.113 A 
ATOM      9  N1  UNL     1       4.702  -5.345 -21.714  0.00  0.00    -0.255 NA
ATOM     10  C8  UNL     1       5.529  -4.658 -22.517  0.00  0.00    +0.074 A 
ATOM     11  C9  UNL     1       5.820  -5.192 -23.763  0.00  0.00    +0.048 A 
ENDROOT
BRANCH   6  12
ATOM     12  N2  UNL     1       6.384  -1.689 -20.435  0.00  0.00    -0.329 N 
ATOM     13  C10 UNL     1       5.497  -0.611 -19.964  0.00  0.00    +0.105 C 
ATOM     14  C11 UNL     1       5.953  -0.317 -18.538  0.00  0.00    +0.020 C 
ATOM     15  C12 UNL     1       7.434  -0.648 -18.587  0.00  0.00    +0.020 C 
ATOM     16  C13 UNL     1       7.457  -1.909 -19.444  0.00  0.00    +0.105 C 
ENDBRANCH   6  12
TORSDOF 1
ENDMDL
MODEL 3
REMARK VINA RESULT:    -3.989     12.457     14.696
REMARK INTER + INTRA:          -4.698
REMARK INTER:                  -4.300
REMARK INTRA:                  -0.398
REMARK UNBOUND:                -0.476
REMARK  Name = /home/vital/Documents/PhD_2021/Malaria_codes/data/pdb_ligands_mmv/ligand_227.pdb
REMARK  1 active torsions:
REMARK  status: ('A' for Active; 'I' for Inactive)
REMARK    1  A    between atoms: C5_6  and  N2_12
REMARK                            x       y       z     vdW  Elec       q    Type
REMARK                         _______ _______ _______ _____ _____    ______ ____
ROOT
ATOM      1 CL1  UNL     1       4.256   9.841 -23.429  0.00  0.00    -0.083 Cl
ATOM      2  C1  UNL     1       3.619   9.213 -21.959  0.00  0.00    +0.043 A 
ATOM      3  C2  UNL     1       2.950   7.996 -21.963  0.00  0.00    +0.021 A 
ATOM      4  C3  UNL     1       2.440   7.500 -20.766  0.00  0.00    +0.013 A 
ATOM      5  C4  UNL     1       2.587   8.215 -19.554  0.00  0.00    +0.021 A 
ATOM      6  C5  UNL     1       2.084   7.747 -18.312  0.00  0.00    +0.040 A 
ATOM      7  C6  UNL     1       2.294   8.531 -17.176  0.00  0.00    +0.043 A 
ATOM      8  C7  UNL     1       2.985   9.721 -17.303  0.00  0.00    +0.113 A 
ATOM      9  N1  UNL     1       3.472  10.188 -18.468  0.00  0.00    -0.255 NA
ATOM     10  C8  UNL     1       3.277   9.449 -19.571  0.00  0.00    +0.074 A 
ATOM     11  C9  UNL     1       3.778   9.927 -20.773  0.00  0.00    +0.048 A 
ENDROOT
BRANCH   6  12
ATOM     12  N2  UNL     1       1.354   6.542 -18.257  0.00  0.00    -0.329 N 
ATOM     13  C10 UNL     1       1.721   5.552 -17.229  0.00  0.00    +0.105 C 
ATOM     14  C11 UNL     1       0.449   5.336 -16.415  0.00  0.00    +0.020 C 
ATOM     15  C12 UNL     1      -0.647   5.578 -17.438  0.00  0.00    +0.020 C 
ATOM     16  C13 UNL     1      -0.104   6.771 -18.217  0.00  0.00    +0.105 C 
ENDBRANCH   6  12
TORSDOF 1
ENDMDL
MODEL 4
REMARK VINA RESULT:    -3.905     12.392     13.931
REMARK INTER + INTRA:          -4.609
REMARK INTER:                  -4.142
REMARK INTRA:                  -0.467
REMARK UNBOUND:                -0.476
REMARK  Name = /home/vital/Documents/PhD_2021/Malaria_codes/data/pdb_ligands_mmv/ligand_227.pdb
REMARK  1 active torsions:
REMARK  status: ('A' for Active; 'I' for Inactive)
REMARK    1  A    between atoms: C5_6  and  N2_12
REMARK                            x       y       z     vdW  Elec       q    Type
REMARK                         _______ _______ _______ _____ _____    ______ ____
ROOT
ATOM      1 CL1  UNL     1       3.242   2.722 -12.251  0.00  0.00    -0.083 Cl
ATOM      2  C1  UNL     1       2.816   3.762 -13.554  0.00  0.00    +0.043 A 
ATOM      3  C2  UNL     1       3.776   4.597 -14.111  0.00  0.00    +0.021 A 
ATOM      4  C3  UNL     1       3.417   5.433 -15.165  0.00  0.00    +0.013 A 
ATOM      5  C4  UNL     1       2.097   5.449 -15.671  0.00  0.00    +0.021 A 
ATOM      6  C5  UNL     1       1.688   6.283 -16.745  0.00  0.00    +0.040 A 
ATOM      7  C6  UNL     1       0.360   6.210 -17.170  0.00  0.00    +0.043 A 
ATOM      8  C7  UNL     1      -0.497   5.330 -16.538  0.00  0.00    +0.113 A 
ATOM      9  N1  UNL     1      -0.136   4.527 -15.519  0.00  0.00    -0.255 NA
ATOM     10  C8  UNL     1       1.136   4.586 -15.095  0.00  0.00    +0.074 A 
ATOM     11  C9  UNL     1       1.512   3.760 -14.046  0.00  0.00    +0.048 A 
ENDROOT
BRANCH   6  12
ATOM     12  N2  UNL     1       2.602   7.188 -17.321  0.00  0.00    -0.329 N 
ATOM     13  C10 UNL     1       2.898   7.058 -18.759  0.00  0.00    +0.105 C 
ATOM     14  C11 UNL     1       2.529   8.409 -19.363  0.00  0.00    +0.020 C 
ATOM     15  C12 UNL     1       2.795   9.370 -18.217  0.00  0.00    +0.020 C 
ATOM     16  C13 UNL     1       2.269   8.594 -17.015  0.00  0.00    +0.105 C 
ENDBRANCH   6  12
TORSDOF 1
ENDMDL
MODEL 5
REMARK VINA RESULT:    -3.856     11.079     12.725
REMARK INTER + INTRA:          -4.557
REMARK INTER:                  -4.081
REMARK INTRA:                  -0.476
REMARK UNBOUND:                -0.476
REMARK  Name = /home/vital/Documents/PhD_2021/Malaria_codes/data/pdb_ligands_mmv/ligand_227.pdb
REMARK  1 active torsions:
REMARK  status: ('A' for Active; 'I' for Inactive)
REMARK    1  A    between atoms: C5_6  and  N2_12
REMARK                            x       y       z     vdW  Elec       q    Type
REMARK                         _______ _______ _______ _____ _____    ______ ____
ROOT
ATOM      1 CL1  UNL     1      -2.075   1.774 -34.987  0.00  0.00    -0.083 Cl
ATOM      2  C1  UNL     1      -1.083   0.394 -34.718  0.00  0.00    +0.043 A 
ATOM      3  C2  UNL     1      -0.260   0.345 -33.601  0.00  0.00    +0.021 A 
ATOM      4  C3  UNL     1       0.538  -0.778 -33.396  0.00  0.00    +0.013 A 
ATOM      5  C4  UNL     1       0.527  -1.860 -34.306  0.00  0.00    +0.021 A 
ATOM      6  C5  UNL     1       1.322  -3.024 -34.136  0.00  0.00    +0.040 A 
ATOM      7  C6  UNL     1       1.225  -4.037 -35.092  0.00  0.00    +0.043 A 
ATOM      8  C7  UNL     1       0.359  -3.871 -36.156  0.00  0.00    +0.113 A 
ATOM      9  N1  UNL     1      -0.406  -2.779 -36.342  0.00  0.00    -0.255 NA
ATOM     10  C8  UNL     1      -0.324  -1.794 -35.434  0.00  0.00    +0.074 A 
ATOM     11  C9  UNL     1      -1.111  -0.667 -35.621  0.00  0.00    +0.048 A 
ENDROOT
BRANCH   6  12
ATOM     12  N2  UNL     1       2.214  -3.115 -33.048  0.00  0.00    -0.329 N 
ATOM     13  C10 UNL     1       1.997  -4.182 -32.056  0.00  0.00    +0.105 C 
ATOM     14  C11 UNL     1       3.291  -4.988 -32.051  0.00  0.00    +0.020 C 
ATOM     15  C12 UNL     1       4.336  -3.944 -32.405  0.00  0.00    +0.020 C 
ATOM     16  C13 UNL     1       3.626  -3.129 -33.480  0.00  0.00    +0.105 C 
ENDBRANCH   6  12
TORSDOF 1
ENDMDL
MODEL 6
REMARK VINA RESULT:    -3.812     13.199     15.335
REMARK INTER + INTRA:          -4.510
REMARK INTER:                  -4.162
REMARK INTRA:                  -0.348
REMARK UNBOUND:                -0.476
REMARK  Name = /home/vital/Documents/PhD_2021/Malaria_codes/data/pdb_ligands_mmv/ligand_227.pdb
REMARK  1 active torsions:
REMARK  status: ('A' for Active; 'I' for Inactive)
REMARK    1  A    between atoms: C5_6  and  N2_12
REMARK                            x       y       z     vdW  Elec       q    Type
REMARK                         _______ _______ _______ _____ _____    ______ ____
ROOT
ATOM      1 CL1  UNL     1       4.177   9.975 -23.680  0.00  0.00    -0.083 Cl
ATOM      2  C1  UNL     1       3.763   9.450 -22.095  0.00  0.00    +0.043 A 
ATOM      3  C2  UNL     1       3.225   8.184 -21.908  0.00  0.00    +0.021 A 
ATOM      4  C3  UNL     1       2.894   7.771 -20.620  0.00  0.00    +0.013 A 
ATOM      5  C4  UNL     1       3.093   8.619 -19.505  0.00  0.00    +0.021 A 
ATOM      6  C5  UNL     1       2.773   8.239 -18.176  0.00  0.00    +0.040 A 
ATOM      7  C6  UNL     1       3.019   9.154 -17.149  0.00  0.00    +0.043 A 
ATOM      8  C7  UNL     1       3.568  10.382 -17.465  0.00  0.00    +0.113 A 
ATOM      9  N1  UNL     1       3.882  10.767 -18.717  0.00  0.00    -0.255 NA
ATOM     10  C8  UNL     1       3.650   9.902 -19.716  0.00  0.00    +0.074 A 
ATOM     11  C9  UNL     1       3.972  10.295 -21.007  0.00  0.00    +0.048 A 
ENDROOT
BRANCH   6  12
ATOM     12  N2  UNL     1       2.178   6.986 -17.925  0.00  0.00    -0.329 N 
ATOM     13  C10 UNL     1       2.669   6.199 -16.780  0.00  0.00    +0.105 C 
ATOM     14  C11 UNL     1       1.444   5.972 -15.900  0.00  0.00    +0.020 C 
ATOM     15  C12 UNL     1       0.309   5.948 -16.909  0.00  0.00    +0.020 C 
ATOM     16  C13 UNL     1       0.704   7.065 -17.868  0.00  0.00    +0.105 C 
ENDBRANCH   6  12
TORSDOF 1
ENDMDL
MODEL 7
REMARK VINA RESULT:    -3.778     13.201     15.183
REMARK INTER + INTRA:          -4.474
REMARK INTER:                  -4.000
REMARK INTRA:                  -0.474
REMARK UNBOUND:                -0.476
REMARK  Name = /home/vital/Documents/PhD_2021/Malaria_codes/data/pdb_ligands_mmv/ligand_227.pdb
REMARK  1 active torsions:
REMARK  status: ('A' for Active; 'I' for Inactive)
REMARK    1  A    between atoms: C5_6  and  N2_12
REMARK                            x       y       z     vdW  Elec       q    Type
REMARK                         _______ _______ _______ _____ _____    ______ ____
ROOT
ATOM      1 CL1  UNL     1      -0.648   5.796 -17.878  0.00  0.00    -0.083 Cl
ATOM      2  C1  UNL     1       0.613   6.786 -18.501  0.00  0.00    +0.043 A 
ATOM      3  C2  UNL     1       1.033   6.622 -19.814  0.00  0.00    +0.021 A 
ATOM      4  C3  UNL     1       2.054   7.431 -20.305  0.00  0.00    +0.013 A 
ATOM      5  C4  UNL     1       2.671   8.409 -19.490  0.00  0.00    +0.021 A 
ATOM      6  C5  UNL     1       3.713   9.256 -19.949  0.00  0.00    +0.040 A 
ATOM      7  C6  UNL     1       4.244  10.193 -19.060  0.00  0.00    +0.043 A 
ATOM      8  C7  UNL     1       3.732  10.264 -17.779  0.00  0.00    +0.113 A 
ATOM      9  N1  UNL     1       2.744   9.474 -17.318  0.00  0.00    -0.255 NA
ATOM     10  C8  UNL     1       2.224   8.565 -18.157  0.00  0.00    +0.074 A 
ATOM     11  C9  UNL     1       1.205   7.750 -17.686  0.00  0.00    +0.048 A 
ENDROOT
BRANCH   6  12
ATOM     12  N2  UNL     1       4.218   9.106 -21.257  0.00  0.00    -0.329 N 
ATOM     13  C10 UNL     1       4.094  10.244 -22.186  0.00  0.00    +0.105 C 
ATOM     14  C11 UNL     1       5.522  10.563 -22.614  0.00  0.00    +0.020 C 
ATOM     15  C12 UNL     1       6.203   9.207 -22.543  0.00  0.00    +0.020 C 
ATOM     16  C13 UNL     1       5.610   8.615 -21.269  0.00  0.00    +0.105 C 
ENDBRANCH   6  12
TORSDOF 1
ENDMDL
MODEL 8
REMARK VINA RESULT:    -3.652     10.747     12.181
REMARK INTER + INTRA:          -4.341
REMARK INTER:                  -3.886
REMARK INTRA:                  -0.456
REMARK UNBOUND:                -0.476
REMARK  Name = /home/vital/Documents/PhD_2021/Malaria_codes/data/pdb_ligands_mmv/ligand_227.pdb
REMARK  1 active torsions:
REMARK  status: ('A' for Active; 'I' for Inactive)
REMARK    1  A    between atoms: C5_6  and  N2_12
REMARK                            x       y       z     vdW  Elec       q    Type
REMARK                         _______ _______ _______ _____ _____    ______ ____
ROOT
ATOM      1 CL1  UNL     1      -0.698  -1.875 -36.341  0.00  0.00    -0.083 Cl
ATOM      2  C1  UNL     1      -0.374  -3.371 -35.556  0.00  0.00    +0.043 A 
ATOM      3  C2  UNL     1      -1.405  -4.278 -35.350  0.00  0.00    +0.021 A 
ATOM      4  C3  UNL     1      -1.128  -5.485 -34.713  0.00  0.00    +0.013 A 
ATOM      5  C4  UNL     1       0.179  -5.797 -34.271  0.00  0.00    +0.021 A 
ATOM      6  C5  UNL     1       0.506  -7.016 -33.620  0.00  0.00    +0.040 A 
ATOM      7  C6  UNL     1       1.832  -7.224 -33.234  0.00  0.00    +0.043 A 
ATOM      8  C7  UNL     1       2.769  -6.245 -33.505  0.00  0.00    +0.113 A 
ATOM      9  N1  UNL     1       2.486  -5.081 -34.122  0.00  0.00    -0.255 NA
ATOM     10  C8  UNL     1       1.216  -4.863 -34.497  0.00  0.00    +0.074 A 
ATOM     11  C9  UNL     1       0.921  -3.666 -35.133  0.00  0.00    +0.048 A 
ENDROOT
BRANCH   6  12
ATOM     12  N2  UNL     1      -0.504  -7.957 -33.338  0.00  0.00    -0.329 N 
ATOM     13  C10 UNL     1      -0.351  -9.324 -33.868  0.00  0.00    +0.105 C 
ATOM     14  C11 UNL     1      -0.385 -10.231 -32.642  0.00  0.00    +0.020 C 
ATOM     15  C12 UNL     1      -1.279  -9.464 -31.685  0.00  0.00    +0.020 C 
ATOM     16  C13 UNL     1      -0.823  -8.024 -31.897  0.00  0.00    +0.105 C 
ENDBRANCH   6  12
TORSDOF 1
ENDMDL
