MODEL 1
REMARK VINA RESULT:    -5.025      0.000      0.000
REMARK INTER + INTRA:          -6.956
REMARK INTER:                  -5.907
REMARK INTRA:                  -1.050
REMARK UNBOUND:                -1.050
REMARK  Name = /home/vital/Documents/PhD_2021/Malaria_codes/data/pdb_ligands_mmv/ligand_250.pdb
REMARK  4 active torsions:
REMARK  status: ('A' for Active; 'I' for Inactive)
REMARK    1  A    between atoms: O1_1  and  C1_2
REMARK    2  A    between atoms: C4_5  and  C7_8
REMARK    3  A    between atoms: C7_8  and  C9_12
REMARK    4  A    between atoms: C12_15  and  O2_16
REMARK                            x       y       z     vdW  Elec       q    Type
REMARK                         _______ _______ _______ _____ _____    ______ ____
ROOT
ATOM      1  C7  UNL     1       1.042   5.534 -16.730  0.00  0.00    +0.019 C 
ATOM      2  C8  UNL     1       1.784   6.545 -17.241  0.00  0.00    +0.115 C 
ATOM      3 CL1  UNL     1       1.293   7.472 -18.632  0.00  0.00    -0.070 Cl
ATOM      4 CL2  UNL     1       3.314   7.033 -16.566  0.00  0.00    -0.070 Cl
ENDROOT
BRANCH   1   8
ATOM      5  C1  UNL     1       2.440   3.336 -13.342  0.00  0.00    +0.117 A 
ATOM      6  C2  UNL     1       1.905   4.607 -13.166  0.00  0.00    +0.046 A 
ATOM      7  C3  UNL     1       1.450   5.325 -14.272  0.00  0.00    +0.012 A 
ATOM      8  C4  UNL     1       1.534   4.771 -15.557  0.00  0.00    -0.015 A 
ATOM      9  C5  UNL     1       2.071   3.484 -15.717  0.00  0.00    +0.012 A 
ATOM     10  C6  UNL     1       2.527   2.767 -14.608  0.00  0.00    +0.046 A 
BRANCH   5  11
ATOM     11  O1  UNL     1       2.873   2.671 -12.233  0.00  0.00    -0.507 OA
ATOM     12  H1  UNL     1       2.507   1.772 -12.247  0.00  0.00    +0.292 HD
ENDBRANCH   5  11
ENDBRANCH   1   8
BRANCH   1  13
ATOM     13  C9  UNL     1      -0.266   5.189 -17.342  0.00  0.00    -0.015 A 
ATOM     14  C10 UNL     1      -0.310   4.490 -18.556  0.00  0.00    +0.012 A 
ATOM     15  C11 UNL     1      -1.537   4.158 -19.130  0.00  0.00    +0.046 A 
ATOM     16  C12 UNL     1      -2.718   4.519 -18.492  0.00  0.00    +0.117 A 
ATOM     17  C13 UNL     1      -2.695   5.209 -17.284  0.00  0.00    +0.046 A 
ATOM     18  C14 UNL     1      -1.467   5.542 -16.708  0.00  0.00    +0.012 A 
BRANCH  16  19
ATOM     19  O2  UNL     1      -3.893   4.174 -19.090  0.00  0.00    -0.507 OA
ATOM     20  H8  UNL     1      -3.698   3.792 -19.961  0.00  0.00    +0.292 HD
ENDBRANCH  16  19
ENDBRANCH   1  13
TORSDOF 4
ENDMDL
MODEL 2
REMARK VINA RESULT:    -5.014      0.057      5.703
REMARK INTER + INTRA:          -6.943
REMARK INTER:                  -5.866
REMARK INTRA:                  -1.078
REMARK UNBOUND:                -1.050
REMARK  Name = /home/vital/Documents/PhD_2021/Malaria_codes/data/pdb_ligands_mmv/ligand_250.pdb
REMARK  4 active torsions:
REMARK  status: ('A' for Active; 'I' for Inactive)
REMARK    1  A    between atoms: O1_1  and  C1_2
REMARK    2  A    between atoms: C4_5  and  C7_8
REMARK    3  A    between atoms: C7_8  and  C9_12
REMARK    4  A    between atoms: C12_15  and  O2_16
REMARK                            x       y       z     vdW  Elec       q    Type
REMARK                         _______ _______ _______ _____ _____    ______ ____
ROOT
ATOM      1  C7  UNL     1       1.044   5.492 -16.758  0.00  0.00    +0.019 C 
ATOM      2  C8  UNL     1       1.785   6.498 -17.279  0.00  0.00    +0.115 C 
ATOM      3 CL1  UNL     1       3.315   6.994 -16.608  0.00  0.00    -0.070 Cl
ATOM      4 CL2  UNL     1       1.293   7.413 -18.678  0.00  0.00    -0.070 Cl
ENDROOT
BRANCH   1   8
ATOM      5  C1  UNL     1      -2.715   4.457 -18.510  0.00  0.00    +0.117 A 
ATOM      6  C2  UNL     1      -1.534   4.060 -19.127  0.00  0.00    +0.046 A 
ATOM      7  C3  UNL     1      -0.307   4.399 -18.556  0.00  0.00    +0.012 A 
ATOM      8  C4  UNL     1      -0.263   5.140 -17.367  0.00  0.00    -0.015 A 
ATOM      9  C5  UNL     1      -1.464   5.527 -16.753  0.00  0.00    +0.012 A 
ATOM     10  C6  UNL     1      -2.692   5.187 -17.327  0.00  0.00    +0.046 A 
BRANCH   5  11
ATOM     11  O1  UNL     1      -3.890   4.104 -19.103  0.00  0.00    -0.507 OA
ATOM     12  H1  UNL     1      -3.967   3.136 -19.090  0.00  0.00    +0.292 HD
ENDBRANCH   5  11
ENDBRANCH   1   8
BRANCH   1  13
ATOM     13  C9  UNL     1       1.537   4.739 -15.578  0.00  0.00    -0.015 A 
ATOM     14  C10 UNL     1       1.429   5.294 -14.296  0.00  0.00    +0.012 A 
ATOM     15  C11 UNL     1       1.885   4.586 -13.183  0.00  0.00    +0.046 A 
ATOM     16  C12 UNL     1       2.446   3.324 -13.351  0.00  0.00    +0.117 A 
ATOM     17  C13 UNL     1       2.557   2.755 -14.616  0.00  0.00    +0.046 A 
ATOM     18  C14 UNL     1       2.101   3.463 -15.730  0.00  0.00    +0.012 A 
BRANCH  16  19
ATOM     19  O2  UNL     1       2.879   2.669 -12.237  0.00  0.00    -0.507 OA
ATOM     20  H8  UNL     1       3.601   2.072 -12.489  0.00  0.00    +0.292 HD
ENDBRANCH  16  19
ENDBRANCH   1  13
TORSDOF 4
ENDMDL
MODEL 3
REMARK VINA RESULT:    -4.875     19.001     20.485
REMARK INTER + INTRA:          -6.780
REMARK INTER:                  -5.979
REMARK INTRA:                  -0.801
REMARK UNBOUND:                -1.050
REMARK  Name = /home/vital/Documents/PhD_2021/Malaria_codes/data/pdb_ligands_mmv/ligand_250.pdb
REMARK  4 active torsions:
REMARK  status: ('A' for Active; 'I' for Inactive)
REMARK    1  A    between atoms: O1_1  and  C1_2
REMARK    2  A    between atoms: C4_5  and  C7_8
REMARK    3  A    between atoms: C7_8  and  C9_12
REMARK    4  A    between atoms: C12_15  and  O2_16
REMARK                            x       y       z     vdW  Elec       q    Type
REMARK                         _______ _______ _______ _____ _____    ______ ____
ROOT
ATOM      1  C7  UNL     1       2.503  -4.652 -33.434  0.00  0.00    +0.019 C 
ATOM      2  C8  UNL     1       3.763  -4.292 -33.095  0.00  0.00    +0.115 C 
ATOM      3 CL1  UNL     1       4.891  -5.386 -32.341  0.00  0.00    -0.070 Cl
ATOM      4 CL2  UNL     1       4.401  -2.695 -33.372  0.00  0.00    -0.070 Cl
ENDROOT
BRANCH   1   8
ATOM      5  C1  UNL     1      -0.116  -1.779 -35.210  0.00  0.00    +0.117 A 
ATOM      6  C2  UNL     1       0.340  -1.586 -33.911  0.00  0.00    +0.046 A 
ATOM      7  C3  UNL     1       1.193  -2.525 -33.330  0.00  0.00    +0.012 A 
ATOM      8  C4  UNL     1       1.588  -3.660 -34.051  0.00  0.00    -0.015 A 
ATOM      9  C5  UNL     1       1.124  -3.837 -35.364  0.00  0.00    +0.012 A 
ATOM     10  C6  UNL     1       0.269  -2.896 -35.943  0.00  0.00    +0.046 A 
BRANCH   5  11
ATOM     11  O1  UNL     1      -0.949  -0.836 -35.736  0.00  0.00    -0.507 OA
ATOM     12  H1  UNL     1      -1.795  -1.258 -35.956  0.00  0.00    +0.292 HD
ENDBRANCH   5  11
ENDBRANCH   1   8
BRANCH   1  13
ATOM     13  C9  UNL     1       2.035  -6.039 -33.191  0.00  0.00    -0.015 A 
ATOM     14  C10 UNL     1       2.088  -6.988 -34.220  0.00  0.00    +0.012 A 
ATOM     15  C11 UNL     1       1.656  -8.296 -33.993  0.00  0.00    +0.046 A 
ATOM     16  C12 UNL     1       1.175  -8.655 -32.739  0.00  0.00    +0.117 A 
ATOM     17  C13 UNL     1       1.120  -7.728 -31.703  0.00  0.00    +0.046 A 
ATOM     18  C14 UNL     1       1.552  -6.419 -31.929  0.00  0.00    +0.012 A 
BRANCH  16  19
ATOM     19  O2  UNL     1       0.763  -9.942 -32.563  0.00  0.00    -0.507 OA
ATOM     20  H8  UNL     1       1.498 -10.537 -32.785  0.00  0.00    +0.292 HD
ENDBRANCH  16  19
ENDBRANCH   1  13
TORSDOF 4
ENDMDL
MODEL 4
REMARK VINA RESULT:    -4.821     19.047     20.129
REMARK INTER + INTRA:          -6.716
REMARK INTER:                  -5.905
REMARK INTRA:                  -0.811
REMARK UNBOUND:                -1.050
REMARK  Name = /home/vital/Documents/PhD_2021/Malaria_codes/data/pdb_ligands_mmv/ligand_250.pdb
REMARK  4 active torsions:
REMARK  status: ('A' for Active; 'I' for Inactive)
REMARK    1  A    between atoms: O1_1  and  C1_2
REMARK    2  A    between atoms: C4_5  and  C7_8
REMARK    3  A    between atoms: C7_8  and  C9_12
REMARK    4  A    between atoms: C12_15  and  O2_16
REMARK                            x       y       z     vdW  Elec       q    Type
REMARK                         _______ _______ _______ _____ _____    ______ ____
ROOT
ATOM      1  C7  UNL     1       2.452  -4.572 -33.443  0.00  0.00    +0.019 C 
ATOM      2  C8  UNL     1       3.709  -4.201 -33.104  0.00  0.00    +0.115 C 
ATOM      3 CL1  UNL     1       4.355  -2.618 -33.446  0.00  0.00    -0.070 Cl
ATOM      4 CL2  UNL     1       4.824  -5.262 -32.288  0.00  0.00    -0.070 Cl
ENDROOT
BRANCH   1   8
ATOM      5  C1  UNL     1       1.104  -8.535 -32.579  0.00  0.00    +0.117 A 
ATOM      6  C2  UNL     1       1.618  -8.240 -33.836  0.00  0.00    +0.046 A 
ATOM      7  C3  UNL     1       2.056  -6.946 -34.119  0.00  0.00    +0.012 A 
ATOM      8  C4  UNL     1       1.977  -5.945 -33.142  0.00  0.00    -0.015 A 
ATOM      9  C5  UNL     1       1.462  -6.260 -31.875  0.00  0.00    +0.012 A 
ATOM     10  C6  UNL     1       1.022  -7.556 -31.594  0.00  0.00    +0.046 A 
BRANCH   5  11
ATOM     11  O1  UNL     1       0.687  -9.812 -32.347  0.00  0.00    -0.507 OA
ATOM     12  H1  UNL     1      -0.250  -9.792 -32.096  0.00  0.00    +0.292 HD
ENDBRANCH   5  11
ENDBRANCH   1   8
BRANCH   1  13
ATOM     13  C9  UNL     1       1.547  -3.606 -34.115  0.00  0.00    -0.015 A 
ATOM     14  C10 UNL     1       1.149  -2.438 -33.450  0.00  0.00    +0.012 A 
ATOM     15  C11 UNL     1       0.305  -1.524 -34.082  0.00  0.00    +0.046 A 
ATOM     16  C12 UNL     1      -0.139  -1.775 -35.376  0.00  0.00    +0.117 A 
ATOM     17  C13 UNL     1       0.249  -2.927 -36.053  0.00  0.00    +0.046 A 
ATOM     18  C14 UNL     1       1.094  -3.842 -35.422  0.00  0.00    +0.012 A 
BRANCH  16  19
ATOM     19  O2  UNL     1      -0.963  -0.855 -35.952  0.00  0.00    -0.507 OA
ATOM     20  H8  UNL     1      -1.148  -0.155 -35.306  0.00  0.00    +0.292 HD
ENDBRANCH  16  19
ENDBRANCH   1  13
TORSDOF 4
ENDMDL
MODEL 5
REMARK VINA RESULT:    -4.680      3.039      4.398
REMARK INTER + INTRA:          -6.550
REMARK INTER:                  -5.698
REMARK INTRA:                  -0.852
REMARK UNBOUND:                -1.050
REMARK  Name = /home/vital/Documents/PhD_2021/Malaria_codes/data/pdb_ligands_mmv/ligand_250.pdb
REMARK  4 active torsions:
REMARK  status: ('A' for Active; 'I' for Inactive)
REMARK    1  A    between atoms: O1_1  and  C1_2
REMARK    2  A    between atoms: C4_5  and  C7_8
REMARK    3  A    between atoms: C7_8  and  C9_12
REMARK    4  A    between atoms: C12_15  and  O2_16
REMARK                            x       y       z     vdW  Elec       q    Type
REMARK                         _______ _______ _______ _____ _____    ______ ____
ROOT
ATOM      1  C7  UNL     1       0.284   5.959 -17.531  0.00  0.00    +0.019 C 
ATOM      2  C8  UNL     1      -1.009   5.820 -17.908  0.00  0.00    +0.115 C 
ATOM      3 CL1  UNL     1      -1.734   6.768 -19.178  0.00  0.00    -0.070 Cl
ATOM      4 CL2  UNL     1      -2.097   4.680 -17.165  0.00  0.00    -0.070 Cl
ENDROOT
BRANCH   1   8
ATOM      5  C1  UNL     1       1.868   3.585 -14.350  0.00  0.00    +0.117 A 
ATOM      6  C2  UNL     1       1.959   3.130 -15.661  0.00  0.00    +0.046 A 
ATOM      7  C3  UNL     1       1.440   3.904 -16.699  0.00  0.00    +0.012 A 
ATOM      8  C4  UNL     1       0.827   5.134 -16.424  0.00  0.00    -0.015 A 
ATOM      9  C5  UNL     1       0.749   5.582 -15.096  0.00  0.00    +0.012 A 
ATOM     10  C6  UNL     1       1.269   4.805 -14.058  0.00  0.00    +0.046 A 
BRANCH   5  11
ATOM     11  O1  UNL     1       2.388   2.795 -13.368  0.00  0.00    -0.507 OA
ATOM     12  H1  UNL     1       3.339   2.977 -13.294  0.00  0.00    +0.292 HD
ENDBRANCH   5  11
ENDBRANCH   1   8
BRANCH   1  13
ATOM     13  C9  UNL     1       1.160   6.934 -18.226  0.00  0.00    -0.015 A 
ATOM     14  C10 UNL     1       1.745   7.987 -17.509  0.00  0.00    +0.012 A 
ATOM     15  C11 UNL     1       2.576   8.902 -18.158  0.00  0.00    +0.046 A 
ATOM     16  C12 UNL     1       2.824   8.764 -19.519  0.00  0.00    +0.117 A 
ATOM     17  C13 UNL     1       2.255   7.723 -20.247  0.00  0.00    +0.046 A 
ATOM     18  C14 UNL     1       1.424   6.807 -19.598  0.00  0.00    +0.012 A 
BRANCH  16  19
ATOM     19  O2  UNL     1       3.640   9.681 -20.111  0.00  0.00    -0.507 OA
ATOM     20  H8  UNL     1       3.202  10.548 -20.087  0.00  0.00    +0.292 HD
ENDBRANCH  16  19
ENDBRANCH   1  13
TORSDOF 4
ENDMDL
MODEL 6
REMARK VINA RESULT:    -4.675      3.043      5.684
REMARK INTER + INTRA:          -6.544
REMARK INTER:                  -5.693
REMARK INTRA:                  -0.851
REMARK UNBOUND:                -1.050
REMARK  Name = /home/vital/Documents/PhD_2021/Malaria_codes/data/pdb_ligands_mmv/ligand_250.pdb
REMARK  4 active torsions:
REMARK  status: ('A' for Active; 'I' for Inactive)
REMARK    1  A    between atoms: O1_1  and  C1_2
REMARK    2  A    between atoms: C4_5  and  C7_8
REMARK    3  A    between atoms: C7_8  and  C9_12
REMARK    4  A    between atoms: C12_15  and  O2_16
REMARK                            x       y       z     vdW  Elec       q    Type
REMARK                         _______ _______ _______ _____ _____    ______ ____
ROOT
ATOM      1  C7  UNL     1       0.279   5.965 -17.543  0.00  0.00    +0.019 C 
ATOM      2  C8  UNL     1      -1.012   5.823 -17.925  0.00  0.00    +0.115 C 
ATOM      3 CL1  UNL     1      -2.101   4.683 -17.182  0.00  0.00    -0.070 Cl
ATOM      4 CL2  UNL     1      -1.732   6.763 -19.204  0.00  0.00    -0.070 Cl
ENDROOT
BRANCH   1   8
ATOM      5  C1  UNL     1       2.822   8.767 -19.531  0.00  0.00    +0.117 A 
ATOM      6  C2  UNL     1       2.567   8.910 -18.172  0.00  0.00    +0.046 A 
ATOM      7  C3  UNL     1       1.736   7.997 -17.523  0.00  0.00    +0.012 A 
ATOM      8  C4  UNL     1       1.156   6.940 -18.237  0.00  0.00    -0.015 A 
ATOM      9  C5  UNL     1       1.427   6.805 -19.607  0.00  0.00    +0.012 A 
ATOM     10  C6  UNL     1       2.259   7.721 -20.256  0.00  0.00    +0.046 A 
BRANCH   5  11
ATOM     11  O1  UNL     1       3.639   9.683 -20.123  0.00  0.00    -0.507 OA
ATOM     12  H1  UNL     1       4.321   9.210 -20.628  0.00  0.00    +0.292 HD
ENDBRANCH   5  11
ENDBRANCH   1   8
BRANCH   1  13
ATOM     13  C9  UNL     1       0.818   5.148 -16.428  0.00  0.00    -0.015 A 
ATOM     14  C10 UNL     1       1.436   3.919 -16.694  0.00  0.00    +0.012 A 
ATOM     15  C11 UNL     1       1.951   3.151 -15.649  0.00  0.00    +0.046 A 
ATOM     16  C12 UNL     1       1.852   3.611 -14.340  0.00  0.00    +0.117 A 
ATOM     17  C13 UNL     1       1.245   4.831 -14.057  0.00  0.00    +0.046 A 
ATOM     18  C14 UNL     1       0.730   5.600 -15.102  0.00  0.00    +0.012 A 
BRANCH  16  19
ATOM     19  O2  UNL     1       2.367   2.828 -13.351  0.00  0.00    -0.507 OA
ATOM     20  H8  UNL     1       2.882   3.387 -12.748  0.00  0.00    +0.292 HD
ENDBRANCH  16  19
ENDBRANCH   1  13
TORSDOF 4
ENDMDL
MODEL 7
REMARK VINA RESULT:    -4.511      3.631      4.576
REMARK INTER + INTRA:          -6.352
REMARK INTER:                  -5.175
REMARK INTRA:                  -1.177
REMARK UNBOUND:                -1.050
REMARK  Name = /home/vital/Documents/PhD_2021/Malaria_codes/data/pdb_ligands_mmv/ligand_250.pdb
REMARK  4 active torsions:
REMARK  status: ('A' for Active; 'I' for Inactive)
REMARK    1  A    between atoms: O1_1  and  C1_2
REMARK    2  A    between atoms: C4_5  and  C7_8
REMARK    3  A    between atoms: C7_8  and  C9_12
REMARK    4  A    between atoms: C12_15  and  O2_16
REMARK                            x       y       z     vdW  Elec       q    Type
REMARK                         _______ _______ _______ _____ _____    ______ ____
ROOT
ATOM      1  C7  UNL     1       1.139   5.781 -18.369  0.00  0.00    +0.019 C 
ATOM      2  C8  UNL     1       1.851   4.646 -18.174  0.00  0.00    +0.115 C 
ATOM      3 CL1  UNL     1       1.118   3.066 -18.105  0.00  0.00    -0.070 Cl
ATOM      4 CL2  UNL     1       3.581   4.635 -17.969  0.00  0.00    -0.070 Cl
ENDROOT
BRANCH   1   8
ATOM      5  C1  UNL     1       3.140   9.557 -18.422  0.00  0.00    +0.117 A 
ATOM      6  C2  UNL     1       2.631   9.063 -17.226  0.00  0.00    +0.046 A 
ATOM      7  C3  UNL     1       1.976   7.831 -17.209  0.00  0.00    +0.012 A 
ATOM      8  C4  UNL     1       1.828   7.094 -18.392  0.00  0.00    -0.015 A 
ATOM      9  C5  UNL     1       2.353   7.604 -19.590  0.00  0.00    +0.012 A 
ATOM     10  C6  UNL     1       3.008   8.839 -19.605  0.00  0.00    +0.046 A 
BRANCH   5  11
ATOM     11  O1  UNL     1       3.771  10.765 -18.392  0.00  0.00    -0.507 OA
ATOM     12  H1  UNL     1       3.924  11.012 -17.466  0.00  0.00    +0.292 HD
ENDBRANCH   5  11
ENDBRANCH   1   8
BRANCH   1  13
ATOM     13  C9  UNL     1      -0.331   5.712 -18.562  0.00  0.00    -0.015 A 
ATOM     14  C10 UNL     1      -0.869   5.699 -19.855  0.00  0.00    +0.012 A 
ATOM     15  C11 UNL     1      -2.251   5.627 -20.040  0.00  0.00    +0.046 A 
ATOM     16  C12 UNL     1      -3.092   5.564 -18.935  0.00  0.00    +0.117 A 
ATOM     17  C13 UNL     1      -2.576   5.572 -17.643  0.00  0.00    +0.046 A 
ATOM     18  C14 UNL     1      -1.193   5.643 -17.457  0.00  0.00    +0.012 A 
BRANCH  16  19
ATOM     19  O2  UNL     1      -4.434   5.496 -19.163  0.00  0.00    -0.507 OA
ATOM     20  H8  UNL     1      -4.897   5.905 -18.414  0.00  0.00    +0.292 HD
ENDBRANCH  16  19
ENDBRANCH   1  13
TORSDOF 4
ENDMDL
MODEL 8
REMARK VINA RESULT:    -4.222      3.691      4.753
REMARK INTER + INTRA:          -6.012
REMARK INTER:                  -4.835
REMARK INTRA:                  -1.177
REMARK UNBOUND:                -1.050
REMARK  Name = /home/vital/Documents/PhD_2021/Malaria_codes/data/pdb_ligands_mmv/ligand_250.pdb
REMARK  4 active torsions:
REMARK  status: ('A' for Active; 'I' for Inactive)
REMARK    1  A    between atoms: O1_1  and  C1_2
REMARK    2  A    between atoms: C4_5  and  C7_8
REMARK    3  A    between atoms: C7_8  and  C9_12
REMARK    4  A    between atoms: C12_15  and  O2_16
REMARK                            x       y       z     vdW  Elec       q    Type
REMARK                         _______ _______ _______ _____ _____    ______ ____
ROOT
ATOM      1  C7  UNL     1       1.405   5.699 -18.500  0.00  0.00    +0.019 C 
ATOM      2  C8  UNL     1       2.144   4.587 -18.278  0.00  0.00    +0.115 C 
ATOM      3 CL1  UNL     1       1.453   2.989 -18.195  0.00  0.00    -0.070 Cl
ATOM      4 CL2  UNL     1       3.871   4.626 -18.050  0.00  0.00    -0.070 Cl
ENDROOT
BRANCH   1   8
ATOM      5  C1  UNL     1       3.273   9.542 -18.613  0.00  0.00    +0.117 A 
ATOM      6  C2  UNL     1       3.214   8.770 -19.767  0.00  0.00    +0.046 A 
ATOM      7  C3  UNL     1       2.606   7.514 -19.730  0.00  0.00    +0.012 A 
ATOM      8  C4  UNL     1       2.059   7.031 -18.534  0.00  0.00    -0.015 A 
ATOM      9  C5  UNL     1       2.120   7.825 -17.379  0.00  0.00    +0.012 A 
ATOM     10  C6  UNL     1       2.731   9.081 -17.418  0.00  0.00    +0.046 A 
BRANCH   5  11
ATOM     11  O1  UNL     1       3.877  10.761 -18.695  0.00  0.00    -0.507 OA
ATOM     12  H1  UNL     1       3.572  11.205 -19.502  0.00  0.00    +0.292 HD
ENDBRANCH   5  11
ENDBRANCH   1   8
BRANCH   1  13
ATOM     13  C9  UNL     1      -0.060   5.588 -18.711  0.00  0.00    -0.015 A 
ATOM     14  C10 UNL     1      -0.580   5.541 -20.012  0.00  0.00    +0.012 A 
ATOM     15  C11 UNL     1      -1.956   5.429 -20.214  0.00  0.00    +0.046 A 
ATOM     16  C12 UNL     1      -2.811   5.360 -19.119  0.00  0.00    +0.117 A 
ATOM     17  C13 UNL     1      -2.312   5.400 -17.821  0.00  0.00    +0.046 A 
ATOM     18  C14 UNL     1      -0.935   5.512 -17.617  0.00  0.00    +0.012 A 
BRANCH  16  19
ATOM     19  O2  UNL     1      -4.147   5.252 -19.364  0.00  0.00    -0.507 OA
ATOM     20  H8  UNL     1      -4.299   4.471 -19.920  0.00  0.00    +0.292 HD
ENDBRANCH  16  19
ENDBRANCH   1  13
TORSDOF 4
ENDMDL
MODEL 9
REMARK VINA RESULT:    -4.095      3.727      6.263
REMARK INTER + INTRA:          -5.862
REMARK INTER:                  -4.681
REMARK INTRA:                  -1.182
REMARK UNBOUND:                -1.050
REMARK  Name = /home/vital/Documents/PhD_2021/Malaria_codes/data/pdb_ligands_mmv/ligand_250.pdb
REMARK  4 active torsions:
REMARK  status: ('A' for Active; 'I' for Inactive)
REMARK    1  A    between atoms: O1_1  and  C1_2
REMARK    2  A    between atoms: C4_5  and  C7_8
REMARK    3  A    between atoms: C7_8  and  C9_12
REMARK    4  A    between atoms: C12_15  and  O2_16
REMARK                            x       y       z     vdW  Elec       q    Type
REMARK                         _______ _______ _______ _____ _____    ______ ____
ROOT
ATOM      1  C7  UNL     1       1.509   5.751 -18.519  0.00  0.00    +0.019 C 
ATOM      2  C8  UNL     1       2.223   4.620 -18.313  0.00  0.00    +0.115 C 
ATOM      3 CL1  UNL     1       3.949   4.619 -18.068  0.00  0.00    -0.070 Cl
ATOM      4 CL2  UNL     1       1.500   3.035 -18.268  0.00  0.00    -0.070 Cl
ENDROOT
BRANCH   1   8
ATOM      5  C1  UNL     1      -2.708   5.507 -19.178  0.00  0.00    +0.117 A 
ATOM      6  C2  UNL     1      -1.842   5.570 -20.264  0.00  0.00    +0.046 A 
ATOM      7  C3  UNL     1      -0.466   5.651 -20.049  0.00  0.00    +0.012 A 
ATOM      8  C4  UNL     1       0.044   5.673 -18.744  0.00  0.00    -0.015 A 
ATOM      9  C5  UNL     1      -0.842   5.602 -17.658  0.00  0.00    +0.012 A 
ATOM     10  C6  UNL     1      -2.220   5.522 -17.875  0.00  0.00    +0.046 A 
BRANCH   5  11
ATOM     11  O1  UNL     1      -4.044   5.429 -19.435  0.00  0.00    -0.507 OA
ATOM     12  H1  UNL     1      -4.452   6.284 -19.222  0.00  0.00    +0.292 HD
ENDBRANCH   5  11
ENDBRANCH   1   8
BRANCH   1  13
ATOM     13  C9  UNL     1       2.189   7.070 -18.520  0.00  0.00    -0.015 A 
ATOM     14  C10 UNL     1       2.764   7.562 -19.699  0.00  0.00    +0.012 A 
ATOM     15  C11 UNL     1       3.397   8.805 -19.706  0.00  0.00    +0.046 A 
ATOM     16  C12 UNL     1       3.454   9.557 -18.537  0.00  0.00    +0.117 A 
ATOM     17  C13 UNL     1       2.884   9.087 -17.358  0.00  0.00    +0.046 A 
ATOM     18  C14 UNL     1       2.250   7.843 -17.351  0.00  0.00    +0.012 A 
BRANCH  16  19
ATOM     19  O2  UNL     1       4.084  10.764 -18.590  0.00  0.00    -0.507 OA
ATOM     20  H8  UNL     1       3.420  11.466 -18.489  0.00  0.00    +0.292 HD
ENDBRANCH  16  19
ENDBRANCH   1  13
TORSDOF 4
ENDMDL
