MODEL 1
REMARK VINA RESULT:    -5.405      0.000      0.000
REMARK INTER + INTRA:         -10.352
REMARK INTER:                  -8.091
REMARK INTRA:                  -2.261
REMARK UNBOUND:                -2.261
REMARK  Name = /home/vital/Documents/PhD_2021/Malaria_codes/data/pdb_ligands_mmv/ligand_138.pdb
REMARK  12 active torsions:
REMARK  status: ('A' for Active; 'I' for Inactive)
REMARK    1  A    between atoms: C1_1  and  C2_2
REMARK    2  A    between atoms: C2_2  and  O1_3
REMARK    3  A    between atoms: O1_3  and  C3_4
REMARK    4  A    between atoms: C6_8  and  C7_9
REMARK    5  A    between atoms: C7_9  and  N1_10
REMARK    6  A    between atoms: N1_10  and  C8_11
REMARK    7  A    between atoms: C8_11  and  C9_12
REMARK    8  A    between atoms: C8_11  and  C10_13
REMARK    9  A    between atoms: C10_13  and  O2_14
REMARK   10  A    between atoms: C10_13  and  C11_15
REMARK   11  A    between atoms: C18_22  and  O3_23
REMARK   12  A    between atoms: O3_23  and  C19_24
REMARK                            x       y       z     vdW  Elec       q    Type
REMARK                         _______ _______ _______ _____ _____    ______ ____
ROOT
ATOM      1  C7  UNL     1       1.488   5.033 -13.663  0.00  0.00    +0.116 C 
ENDROOT
BRANCH   1   6
ATOM      2  C3  UNL     1       0.244   6.252 -17.612  0.00  0.00    +0.180 A 
ATOM      3  C4  UNL     1       1.314   6.897 -16.981  0.00  0.00    +0.086 A 
ATOM      4 CL1  UNL     1       2.186   8.170 -17.756  0.00  0.00    -0.080 Cl
ATOM      5  C5  UNL     1       1.712   6.508 -15.702  0.00  0.00    +0.028 A 
ATOM      6  C6  UNL     1       1.040   5.475 -15.035  0.00  0.00    -0.029 A 
ATOM      7  C17 UNL     1      -0.050   4.848 -15.666  0.00  0.00    +0.054 A 
ATOM      8  C18 UNL     1      -0.465   5.239 -16.946  0.00  0.00    +0.163 A 
BRANCH   8   9
ATOM      9  O3  UNL     1      -1.523   4.689 -17.621  0.00  0.00    -0.491 OA
ATOM     10  C19 UNL     1      -2.830   5.096 -17.236  0.00  0.00    +0.277 C 
ENDBRANCH   8   9
BRANCH   2  11
ATOM     11  O1  UNL     1      -0.157   6.676 -18.857  0.00  0.00    -0.487 OA
BRANCH  11  13
ATOM     12  C1  UNL     1       0.927   6.840 -20.976  0.00  0.00    +0.048 C 
ATOM     13  C2  UNL     1       0.470   5.894 -19.880  0.00  0.00    +0.226 C 
ENDBRANCH  11  13
ENDBRANCH   2  11
ENDBRANCH   1   6
BRANCH   1  14
ATOM     14  N1  UNL     1       1.591   3.582 -13.517  0.00  0.00    -0.307 NA
ATOM     15  H9  UNL     1       1.241   3.134 -14.362  0.00  0.00    +0.123 HD
BRANCH  14  16
ATOM     16  C8  UNL     1       2.946   3.072 -13.218  0.00  0.00    +0.084 C 
ATOM     17  C9  UNL     1       3.831   4.268 -12.829  0.00  0.00    +0.027 C 
BRANCH  16  18
ATOM     18  C10 UNL     1       3.619   2.198 -14.332  0.00  0.00    +0.161 C 
BRANCH  18  19
ATOM     19  C11 UNL     1       3.208   2.530 -15.757  0.00  0.00    -0.018 A 
ATOM     20  C12 UNL     1       3.825   3.563 -16.482  0.00  0.00    +0.006 A 
ATOM     21  C13 UNL     1       3.430   3.855 -17.791  0.00  0.00    +0.000 A 
ATOM     22  C14 UNL     1       2.413   3.120 -18.393  0.00  0.00    +0.000 A 
ATOM     23  C15 UNL     1       1.790   2.093 -17.689  0.00  0.00    +0.000 A 
ATOM     24  C16 UNL     1       2.185   1.801 -16.382  0.00  0.00    +0.006 A 
ENDBRANCH  18  19
BRANCH  18  25
ATOM     25  O2  UNL     1       5.046   2.287 -14.198  0.00  0.00    -0.386 OA
ATOM     26  H15 UNL     1       5.414   2.334 -15.096  0.00  0.00    +0.210 HD
ENDBRANCH  18  25
ENDBRANCH  16  18
ENDBRANCH  14  16
ENDBRANCH   1  14
TORSDOF 9
ENDMDL
MODEL 2
REMARK VINA RESULT:    -5.023     17.799     19.978
REMARK INTER + INTRA:          -9.781
REMARK INTER:                  -7.558
REMARK INTRA:                  -2.223
REMARK UNBOUND:                -2.261
REMARK  Name = /home/vital/Documents/PhD_2021/Malaria_codes/data/pdb_ligands_mmv/ligand_138.pdb
REMARK  12 active torsions:
REMARK  status: ('A' for Active; 'I' for Inactive)
REMARK    1  A    between atoms: C1_1  and  C2_2
REMARK    2  A    between atoms: C2_2  and  O1_3
REMARK    3  A    between atoms: O1_3  and  C3_4
REMARK    4  A    between atoms: C6_8  and  C7_9
REMARK    5  A    between atoms: C7_9  and  N1_10
REMARK    6  A    between atoms: N1_10  and  C8_11
REMARK    7  A    between atoms: C8_11  and  C9_12
REMARK    8  A    between atoms: C8_11  and  C10_13
REMARK    9  A    between atoms: C10_13  and  O2_14
REMARK   10  A    between atoms: C10_13  and  C11_15
REMARK   11  A    between atoms: C18_22  and  O3_23
REMARK   12  A    between atoms: O3_23  and  C19_24
REMARK                            x       y       z     vdW  Elec       q    Type
REMARK                         _______ _______ _______ _____ _____    ______ ____
ROOT
ATOM      1  C7  UNL     1       1.255  -8.510 -34.138  0.00  0.00    +0.116 C 
ENDROOT
BRANCH   1   6
ATOM      2  C3  UNL     1       2.566  -4.423 -33.685  0.00  0.00    +0.180 A 
ATOM      3  C4  UNL     1       3.279  -5.462 -33.075  0.00  0.00    +0.086 A 
ATOM      4 CL1  UNL     1       4.706  -5.160 -32.152  0.00  0.00    -0.080 Cl
ATOM      5  C5  UNL     1       2.851  -6.783 -33.215  0.00  0.00    +0.028 A 
ATOM      6  C6  UNL     1       1.702  -7.079 -33.961  0.00  0.00    -0.029 A 
ATOM      7  C17 UNL     1       0.978  -6.027 -34.550  0.00  0.00    +0.054 A 
ATOM      8  C18 UNL     1       1.392  -4.697 -34.406  0.00  0.00    +0.163 A 
BRANCH   8   9
ATOM      9  O3  UNL     1       0.736  -3.617 -34.936  0.00  0.00    -0.491 OA
ATOM     10  C19 UNL     1       0.515  -3.607 -36.340  0.00  0.00    +0.277 C 
ENDBRANCH   8   9
BRANCH   2  11
ATOM     11  O1  UNL     1       2.982  -3.125 -33.503  0.00  0.00    -0.487 OA
BRANCH  11  13
ATOM     12  C1  UNL     1       3.444  -1.585 -31.740  0.00  0.00    +0.048 C 
ATOM     13  C2  UNL     1       2.447  -2.591 -32.286  0.00  0.00    +0.226 C 
ENDBRANCH  11  13
ENDBRANCH   2  11
ENDBRANCH   1   6
BRANCH   1  14
ATOM     14  N1  UNL     1       1.205  -9.269 -32.889  0.00  0.00    -0.307 NA
ATOM     15  H9  UNL     1       1.583  -8.699 -32.135  0.00  0.00    +0.123 HD
BRANCH  14  16
ATOM     16  C8  UNL     1      -0.133  -9.766 -32.505  0.00  0.00    +0.084 C 
ATOM     17  C9  UNL     1      -1.060  -9.634 -33.725  0.00  0.00    +0.027 C 
BRANCH  16  18
ATOM     18  C10 UNL     1      -0.771  -9.121 -31.227  0.00  0.00    +0.161 C 
BRANCH  18  19
ATOM     19  C11 UNL     1      -0.372  -7.679 -30.957  0.00  0.00    -0.018 A 
ATOM     20  C12 UNL     1       0.691  -7.355 -30.098  0.00  0.00    +0.006 A 
ATOM     21  C13 UNL     1       1.040  -6.023 -29.860  0.00  0.00    +0.000 A 
ATOM     22  C14 UNL     1       0.330  -4.996 -30.476  0.00  0.00    +0.000 A 
ATOM     23  C15 UNL     1      -0.727  -5.298 -31.329  0.00  0.00    +0.000 A 
ATOM     24  C16 UNL     1      -1.075  -6.629 -31.568  0.00  0.00    +0.006 A 
ENDBRANCH  18  19
BRANCH  18  25
ATOM     25  O2  UNL     1      -2.200  -9.228 -31.312  0.00  0.00    -0.386 OA
ATOM     26  H15 UNL     1      -2.403 -10.146 -31.559  0.00  0.00    +0.210 HD
ENDBRANCH  18  25
ENDBRANCH  16  18
ENDBRANCH  14  16
ENDBRANCH   1  14
TORSDOF 9
ENDMDL
MODEL 3
REMARK VINA RESULT:    -4.968     17.451     19.831
REMARK INTER + INTRA:          -9.698
REMARK INTER:                  -7.619
REMARK INTRA:                  -2.079
REMARK UNBOUND:                -2.261
REMARK  Name = /home/vital/Documents/PhD_2021/Malaria_codes/data/pdb_ligands_mmv/ligand_138.pdb
REMARK  12 active torsions:
REMARK  status: ('A' for Active; 'I' for Inactive)
REMARK    1  A    between atoms: C1_1  and  C2_2
REMARK    2  A    between atoms: C2_2  and  O1_3
REMARK    3  A    between atoms: O1_3  and  C3_4
REMARK    4  A    between atoms: C6_8  and  C7_9
REMARK    5  A    between atoms: C7_9  and  N1_10
REMARK    6  A    between atoms: N1_10  and  C8_11
REMARK    7  A    between atoms: C8_11  and  C9_12
REMARK    8  A    between atoms: C8_11  and  C10_13
REMARK    9  A    between atoms: C10_13  and  O2_14
REMARK   10  A    between atoms: C10_13  and  C11_15
REMARK   11  A    between atoms: C18_22  and  O3_23
REMARK   12  A    between atoms: O3_23  and  C19_24
REMARK                            x       y       z     vdW  Elec       q    Type
REMARK                         _______ _______ _______ _____ _____    ______ ____
ROOT
ATOM      1  C7  UNL     1       1.378  -8.293 -33.343  0.00  0.00    +0.116 C 
ENDROOT
BRANCH   1   6
ATOM      2  C3  UNL     1       3.081  -4.920 -31.255  0.00  0.00    +0.180 A 
ATOM      3  C4  UNL     1       3.596  -5.313 -32.496  0.00  0.00    +0.086 A 
ATOM      4 CL1  UNL     1       4.897  -4.460 -33.246  0.00  0.00    -0.080 Cl
ATOM      5  C5  UNL     1       3.050  -6.407 -33.168  0.00  0.00    +0.028 A 
ATOM      6  C6  UNL     1       1.988  -7.126 -32.604  0.00  0.00    -0.029 A 
ATOM      7  C17 UNL     1       1.492  -6.740 -31.345  0.00  0.00    +0.054 A 
ATOM      8  C18 UNL     1       2.040  -5.650 -30.658  0.00  0.00    +0.163 A 
BRANCH   8   9
ATOM      9  O3  UNL     1       1.624  -5.220 -29.425  0.00  0.00    -0.491 OA
ATOM     10  C19 UNL     1       0.399  -4.503 -29.359  0.00  0.00    +0.277 C 
ENDBRANCH   8   9
BRANCH   2  11
ATOM     11  O1  UNL     1       3.657  -3.863 -30.592  0.00  0.00    -0.487 OA
BRANCH  11  13
ATOM     12  C1  UNL     1       5.510  -3.074 -29.312  0.00  0.00    +0.048 C 
ATOM     13  C2  UNL     1       4.781  -4.304 -29.822  0.00  0.00    +0.226 C 
ENDBRANCH  11  13
ENDBRANCH   2  11
ENDBRANCH   1   6
BRANCH   1  14
ATOM     14  N1  UNL     1       0.423  -7.898 -34.377  0.00  0.00    -0.307 NA
ATOM     15  H9  UNL     1       0.340  -8.649 -35.061  0.00  0.00    +0.123 HD
BRANCH  14  16
ATOM     16  C8  UNL     1      -0.922  -7.531 -33.888  0.00  0.00    +0.084 C 
ATOM     17  C9  UNL     1      -1.894  -8.660 -34.269  0.00  0.00    +0.027 C 
BRANCH  16  18
ATOM     18  C10 UNL     1      -1.464  -6.131 -34.338  0.00  0.00    +0.161 C 
BRANCH  18  19
ATOM     19  C11 UNL     1      -0.461  -4.991 -34.267  0.00  0.00    -0.018 A 
ATOM     20  C12 UNL     1       0.431  -4.724 -35.319  0.00  0.00    +0.006 A 
ATOM     21  C13 UNL     1       1.348  -3.674 -35.234  0.00  0.00    +0.000 A 
ATOM     22  C14 UNL     1       1.389  -2.875 -34.095  0.00  0.00    +0.000 A 
ATOM     23  C15 UNL     1       0.514  -3.125 -33.041  0.00  0.00    +0.000 A 
ATOM     24  C16 UNL     1      -0.403  -4.174 -33.127  0.00  0.00    +0.006 A 
ENDBRANCH  18  19
BRANCH  18  25
ATOM     25  O2  UNL     1      -1.992  -6.238 -35.669  0.00  0.00    -0.386 OA
ATOM     26  H15 UNL     1      -2.588  -7.006 -35.677  0.00  0.00    +0.210 HD
ENDBRANCH  18  25
ENDBRANCH  16  18
ENDBRANCH  14  16
ENDBRANCH   1  14
TORSDOF 9
ENDMDL
MODEL 4
REMARK VINA RESULT:    -4.911      2.180      3.494
REMARK INTER + INTRA:          -9.612
REMARK INTER:                  -7.430
REMARK INTRA:                  -2.182
REMARK UNBOUND:                -2.261
REMARK  Name = /home/vital/Documents/PhD_2021/Malaria_codes/data/pdb_ligands_mmv/ligand_138.pdb
REMARK  12 active torsions:
REMARK  status: ('A' for Active; 'I' for Inactive)
REMARK    1  A    between atoms: C1_1  and  C2_2
REMARK    2  A    between atoms: C2_2  and  O1_3
REMARK    3  A    between atoms: O1_3  and  C3_4
REMARK    4  A    between atoms: C6_8  and  C7_9
REMARK    5  A    between atoms: C7_9  and  N1_10
REMARK    6  A    between atoms: N1_10  and  C8_11
REMARK    7  A    between atoms: C8_11  and  C9_12
REMARK    8  A    between atoms: C8_11  and  C10_13
REMARK    9  A    between atoms: C10_13  and  O2_14
REMARK   10  A    between atoms: C10_13  and  C11_15
REMARK   11  A    between atoms: C18_22  and  O3_23
REMARK   12  A    between atoms: O3_23  and  C19_24
REMARK                            x       y       z     vdW  Elec       q    Type
REMARK                         _______ _______ _______ _____ _____    ______ ____
ROOT
ATOM      1  C7  UNL     1       5.250   5.570 -15.184  0.00  0.00    +0.116 C 
ENDROOT
BRANCH   1   6
ATOM      2  C3  UNL     1       2.424   6.888 -18.168  0.00  0.00    +0.180 A 
ATOM      3  C4  UNL     1       3.114   5.681 -18.337  0.00  0.00    +0.086 A 
ATOM      4 CL1  UNL     1       2.847   4.671 -19.712  0.00  0.00    -0.080 Cl
ATOM      5  C5  UNL     1       4.032   5.258 -17.376  0.00  0.00    +0.028 A 
ATOM      6  C6  UNL     1       4.277   6.040 -16.239  0.00  0.00    -0.029 A 
ATOM      7  C17 UNL     1       3.598   7.263 -16.089  0.00  0.00    +0.054 A 
ATOM      8  C18 UNL     1       2.683   7.702 -17.054  0.00  0.00    +0.163 A 
BRANCH   8   9
ATOM      9  O3  UNL     1       1.993   8.884 -16.989  0.00  0.00    -0.491 OA
ATOM     10  C19 UNL     1       2.740  10.087 -17.103  0.00  0.00    +0.277 C 
ENDBRANCH   8   9
BRANCH   2  11
ATOM     11  O1  UNL     1       1.551   7.305 -19.146  0.00  0.00    -0.487 OA
BRANCH  11  13
ATOM     12  C1  UNL     1      -0.409   6.486 -20.231  0.00  0.00    +0.048 C 
ATOM     13  C2  UNL     1       0.235   6.801 -18.893  0.00  0.00    +0.226 C 
ENDBRANCH  11  13
ENDBRANCH   2  11
ENDBRANCH   1   6
BRANCH   1  14
ATOM     14  N1  UNL     1       4.756   5.729 -13.817  0.00  0.00    -0.307 NA
ATOM     15  H9  UNL     1       3.891   6.268 -13.833  0.00  0.00    +0.123 HD
BRANCH  14  16
ATOM     16  C8  UNL     1       4.535   4.470 -13.075  0.00  0.00    +0.084 C 
ATOM     17  C9  UNL     1       5.333   3.357 -13.774  0.00  0.00    +0.027 C 
BRANCH  16  18
ATOM     18  C10 UNL     1       3.042   4.051 -12.849  0.00  0.00    +0.161 C 
BRANCH  18  19
ATOM     19  C11 UNL     1       2.165   4.075 -14.090  0.00  0.00    -0.018 A 
ATOM     20  C12 UNL     1       2.271   3.095 -15.090  0.00  0.00    +0.006 A 
ATOM     21  C13 UNL     1       1.458   3.137 -16.225  0.00  0.00    +0.000 A 
ATOM     22  C14 UNL     1       0.526   4.159 -16.378  0.00  0.00    +0.000 A 
ATOM     23  C15 UNL     1       0.407   5.141 -15.398  0.00  0.00    +0.000 A 
ATOM     24  C16 UNL     1       1.219   5.098 -14.263  0.00  0.00    +0.006 A 
ENDBRANCH  18  19
BRANCH  18  25
ATOM     25  O2  UNL     1       3.007   2.748 -12.248  0.00  0.00    -0.386 OA
ATOM     26  H15 UNL     1       2.156   2.346 -12.488  0.00  0.00    +0.210 HD
ENDBRANCH  18  25
ENDBRANCH  16  18
ENDBRANCH  14  16
ENDBRANCH   1  14
TORSDOF 9
ENDMDL
MODEL 5
REMARK VINA RESULT:    -4.891     17.532     19.768
REMARK INTER + INTRA:          -9.582
REMARK INTER:                  -7.365
REMARK INTRA:                  -2.217
REMARK UNBOUND:                -2.261
REMARK  Name = /home/vital/Documents/PhD_2021/Malaria_codes/data/pdb_ligands_mmv/ligand_138.pdb
REMARK  12 active torsions:
REMARK  status: ('A' for Active; 'I' for Inactive)
REMARK    1  A    between atoms: C1_1  and  C2_2
REMARK    2  A    between atoms: C2_2  and  O1_3
REMARK    3  A    between atoms: O1_3  and  C3_4
REMARK    4  A    between atoms: C6_8  and  C7_9
REMARK    5  A    between atoms: C7_9  and  N1_10
REMARK    6  A    between atoms: N1_10  and  C8_11
REMARK    7  A    between atoms: C8_11  and  C9_12
REMARK    8  A    between atoms: C8_11  and  C10_13
REMARK    9  A    between atoms: C10_13  and  O2_14
REMARK   10  A    between atoms: C10_13  and  C11_15
REMARK   11  A    between atoms: C18_22  and  O3_23
REMARK   12  A    between atoms: O3_23  and  C19_24
REMARK                            x       y       z     vdW  Elec       q    Type
REMARK                         _______ _______ _______ _____ _____    ______ ____
ROOT
ATOM      1  C7  UNL     1       1.813  -8.456 -33.798  0.00  0.00    +0.116 C 
ENDROOT
BRANCH   1   6
ATOM      2  C3  UNL     1       2.722  -4.248 -33.482  0.00  0.00    +0.180 A 
ATOM      3  C4  UNL     1       1.747  -4.691 -34.383  0.00  0.00    +0.086 A 
ATOM      4 CL1  UNL     1       0.860  -3.587 -35.371  0.00  0.00    -0.080 Cl
ATOM      5  C5  UNL     1       1.457  -6.052 -34.490  0.00  0.00    +0.028 A 
ATOM      6  C6  UNL     1       2.145  -6.986 -33.704  0.00  0.00    -0.029 A 
ATOM      7  C17 UNL     1       3.141  -6.535 -32.819  0.00  0.00    +0.054 A 
ATOM      8  C18 UNL     1       3.447  -5.172 -32.711  0.00  0.00    +0.163 A 
BRANCH   8   9
ATOM      9  O3  UNL     1       4.410  -4.655 -31.885  0.00  0.00    -0.491 OA
ATOM     10  C19 UNL     1       5.761  -4.740 -32.319  0.00  0.00    +0.277 C 
ENDBRANCH   8   9
BRANCH   2  11
ATOM     11  O1  UNL     1       3.019  -2.907 -33.418  0.00  0.00    -0.487 OA
BRANCH  11  13
ATOM     12  C1  UNL     1       1.614  -1.019 -33.026  0.00  0.00    +0.048 C 
ATOM     13  C2  UNL     1       2.229  -2.264 -32.412  0.00  0.00    +0.226 C 
ENDBRANCH  11  13
ENDBRANCH   2  11
ENDBRANCH   1   6
BRANCH   1  14
ATOM     14  N1  UNL     1       1.435  -9.056 -32.520  0.00  0.00    -0.307 NA
ATOM     15  H9  UNL     1       1.665  -8.411 -31.766  0.00  0.00    +0.123 HD
BRANCH  14  16
ATOM     16  C8  UNL     1       0.018  -9.460 -32.406  0.00  0.00    +0.084 C 
ATOM     17  C9  UNL     1      -0.627  -9.335 -33.796  0.00  0.00    +0.027 C 
BRANCH  16  18
ATOM     18  C10 UNL     1      -0.827  -8.721 -31.312  0.00  0.00    +0.161 C 
BRANCH  18  19
ATOM     19  C11 UNL     1      -0.340  -7.330 -30.942  0.00  0.00    -0.018 A 
ATOM     20  C12 UNL     1      -0.776  -6.186 -31.631  0.00  0.00    +0.006 A 
ATOM     21  C13 UNL     1      -0.314  -4.916 -31.278  0.00  0.00    +0.000 A 
ATOM     22  C14 UNL     1       0.592  -4.770 -30.232  0.00  0.00    +0.000 A 
ATOM     23  C15 UNL     1       1.037  -5.892 -29.538  0.00  0.00    +0.000 A 
ATOM     24  C16 UNL     1       0.574  -7.161 -29.890  0.00  0.00    +0.006 A 
ENDBRANCH  18  19
BRANCH  18  25
ATOM     25  O2  UNL     1      -2.197  -8.665 -31.738  0.00  0.00    -0.386 OA
ATOM     26  H15 UNL     1      -2.536  -7.788 -31.493  0.00  0.00    +0.210 HD
ENDBRANCH  18  25
ENDBRANCH  16  18
ENDBRANCH  14  16
ENDBRANCH   1  14
TORSDOF 9
ENDMDL
MODEL 6
REMARK VINA RESULT:    -4.825     17.316     19.530
REMARK INTER + INTRA:          -9.484
REMARK INTER:                  -7.161
REMARK INTRA:                  -2.323
REMARK UNBOUND:                -2.261
REMARK  Name = /home/vital/Documents/PhD_2021/Malaria_codes/data/pdb_ligands_mmv/ligand_138.pdb
REMARK  12 active torsions:
REMARK  status: ('A' for Active; 'I' for Inactive)
REMARK    1  A    between atoms: C1_1  and  C2_2
REMARK    2  A    between atoms: C2_2  and  O1_3
REMARK    3  A    between atoms: O1_3  and  C3_4
REMARK    4  A    between atoms: C6_8  and  C7_9
REMARK    5  A    between atoms: C7_9  and  N1_10
REMARK    6  A    between atoms: N1_10  and  C8_11
REMARK    7  A    between atoms: C8_11  and  C9_12
REMARK    8  A    between atoms: C8_11  and  C10_13
REMARK    9  A    between atoms: C10_13  and  O2_14
REMARK   10  A    between atoms: C10_13  and  C11_15
REMARK   11  A    between atoms: C18_22  and  O3_23
REMARK   12  A    between atoms: O3_23  and  C19_24
REMARK                            x       y       z     vdW  Elec       q    Type
REMARK                         _______ _______ _______ _____ _____    ______ ____
ROOT
ATOM      1  C7  UNL     1       1.114  -6.825 -30.737  0.00  0.00    +0.116 C 
ENDROOT
BRANCH   1   6
ATOM      2  C3  UNL     1       2.822  -3.181 -32.299  0.00  0.00    +0.180 A 
ATOM      3  C4  UNL     1       1.526  -3.180 -31.769  0.00  0.00    +0.086 A 
ATOM      4 CL1  UNL     1       0.581  -1.737 -31.693  0.00  0.00    -0.080 Cl
ATOM      5  C5  UNL     1       0.971  -4.359 -31.270  0.00  0.00    +0.028 A 
ATOM      6  C6  UNL     1       1.702  -5.554 -31.303  0.00  0.00    -0.029 A 
ATOM      7  C17 UNL     1       2.993  -5.552 -31.860  0.00  0.00    +0.054 A 
ATOM      8  C18 UNL     1       3.556  -4.376 -32.373  0.00  0.00    +0.163 A 
BRANCH   8   9
ATOM      9  O3  UNL     1       4.799  -4.294 -32.943  0.00  0.00    -0.491 OA
ATOM     10  C19 UNL     1       5.924  -4.462 -32.091  0.00  0.00    +0.277 C 
ENDBRANCH   8   9
BRANCH   2  11
ATOM     11  O1  UNL     1       3.336  -2.017 -32.820  0.00  0.00    -0.487 OA
BRANCH  11  13
ATOM     12  C1  UNL     1       5.264  -0.710 -32.308  0.00  0.00    +0.048 C 
ATOM     13  C2  UNL     1       3.935  -1.226 -31.788  0.00  0.00    +0.226 C 
ENDBRANCH  11  13
ENDBRANCH   2  11
ENDBRANCH   1   6
BRANCH   1  14
ATOM     14  N1  UNL     1       1.260  -7.983 -31.618  0.00  0.00    -0.307 NA
ATOM     15  H9  UNL     1       1.372  -8.822 -31.051  0.00  0.00    +0.123 HD
BRANCH  14  16
ATOM     16  C8  UNL     1       0.160  -8.185 -32.583  0.00  0.00    +0.084 C 
ATOM     17  C9  UNL     1      -0.283  -9.656 -32.500  0.00  0.00    +0.027 C 
BRANCH  16  18
ATOM     18  C10 UNL     1       0.446  -7.754 -34.061  0.00  0.00    +0.161 C 
BRANCH  18  19
ATOM     19  C11 UNL     1       0.188  -6.290 -34.375  0.00  0.00    -0.018 A 
ATOM     20  C12 UNL     1      -1.027  -5.667 -34.046  0.00  0.00    +0.006 A 
ATOM     21  C13 UNL     1      -1.247  -4.320 -34.345  0.00  0.00    +0.000 A 
ATOM     22  C14 UNL     1      -0.256  -3.576 -34.979  0.00  0.00    +0.000 A 
ATOM     23  C15 UNL     1       0.955  -4.176 -35.313  0.00  0.00    +0.000 A 
ATOM     24  C16 UNL     1       1.175  -5.522 -35.013  0.00  0.00    +0.006 A 
ENDBRANCH  18  19
BRANCH  18  25
ATOM     25  O2  UNL     1       1.801  -8.097 -34.395  0.00  0.00    -0.386 OA
ATOM     26  H15 UNL     1       1.899  -9.052 -34.243  0.00  0.00    +0.210 HD
ENDBRANCH  18  25
ENDBRANCH  16  18
ENDBRANCH  14  16
ENDBRANCH   1  14
TORSDOF 9
ENDMDL
MODEL 7
REMARK VINA RESULT:    -4.823      2.054      3.374
REMARK INTER + INTRA:          -9.481
REMARK INTER:                  -7.157
REMARK INTRA:                  -2.324
REMARK UNBOUND:                -2.261
REMARK  Name = /home/vital/Documents/PhD_2021/Malaria_codes/data/pdb_ligands_mmv/ligand_138.pdb
REMARK  12 active torsions:
REMARK  status: ('A' for Active; 'I' for Inactive)
REMARK    1  A    between atoms: C1_1  and  C2_2
REMARK    2  A    between atoms: C2_2  and  O1_3
REMARK    3  A    between atoms: O1_3  and  C3_4
REMARK    4  A    between atoms: C6_8  and  C7_9
REMARK    5  A    between atoms: C7_9  and  N1_10
REMARK    6  A    between atoms: N1_10  and  C8_11
REMARK    7  A    between atoms: C8_11  and  C9_12
REMARK    8  A    between atoms: C8_11  and  C10_13
REMARK    9  A    between atoms: C10_13  and  O2_14
REMARK   10  A    between atoms: C10_13  and  C11_15
REMARK   11  A    between atoms: C18_22  and  O3_23
REMARK   12  A    between atoms: O3_23  and  C19_24
REMARK                            x       y       z     vdW  Elec       q    Type
REMARK                         _______ _______ _______ _____ _____    ______ ____
ROOT
ATOM      1  C7  UNL     1       1.743   2.828 -16.756  0.00  0.00    +0.116 C 
ENDROOT
BRANCH   1   6
ATOM      2  C3  UNL     1      -0.223   5.696 -19.313  0.00  0.00    +0.180 A 
ATOM      3  C4  UNL     1       1.081   5.275 -19.600  0.00  0.00    +0.086 A 
ATOM      4 CL1  UNL     1       1.935   5.856 -20.984  0.00  0.00    -0.080 Cl
ATOM      5  C5  UNL     1       1.720   4.353 -18.770  0.00  0.00    +0.028 A 
ATOM      6  C6  UNL     1       1.065   3.848 -17.639  0.00  0.00    -0.029 A 
ATOM      7  C17 UNL     1      -0.236   4.295 -17.344  0.00  0.00    +0.054 A 
ATOM      8  C18 UNL     1      -0.881   5.228 -18.165  0.00  0.00    +0.163 A 
BRANCH   8   9
ATOM      9  O3  UNL     1      -2.139   5.722 -17.939  0.00  0.00    -0.491 OA
ATOM     10  C19 UNL     1      -3.238   4.850 -18.166  0.00  0.00    +0.277 C 
ENDBRANCH   8   9
BRANCH   2  11
ATOM     11  O1  UNL     1      -0.819   6.634 -20.122  0.00  0.00    -0.487 OA
BRANCH  11  13
ATOM     12  C1  UNL     1      -2.746   6.671 -21.529  0.00  0.00    +0.048 C 
ATOM     13  C2  UNL     1      -1.405   6.008 -21.270  0.00  0.00    +0.226 C 
ENDBRANCH  11  13
ENDBRANCH   2  11
ENDBRANCH   1   6
BRANCH   1  14
ATOM     14  N1  UNL     1       1.704   3.164 -15.333  0.00  0.00    -0.307 NA
ATOM     15  H9  UNL     1       1.707   2.305 -14.785  0.00  0.00    +0.123 HD
BRANCH  14  16
ATOM     16  C8  UNL     1       2.791   4.048 -14.863  0.00  0.00    +0.084 C 
ATOM     17  C9  UNL     1       3.384   3.437 -13.583  0.00  0.00    +0.027 C 
BRANCH  16  18
ATOM     18  C10 UNL     1       2.419   5.557 -14.660  0.00  0.00    +0.161 C 
BRANCH  18  19
ATOM     19  C11 UNL     1       2.623   6.447 -15.874  0.00  0.00    -0.018 A 
ATOM     20  C12 UNL     1       3.812   6.416 -16.622  0.00  0.00    +0.006 A 
ATOM     21  C13 UNL     1       3.982   7.245 -17.734  0.00  0.00    +0.000 A 
ATOM     22  C14 UNL     1       2.968   8.119 -18.114  0.00  0.00    +0.000 A 
ATOM     23  C15 UNL     1       1.784   8.166 -17.384  0.00  0.00    +0.000 A 
ATOM     24  C16 UNL     1       1.613   7.336 -16.274  0.00  0.00    +0.006 A 
ENDBRANCH  18  19
BRANCH  18  25
ATOM     25  O2  UNL     1       1.059   5.646 -14.208  0.00  0.00    -0.386 OA
ATOM     26  H15 UNL     1       0.690   6.467 -14.575  0.00  0.00    +0.210 HD
ENDBRANCH  18  25
ENDBRANCH  16  18
ENDBRANCH  14  16
ENDBRANCH   1  14
TORSDOF 9
ENDMDL
MODEL 8
REMARK VINA RESULT:    -4.801      2.019      3.249
REMARK INTER + INTRA:          -9.448
REMARK INTER:                  -7.140
REMARK INTRA:                  -2.307
REMARK UNBOUND:                -2.261
REMARK  Name = /home/vital/Documents/PhD_2021/Malaria_codes/data/pdb_ligands_mmv/ligand_138.pdb
REMARK  12 active torsions:
REMARK  status: ('A' for Active; 'I' for Inactive)
REMARK    1  A    between atoms: C1_1  and  C2_2
REMARK    2  A    between atoms: C2_2  and  O1_3
REMARK    3  A    between atoms: O1_3  and  C3_4
REMARK    4  A    between atoms: C6_8  and  C7_9
REMARK    5  A    between atoms: C7_9  and  N1_10
REMARK    6  A    between atoms: N1_10  and  C8_11
REMARK    7  A    between atoms: C8_11  and  C9_12
REMARK    8  A    between atoms: C8_11  and  C10_13
REMARK    9  A    between atoms: C10_13  and  O2_14
REMARK   10  A    between atoms: C10_13  and  C11_15
REMARK   11  A    between atoms: C18_22  and  O3_23
REMARK   12  A    between atoms: O3_23  and  C19_24
REMARK                            x       y       z     vdW  Elec       q    Type
REMARK                         _______ _______ _______ _____ _____    ______ ____
ROOT
ATOM      1  C7  UNL     1       5.234   5.606 -15.011  0.00  0.00    +0.116 C 
ENDROOT
BRANCH   1   6
ATOM      2  C3  UNL     1       2.717   6.817 -18.302  0.00  0.00    +0.180 A 
ATOM      3  C4  UNL     1       2.725   7.556 -17.113  0.00  0.00    +0.086 A 
ATOM      4 CL1  UNL     1       1.762   8.978 -16.925  0.00  0.00    -0.080 Cl
ATOM      5  C5  UNL     1       3.533   7.161 -16.047  0.00  0.00    +0.028 A 
ATOM      6  C6  UNL     1       4.337   6.018 -16.154  0.00  0.00    -0.029 A 
ATOM      7  C17 UNL     1       4.305   5.267 -17.343  0.00  0.00    +0.054 A 
ATOM      8  C18 UNL     1       3.489   5.649 -18.415  0.00  0.00    +0.163 A 
BRANCH   8   9
ATOM      9  O3  UNL     1       3.391   4.966 -19.598  0.00  0.00    -0.491 OA
ATOM     10  C19 UNL     1       2.751   3.697 -19.572  0.00  0.00    +0.277 C 
ENDBRANCH   8   9
BRANCH   2  11
ATOM     11  O1  UNL     1       1.885   7.202 -19.327  0.00  0.00    -0.487 OA
BRANCH  11  13
ATOM     12  C1  UNL     1      -0.010   6.207 -20.381  0.00  0.00    +0.048 C 
ATOM     13  C2  UNL     1       0.546   6.759 -19.080  0.00  0.00    +0.226 C 
ENDBRANCH  11  13
ENDBRANCH   2  11
ENDBRANCH   1   6
BRANCH   1  14
ATOM     14  N1  UNL     1       4.627   5.784 -13.693  0.00  0.00    -0.307 NA
ATOM     15  H9  UNL     1       3.727   6.249 -13.799  0.00  0.00    +0.123 HD
BRANCH  14  16
ATOM     16  C8  UNL     1       4.449   4.545 -12.907  0.00  0.00    +0.084 C 
ATOM     17  C9  UNL     1       5.381   3.470 -13.493  0.00  0.00    +0.027 C 
BRANCH  16  18
ATOM     18  C10 UNL     1       2.980   4.018 -12.768  0.00  0.00    +0.161 C 
BRANCH  18  19
ATOM     19  C11 UNL     1       2.146   4.070 -14.038  0.00  0.00    -0.018 A 
ATOM     20  C12 UNL     1       2.288   3.112 -15.055  0.00  0.00    +0.006 A 
ATOM     21  C13 UNL     1       1.514   3.180 -16.217  0.00  0.00    +0.000 A 
ATOM     22  C14 UNL     1       0.588   4.207 -16.379  0.00  0.00    +0.000 A 
ATOM     23  C15 UNL     1       0.435   5.166 -15.382  0.00  0.00    +0.000 A 
ATOM     24  C16 UNL     1       1.207   5.097 -14.220  0.00  0.00    +0.006 A 
ENDBRANCH  18  19
BRANCH  18  25
ATOM     25  O2  UNL     1       3.011   2.677 -12.255  0.00  0.00    -0.386 OA
ATOM     26  H15 UNL     1       3.938   2.384 -12.277  0.00  0.00    +0.210 HD
ENDBRANCH  18  25
ENDBRANCH  16  18
ENDBRANCH  14  16
ENDBRANCH   1  14
TORSDOF 9
ENDMDL
MODEL 9
REMARK VINA RESULT:    -4.654      1.574      2.416
REMARK INTER + INTRA:          -9.229
REMARK INTER:                  -6.889
REMARK INTRA:                  -2.339
REMARK UNBOUND:                -2.261
REMARK  Name = /home/vital/Documents/PhD_2021/Malaria_codes/data/pdb_ligands_mmv/ligand_138.pdb
REMARK  12 active torsions:
REMARK  status: ('A' for Active; 'I' for Inactive)
REMARK    1  A    between atoms: C1_1  and  C2_2
REMARK    2  A    between atoms: C2_2  and  O1_3
REMARK    3  A    between atoms: O1_3  and  C3_4
REMARK    4  A    between atoms: C6_8  and  C7_9
REMARK    5  A    between atoms: C7_9  and  N1_10
REMARK    6  A    between atoms: N1_10  and  C8_11
REMARK    7  A    between atoms: C8_11  and  C9_12
REMARK    8  A    between atoms: C8_11  and  C10_13
REMARK    9  A    between atoms: C10_13  and  O2_14
REMARK   10  A    between atoms: C10_13  and  C11_15
REMARK   11  A    between atoms: C18_22  and  O3_23
REMARK   12  A    between atoms: O3_23  and  C19_24
REMARK                            x       y       z     vdW  Elec       q    Type
REMARK                         _______ _______ _______ _____ _____    ______ ____
ROOT
ATOM      1  C7  UNL     1       1.567   4.727 -14.180  0.00  0.00    +0.116 C 
ENDROOT
BRANCH   1   6
ATOM      2  C3  UNL     1      -0.162   6.436 -17.747  0.00  0.00    +0.180 A 
ATOM      3  C4  UNL     1      -0.728   5.294 -17.169  0.00  0.00    +0.086 A 
ATOM      4 CL1  UNL     1      -2.137   4.548 -17.832  0.00  0.00    -0.080 Cl
ATOM      5  C5  UNL     1      -0.166   4.737 -16.020  0.00  0.00    +0.028 A 
ATOM      6  C6  UNL     1       0.974   5.311 -15.440  0.00  0.00    -0.029 A 
ATOM      7  C17 UNL     1       1.551   6.444 -16.042  0.00  0.00    +0.054 A 
ATOM      8  C18 UNL     1       1.000   7.004 -17.201  0.00  0.00    +0.163 A 
BRANCH   8   9
ATOM      9  O3  UNL     1       1.510   8.096 -17.854  0.00  0.00    -0.491 OA
ATOM     10  C19 UNL     1       2.475   8.881 -17.167  0.00  0.00    +0.277 C 
ENDBRANCH   8   9
BRANCH   2  11
ATOM     11  O1  UNL     1      -0.709   6.947 -18.901  0.00  0.00    -0.487 OA
BRANCH  11  13
ATOM     12  C1  UNL     1      -1.243   6.086 -21.061  0.00  0.00    +0.048 C 
ATOM     13  C2  UNL     1      -0.133   6.318 -20.052  0.00  0.00    +0.226 C 
ENDBRANCH  11  13
ENDBRANCH   2  11
ENDBRANCH   1   6
BRANCH   1  14
ATOM     14  N1  UNL     1       1.668   3.269 -14.200  0.00  0.00    -0.307 NA
ATOM     15  H9  UNL     1       1.158   2.908 -15.004  0.00  0.00    +0.123 HD
BRANCH  14  16
ATOM     16  C8  UNL     1       3.044   2.732 -14.209  0.00  0.00    +0.084 C 
ATOM     17  C9  UNL     1       4.009   3.885 -13.887  0.00  0.00    +0.027 C 
BRANCH  16  18
ATOM     18  C10 UNL     1       3.479   1.963 -15.504  0.00  0.00    +0.161 C 
BRANCH  18  19
ATOM     19  C11 UNL     1       2.845   2.453 -16.796  0.00  0.00    -0.018 A 
ATOM     20  C12 UNL     1       3.379   3.533 -17.518  0.00  0.00    +0.006 A 
ATOM     21  C13 UNL     1       2.779   3.971 -18.702  0.00  0.00    +0.000 A 
ATOM     22  C14 UNL     1       1.636   3.336 -19.181  0.00  0.00    +0.000 A 
ATOM     23  C15 UNL     1       1.092   2.265 -18.477  0.00  0.00    +0.000 A 
ATOM     24  C16 UNL     1       1.692   1.827 -17.295  0.00  0.00    +0.006 A 
ENDBRANCH  18  19
BRANCH  18  25
ATOM     25  O2  UNL     1       4.910   2.003 -15.613  0.00  0.00    -0.386 OA
ATOM     26  H15 UNL     1       5.157   1.408 -16.341  0.00  0.00    +0.210 HD
ENDBRANCH  18  25
ENDBRANCH  16  18
ENDBRANCH  14  16
ENDBRANCH   1  14
TORSDOF 9
ENDMDL
