MODEL 1
REMARK VINA RESULT:    -6.259      0.000      0.000
REMARK INTER + INTRA:          -7.942
REMARK INTER:                  -7.356
REMARK INTRA:                  -0.586
REMARK UNBOUND:                -0.586
REMARK  Name = /home/vital/Documents/PhD_2021/Malaria_codes/data/pdb_ligands_mmv/ligand_65.pdb
REMARK  4 active torsions:
REMARK  status: ('A' for Active; 'I' for Inactive)
REMARK    1  A    between atoms: C2_5  and  C3_6
REMARK    2  A    between atoms: C5_8  and  N4_9
REMARK    3  A    between atoms: N4_9  and  C6_10
REMARK    4  A    between atoms: C12_18  and  C13_19
REMARK                            x       y       z     vdW  Elec       q    Type
REMARK                         _______ _______ _______ _____ _____    ______ ____
ROOT
ATOM      1  N1  UNL     1       1.606  -5.276 -33.944  0.00  0.00    -0.182 N 
ATOM      2  N2  UNL     1       1.933  -6.534 -33.536  0.00  0.00    -0.138 NA
ATOM      3  C1  UNL     1       0.274  -5.239 -34.353  0.00  0.00    +0.255 A 
ATOM      4  N3  UNL     1      -0.310  -4.092 -34.799  0.00  0.00    -0.216 NA
ATOM      5  C2  UNL     1       0.435  -3.028 -34.811  0.00  0.00    +0.045 A 
ATOM      6  C3  UNL     1      -0.183  -1.740 -35.294  0.00  0.00    +0.066 C 
ATOM      7  C4  UNL     1       1.867  -2.976 -34.380  0.00  0.00    +0.067 A 
ATOM      8  C5  UNL     1       2.430  -4.129 -33.972  0.00  0.00    +0.130 A 
ATOM      9  N5  UNL     1      -0.247  -6.438 -34.226  0.00  0.00    -0.186 NA
ATOM     10  C12 UNL     1       0.782  -7.211 -33.725  0.00  0.00    +0.257 A 
ENDROOT
BRANCH  10  11
ATOM     11  C13 UNL     1       0.621  -8.685 -33.423  0.00  0.00    +0.454 C 
ATOM     12  F1  UNL     1      -0.083  -8.898 -32.276  0.00  0.00    -0.163 F 
ATOM     13  F2  UNL     1      -0.044  -9.344 -34.413  0.00  0.00    -0.163 F 
ATOM     14  F3  UNL     1       1.811  -9.329 -33.269  0.00  0.00    -0.163 F 
ENDBRANCH  10  11
BRANCH   8  15
ATOM     15  N4  UNL     1       3.729  -4.294 -33.506  0.00  0.00    -0.299 N 
ATOM     16  H5  UNL     1       4.432  -4.118 -34.231  0.00  0.00    +0.154 HD
BRANCH  15  17
ATOM     17  C6  UNL     1       4.246  -4.156 -32.205  0.00  0.00    +0.032 A 
ATOM     18  C7  UNL     1       5.642  -4.122 -32.051  0.00  0.00    +0.025 A 
ATOM     19  C8  UNL     1       6.231  -4.027 -30.786  0.00  0.00    +0.022 A 
ATOM     20  C9  UNL     1       3.456  -4.102 -31.050  0.00  0.00    +0.025 A 
ATOM     21  C10 UNL     1       4.039  -4.006 -29.781  0.00  0.00    +0.022 A 
ATOM     22  C11 UNL     1       5.424  -3.969 -29.655  0.00  0.00    +0.041 A 
ATOM     23 CL1  UNL     1       6.140  -3.852 -28.096  0.00  0.00    -0.084 Cl
ENDBRANCH  15  17
ENDBRANCH   8  15
TORSDOF 3
ENDMDL
MODEL 2
REMARK VINA RESULT:    -6.254      5.040      7.157
REMARK INTER + INTRA:          -7.937
REMARK INTER:                  -7.534
REMARK INTRA:                  -0.403
REMARK UNBOUND:                -0.586
REMARK  Name = /home/vital/Documents/PhD_2021/Malaria_codes/data/pdb_ligands_mmv/ligand_65.pdb
REMARK  4 active torsions:
REMARK  status: ('A' for Active; 'I' for Inactive)
REMARK    1  A    between atoms: C2_5  and  C3_6
REMARK    2  A    between atoms: C5_8  and  N4_9
REMARK    3  A    between atoms: N4_9  and  C6_10
REMARK    4  A    between atoms: C12_18  and  C13_19
REMARK                            x       y       z     vdW  Elec       q    Type
REMARK                         _______ _______ _______ _____ _____    ______ ____
ROOT
ATOM      1  N1  UNL     1       4.699  -4.140 -29.398  0.00  0.00    -0.182 N 
ATOM      2  N2  UNL     1       4.851  -5.009 -28.359  0.00  0.00    -0.138 NA
ATOM      3  C1  UNL     1       5.745  -3.218 -29.404  0.00  0.00    +0.255 A 
ATOM      4  N3  UNL     1       5.838  -2.243 -30.350  0.00  0.00    -0.216 NA
ATOM      5  C2  UNL     1       4.907  -2.223 -31.257  0.00  0.00    +0.045 A 
ATOM      6  C3  UNL     1       4.985  -1.158 -32.323  0.00  0.00    +0.066 C 
ATOM      7  C4  UNL     1       3.759  -3.180 -31.332  0.00  0.00    +0.067 A 
ATOM      8  C5  UNL     1       3.673  -4.116 -30.368  0.00  0.00    +0.130 A 
ATOM      9  N5  UNL     1       6.546  -3.472 -28.394  0.00  0.00    -0.186 NA
ATOM     10  C12 UNL     1       5.982  -4.568 -27.772  0.00  0.00    +0.257 A 
ENDROOT
BRANCH  10  11
ATOM     11  C13 UNL     1       6.587  -5.206 -26.540  0.00  0.00    +0.454 C 
ATOM     12  F1  UNL     1       5.964  -4.800 -25.398  0.00  0.00    -0.163 F 
ATOM     13  F2  UNL     1       6.496  -6.565 -26.567  0.00  0.00    -0.163 F 
ATOM     14  F3  UNL     1       7.907  -4.915 -26.383  0.00  0.00    -0.163 F 
ENDBRANCH  10  11
BRANCH   8  15
ATOM     15  N4  UNL     1       2.708  -5.111 -30.268  0.00  0.00    -0.299 N 
ATOM     16  H5  UNL     1       2.041  -4.938 -29.510  0.00  0.00    +0.154 HD
BRANCH  15  17
ATOM     17  C6  UNL     1       2.197  -5.974 -31.255  0.00  0.00    +0.032 A 
ATOM     18  C7  UNL     1       0.946  -6.570 -31.023  0.00  0.00    +0.025 A 
ATOM     19  C8  UNL     1       0.390  -7.470 -31.938  0.00  0.00    +0.022 A 
ATOM     20  C9  UNL     1       2.880  -6.314 -32.428  0.00  0.00    +0.025 A 
ATOM     21  C10 UNL     1       2.328  -7.213 -33.350  0.00  0.00    +0.022 A 
ATOM     22  C11 UNL     1       1.086  -7.787 -33.100  0.00  0.00    +0.041 A 
ATOM     23 CL1  UNL     1       0.409  -8.892 -34.230  0.00  0.00    -0.084 Cl
ENDBRANCH  15  17
ENDBRANCH   8  15
TORSDOF 3
ENDMDL
MODEL 3
REMARK VINA RESULT:    -6.209     17.539     19.197
REMARK INTER + INTRA:          -7.884
REMARK INTER:                  -7.326
REMARK INTRA:                  -0.558
REMARK UNBOUND:                -0.586
REMARK  Name = /home/vital/Documents/PhD_2021/Malaria_codes/data/pdb_ligands_mmv/ligand_65.pdb
REMARK  4 active torsions:
REMARK  status: ('A' for Active; 'I' for Inactive)
REMARK    1  A    between atoms: C2_5  and  C3_6
REMARK    2  A    between atoms: C5_8  and  N4_9
REMARK    3  A    between atoms: N4_9  and  C6_10
REMARK    4  A    between atoms: C12_18  and  C13_19
REMARK                            x       y       z     vdW  Elec       q    Type
REMARK                         _______ _______ _______ _____ _____    ______ ____
ROOT
ATOM      1  N1  UNL     1       0.221   6.355 -18.209  0.00  0.00    -0.182 N 
ATOM      2  N2  UNL     1      -0.759   5.468 -17.881  0.00  0.00    -0.138 NA
ATOM      3  C1  UNL     1       0.254   6.538 -19.591  0.00  0.00    +0.255 A 
ATOM      4  N3  UNL     1       1.139   7.387 -20.183  0.00  0.00    -0.216 NA
ATOM      5  C2  UNL     1       1.945   8.030 -19.392  0.00  0.00    +0.045 A 
ATOM      6  C3  UNL     1       2.934   8.982 -20.016  0.00  0.00    +0.066 C 
ATOM      7  C4  UNL     1       1.969   7.902 -17.901  0.00  0.00    +0.067 A 
ATOM      8  C5  UNL     1       1.105   7.035 -17.343  0.00  0.00    +0.130 A 
ATOM      9  N5  UNL     1      -0.668   5.785 -20.146  0.00  0.00    -0.186 NA
ATOM     10  C12 UNL     1      -1.275   5.143 -19.084  0.00  0.00    +0.257 A 
ENDROOT
BRANCH  10  11
ATOM     11  C13 UNL     1      -2.412   4.160 -19.267  0.00  0.00    +0.454 C 
ATOM     12  F1  UNL     1      -3.397   4.342 -18.344  0.00  0.00    -0.163 F 
ATOM     13  F2  UNL     1      -3.001   4.278 -20.490  0.00  0.00    -0.163 F 
ATOM     14  F3  UNL     1      -2.016   2.863 -19.157  0.00  0.00    -0.163 F 
ENDBRANCH  10  11
BRANCH   8  15
ATOM     15  N4  UNL     1       0.945   6.788 -15.984  0.00  0.00    -0.299 N 
ATOM     16  H5  UNL     1       0.024   7.074 -15.638  0.00  0.00    +0.154 HD
BRANCH  15  17
ATOM     17  C6  UNL     1       1.557   5.822 -15.164  0.00  0.00    +0.032 A 
ATOM     18  C7  UNL     1       2.960   5.775 -15.137  0.00  0.00    +0.025 A 
ATOM     19  C8  UNL     1       3.641   4.818 -14.377  0.00  0.00    +0.022 A 
ATOM     20  C9  UNL     1       0.853   4.874 -14.413  0.00  0.00    +0.025 A 
ATOM     21  C10 UNL     1       1.527   3.914 -13.648  0.00  0.00    +0.022 A 
ATOM     22  C11 UNL     1       2.919   3.890 -13.635  0.00  0.00    +0.041 A 
ATOM     23 CL1  UNL     1       3.747   2.710 -12.698  0.00  0.00    -0.084 Cl
ENDBRANCH  15  17
ENDBRANCH   8  15
TORSDOF 3
ENDMDL
MODEL 4
REMARK VINA RESULT:    -6.141     18.347     19.827
REMARK INTER + INTRA:          -7.804
REMARK INTER:                  -7.373
REMARK INTRA:                  -0.431
REMARK UNBOUND:                -0.586
REMARK  Name = /home/vital/Documents/PhD_2021/Malaria_codes/data/pdb_ligands_mmv/ligand_65.pdb
REMARK  4 active torsions:
REMARK  status: ('A' for Active; 'I' for Inactive)
REMARK    1  A    between atoms: C2_5  and  C3_6
REMARK    2  A    between atoms: C5_8  and  N4_9
REMARK    3  A    between atoms: N4_9  and  C6_10
REMARK    4  A    between atoms: C12_18  and  C13_19
REMARK                            x       y       z     vdW  Elec       q    Type
REMARK                         _______ _______ _______ _____ _____    ______ ____
ROOT
ATOM      1  N1  UNL     1       0.912   5.629 -16.695  0.00  0.00    -0.182 N 
ATOM      2  N2  UNL     1      -0.173   6.003 -17.430  0.00  0.00    -0.138 NA
ATOM      3  C1  UNL     1       0.920   4.244 -16.532  0.00  0.00    +0.255 A 
ATOM      4  N3  UNL     1       1.908   3.607 -15.844  0.00  0.00    -0.216 NA
ATOM      5  C2  UNL     1       2.852   4.356 -15.356  0.00  0.00    +0.045 A 
ATOM      6  C3  UNL     1       3.964   3.681 -14.592  0.00  0.00    +0.066 C 
ATOM      7  C4  UNL     1       2.926   5.845 -15.494  0.00  0.00    +0.067 A 
ATOM      8  C5  UNL     1       1.922   6.453 -16.153  0.00  0.00    +0.130 A 
ATOM      9  N5  UNL     1      -0.131   3.735 -17.132  0.00  0.00    -0.186 NA
ATOM     10  C12 UNL     1      -0.782   4.826 -17.673  0.00  0.00    +0.257 A 
ENDROOT
BRANCH  10  11
ATOM     11  C13 UNL     1      -2.067   4.698 -18.463  0.00  0.00    +0.454 C 
ATOM     12  F1  UNL     1      -2.250   5.748 -19.313  0.00  0.00    -0.163 F 
ATOM     13  F2  UNL     1      -2.091   3.572 -19.229  0.00  0.00    -0.163 F 
ATOM     14  F3  UNL     1      -3.175   4.647 -17.674  0.00  0.00    -0.163 F 
ENDBRANCH  10  11
BRANCH   8  15
ATOM     15  N4  UNL     1       1.813   7.813 -16.416  0.00  0.00    -0.299 N 
ATOM     16  H5  UNL     1       1.691   8.370 -15.565  0.00  0.00    +0.154 HD
BRANCH  15  17
ATOM     17  C6  UNL     1       2.319   8.568 -17.490  0.00  0.00    +0.032 A 
ATOM     18  C7  UNL     1       2.077   8.104 -18.794  0.00  0.00    +0.025 A 
ATOM     19  C8  UNL     1       2.581   8.778 -19.910  0.00  0.00    +0.022 A 
ATOM     20  C9  UNL     1       3.091   9.726 -17.338  0.00  0.00    +0.025 A 
ATOM     21  C10 UNL     1       3.598  10.407 -18.452  0.00  0.00    +0.022 A 
ATOM     22  C11 UNL     1       3.340   9.929 -19.733  0.00  0.00    +0.041 A 
ATOM     23 CL1  UNL     1       3.964  10.764 -21.101  0.00  0.00    -0.084 Cl
ENDBRANCH  15  17
ENDBRANCH   8  15
TORSDOF 3
ENDMDL
MODEL 5
REMARK VINA RESULT:    -6.093      3.062      5.124
REMARK INTER + INTRA:          -7.748
REMARK INTER:                  -7.262
REMARK INTRA:                  -0.486
REMARK UNBOUND:                -0.586
REMARK  Name = /home/vital/Documents/PhD_2021/Malaria_codes/data/pdb_ligands_mmv/ligand_65.pdb
REMARK  4 active torsions:
REMARK  status: ('A' for Active; 'I' for Inactive)
REMARK    1  A    between atoms: C2_5  and  C3_6
REMARK    2  A    between atoms: C5_8  and  N4_9
REMARK    3  A    between atoms: N4_9  and  C6_10
REMARK    4  A    between atoms: C12_18  and  C13_19
REMARK                            x       y       z     vdW  Elec       q    Type
REMARK                         _______ _______ _______ _____ _____    ______ ____
ROOT
ATOM      1  N1  UNL     1       1.262  -6.116 -32.325  0.00  0.00    -0.182 N 
ATOM      2  N2  UNL     1       0.618  -6.860 -33.267  0.00  0.00    -0.138 NA
ATOM      3  C1  UNL     1       1.206  -6.761 -31.090  0.00  0.00    +0.255 A 
ATOM      4  N3  UNL     1       1.785  -6.232 -29.977  0.00  0.00    -0.216 NA
ATOM      5  C2  UNL     1       2.406  -5.100 -30.127  0.00  0.00    +0.045 A 
ATOM      6  C3  UNL     1       3.064  -4.491 -28.914  0.00  0.00    +0.066 C 
ATOM      7  C4  UNL     1       2.524  -4.348 -31.415  0.00  0.00    +0.067 A 
ATOM      8  C5  UNL     1       1.917  -4.877 -32.495  0.00  0.00    +0.130 A 
ATOM      9  N5  UNL     1       0.537  -7.883 -31.222  0.00  0.00    -0.186 NA
ATOM     10  C12 UNL     1       0.189  -7.924 -32.558  0.00  0.00    +0.257 A 
ENDROOT
BRANCH  10  11
ATOM     11  C13 UNL     1      -0.606  -9.063 -33.159  0.00  0.00    +0.454 C 
ATOM     12  F1  UNL     1      -1.937  -8.779 -33.220  0.00  0.00    -0.163 F 
ATOM     13  F2  UNL     1      -0.213  -9.350 -34.432  0.00  0.00    -0.163 F 
ATOM     14  F3  UNL     1      -0.492 -10.222 -32.454  0.00  0.00    -0.163 F 
ENDBRANCH  10  11
BRANCH   8  15
ATOM     15  N4  UNL     1       1.928  -4.358 -33.784  0.00  0.00    -0.299 N 
ATOM     16  H5  UNL     1       2.186  -5.057 -34.487  0.00  0.00    +0.154 HD
BRANCH  15  17
ATOM     17  C6  UNL     1       1.206  -3.280 -34.329  0.00  0.00    +0.032 A 
ATOM     18  C7  UNL     1       0.720  -3.410 -35.641  0.00  0.00    +0.025 A 
ATOM     19  C8  UNL     1       0.028  -2.367 -36.265  0.00  0.00    +0.022 A 
ATOM     20  C9  UNL     1       0.987  -2.068 -33.664  0.00  0.00    +0.025 A 
ATOM     21  C10 UNL     1       0.294  -1.020 -34.282  0.00  0.00    +0.022 A 
ATOM     22  C11 UNL     1      -0.182  -1.175 -35.581  0.00  0.00    +0.041 A 
ATOM     23 CL1  UNL     1      -1.032   0.112 -36.341  0.00  0.00    -0.084 Cl
ENDBRANCH  15  17
ENDBRANCH   8  15
TORSDOF 3
ENDMDL
MODEL 6
REMARK VINA RESULT:    -6.083     18.531     20.545
REMARK INTER + INTRA:          -7.736
REMARK INTER:                  -7.124
REMARK INTRA:                  -0.612
REMARK UNBOUND:                -0.586
REMARK  Name = /home/vital/Documents/PhD_2021/Malaria_codes/data/pdb_ligands_mmv/ligand_65.pdb
REMARK  4 active torsions:
REMARK  status: ('A' for Active; 'I' for Inactive)
REMARK    1  A    between atoms: C2_5  and  C3_6
REMARK    2  A    between atoms: C5_8  and  N4_9
REMARK    3  A    between atoms: N4_9  and  C6_10
REMARK    4  A    between atoms: C12_18  and  C13_19
REMARK                            x       y       z     vdW  Elec       q    Type
REMARK                         _______ _______ _______ _____ _____    ______ ____
ROOT
ATOM      1  N1  UNL     1       2.337   5.548 -15.287  0.00  0.00    -0.182 N 
ATOM      2  N2  UNL     1       2.178   4.391 -14.585  0.00  0.00    -0.138 NA
ATOM      3  C1  UNL     1       3.671   5.952 -15.241  0.00  0.00    +0.255 A 
ATOM      4  N3  UNL     1       4.103   7.078 -15.875  0.00  0.00    -0.216 NA
ATOM      5  C2  UNL     1       3.209   7.751 -16.537  0.00  0.00    +0.045 A 
ATOM      6  C3  UNL     1       3.656   9.000 -17.254  0.00  0.00    +0.066 C 
ATOM      7  C4  UNL     1       1.763   7.382 -16.647  0.00  0.00    +0.067 A 
ATOM      8  C5  UNL     1       1.355   6.282 -15.987  0.00  0.00    +0.130 A 
ATOM      9  N5  UNL     1       4.356   5.092 -14.523  0.00  0.00    -0.186 NA
ATOM     10  C12 UNL     1       3.426   4.148 -14.135  0.00  0.00    +0.257 A 
ENDROOT
BRANCH  10  11
ATOM     11  C13 UNL     1       3.786   2.954 -13.276  0.00  0.00    +0.454 C 
ATOM     12  F1  UNL     1       2.881   2.752 -12.278  0.00  0.00    -0.163 F 
ATOM     13  F2  UNL     1       3.833   1.798 -13.996  0.00  0.00    -0.163 F 
ATOM     14  F3  UNL     1       5.000   3.079 -12.674  0.00  0.00    -0.163 F 
ENDBRANCH  10  11
BRANCH   8  15
ATOM     15  N4  UNL     1       0.070   5.752 -15.981  0.00  0.00    -0.299 N 
ATOM     16  H5  UNL     1      -0.556   6.247 -15.340  0.00  0.00    +0.154 HD
BRANCH  15  17
ATOM     17  C6  UNL     1      -0.623   5.055 -16.988  0.00  0.00    +0.032 A 
ATOM     18  C7  UNL     1       0.099   4.143 -17.775  0.00  0.00    +0.025 A 
ATOM     19  C8  UNL     1      -0.512   3.442 -18.819  0.00  0.00    +0.022 A 
ATOM     20  C9  UNL     1      -1.977   5.252 -17.286  0.00  0.00    +0.025 A 
ATOM     21  C10 UNL     1      -2.595   4.553 -18.330  0.00  0.00    +0.022 A 
ATOM     22  C11 UNL     1      -1.859   3.651 -19.092  0.00  0.00    +0.041 A 
ATOM     23 CL1  UNL     1      -2.618   2.794 -20.375  0.00  0.00    -0.084 Cl
ENDBRANCH  15  17
ENDBRANCH   8  15
TORSDOF 3
ENDMDL
MODEL 7
REMARK VINA RESULT:    -6.051     13.517     14.944
REMARK INTER + INTRA:          -7.698
REMARK INTER:                  -7.134
REMARK INTRA:                  -0.564
REMARK UNBOUND:                -0.586
REMARK  Name = /home/vital/Documents/PhD_2021/Malaria_codes/data/pdb_ligands_mmv/ligand_65.pdb
REMARK  4 active torsions:
REMARK  status: ('A' for Active; 'I' for Inactive)
REMARK    1  A    between atoms: C2_5  and  C3_6
REMARK    2  A    between atoms: C5_8  and  N4_9
REMARK    3  A    between atoms: N4_9  and  C6_10
REMARK    4  A    between atoms: C12_18  and  C13_19
REMARK                            x       y       z     vdW  Elec       q    Type
REMARK                         _______ _______ _______ _____ _____    ______ ____
ROOT
ATOM      1  N1  UNL     1      -5.243  -1.347 -22.452  0.00  0.00    -0.182 N 
ATOM      2  N2  UNL     1      -5.127  -0.473 -21.414  0.00  0.00    -0.138 NA
ATOM      3  C1  UNL     1      -4.209  -2.282 -22.404  0.00  0.00    +0.255 A 
ATOM      4  N3  UNL     1      -4.098  -3.279 -23.325  0.00  0.00    -0.216 NA
ATOM      5  C2  UNL     1      -5.015  -3.324 -24.246  0.00  0.00    +0.045 A 
ATOM      6  C3  UNL     1      -4.924  -4.420 -25.278  0.00  0.00    +0.066 C 
ATOM      7  C4  UNL     1      -6.162  -2.370 -24.364  0.00  0.00    +0.067 A 
ATOM      8  C5  UNL     1      -6.232  -1.375 -23.459  0.00  0.00    +0.130 A 
ATOM      9  N5  UNL     1      -3.439  -2.017 -21.374  0.00  0.00    -0.186 NA
ATOM     10  C12 UNL     1      -4.018  -0.912 -20.784  0.00  0.00    +0.257 A 
ENDROOT
BRANCH  10  11
ATOM     11  C13 UNL     1      -3.448  -0.256 -19.544  0.00  0.00    +0.454 C 
ATOM     12  F1  UNL     1      -4.026   0.952 -19.294  0.00  0.00    -0.163 F 
ATOM     13  F2  UNL     1      -3.637  -1.014 -18.428  0.00  0.00    -0.163 F 
ATOM     14  F3  UNL     1      -2.108  -0.031 -19.630  0.00  0.00    -0.163 F 
ENDBRANCH  10  11
BRANCH   8  15
ATOM     15  N4  UNL     1      -7.225  -0.407 -23.373  0.00  0.00    -0.299 N 
ATOM     16  H5  UNL     1      -7.423  -0.131 -22.407  0.00  0.00    +0.154 HD
BRANCH  15  17
ATOM     17  C6  UNL     1      -7.616   0.570 -24.307  0.00  0.00    +0.032 A 
ATOM     18  C7  UNL     1      -6.951   1.807 -24.283  0.00  0.00    +0.025 A 
ATOM     19  C8  UNL     1      -7.309   2.842 -25.153  0.00  0.00    +0.022 A 
ATOM     20  C9  UNL     1      -8.660   0.403 -25.224  0.00  0.00    +0.025 A 
ATOM     21  C10 UNL     1      -9.023   1.434 -26.100  0.00  0.00    +0.022 A 
ATOM     22  C11 UNL     1      -8.346   2.649 -26.059  0.00  0.00    +0.041 A 
ATOM     23 CL1  UNL     1      -8.794   3.915 -27.133  0.00  0.00    -0.084 Cl
ENDBRANCH  15  17
ENDBRANCH   8  15
TORSDOF 3
ENDMDL
MODEL 8
REMARK VINA RESULT:    -6.021     19.392     20.550
REMARK INTER + INTRA:          -7.663
REMARK INTER:                  -7.313
REMARK INTRA:                  -0.349
REMARK UNBOUND:                -0.586
REMARK  Name = /home/vital/Documents/PhD_2021/Malaria_codes/data/pdb_ligands_mmv/ligand_65.pdb
REMARK  4 active torsions:
REMARK  status: ('A' for Active; 'I' for Inactive)
REMARK    1  A    between atoms: C2_5  and  C3_6
REMARK    2  A    between atoms: C5_8  and  N4_9
REMARK    3  A    between atoms: N4_9  and  C6_10
REMARK    4  A    between atoms: C12_18  and  C13_19
REMARK                            x       y       z     vdW  Elec       q    Type
REMARK                         _______ _______ _______ _____ _____    ______ ____
ROOT
ATOM      1  N1  UNL     1       1.864   5.762 -15.890  0.00  0.00    -0.182 N 
ATOM      2  N2  UNL     1       2.961   5.598 -15.098  0.00  0.00    -0.138 NA
ATOM      3  C1  UNL     1       0.906   4.796 -15.581  0.00  0.00    +0.255 A 
ATOM      4  N3  UNL     1      -0.294   4.744 -16.221  0.00  0.00    -0.216 NA
ATOM      5  C2  UNL     1      -0.508   5.650 -17.129  0.00  0.00    +0.045 A 
ATOM      6  C3  UNL     1      -1.831   5.623 -17.853  0.00  0.00    +0.066 C 
ATOM      7  C4  UNL     1       0.458   6.726 -17.514  0.00  0.00    +0.067 A 
ATOM      8  C5  UNL     1       1.649   6.738 -16.887  0.00  0.00    +0.130 A 
ATOM      9  N5  UNL     1       1.370   4.023 -14.626  0.00  0.00    -0.186 NA
ATOM     10  C12 UNL     1       2.623   4.530 -14.347  0.00  0.00    +0.257 A 
ENDROOT
BRANCH  10  11
ATOM     11  C13 UNL     1       3.529   3.931 -13.293  0.00  0.00    +0.454 C 
ATOM     12  F1  UNL     1       3.891   4.847 -12.351  0.00  0.00    -0.163 F 
ATOM     13  F2  UNL     1       2.933   2.904 -12.625  0.00  0.00    -0.163 F 
ATOM     14  F3  UNL     1       4.686   3.431 -13.807  0.00  0.00    -0.163 F 
ENDBRANCH  10  11
BRANCH   8  15
ATOM     15  N4  UNL     1       2.670   7.662 -17.073  0.00  0.00    -0.299 N 
ATOM     16  H5  UNL     1       3.490   7.465 -16.492  0.00  0.00    +0.154 HD
BRANCH  15  17
ATOM     17  C6  UNL     1       2.979   8.452 -18.196  0.00  0.00    +0.032 A 
ATOM     18  C7  UNL     1       2.968   7.836 -19.458  0.00  0.00    +0.025 A 
ATOM     19  C8  UNL     1       3.302   8.545 -20.616  0.00  0.00    +0.022 A 
ATOM     20  C9  UNL     1       3.344   9.802 -18.127  0.00  0.00    +0.025 A 
ATOM     21  C10 UNL     1       3.678  10.519 -19.282  0.00  0.00    +0.022 A 
ATOM     22  C11 UNL     1       3.656   9.886 -20.522  0.00  0.00    +0.041 A 
ATOM     23 CL1  UNL     1       4.068  10.767 -21.940  0.00  0.00    -0.084 Cl
ENDBRANCH  15  17
ENDBRANCH   8  15
TORSDOF 3
ENDMDL
MODEL 9
REMARK VINA RESULT:    -5.641     13.802     14.580
REMARK INTER + INTRA:          -7.217
REMARK INTER:                  -6.723
REMARK INTRA:                  -0.494
REMARK UNBOUND:                -0.586
REMARK  Name = /home/vital/Documents/PhD_2021/Malaria_codes/data/pdb_ligands_mmv/ligand_65.pdb
REMARK  4 active torsions:
REMARK  status: ('A' for Active; 'I' for Inactive)
REMARK    1  A    between atoms: C2_5  and  C3_6
REMARK    2  A    between atoms: C5_8  and  N4_9
REMARK    3  A    between atoms: N4_9  and  C6_10
REMARK    4  A    between atoms: C12_18  and  C13_19
REMARK                            x       y       z     vdW  Elec       q    Type
REMARK                         _______ _______ _______ _____ _____    ______ ____
ROOT
ATOM      1  N1  UNL     1      -9.532 -12.200 -30.421  0.00  0.00    -0.182 N 
ATOM      2  N2  UNL     1      -9.726 -11.727 -29.159  0.00  0.00    -0.138 NA
ATOM      3  C1  UNL     1      -8.606 -13.243 -30.401  0.00  0.00    +0.255 A 
ATOM      4  N3  UNL     1      -8.241 -13.901 -31.536  0.00  0.00    -0.216 NA
ATOM      5  C2  UNL     1      -8.810 -13.517 -32.639  0.00  0.00    +0.045 A 
ATOM      6  C3  UNL     1      -8.431 -14.230 -33.914  0.00  0.00    +0.066 C 
ATOM      7  C4  UNL     1      -9.820 -12.418 -32.748  0.00  0.00    +0.067 A 
ATOM      8  C5  UNL     1     -10.142 -11.763 -31.617  0.00  0.00    +0.130 A 
ATOM      9  N5  UNL     1      -8.202 -13.434 -29.167  0.00  0.00    -0.186 NA
ATOM     10  C12 UNL     1      -8.899 -12.500 -28.426  0.00  0.00    +0.257 A 
ENDROOT
BRANCH  10  11
ATOM     11  C13 UNL     1      -8.737 -12.363 -26.927  0.00  0.00    +0.454 C 
ATOM     12  F1  UNL     1      -8.038 -11.243 -26.590  0.00  0.00    -0.163 F 
ATOM     13  F2  UNL     1      -9.936 -12.277 -26.286  0.00  0.00    -0.163 F 
ATOM     14  F3  UNL     1      -8.078 -13.412 -26.365  0.00  0.00    -0.163 F 
ENDBRANCH  10  11
BRANCH   8  15
ATOM     15  N4  UNL     1     -11.072 -10.737 -31.494  0.00  0.00    -0.299 N 
ATOM     16  H5  UNL     1     -11.660 -10.838 -30.662  0.00  0.00    +0.154 HD
BRANCH  15  17
ATOM     17  C6  UNL     1     -11.024  -9.414 -31.968  0.00  0.00    +0.032 A 
ATOM     18  C7  UNL     1     -11.167  -8.374 -31.035  0.00  0.00    +0.025 A 
ATOM     19  C8  UNL     1     -11.170  -7.034 -31.434  0.00  0.00    +0.022 A 
ATOM     20  C9  UNL     1     -10.892  -9.070 -33.319  0.00  0.00    +0.025 A 
ATOM     21  C10 UNL     1     -10.892  -7.730 -33.726  0.00  0.00    +0.022 A 
ATOM     22  C11 UNL     1     -11.032  -6.718 -32.781  0.00  0.00    +0.041 A 
ATOM     23 CL1  UNL     1     -11.033  -5.073 -33.282  0.00  0.00    -0.084 Cl
ENDBRANCH  15  17
ENDBRANCH   8  15
TORSDOF 3
ENDMDL
