MODEL 1
REMARK VINA RESULT:    -5.894      0.000      0.000
REMARK INTER + INTRA:         -11.410
REMARK INTER:                  -9.339
REMARK INTRA:                  -2.070
REMARK UNBOUND:                -2.070
REMARK  Name = /home/vital/Documents/PhD_2021/Malaria_codes/data/pdb_ligands_mmv/ligand_276.pdb
REMARK  14 active torsions:
REMARK  status: ('A' for Active; 'I' for Inactive)
REMARK    1  A    between atoms: C1_1  and  O1_2
REMARK    2  A    between atoms: O1_2  and  C2_3
REMARK    3  A    between atoms: C5_6  and  C6_7
REMARK    4  A    between atoms: C6_7  and  C7_8
REMARK    5  A    between atoms: C7_8  and  N1_9
REMARK    6  A    between atoms: C8_10  and  C9_12
REMARK    7  A    between atoms: C11_14  and  S2_26
REMARK    8  A    between atoms: C14_17  and  S1_18
REMARK    9  A    between atoms: S1_18  and  C15_19
REMARK   10  A    between atoms: S2_26  and  N2_29
REMARK   11  A    between atoms: C22_31  and  C23_32
REMARK   12  A    between atoms: C25_34  and  C26_35
REMARK   13  A    between atoms: C29_38  and  O5_39
REMARK   14  A    between atoms: O5_39  and  C30_40
REMARK                            x       y       z     vdW  Elec       q    Type
REMARK                         _______ _______ _______ _____ _____    ______ ____
ROOT
ATOM      1  C9  UNL     1       1.526   3.607 -16.580  0.00  0.00    +0.052 A 
ATOM      2  C10 UNL     1       2.405   3.062 -15.634  0.00  0.00    +0.042 A 
ATOM      3  C11 UNL     1       2.435   3.603 -14.349  0.00  0.00    +0.106 A 
ATOM      4  C12 UNL     1       1.561   4.637 -13.994  0.00  0.00    +0.029 A 
ATOM      5  C13 UNL     1       0.687   5.172 -14.947  0.00  0.00    +0.018 A 
ATOM      6  C14 UNL     1       0.660   4.664 -16.253  0.00  0.00    +0.025 A 
ENDROOT
BRANCH   1   8
ATOM      7  N1  UNL     1       0.527   2.116 -18.169  0.00  0.00    -0.311 N 
ATOM      8  C8  UNL     1       1.545   3.015 -17.927  0.00  0.00    +0.245 C 
ATOM      9  O2  UNL     1       2.405   3.348 -18.730  0.00  0.00    -0.270 OA
ATOM     10  H10 UNL     1      -0.028   1.783 -17.390  0.00  0.00    +0.149 HD
BRANCH   7  11
ATOM     11  C7  UNL     1       0.474   1.377 -19.416  0.00  0.00    +0.109 C 
BRANCH  11  12
ATOM     12  C6  UNL     1      -0.308   0.069 -19.272  0.00  0.00    +0.054 C 
BRANCH  12  16
ATOM     13  C2  UNL     1       2.220  -3.401 -19.769  0.00  0.00    +0.161 A 
ATOM     14  C3  UNL     1       2.550  -2.411 -18.836  0.00  0.00    +0.049 A 
ATOM     15  C4  UNL     1       1.739  -1.286 -18.675  0.00  0.00    +0.007 A 
ATOM     16  C5  UNL     1       0.577  -1.140 -19.440  0.00  0.00    -0.042 A 
ATOM     17  C28 UNL     1       0.227  -2.147 -20.355  0.00  0.00    +0.053 A 
ATOM     18  C29 UNL     1       1.038  -3.274 -20.527  0.00  0.00    +0.162 A 
BRANCH  13  20
ATOM     19  C1  UNL     1       4.385  -4.383 -19.982  0.00  0.00    +0.277 C 
ATOM     20  O1  UNL     1       2.972  -4.529 -19.992  0.00  0.00    -0.491 OA
ENDBRANCH  13  20
BRANCH  18  21
ATOM     21  O5  UNL     1       0.774  -4.290 -21.413  0.00  0.00    -0.491 OA
ATOM     22  C30 UNL     1      -0.184  -4.040 -22.433  0.00  0.00    +0.277 C 
ENDBRANCH  18  21
ENDBRANCH  12  16
ENDBRANCH  11  12
ENDBRANCH   7  11
ENDBRANCH   1   8
BRANCH   3  23
ATOM     23  S2  UNL     1       3.549   2.926 -13.129  0.00  0.00    +0.061 S 
ATOM     24  O3  UNL     1       2.924   3.100 -11.833  0.00  0.00    -0.153 OA
ATOM     25  O4  UNL     1       3.957   1.620 -13.605  0.00  0.00    -0.153 OA
BRANCH  23  26
ATOM     26  N2  UNL     1       4.883   3.974 -13.221  0.00  0.00    -0.176 NA
ATOM     27  C21 UNL     1       4.790   5.240 -12.459  0.00  0.00    +0.112 C 
ATOM     28  C22 UNL     1       5.840   6.277 -12.867  0.00  0.00    +0.002 C 
ATOM     29  C23 UNL     1       7.238   5.957 -12.331  0.00  0.00    +0.009 C 
ATOM     30  C24 UNL     1       5.821   6.518 -14.381  0.00  0.00    +0.009 C 
ATOM     31  C25 UNL     1       5.586   5.255 -15.231  0.00  0.00    +0.002 C 
ATOM     32  C26 UNL     1       6.523   5.234 -16.442  0.00  0.00    +0.009 C 
ATOM     33  C27 UNL     1       5.709   3.953 -14.441  0.00  0.00    +0.112 C 
ENDBRANCH  23  26
ENDBRANCH   3  23
BRANCH   6  34
ATOM     34  S1  UNL     1      -0.438   5.420 -17.442  0.00  0.00    -0.089 S 
BRANCH  34  35
ATOM     35  C15 UNL     1       0.666   6.569 -18.244  0.00  0.00    +0.013 A 
ATOM     36  C16 UNL     1       0.919   6.486 -19.621  0.00  0.00    +0.018 A 
ATOM     37  C17 UNL     1       1.808   7.377 -20.226  0.00  0.00    +0.039 A 
ATOM     38  C18 UNL     1       2.449   8.337 -19.450  0.00  0.00    +0.123 A 
ATOM     39  F1  UNL     1       3.314   9.183 -20.026  0.00  0.00    -0.205 F 
ATOM     40  C19 UNL     1       2.213   8.431 -18.082  0.00  0.00    +0.039 A 
ATOM     41  C20 UNL     1       1.321   7.544 -17.478  0.00  0.00    +0.018 A 
ENDBRANCH  34  35
ENDBRANCH   6  34
TORSDOF 10
ENDMDL
MODEL 2
REMARK VINA RESULT:    -5.379      9.978     14.738
REMARK INTER + INTRA:         -10.595
REMARK INTER:                  -6.657
REMARK INTRA:                  -3.938
REMARK UNBOUND:                -2.070
REMARK  Name = /home/vital/Documents/PhD_2021/Malaria_codes/data/pdb_ligands_mmv/ligand_276.pdb
REMARK  14 active torsions:
REMARK  status: ('A' for Active; 'I' for Inactive)
REMARK    1  A    between atoms: C1_1  and  O1_2
REMARK    2  A    between atoms: O1_2  and  C2_3
REMARK    3  A    between atoms: C5_6  and  C6_7
REMARK    4  A    between atoms: C6_7  and  C7_8
REMARK    5  A    between atoms: C7_8  and  N1_9
REMARK    6  A    between atoms: C8_10  and  C9_12
REMARK    7  A    between atoms: C11_14  and  S2_26
REMARK    8  A    between atoms: C14_17  and  S1_18
REMARK    9  A    between atoms: S1_18  and  C15_19
REMARK   10  A    between atoms: S2_26  and  N2_29
REMARK   11  A    between atoms: C22_31  and  C23_32
REMARK   12  A    between atoms: C25_34  and  C26_35
REMARK   13  A    between atoms: C29_38  and  O5_39
REMARK   14  A    between atoms: O5_39  and  C30_40
REMARK                            x       y       z     vdW  Elec       q    Type
REMARK                         _______ _______ _______ _____ _____    ______ ____
ROOT
ATOM      1  C9  UNL     1       4.420  -3.459 -28.456  0.00  0.00    +0.052 A 
ATOM      2  C10 UNL     1       5.268  -3.841 -27.409  0.00  0.00    +0.042 A 
ATOM      3  C11 UNL     1       4.715  -4.123 -26.160  0.00  0.00    +0.106 A 
ATOM      4  C12 UNL     1       3.329  -4.078 -25.972  0.00  0.00    +0.029 A 
ATOM      5  C13 UNL     1       2.492  -3.696 -27.027  0.00  0.00    +0.018 A 
ATOM      6  C14 UNL     1       3.028  -3.380 -28.283  0.00  0.00    +0.025 A 
ENDROOT
BRANCH   1   8
ATOM      7  N1  UNL     1       5.118  -4.222 -30.620  0.00  0.00    -0.311 N 
ATOM      8  C8  UNL     1       5.053  -3.154 -29.750  0.00  0.00    +0.245 C 
ATOM      9  O2  UNL     1       5.451  -2.021 -29.984  0.00  0.00    -0.270 OA
ATOM     10  H10 UNL     1       4.917  -5.151 -30.269  0.00  0.00    +0.149 HD
BRANCH   7  11
ATOM     11  C7  UNL     1       5.804  -4.100 -31.892  0.00  0.00    +0.109 C 
BRANCH  11  12
ATOM     12  C6  UNL     1       5.360  -5.177 -32.886  0.00  0.00    +0.054 C 
BRANCH  12  16
ATOM     13  C2  UNL     1       1.168  -4.850 -33.883  0.00  0.00    +0.161 A 
ATOM     14  C3  UNL     1       1.939  -3.701 -33.676  0.00  0.00    +0.049 A 
ATOM     15  C4  UNL     1       3.293  -3.801 -33.349  0.00  0.00    +0.007 A 
ATOM     16  C5  UNL     1       3.899  -5.056 -33.234  0.00  0.00    -0.042 A 
ATOM     17  C28 UNL     1       3.135  -6.211 -33.472  0.00  0.00    +0.053 A 
ATOM     18  C29 UNL     1       1.776  -6.119 -33.793  0.00  0.00    +0.162 A 
BRANCH  13  20
ATOM     19  C1  UNL     1      -0.852  -3.594 -34.073  0.00  0.00    +0.277 C 
ATOM     20  O1  UNL     1      -0.170  -4.833 -34.196  0.00  0.00    -0.491 OA
ENDBRANCH  13  20
BRANCH  18  21
ATOM     21  O5  UNL     1       0.959  -7.200 -34.021  0.00  0.00    -0.491 OA
ATOM     22  C30 UNL     1       1.407  -8.470 -33.565  0.00  0.00    +0.277 C 
ENDBRANCH  18  21
ENDBRANCH  12  16
ENDBRANCH  11  12
ENDBRANCH   7  11
ENDBRANCH   1   8
BRANCH   3  23
ATOM     23  S2  UNL     1       5.776  -4.610 -24.809  0.00  0.00    +0.061 S 
ATOM     24  O3  UNL     1       4.967  -4.619 -23.608  0.00  0.00    -0.153 OA
ATOM     25  O4  UNL     1       6.503  -5.786 -25.244  0.00  0.00    -0.153 OA
BRANCH  23  26
ATOM     26  N2  UNL     1       6.866  -3.311 -24.707  0.00  0.00    -0.176 NA
ATOM     27  C21 UNL     1       8.304  -3.652 -24.619  0.00  0.00    +0.112 C 
ATOM     28  C22 UNL     1       9.184  -2.482 -24.169  0.00  0.00    +0.002 C 
ATOM     29  C23 UNL     1       9.410  -1.446 -25.273  0.00  0.00    +0.009 C 
ATOM     30  C24 UNL     1       8.662  -1.865 -22.867  0.00  0.00    +0.009 C 
ATOM     31  C25 UNL     1       7.128  -1.785 -22.762  0.00  0.00    +0.002 C 
ATOM     32  C26 UNL     1       6.692  -0.435 -22.186  0.00  0.00    +0.009 C 
ATOM     33  C27 UNL     1       6.408  -2.057 -24.082  0.00  0.00    +0.112 C 
ENDBRANCH  23  26
ENDBRANCH   3  23
BRANCH   6  34
ATOM     34  S1  UNL     1       1.918  -2.848 -29.577  0.00  0.00    -0.089 S 
BRANCH  34  35
ATOM     35  C15 UNL     1       1.032  -4.361 -29.911  0.00  0.00    +0.013 A 
ATOM     36  C16 UNL     1       1.685  -5.602 -29.884  0.00  0.00    +0.018 A 
ATOM     37  C17 UNL     1       0.980  -6.772 -30.175  0.00  0.00    +0.039 A 
ATOM     38  C18 UNL     1      -0.368  -6.695 -30.504  0.00  0.00    +0.123 A 
ATOM     39  F1  UNL     1      -1.042  -7.815 -30.799  0.00  0.00    -0.205 F 
ATOM     40  C19 UNL     1      -1.031  -5.472 -30.540  0.00  0.00    +0.039 A 
ATOM     41  C20 UNL     1      -0.329  -4.302 -30.244  0.00  0.00    +0.018 A 
ENDBRANCH  34  35
ENDBRANCH   6  34
TORSDOF 10
ENDMDL
MODEL 3
REMARK VINA RESULT:    -5.313      7.299     10.001
REMARK INTER + INTRA:         -10.489
REMARK INTER:                  -6.822
REMARK INTRA:                  -3.666
REMARK UNBOUND:                -2.070
REMARK  Name = /home/vital/Documents/PhD_2021/Malaria_codes/data/pdb_ligands_mmv/ligand_276.pdb
REMARK  14 active torsions:
REMARK  status: ('A' for Active; 'I' for Inactive)
REMARK    1  A    between atoms: C1_1  and  O1_2
REMARK    2  A    between atoms: O1_2  and  C2_3
REMARK    3  A    between atoms: C5_6  and  C6_7
REMARK    4  A    between atoms: C6_7  and  C7_8
REMARK    5  A    between atoms: C7_8  and  N1_9
REMARK    6  A    between atoms: C8_10  and  C9_12
REMARK    7  A    between atoms: C11_14  and  S2_26
REMARK    8  A    between atoms: C14_17  and  S1_18
REMARK    9  A    between atoms: S1_18  and  C15_19
REMARK   10  A    between atoms: S2_26  and  N2_29
REMARK   11  A    between atoms: C22_31  and  C23_32
REMARK   12  A    between atoms: C25_34  and  C26_35
REMARK   13  A    between atoms: C29_38  and  O5_39
REMARK   14  A    between atoms: O5_39  and  C30_40
REMARK                            x       y       z     vdW  Elec       q    Type
REMARK                         _______ _______ _______ _____ _____    ______ ____
ROOT
ATOM      1  C9  UNL     1       1.141  -2.210 -21.221  0.00  0.00    +0.052 A 
ATOM      2  C10 UNL     1       2.291  -2.818 -20.700  0.00  0.00    +0.042 A 
ATOM      3  C11 UNL     1       3.017  -3.695 -21.506  0.00  0.00    +0.106 A 
ATOM      4  C12 UNL     1       2.632  -3.920 -22.833  0.00  0.00    +0.029 A 
ATOM      5  C13 UNL     1       1.483  -3.306 -23.343  0.00  0.00    +0.018 A 
ATOM      6  C14 UNL     1       0.721  -2.443 -22.541  0.00  0.00    +0.025 A 
ENDROOT
BRANCH   1   8
ATOM      7  N1  UNL     1      -0.768  -1.839 -19.817  0.00  0.00    -0.311 N 
ATOM      8  C8  UNL     1       0.399  -1.307 -20.326  0.00  0.00    +0.245 C 
ATOM      9  O2  UNL     1       0.842  -0.195 -20.075  0.00  0.00    -0.270 OA
ATOM     10  H10 UNL     1      -1.130  -2.697 -20.218  0.00  0.00    +0.149 HD
BRANCH   7  11
ATOM     11  C7  UNL     1      -1.655  -1.032 -19.003  0.00  0.00    +0.109 C 
BRANCH  11  12
ATOM     12  C6  UNL     1      -3.095  -1.551 -19.040  0.00  0.00    +0.054 C 
BRANCH  12  16
ATOM     13  C2  UNL     1      -5.029  -0.647 -22.797  0.00  0.00    +0.161 A 
ATOM     14  C3  UNL     1      -5.198  -1.900 -22.197  0.00  0.00    +0.049 A 
ATOM     15  C4  UNL     1      -4.571  -2.198 -20.985  0.00  0.00    +0.007 A 
ATOM     16  C5  UNL     1      -3.773  -1.241 -20.350  0.00  0.00    -0.042 A 
ATOM     17  C28 UNL     1      -3.627   0.028 -20.936  0.00  0.00    +0.053 A 
ATOM     18  C29 UNL     1      -4.245   0.332 -22.153  0.00  0.00    +0.162 A 
BRANCH  13  20
ATOM     19  C1  UNL     1      -6.005  -1.328 -24.866  0.00  0.00    +0.277 C 
ATOM     20  O1  UNL     1      -5.603  -0.284 -23.992  0.00  0.00    -0.491 OA
ENDBRANCH  13  20
BRANCH  18  21
ATOM     21  O5  UNL     1      -4.135   1.540 -22.797  0.00  0.00    -0.491 OA
ATOM     22  C30 UNL     1      -3.141   2.444 -22.334  0.00  0.00    +0.277 C 
ENDBRANCH  18  21
ENDBRANCH  12  16
ENDBRANCH  11  12
ENDBRANCH   7  11
ENDBRANCH   1   8
BRANCH   3  23
ATOM     23  S2  UNL     1       4.483  -4.483 -20.862  0.00  0.00    +0.061 S 
ATOM     24  O3  UNL     1       4.221  -4.814 -19.477  0.00  0.00    -0.153 OA
ATOM     25  O4  UNL     1       4.878  -5.494 -21.823  0.00  0.00    -0.153 OA
BRANCH  23  26
ATOM     26  N2  UNL     1       5.627  -3.227 -20.901  0.00  0.00    -0.176 NA
ATOM     27  C21 UNL     1       5.637  -2.298 -19.749  0.00  0.00    +0.112 C 
ATOM     28  C22 UNL     1       6.420  -1.008 -20.010  0.00  0.00    +0.002 C 
ATOM     29  C23 UNL     1       7.937  -1.211 -19.969  0.00  0.00    +0.009 C 
ATOM     30  C24 UNL     1       5.943  -0.321 -21.295  0.00  0.00    +0.009 C 
ATOM     31  C25 UNL     1       5.596  -1.282 -22.448  0.00  0.00    +0.002 C 
ATOM     32  C26 UNL     1       6.142  -0.754 -23.778  0.00  0.00    +0.009 C 
ATOM     33  C27 UNL     1       6.066  -2.716 -22.213  0.00  0.00    +0.112 C 
ENDBRANCH  23  26
ENDBRANCH   3  23
BRANCH   6  34
ATOM     34  S1  UNL     1      -0.765  -1.729 -23.227  0.00  0.00    -0.089 S 
BRANCH  34  35
ATOM     35  C15 UNL     1      -1.751  -3.191 -23.504  0.00  0.00    +0.013 A 
ATOM     36  C16 UNL     1      -2.514  -3.338 -24.671  0.00  0.00    +0.018 A 
ATOM     37  C17 UNL     1      -3.301  -4.476 -24.856  0.00  0.00    +0.039 A 
ATOM     38  C18 UNL     1      -3.330  -5.456 -23.870  0.00  0.00    +0.123 A 
ATOM     39  F1  UNL     1      -4.097  -6.542 -24.038  0.00  0.00    -0.205 F 
ATOM     40  C19 UNL     1      -2.583  -5.325 -22.703  0.00  0.00    +0.039 A 
ATOM     41  C20 UNL     1      -1.792  -4.189 -22.519  0.00  0.00    +0.018 A 
ENDBRANCH  34  35
ENDBRANCH   6  34
TORSDOF 10
ENDMDL
MODEL 4
REMARK VINA RESULT:    -5.246      3.559      9.184
REMARK INTER + INTRA:         -10.383
REMARK INTER:                  -6.563
REMARK INTRA:                  -3.820
REMARK UNBOUND:                -2.070
REMARK  Name = /home/vital/Documents/PhD_2021/Malaria_codes/data/pdb_ligands_mmv/ligand_276.pdb
REMARK  14 active torsions:
REMARK  status: ('A' for Active; 'I' for Inactive)
REMARK    1  A    between atoms: C1_1  and  O1_2
REMARK    2  A    between atoms: O1_2  and  C2_3
REMARK    3  A    between atoms: C5_6  and  C6_7
REMARK    4  A    between atoms: C6_7  and  C7_8
REMARK    5  A    between atoms: C7_8  and  N1_9
REMARK    6  A    between atoms: C8_10  and  C9_12
REMARK    7  A    between atoms: C11_14  and  S2_26
REMARK    8  A    between atoms: C14_17  and  S1_18
REMARK    9  A    between atoms: S1_18  and  C15_19
REMARK   10  A    between atoms: S2_26  and  N2_29
REMARK   11  A    between atoms: C22_31  and  C23_32
REMARK   12  A    between atoms: C25_34  and  C26_35
REMARK   13  A    between atoms: C29_38  and  O5_39
REMARK   14  A    between atoms: O5_39  and  C30_40
REMARK                            x       y       z     vdW  Elec       q    Type
REMARK                         _______ _______ _______ _____ _____    ______ ____
ROOT
ATOM      1  C9  UNL     1       5.240   0.668 -17.260  0.00  0.00    +0.052 A 
ATOM      2  C10 UNL     1       6.174  -0.089 -17.978  0.00  0.00    +0.042 A 
ATOM      3  C11 UNL     1       5.724  -0.942 -18.985  0.00  0.00    +0.106 A 
ATOM      4  C12 UNL     1       4.364  -0.999 -19.310  0.00  0.00    +0.029 A 
ATOM      5  C13 UNL     1       3.440  -0.236 -18.588  0.00  0.00    +0.018 A 
ATOM      6  C14 UNL     1       3.866   0.607 -17.551  0.00  0.00    +0.025 A 
ENDROOT
BRANCH   1   8
ATOM      7  N1  UNL     1       5.972   2.847 -16.579  0.00  0.00    -0.311 N 
ATOM      8  C8  UNL     1       5.762   1.539 -16.195  0.00  0.00    +0.245 C 
ATOM      9  O2  UNL     1       5.954   1.088 -15.075  0.00  0.00    -0.270 OA
ATOM     10  H10 UNL     1       5.945   3.078 -17.565  0.00  0.00    +0.149 HD
BRANCH   7  11
ATOM     11  C7  UNL     1       6.579   3.798 -15.667  0.00  0.00    +0.109 C 
BRANCH  11  12
ATOM     12  C6  UNL     1       5.538   4.471 -14.769  0.00  0.00    +0.054 C 
BRANCH  12  16
ATOM     13  C2  UNL     1       3.128   7.338 -16.924  0.00  0.00    +0.161 A 
ATOM     14  C3  UNL     1       4.502   7.241 -17.170  0.00  0.00    +0.049 A 
ATOM     15  C4  UNL     1       5.286   6.319 -16.472  0.00  0.00    +0.007 A 
ATOM     16  C5  UNL     1       4.702   5.472 -15.525  0.00  0.00    -0.042 A 
ATOM     17  C28 UNL     1       3.317   5.547 -15.299  0.00  0.00    +0.053 A 
ATOM     18  C29 UNL     1       2.527   6.473 -15.988  0.00  0.00    +0.162 A 
BRANCH  13  20
ATOM     19  C1  UNL     1       2.730   8.752 -18.805  0.00  0.00    +0.277 C 
ATOM     20  O1  UNL     1       2.294   8.227 -17.561  0.00  0.00    -0.491 OA
ENDBRANCH  13  20
BRANCH  18  21
ATOM     21  O5  UNL     1       1.172   6.619 -15.809  0.00  0.00    -0.491 OA
ATOM     22  C30 UNL     1       0.504   5.643 -15.022  0.00  0.00    +0.277 C 
ENDBRANCH  18  21
ENDBRANCH  12  16
ENDBRANCH  11  12
ENDBRANCH   7  11
ENDBRANCH   1   8
BRANCH   3  23
ATOM     23  S2  UNL     1       6.898  -1.918 -19.911  0.00  0.00    +0.061 S 
ATOM     24  O3  UNL     1       7.823  -0.998 -20.538  0.00  0.00    -0.153 OA
ATOM     25  O4  UNL     1       7.357  -2.975 -19.031  0.00  0.00    -0.153 OA
BRANCH  23  26
ATOM     26  N2  UNL     1       5.931  -2.610 -21.124  0.00  0.00    -0.176 NA
ATOM     27  C21 UNL     1       5.341  -3.937 -20.833  0.00  0.00    +0.112 C 
ATOM     28  C22 UNL     1       4.799  -4.651 -22.073  0.00  0.00    +0.002 C 
ATOM     29  C23 UNL     1       3.468  -4.072 -22.562  0.00  0.00    +0.009 C 
ATOM     30  C24 UNL     1       5.860  -4.727 -23.177  0.00  0.00    +0.009 C 
ATOM     31  C25 UNL     1       6.740  -3.470 -23.311  0.00  0.00    +0.002 C 
ATOM     32  C26 UNL     1       6.942  -3.102 -24.784  0.00  0.00    +0.009 C 
ATOM     33  C27 UNL     1       6.215  -2.267 -22.530  0.00  0.00    +0.112 C 
ENDBRANCH  23  26
ENDBRANCH   3  23
BRANCH   6  34
ATOM     34  S1  UNL     1       2.638   1.516 -16.628  0.00  0.00    -0.089 S 
BRANCH  34  35
ATOM     35  C15 UNL     1       2.232   2.813 -17.784  0.00  0.00    +0.013 A 
ATOM     36  C16 UNL     1       3.227   3.430 -18.557  0.00  0.00    +0.018 A 
ATOM     37  C17 UNL     1       2.893   4.462 -19.436  0.00  0.00    +0.039 A 
ATOM     38  C18 UNL     1       1.571   4.882 -19.529  0.00  0.00    +0.123 A 
ATOM     39  F1  UNL     1       1.251   5.883 -20.360  0.00  0.00    -0.205 F 
ATOM     40  C19 UNL     1       0.572   4.285 -18.766  0.00  0.00    +0.039 A 
ATOM     41  C20 UNL     1       0.903   3.249 -17.891  0.00  0.00    +0.018 A 
ENDBRANCH  34  35
ENDBRANCH   6  34
TORSDOF 10
ENDMDL
MODEL 5
REMARK VINA RESULT:    -5.220      8.917     11.177
REMARK INTER + INTRA:         -10.341
REMARK INTER:                  -6.253
REMARK INTRA:                  -4.088
REMARK UNBOUND:                -2.070
REMARK  Name = /home/vital/Documents/PhD_2021/Malaria_codes/data/pdb_ligands_mmv/ligand_276.pdb
REMARK  14 active torsions:
REMARK  status: ('A' for Active; 'I' for Inactive)
REMARK    1  A    between atoms: C1_1  and  O1_2
REMARK    2  A    between atoms: O1_2  and  C2_3
REMARK    3  A    between atoms: C5_6  and  C6_7
REMARK    4  A    between atoms: C6_7  and  C7_8
REMARK    5  A    between atoms: C7_8  and  N1_9
REMARK    6  A    between atoms: C8_10  and  C9_12
REMARK    7  A    between atoms: C11_14  and  S2_26
REMARK    8  A    between atoms: C14_17  and  S1_18
REMARK    9  A    between atoms: S1_18  and  C15_19
REMARK   10  A    between atoms: S2_26  and  N2_29
REMARK   11  A    between atoms: C22_31  and  C23_32
REMARK   12  A    between atoms: C25_34  and  C26_35
REMARK   13  A    between atoms: C29_38  and  O5_39
REMARK   14  A    between atoms: O5_39  and  C30_40
REMARK                            x       y       z     vdW  Elec       q    Type
REMARK                         _______ _______ _______ _____ _____    ______ ____
ROOT
ATOM      1  C9  UNL     1       1.973  -1.265 -23.690  0.00  0.00    +0.052 A 
ATOM      2  C10 UNL     1       3.222  -0.756 -23.312  0.00  0.00    +0.042 A 
ATOM      3  C11 UNL     1       4.184  -0.525 -24.295  0.00  0.00    +0.106 A 
ATOM      4  C12 UNL     1       3.885  -0.744 -25.645  0.00  0.00    +0.029 A 
ATOM      5  C13 UNL     1       2.633  -1.250 -26.011  0.00  0.00    +0.018 A 
ATOM      6  C14 UNL     1       1.661  -1.518 -25.037  0.00  0.00    +0.025 A 
ENDROOT
BRANCH   1   8
ATOM      7  N1  UNL     1       1.116  -2.743 -22.008  0.00  0.00    -0.311 N 
ATOM      8  C8  UNL     1       0.999  -1.510 -22.615  0.00  0.00    +0.245 C 
ATOM      9  O2  UNL     1       0.188  -0.644 -22.315  0.00  0.00    -0.270 OA
ATOM     10  H10 UNL     1       1.702  -3.447 -22.441  0.00  0.00    +0.149 HD
BRANCH   7  11
ATOM     11  C7  UNL     1       0.162  -3.166 -21.002  0.00  0.00    +0.109 C 
BRANCH  11  12
ATOM     12  C6  UNL     1      -0.259  -4.626 -21.190  0.00  0.00    +0.054 C 
BRANCH  12  16
ATOM     13  C2  UNL     1      -3.328  -5.034 -24.205  0.00  0.00    +0.161 A 
ATOM     14  C3  UNL     1      -2.584  -6.146 -23.796  0.00  0.00    +0.049 A 
ATOM     15  C4  UNL     1      -1.587  -6.018 -22.826  0.00  0.00    +0.007 A 
ATOM     16  C5  UNL     1      -1.328  -4.775 -22.241  0.00  0.00    -0.042 A 
ATOM     17  C28 UNL     1      -2.096  -3.662 -22.627  0.00  0.00    +0.053 A 
ATOM     18  C29 UNL     1      -3.091  -3.781 -23.604  0.00  0.00    +0.162 A 
BRANCH  13  20
ATOM     19  C1  UNL     1      -5.127  -6.241 -25.205  0.00  0.00    +0.277 C 
ATOM     20  O1  UNL     1      -4.315  -5.077 -25.160  0.00  0.00    -0.491 OA
ENDBRANCH  13  20
BRANCH  18  21
ATOM     21  O5  UNL     1      -3.868  -2.738 -24.047  0.00  0.00    -0.491 OA
ATOM     22  C30 UNL     1      -3.398  -1.419 -23.807  0.00  0.00    +0.277 C 
ENDBRANCH  18  21
ENDBRANCH  12  16
ENDBRANCH  11  12
ENDBRANCH   7  11
ENDBRANCH   1   8
BRANCH   3  23
ATOM     23  S2  UNL     1       5.784   0.120 -23.836  0.00  0.00    +0.061 S 
ATOM     24  O3  UNL     1       6.204   1.021 -24.890  0.00  0.00    -0.153 OA
ATOM     25  O4  UNL     1       5.685   0.558 -22.458  0.00  0.00    -0.153 OA
BRANCH  23  26
ATOM     26  N2  UNL     1       6.772  -1.261 -23.893  0.00  0.00    -0.176 NA
ATOM     27  C21 UNL     1       7.561  -1.466 -25.128  0.00  0.00    +0.112 C 
ATOM     28  C22 UNL     1       8.132  -2.881 -25.261  0.00  0.00    +0.002 C 
ATOM     29  C23 UNL     1       9.336  -3.128 -24.349  0.00  0.00    +0.009 C 
ATOM     30  C24 UNL     1       7.034  -3.938 -25.102  0.00  0.00    +0.009 C 
ATOM     31  C25 UNL     1       5.976  -3.611 -24.032  0.00  0.00    +0.002 C 
ATOM     32  C26 UNL     1       5.643  -4.852 -23.199  0.00  0.00    +0.009 C 
ATOM     33  C27 UNL     1       6.364  -2.448 -23.120  0.00  0.00    +0.112 C 
ENDBRANCH  23  26
ENDBRANCH   3  23
BRANCH   6  34
ATOM     34  S1  UNL     1       0.100  -2.213 -25.555  0.00  0.00    -0.089 S 
BRANCH  34  35
ATOM     35  C15 UNL     1       0.547  -3.926 -25.784  0.00  0.00    +0.013 A 
ATOM     36  C16 UNL     1      -0.234  -4.777 -26.579  0.00  0.00    +0.018 A 
ATOM     37  C17 UNL     1       0.117  -6.121 -26.723  0.00  0.00    +0.039 A 
ATOM     38  C18 UNL     1       1.238  -6.610 -26.062  0.00  0.00    +0.123 A 
ATOM     39  F1  UNL     1       1.567  -7.903 -26.185  0.00  0.00    -0.205 F 
ATOM     40  C19 UNL     1       2.021  -5.781 -25.264  0.00  0.00    +0.039 A 
ATOM     41  C20 UNL     1       1.674  -4.437 -25.124  0.00  0.00    +0.018 A 
ENDBRANCH  34  35
ENDBRANCH   6  34
TORSDOF 10
ENDMDL
MODEL 6
REMARK VINA RESULT:    -5.208      4.387      7.560
REMARK INTER + INTRA:         -10.323
REMARK INTER:                  -6.349
REMARK INTRA:                  -3.974
REMARK UNBOUND:                -2.070
REMARK  Name = /home/vital/Documents/PhD_2021/Malaria_codes/data/pdb_ligands_mmv/ligand_276.pdb
REMARK  14 active torsions:
REMARK  status: ('A' for Active; 'I' for Inactive)
REMARK    1  A    between atoms: C1_1  and  O1_2
REMARK    2  A    between atoms: O1_2  and  C2_3
REMARK    3  A    between atoms: C5_6  and  C6_7
REMARK    4  A    between atoms: C6_7  and  C7_8
REMARK    5  A    between atoms: C7_8  and  N1_9
REMARK    6  A    between atoms: C8_10  and  C9_12
REMARK    7  A    between atoms: C11_14  and  S2_26
REMARK    8  A    between atoms: C14_17  and  S1_18
REMARK    9  A    between atoms: S1_18  and  C15_19
REMARK   10  A    between atoms: S2_26  and  N2_29
REMARK   11  A    between atoms: C22_31  and  C23_32
REMARK   12  A    between atoms: C25_34  and  C26_35
REMARK   13  A    between atoms: C29_38  and  O5_39
REMARK   14  A    between atoms: O5_39  and  C30_40
REMARK                            x       y       z     vdW  Elec       q    Type
REMARK                         _______ _______ _______ _____ _____    ______ ____
ROOT
ATOM      1  C9  UNL     1      -0.927   0.667 -19.688  0.00  0.00    +0.052 A 
ATOM      2  C10 UNL     1      -0.530   2.008 -19.754  0.00  0.00    +0.042 A 
ATOM      3  C11 UNL     1      -1.506   2.998 -19.868  0.00  0.00    +0.106 A 
ATOM      4  C12 UNL     1      -2.864   2.658 -19.859  0.00  0.00    +0.029 A 
ATOM      5  C13 UNL     1      -3.248   1.315 -19.791  0.00  0.00    +0.018 A 
ATOM      6  C14 UNL     1      -2.283   0.301 -19.706  0.00  0.00    +0.025 A 
ENDROOT
BRANCH   1   8
ATOM      7  N1  UNL     1       0.456  -0.960 -20.780  0.00  0.00    -0.311 N 
ATOM      8  C8  UNL     1       0.140  -0.342 -19.588  0.00  0.00    +0.245 C 
ATOM      9  O2  UNL     1       0.681  -0.555 -18.512  0.00  0.00    -0.270 OA
ATOM     10  H10 UNL     1      -0.161  -0.836 -21.574  0.00  0.00    +0.149 HD
BRANCH   7  11
ATOM     11  C7  UNL     1       1.416  -2.045 -20.819  0.00  0.00    +0.109 C 
BRANCH  11  12
ATOM     12  C6  UNL     1       0.779  -3.386 -20.443  0.00  0.00    +0.054 C 
BRANCH  12  16
ATOM     13  C2  UNL     1      -1.511  -5.049 -23.707  0.00  0.00    +0.161 A 
ATOM     14  C3  UNL     1      -1.915  -5.253 -22.383  0.00  0.00    +0.049 A 
ATOM     15  C4  UNL     1      -1.175  -4.721 -21.324  0.00  0.00    +0.007 A 
ATOM     16  C5  UNL     1      -0.024  -3.967 -21.577  0.00  0.00    -0.042 A 
ATOM     17  C28 UNL     1       0.365  -3.736 -22.907  0.00  0.00    +0.053 A 
ATOM     18  C29 UNL     1      -0.366  -4.272 -23.973  0.00  0.00    +0.162 A 
BRANCH  13  20
ATOM     19  C1  UNL     1      -3.586  -5.704 -24.689  0.00  0.00    +0.277 C 
ATOM     20  O1  UNL     1      -2.179  -5.549 -24.800  0.00  0.00    -0.491 OA
ENDBRANCH  13  20
BRANCH  18  21
ATOM     21  O5  UNL     1      -0.039  -4.106 -25.297  0.00  0.00    -0.491 OA
ATOM     22  C30 UNL     1      -0.118  -2.792 -25.834  0.00  0.00    +0.277 C 
ENDBRANCH  18  21
ENDBRANCH  12  16
ENDBRANCH  11  12
ENDBRANCH   7  11
ENDBRANCH   1   8
BRANCH   3  23
ATOM     23  S2  UNL     1      -1.023   4.714 -19.956  0.00  0.00    +0.061 S 
ATOM     24  O3  UNL     1      -0.236   4.878 -21.161  0.00  0.00    -0.153 OA
ATOM     25  O4  UNL     1      -2.215   5.503 -19.715  0.00  0.00    -0.153 OA
BRANCH  23  26
ATOM     26  N2  UNL     1       0.011   4.879 -18.619  0.00  0.00    -0.176 NA
ATOM     27  C21 UNL     1      -0.612   4.793 -17.279  0.00  0.00    +0.112 C 
ATOM     28  C22 UNL     1       0.290   5.303 -16.151  0.00  0.00    +0.002 C 
ATOM     29  C23 UNL     1       1.407   4.321 -15.788  0.00  0.00    +0.009 C 
ATOM     30  C24 UNL     1       0.807   6.714 -16.452  0.00  0.00    +0.009 C 
ATOM     31  C25 UNL     1       1.169   6.967 -17.927  0.00  0.00    +0.002 C 
ATOM     32  C26 UNL     1       2.484   7.744 -18.039  0.00  0.00    +0.009 C 
ATOM     33  C27 UNL     1       1.231   5.694 -18.770  0.00  0.00    +0.112 C 
ENDBRANCH  23  26
ENDBRANCH   3  23
BRANCH   6  34
ATOM     34  S1  UNL     1      -2.830  -1.399 -19.675  0.00  0.00    -0.089 S 
BRANCH  34  35
ATOM     35  C15 UNL     1      -3.361  -1.619 -21.364  0.00  0.00    +0.013 A 
ATOM     36  C16 UNL     1      -2.575  -1.164 -22.433  0.00  0.00    +0.018 A 
ATOM     37  C17 UNL     1      -3.021  -1.320 -23.748  0.00  0.00    +0.039 A 
ATOM     38  C18 UNL     1      -4.253  -1.917 -23.986  0.00  0.00    +0.123 A 
ATOM     39  F1  UNL     1      -4.690  -2.053 -25.245  0.00  0.00    -0.205 F 
ATOM     40  C19 UNL     1      -5.048  -2.370 -22.937  0.00  0.00    +0.039 A 
ATOM     41  C20 UNL     1      -4.601  -2.219 -21.624  0.00  0.00    +0.018 A 
ENDBRANCH  34  35
ENDBRANCH   6  34
TORSDOF 10
ENDMDL
MODEL 7
REMARK VINA RESULT:    -5.156      5.426     11.272
REMARK INTER + INTRA:         -10.240
REMARK INTER:                  -6.363
REMARK INTRA:                  -3.878
REMARK UNBOUND:                -2.070
REMARK  Name = /home/vital/Documents/PhD_2021/Malaria_codes/data/pdb_ligands_mmv/ligand_276.pdb
REMARK  14 active torsions:
REMARK  status: ('A' for Active; 'I' for Inactive)
REMARK    1  A    between atoms: C1_1  and  O1_2
REMARK    2  A    between atoms: O1_2  and  C2_3
REMARK    3  A    between atoms: C5_6  and  C6_7
REMARK    4  A    between atoms: C6_7  and  C7_8
REMARK    5  A    between atoms: C7_8  and  N1_9
REMARK    6  A    between atoms: C8_10  and  C9_12
REMARK    7  A    between atoms: C11_14  and  S2_26
REMARK    8  A    between atoms: C14_17  and  S1_18
REMARK    9  A    between atoms: S1_18  and  C15_19
REMARK   10  A    between atoms: S2_26  and  N2_29
REMARK   11  A    between atoms: C22_31  and  C23_32
REMARK   12  A    between atoms: C25_34  and  C26_35
REMARK   13  A    between atoms: C29_38  and  O5_39
REMARK   14  A    between atoms: O5_39  and  C30_40
REMARK                            x       y       z     vdW  Elec       q    Type
REMARK                         _______ _______ _______ _____ _____    ______ ____
ROOT
ATOM      1  C9  UNL     1       5.522  -4.020 -22.484  0.00  0.00    +0.052 A 
ATOM      2  C10 UNL     1       5.534  -4.689 -23.714  0.00  0.00    +0.042 A 
ATOM      3  C11 UNL     1       6.423  -4.269 -24.704  0.00  0.00    +0.106 A 
ATOM      4  C12 UNL     1       7.327  -3.232 -24.450  0.00  0.00    +0.029 A 
ATOM      5  C13 UNL     1       7.307  -2.572 -23.216  0.00  0.00    +0.018 A 
ATOM      6  C14 UNL     1       6.402  -2.958 -22.217  0.00  0.00    +0.025 A 
ENDROOT
BRANCH   1   8
ATOM      7  N1  UNL     1       3.390  -3.750 -21.420  0.00  0.00    -0.311 N 
ATOM      8  C8  UNL     1       4.554  -4.488 -21.479  0.00  0.00    +0.245 C 
ATOM      9  O2  UNL     1       4.809  -5.470 -20.795  0.00  0.00    -0.270 OA
ATOM     10  H10 UNL     1       3.349  -2.862 -21.905  0.00  0.00    +0.149 HD
BRANCH   7  11
ATOM     11  C7  UNL     1       2.387  -4.030 -20.411  0.00  0.00    +0.109 C 
BRANCH  11  12
ATOM     12  C6  UNL     1       2.649  -3.256 -19.116  0.00  0.00    +0.054 C 
BRANCH  12  16
ATOM     13  C2  UNL     1       0.769   0.635 -19.127  0.00  0.00    +0.161 A 
ATOM     14  C3  UNL     1       0.268  -0.396 -19.930  0.00  0.00    +0.049 A 
ATOM     15  C4  UNL     1       0.875  -1.654 -19.934  0.00  0.00    +0.007 A 
ATOM     16  C5  UNL     1       1.988  -1.902 -19.123  0.00  0.00    -0.042 A 
ATOM     17  C28 UNL     1       2.473  -0.878 -18.292  0.00  0.00    +0.053 A 
ATOM     18  C29 UNL     1       1.875   0.388 -18.289  0.00  0.00    +0.162 A 
BRANCH  13  20
ATOM     19  C1  UNL     1      -0.294   2.431 -20.284  0.00  0.00    +0.277 C 
ATOM     20  O1  UNL     1       0.234   1.900 -19.078  0.00  0.00    -0.491 OA
ENDBRANCH  13  20
BRANCH  18  21
ATOM     21  O5  UNL     1       2.302   1.444 -17.521  0.00  0.00    -0.491 OA
ATOM     22  C30 UNL     1       3.469   1.253 -16.732  0.00  0.00    +0.277 C 
ENDBRANCH  18  21
ENDBRANCH  12  16
ENDBRANCH  11  12
ENDBRANCH   7  11
ENDBRANCH   1   8
BRANCH   3  23
ATOM     23  S2  UNL     1       6.454  -5.106 -26.280  0.00  0.00    +0.061 S 
ATOM     24  O3  UNL     1       7.496  -4.488 -27.075  0.00  0.00    -0.153 OA
ATOM     25  O4  UNL     1       6.452  -6.529 -26.006  0.00  0.00    -0.153 OA
BRANCH  23  26
ATOM     26  N2  UNL     1       4.952  -4.685 -26.954  0.00  0.00    -0.176 NA
ATOM     27  C21 UNL     1       4.544  -3.267 -26.841  0.00  0.00    +0.112 C 
ATOM     28  C22 UNL     1       3.059  -3.032 -27.133  0.00  0.00    +0.002 C 
ATOM     29  C23 UNL     1       2.725  -3.099 -28.625  0.00  0.00    +0.009 C 
ATOM     30  C24 UNL     1       2.176  -3.951 -26.280  0.00  0.00    +0.009 C 
ATOM     31  C25 UNL     1       2.728  -5.376 -26.087  0.00  0.00    +0.002 C 
ATOM     32  C26 UNL     1       1.613  -6.416 -26.237  0.00  0.00    +0.009 C 
ATOM     33  C27 UNL     1       3.896  -5.713 -27.012  0.00  0.00    +0.112 C 
ENDBRANCH  23  26
ENDBRANCH   3  23
BRANCH   6  34
ATOM     34  S1  UNL     1       6.384  -2.046 -20.681  0.00  0.00    -0.089 S 
BRANCH  34  35
ATOM     35  C15 UNL     1       5.268  -0.714 -21.087  0.00  0.00    +0.013 A 
ATOM     36  C16 UNL     1       4.290  -0.868 -22.080  0.00  0.00    +0.018 A 
ATOM     37  C17 UNL     1       3.444   0.195 -22.403  0.00  0.00    +0.039 A 
ATOM     38  C18 UNL     1       3.588   1.409 -21.742  0.00  0.00    +0.123 A 
ATOM     39  F1  UNL     1       2.788   2.435 -22.062  0.00  0.00    -0.205 F 
ATOM     40  C19 UNL     1       4.556   1.582 -20.757  0.00  0.00    +0.039 A 
ATOM     41  C20 UNL     1       5.398   0.518 -20.430  0.00  0.00    +0.018 A 
ENDBRANCH  34  35
ENDBRANCH   6  34
TORSDOF 10
ENDMDL
MODEL 8
REMARK VINA RESULT:    -5.008      5.373      7.597
REMARK INTER + INTRA:         -10.007
REMARK INTER:                  -5.975
REMARK INTRA:                  -4.032
REMARK UNBOUND:                -2.070
REMARK  Name = /home/vital/Documents/PhD_2021/Malaria_codes/data/pdb_ligands_mmv/ligand_276.pdb
REMARK  14 active torsions:
REMARK  status: ('A' for Active; 'I' for Inactive)
REMARK    1  A    between atoms: C1_1  and  O1_2
REMARK    2  A    between atoms: O1_2  and  C2_3
REMARK    3  A    between atoms: C5_6  and  C6_7
REMARK    4  A    between atoms: C6_7  and  C7_8
REMARK    5  A    between atoms: C7_8  and  N1_9
REMARK    6  A    between atoms: C8_10  and  C9_12
REMARK    7  A    between atoms: C11_14  and  S2_26
REMARK    8  A    between atoms: C14_17  and  S1_18
REMARK    9  A    between atoms: S1_18  and  C15_19
REMARK   10  A    between atoms: S2_26  and  N2_29
REMARK   11  A    between atoms: C22_31  and  C23_32
REMARK   12  A    between atoms: C25_34  and  C26_35
REMARK   13  A    between atoms: C29_38  and  O5_39
REMARK   14  A    between atoms: O5_39  and  C30_40
REMARK                            x       y       z     vdW  Elec       q    Type
REMARK                         _______ _______ _______ _____ _____    ______ ____
ROOT
ATOM      1  C9  UNL     1       5.826  -0.416 -19.349  0.00  0.00    +0.052 A 
ATOM      2  C10 UNL     1       6.417  -0.364 -18.080  0.00  0.00    +0.042 A 
ATOM      3  C11 UNL     1       7.496   0.495 -17.870  0.00  0.00    +0.106 A 
ATOM      4  C12 UNL     1       7.945   1.332 -18.897  0.00  0.00    +0.029 A 
ATOM      5  C13 UNL     1       7.345   1.273 -20.161  0.00  0.00    +0.018 A 
ATOM      6  C14 UNL     1       6.278   0.396 -20.402  0.00  0.00    +0.025 A 
ENDROOT
BRANCH   1   8
ATOM      7  N1  UNL     1       5.076  -2.630 -19.881  0.00  0.00    -0.311 N 
ATOM      8  C8  UNL     1       4.703  -1.350 -19.525  0.00  0.00    +0.245 C 
ATOM      9  O2  UNL     1       3.556  -0.970 -19.337  0.00  0.00    -0.270 OA
ATOM     10  H10 UNL     1       6.030  -2.798 -20.176  0.00  0.00    +0.149 HD
BRANCH   7  11
ATOM     11  C7  UNL     1       4.074  -3.633 -20.188  0.00  0.00    +0.109 C 
BRANCH  11  12
ATOM     12  C6  UNL     1       4.678  -4.838 -20.914  0.00  0.00    +0.054 C 
BRANCH  12  16
ATOM     13  C2  UNL     1       5.590  -3.930 -25.039  0.00  0.00    +0.161 A 
ATOM     14  C3  UNL     1       6.302  -4.924 -24.358  0.00  0.00    +0.049 A 
ATOM     15  C4  UNL     1       6.014  -5.217 -23.024  0.00  0.00    +0.007 A 
ATOM     16  C5  UNL     1       5.000  -4.527 -22.353  0.00  0.00    -0.042 A 
ATOM     17  C28 UNL     1       4.261  -3.551 -23.044  0.00  0.00    +0.053 A 
ATOM     18  C29 UNL     1       4.549  -3.246 -24.380  0.00  0.00    +0.162 A 
BRANCH  13  20
ATOM     19  C1  UNL     1       6.764  -4.352 -27.074  0.00  0.00    +0.277 C 
ATOM     20  O1  UNL     1       5.822  -3.577 -26.347  0.00  0.00    -0.491 OA
ENDBRANCH  13  20
BRANCH  18  21
ATOM     21  O5  UNL     1       3.887  -2.294 -25.116  0.00  0.00    -0.491 OA
ATOM     22  C30 UNL     1       3.028  -1.403 -24.417  0.00  0.00    +0.277 C 
ENDBRANCH  18  21
ENDBRANCH  12  16
ENDBRANCH  11  12
ENDBRANCH   7  11
ENDBRANCH   1   8
BRANCH   3  23
ATOM     23  S2  UNL     1       8.266   0.575 -16.262  0.00  0.00    +0.061 S 
ATOM     24  O3  UNL     1       7.527  -0.312 -15.386  0.00  0.00    -0.153 OA
ATOM     25  O4  UNL     1       9.693   0.422 -16.467  0.00  0.00    -0.153 OA
BRANCH  23  26
ATOM     26  N2  UNL     1       7.959   2.175 -15.781  0.00  0.00    -0.176 NA
ATOM     27  C21 UNL     1       9.054   2.884 -15.082  0.00  0.00    +0.112 C 
ATOM     28  C22 UNL     1       8.600   4.160 -14.369  0.00  0.00    +0.002 C 
ATOM     29  C23 UNL     1       8.345   5.324 -15.330  0.00  0.00    +0.009 C 
ATOM     30  C24 UNL     1       7.414   3.881 -13.438  0.00  0.00    +0.009 C 
ATOM     31  C25 UNL     1       6.386   2.876 -13.989  0.00  0.00    +0.002 C 
ATOM     32  C26 UNL     1       4.957   3.357 -13.720  0.00  0.00    +0.009 C 
ATOM     33  C27 UNL     1       6.570   2.561 -15.473  0.00  0.00    +0.112 C 
ENDBRANCH  23  26
ENDBRANCH   3  23
BRANCH   6  34
ATOM     34  S1  UNL     1       5.586   0.325 -22.047  0.00  0.00    -0.089 S 
BRANCH  34  35
ATOM     35  C15 UNL     1       6.861  -0.573 -22.915  0.00  0.00    +0.013 A 
ATOM     36  C16 UNL     1       7.620  -1.558 -22.267  0.00  0.00    +0.018 A 
ATOM     37  C17 UNL     1       8.632  -2.230 -22.956  0.00  0.00    +0.039 A 
ATOM     38  C18 UNL     1       8.888  -1.906 -24.284  0.00  0.00    +0.123 A 
ATOM     39  F1  UNL     1       9.869  -2.539 -24.941  0.00  0.00    -0.205 F 
ATOM     40  C19 UNL     1       8.148  -0.928 -24.941  0.00  0.00    +0.039 A 
ATOM     41  C20 UNL     1       7.133  -0.260 -24.255  0.00  0.00    +0.018 A 
ENDBRANCH  34  35
ENDBRANCH   6  34
TORSDOF 10
ENDMDL
MODEL 9
REMARK VINA RESULT:    -4.882      8.527     11.417
REMARK INTER + INTRA:          -9.806
REMARK INTER:                  -6.377
REMARK INTRA:                  -3.429
REMARK UNBOUND:                -2.070
REMARK  Name = /home/vital/Documents/PhD_2021/Malaria_codes/data/pdb_ligands_mmv/ligand_276.pdb
REMARK  14 active torsions:
REMARK  status: ('A' for Active; 'I' for Inactive)
REMARK    1  A    between atoms: C1_1  and  O1_2
REMARK    2  A    between atoms: O1_2  and  C2_3
REMARK    3  A    between atoms: C5_6  and  C6_7
REMARK    4  A    between atoms: C6_7  and  C7_8
REMARK    5  A    between atoms: C7_8  and  N1_9
REMARK    6  A    between atoms: C8_10  and  C9_12
REMARK    7  A    between atoms: C11_14  and  S2_26
REMARK    8  A    between atoms: C14_17  and  S1_18
REMARK    9  A    between atoms: S1_18  and  C15_19
REMARK   10  A    between atoms: S2_26  and  N2_29
REMARK   11  A    between atoms: C22_31  and  C23_32
REMARK   12  A    between atoms: C25_34  and  C26_35
REMARK   13  A    between atoms: C29_38  and  O5_39
REMARK   14  A    between atoms: O5_39  and  C30_40
REMARK                            x       y       z     vdW  Elec       q    Type
REMARK                         _______ _______ _______ _____ _____    ______ ____
ROOT
ATOM      1  C9  UNL     1       1.533  -3.434 -24.324  0.00  0.00    +0.052 A 
ATOM      2  C10 UNL     1       0.412  -4.223 -24.039  0.00  0.00    +0.042 A 
ATOM      3  C11 UNL     1      -0.294  -3.996 -22.857  0.00  0.00    +0.106 A 
ATOM      4  C12 UNL     1       0.081  -2.957 -21.997  0.00  0.00    +0.029 A 
ATOM      5  C13 UNL     1       1.201  -2.173 -22.294  0.00  0.00    +0.018 A 
ATOM      6  C14 UNL     1       1.943  -2.403 -23.461  0.00  0.00    +0.025 A 
ENDROOT
BRANCH   1   8
ATOM      7  N1  UNL     1       3.331  -4.574 -25.426  0.00  0.00    -0.311 N 
ATOM      8  C8  UNL     1       2.254  -3.724 -25.573  0.00  0.00    +0.245 C 
ATOM      9  O2  UNL     1       1.871  -3.239 -26.628  0.00  0.00    -0.270 OA
ATOM     10  H10 UNL     1       3.666  -4.783 -24.493  0.00  0.00    +0.149 HD
BRANCH   7  11
ATOM     11  C7  UNL     1       4.198  -4.871 -26.550  0.00  0.00    +0.109 C 
BRANCH  11  12
ATOM     12  C6  UNL     1       5.592  -5.312 -26.096  0.00  0.00    +0.054 C 
BRANCH  12  16
ATOM     13  C2  UNL     1       7.988  -1.959 -24.796  0.00  0.00    +0.161 A 
ATOM     14  C3  UNL     1       8.139  -3.213 -24.193  0.00  0.00    +0.049 A 
ATOM     15  C4  UNL     1       7.363  -4.299 -24.607  0.00  0.00    +0.007 A 
ATOM     16  C5  UNL     1       6.431  -4.147 -25.639  0.00  0.00    -0.042 A 
ATOM     17  C28 UNL     1       6.301  -2.896 -26.266  0.00  0.00    +0.053 A 
ATOM     18  C29 UNL     1       7.069  -1.802 -25.852  0.00  0.00    +0.162 A 
BRANCH  13  20
ATOM     19  C1  UNL     1       8.739  -0.506 -23.058  0.00  0.00    +0.277 C 
ATOM     20  O1  UNL     1       8.705  -0.843 -24.437  0.00  0.00    -0.491 OA
ENDBRANCH  13  20
BRANCH  18  21
ATOM     21  O5  UNL     1       6.985  -0.545 -26.402  0.00  0.00    -0.491 OA
ATOM     22  C30 UNL     1       7.469  -0.374 -27.727  0.00  0.00    +0.277 C 
ENDBRANCH  18  21
ENDBRANCH  12  16
ENDBRANCH  11  12
ENDBRANCH   7  11
ENDBRANCH   1   8
BRANCH   3  23
ATOM     23  S2  UNL     1      -1.724  -4.992 -22.472  0.00  0.00    +0.061 S 
ATOM     24  O3  UNL     1      -2.064  -5.737 -23.667  0.00  0.00    -0.153 OA
ATOM     25  O4  UNL     1      -1.451  -5.659 -21.215  0.00  0.00    -0.153 OA
BRANCH  23  26
ATOM     26  N2  UNL     1      -2.931  -3.825 -22.212  0.00  0.00    -0.176 NA
ATOM     27  C21 UNL     1      -3.140  -2.830 -23.287  0.00  0.00    +0.112 C 
ATOM     28  C22 UNL     1      -3.965  -1.617 -22.847  0.00  0.00    +0.002 C 
ATOM     29  C23 UNL     1      -5.459  -1.923 -22.723  0.00  0.00    +0.009 C 
ATOM     30  C24 UNL     1      -3.378  -0.979 -21.583  0.00  0.00    +0.009 C 
ATOM     31  C25 UNL     1      -2.833  -1.981 -20.548  0.00  0.00    +0.002 C 
ATOM     32  C26 UNL     1      -3.244  -1.576 -19.130  0.00  0.00    +0.009 C 
ATOM     33  C27 UNL     1      -3.237  -3.429 -20.825  0.00  0.00    +0.112 C 
ENDBRANCH  23  26
ENDBRANCH   3  23
BRANCH   6  34
ATOM     34  S1  UNL     1       3.395  -1.408 -23.762  0.00  0.00    -0.089 S 
BRANCH  34  35
ATOM     35  C15 UNL     1       4.486  -1.999 -22.480  0.00  0.00    +0.013 A 
ATOM     36  C16 UNL     1       4.626  -3.371 -22.226  0.00  0.00    +0.018 A 
ATOM     37  C17 UNL     1       5.464  -3.813 -21.200  0.00  0.00    +0.039 A 
ATOM     38  C18 UNL     1       6.148  -2.883 -20.426  0.00  0.00    +0.123 A 
ATOM     39  F1  UNL     1       6.939  -3.304 -19.431  0.00  0.00    -0.205 F 
ATOM     40  C19 UNL     1       6.017  -1.517 -20.661  0.00  0.00    +0.039 A 
ATOM     41  C20 UNL     1       5.184  -1.075 -21.689  0.00  0.00    +0.018 A 
ENDBRANCH  34  35
ENDBRANCH   6  34
TORSDOF 10
ENDMDL
