MODEL 1
REMARK VINA RESULT:    -8.104      0.000      0.000
REMARK INTER + INTRA:         -15.704
REMARK INTER:                 -11.421
REMARK INTRA:                  -4.283
REMARK UNBOUND:                -4.283
REMARK  Name = /home/vital/Documents/PhD_2021/Malaria_codes/data/pdb_ligands_mmv/ligand_26.pdb
REMARK  11 active torsions:
REMARK  status: ('A' for Active; 'I' for Inactive)
REMARK    1  A    between atoms: C1_1  and  O1_2
REMARK    2  A    between atoms: O1_2  and  C2_3
REMARK    3  A    between atoms: C5_6  and  C43_48
REMARK    4  A    between atoms: C7_8  and  N1_9
REMARK    5  A    between atoms: C12_16  and  C37_42
REMARK    6  A    between atoms: C14_19  and  C31_36
REMARK    7  A    between atoms: C15_20  and  C24_29
REMARK    8  A    between atoms: C16_21  and  C17_22
REMARK    9  A    between atoms: C20_25  and  C21_26
REMARK   10  A    between atoms: C27_32  and  C28_33
REMARK   11  A    between atoms: C43_48  and  C44_50
REMARK                            x       y       z     vdW  Elec       q    Type
REMARK                         _______ _______ _______ _____ _____    ______ ____
ROOT
ATOM      1  N1  UNL     1       4.293   0.562 -17.590  0.00  0.00    -0.206 N 
ATOM      2  C8  UNL     1       2.989   0.148 -17.768  0.00  0.00    +0.232 C 
ATOM      3  O2  UNL     1       1.986   0.540 -17.188  0.00  0.00    -0.274 OA
ATOM      4  C9  UNL     1       2.969  -1.044 -18.704  0.00  0.00    +0.111 C 
ATOM      5  C10 UNL     1       4.478  -1.287 -19.000  0.00  0.00    +0.111 C 
ATOM      6  C11 UNL     1       5.181  -0.384 -18.024  0.00  0.00    +0.232 C 
ATOM      7  O3  UNL     1       6.346  -0.551 -17.690  0.00  0.00    -0.274 OA
ATOM      8  C12 UNL     1       4.667  -0.898 -20.504  0.00  0.00    +0.093 C 
ATOM      9  C13 UNL     1       3.502   0.064 -20.602  0.00  0.00    +0.164 C 
ATOM     10  O4  UNL     1       3.524   1.243 -20.898  0.00  0.00    -0.295 OA
ATOM     11  C14 UNL     1       2.327  -0.744 -20.084  0.00  0.00    +0.093 C 
ATOM     12  C15 UNL     1       2.613  -1.931 -21.010  0.00  0.00    -0.017 C 
ATOM     13  C16 UNL     1       3.931  -1.977 -21.302  0.00  0.00    -0.017 C 
ENDROOT
BRANCH  13  14
ATOM     14  C17 UNL     1       4.584  -2.902 -22.223  0.00  0.00    -0.020 A 
ATOM     15  C18 UNL     1       4.789  -2.516 -23.550  0.00  0.00    +0.008 A 
ATOM     16  C19 UNL     1       5.406  -3.383 -24.450  0.00  0.00    +0.004 A 
ATOM     17  C20 UNL     1       5.819  -4.654 -24.036  0.00  0.00    -0.050 A 
ATOM     18  C21 UNL     1       6.461  -5.597 -25.007  0.00  0.00    +0.044 C 
ATOM     19  C22 UNL     1       5.598  -5.047 -22.707  0.00  0.00    +0.004 A 
ATOM     20  C23 UNL     1       4.985  -4.175 -21.805  0.00  0.00    +0.008 A 
ENDBRANCH  13  14
BRANCH  12  21
ATOM     21  C24 UNL     1       1.599  -2.873 -21.479  0.00  0.00    -0.020 A 
ATOM     22  C25 UNL     1       0.967  -2.657 -22.709  0.00  0.00    +0.008 A 
ATOM     23  C26 UNL     1      -0.034  -3.526 -23.148  0.00  0.00    +0.004 A 
ATOM     24  C27 UNL     1      -0.409  -4.627 -22.372  0.00  0.00    -0.050 A 
ATOM     25  C28 UNL     1      -1.511  -5.541 -22.821  0.00  0.00    +0.044 C 
ATOM     26  C29 UNL     1       0.224  -4.838 -21.140  0.00  0.00    +0.004 A 
ATOM     27  C30 UNL     1       1.216  -3.962 -20.695  0.00  0.00    +0.008 A 
ENDBRANCH  12  21
BRANCH   1  33
ATOM     28  C2  UNL     1       5.371   2.747 -17.230  0.00  0.00    +0.142 A 
ATOM     29  C3  UNL     1       5.690   3.811 -16.374  0.00  0.00    +0.048 A 
ATOM     30  C4  UNL     1       5.298   3.783 -15.031  0.00  0.00    +0.015 A 
ATOM     31  C5  UNL     1       4.589   2.690 -14.524  0.00  0.00    +0.019 A 
ATOM     32  C6  UNL     1       4.271   1.623 -15.373  0.00  0.00    +0.039 A 
ATOM     33  C7  UNL     1       4.629   1.649 -16.735  0.00  0.00    +0.086 A 
BRANCH  31  34
ATOM     34  C43 UNL     1       4.192   2.697 -13.084  0.00  0.00    +0.160 C 
ATOM     35  O5  UNL     1       4.081   1.632 -12.478  0.00  0.00    -0.292 OA
ATOM     36  C44 UNL     1       3.920   4.014 -12.406  0.00  0.00    +0.091 C 
ENDBRANCH  31  34
BRANCH  28  38
ATOM     37  C1  UNL     1       7.203   2.806 -18.774  0.00  0.00    +0.277 C 
ATOM     38  O1  UNL     1       5.806   2.656 -18.528  0.00  0.00    -0.493 OA
ENDBRANCH  28  38
ENDBRANCH   1  33
BRANCH  11  39
ATOM     39  C31 UNL     1       0.931  -0.181 -20.155  0.00  0.00    -0.029 A 
ATOM     40  C32 UNL     1       0.578   0.863 -21.025  0.00  0.00    +0.005 A 
ATOM     41  C33 UNL     1      -0.738   1.335 -21.090  0.00  0.00    +0.000 A 
ATOM     42  C34 UNL     1      -1.728   0.764 -20.297  0.00  0.00    +0.000 A 
ATOM     43  C35 UNL     1      -1.407  -0.289 -19.446  0.00  0.00    +0.000 A 
ATOM     44  C36 UNL     1      -0.092  -0.755 -19.376  0.00  0.00    +0.005 A 
ENDBRANCH  11  39
BRANCH   8  45
ATOM     45  C37 UNL     1       6.052  -0.521 -20.961  0.00  0.00    -0.029 A 
ATOM     46  C38 UNL     1       7.116  -1.420 -20.740  0.00  0.00    +0.005 A 
ATOM     47  C39 UNL     1       8.418  -1.122 -21.144  0.00  0.00    +0.000 A 
ATOM     48  C40 UNL     1       8.691   0.086 -21.775  0.00  0.00    +0.000 A 
ATOM     49  C41 UNL     1       7.657   0.984 -22.011  0.00  0.00    +0.000 A 
ATOM     50  C42 UNL     1       6.349   0.680 -21.621  0.00  0.00    +0.005 A 
ENDBRANCH   8  45
TORSDOF 7
ENDMDL
MODEL 2
REMARK VINA RESULT:    -8.051      2.721      6.553
REMARK INTER + INTRA:         -15.629
REMARK INTER:                 -11.231
REMARK INTRA:                  -4.398
REMARK UNBOUND:                -4.283
REMARK  Name = /home/vital/Documents/PhD_2021/Malaria_codes/data/pdb_ligands_mmv/ligand_26.pdb
REMARK  11 active torsions:
REMARK  status: ('A' for Active; 'I' for Inactive)
REMARK    1  A    between atoms: C1_1  and  O1_2
REMARK    2  A    between atoms: O1_2  and  C2_3
REMARK    3  A    between atoms: C5_6  and  C43_48
REMARK    4  A    between atoms: C7_8  and  N1_9
REMARK    5  A    between atoms: C12_16  and  C37_42
REMARK    6  A    between atoms: C14_19  and  C31_36
REMARK    7  A    between atoms: C15_20  and  C24_29
REMARK    8  A    between atoms: C16_21  and  C17_22
REMARK    9  A    between atoms: C20_25  and  C21_26
REMARK   10  A    between atoms: C27_32  and  C28_33
REMARK   11  A    between atoms: C43_48  and  C44_50
REMARK                            x       y       z     vdW  Elec       q    Type
REMARK                         _______ _______ _______ _____ _____    ______ ____
ROOT
ATOM      1  N1  UNL     1       0.551   2.511 -20.738  0.00  0.00    -0.206 N 
ATOM      2  C8  UNL     1       1.866   2.123 -20.896  0.00  0.00    +0.232 C 
ATOM      3  O2  UNL     1       2.877   2.782 -20.697  0.00  0.00    -0.274 OA
ATOM      4  C9  UNL     1       1.906   0.757 -21.549  0.00  0.00    +0.111 C 
ATOM      5  C10 UNL     1       0.402   0.435 -21.793  0.00  0.00    +0.111 C 
ATOM      6  C11 UNL     1      -0.291   1.734 -21.485  0.00  0.00    +0.232 C 
ATOM      7  O3  UNL     1      -1.411   1.999 -21.900  0.00  0.00    -0.274 OA
ATOM      8  C12 UNL     1       0.070  -0.734 -20.806  0.00  0.00    +0.093 C 
ATOM      9  C13 UNL     1       1.146  -0.435 -19.784  0.00  0.00    +0.164 C 
ATOM     10  O4  UNL     1       1.011  -0.177 -18.603  0.00  0.00    -0.295 OA
ATOM     11  C14 UNL     1       2.416  -0.370 -20.611  0.00  0.00    +0.093 C 
ATOM     12  C15 UNL     1       2.153  -1.715 -21.296  0.00  0.00    -0.017 C 
ATOM     13  C16 UNL     1       0.823  -1.952 -21.345  0.00  0.00    -0.017 C 
ENDROOT
BRANCH  13  14
ATOM     14  C17 UNL     1       0.175  -3.164 -21.836  0.00  0.00    -0.020 A 
ATOM     15  C18 UNL     1      -0.198  -3.243 -23.181  0.00  0.00    +0.008 A 
ATOM     16  C19 UNL     1      -0.822  -4.387 -23.673  0.00  0.00    +0.004 A 
ATOM     17  C20 UNL     1      -1.091  -5.466 -22.825  0.00  0.00    -0.050 A 
ATOM     18  C21 UNL     1      -1.783  -6.687 -23.346  0.00  0.00    +0.044 C 
ATOM     19  C22 UNL     1      -0.732  -5.379 -21.471  0.00  0.00    +0.004 A 
ATOM     20  C23 UNL     1      -0.100  -4.234 -20.979  0.00  0.00    +0.008 A 
ENDBRANCH  13  14
BRANCH  12  21
ATOM     21  C24 UNL     1       3.197  -2.587 -21.828  0.00  0.00    -0.020 A 
ATOM     22  C25 UNL     1       3.665  -2.395 -23.133  0.00  0.00    +0.008 A 
ATOM     23  C26 UNL     1       4.631  -3.250 -23.668  0.00  0.00    +0.004 A 
ATOM     24  C27 UNL     1       5.152  -4.299 -22.904  0.00  0.00    -0.050 A 
ATOM     25  C28 UNL     1       6.161  -5.243 -23.487  0.00  0.00    +0.044 C 
ATOM     26  C29 UNL     1       4.679  -4.489 -21.599  0.00  0.00    +0.004 A 
ATOM     27  C30 UNL     1       3.704  -3.643 -21.068  0.00  0.00    +0.008 A 
ENDBRANCH  12  21
BRANCH   1  33
ATOM     28  C2  UNL     1       0.270   4.948 -20.957  0.00  0.00    +0.142 A 
ATOM     29  C3  UNL     1      -0.084   6.180 -20.389  0.00  0.00    +0.048 A 
ATOM     30  C4  UNL     1      -0.486   6.253 -19.050  0.00  0.00    +0.015 A 
ATOM     31  C5  UNL     1      -0.532   5.100 -18.261  0.00  0.00    +0.019 A 
ATOM     32  C6  UNL     1      -0.177   3.868 -18.822  0.00  0.00    +0.039 A 
ATOM     33  C7  UNL     1       0.198   3.770 -20.176  0.00  0.00    +0.086 A 
BRANCH  31  34
ATOM     34  C43 UNL     1      -0.962   5.223 -16.836  0.00  0.00    +0.160 C 
ATOM     35  O5  UNL     1      -2.156   5.364 -16.570  0.00  0.00    -0.292 OA
ATOM     36  C44 UNL     1       0.081   5.188 -15.750  0.00  0.00    +0.091 C 
ENDBRANCH  31  34
BRANCH  28  38
ATOM     37  C1  UNL     1      -0.118   5.041 -23.320  0.00  0.00    +0.277 C 
ATOM     38  O1  UNL     1       0.769   4.809 -22.228  0.00  0.00    -0.493 OA
ENDBRANCH  28  38
ENDBRANCH   1  33
BRANCH  11  39
ATOM     39  C31 UNL     1       3.755  -0.231 -19.934  0.00  0.00    -0.029 A 
ATOM     40  C32 UNL     1       3.946  -0.506 -18.570  0.00  0.00    +0.005 A 
ATOM     41  C33 UNL     1       5.212  -0.402 -17.984  0.00  0.00    +0.000 A 
ATOM     42  C34 UNL     1       6.313  -0.036 -18.752  0.00  0.00    +0.000 A 
ATOM     43  C35 UNL     1       6.154   0.214 -20.111  0.00  0.00    +0.000 A 
ATOM     44  C36 UNL     1       4.887   0.119 -20.694  0.00  0.00    +0.005 A 
ENDBRANCH  11  39
BRANCH   8  45
ATOM     45  C37 UNL     1      -1.371  -0.928 -20.411  0.00  0.00    -0.029 A 
ATOM     46  C38 UNL     1      -2.333  -1.155 -21.418  0.00  0.00    +0.005 A 
ATOM     47  C39 UNL     1      -3.681  -1.344 -21.109  0.00  0.00    +0.000 A 
ATOM     48  C40 UNL     1      -4.103  -1.304 -19.784  0.00  0.00    +0.000 A 
ATOM     49  C41 UNL     1      -3.171  -1.091 -18.775  0.00  0.00    +0.000 A 
ATOM     50  C42 UNL     1      -1.818  -0.917 -19.082  0.00  0.00    +0.005 A 
ENDBRANCH   8  45
TORSDOF 7
ENDMDL
MODEL 3
REMARK VINA RESULT:    -7.999      8.548     13.074
REMARK INTER + INTRA:         -15.556
REMARK INTER:                 -11.155
REMARK INTRA:                  -4.401
REMARK UNBOUND:                -4.283
REMARK  Name = /home/vital/Documents/PhD_2021/Malaria_codes/data/pdb_ligands_mmv/ligand_26.pdb
REMARK  11 active torsions:
REMARK  status: ('A' for Active; 'I' for Inactive)
REMARK    1  A    between atoms: C1_1  and  O1_2
REMARK    2  A    between atoms: O1_2  and  C2_3
REMARK    3  A    between atoms: C5_6  and  C43_48
REMARK    4  A    between atoms: C7_8  and  N1_9
REMARK    5  A    between atoms: C12_16  and  C37_42
REMARK    6  A    between atoms: C14_19  and  C31_36
REMARK    7  A    between atoms: C15_20  and  C24_29
REMARK    8  A    between atoms: C16_21  and  C17_22
REMARK    9  A    between atoms: C20_25  and  C21_26
REMARK   10  A    between atoms: C27_32  and  C28_33
REMARK   11  A    between atoms: C43_48  and  C44_50
REMARK                            x       y       z     vdW  Elec       q    Type
REMARK                         _______ _______ _______ _____ _____    ______ ____
ROOT
ATOM      1  N1  UNL     1       0.331  -2.503 -32.074  0.00  0.00    -0.206 N 
ATOM      2  C8  UNL     1      -0.628  -3.044 -31.241  0.00  0.00    +0.232 C 
ATOM      3  O2  UNL     1      -1.813  -3.232 -31.475  0.00  0.00    -0.274 OA
ATOM      4  C9  UNL     1      -0.036  -3.230 -29.859  0.00  0.00    +0.111 C 
ATOM      5  C10 UNL     1       1.405  -2.661 -30.010  0.00  0.00    +0.111 C 
ATOM      6  C11 UNL     1       1.386  -2.003 -31.362  0.00  0.00    +0.232 C 
ATOM      7  O3  UNL     1       2.191  -1.143 -31.689  0.00  0.00    -0.274 OA
ATOM      8  C12 UNL     1       2.348  -3.905 -29.901  0.00  0.00    +0.093 C 
ATOM      9  C13 UNL     1       1.349  -4.946 -30.360  0.00  0.00    +0.164 C 
ATOM     10  O4  UNL     1       1.430  -5.698 -31.312  0.00  0.00    -0.295 OA
ATOM     11  C14 UNL     1       0.153  -4.716 -29.455  0.00  0.00    +0.093 C 
ATOM     12  C15 UNL     1       0.994  -4.758 -28.175  0.00  0.00    -0.017 C 
ATOM     13  C16 UNL     1       2.258  -4.362 -28.443  0.00  0.00    -0.017 C 
ENDROOT
BRANCH  13  14
ATOM     14  C17 UNL     1       3.381  -4.352 -27.511  0.00  0.00    -0.020 A 
ATOM     15  C18 UNL     1       3.569  -3.244 -26.680  0.00  0.00    +0.008 A 
ATOM     16  C19 UNL     1       4.635  -3.207 -25.784  0.00  0.00    +0.004 A 
ATOM     17  C20 UNL     1       5.536  -4.275 -25.713  0.00  0.00    -0.050 A 
ATOM     18  C21 UNL     1       6.698  -4.228 -24.769  0.00  0.00    +0.044 C 
ATOM     19  C22 UNL     1       5.357  -5.379 -26.561  0.00  0.00    +0.004 A 
ATOM     20  C23 UNL     1       4.283  -5.418 -27.454  0.00  0.00    +0.008 A 
ENDBRANCH  13  14
BRANCH  12  21
ATOM     21  C24 UNL     1       0.481  -5.151 -26.864  0.00  0.00    -0.020 A 
ATOM     22  C25 UNL     1       0.695  -6.452 -26.396  0.00  0.00    +0.008 A 
ATOM     23  C26 UNL     1       0.172  -6.853 -25.165  0.00  0.00    +0.004 A 
ATOM     24  C27 UNL     1      -0.560  -5.957 -24.379  0.00  0.00    -0.050 A 
ATOM     25  C28 UNL     1      -1.157  -6.394 -23.074  0.00  0.00    +0.044 C 
ATOM     26  C29 UNL     1      -0.774  -4.656 -24.852  0.00  0.00    +0.004 A 
ATOM     27  C30 UNL     1      -0.263  -4.259 -26.089  0.00  0.00    +0.008 A 
ENDBRANCH  12  21
BRANCH   1  33
ATOM     28  C2  UNL     1       0.477  -3.055 -34.470  0.00  0.00    +0.142 A 
ATOM     29  C3  UNL     1       0.194  -2.731 -35.805  0.00  0.00    +0.048 A 
ATOM     30  C4  UNL     1      -0.483  -1.546 -36.118  0.00  0.00    +0.015 A 
ATOM     31  C5  UNL     1      -0.879  -0.668 -35.105  0.00  0.00    +0.019 A 
ATOM     32  C6  UNL     1      -0.596  -0.985 -33.771  0.00  0.00    +0.039 A 
ATOM     33  C7  UNL     1       0.055  -2.188 -33.435  0.00  0.00    +0.086 A 
BRANCH  31  34
ATOM     34  C43 UNL     1      -1.595   0.587 -35.483  0.00  0.00    +0.160 C 
ATOM     35  O5  UNL     1      -0.958   1.544 -35.922  0.00  0.00    -0.292 OA
ATOM     36  C44 UNL     1      -3.089   0.661 -35.302  0.00  0.00    +0.091 C 
ENDBRANCH  31  34
BRANCH  28  38
ATOM     37  C1  UNL     1       1.029  -5.362 -34.804  0.00  0.00    +0.277 C 
ATOM     38  O1  UNL     1       1.222  -4.143 -34.091  0.00  0.00    -0.493 OA
ENDBRANCH  28  38
ENDBRANCH   1  33
BRANCH  11  39
ATOM     39  C31 UNL     1      -1.021  -5.660 -29.497  0.00  0.00    -0.029 A 
ATOM     40  C32 UNL     1      -0.924  -6.969 -29.996  0.00  0.00    +0.005 A 
ATOM     41  C33 UNL     1      -2.027  -7.829 -29.984  0.00  0.00    +0.000 A 
ATOM     42  C34 UNL     1      -3.244  -7.403 -29.462  0.00  0.00    +0.000 A 
ATOM     43  C35 UNL     1      -3.357  -6.119 -28.938  0.00  0.00    +0.000 A 
ATOM     44  C36 UNL     1      -2.258  -5.257 -28.957  0.00  0.00    +0.005 A 
ENDBRANCH  11  39
BRANCH   8  45
ATOM     45  C37 UNL     1       3.722  -3.798 -30.510  0.00  0.00    -0.029 A 
ATOM     46  C38 UNL     1       4.086  -4.688 -31.543  0.00  0.00    +0.005 A 
ATOM     47  C39 UNL     1       5.344  -4.632 -32.143  0.00  0.00    +0.000 A 
ATOM     48  C40 UNL     1       6.275  -3.688 -31.722  0.00  0.00    +0.000 A 
ATOM     49  C41 UNL     1       5.935  -2.796 -30.713  0.00  0.00    +0.000 A 
ATOM     50  C42 UNL     1       4.669  -2.840 -30.121  0.00  0.00    +0.005 A 
ENDBRANCH   8  45
TORSDOF 7
ENDMDL
MODEL 4
REMARK VINA RESULT:    -7.773      4.266      8.010
REMARK INTER + INTRA:         -15.236
REMARK INTER:                 -10.975
REMARK INTRA:                  -4.261
REMARK UNBOUND:                -4.283
REMARK  Name = /home/vital/Documents/PhD_2021/Malaria_codes/data/pdb_ligands_mmv/ligand_26.pdb
REMARK  11 active torsions:
REMARK  status: ('A' for Active; 'I' for Inactive)
REMARK    1  A    between atoms: C1_1  and  O1_2
REMARK    2  A    between atoms: O1_2  and  C2_3
REMARK    3  A    between atoms: C5_6  and  C43_48
REMARK    4  A    between atoms: C7_8  and  N1_9
REMARK    5  A    between atoms: C12_16  and  C37_42
REMARK    6  A    between atoms: C14_19  and  C31_36
REMARK    7  A    between atoms: C15_20  and  C24_29
REMARK    8  A    between atoms: C16_21  and  C17_22
REMARK    9  A    between atoms: C20_25  and  C21_26
REMARK   10  A    between atoms: C27_32  and  C28_33
REMARK   11  A    between atoms: C43_48  and  C44_50
REMARK                            x       y       z     vdW  Elec       q    Type
REMARK                         _______ _______ _______ _____ _____    ______ ____
ROOT
ATOM      1  N1  UNL     1      -0.729  -0.998 -22.141  0.00  0.00    -0.206 N 
ATOM      2  C8  UNL     1       0.647  -0.931 -22.051  0.00  0.00    +0.232 C 
ATOM      3  O2  UNL     1       1.322  -0.308 -21.243  0.00  0.00    -0.274 OA
ATOM      4  C9  UNL     1       1.258  -1.627 -23.250  0.00  0.00    +0.111 C 
ATOM      5  C10 UNL     1       0.014  -2.063 -24.079  0.00  0.00    +0.111 C 
ATOM      6  C11 UNL     1      -1.129  -1.363 -23.397  0.00  0.00    +0.232 C 
ATOM      7  O3  UNL     1      -2.200  -1.155 -23.949  0.00  0.00    -0.274 OA
ATOM      8  C12 UNL     1      -0.019  -3.624 -23.974  0.00  0.00    +0.093 C 
ATOM      9  C13 UNL     1       0.728  -3.745 -22.662  0.00  0.00    +0.164 C 
ATOM     10  O4  UNL     1       0.347  -4.249 -21.624  0.00  0.00    -0.295 OA
ATOM     11  C14 UNL     1       1.996  -2.945 -22.899  0.00  0.00    +0.093 C 
ATOM     12  C15 UNL     1       2.323  -3.671 -24.208  0.00  0.00    -0.017 C 
ATOM     13  C16 UNL     1       1.184  -4.115 -24.783  0.00  0.00    -0.017 C 
ENDROOT
BRANCH  13  14
ATOM     14  C17 UNL     1       1.081  -4.929 -25.990  0.00  0.00    -0.020 A 
ATOM     15  C18 UNL     1       1.015  -4.299 -27.236  0.00  0.00    +0.008 A 
ATOM     16  C19 UNL     1       0.912  -5.053 -28.403  0.00  0.00    +0.004 A 
ATOM     17  C20 UNL     1       0.863  -6.450 -28.340  0.00  0.00    -0.050 A 
ATOM     18  C21 UNL     1       0.728  -7.262 -29.591  0.00  0.00    +0.044 C 
ATOM     19  C22 UNL     1       0.912  -7.081 -27.087  0.00  0.00    +0.004 A 
ATOM     20  C23 UNL     1       1.021  -6.324 -25.919  0.00  0.00    +0.008 A 
ENDBRANCH  13  14
BRANCH  12  21
ATOM     21  C24 UNL     1       3.671  -3.830 -24.748  0.00  0.00    -0.020 A 
ATOM     22  C25 UNL     1       4.512  -4.824 -24.234  0.00  0.00    +0.008 A 
ATOM     23  C26 UNL     1       5.818  -4.958 -24.710  0.00  0.00    +0.004 A 
ATOM     24  C27 UNL     1       6.298  -4.110 -25.714  0.00  0.00    -0.050 A 
ATOM     25  C28 UNL     1       7.712  -4.224 -26.201  0.00  0.00    +0.044 C 
ATOM     26  C29 UNL     1       5.454  -3.115 -26.224  0.00  0.00    +0.004 A 
ATOM     27  C30 UNL     1       4.153  -2.972 -25.738  0.00  0.00    +0.008 A 
ENDBRANCH  12  21
BRANCH   1  33
ATOM     28  C2  UNL     1      -2.402  -1.208 -20.346  0.00  0.00    +0.142 A 
ATOM     29  C3  UNL     1      -3.229  -0.604 -19.388  0.00  0.00    +0.048 A 
ATOM     30  C4  UNL     1      -3.260   0.789 -19.255  0.00  0.00    +0.015 A 
ATOM     31  C5  UNL     1      -2.471   1.596 -20.079  0.00  0.00    +0.019 A 
ATOM     32  C6  UNL     1      -1.646   1.000 -21.040  0.00  0.00    +0.039 A 
ATOM     33  C7  UNL     1      -1.578  -0.401 -21.166  0.00  0.00    +0.086 A 
BRANCH  31  34
ATOM     34  C43 UNL     1      -2.537   3.078 -19.907  0.00  0.00    +0.160 C 
ATOM     35  O5  UNL     1      -3.490   3.581 -19.313  0.00  0.00    -0.292 OA
ATOM     36  C44 UNL     1      -1.437   3.932 -20.482  0.00  0.00    +0.091 C 
ENDBRANCH  31  34
BRANCH  28  38
ATOM     37  C1  UNL     1      -3.611  -3.274 -20.437  0.00  0.00    +0.277 C 
ATOM     38  O1  UNL     1      -2.392  -2.555 -20.605  0.00  0.00    -0.493 OA
ENDBRANCH  28  38
ENDBRANCH   1  33
BRANCH  11  39
ATOM     39  C31 UNL     1       3.091  -2.938 -21.864  0.00  0.00    -0.029 A 
ATOM     40  C32 UNL     1       3.180  -3.903 -20.848  0.00  0.00    +0.005 A 
ATOM     41  C33 UNL     1       4.232  -3.887 -19.926  0.00  0.00    +0.000 A 
ATOM     42  C34 UNL     1       5.224  -2.914 -20.011  0.00  0.00    +0.000 A 
ATOM     43  C35 UNL     1       5.172  -1.964 -21.026  0.00  0.00    +0.000 A 
ATOM     44  C36 UNL     1       4.116  -1.976 -21.941  0.00  0.00    +0.005 A 
ENDBRANCH  11  39
BRANCH   8  45
ATOM     45  C37 UNL     1      -1.338  -4.314 -24.205  0.00  0.00    -0.029 A 
ATOM     46  C38 UNL     1      -1.833  -5.195 -23.219  0.00  0.00    +0.005 A 
ATOM     47  C39 UNL     1      -3.050  -5.858 -23.380  0.00  0.00    +0.000 A 
ATOM     48  C40 UNL     1      -3.801  -5.663 -24.535  0.00  0.00    +0.000 A 
ATOM     49  C41 UNL     1      -3.337  -4.794 -25.515  0.00  0.00    +0.000 A 
ATOM     50  C42 UNL     1      -2.126  -4.116 -25.348  0.00  0.00    +0.005 A 
ENDBRANCH   8  45
TORSDOF 7
ENDMDL
MODEL 5
REMARK VINA RESULT:    -7.727      3.624      8.386
REMARK INTER + INTRA:         -15.173
REMARK INTER:                 -10.918
REMARK INTRA:                  -4.255
REMARK UNBOUND:                -4.283
REMARK  Name = /home/vital/Documents/PhD_2021/Malaria_codes/data/pdb_ligands_mmv/ligand_26.pdb
REMARK  11 active torsions:
REMARK  status: ('A' for Active; 'I' for Inactive)
REMARK    1  A    between atoms: C1_1  and  O1_2
REMARK    2  A    between atoms: O1_2  and  C2_3
REMARK    3  A    between atoms: C5_6  and  C43_48
REMARK    4  A    between atoms: C7_8  and  N1_9
REMARK    5  A    between atoms: C12_16  and  C37_42
REMARK    6  A    between atoms: C14_19  and  C31_36
REMARK    7  A    between atoms: C15_20  and  C24_29
REMARK    8  A    between atoms: C16_21  and  C17_22
REMARK    9  A    between atoms: C20_25  and  C21_26
REMARK   10  A    between atoms: C27_32  and  C28_33
REMARK   11  A    between atoms: C43_48  and  C44_50
REMARK                            x       y       z     vdW  Elec       q    Type
REMARK                         _______ _______ _______ _____ _____    ______ ____
ROOT
ATOM      1  N1  UNL     1       2.586  -2.931 -23.416  0.00  0.00    -0.206 N 
ATOM      2  C8  UNL     1       1.398  -3.338 -23.990  0.00  0.00    +0.232 C 
ATOM      3  O2  UNL     1       1.196  -4.317 -24.694  0.00  0.00    -0.274 OA
ATOM      4  C9  UNL     1       0.347  -2.269 -23.768  0.00  0.00    +0.111 C 
ATOM      5  C10 UNL     1       1.131  -1.151 -23.019  0.00  0.00    +0.111 C 
ATOM      6  C11 UNL     1       2.564  -1.596 -23.119  0.00  0.00    +0.232 C 
ATOM      7  O3  UNL     1       3.505  -0.826 -22.981  0.00  0.00    -0.274 OA
ATOM      8  C12 UNL     1       0.547  -1.147 -21.566  0.00  0.00    +0.093 C 
ATOM      9  C13 UNL     1       0.072  -2.584 -21.545  0.00  0.00    +0.164 C 
ATOM     10  O4  UNL     1       0.401  -3.474 -20.785  0.00  0.00    -0.295 OA
ATOM     11  C14 UNL     1      -0.783  -2.696 -22.794  0.00  0.00    +0.093 C 
ATOM     12  C15 UNL     1      -1.612  -1.453 -22.453  0.00  0.00    -0.017 C 
ATOM     13  C16 UNL     1      -0.878  -0.606 -21.699  0.00  0.00    -0.017 C 
ENDROOT
BRANCH  13  14
ATOM     14  C17 UNL     1      -1.339   0.642 -21.098  0.00  0.00    -0.020 A 
ATOM     15  C18 UNL     1      -1.069   1.853 -21.743  0.00  0.00    +0.008 A 
ATOM     16  C19 UNL     1      -1.494   3.057 -21.187  0.00  0.00    +0.004 A 
ATOM     17  C20 UNL     1      -2.189   3.070 -19.973  0.00  0.00    -0.050 A 
ATOM     18  C21 UNL     1      -2.625   4.366 -19.362  0.00  0.00    +0.044 C 
ATOM     19  C22 UNL     1      -2.444   1.856 -19.318  0.00  0.00    +0.004 A 
ATOM     20  C23 UNL     1      -2.023   0.648 -19.878  0.00  0.00    +0.008 A 
ENDBRANCH  13  14
BRANCH  12  21
ATOM     21  C24 UNL     1      -2.984  -1.229 -22.904  0.00  0.00    -0.020 A 
ATOM     22  C25 UNL     1      -3.218  -0.550 -24.105  0.00  0.00    +0.008 A 
ATOM     23  C26 UNL     1      -4.525  -0.290 -24.524  0.00  0.00    +0.004 A 
ATOM     24  C27 UNL     1      -5.614  -0.715 -23.757  0.00  0.00    -0.050 A 
ATOM     25  C28 UNL     1      -7.018  -0.404 -24.183  0.00  0.00    +0.044 C 
ATOM     26  C29 UNL     1      -5.375  -1.393 -22.554  0.00  0.00    +0.004 A 
ATOM     27  C30 UNL     1      -4.069  -1.640 -22.128  0.00  0.00    +0.008 A 
ENDBRANCH  12  21
BRANCH   1  33
ATOM     28  C2  UNL     1       4.324  -4.288 -22.319  0.00  0.00    +0.142 A 
ATOM     29  C3  UNL     1       5.487  -5.066 -22.410  0.00  0.00    +0.048 A 
ATOM     30  C4  UNL     1       6.111  -5.266 -23.647  0.00  0.00    +0.015 A 
ATOM     31  C5  UNL     1       5.586  -4.687 -24.806  0.00  0.00    +0.019 A 
ATOM     32  C6  UNL     1       4.427  -3.906 -24.721  0.00  0.00    +0.039 A 
ATOM     33  C7  UNL     1       3.768  -3.720 -23.490  0.00  0.00    +0.086 A 
BRANCH  31  34
ATOM     34  C43 UNL     1       6.284  -4.922 -26.105  0.00  0.00    +0.160 C 
ATOM     35  O5  UNL     1       5.706  -5.527 -27.007  0.00  0.00    -0.292 OA
ATOM     36  C44 UNL     1       7.696  -4.425 -26.278  0.00  0.00    +0.091 C 
ENDBRANCH  31  34
BRANCH  28  38
ATOM     37  C1  UNL     1       4.502  -3.318 -20.135  0.00  0.00    +0.277 C 
ATOM     38  O1  UNL     1       3.714  -3.963 -21.133  0.00  0.00    -0.493 OA
ENDBRANCH  28  38
ENDBRANCH   1  33
BRANCH  11  39
ATOM     39  C31 UNL     1      -1.569  -3.953 -23.064  0.00  0.00    -0.029 A 
ATOM     40  C32 UNL     1      -2.167  -4.221 -24.306  0.00  0.00    +0.005 A 
ATOM     41  C33 UNL     1      -2.858  -5.416 -24.531  0.00  0.00    +0.000 A 
ATOM     42  C34 UNL     1      -2.952  -6.373 -23.525  0.00  0.00    +0.000 A 
ATOM     43  C35 UNL     1      -2.344  -6.142 -22.295  0.00  0.00    +0.000 A 
ATOM     44  C36 UNL     1      -1.662  -4.944 -22.068  0.00  0.00    +0.005 A 
ENDBRANCH  11  39
BRANCH   8  45
ATOM     45  C37 UNL     1       1.406  -0.576 -20.468  0.00  0.00    -0.029 A 
ATOM     46  C38 UNL     1       1.581  -1.317 -19.280  0.00  0.00    +0.005 A 
ATOM     47  C39 UNL     1       2.368  -0.837 -18.232  0.00  0.00    +0.000 A 
ATOM     48  C40 UNL     1       2.994   0.399 -18.341  0.00  0.00    +0.000 A 
ATOM     49  C41 UNL     1       2.842   1.143 -19.506  0.00  0.00    +0.000 A 
ATOM     50  C42 UNL     1       2.067   0.656 -20.563  0.00  0.00    +0.005 A 
ENDBRANCH   8  45
TORSDOF 7
ENDMDL
MODEL 6
REMARK VINA RESULT:    -7.705      5.622     10.285
REMARK INTER + INTRA:         -15.141
REMARK INTER:                 -10.955
REMARK INTRA:                  -4.186
REMARK UNBOUND:                -4.283
REMARK  Name = /home/vital/Documents/PhD_2021/Malaria_codes/data/pdb_ligands_mmv/ligand_26.pdb
REMARK  11 active torsions:
REMARK  status: ('A' for Active; 'I' for Inactive)
REMARK    1  A    between atoms: C1_1  and  O1_2
REMARK    2  A    between atoms: O1_2  and  C2_3
REMARK    3  A    between atoms: C5_6  and  C43_48
REMARK    4  A    between atoms: C7_8  and  N1_9
REMARK    5  A    between atoms: C12_16  and  C37_42
REMARK    6  A    between atoms: C14_19  and  C31_36
REMARK    7  A    between atoms: C15_20  and  C24_29
REMARK    8  A    between atoms: C16_21  and  C17_22
REMARK    9  A    between atoms: C20_25  and  C21_26
REMARK   10  A    between atoms: C27_32  and  C28_33
REMARK   11  A    between atoms: C43_48  and  C44_50
REMARK                            x       y       z     vdW  Elec       q    Type
REMARK                         _______ _______ _______ _____ _____    ______ ____
ROOT
ATOM      1  N1  UNL     1       7.590   0.535 -28.234  0.00  0.00    -0.206 N 
ATOM      2  C8  UNL     1       6.693  -0.474 -27.944  0.00  0.00    +0.232 C 
ATOM      3  O2  UNL     1       6.123  -1.224 -28.723  0.00  0.00    -0.274 OA
ATOM      4  C9  UNL     1       6.349  -0.424 -26.469  0.00  0.00    +0.111 C 
ATOM      5  C10 UNL     1       7.151   0.810 -25.959  0.00  0.00    +0.111 C 
ATOM      6  C11 UNL     1       7.650   1.454 -27.223  0.00  0.00    +0.232 C 
ATOM      7  O3  UNL     1       8.000   2.625 -27.273  0.00  0.00    -0.274 OA
ATOM      8  C12 UNL     1       8.271   0.217 -25.041  0.00  0.00    +0.093 C 
ATOM      9  C13 UNL     1       8.338  -1.154 -25.679  0.00  0.00    +0.164 C 
ATOM     10  O4  UNL     1       9.294  -1.693 -26.203  0.00  0.00    -0.295 OA
ATOM     11  C14 UNL     1       6.897  -1.629 -25.658  0.00  0.00    +0.093 C 
ATOM     12  C15 UNL     1       6.717  -1.321 -24.168  0.00  0.00    -0.017 C 
ATOM     13  C16 UNL     1       7.546  -0.319 -23.804  0.00  0.00    -0.017 C 
ENDROOT
BRANCH  13  14
ATOM     14  C17 UNL     1       7.738   0.201 -22.453  0.00  0.00    -0.020 A 
ATOM     15  C18 UNL     1       8.676  -0.407 -21.613  0.00  0.00    +0.008 A 
ATOM     16  C19 UNL     1       8.874   0.068 -20.319  0.00  0.00    +0.004 A 
ATOM     17  C20 UNL     1       8.131   1.153 -19.841  0.00  0.00    -0.050 A 
ATOM     18  C21 UNL     1       8.325   1.649 -18.442  0.00  0.00    +0.044 C 
ATOM     19  C22 UNL     1       7.177   1.751 -20.680  0.00  0.00    +0.004 A 
ATOM     20  C23 UNL     1       6.983   1.279 -21.980  0.00  0.00    +0.008 A 
ENDBRANCH  13  14
BRANCH  12  21
ATOM     21  C24 UNL     1       5.769  -2.007 -23.294  0.00  0.00    -0.020 A 
ATOM     22  C25 UNL     1       4.466  -1.514 -23.159  0.00  0.00    +0.008 A 
ATOM     23  C26 UNL     1       3.563  -2.136 -22.293  0.00  0.00    +0.004 A 
ATOM     24  C27 UNL     1       3.946  -3.264 -21.559  0.00  0.00    -0.050 A 
ATOM     25  C28 UNL     1       2.993  -3.911 -20.598  0.00  0.00    +0.044 C 
ATOM     26  C29 UNL     1       5.252  -3.752 -21.696  0.00  0.00    +0.004 A 
ATOM     27  C30 UNL     1       6.158  -3.123 -22.551  0.00  0.00    +0.008 A 
ENDBRANCH  12  21
BRANCH   1  33
ATOM     28  C2  UNL     1       9.465   0.782 -29.810  0.00  0.00    +0.142 A 
ATOM     29  C3  UNL     1       9.926   0.998 -31.117  0.00  0.00    +0.048 A 
ATOM     30  C4  UNL     1       9.019   1.207 -32.163  0.00  0.00    +0.015 A 
ATOM     31  C5  UNL     1       7.643   1.211 -31.915  0.00  0.00    +0.019 A 
ATOM     32  C6  UNL     1       7.177   1.000 -30.612  0.00  0.00    +0.039 A 
ATOM     33  C7  UNL     1       8.074   0.756 -29.554  0.00  0.00    +0.086 A 
BRANCH  31  34
ATOM     34  C43 UNL     1       6.710   1.442 -33.058  0.00  0.00    +0.160 C 
ATOM     35  O5  UNL     1       7.153   1.506 -34.204  0.00  0.00    -0.292 OA
ATOM     36  C44 UNL     1       5.238   1.610 -32.780  0.00  0.00    +0.091 C 
ENDBRANCH  31  34
BRANCH  28  38
ATOM     37  C1  UNL     1      11.247   1.706 -28.501  0.00  0.00    +0.277 C 
ATOM     38  O1  UNL     1      10.291   0.671 -28.719  0.00  0.00    -0.493 OA
ENDBRANCH  28  38
ENDBRANCH   1  33
BRANCH  11  39
ATOM     39  C31 UNL     1       6.556  -3.034 -26.082  0.00  0.00    -0.029 A 
ATOM     40  C32 UNL     1       7.485  -4.086 -26.037  0.00  0.00    +0.005 A 
ATOM     41  C33 UNL     1       7.122  -5.386 -26.403  0.00  0.00    +0.000 A 
ATOM     42  C34 UNL     1       5.820  -5.663 -26.808  0.00  0.00    +0.000 A 
ATOM     43  C35 UNL     1       4.875  -4.643 -26.834  0.00  0.00    +0.000 A 
ATOM     44  C36 UNL     1       5.240  -3.343 -26.477  0.00  0.00    +0.005 A 
ENDBRANCH  11  39
BRANCH   8  45
ATOM     45  C37 UNL     1       9.505   1.051 -24.814  0.00  0.00    -0.029 A 
ATOM     46  C38 UNL     1      10.773   0.473 -25.034  0.00  0.00    +0.005 A 
ATOM     47  C39 UNL     1      11.949   1.200 -24.841  0.00  0.00    +0.000 A 
ATOM     48  C40 UNL     1      11.887   2.523 -24.418  0.00  0.00    +0.000 A 
ATOM     49  C41 UNL     1      10.648   3.116 -24.204  0.00  0.00    +0.000 A 
ATOM     50  C42 UNL     1       9.469   2.394 -24.412  0.00  0.00    +0.005 A 
ENDBRANCH   8  45
TORSDOF 7
ENDMDL
MODEL 7
REMARK VINA RESULT:    -7.597      2.133      4.605
REMARK INTER + INTRA:         -14.989
REMARK INTER:                 -10.509
REMARK INTRA:                  -4.480
REMARK UNBOUND:                -4.283
REMARK  Name = /home/vital/Documents/PhD_2021/Malaria_codes/data/pdb_ligands_mmv/ligand_26.pdb
REMARK  11 active torsions:
REMARK  status: ('A' for Active; 'I' for Inactive)
REMARK    1  A    between atoms: C1_1  and  O1_2
REMARK    2  A    between atoms: O1_2  and  C2_3
REMARK    3  A    between atoms: C5_6  and  C43_48
REMARK    4  A    between atoms: C7_8  and  N1_9
REMARK    5  A    between atoms: C12_16  and  C37_42
REMARK    6  A    between atoms: C14_19  and  C31_36
REMARK    7  A    between atoms: C15_20  and  C24_29
REMARK    8  A    between atoms: C16_21  and  C17_22
REMARK    9  A    between atoms: C20_25  and  C21_26
REMARK   10  A    between atoms: C27_32  and  C28_33
REMARK   11  A    between atoms: C43_48  and  C44_50
REMARK                            x       y       z     vdW  Elec       q    Type
REMARK                         _______ _______ _______ _____ _____    ______ ____
ROOT
ATOM      1  N1  UNL     1       1.774   0.802 -18.115  0.00  0.00    -0.206 N 
ATOM      2  C8  UNL     1       0.666   1.510 -18.536  0.00  0.00    +0.232 C 
ATOM      3  O2  UNL     1       0.385   2.677 -18.307  0.00  0.00    -0.274 OA
ATOM      4  C9  UNL     1      -0.301   0.561 -19.214  0.00  0.00    +0.111 C 
ATOM      5  C10 UNL     1       0.400  -0.823 -19.072  0.00  0.00    +0.111 C 
ATOM      6  C11 UNL     1       1.541  -0.546 -18.132  0.00  0.00    +0.232 C 
ATOM      7  O3  UNL     1       2.097  -1.427 -17.492  0.00  0.00    -0.274 OA
ATOM      8  C12 UNL     1       0.830  -1.213 -20.525  0.00  0.00    +0.093 C 
ATOM      9  C13 UNL     1       0.913   0.191 -21.086  0.00  0.00    +0.164 C 
ATOM     10  O4  UNL     1       1.876   0.749 -21.576  0.00  0.00    -0.295 OA
ATOM     11  C14 UNL     1      -0.437   0.793 -20.742  0.00  0.00    +0.093 C 
ATOM     12  C15 UNL     1      -1.219  -0.384 -21.335  0.00  0.00    -0.017 C 
ATOM     13  C16 UNL     1      -0.472  -1.508 -21.273  0.00  0.00    -0.017 C 
ENDROOT
BRANCH  13  14
ATOM     14  C17 UNL     1      -0.826  -2.816 -21.815  0.00  0.00    -0.020 A 
ATOM     15  C18 UNL     1      -0.306  -3.207 -23.053  0.00  0.00    +0.008 A 
ATOM     16  C19 UNL     1      -0.633  -4.448 -23.594  0.00  0.00    +0.004 A 
ATOM     17  C20 UNL     1      -1.492  -5.315 -22.910  0.00  0.00    -0.050 A 
ATOM     18  C21 UNL     1      -1.864  -6.639 -23.501  0.00  0.00    +0.044 C 
ATOM     19  C22 UNL     1      -2.028  -4.914 -21.676  0.00  0.00    +0.004 A 
ATOM     20  C23 UNL     1      -1.695  -3.672 -21.131  0.00  0.00    +0.008 A 
ENDBRANCH  13  14
BRANCH  12  21
ATOM     21  C24 UNL     1      -2.577  -0.287 -21.864  0.00  0.00    -0.020 A 
ATOM     22  C25 UNL     1      -3.670  -0.518 -21.020  0.00  0.00    +0.008 A 
ATOM     23  C26 UNL     1      -4.972  -0.473 -21.524  0.00  0.00    +0.004 A 
ATOM     24  C27 UNL     1      -5.201  -0.183 -22.873  0.00  0.00    -0.050 A 
ATOM     25  C28 UNL     1      -6.594  -0.172 -23.428  0.00  0.00    +0.044 C 
ATOM     26  C29 UNL     1      -4.104   0.045 -23.715  0.00  0.00    +0.004 A 
ATOM     27  C30 UNL     1      -2.802  -0.014 -23.215  0.00  0.00    +0.008 A 
ENDBRANCH  12  21
BRANCH   1  33
ATOM     28  C2  UNL     1       4.031   1.789 -18.097  0.00  0.00    +0.142 A 
ATOM     29  C3  UNL     1       5.075   2.405 -17.393  0.00  0.00    +0.048 A 
ATOM     30  C4  UNL     1       4.959   2.643 -16.018  0.00  0.00    +0.015 A 
ATOM     31  C5  UNL     1       3.804   2.262 -15.329  0.00  0.00    +0.019 A 
ATOM     32  C6  UNL     1       2.760   1.643 -16.026  0.00  0.00    +0.039 A 
ATOM     33  C7  UNL     1       2.846   1.425 -17.415  0.00  0.00    +0.086 A 
BRANCH  31  34
ATOM     34  C43 UNL     1       3.723   2.530 -13.862  0.00  0.00    +0.160 C 
ATOM     35  O5  UNL     1       3.969   1.627 -13.063  0.00  0.00    -0.292 OA
ATOM     36  C44 UNL     1       3.323   3.903 -13.389  0.00  0.00    +0.091 C 
ENDBRANCH  31  34
BRANCH  28  38
ATOM     37  C1  UNL     1       5.209   0.621 -19.825  0.00  0.00    +0.277 C 
ATOM     38  O1  UNL     1       4.109   1.432 -19.420  0.00  0.00    -0.493 OA
ENDBRANCH  28  38
ENDBRANCH   1  33
BRANCH  11  39
ATOM     39  C31 UNL     1      -0.813   2.156 -21.262  0.00  0.00    -0.029 A 
ATOM     40  C32 UNL     1      -0.154   2.763 -22.343  0.00  0.00    +0.005 A 
ATOM     41  C33 UNL     1      -0.555   4.014 -22.823  0.00  0.00    +0.000 A 
ATOM     42  C34 UNL     1      -1.631   4.677 -22.241  0.00  0.00    +0.000 A 
ATOM     43  C35 UNL     1      -2.317   4.083 -21.186  0.00  0.00    +0.000 A 
ATOM     44  C36 UNL     1      -1.910   2.837 -20.702  0.00  0.00    +0.005 A 
ENDBRANCH  11  39
BRANCH   8  45
ATOM     45  C37 UNL     1       1.958  -2.200 -20.681  0.00  0.00    -0.029 A 
ATOM     46  C38 UNL     1       1.858  -3.460 -20.053  0.00  0.00    +0.005 A 
ATOM     47  C39 UNL     1       2.872  -4.412 -20.165  0.00  0.00    +0.000 A 
ATOM     48  C40 UNL     1       4.015  -4.127 -20.903  0.00  0.00    +0.000 A 
ATOM     49  C41 UNL     1       4.131  -2.896 -21.537  0.00  0.00    +0.000 A 
ATOM     50  C42 UNL     1       3.109  -1.947 -21.439  0.00  0.00    +0.005 A 
ENDBRANCH   8  45
TORSDOF 7
ENDMDL
MODEL 8
REMARK VINA RESULT:    -7.465      7.368     11.718
REMARK INTER + INTRA:         -14.803
REMARK INTER:                 -10.467
REMARK INTRA:                  -4.336
REMARK UNBOUND:                -4.283
REMARK  Name = /home/vital/Documents/PhD_2021/Malaria_codes/data/pdb_ligands_mmv/ligand_26.pdb
REMARK  11 active torsions:
REMARK  status: ('A' for Active; 'I' for Inactive)
REMARK    1  A    between atoms: C1_1  and  O1_2
REMARK    2  A    between atoms: O1_2  and  C2_3
REMARK    3  A    between atoms: C5_6  and  C43_48
REMARK    4  A    between atoms: C7_8  and  N1_9
REMARK    5  A    between atoms: C12_16  and  C37_42
REMARK    6  A    between atoms: C14_19  and  C31_36
REMARK    7  A    between atoms: C15_20  and  C24_29
REMARK    8  A    between atoms: C16_21  and  C17_22
REMARK    9  A    between atoms: C20_25  and  C21_26
REMARK   10  A    between atoms: C27_32  and  C28_33
REMARK   11  A    between atoms: C43_48  and  C44_50
REMARK                            x       y       z     vdW  Elec       q    Type
REMARK                         _______ _______ _______ _____ _____    ______ ____
ROOT
ATOM      1  N1  UNL     1       0.076  -3.906 -26.389  0.00  0.00    -0.206 N 
ATOM      2  C8  UNL     1       1.334  -3.337 -26.377  0.00  0.00    +0.232 C 
ATOM      3  O2  UNL     1       2.059  -3.127 -25.415  0.00  0.00    -0.274 OA
ATOM      4  C9  UNL     1       1.657  -2.818 -27.763  0.00  0.00    +0.111 C 
ATOM      5  C10 UNL     1       0.362  -3.129 -28.570  0.00  0.00    +0.111 C 
ATOM      6  C11 UNL     1      -0.620  -3.554 -27.513  0.00  0.00    +0.232 C 
ATOM      7  O3  UNL     1      -1.830  -3.529 -27.686  0.00  0.00    -0.274 OA
ATOM      8  C12 UNL     1       0.769  -4.257 -29.576  0.00  0.00    +0.093 C 
ATOM      9  C13 UNL     1       1.922  -4.823 -28.775  0.00  0.00    +0.164 C 
ATOM     10  O4  UNL     1       2.061  -5.955 -28.353  0.00  0.00    -0.295 OA
ATOM     11  C14 UNL     1       2.783  -3.608 -28.481  0.00  0.00    +0.093 C 
ATOM     12  C15 UNL     1       2.819  -3.160 -29.946  0.00  0.00    -0.017 C 
ATOM     13  C16 UNL     1       1.707  -3.588 -30.583  0.00  0.00    -0.017 C 
ENDROOT
BRANCH  13  14
ATOM     14  C17 UNL     1       1.412  -3.443 -32.005  0.00  0.00    -0.020 A 
ATOM     15  C18 UNL     1       0.809  -2.268 -32.462  0.00  0.00    +0.008 A 
ATOM     16  C19 UNL     1       0.512  -2.107 -33.814  0.00  0.00    +0.004 A 
ATOM     17  C20 UNL     1       0.807  -3.124 -34.728  0.00  0.00    -0.050 A 
ATOM     18  C21 UNL     1       0.468  -2.964 -36.178  0.00  0.00    +0.044 C 
ATOM     19  C22 UNL     1       1.397  -4.311 -34.266  0.00  0.00    +0.004 A 
ATOM     20  C23 UNL     1       1.699  -4.469 -32.912  0.00  0.00    +0.008 A 
ENDBRANCH  13  14
BRANCH  12  21
ATOM     21  C24 UNL     1       3.896  -2.372 -30.540  0.00  0.00    -0.020 A 
ATOM     22  C25 UNL     1       3.854  -0.975 -30.471  0.00  0.00    +0.008 A 
ATOM     23  C26 UNL     1       4.854  -0.209 -31.074  0.00  0.00    +0.004 A 
ATOM     24  C27 UNL     1       5.916  -0.827 -31.742  0.00  0.00    -0.050 A 
ATOM     25  C28 UNL     1       6.971  -0.009 -32.425  0.00  0.00    +0.044 C 
ATOM     26  C29 UNL     1       5.953  -2.226 -31.811  0.00  0.00    +0.004 A 
ATOM     27  C30 UNL     1       4.946  -2.992 -31.221  0.00  0.00    +0.008 A 
ENDBRANCH  12  21
BRANCH   1  33
ATOM     28  C2  UNL     1      -0.476  -5.851 -24.982  0.00  0.00    +0.142 A 
ATOM     29  C3  UNL     1      -1.058  -6.376 -23.819  0.00  0.00    +0.048 A 
ATOM     30  C4  UNL     1      -1.692  -5.531 -22.901  0.00  0.00    +0.015 A 
ATOM     31  C5  UNL     1      -1.759  -4.155 -23.135  0.00  0.00    +0.019 A 
ATOM     32  C6  UNL     1      -1.183  -3.625 -24.296  0.00  0.00    +0.039 A 
ATOM     33  C7  UNL     1      -0.513  -4.456 -25.215  0.00  0.00    +0.086 A 
BRANCH  31  34
ATOM     34  C43 UNL     1      -2.449  -3.289 -22.132  0.00  0.00    +0.160 C 
ATOM     35  O5  UNL     1      -2.645  -2.100 -22.385  0.00  0.00    -0.292 OA
ATOM     36  C44 UNL     1      -2.877  -3.888 -20.818  0.00  0.00    +0.091 C 
ENDBRANCH  31  34
BRANCH  28  38
ATOM     37  C1  UNL     1       1.215  -7.411 -25.651  0.00  0.00    +0.277 C 
ATOM     38  O1  UNL     1       0.073  -6.623 -25.976  0.00  0.00    -0.493 OA
ENDBRANCH  28  38
ENDBRANCH   1  33
BRANCH  11  39
ATOM     39  C31 UNL     1       4.124  -3.773 -27.814  0.00  0.00    -0.029 A 
ATOM     40  C32 UNL     1       4.782  -5.011 -27.731  0.00  0.00    +0.005 A 
ATOM     41  C33 UNL     1       6.044  -5.119 -27.138  0.00  0.00    +0.000 A 
ATOM     42  C34 UNL     1       6.679  -3.991 -26.628  0.00  0.00    +0.000 A 
ATOM     43  C35 UNL     1       6.058  -2.749 -26.722  0.00  0.00    +0.000 A 
ATOM     44  C36 UNL     1       4.794  -2.643 -27.308  0.00  0.00    +0.005 A 
ENDBRANCH  11  39
BRANCH   8  45
ATOM     45  C37 UNL     1      -0.326  -5.135 -30.124  0.00  0.00    -0.029 A 
ATOM     46  C38 UNL     1      -1.363  -4.547 -30.879  0.00  0.00    +0.005 A 
ATOM     47  C39 UNL     1      -2.400  -5.313 -31.412  0.00  0.00    +0.000 A 
ATOM     48  C40 UNL     1      -2.431  -6.687 -31.199  0.00  0.00    +0.000 A 
ATOM     49  C41 UNL     1      -1.416  -7.289 -30.466  0.00  0.00    +0.000 A 
ATOM     50  C42 UNL     1      -0.367  -6.525 -29.944  0.00  0.00    +0.005 A 
ENDBRANCH   8  45
TORSDOF 7
ENDMDL
MODEL 9
REMARK VINA RESULT:    -7.298      9.156     14.533
REMARK INTER + INTRA:         -14.568
REMARK INTER:                 -10.338
REMARK INTRA:                  -4.230
REMARK UNBOUND:                -4.283
REMARK  Name = /home/vital/Documents/PhD_2021/Malaria_codes/data/pdb_ligands_mmv/ligand_26.pdb
REMARK  11 active torsions:
REMARK  status: ('A' for Active; 'I' for Inactive)
REMARK    1  A    between atoms: C1_1  and  O1_2
REMARK    2  A    between atoms: O1_2  and  C2_3
REMARK    3  A    between atoms: C5_6  and  C43_48
REMARK    4  A    between atoms: C7_8  and  N1_9
REMARK    5  A    between atoms: C12_16  and  C37_42
REMARK    6  A    between atoms: C14_19  and  C31_36
REMARK    7  A    between atoms: C15_20  and  C24_29
REMARK    8  A    between atoms: C16_21  and  C17_22
REMARK    9  A    between atoms: C20_25  and  C21_26
REMARK   10  A    between atoms: C27_32  and  C28_33
REMARK   11  A    between atoms: C43_48  and  C44_50
REMARK                            x       y       z     vdW  Elec       q    Type
REMARK                         _______ _______ _______ _____ _____    ______ ____
ROOT
ATOM      1  N1  UNL     1      -0.269  -6.965 -31.672  0.00  0.00    -0.206 N 
ATOM      2  C8  UNL     1       0.209  -6.050 -32.589  0.00  0.00    +0.232 C 
ATOM      3  O2  UNL     1      -0.154  -5.877 -33.743  0.00  0.00    -0.274 OA
ATOM      4  C9  UNL     1       1.428  -5.361 -32.012  0.00  0.00    +0.111 C 
ATOM      5  C10 UNL     1       1.613  -6.060 -30.633  0.00  0.00    +0.111 C 
ATOM      6  C11 UNL     1       0.649  -7.213 -30.689  0.00  0.00    +0.232 C 
ATOM      7  O3  UNL     1       0.753  -8.196 -29.969  0.00  0.00    -0.274 OA
ATOM      8  C12 UNL     1       1.262  -4.966 -29.570  0.00  0.00    +0.093 C 
ATOM      9  C13 UNL     1       0.356  -4.128 -30.448  0.00  0.00    +0.164 C 
ATOM     10  O4  UNL     1      -0.813  -3.846 -30.270  0.00  0.00    -0.295 OA
ATOM     11  C14 UNL     1       1.201  -3.862 -31.680  0.00  0.00    +0.093 C 
ATOM     12  C15 UNL     1       2.401  -3.366 -30.868  0.00  0.00    -0.017 C 
ATOM     13  C16 UNL     1       2.397  -3.942 -29.645  0.00  0.00    -0.017 C 
ENDROOT
BRANCH  13  14
ATOM     14  C17 UNL     1       3.320  -3.661 -28.550  0.00  0.00    -0.020 A 
ATOM     15  C18 UNL     1       4.507  -4.391 -28.453  0.00  0.00    +0.008 A 
ATOM     16  C19 UNL     1       5.403  -4.145 -27.414  0.00  0.00    +0.004 A 
ATOM     17  C20 UNL     1       5.119  -3.171 -26.451  0.00  0.00    -0.050 A 
ATOM     18  C21 UNL     1       6.068  -2.922 -25.320  0.00  0.00    +0.044 C 
ATOM     19  C22 UNL     1       3.918  -2.450 -26.540  0.00  0.00    +0.004 A 
ATOM     20  C23 UNL     1       3.023  -2.693 -27.585  0.00  0.00    +0.008 A 
ENDBRANCH  13  14
BRANCH  12  21
ATOM     21  C24 UNL     1       3.402  -2.426 -31.366  0.00  0.00    -0.020 A 
ATOM     22  C25 UNL     1       4.588  -2.908 -31.931  0.00  0.00    +0.008 A 
ATOM     23  C26 UNL     1       5.572  -2.020 -32.371  0.00  0.00    +0.004 A 
ATOM     24  C27 UNL     1       5.379  -0.638 -32.265  0.00  0.00    -0.050 A 
ATOM     25  C28 UNL     1       6.449   0.319 -32.699  0.00  0.00    +0.044 C 
ATOM     26  C29 UNL     1       4.191  -0.160 -31.696  0.00  0.00    +0.004 A 
ATOM     27  C30 UNL     1       3.214  -1.048 -31.244  0.00  0.00    +0.008 A 
ENDBRANCH  12  21
BRANCH   1  33
ATOM     28  C2  UNL     1      -1.230  -9.032 -32.606  0.00  0.00    +0.142 A 
ATOM     29  C3  UNL     1      -2.350  -9.834 -32.867  0.00  0.00    +0.048 A 
ATOM     30  C4  UNL     1      -3.631  -9.402 -32.502  0.00  0.00    +0.015 A 
ATOM     31  C5  UNL     1      -3.810  -8.165 -31.878  0.00  0.00    +0.019 A 
ATOM     32  C6  UNL     1      -2.695  -7.358 -31.618  0.00  0.00    +0.039 A 
ATOM     33  C7  UNL     1      -1.396  -7.790 -31.949  0.00  0.00    +0.086 A 
BRANCH  31  34
ATOM     34  C43 UNL     1      -5.193  -7.740 -31.508  0.00  0.00    +0.160 C 
ATOM     35  O5  UNL     1      -5.932  -8.524 -30.912  0.00  0.00    -0.292 OA
ATOM     36  C44 UNL     1      -5.663  -6.361 -31.890  0.00  0.00    +0.091 C 
ENDBRANCH  31  34
BRANCH  28  38
ATOM     37  C1  UNL     1       0.334  -9.209 -34.412  0.00  0.00    +0.277 C 
ATOM     38  O1  UNL     1       0.041  -9.338 -33.023  0.00  0.00    -0.493 OA
ENDBRANCH  28  38
ENDBRANCH   1  33
BRANCH  11  39
ATOM     39  C31 UNL     1       0.704  -2.925 -32.751  0.00  0.00    -0.029 A 
ATOM     40  C32 UNL     1      -0.165  -1.856 -32.479  0.00  0.00    +0.005 A 
ATOM     41  C33 UNL     1      -0.576  -0.984 -33.493  0.00  0.00    +0.000 A 
ATOM     42  C34 UNL     1      -0.116  -1.155 -34.795  0.00  0.00    +0.000 A 
ATOM     43  C35 UNL     1       0.768  -2.191 -35.083  0.00  0.00    +0.000 A 
ATOM     44  C36 UNL     1       1.171  -3.066 -34.072  0.00  0.00    +0.005 A 
ENDBRANCH  11  39
BRANCH   8  45
ATOM     45  C37 UNL     1       0.836  -5.430 -28.201  0.00  0.00    -0.029 A 
ATOM     46  C38 UNL     1      -0.451  -5.092 -27.732  0.00  0.00    +0.005 A 
ATOM     47  C39 UNL     1      -0.897  -5.497 -26.473  0.00  0.00    +0.000 A 
ATOM     48  C40 UNL     1      -0.065  -6.246 -25.648  0.00  0.00    +0.000 A 
ATOM     49  C41 UNL     1       1.203  -6.597 -26.093  0.00  0.00    +0.000 A 
ATOM     50  C42 UNL     1       1.646  -6.206 -27.360  0.00  0.00    +0.005 A 
ENDBRANCH   8  45
TORSDOF 7
ENDMDL
