MODEL 1
REMARK VINA RESULT:    -4.990      0.000      0.000
REMARK INTER + INTRA:          -7.693
REMARK INTER:                  -6.303
REMARK INTRA:                  -1.390
REMARK UNBOUND:                -1.390
REMARK  Name = /home/vital/Documents/PhD_2021/Malaria_codes/data/pdb_ligands_mmv/ligand_38.pdb
REMARK  8 active torsions:
REMARK  status: ('A' for Active; 'I' for Inactive)
REMARK    1  A    between atoms: C1_1  and  C2_2
REMARK    2  A    between atoms: C2_2  and  C3_3
REMARK    3  A    between atoms: C2_2  and  C4_4
REMARK    4  A    between atoms: C2_2  and  C5_5
REMARK    5  A    between atoms: C8_8  and  O1_9
REMARK    6  A    between atoms: C9_10  and  C10_11
REMARK    7  A    between atoms: C10_11  and  N1_12
REMARK    8  A    between atoms: N1_12  and  C11_13
REMARK                            x       y       z     vdW  Elec       q    Type
REMARK                         _______ _______ _______ _____ _____    ______ ____
ROOT
ATOM      1  C5  UNL     1       1.871   7.493 -17.549  0.00  0.00    -0.041 A 
ATOM      2  C6  UNL     1       0.759   7.171 -18.343  0.00  0.00    +0.008 A 
ATOM      3  C7  UNL     1      -0.204   6.254 -17.906  0.00  0.00    +0.046 A 
ATOM      4  C8  UNL     1      -0.074   5.644 -16.661  0.00  0.00    +0.121 A 
ATOM      5  C9  UNL     1       1.007   5.939 -15.831  0.00  0.00    +0.008 A 
ATOM      6  C17 UNL     1       1.971   6.856 -16.295  0.00  0.00    +0.012 A 
ENDROOT
BRANCH   1   8
ATOM      7  C1  UNL     1       2.842   9.784 -17.154  0.00  0.00    +0.015 C 
ATOM      8  C2  UNL     1       2.952   8.493 -17.994  0.00  0.00    -0.013 C 
ATOM      9  C3  UNL     1       4.350   7.872 -17.791  0.00  0.00    +0.015 C 
ATOM     10  C4  UNL     1       2.846   8.905 -19.480  0.00  0.00    +0.015 C 
ENDBRANCH   1   8
BRANCH   4  11
ATOM     11  O1  UNL     1      -1.014   4.742 -16.246  0.00  0.00    -0.506 OA
ATOM     12  H12 UNL     1      -1.471   5.106 -15.469  0.00  0.00    +0.292 HD
ENDBRANCH   4  11
BRANCH   5  13
ATOM     13  C10 UNL     1       1.192   5.276 -14.482  0.00  0.00    +0.120 C 
BRANCH  13  14
ATOM     14  N1  UNL     1       0.882   3.840 -14.547  0.00  0.00    -0.309 NA
ATOM     15  H15 UNL     1       0.530   3.654 -15.486  0.00  0.00    +0.123 HD
BRANCH  14  16
ATOM     16  C11 UNL     1       2.054   2.992 -14.293  0.00  0.00    +0.054 C 
ATOM     17  C12 UNL     1       2.906   3.662 -13.199  0.00  0.00    +0.019 C 
ATOM     18  C13 UNL     1       4.178   2.870 -12.907  0.00  0.00    +0.002 C 
ATOM     19  C14 UNL     1       5.002   2.648 -14.170  0.00  0.00    +0.000 C 
ATOM     20  C15 UNL     1       4.173   1.990 -15.267  0.00  0.00    +0.002 C 
ATOM     21  C16 UNL     1       2.896   2.776 -15.562  0.00  0.00    +0.019 C 
ENDBRANCH  14  16
ENDBRANCH  13  14
ENDBRANCH   5  13
TORSDOF 5
ENDMDL
MODEL 2
REMARK VINA RESULT:    -4.911     10.541     12.346
REMARK INTER + INTRA:          -7.593
REMARK INTER:                  -6.287
REMARK INTRA:                  -1.306
REMARK UNBOUND:                -1.390
REMARK  Name = /home/vital/Documents/PhD_2021/Malaria_codes/data/pdb_ligands_mmv/ligand_38.pdb
REMARK  8 active torsions:
REMARK  status: ('A' for Active; 'I' for Inactive)
REMARK    1  A    between atoms: C1_1  and  C2_2
REMARK    2  A    between atoms: C2_2  and  C3_3
REMARK    3  A    between atoms: C2_2  and  C4_4
REMARK    4  A    between atoms: C2_2  and  C5_5
REMARK    5  A    between atoms: C8_8  and  O1_9
REMARK    6  A    between atoms: C9_10  and  C10_11
REMARK    7  A    between atoms: C10_11  and  N1_12
REMARK    8  A    between atoms: N1_12  and  C11_13
REMARK                            x       y       z     vdW  Elec       q    Type
REMARK                         _______ _______ _______ _____ _____    ______ ____
ROOT
ATOM      1  C5  UNL     1      -0.433  -5.249 -24.299  0.00  0.00    -0.041 A 
ATOM      2  C6  UNL     1      -1.545  -5.894 -23.737  0.00  0.00    +0.008 A 
ATOM      3  C7  UNL     1      -1.981  -5.595 -22.442  0.00  0.00    +0.046 A 
ATOM      4  C8  UNL     1      -1.313  -4.637 -21.683  0.00  0.00    +0.121 A 
ATOM      5  C9  UNL     1      -0.209  -3.960 -22.200  0.00  0.00    +0.008 A 
ATOM      6  C17 UNL     1       0.221  -4.285 -23.502  0.00  0.00    +0.012 A 
ENDROOT
BRANCH   1   8
ATOM      7  C1  UNL     1      -1.118  -5.809 -26.658  0.00  0.00    +0.015 C 
ATOM      8  C2  UNL     1       0.080  -5.551 -25.717  0.00  0.00    -0.013 C 
ATOM      9  C3  UNL     1       0.891  -4.349 -26.245  0.00  0.00    +0.015 C 
ATOM     10  C4  UNL     1       0.998  -6.792 -25.797  0.00  0.00    +0.015 C 
ENDBRANCH   1   8
BRANCH   4  11
ATOM     11  O1  UNL     1      -1.740  -4.357 -20.415  0.00  0.00    -0.506 OA
ATOM     12  H12 UNL     1      -2.679  -4.595 -20.344  0.00  0.00    +0.292 HD
ENDBRANCH   4  11
BRANCH   5  13
ATOM     13  C10 UNL     1       0.555  -2.931 -21.394  0.00  0.00    +0.120 C 
BRANCH  13  14
ATOM     14  N1  UNL     1       0.791  -3.398 -20.020  0.00  0.00    -0.309 NA
ATOM     15  H15 UNL     1       0.453  -4.359 -19.970  0.00  0.00    +0.123 HD
BRANCH  14  16
ATOM     16  C11 UNL     1       2.209  -3.365 -19.642  0.00  0.00    +0.054 C 
ATOM     17  C12 UNL     1       2.785  -1.996 -20.046  0.00  0.00    +0.019 C 
ATOM     18  C13 UNL     1       4.276  -1.893 -19.736  0.00  0.00    +0.002 C 
ATOM     19  C14 UNL     1       5.064  -3.022 -20.390  0.00  0.00    +0.000 C 
ATOM     20  C15 UNL     1       4.505  -4.387 -20.006  0.00  0.00    +0.002 C 
ATOM     21  C16 UNL     1       3.011  -4.495 -20.310  0.00  0.00    +0.019 C 
ENDBRANCH  14  16
ENDBRANCH  13  14
ENDBRANCH   5  13
TORSDOF 5
ENDMDL
MODEL 3
REMARK VINA RESULT:    -4.792      9.108     11.421
REMARK INTER + INTRA:          -7.443
REMARK INTER:                  -6.287
REMARK INTRA:                  -1.157
REMARK UNBOUND:                -1.390
REMARK  Name = /home/vital/Documents/PhD_2021/Malaria_codes/data/pdb_ligands_mmv/ligand_38.pdb
REMARK  8 active torsions:
REMARK  status: ('A' for Active; 'I' for Inactive)
REMARK    1  A    between atoms: C1_1  and  C2_2
REMARK    2  A    between atoms: C2_2  and  C3_3
REMARK    3  A    between atoms: C2_2  and  C4_4
REMARK    4  A    between atoms: C2_2  and  C5_5
REMARK    5  A    between atoms: C8_8  and  O1_9
REMARK    6  A    between atoms: C9_10  and  C10_11
REMARK    7  A    between atoms: C10_11  and  N1_12
REMARK    8  A    between atoms: N1_12  and  C11_13
REMARK                            x       y       z     vdW  Elec       q    Type
REMARK                         _______ _______ _______ _____ _____    ______ ____
ROOT
ATOM      1  C5  UNL     1       3.099  -2.943 -20.264  0.00  0.00    -0.041 A 
ATOM      2  C6  UNL     1       3.143  -2.393 -18.974  0.00  0.00    +0.008 A 
ATOM      3  C7  UNL     1       2.001  -1.846 -18.378  0.00  0.00    +0.046 A 
ATOM      4  C8  UNL     1       0.788  -1.844 -19.063  0.00  0.00    +0.121 A 
ATOM      5  C9  UNL     1       0.690  -2.389 -20.342  0.00  0.00    +0.008 A 
ATOM      6  C17 UNL     1       1.854  -2.924 -20.929  0.00  0.00    +0.012 A 
ENDROOT
BRANCH   1   8
ATOM      7  C1  UNL     1       5.416  -2.465 -21.130  0.00  0.00    +0.015 C 
ATOM      8  C2  UNL     1       4.332  -3.551 -20.955  0.00  0.00    -0.013 C 
ATOM      9  C3  UNL     1       4.898  -4.699 -20.093  0.00  0.00    +0.015 C 
ATOM     10  C4  UNL     1       4.038  -4.133 -22.356  0.00  0.00    +0.015 C 
ENDBRANCH   1   8
BRANCH   4  11
ATOM     11  O1  UNL     1      -0.321  -1.300 -18.477  0.00  0.00    -0.506 OA
ATOM     12  H12 UNL     1      -1.092  -1.491 -19.036  0.00  0.00    +0.292 HD
ENDBRANCH   4  11
BRANCH   5  13
ATOM     13  C10 UNL     1      -0.607  -2.382 -21.125  0.00  0.00    +0.120 C 
BRANCH  13  14
ATOM     14  N1  UNL     1      -1.627  -3.215 -20.473  0.00  0.00    -0.309 NA
ATOM     15  H15 UNL     1      -2.352  -2.584 -20.129  0.00  0.00    +0.123 HD
BRANCH  14  16
ATOM     16  C11 UNL     1      -2.232  -4.194 -21.385  0.00  0.00    +0.054 C 
ATOM     17  C12 UNL     1      -1.177  -5.265 -21.713  0.00  0.00    +0.019 C 
ATOM     18  C13 UNL     1      -1.707  -6.300 -22.701  0.00  0.00    +0.002 C 
ATOM     19  C14 UNL     1      -2.221  -5.645 -23.977  0.00  0.00    +0.000 C 
ATOM     20  C15 UNL     1      -3.264  -4.575 -23.673  0.00  0.00    +0.002 C 
ATOM     21  C16 UNL     1      -2.741  -3.538 -22.680  0.00  0.00    +0.019 C 
ENDBRANCH  14  16
ENDBRANCH  13  14
ENDBRANCH   5  13
TORSDOF 5
ENDMDL
MODEL 4
REMARK VINA RESULT:    -4.784      9.761     11.497
REMARK INTER + INTRA:          -7.432
REMARK INTER:                  -6.107
REMARK INTRA:                  -1.326
REMARK UNBOUND:                -1.390
REMARK  Name = /home/vital/Documents/PhD_2021/Malaria_codes/data/pdb_ligands_mmv/ligand_38.pdb
REMARK  8 active torsions:
REMARK  status: ('A' for Active; 'I' for Inactive)
REMARK    1  A    between atoms: C1_1  and  C2_2
REMARK    2  A    between atoms: C2_2  and  C3_3
REMARK    3  A    between atoms: C2_2  and  C4_4
REMARK    4  A    between atoms: C2_2  and  C5_5
REMARK    5  A    between atoms: C8_8  and  O1_9
REMARK    6  A    between atoms: C9_10  and  C10_11
REMARK    7  A    between atoms: C10_11  and  N1_12
REMARK    8  A    between atoms: N1_12  and  C11_13
REMARK                            x       y       z     vdW  Elec       q    Type
REMARK                         _______ _______ _______ _____ _____    ______ ____
ROOT
ATOM      1  C5  UNL     1      -4.178  -1.212 -21.536  0.00  0.00    -0.041 A 
ATOM      2  C6  UNL     1      -4.591  -0.901 -20.231  0.00  0.00    +0.008 A 
ATOM      3  C7  UNL     1      -3.693  -0.930 -19.159  0.00  0.00    +0.046 A 
ATOM      4  C8  UNL     1      -2.359  -1.269 -19.372  0.00  0.00    +0.121 A 
ATOM      5  C9  UNL     1      -1.898  -1.576 -20.652  0.00  0.00    +0.008 A 
ATOM      6  C17 UNL     1      -2.821  -1.551 -21.716  0.00  0.00    +0.012 A 
ENDROOT
BRANCH   1   8
ATOM      7  C1  UNL     1      -5.230   0.241 -23.306  0.00  0.00    +0.015 C 
ATOM      8  C2  UNL     1      -5.134  -1.193 -22.741  0.00  0.00    -0.013 C 
ATOM      9  C3  UNL     1      -4.604  -2.139 -23.840  0.00  0.00    +0.015 C 
ATOM     10  C4  UNL     1      -6.572  -1.647 -22.402  0.00  0.00    +0.015 C 
ENDBRANCH   1   8
BRANCH   4  11
ATOM     11  O1  UNL     1      -1.491  -1.304 -18.318  0.00  0.00    -0.506 OA
ATOM     12  H12 UNL     1      -0.600  -1.496 -18.655  0.00  0.00    +0.292 HD
ENDBRANCH   4  11
BRANCH   5  13
ATOM     13  C10 UNL     1      -0.460  -1.971 -20.916  0.00  0.00    +0.120 C 
BRANCH  13  14
ATOM     14  N1  UNL     1      -0.163  -3.301 -20.365  0.00  0.00    -0.309 NA
ATOM     15  H15 UNL     1      -0.877  -3.498 -19.663  0.00  0.00    +0.123 HD
BRANCH  14  16
ATOM     16  C11 UNL     1      -0.183  -4.359 -21.383  0.00  0.00    +0.054 C 
ATOM     17  C12 UNL     1       0.225  -3.738 -22.731  0.00  0.00    +0.019 C 
ATOM     18  C13 UNL     1       0.182  -4.761 -23.864  0.00  0.00    +0.002 C 
ATOM     19  C14 UNL     1      -1.187  -5.422 -23.969  0.00  0.00    +0.000 C 
ATOM     20  C15 UNL     1      -1.612  -6.038 -22.641  0.00  0.00    +0.002 C 
ATOM     21  C16 UNL     1      -1.566  -5.020 -21.502  0.00  0.00    +0.019 C 
ENDBRANCH  14  16
ENDBRANCH  13  14
ENDBRANCH   5  13
TORSDOF 5
ENDMDL
MODEL 5
REMARK VINA RESULT:    -4.782     17.695     19.309
REMARK INTER + INTRA:          -7.431
REMARK INTER:                  -6.382
REMARK INTRA:                  -1.049
REMARK UNBOUND:                -1.390
REMARK  Name = /home/vital/Documents/PhD_2021/Malaria_codes/data/pdb_ligands_mmv/ligand_38.pdb
REMARK  8 active torsions:
REMARK  status: ('A' for Active; 'I' for Inactive)
REMARK    1  A    between atoms: C1_1  and  C2_2
REMARK    2  A    between atoms: C2_2  and  C3_3
REMARK    3  A    between atoms: C2_2  and  C4_4
REMARK    4  A    between atoms: C2_2  and  C5_5
REMARK    5  A    between atoms: C8_8  and  O1_9
REMARK    6  A    between atoms: C9_10  and  C10_11
REMARK    7  A    between atoms: C10_11  and  N1_12
REMARK    8  A    between atoms: N1_12  and  C11_13
REMARK                            x       y       z     vdW  Elec       q    Type
REMARK                         _______ _______ _______ _____ _____    ______ ____
ROOT
ATOM      1  C5  UNL     1       2.658  -3.461 -33.103  0.00  0.00    -0.041 A 
ATOM      2  C6  UNL     1       3.163  -4.737 -33.396  0.00  0.00    +0.008 A 
ATOM      3  C7  UNL     1       4.446  -5.121 -32.993  0.00  0.00    +0.046 A 
ATOM      4  C8  UNL     1       5.251  -4.232 -32.284  0.00  0.00    +0.121 A 
ATOM      5  C9  UNL     1       4.792  -2.957 -31.959  0.00  0.00    +0.008 A 
ATOM      6  C17 UNL     1       3.500  -2.586 -32.385  0.00  0.00    +0.012 A 
ENDROOT
BRANCH   1   8
ATOM      7  C1  UNL     1       1.108  -1.483 -33.284  0.00  0.00    +0.015 C 
ATOM      8  C2  UNL     1       1.254  -3.000 -33.531  0.00  0.00    -0.013 C 
ATOM      9  C3  UNL     1       1.045  -3.293 -35.032  0.00  0.00    +0.015 C 
ATOM     10  C4  UNL     1       0.108  -3.700 -32.764  0.00  0.00    +0.015 C 
ENDBRANCH   1   8
BRANCH   4  11
ATOM     11  O1  UNL     1       6.508  -4.612 -31.902  0.00  0.00    -0.506 OA
ATOM     12  H12 UNL     1       6.807  -5.328 -32.486  0.00  0.00    +0.292 HD
ENDBRANCH   4  11
BRANCH   5  13
ATOM     13  C10 UNL     1       5.648  -1.957 -31.211  0.00  0.00    +0.120 C 
BRANCH  13  14
ATOM     14  N1  UNL     1       6.821  -1.560 -32.004  0.00  0.00    -0.309 NA
ATOM     15  H15 UNL     1       6.712  -1.983 -32.926  0.00  0.00    +0.123 HD
BRANCH  14  16
ATOM     16  C11 UNL     1       6.943  -0.105 -32.151  0.00  0.00    +0.054 C 
ATOM     17  C12 UNL     1       6.201   0.314 -33.433  0.00  0.00    +0.019 C 
ATOM     18  C13 UNL     1       6.321   1.814 -33.694  0.00  0.00    +0.002 C 
ATOM     19  C14 UNL     1       7.778   2.259 -33.747  0.00  0.00    +0.000 C 
ATOM     20  C15 UNL     1       8.532   1.847 -32.487  0.00  0.00    +0.002 C 
ATOM     21  C16 UNL     1       8.412   0.347 -32.218  0.00  0.00    +0.019 C 
ENDBRANCH  14  16
ENDBRANCH  13  14
ENDBRANCH   5  13
TORSDOF 5
ENDMDL
MODEL 6
REMARK VINA RESULT:    -4.536     10.129     12.300
REMARK INTER + INTRA:          -7.120
REMARK INTER:                  -5.866
REMARK INTRA:                  -1.254
REMARK UNBOUND:                -1.390
REMARK  Name = /home/vital/Documents/PhD_2021/Malaria_codes/data/pdb_ligands_mmv/ligand_38.pdb
REMARK  8 active torsions:
REMARK  status: ('A' for Active; 'I' for Inactive)
REMARK    1  A    between atoms: C1_1  and  C2_2
REMARK    2  A    between atoms: C2_2  and  C3_3
REMARK    3  A    between atoms: C2_2  and  C4_4
REMARK    4  A    between atoms: C2_2  and  C5_5
REMARK    5  A    between atoms: C8_8  and  O1_9
REMARK    6  A    between atoms: C9_10  and  C10_11
REMARK    7  A    between atoms: C10_11  and  N1_12
REMARK    8  A    between atoms: N1_12  and  C11_13
REMARK                            x       y       z     vdW  Elec       q    Type
REMARK                         _______ _______ _______ _____ _____    ______ ____
ROOT
ATOM      1  C5  UNL     1       4.018  -3.797 -21.962  0.00  0.00    -0.041 A 
ATOM      2  C6  UNL     1       4.443  -3.811 -20.624  0.00  0.00    +0.008 A 
ATOM      3  C7  UNL     1       3.551  -3.560 -19.576  0.00  0.00    +0.046 A 
ATOM      4  C8  UNL     1       2.211  -3.293 -19.847  0.00  0.00    +0.121 A 
ATOM      5  C9  UNL     1       1.738  -3.279 -21.159  0.00  0.00    +0.008 A 
ATOM      6  C17 UNL     1       2.655  -3.523 -22.200  0.00  0.00    +0.012 A 
ENDROOT
BRANCH   1   8
ATOM      7  C1  UNL     1       4.167  -4.071 -24.462  0.00  0.00    +0.015 C 
ATOM      8  C2  UNL     1       4.968  -4.065 -23.142  0.00  0.00    -0.013 C 
ATOM      9  C3  UNL     1       6.044  -2.961 -23.205  0.00  0.00    +0.015 C 
ATOM     10  C4  UNL     1       5.708  -5.419 -23.052  0.00  0.00    +0.015 C 
ENDBRANCH   1   8
BRANCH   4  11
ATOM     11  O1  UNL     1       1.347  -3.040 -18.818  0.00  0.00    -0.506 OA
ATOM     12  H12 UNL     1       1.528  -2.150 -18.473  0.00  0.00    +0.292 HD
ENDBRANCH   4  11
BRANCH   5  13
ATOM     13  C10 UNL     1       0.293  -2.969 -21.491  0.00  0.00    +0.120 C 
BRANCH  13  14
ATOM     14  N1  UNL     1      -0.627  -3.756 -20.658  0.00  0.00    -0.309 NA
ATOM     15  H15 UNL     1      -0.998  -3.125 -19.947  0.00  0.00    +0.123 HD
BRANCH  14  16
ATOM     16  C11 UNL     1      -1.740  -4.331 -21.423  0.00  0.00    +0.054 C 
ATOM     17  C12 UNL     1      -1.230  -5.592 -22.144  0.00  0.00    +0.019 C 
ATOM     18  C13 UNL     1      -2.315  -6.229 -23.009  0.00  0.00    +0.002 C 
ATOM     19  C14 UNL     1      -2.889  -5.233 -24.010  0.00  0.00    +0.000 C 
ATOM     20  C15 UNL     1      -3.395  -3.973 -23.315  0.00  0.00    +0.002 C 
ATOM     21  C16 UNL     1      -2.315  -3.333 -22.443  0.00  0.00    +0.019 C 
ENDBRANCH  14  16
ENDBRANCH  13  14
ENDBRANCH   5  13
TORSDOF 5
ENDMDL
MODEL 7
REMARK VINA RESULT:    -4.486      9.066     10.483
REMARK INTER + INTRA:          -7.057
REMARK INTER:                  -5.978
REMARK INTRA:                  -1.079
REMARK UNBOUND:                -1.390
REMARK  Name = /home/vital/Documents/PhD_2021/Malaria_codes/data/pdb_ligands_mmv/ligand_38.pdb
REMARK  8 active torsions:
REMARK  status: ('A' for Active; 'I' for Inactive)
REMARK    1  A    between atoms: C1_1  and  C2_2
REMARK    2  A    between atoms: C2_2  and  C3_3
REMARK    3  A    between atoms: C2_2  and  C4_4
REMARK    4  A    between atoms: C2_2  and  C5_5
REMARK    5  A    between atoms: C8_8  and  O1_9
REMARK    6  A    between atoms: C9_10  and  C10_11
REMARK    7  A    between atoms: C10_11  and  N1_12
REMARK    8  A    between atoms: N1_12  and  C11_13
REMARK                            x       y       z     vdW  Elec       q    Type
REMARK                         _______ _______ _______ _____ _____    ______ ____
ROOT
ATOM      1  C5  UNL     1      -3.821  -1.499 -21.440  0.00  0.00    -0.041 A 
ATOM      2  C6  UNL     1      -4.283  -1.252 -20.138  0.00  0.00    +0.008 A 
ATOM      3  C7  UNL     1      -3.397  -1.152 -19.060  0.00  0.00    +0.046 A 
ATOM      4  C8  UNL     1      -2.026  -1.293 -19.265  0.00  0.00    +0.121 A 
ATOM      5  C9  UNL     1      -1.517  -1.528 -20.541  0.00  0.00    +0.008 A 
ATOM      6  C17 UNL     1      -2.427  -1.638 -21.612  0.00  0.00    +0.012 A 
ENDROOT
BRANCH   1   8
ATOM      7  C1  UNL     1      -6.230  -1.615 -22.170  0.00  0.00    +0.015 C 
ATOM      8  C2  UNL     1      -4.762  -1.619 -22.651  0.00  0.00    -0.013 C 
ATOM      9  C3  UNL     1      -4.537  -0.426 -23.604  0.00  0.00    +0.015 C 
ATOM     10  C4  UNL     1      -4.556  -2.909 -23.476  0.00  0.00    +0.015 C 
ENDBRANCH   1   8
BRANCH   4  11
ATOM     11  O1  UNL     1      -1.168  -1.203 -18.205  0.00  0.00    -0.506 OA
ATOM     12  H12 UNL     1      -0.529  -1.933 -18.260  0.00  0.00    +0.292 HD
ENDBRANCH   4  11
BRANCH   5  13
ATOM     13  C10 UNL     1      -0.036  -1.711 -20.797  0.00  0.00    +0.120 C 
BRANCH  13  14
ATOM     14  N1  UNL     1       0.574  -2.592 -19.791  0.00  0.00    -0.309 NA
ATOM     15  H15 UNL     1      -0.176  -3.166 -19.404  0.00  0.00    +0.123 HD
BRANCH  14  16
ATOM     16  C11 UNL     1       1.611  -3.467 -20.353  0.00  0.00    +0.054 C 
ATOM     17  C12 UNL     1       2.812  -3.473 -19.390  0.00  0.00    +0.019 C 
ATOM     18  C13 UNL     1       3.963  -4.321 -19.923  0.00  0.00    +0.002 C 
ATOM     19  C14 UNL     1       4.393  -3.872 -21.315  0.00  0.00    +0.000 C 
ATOM     20  C15 UNL     1       3.215  -3.854 -22.283  0.00  0.00    +0.002 C 
ATOM     21  C16 UNL     1       2.057  -3.009 -21.752  0.00  0.00    +0.019 C 
ENDBRANCH  14  16
ENDBRANCH  13  14
ENDBRANCH   5  13
TORSDOF 5
ENDMDL
MODEL 8
REMARK VINA RESULT:    -4.444      8.962     10.406
REMARK INTER + INTRA:          -7.003
REMARK INTER:                  -5.815
REMARK INTRA:                  -1.188
REMARK UNBOUND:                -1.390
REMARK  Name = /home/vital/Documents/PhD_2021/Malaria_codes/data/pdb_ligands_mmv/ligand_38.pdb
REMARK  8 active torsions:
REMARK  status: ('A' for Active; 'I' for Inactive)
REMARK    1  A    between atoms: C1_1  and  C2_2
REMARK    2  A    between atoms: C2_2  and  C3_3
REMARK    3  A    between atoms: C2_2  and  C4_4
REMARK    4  A    between atoms: C2_2  and  C5_5
REMARK    5  A    between atoms: C8_8  and  O1_9
REMARK    6  A    between atoms: C9_10  and  C10_11
REMARK    7  A    between atoms: C10_11  and  N1_12
REMARK    8  A    between atoms: N1_12  and  C11_13
REMARK                            x       y       z     vdW  Elec       q    Type
REMARK                         _______ _______ _______ _____ _____    ______ ____
ROOT
ATOM      1  C5  UNL     1      -3.040  -1.987 -21.366  0.00  0.00    -0.041 A 
ATOM      2  C6  UNL     1      -3.393  -3.330 -21.563  0.00  0.00    +0.008 A 
ATOM      3  C7  UNL     1      -2.451  -4.356 -21.431  0.00  0.00    +0.046 A 
ATOM      4  C8  UNL     1      -1.133  -4.056 -21.093  0.00  0.00    +0.121 A 
ATOM      5  C9  UNL     1      -0.736  -2.737 -20.877  0.00  0.00    +0.008 A 
ATOM      6  C17 UNL     1      -1.698  -1.718 -21.026  0.00  0.00    +0.012 A 
ENDROOT
BRANCH   1   8
ATOM      7  C1  UNL     1      -5.430  -1.391 -21.897  0.00  0.00    +0.015 C 
ATOM      8  C2  UNL     1      -4.046  -0.830 -21.505  0.00  0.00    -0.013 C 
ATOM      9  C3  UNL     1      -4.164  -0.080 -20.161  0.00  0.00    +0.015 C 
ATOM     10  C4  UNL     1      -3.654   0.211 -22.577  0.00  0.00    +0.015 C 
ENDBRANCH   1   8
BRANCH   4  11
ATOM     11  O1  UNL     1      -0.217  -5.063 -20.975  0.00  0.00    -0.506 OA
ATOM     12  H12 UNL     1      -0.402  -5.733 -21.653  0.00  0.00    +0.292 HD
ENDBRANCH   4  11
BRANCH   5  13
ATOM     13  C10 UNL     1       0.693  -2.373 -20.532  0.00  0.00    +0.120 C 
BRANCH  13  14
ATOM     14  N1  UNL     1       1.175  -3.140 -19.374  0.00  0.00    -0.309 NA
ATOM     15  H15 UNL     1       0.815  -4.089 -19.476  0.00  0.00    +0.123 HD
BRANCH  14  16
ATOM     16  C11 UNL     1       2.640  -3.185 -19.289  0.00  0.00    +0.054 C 
ATOM     17  C12 UNL     1       3.192  -1.829 -19.765  0.00  0.00    +0.019 C 
ATOM     18  C13 UNL     1       4.719  -1.805 -19.759  0.00  0.00    +0.002 C 
ATOM     19  C14 UNL     1       5.301  -2.944 -20.587  0.00  0.00    +0.000 C 
ATOM     20  C15 UNL     1       4.760  -4.295 -20.134  0.00  0.00    +0.002 C 
ATOM     21  C16 UNL     1       3.233  -4.325 -20.135  0.00  0.00    +0.019 C 
ENDBRANCH  14  16
ENDBRANCH  13  14
ENDBRANCH   5  13
TORSDOF 5
ENDMDL
MODEL 9
REMARK VINA RESULT:    -4.406      8.496     11.026
REMARK INTER + INTRA:          -6.955
REMARK INTER:                  -5.776
REMARK INTRA:                  -1.180
REMARK UNBOUND:                -1.390
REMARK  Name = /home/vital/Documents/PhD_2021/Malaria_codes/data/pdb_ligands_mmv/ligand_38.pdb
REMARK  8 active torsions:
REMARK  status: ('A' for Active; 'I' for Inactive)
REMARK    1  A    between atoms: C1_1  and  C2_2
REMARK    2  A    between atoms: C2_2  and  C3_3
REMARK    3  A    between atoms: C2_2  and  C4_4
REMARK    4  A    between atoms: C2_2  and  C5_5
REMARK    5  A    between atoms: C8_8  and  O1_9
REMARK    6  A    between atoms: C9_10  and  C10_11
REMARK    7  A    between atoms: C10_11  and  N1_12
REMARK    8  A    between atoms: N1_12  and  C11_13
REMARK                            x       y       z     vdW  Elec       q    Type
REMARK                         _______ _______ _______ _____ _____    ______ ____
ROOT
ATOM      1  C5  UNL     1       2.769  -3.000 -20.204  0.00  0.00    -0.041 A 
ATOM      2  C6  UNL     1       2.813  -2.369 -18.951  0.00  0.00    +0.008 A 
ATOM      3  C7  UNL     1       1.664  -1.811 -18.379  0.00  0.00    +0.046 A 
ATOM      4  C8  UNL     1       0.446  -1.877 -19.050  0.00  0.00    +0.121 A 
ATOM      5  C9  UNL     1       0.349  -2.503 -20.292  0.00  0.00    +0.008 A 
ATOM      6  C17 UNL     1       1.520  -3.048 -20.856  0.00  0.00    +0.012 A 
ENDROOT
BRANCH   1   8
ATOM      7  C1  UNL     1       5.110  -2.550 -21.023  0.00  0.00    +0.015 C 
ATOM      8  C2  UNL     1       4.010  -3.623 -20.867  0.00  0.00    -0.013 C 
ATOM      9  C3  UNL     1       4.545  -4.776 -19.991  0.00  0.00    +0.015 C 
ATOM     10  C4  UNL     1       3.738  -4.206 -22.273  0.00  0.00    +0.015 C 
ENDBRANCH   1   8
BRANCH   4  11
ATOM     11  O1  UNL     1      -0.670  -1.321 -18.488  0.00  0.00    -0.506 OA
ATOM     12  H12 UNL     1      -1.213  -2.032 -18.109  0.00  0.00    +0.292 HD
ENDBRANCH   4  11
BRANCH   5  13
ATOM     13  C10 UNL     1      -0.954  -2.572 -21.060  0.00  0.00    +0.120 C 
BRANCH  13  14
ATOM     14  N1  UNL     1      -2.037  -3.115 -20.226  0.00  0.00    -0.309 NA
ATOM     15  H15 UNL     1      -1.840  -2.833 -19.265  0.00  0.00    +0.123 HD
BRANCH  14  16
ATOM     16  C11 UNL     1      -3.361  -2.614 -20.615  0.00  0.00    +0.054 C 
ATOM     17  C12 UNL     1      -3.508  -2.771 -22.139  0.00  0.00    +0.019 C 
ATOM     18  C13 UNL     1      -4.843  -2.225 -22.640  0.00  0.00    +0.002 C 
ATOM     19  C14 UNL     1      -5.045  -0.772 -22.226  0.00  0.00    +0.000 C 
ATOM     20  C15 UNL     1      -4.897  -0.595 -20.719  0.00  0.00    +0.002 C 
ATOM     21  C16 UNL     1      -3.564  -1.144 -20.211  0.00  0.00    +0.019 C 
ENDBRANCH  14  16
ENDBRANCH  13  14
ENDBRANCH   5  13
TORSDOF 5
ENDMDL
