MODEL 1
REMARK VINA RESULT:    -6.907      0.000      0.000
REMARK INTER + INTRA:          -6.907
REMARK INTER:                  -6.907
REMARK INTRA:                   0.000
REMARK UNBOUND:                 0.000
REMARK  Name = /home/vital/Documents/PhD_2021/Malaria_codes/scripts/../data/pdbqt_ligands/ligand_12_temp.pdb
REMARK                            x       y       z     vdW  Elec       q    Type
REMARK                         _______ _______ _______ _____ _____    ______ ____
ROOT
ATOM      1  N   UNL     1      -0.080   5.668 -16.163  0.00  0.00    -0.327 N 
ATOM      2  C   UNL     1      -1.248   4.835 -16.402  0.00  0.00    +0.012 C 
ATOM      3  C   UNL     1      -2.189   5.553 -17.316  0.00  0.00    -0.074 C 
ATOM      4  C   UNL     1      -2.685   5.137 -18.495  0.00  0.00    -0.082 C 
ATOM      5  C   UNL     1      -2.397   3.845 -19.202  0.00  0.00    +0.001 C 
ATOM      6  C   UNL     1      -1.999   4.139 -20.631  0.00  0.00    +0.004 C 
ATOM      7  N   UNL     1      -0.814   4.293 -21.120  0.00  0.00    -0.283 NA
ATOM      8  C   UNL     1       0.349   4.212 -20.247  0.00  0.00    +0.102 C 
ATOM      9  C   UNL     1       0.735   2.806 -20.131  0.00  0.00    -0.054 C 
ATOM     10  C   UNL     1       1.056   1.657 -20.002  0.00  0.00    +0.036 C 
ATOM     11  N   UNL     1       1.411   0.378 -19.828  0.00  0.00    -0.205 NA
ATOM     12  C   UNL     1       2.187  -0.124 -20.731  0.00  0.00    +0.038 C 
ATOM     13  C   UNL     1       2.701  -1.517 -20.709  0.00  0.00    -0.046 C 
ATOM     14  C   UNL     1       2.306  -2.389 -19.768  0.00  0.00    -0.071 C 
ATOM     15  C   UNL     1       2.730  -3.823 -19.599  0.00  0.00    +0.028 C 
ATOM     16  C   UNL     1       3.768  -4.251 -20.544  0.00  0.00    -0.093 C 
ATOM     17  C   UNL     1       4.618  -4.584 -21.325  0.00  0.00    -0.074 C 
ATOM     18  C   UNL     1       5.624  -4.936 -22.264  0.00  0.00    -0.009 C 
ATOM     19  C   UNL     1       5.500  -4.745 -23.593  0.00  0.00    -0.020 C 
ATOM     20  C   UNL     1       6.613  -5.148 -24.523  0.00  0.00    +0.047 C 
ATOM     21 CL   UNL     1       7.714  -3.787 -24.819  0.00  0.00    -0.121 Cl
ATOM     22  C   UNL     1       4.262  -4.195 -24.263  0.00  0.00    +0.092 C 
ATOM     23  O   UNL     1       4.568  -2.936 -24.852  0.00  0.00    -0.274 OA
ATOM     24 CL   UNL     1       3.245  -2.244 -25.636  0.00  0.00    +0.062 Cl
ATOM     25  H   UNL     1       0.563   5.181 -15.540  0.00  0.00    +0.000 HD
ATOM     26  H   UNL     1      -0.372   6.546 -15.733  0.00  0.00    +0.000 HD
ATOM     27  H   UNL     1       0.386   5.863 -17.049  0.00  0.00    +0.000 HD
ENDROOT
TORSDOF 0
ENDMDL
MODEL 2
REMARK VINA RESULT:    -6.821      7.190     11.998
REMARK INTER + INTRA:          -6.821
REMARK INTER:                  -6.821
REMARK INTRA:                   0.000
REMARK UNBOUND:                 0.000
REMARK  Name = /home/vital/Documents/PhD_2021/Malaria_codes/scripts/../data/pdbqt_ligands/ligand_12_temp.pdb
REMARK                            x       y       z     vdW  Elec       q    Type
REMARK                         _______ _______ _______ _____ _____    ______ ____
ROOT
ATOM      1  N   UNL     1       1.020  -9.189 -32.903  0.00  0.00    -0.327 N 
ATOM      2  C   UNL     1       2.025  -8.255 -33.387  0.00  0.00    +0.012 C 
ATOM      3  C   UNL     1       1.364  -7.213 -34.231  0.00  0.00    -0.074 C 
ATOM      4  C   UNL     1       1.397  -5.877 -34.083  0.00  0.00    -0.082 C 
ATOM      5  C   UNL     1       2.095  -5.095 -33.008  0.00  0.00    +0.001 C 
ATOM      6  C   UNL     1       1.118  -4.118 -32.392  0.00  0.00    +0.004 C 
ATOM      7  N   UNL     1       0.378  -4.274 -31.345  0.00  0.00    -0.283 NA
ATOM      8  C   UNL     1       0.408  -5.533 -30.613  0.00  0.00    +0.102 C 
ATOM      9  C   UNL     1       1.508  -5.475 -29.652  0.00  0.00    -0.054 C 
ATOM     10  C   UNL     1       2.420  -5.459 -28.872  0.00  0.00    +0.036 C 
ATOM     11  N   UNL     1       3.448  -5.468 -28.013  0.00  0.00    -0.205 NA
ATOM     12  C   UNL     1       3.230  -4.927 -26.861  0.00  0.00    +0.038 C 
ATOM     13  C   UNL     1       4.236  -4.849 -25.772  0.00  0.00    -0.046 C 
ATOM     14  C   UNL     1       5.498  -5.271 -25.959  0.00  0.00    -0.071 C 
ATOM     15  C   UNL     1       6.630  -5.270 -24.969  0.00  0.00    +0.028 C 
ATOM     16  C   UNL     1       6.242  -4.829 -23.623  0.00  0.00    -0.093 C 
ATOM     17  C   UNL     1       5.907  -4.467 -22.528  0.00  0.00    -0.074 C 
ATOM     18  C   UNL     1       5.469  -4.034 -21.248  0.00  0.00    -0.009 C 
ATOM     19  C   UNL     1       4.801  -2.881 -21.041  0.00  0.00    -0.020 C 
ATOM     20  C   UNL     1       4.372  -2.494 -19.651  0.00  0.00    +0.047 C 
ATOM     21 CL   UNL     1       2.724  -3.061 -19.314  0.00  0.00    -0.121 Cl
ATOM     22  C   UNL     1       4.484  -1.873 -22.122  0.00  0.00    +0.092 C 
ATOM     23  O   UNL     1       3.074  -1.805 -22.301  0.00  0.00    -0.274 OA
ATOM     24 CL   UNL     1       2.622  -0.694 -23.487  0.00  0.00    +0.062 Cl
ATOM     25  H   UNL     1       1.468  -9.901 -32.327  0.00  0.00    +0.000 HD
ATOM     26  H   UNL     1       0.559  -9.634 -33.696  0.00  0.00    +0.000 HD
ATOM     27  H   UNL     1       0.329  -8.686 -32.346  0.00  0.00    +0.000 HD
ENDROOT
TORSDOF 0
ENDMDL
MODEL 3
REMARK VINA RESULT:    -6.815      5.087      6.564
REMARK INTER + INTRA:          -6.815
REMARK INTER:                  -6.815
REMARK INTRA:                   0.000
REMARK UNBOUND:                 0.000
REMARK  Name = /home/vital/Documents/PhD_2021/Malaria_codes/scripts/../data/pdbqt_ligands/ligand_12_temp.pdb
REMARK                            x       y       z     vdW  Elec       q    Type
REMARK                         _______ _______ _______ _____ _____    ______ ____
ROOT
ATOM      1  N   UNL     1       6.113   5.420 -15.738  0.00  0.00    -0.327 N 
ATOM      2  C   UNL     1       5.948   4.432 -14.683  0.00  0.00    +0.012 C 
ATOM      3  C   UNL     1       5.128   5.019 -13.580  0.00  0.00    -0.074 C 
ATOM      4  C   UNL     1       3.983   4.550 -13.053  0.00  0.00    -0.082 C 
ATOM      5  C   UNL     1       3.227   3.319 -13.461  0.00  0.00    +0.001 C 
ATOM      6  C   UNL     1       1.777   3.683 -13.695  0.00  0.00    +0.004 C 
ATOM      7  N   UNL     1       1.200   4.009 -14.803  0.00  0.00    -0.283 NA
ATOM      8  C   UNL     1       1.976   4.085 -16.033  0.00  0.00    +0.102 C 
ATOM      9  C   UNL     1       2.029   2.747 -16.621  0.00  0.00    -0.054 C 
ATOM     10  C   UNL     1       2.107   1.653 -17.110  0.00  0.00    +0.036 C 
ATOM     11  N   UNL     1       2.223   0.436 -17.655  0.00  0.00    -0.205 NA
ATOM     12  C   UNL     1       1.251   0.059 -18.417  0.00  0.00    +0.038 C 
ATOM     13  C   UNL     1       1.200  -1.247 -19.122  0.00  0.00    -0.046 C 
ATOM     14  C   UNL     1       2.150  -2.177 -18.931  0.00  0.00    -0.071 C 
ATOM     15  C   UNL     1       2.253  -3.538 -19.565  0.00  0.00    +0.028 C 
ATOM     16  C   UNL     1       1.219  -3.804 -20.573  0.00  0.00    -0.093 C 
ATOM     17  C   UNL     1       0.366  -4.004 -21.395  0.00  0.00    -0.074 C 
ATOM     18  C   UNL     1      -0.658  -4.199 -22.360  0.00  0.00    -0.009 C 
ATOM     19  C   UNL     1      -1.968  -4.013 -22.103  0.00  0.00    -0.020 C 
ATOM     20  C   UNL     1      -2.992  -4.243 -23.182  0.00  0.00    +0.047 C 
ATOM     21 CL   UNL     1      -3.344  -2.737 -24.052  0.00  0.00    -0.121 Cl
ATOM     22  C   UNL     1      -2.525  -3.636 -20.749  0.00  0.00    +0.092 C 
ATOM     23  O   UNL     1      -3.108  -2.340 -20.826  0.00  0.00    -0.274 OA
ATOM     24 CL   UNL     1      -3.769  -1.835 -19.359  0.00  0.00    +0.062 Cl
ATOM     25  H   UNL     1       6.672   5.022 -16.492  0.00  0.00    +0.000 HD
ATOM     26  H   UNL     1       6.584   6.242 -15.362  0.00  0.00    +0.000 HD
ATOM     27  H   UNL     1       5.197   5.688 -16.099  0.00  0.00    +0.000 HD
ENDROOT
TORSDOF 0
ENDMDL
MODEL 4
REMARK VINA RESULT:    -6.690      8.498     13.153
REMARK INTER + INTRA:          -6.690
REMARK INTER:                  -6.690
REMARK INTRA:                   0.000
REMARK UNBOUND:                 0.000
REMARK  Name = /home/vital/Documents/PhD_2021/Malaria_codes/scripts/../data/pdbqt_ligands/ligand_12_temp.pdb
REMARK                            x       y       z     vdW  Elec       q    Type
REMARK                         _______ _______ _______ _____ _____    ______ ____
ROOT
ATOM      1  N   UNL     1      -2.142 -10.057 -32.549  0.00  0.00    -0.327 N 
ATOM      2  C   UNL     1      -0.754 -10.068 -32.112  0.00  0.00    +0.012 C 
ATOM      3  C   UNL     1       0.079  -9.312 -33.097  0.00  0.00    -0.074 C 
ATOM      4  C   UNL     1       0.887  -8.261 -32.871  0.00  0.00    -0.082 C 
ATOM      5  C   UNL     1       1.137  -7.566 -31.564  0.00  0.00    +0.001 C 
ATOM      6  C   UNL     1       0.942  -6.077 -31.748  0.00  0.00    +0.004 C 
ATOM      7  N   UNL     1      -0.123  -5.376 -31.545  0.00  0.00    -0.283 NA
ATOM      8  C   UNL     1      -1.349  -6.025 -31.100  0.00  0.00    +0.102 C 
ATOM      9  C   UNL     1      -1.308  -6.125 -29.642  0.00  0.00    -0.054 C 
ATOM     10  C   UNL     1      -1.287  -6.240 -28.447  0.00  0.00    +0.036 C 
ATOM     11  N   UNL     1      -1.267  -6.398 -27.118  0.00  0.00    -0.205 NA
ATOM     12  C   UNL     1      -1.675  -5.390 -26.420  0.00  0.00    +0.038 C 
ATOM     13  C   UNL     1      -1.741  -5.375 -24.937  0.00  0.00    -0.046 C 
ATOM     14  C   UNL     1      -1.283  -6.407 -24.209  0.00  0.00    -0.071 C 
ATOM     15  C   UNL     1      -1.280  -6.554 -22.712  0.00  0.00    +0.028 C 
ATOM     16  C   UNL     1      -1.948  -5.453 -22.005  0.00  0.00    -0.093 C 
ATOM     17  C   UNL     1      -2.498  -4.546 -21.444  0.00  0.00    -0.074 C 
ATOM     18  C   UNL     1      -3.159  -3.454 -20.819  0.00  0.00    -0.009 C 
ATOM     19  C   UNL     1      -2.854  -2.163 -21.061  0.00  0.00    -0.020 C 
ATOM     20  C   UNL     1      -3.602  -1.063 -20.356  0.00  0.00    +0.047 C 
ATOM     21 CL   UNL     1      -4.986  -0.517 -21.324  0.00  0.00    -0.121 Cl
ATOM     22  C   UNL     1      -1.737  -1.707 -21.972  0.00  0.00    +0.092 C 
ATOM     23  O   UNL     1      -2.293  -1.022 -23.089  0.00  0.00    -0.274 OA
ATOM     24 CL   UNL     1      -1.118  -0.465 -24.162  0.00  0.00    +0.062 Cl
ATOM     25  H   UNL     1      -2.712 -10.572 -31.879  0.00  0.00    +0.000 HD
ATOM     26  H   UNL     1      -2.213 -10.497 -33.466  0.00  0.00    +0.000 HD
ATOM     27  H   UNL     1      -2.472  -9.094 -32.608  0.00  0.00    +0.000 HD
ENDROOT
TORSDOF 0
ENDMDL
MODEL 5
REMARK VINA RESULT:    -6.583     10.402     12.964
REMARK INTER + INTRA:          -6.583
REMARK INTER:                  -6.583
REMARK INTRA:                   0.000
REMARK UNBOUND:                 0.000
REMARK  Name = /home/vital/Documents/PhD_2021/Malaria_codes/scripts/../data/pdbqt_ligands/ligand_12_temp.pdb
REMARK                            x       y       z     vdW  Elec       q    Type
REMARK                         _______ _______ _______ _____ _____    ______ ____
ROOT
ATOM      1  N   UNL     1      12.830   5.500 -34.411  0.00  0.00    -0.327 N 
ATOM      2  C   UNL     1      12.410   6.398 -33.346  0.00  0.00    +0.012 C 
ATOM      3  C   UNL     1      11.278   7.246 -33.832  0.00  0.00    -0.074 C 
ATOM      4  C   UNL     1      10.052   7.384 -33.298  0.00  0.00    -0.082 C 
ATOM      5  C   UNL     1       9.503   6.698 -32.081  0.00  0.00    +0.001 C 
ATOM      6  C   UNL     1       8.170   6.071 -32.424  0.00  0.00    +0.004 C 
ATOM      7  N   UNL     1       7.927   4.864 -32.814  0.00  0.00    -0.283 NA
ATOM      8  C   UNL     1       9.023   3.923 -32.997  0.00  0.00    +0.102 C 
ATOM      9  C   UNL     1       9.305   3.296 -31.706  0.00  0.00    -0.054 C 
ATOM     10  C   UNL     1       9.570   2.786 -30.652  0.00  0.00    +0.036 C 
ATOM     11  N   UNL     1       9.894   2.226 -29.480  0.00  0.00    -0.205 NA
ATOM     12  C   UNL     1       9.204   1.190 -29.135  0.00  0.00    +0.038 C 
ATOM     13  C   UNL     1       9.420   0.424 -27.882  0.00  0.00    -0.046 C 
ATOM     14  C   UNL     1      10.314   0.827 -26.965  0.00  0.00    -0.071 C 
ATOM     15  C   UNL     1      10.658   0.170 -25.656  0.00  0.00    +0.028 C 
ATOM     16  C   UNL     1       9.975  -1.111 -25.437  0.00  0.00    -0.093 C 
ATOM     17  C   UNL     1       9.408  -2.158 -25.275  0.00  0.00    -0.074 C 
ATOM     18  C   UNL     1       8.720  -3.391 -25.123  0.00  0.00    -0.009 C 
ATOM     19  C   UNL     1       7.384  -3.519 -25.257  0.00  0.00    -0.020 C 
ATOM     20  C   UNL     1       6.730  -4.863 -25.079  0.00  0.00    +0.047 C 
ATOM     21 CL   UNL     1       6.580  -5.705 -26.635  0.00  0.00    -0.121 Cl
ATOM     22  C   UNL     1       6.440  -2.368 -25.522  0.00  0.00    +0.092 C 
ATOM     23  O   UNL     1       5.848  -2.534 -26.806  0.00  0.00    -0.274 OA
ATOM     24 CL   UNL     1       4.767  -1.297 -27.188  0.00  0.00    +0.062 Cl
ATOM     25  H   UNL     1      13.602   4.921 -34.082  0.00  0.00    +0.000 HD
ATOM     26  H   UNL     1      13.134   6.048 -35.216  0.00  0.00    +0.000 HD
ATOM     27  H   UNL     1      12.048   4.904 -34.681  0.00  0.00    +0.000 HD
ENDROOT
TORSDOF 0
ENDMDL
MODEL 6
REMARK VINA RESULT:    -6.576      7.589      8.847
REMARK INTER + INTRA:          -6.576
REMARK INTER:                  -6.576
REMARK INTRA:                   0.000
REMARK UNBOUND:                 0.000
REMARK  Name = /home/vital/Documents/PhD_2021/Malaria_codes/scripts/../data/pdbqt_ligands/ligand_12_temp.pdb
REMARK                            x       y       z     vdW  Elec       q    Type
REMARK                         _______ _______ _______ _____ _____    ______ ____
ROOT
ATOM      1  N   UNL     1       3.561   2.900 -16.583  0.00  0.00    -0.327 N 
ATOM      2  C   UNL     1       2.441   3.008 -15.660  0.00  0.00    +0.012 C 
ATOM      3  C   UNL     1       2.286   4.433 -15.235  0.00  0.00    -0.074 C 
ATOM      4  C   UNL     1       1.200   5.219 -15.336  0.00  0.00    -0.082 C 
ATOM      5  C   UNL     1      -0.133   4.863 -15.926  0.00  0.00    +0.001 C 
ATOM      6  C   UNL     1      -0.530   5.922 -16.931  0.00  0.00    +0.004 C 
ATOM      7  N   UNL     1      -0.334   5.932 -18.207  0.00  0.00    -0.283 NA
ATOM      8  C   UNL     1       0.375   4.830 -18.843  0.00  0.00    +0.102 C 
ATOM      9  C   UNL     1      -0.594   3.778 -19.145  0.00  0.00    -0.054 C 
ATOM     10  C   UNL     1      -1.368   2.891 -19.381  0.00  0.00    +0.036 C 
ATOM     11  N   UNL     1      -2.213   1.882 -19.628  0.00  0.00    -0.205 NA
ATOM     12  C   UNL     1      -2.875   1.954 -20.736  0.00  0.00    +0.038 C 
ATOM     13  C   UNL     1      -3.848   0.931 -21.194  0.00  0.00    -0.046 C 
ATOM     14  C   UNL     1      -4.171  -0.118 -20.420  0.00  0.00    -0.071 C 
ATOM     15  C   UNL     1      -5.125  -1.239 -20.731  0.00  0.00    +0.028 C 
ATOM     16  C   UNL     1      -5.677  -1.189 -22.091  0.00  0.00    -0.093 C 
ATOM     17  C   UNL     1      -6.119  -1.132 -23.206  0.00  0.00    -0.074 C 
ATOM     18  C   UNL     1      -6.616  -1.029 -24.533  0.00  0.00    -0.009 C 
ATOM     19  C   UNL     1      -7.188   0.087 -25.029  0.00  0.00    -0.020 C 
ATOM     20  C   UNL     1      -7.691   0.114 -26.447  0.00  0.00    +0.047 C 
ATOM     21 CL   UNL     1      -6.443   0.727 -27.550  0.00  0.00    -0.121 Cl
ATOM     22  C   UNL     1      -7.433   1.346 -24.229  0.00  0.00    +0.092 C 
ATOM     23  O   UNL     1      -6.638   2.401 -24.760  0.00  0.00    -0.274 OA
ATOM     24 CL   UNL     1      -6.851   3.856 -23.936  0.00  0.00    +0.062 Cl
ATOM     25  H   UNL     1       3.669   1.929 -16.874  0.00  0.00    +0.000 HD
ATOM     26  H   UNL     1       4.414   3.213 -16.120  0.00  0.00    +0.000 HD
ATOM     27  H   UNL     1       3.385   3.483 -17.401  0.00  0.00    +0.000 HD
ENDROOT
TORSDOF 0
ENDMDL
MODEL 7
REMARK VINA RESULT:    -6.573     10.252     12.311
REMARK INTER + INTRA:          -6.573
REMARK INTER:                  -6.573
REMARK INTRA:                   0.000
REMARK UNBOUND:                 0.000
REMARK  Name = /home/vital/Documents/PhD_2021/Malaria_codes/scripts/../data/pdbqt_ligands/ligand_12_temp.pdb
REMARK                            x       y       z     vdW  Elec       q    Type
REMARK                         _______ _______ _______ _____ _____    ______ ____
ROOT
ATOM      1  N   UNL     1      -0.708  -6.429 -30.450  0.00  0.00    -0.327 N 
ATOM      2  C   UNL     1       0.378  -7.227 -30.999  0.00  0.00    +0.012 C 
ATOM      3  C   UNL     1       0.425  -7.045 -32.482  0.00  0.00    -0.074 C 
ATOM      4  C   UNL     1       1.458  -6.633 -33.238  0.00  0.00    -0.082 C 
ATOM      5  C   UNL     1       2.827  -6.232 -32.773  0.00  0.00    +0.001 C 
ATOM      6  C   UNL     1       3.178  -4.885 -33.367  0.00  0.00    +0.004 C 
ATOM      7  N   UNL     1       3.014  -3.713 -32.852  0.00  0.00    -0.283 NA
ATOM      8  C   UNL     1       2.397  -3.574 -31.540  0.00  0.00    +0.102 C 
ATOM      9  C   UNL     1       3.443  -3.715 -30.528  0.00  0.00    -0.054 C 
ATOM     10  C   UNL     1       4.281  -3.852 -29.679  0.00  0.00    +0.036 C 
ATOM     11  N   UNL     1       5.198  -4.026 -28.719  0.00  0.00    -0.205 NA
ATOM     12  C   UNL     1       5.882  -2.981 -28.390  0.00  0.00    +0.038 C 
ATOM     13  C   UNL     1       6.933  -2.968 -27.342  0.00  0.00    -0.046 C 
ATOM     14  C   UNL     1       7.307  -4.096 -26.717  0.00  0.00    -0.071 C 
ATOM     15  C   UNL     1       8.342  -4.257 -25.637  0.00  0.00    +0.028 C 
ATOM     16  C   UNL     1       8.925  -2.989 -25.179  0.00  0.00    -0.093 C 
ATOM     17  C   UNL     1       9.390  -1.943 -24.817  0.00  0.00    -0.074 C 
ATOM     18  C   UNL     1       9.913  -0.684 -24.416  0.00  0.00    -0.009 C 
ATOM     19  C   UNL     1      10.421   0.219 -25.279  0.00  0.00    -0.020 C 
ATOM     20  C   UNL     1      10.958   1.531 -24.773  0.00  0.00    +0.047 C 
ATOM     21 CL   UNL     1       9.700   2.783 -24.802  0.00  0.00    -0.121 Cl
ATOM     22  C   UNL     1      10.560  -0.008 -26.767  0.00  0.00    +0.092 C 
ATOM     23  O   UNL     1       9.709   0.898 -27.461  0.00  0.00    -0.274 OA
ATOM     24 CL   UNL     1       9.802   0.727 -29.136  0.00  0.00    +0.062 Cl
ATOM     25  H   UNL     1      -0.742  -6.552 -29.439  0.00  0.00    +0.000 HD
ATOM     26  H   UNL     1      -1.592  -6.731 -30.860  0.00  0.00    +0.000 HD
ATOM     27  H   UNL     1      -0.550  -5.445 -30.669  0.00  0.00    +0.000 HD
ENDROOT
TORSDOF 0
ENDMDL
MODEL 8
REMARK VINA RESULT:    -6.390      6.619     10.048
REMARK INTER + INTRA:          -6.390
REMARK INTER:                  -6.390
REMARK INTRA:                   0.000
REMARK UNBOUND:                 0.000
REMARK  Name = /home/vital/Documents/PhD_2021/Malaria_codes/scripts/../data/pdbqt_ligands/ligand_12_temp.pdb
REMARK                            x       y       z     vdW  Elec       q    Type
REMARK                         _______ _______ _______ _____ _____    ______ ____
ROOT
ATOM      1  N   UNL     1      -4.534  -0.858 -25.493  0.00  0.00    -0.327 N 
ATOM      2  C   UNL     1      -5.524  -0.627 -24.452  0.00  0.00    +0.012 C 
ATOM      3  C   UNL     1      -5.863  -1.926 -23.796  0.00  0.00    -0.074 C 
ATOM      4  C   UNL     1      -5.787  -2.246 -22.492  0.00  0.00    -0.082 C 
ATOM      5  C   UNL     1      -5.318  -1.374 -21.364  0.00  0.00    +0.001 C 
ATOM      6  C   UNL     1      -4.275  -2.121 -20.561  0.00  0.00    +0.004 C 
ATOM      7  N   UNL     1      -2.991  -2.091 -20.687  0.00  0.00    -0.283 NA
ATOM      8  C   UNL     1      -2.380  -1.276 -21.729  0.00  0.00    +0.102 C 
ATOM      9  C   UNL     1      -2.217   0.080 -21.209  0.00  0.00    -0.054 C 
ATOM     10  C   UNL     1      -2.095   1.207 -20.813  0.00  0.00    +0.036 C 
ATOM     11  N   UNL     1      -1.975   2.473 -20.394  0.00  0.00    -0.205 NA
ATOM     12  C   UNL     1      -0.914   2.746 -19.708  0.00  0.00    +0.038 C 
ATOM     13  C   UNL     1      -0.594   4.091 -19.168  0.00  0.00    -0.046 C 
ATOM     14  C   UNL     1      -1.457   5.114 -19.290  0.00  0.00    -0.071 C 
ATOM     15  C   UNL     1      -1.287   6.529 -18.810  0.00  0.00    +0.028 C 
ATOM     16  C   UNL     1       0.030   6.804 -18.224  0.00  0.00    -0.093 C 
ATOM     17  C   UNL     1       1.113   7.012 -17.748  0.00  0.00    -0.074 C 
ATOM     18  C   UNL     1       2.406   7.215 -17.194  0.00  0.00    -0.009 C 
ATOM     19  C   UNL     1       2.933   6.435 -16.228  0.00  0.00    -0.020 C 
ATOM     20  C   UNL     1       4.311   6.719 -15.694  0.00  0.00    +0.047 C 
ATOM     21 CL   UNL     1       5.537   5.789 -16.578  0.00  0.00    -0.121 Cl
ATOM     22  C   UNL     1       2.203   5.290 -15.565  0.00  0.00    +0.092 C 
ATOM     23  O   UNL     1       2.857   4.068 -15.888  0.00  0.00    -0.274 OA
ATOM     24 CL   UNL     1       2.117   2.727 -15.183  0.00  0.00    +0.062 Cl
ATOM     25  H   UNL     1      -4.301   0.027 -25.943  0.00  0.00    +0.000 HD
ATOM     26  H   UNL     1      -4.914  -1.502 -26.187  0.00  0.00    +0.000 HD
ATOM     27  H   UNL     1      -3.694  -1.262 -25.080  0.00  0.00    +0.000 HD
ENDROOT
TORSDOF 0
ENDMDL
MODEL 9
REMARK VINA RESULT:    -6.010      9.001     12.435
REMARK INTER + INTRA:          -6.010
REMARK INTER:                  -6.010
REMARK INTRA:                   0.000
REMARK UNBOUND:                 0.000
REMARK  Name = /home/vital/Documents/PhD_2021/Malaria_codes/scripts/../data/pdbqt_ligands/ligand_12_temp.pdb
REMARK                            x       y       z     vdW  Elec       q    Type
REMARK                         _______ _______ _______ _____ _____    ______ ____
ROOT
ATOM      1  N   UNL     1      10.844  -1.471 -12.251  0.00  0.00    -0.327 N 
ATOM      2  C   UNL     1      10.901  -0.294 -11.397  0.00  0.00    +0.012 C 
ATOM      3  C   UNL     1      12.146   0.476 -11.699  0.00  0.00    -0.074 C 
ATOM      4  C   UNL     1      12.261   1.764 -12.066  0.00  0.00    -0.082 C 
ATOM      5  C   UNL     1      11.153   2.752 -12.288  0.00  0.00    +0.001 C 
ATOM      6  C   UNL     1      11.338   3.410 -13.637  0.00  0.00    +0.004 C 
ATOM      7  N   UNL     1      10.824   3.073 -14.772  0.00  0.00    -0.283 NA
ATOM      8  C   UNL     1       9.960   1.903 -14.862  0.00  0.00    +0.102 C 
ATOM      9  C   UNL     1       8.597   2.318 -14.531  0.00  0.00    -0.054 C 
ATOM     10  C   UNL     1       7.475   2.630 -14.240  0.00  0.00    +0.036 C 
ATOM     11  N   UNL     1       6.224   2.957 -13.893  0.00  0.00    -0.205 NA
ATOM     12  C   UNL     1       5.483   3.443 -14.833  0.00  0.00    +0.038 C 
ATOM     13  C   UNL     1       4.067   3.852 -14.653  0.00  0.00    -0.046 C 
ATOM     14  C   UNL     1       3.483   3.821 -13.443  0.00  0.00    -0.071 C 
ATOM     15  C   UNL     1       2.069   4.192 -13.089  0.00  0.00    +0.028 C 
ATOM     16  C   UNL     1       1.237   4.538 -14.249  0.00  0.00    -0.093 C 
ATOM     17  C   UNL     1       0.571   4.818 -15.208  0.00  0.00    -0.074 C 
ATOM     18  C   UNL     1      -0.181   5.139 -16.370  0.00  0.00    -0.009 C 
ATOM     19  C   UNL     1       0.216   6.044 -17.287  0.00  0.00    -0.020 C 
ATOM     20  C   UNL     1      -0.641   6.329 -18.491  0.00  0.00    +0.047 C 
ATOM     21 CL   UNL     1      -0.169   5.304 -19.861  0.00  0.00    -0.121 Cl
ATOM     22  C   UNL     1       1.472   6.877 -17.174  0.00  0.00    +0.092 C 
ATOM     23  O   UNL     1       2.371   6.515 -18.216  0.00  0.00    -0.274 OA
ATOM     24 CL   UNL     1       3.805   7.402 -18.178  0.00  0.00    +0.062 Cl
ATOM     25  H   UNL     1       9.996  -1.998 -12.048  0.00  0.00    +0.000 HD
ATOM     26  H   UNL     1      11.660  -2.057 -12.076  0.00  0.00    +0.000 HD
ATOM     27  H   UNL     1      10.839  -1.181 -13.229  0.00  0.00    +0.000 HD
ENDROOT
TORSDOF 0
ENDMDL
