MODEL 1
REMARK VINA RESULT:    -6.838      0.000      0.000
REMARK INTER + INTRA:          -6.838
REMARK INTER:                  -6.838
REMARK INTRA:                   0.000
REMARK UNBOUND:                 0.000
REMARK  Name = /home/vital/Documents/PhD_2021/Malaria_codes/scripts/../data/pdbqt_ligands/ligand_148_temp.pdb
REMARK                            x       y       z     vdW  Elec       q    Type
REMARK                         _______ _______ _______ _____ _____    ______ ____
ROOT
ATOM      1  C1  UNL     1      -0.717 -10.418 -32.293  0.00  0.00    -0.049 C 
ATOM      2  C2  UNL     1      -1.200  -9.331 -31.345  0.00  0.00    +0.009 C 
ATOM      3  N1  UNL     1      -1.202  -7.984 -31.936  0.00  0.00    -0.329 N 
ATOM      4  C3  UNL     1      -2.429  -7.430 -32.516  0.00  0.00    +0.009 C 
ATOM      5  C4  UNL     1      -3.076  -8.306 -33.577  0.00  0.00    -0.049 C 
ATOM      6  C5  UNL     1       0.026  -7.465 -32.372  0.00  0.00    +0.051 A 
ATOM      7  C6  UNL     1       0.419  -7.538 -33.712  0.00  0.00    -0.037 A 
ATOM      8  C7  UNL     1       1.662  -7.048 -34.124  0.00  0.00    -0.039 A 
ATOM      9  C8  UNL     1       2.523  -6.435 -33.215  0.00  0.00    +0.026 A 
ATOM     10  N2  UNL     1       3.814  -6.063 -33.613  0.00  0.00    -0.358 N 
ATOM     11  C9  UNL     1       2.163  -6.394 -31.866  0.00  0.00    -0.018 A 
ATOM     12  C10 UNL     1       0.917  -6.870 -31.444  0.00  0.00    +0.057 A 
ATOM     13  N3  UNL     1       0.444  -6.756 -30.118  0.00  0.00    -0.280 N 
ATOM     14  C11 UNL     1       1.096  -6.260 -29.012  0.00  0.00    +0.248 C 
ATOM     15  O1  UNL     1       2.259  -5.881 -28.950  0.00  0.00    -0.270 OA
ATOM     16  C12 UNL     1       0.277  -6.226 -27.765  0.00  0.00    +0.038 A 
ATOM     17  C13 UNL     1       0.926  -6.419 -26.537  0.00  0.00    -0.050 A 
ATOM     18  C14 UNL     1       0.199  -6.394 -25.346  0.00  0.00    -0.060 A 
ATOM     19  C15 UNL     1      -1.177  -6.169 -25.376  0.00  0.00    -0.043 A 
ATOM     20  C16 UNL     1      -1.818  -5.960 -26.596  0.00  0.00    +0.042 A 
ATOM     21 CL1  UNL     1      -3.515  -5.668 -26.628  0.00  0.00    -0.084 Cl
ATOM     22  C17 UNL     1      -1.102  -5.982 -27.793  0.00  0.00    -0.031 A 
ATOM     23  H   UNL     1       4.064  -6.093 -34.565  0.00  0.00    +0.000 HD
ATOM     24  H   UNL     1       4.472  -5.771 -32.941  0.00  0.00    +0.000 HD
ATOM     25  H   UNL     1      -0.475  -7.075 -29.964  0.00  0.00    +0.000 HD
ENDROOT
TORSDOF 0
ENDMDL
MODEL 2
REMARK VINA RESULT:    -6.783     17.378     18.927
REMARK INTER + INTRA:          -6.783
REMARK INTER:                  -6.783
REMARK INTRA:                   0.000
REMARK UNBOUND:                 0.000
REMARK  Name = /home/vital/Documents/PhD_2021/Malaria_codes/scripts/../data/pdbqt_ligands/ligand_148_temp.pdb
REMARK                            x       y       z     vdW  Elec       q    Type
REMARK                         _______ _______ _______ _____ _____    ______ ____
ROOT
ATOM      1  C1  UNL     1       2.627   8.742 -18.415  0.00  0.00    -0.049 C 
ATOM      2  C2  UNL     1       3.166   7.381 -17.999  0.00  0.00    +0.009 C 
ATOM      3  N1  UNL     1       2.475   6.249 -18.634  0.00  0.00    -0.329 N 
ATOM      4  C3  UNL     1       3.026   5.624 -19.840  0.00  0.00    +0.009 C 
ATOM      5  C4  UNL     1       3.292   6.590 -20.984  0.00  0.00    -0.049 C 
ATOM      6  C5  UNL     1       1.102   6.106 -18.387  0.00  0.00    +0.051 A 
ATOM      7  C6  UNL     1       0.141   6.583 -19.284  0.00  0.00    -0.037 A 
ATOM      8  C7  UNL     1      -1.224   6.465 -19.005  0.00  0.00    -0.039 A 
ATOM      9  C8  UNL     1      -1.663   5.829 -17.845  0.00  0.00    +0.026 A 
ATOM     10  N2  UNL     1      -3.025   5.828 -17.516  0.00  0.00    -0.358 N 
ATOM     11  C9  UNL     1      -0.714   5.386 -16.919  0.00  0.00    -0.018 A 
ATOM     12  C10 UNL     1       0.654   5.488 -17.193  0.00  0.00    +0.057 A 
ATOM     13  N3  UNL     1       1.661   4.959 -16.354  0.00  0.00    -0.280 N 
ATOM     14  C11 UNL     1       1.525   4.344 -15.130  0.00  0.00    +0.248 C 
ATOM     15  O1  UNL     1       0.492   4.199 -14.489  0.00  0.00    -0.270 OA
ATOM     16  C12 UNL     1       2.799   3.843 -14.538  0.00  0.00    +0.038 A 
ATOM     17  C13 UNL     1       2.933   3.850 -13.141  0.00  0.00    -0.050 A 
ATOM     18  C14 UNL     1       4.107   3.390 -12.544  0.00  0.00    -0.060 A 
ATOM     19  C15 UNL     1       5.149   2.912 -13.339  0.00  0.00    -0.043 A 
ATOM     20  C16 UNL     1       5.009   2.889 -14.725  0.00  0.00    +0.042 A 
ATOM     21 CL1  UNL     1       6.292   2.285 -15.701  0.00  0.00    -0.084 Cl
ATOM     22  C17 UNL     1       3.839   3.346 -15.333  0.00  0.00    -0.031 A 
ATOM     23  H   UNL     1      -3.689   6.142 -18.172  0.00  0.00    +0.000 HD
ATOM     24  H   UNL     1      -3.317   5.515 -16.630  0.00  0.00    +0.000 HD
ATOM     25  H   UNL     1       2.582   5.043 -16.690  0.00  0.00    +0.000 HD
ENDROOT
TORSDOF 0
ENDMDL
MODEL 3
REMARK VINA RESULT:    -6.740      3.595      5.391
REMARK INTER + INTRA:          -6.740
REMARK INTER:                  -6.740
REMARK INTRA:                   0.000
REMARK UNBOUND:                 0.000
REMARK  Name = /home/vital/Documents/PhD_2021/Malaria_codes/scripts/../data/pdbqt_ligands/ligand_148_temp.pdb
REMARK                            x       y       z     vdW  Elec       q    Type
REMARK                         _______ _______ _______ _____ _____    ______ ____
ROOT
ATOM      1  C1  UNL     1       0.242  -2.797 -35.573  0.00  0.00    -0.049 C 
ATOM      2  C2  UNL     1      -0.277  -3.705 -34.467  0.00  0.00    +0.009 C 
ATOM      3  N1  UNL     1       0.390  -3.506 -33.172  0.00  0.00    -0.329 N 
ATOM      4  C3  UNL     1      -0.208  -2.636 -32.155  0.00  0.00    +0.009 C 
ATOM      5  C4  UNL     1      -0.522  -1.228 -32.635  0.00  0.00    -0.049 C 
ATOM      6  C5  UNL     1       1.772  -3.735 -33.112  0.00  0.00    +0.051 A 
ATOM      7  C6  UNL     1       2.695  -2.690 -33.213  0.00  0.00    -0.037 A 
ATOM      8  C7  UNL     1       4.071  -2.940 -33.188  0.00  0.00    -0.039 A 
ATOM      9  C8  UNL     1       4.557  -4.236 -33.018  0.00  0.00    +0.026 A 
ATOM     10  N2  UNL     1       5.931  -4.489 -33.120  0.00  0.00    -0.358 N 
ATOM     11  C9  UNL     1       3.647  -5.295 -32.959  0.00  0.00    -0.018 A 
ATOM     12  C10 UNL     1       2.269  -5.055 -32.971  0.00  0.00    +0.057 A 
ATOM     13  N3  UNL     1       1.298  -6.067 -32.802  0.00  0.00    -0.280 N 
ATOM     14  C11 UNL     1       1.483  -7.425 -32.678  0.00  0.00    +0.248 C 
ATOM     15  O1  UNL     1       2.542  -8.036 -32.766  0.00  0.00    -0.270 OA
ATOM     16  C12 UNL     1       0.235  -8.209 -32.447  0.00  0.00    +0.038 A 
ATOM     17  C13 UNL     1       0.158  -9.509 -32.969  0.00  0.00    -0.050 A 
ATOM     18  C14 UNL     1      -0.990 -10.278 -32.776  0.00  0.00    -0.060 A 
ATOM     19  C15 UNL     1      -2.063  -9.755 -32.054  0.00  0.00    -0.043 A 
ATOM     20  C16 UNL     1      -1.979  -8.470 -31.520  0.00  0.00    +0.042 A 
ATOM     21 CL1  UNL     1      -3.299  -7.835 -30.616  0.00  0.00    -0.084 Cl
ATOM     22  C17 UNL     1      -0.835  -7.693 -31.706  0.00  0.00    -0.031 A 
ATOM     23  H   UNL     1       6.568  -3.739 -33.162  0.00  0.00    +0.000 HD
ATOM     24  H   UNL     1       6.259  -5.416 -33.151  0.00  0.00    +0.000 HD
ATOM     25  H   UNL     1       0.363  -5.759 -32.768  0.00  0.00    +0.000 HD
ENDROOT
TORSDOF 0
ENDMDL
MODEL 4
REMARK VINA RESULT:    -6.446      5.017      7.444
REMARK INTER + INTRA:          -6.446
REMARK INTER:                  -6.446
REMARK INTRA:                   0.000
REMARK UNBOUND:                 0.000
REMARK  Name = /home/vital/Documents/PhD_2021/Malaria_codes/scripts/../data/pdbqt_ligands/ligand_148_temp.pdb
REMARK                            x       y       z     vdW  Elec       q    Type
REMARK                         _______ _______ _______ _____ _____    ______ ____
ROOT
ATOM      1  C1  UNL     1       4.877  -4.340 -33.335  0.00  0.00    -0.049 C 
ATOM      2  C2  UNL     1       3.676  -3.438 -33.089  0.00  0.00    +0.009 C 
ATOM      3  N1  UNL     1       2.620  -4.061 -32.279  0.00  0.00    -0.329 N 
ATOM      4  C3  UNL     1       2.556  -3.824 -30.833  0.00  0.00    +0.009 C 
ATOM      5  C4  UNL     1       3.840  -4.144 -30.085  0.00  0.00    -0.049 C 
ATOM      6  C5  UNL     1       2.013  -5.220 -32.784  0.00  0.00    +0.051 A 
ATOM      7  C6  UNL     1       2.419  -6.496 -32.380  0.00  0.00    -0.037 A 
ATOM      8  C7  UNL     1       1.828  -7.643 -32.920  0.00  0.00    -0.039 A 
ATOM      9  C8  UNL     1       0.788  -7.541 -33.844  0.00  0.00    +0.026 A 
ATOM     10  N2  UNL     1       0.292  -8.692 -34.470  0.00  0.00    -0.358 N 
ATOM     11  C9  UNL     1       0.402  -6.274 -34.288  0.00  0.00    -0.018 A 
ATOM     12  C10 UNL     1       0.978  -5.120 -33.746  0.00  0.00    +0.057 A 
ATOM     13  N3  UNL     1       0.555  -3.811 -34.067  0.00  0.00    -0.280 N 
ATOM     14  C11 UNL     1      -0.394  -3.413 -34.981  0.00  0.00    +0.248 C 
ATOM     15  O1  UNL     1      -1.014  -4.128 -35.759  0.00  0.00    -0.270 OA
ATOM     16  C12 UNL     1      -0.642  -1.943 -35.026  0.00  0.00    +0.038 A 
ATOM     17  C13 UNL     1      -0.992  -1.363 -36.255  0.00  0.00    -0.050 A 
ATOM     18  C14 UNL     1      -1.235   0.008 -36.342  0.00  0.00    -0.060 A 
ATOM     19  C15 UNL     1      -1.136   0.805 -35.202  0.00  0.00    -0.043 A 
ATOM     20  C16 UNL     1      -0.805   0.226 -33.978  0.00  0.00    +0.042 A 
ATOM     21 CL1  UNL     1      -0.699   1.211 -32.570  0.00  0.00    -0.084 Cl
ATOM     22  C17 UNL     1      -0.562  -1.144 -33.879  0.00  0.00    -0.031 A 
ATOM     23  H   UNL     1       0.567  -9.583 -34.153  0.00  0.00    +0.000 HD
ATOM     24  H   UNL     1      -0.332  -8.610 -35.227  0.00  0.00    +0.000 HD
ATOM     25  H   UNL     1       0.999  -3.086 -33.571  0.00  0.00    +0.000 HD
ENDROOT
TORSDOF 0
ENDMDL
MODEL 5
REMARK VINA RESULT:    -6.444      9.154     11.164
REMARK INTER + INTRA:          -6.444
REMARK INTER:                  -6.444
REMARK INTRA:                   0.000
REMARK UNBOUND:                 0.000
REMARK  Name = /home/vital/Documents/PhD_2021/Malaria_codes/scripts/../data/pdbqt_ligands/ligand_148_temp.pdb
REMARK                            x       y       z     vdW  Elec       q    Type
REMARK                         _______ _______ _______ _____ _____    ______ ____
ROOT
ATOM      1  C1  UNL     1       6.775  -0.056 -25.980  0.00  0.00    -0.049 C 
ATOM      2  C2  UNL     1       6.750  -0.328 -24.483  0.00  0.00    +0.009 C 
ATOM      3  N1  UNL     1       7.624  -1.435 -24.065  0.00  0.00    -0.329 N 
ATOM      4  C3  UNL     1       8.974  -1.164 -23.562  0.00  0.00    +0.009 C 
ATOM      5  C4  UNL     1       9.841  -0.335 -24.497  0.00  0.00    -0.049 C 
ATOM      6  C5  UNL     1       7.361  -2.705 -24.596  0.00  0.00    +0.051 A 
ATOM      7  C6  UNL     1       8.060  -3.198 -25.703  0.00  0.00    -0.037 A 
ATOM      8  C7  UNL     1       7.760  -4.452 -26.243  0.00  0.00    -0.039 A 
ATOM      9  C8  UNL     1       6.785  -5.263 -25.663  0.00  0.00    +0.026 A 
ATOM     10  N2  UNL     1       6.407  -6.460 -26.286  0.00  0.00    -0.358 N 
ATOM     11  C9  UNL     1       6.049  -4.767 -24.584  0.00  0.00    -0.018 A 
ATOM     12  C10 UNL     1       6.348  -3.518 -24.029  0.00  0.00    +0.057 A 
ATOM     13  N3  UNL     1       5.721  -3.007 -22.870  0.00  0.00    -0.280 N 
ATOM     14  C11 UNL     1       4.693  -3.554 -22.136  0.00  0.00    +0.248 C 
ATOM     15  O1  UNL     1       4.064  -4.573 -22.394  0.00  0.00    -0.270 OA
ATOM     16  C12 UNL     1       4.307  -2.777 -20.923  0.00  0.00    +0.038 A 
ATOM     17  C13 UNL     1       2.964  -2.793 -20.519  0.00  0.00    -0.050 A 
ATOM     18  C14 UNL     1       2.560  -2.081 -19.390  0.00  0.00    -0.060 A 
ATOM     19  C15 UNL     1       3.497  -1.356 -18.654  0.00  0.00    -0.043 A 
ATOM     20  C16 UNL     1       4.835  -1.354 -19.045  0.00  0.00    +0.042 A 
ATOM     21 CL1  UNL     1       5.990  -0.470 -18.125  0.00  0.00    -0.084 Cl
ATOM     22  C17 UNL     1       5.250  -2.063 -20.172  0.00  0.00    -0.031 A 
ATOM     23  H   UNL     1       6.929  -6.806 -27.046  0.00  0.00    +0.000 HD
ATOM     24  H   UNL     1       5.620  -6.955 -25.963  0.00  0.00    +0.000 HD
ATOM     25  H   UNL     1       6.065  -2.144 -22.545  0.00  0.00    +0.000 HD
ENDROOT
TORSDOF 0
ENDMDL
MODEL 6
REMARK VINA RESULT:    -6.378      6.597     10.693
REMARK INTER + INTRA:          -6.378
REMARK INTER:                  -6.378
REMARK INTRA:                   0.000
REMARK UNBOUND:                 0.000
REMARK  Name = /home/vital/Documents/PhD_2021/Malaria_codes/scripts/../data/pdbqt_ligands/ligand_148_temp.pdb
REMARK                            x       y       z     vdW  Elec       q    Type
REMARK                         _______ _______ _______ _____ _____    ______ ____
ROOT
ATOM      1  C1  UNL     1      -3.804   1.006 -23.976  0.00  0.00    -0.049 C 
ATOM      2  C2  UNL     1      -3.891  -0.446 -24.425  0.00  0.00    +0.009 C 
ATOM      3  N1  UNL     1      -4.731  -1.287 -23.559  0.00  0.00    -0.329 N 
ATOM      4  C3  UNL     1      -6.133  -1.541 -23.906  0.00  0.00    +0.009 C 
ATOM      5  C4  UNL     1      -6.963  -0.288 -24.131  0.00  0.00    -0.049 C 
ATOM      6  C5  UNL     1      -4.350  -1.420 -22.217  0.00  0.00    +0.051 A 
ATOM      7  C6  UNL     1      -4.922  -0.637 -21.210  0.00  0.00    -0.037 A 
ATOM      8  C7  UNL     1      -4.505  -0.757 -19.880  0.00  0.00    -0.039 A 
ATOM      9  C8  UNL     1      -3.537  -1.693 -19.519  0.00  0.00    +0.026 A 
ATOM     10  N2  UNL     1      -3.038  -1.717 -18.210  0.00  0.00    -0.358 N 
ATOM     11  C9  UNL     1      -2.926  -2.452 -20.520  0.00  0.00    -0.018 A 
ATOM     12  C10 UNL     1      -3.343  -2.349 -21.851  0.00  0.00    +0.057 A 
ATOM     13  N3  UNL     1      -2.848  -3.166 -22.892  0.00  0.00    -0.280 N 
ATOM     14  C11 UNL     1      -1.856  -4.119 -22.840  0.00  0.00    +0.248 C 
ATOM     15  O1  UNL     1      -1.149  -4.395 -21.878  0.00  0.00    -0.270 OA
ATOM     16  C12 UNL     1      -1.621  -4.849 -24.119  0.00  0.00    +0.038 A 
ATOM     17  C13 UNL     1      -0.318  -5.279 -24.412  0.00  0.00    -0.050 A 
ATOM     18  C14 UNL     1      -0.054  -5.966 -25.597  0.00  0.00    -0.060 A 
ATOM     19  C15 UNL     1      -1.090  -6.235 -26.490  0.00  0.00    -0.043 A 
ATOM     20  C16 UNL     1      -2.388  -5.823 -26.191  0.00  0.00    +0.042 A 
ATOM     21 CL1  UNL     1      -3.667  -6.170 -27.289  0.00  0.00    -0.084 Cl
ATOM     22  C17 UNL     1      -2.664  -5.136 -25.008  0.00  0.00    -0.031 A 
ATOM     23  H   UNL     1      -3.473  -1.181 -17.508  0.00  0.00    +0.000 HD
ATOM     24  H   UNL     1      -2.254  -2.271 -17.992  0.00  0.00    +0.000 HD
ATOM     25  H   UNL     1      -3.268  -3.036 -23.773  0.00  0.00    +0.000 HD
ENDROOT
TORSDOF 0
ENDMDL
MODEL 7
REMARK VINA RESULT:    -6.279      2.119      2.791
REMARK INTER + INTRA:          -6.279
REMARK INTER:                  -6.279
REMARK INTRA:                   0.000
REMARK UNBOUND:                 0.000
REMARK  Name = /home/vital/Documents/PhD_2021/Malaria_codes/scripts/../data/pdbqt_ligands/ligand_148_temp.pdb
REMARK                            x       y       z     vdW  Elec       q    Type
REMARK                         _______ _______ _______ _____ _____    ______ ____
ROOT
ATOM      1  C1  UNL     1       2.087  -8.094 -33.107  0.00  0.00    -0.049 C 
ATOM      2  C2  UNL     1       1.261  -7.407 -32.029  0.00  0.00    +0.009 C 
ATOM      3  N1  UNL     1       1.197  -5.945 -32.170  0.00  0.00    -0.329 N 
ATOM      4  C3  UNL     1       0.059  -5.314 -32.845  0.00  0.00    +0.009 C 
ATOM      5  C4  UNL     1      -0.212  -5.838 -34.246  0.00  0.00    -0.049 C 
ATOM      6  C5  UNL     1       2.404  -5.234 -32.109  0.00  0.00    +0.051 A 
ATOM      7  C6  UNL     1       3.084  -4.841 -33.266  0.00  0.00    -0.037 A 
ATOM      8  C7  UNL     1       4.305  -4.164 -33.188  0.00  0.00    -0.039 A 
ATOM      9  C8  UNL     1       4.854  -3.825 -31.952  0.00  0.00    +0.026 A 
ATOM     10  N2  UNL     1       6.134  -3.260 -31.884  0.00  0.00    -0.358 N 
ATOM     11  C9  UNL     1       4.208  -4.248 -30.788  0.00  0.00    -0.018 A 
ATOM     12  C10 UNL     1       2.980  -4.916 -30.854  0.00  0.00    +0.057 A 
ATOM     13  N3  UNL     1       2.220  -5.270 -29.717  0.00  0.00    -0.280 N 
ATOM     14  C11 UNL     1       2.540  -5.118 -28.387  0.00  0.00    +0.248 C 
ATOM     15  O1  UNL     1       3.597  -4.705 -27.926  0.00  0.00    -0.270 OA
ATOM     16  C12 UNL     1       1.475  -5.544 -27.434  0.00  0.00    +0.038 A 
ATOM     17  C13 UNL     1       1.863  -6.083 -26.198  0.00  0.00    -0.050 A 
ATOM     18  C14 UNL     1       0.900  -6.494 -25.276  0.00  0.00    -0.060 A 
ATOM     19  C15 UNL     1      -0.455  -6.362 -25.581  0.00  0.00    -0.043 A 
ATOM     20  C16 UNL     1      -0.840  -5.810 -26.802  0.00  0.00    +0.042 A 
ATOM     21 CL1  UNL     1      -2.513  -5.635 -27.168  0.00  0.00    -0.084 Cl
ATOM     22  C17 UNL     1       0.115  -5.395 -27.730  0.00  0.00    -0.031 A 
ATOM     23  H   UNL     1       6.586  -2.964 -32.707  0.00  0.00    +0.000 HD
ATOM     24  H   UNL     1       6.583  -3.160 -31.013  0.00  0.00    +0.000 HD
ATOM     25  H   UNL     1       1.344  -5.680 -29.900  0.00  0.00    +0.000 HD
ENDROOT
TORSDOF 0
ENDMDL
MODEL 8
REMARK VINA RESULT:    -6.139     16.025     19.207
REMARK INTER + INTRA:          -6.139
REMARK INTER:                  -6.139
REMARK INTRA:                   0.000
REMARK UNBOUND:                 0.000
REMARK  Name = /home/vital/Documents/PhD_2021/Malaria_codes/scripts/../data/pdbqt_ligands/ligand_148_temp.pdb
REMARK                            x       y       z     vdW  Elec       q    Type
REMARK                         _______ _______ _______ _____ _____    ______ ____
ROOT
ATOM      1  C1  UNL     1      -1.793   5.574 -17.553  0.00  0.00    -0.049 C 
ATOM      2  C2  UNL     1      -0.647   5.854 -18.513  0.00  0.00    +0.009 C 
ATOM      3  N1  UNL     1       0.517   4.976 -18.323  0.00  0.00    -0.329 N 
ATOM      4  C3  UNL     1       0.684   3.775 -19.147  0.00  0.00    +0.009 C 
ATOM      5  C4  UNL     1      -0.506   2.830 -19.131  0.00  0.00    -0.049 C 
ATOM      6  C5  UNL     1       1.163   5.015 -17.079  0.00  0.00    +0.051 A 
ATOM      7  C6  UNL     1       0.887   4.078 -16.079  0.00  0.00    -0.037 A 
ATOM      8  C7  UNL     1       1.514   4.153 -14.830  0.00  0.00    -0.039 A 
ATOM      9  C8  UNL     1       2.463   5.140 -14.567  0.00  0.00    +0.026 A 
ATOM     10  N2  UNL     1       2.989   5.281 -13.276  0.00  0.00    -0.358 N 
ATOM     11  C9  UNL     1       2.716   6.108 -15.541  0.00  0.00    -0.018 A 
ATOM     12  C10 UNL     1       2.104   6.037 -16.797  0.00  0.00    +0.057 A 
ATOM     13  N3  UNL     1       2.401   6.916 -17.863  0.00  0.00    -0.280 N 
ATOM     14  C11 UNL     1       3.239   8.008 -17.870  0.00  0.00    +0.248 C 
ATOM     15  O1  UNL     1       3.843   8.479 -16.914  0.00  0.00    -0.270 OA
ATOM     16  C12 UNL     1       3.374   8.685 -19.192  0.00  0.00    +0.038 A 
ATOM     17  C13 UNL     1       3.576  10.073 -19.212  0.00  0.00    -0.050 A 
ATOM     18  C14 UNL     1       3.709  10.747 -20.427  0.00  0.00    -0.060 A 
ATOM     19  C15 UNL     1       3.647  10.037 -21.626  0.00  0.00    -0.043 A 
ATOM     20  C16 UNL     1       3.463   8.656 -21.604  0.00  0.00    +0.042 A 
ATOM     21 CL1  UNL     1       3.403   7.781 -23.086  0.00  0.00    -0.084 Cl
ATOM     22  C17 UNL     1       3.330   7.971 -20.396  0.00  0.00    -0.031 A 
ATOM     23  H   UNL     1       2.807   4.596 -12.593  0.00  0.00    +0.000 HD
ATOM     24  H   UNL     1       3.540   6.065 -13.052  0.00  0.00    +0.000 HD
ATOM     25  H   UNL     1       1.948   6.720 -18.715  0.00  0.00    +0.000 HD
ENDROOT
TORSDOF 0
ENDMDL
MODEL 9
REMARK VINA RESULT:    -6.049      4.258      6.267
REMARK INTER + INTRA:          -6.049
REMARK INTER:                  -6.049
REMARK INTRA:                   0.000
REMARK UNBOUND:                 0.000
REMARK  Name = /home/vital/Documents/PhD_2021/Malaria_codes/scripts/../data/pdbqt_ligands/ligand_148_temp.pdb
REMARK                            x       y       z     vdW  Elec       q    Type
REMARK                         _______ _______ _______ _____ _____    ______ ____
ROOT
ATOM      1  C1  UNL     1       0.084  -1.216 -34.790  0.00  0.00    -0.049 C 
ATOM      2  C2  UNL     1      -0.070  -2.412 -33.861  0.00  0.00    +0.009 C 
ATOM      3  N1  UNL     1       0.523  -2.211 -32.530  0.00  0.00    -0.329 N 
ATOM      4  C3  UNL     1      -0.309  -1.770 -31.406  0.00  0.00    +0.009 C 
ATOM      5  C4  UNL     1      -1.092  -0.493 -31.664  0.00  0.00    -0.049 C 
ATOM      6  C5  UNL     1       1.902  -1.967 -32.464  0.00  0.00    +0.051 A 
ATOM      7  C6  UNL     1       2.414  -0.669 -32.367  0.00  0.00    -0.037 A 
ATOM      8  C7  UNL     1       3.793  -0.440 -32.338  0.00  0.00    -0.039 A 
ATOM      9  C8  UNL     1       4.693  -1.506 -32.362  0.00  0.00    +0.026 A 
ATOM     10  N2  UNL     1       6.069  -1.260 -32.460  0.00  0.00    -0.358 N 
ATOM     11  C9  UNL     1       4.197  -2.804 -32.502  0.00  0.00    -0.018 A 
ATOM     12  C10 UNL     1       2.819  -3.046 -32.520  0.00  0.00    +0.057 A 
ATOM     13  N3  UNL     1       2.252  -4.339 -32.545  0.00  0.00    -0.280 N 
ATOM     14  C11 UNL     1       2.889  -5.556 -32.635  0.00  0.00    +0.248 C 
ATOM     15  O1  UNL     1       4.089  -5.751 -32.785  0.00  0.00    -0.270 OA
ATOM     16  C12 UNL     1       1.986  -6.742 -32.572  0.00  0.00    +0.038 A 
ATOM     17  C13 UNL     1       2.340  -7.889 -33.298  0.00  0.00    -0.050 A 
ATOM     18  C14 UNL     1       1.524  -9.021 -33.267  0.00  0.00    -0.060 A 
ATOM     19  C15 UNL     1       0.356  -9.015 -32.505  0.00  0.00    -0.043 A 
ATOM     20  C16 UNL     1       0.014  -7.881 -31.770  0.00  0.00    +0.042 A 
ATOM     21 CL1  UNL     1      -1.421  -7.883 -30.818  0.00  0.00    -0.084 Cl
ATOM     22  C17 UNL     1       0.822  -6.744 -31.792  0.00  0.00    -0.031 A 
ATOM     23  H   UNL     1       6.413  -0.343 -32.361  0.00  0.00    +0.000 HD
ATOM     24  H   UNL     1       6.691  -2.004 -32.629  0.00  0.00    +0.000 HD
ATOM     25  H   UNL     1       1.270  -4.375 -32.492  0.00  0.00    +0.000 HD
ENDROOT
TORSDOF 0
ENDMDL
