MODEL 1
REMARK VINA RESULT:    -6.378      0.000      0.000
REMARK INTER + INTRA:          -6.378
REMARK INTER:                  -6.378
REMARK INTRA:                   0.000
REMARK UNBOUND:                 0.000
REMARK  Name = /home/vital/Documents/PhD_2021/Malaria_codes/scripts/../data/pdbqt_ligands/ligand_290_temp.pdb
REMARK                            x       y       z     vdW  Elec       q    Type
REMARK                         _______ _______ _______ _____ _____    ______ ____
ROOT
ATOM      1  C1  UNL     1       7.232  -4.233 -26.158  0.00  0.00    -0.037 C 
ATOM      2  C2  UNL     1       6.087  -3.977 -27.127  0.00  0.00    +0.072 C 
ATOM      3  C3  UNL     1       6.495  -4.302 -28.574  0.00  0.00    +0.041 C 
ATOM      4  N1  UNL     1       5.386  -4.063 -29.497  0.00  0.00    -0.292 N 
ATOM      5  C4  UNL     1       5.668  -3.856 -30.847  0.00  0.00    +0.255 C 
ATOM      6  O1  UNL     1       6.820  -3.939 -31.271  0.00  0.00    -0.269 OA
ATOM      7  C5  UNL     1       4.557  -3.544 -31.720  0.00  0.00    +0.093 A 
ATOM      8  S1  UNL     1       4.119  -4.672 -32.919  0.00  0.00    -0.082 S 
ATOM      9  C6  UNL     1       2.839  -3.679 -33.499  0.00  0.00    +0.024 A 
ATOM     10  C7  UNL     1       1.951  -3.979 -34.549  0.00  0.00    -0.012 A 
ATOM     11  C8  UNL     1       0.979  -3.043 -34.884  0.00  0.00    +0.124 A 
ATOM     12  F1  UNL     1       0.126  -3.316 -35.880  0.00  0.00    -0.205 F 
ATOM     13  C9  UNL     1       0.874  -1.839 -34.213  0.00  0.00    -0.026 A 
ATOM     14  C10 UNL     1       1.758  -1.543 -33.172  0.00  0.00    -0.049 A 
ATOM     15  C11 UNL     1       2.764  -2.473 -32.792  0.00  0.00    +0.008 A 
ATOM     16  C12 UNL     1       3.781  -2.409 -31.772  0.00  0.00    +0.068 A 
ATOM     17 CL1  UNL     1       3.979  -1.036 -30.757  0.00  0.00    -0.082 Cl
ATOM     18  C13 UNL     1       4.044  -4.210 -28.920  0.00  0.00    +0.041 C 
ATOM     19  C14 UNL     1       4.068  -5.171 -27.718  0.00  0.00    +0.072 C 
ATOM     20  C15 UNL     1       2.681  -5.329 -27.110  0.00  0.00    -0.037 C 
ATOM     21  O2  UNL     1       4.955  -4.740 -26.673  0.00  0.00    -0.371 OA
ENDROOT
TORSDOF 0
ENDMDL
MODEL 2
REMARK VINA RESULT:    -6.180      9.807     11.886
REMARK INTER + INTRA:          -6.180
REMARK INTER:                  -6.180
REMARK INTRA:                   0.000
REMARK UNBOUND:                 0.000
REMARK  Name = /home/vital/Documents/PhD_2021/Malaria_codes/scripts/../data/pdbqt_ligands/ligand_290_temp.pdb
REMARK                            x       y       z     vdW  Elec       q    Type
REMARK                         _______ _______ _______ _____ _____    ______ ____
ROOT
ATOM      1  C1  UNL     1       3.092  -3.400 -19.373  0.00  0.00    -0.037 C 
ATOM      2  C2  UNL     1       1.786  -3.302 -20.147  0.00  0.00    +0.072 C 
ATOM      3  C3  UNL     1       1.041  -1.997 -19.824  0.00  0.00    +0.041 C 
ATOM      4  N1  UNL     1      -0.208  -1.905 -20.580  0.00  0.00    -0.292 N 
ATOM      5  C4  UNL     1      -1.218  -1.065 -20.111  0.00  0.00    +0.255 C 
ATOM      6  O1  UNL     1      -1.041  -0.359 -19.119  0.00  0.00    -0.269 OA
ATOM      7  C5  UNL     1      -2.470  -1.057 -20.837  0.00  0.00    +0.093 A 
ATOM      8  S1  UNL     1      -2.925   0.360 -21.665  0.00  0.00    -0.082 S 
ATOM      9  C6  UNL     1      -4.392  -0.344 -22.225  0.00  0.00    +0.024 A 
ATOM     10  C7  UNL     1      -5.358   0.268 -23.046  0.00  0.00    -0.012 A 
ATOM     11  C8  UNL     1      -6.492  -0.459 -23.391  0.00  0.00    +0.124 A 
ATOM     12  F1  UNL     1      -7.420   0.110 -24.172  0.00  0.00    -0.205 F 
ATOM     13  C9  UNL     1      -6.684  -1.754 -22.946  0.00  0.00    -0.026 A 
ATOM     14  C10 UNL     1      -5.723  -2.358 -22.130  0.00  0.00    -0.049 A 
ATOM     15  C11 UNL     1      -4.546  -1.654 -21.756  0.00  0.00    +0.008 A 
ATOM     16  C12 UNL     1      -3.424  -2.044 -20.939  0.00  0.00    +0.068 A 
ATOM     17 CL1  UNL     1      -3.331  -3.584 -20.180  0.00  0.00    -0.082 Cl
ATOM     18  C13 UNL     1      -0.220  -2.617 -21.865  0.00  0.00    +0.041 C 
ATOM     19  C14 UNL     1       1.205  -2.748 -22.429  0.00  0.00    +0.072 C 
ATOM     20  C15 UNL     1       1.205  -3.487 -23.761  0.00  0.00    -0.037 C 
ATOM     21  O2  UNL     1       2.097  -3.445 -21.545  0.00  0.00    -0.371 OA
ENDROOT
TORSDOF 0
ENDMDL
MODEL 3
REMARK VINA RESULT:    -6.026      3.893      7.126
REMARK INTER + INTRA:          -6.026
REMARK INTER:                  -6.026
REMARK INTRA:                   0.000
REMARK UNBOUND:                 0.000
REMARK  Name = /home/vital/Documents/PhD_2021/Malaria_codes/scripts/../data/pdbqt_ligands/ligand_290_temp.pdb
REMARK                            x       y       z     vdW  Elec       q    Type
REMARK                         _______ _______ _______ _____ _____    ______ ____
ROOT
ATOM      1  C1  UNL     1       0.839  -3.415 -35.426  0.00  0.00    -0.037 C 
ATOM      2  C2  UNL     1       1.777  -3.902 -34.331  0.00  0.00    +0.072 C 
ATOM      3  C3  UNL     1       1.380  -3.331 -32.959  0.00  0.00    +0.041 C 
ATOM      4  N1  UNL     1       2.280  -3.813 -31.911  0.00  0.00    -0.292 N 
ATOM      5  C4  UNL     1       2.381  -3.084 -30.726  0.00  0.00    +0.255 C 
ATOM      6  O1  UNL     1       1.679  -2.093 -30.532  0.00  0.00    -0.269 OA
ATOM      7  C5  UNL     1       3.339  -3.542 -29.742  0.00  0.00    +0.093 A 
ATOM      8  S1  UNL     1       2.759  -4.144 -28.258  0.00  0.00    -0.082 S 
ATOM      9  C6  UNL     1       4.348  -4.456 -27.674  0.00  0.00    +0.024 A 
ATOM     10  C7  UNL     1       4.690  -5.014 -26.428  0.00  0.00    -0.012 A 
ATOM     11  C8  UNL     1       6.037  -5.184 -26.125  0.00  0.00    +0.124 A 
ATOM     12  F1  UNL     1       6.379  -5.715 -24.943  0.00  0.00    -0.205 F 
ATOM     13  C9  UNL     1       7.030  -4.817 -27.014  0.00  0.00    -0.026 A 
ATOM     14  C10 UNL     1       6.685  -4.262 -28.250  0.00  0.00    -0.049 A 
ATOM     15  C11 UNL     1       5.321  -4.074 -28.604  0.00  0.00    +0.008 A 
ATOM     16  C12 UNL     1       4.714  -3.532 -29.793  0.00  0.00    +0.068 A 
ATOM     17 CL1  UNL     1       5.644  -2.935 -31.110  0.00  0.00    -0.082 Cl
ATOM     18  C13 UNL     1       2.895  -5.122 -32.162  0.00  0.00    +0.041 C 
ATOM     19  C14 UNL     1       2.013  -5.969 -33.097  0.00  0.00    +0.072 C 
ATOM     20  C15 UNL     1       2.642  -7.329 -33.366  0.00  0.00    -0.037 C 
ATOM     21  O2  UNL     1       1.777  -5.340 -34.367  0.00  0.00    -0.371 OA
ENDROOT
TORSDOF 0
ENDMDL
MODEL 4
REMARK VINA RESULT:    -5.883      6.722      8.885
REMARK INTER + INTRA:          -5.883
REMARK INTER:                  -5.883
REMARK INTRA:                   0.000
REMARK UNBOUND:                 0.000
REMARK  Name = /home/vital/Documents/PhD_2021/Malaria_codes/scripts/../data/pdbqt_ligands/ligand_290_temp.pdb
REMARK                            x       y       z     vdW  Elec       q    Type
REMARK                         _______ _______ _______ _____ _____    ______ ____
ROOT
ATOM      1  C1  UNL     1      12.637   2.489 -24.219  0.00  0.00    -0.037 C 
ATOM      2  C2  UNL     1      11.822   1.351 -24.816  0.00  0.00    +0.072 C 
ATOM      3  C3  UNL     1      10.413   1.292 -24.205  0.00  0.00    +0.041 C 
ATOM      4  N1  UNL     1       9.632   0.202 -24.792  0.00  0.00    -0.292 N 
ATOM      5  C4  UNL     1       8.541  -0.300 -24.083  0.00  0.00    +0.255 C 
ATOM      6  O1  UNL     1       8.195   0.205 -23.017  0.00  0.00    -0.269 OA
ATOM      7  C5  UNL     1       7.839  -1.430 -24.653  0.00  0.00    +0.093 A 
ATOM      8  S1  UNL     1       6.236  -1.211 -25.186  0.00  0.00    -0.082 S 
ATOM      9  C6  UNL     1       6.094  -2.852 -25.685  0.00  0.00    +0.024 A 
ATOM     10  C7  UNL     1       4.970  -3.454 -26.282  0.00  0.00    -0.012 A 
ATOM     11  C8  UNL     1       5.037  -4.804 -26.611  0.00  0.00    +0.124 A 
ATOM     12  F1  UNL     1       3.977  -5.390 -27.181  0.00  0.00    -0.205 F 
ATOM     13  C9  UNL     1       6.172  -5.552 -26.361  0.00  0.00    -0.026 A 
ATOM     14  C10 UNL     1       7.285  -4.951 -25.766  0.00  0.00    -0.049 A 
ATOM     15  C11 UNL     1       7.263  -3.573 -25.418  0.00  0.00    +0.008 A 
ATOM     16  C12 UNL     1       8.260  -2.731 -24.805  0.00  0.00    +0.068 A 
ATOM     17 CL1  UNL     1       9.796  -3.331 -24.320  0.00  0.00    -0.082 Cl
ATOM     18  C13 UNL     1      10.000  -0.168 -26.164  0.00  0.00    +0.041 C 
ATOM     19  C14 UNL     1      10.637   1.026 -26.899  0.00  0.00    +0.072 C 
ATOM     20  C15 UNL     1      11.025   0.653 -28.323  0.00  0.00    -0.037 C 
ATOM     21  O2  UNL     1      11.814   1.525 -26.244  0.00  0.00    -0.371 OA
ENDROOT
TORSDOF 0
ENDMDL
MODEL 5
REMARK VINA RESULT:    -5.880      2.776      3.120
REMARK INTER + INTRA:          -5.880
REMARK INTER:                  -5.880
REMARK INTRA:                   0.000
REMARK UNBOUND:                 0.000
REMARK  Name = /home/vital/Documents/PhD_2021/Malaria_codes/scripts/../data/pdbqt_ligands/ligand_290_temp.pdb
REMARK                            x       y       z     vdW  Elec       q    Type
REMARK                         _______ _______ _______ _____ _____    ______ ____
ROOT
ATOM      1  C1  UNL     1       7.245  -0.884 -25.660  0.00  0.00    -0.037 C 
ATOM      2  C2  UNL     1       6.463  -1.935 -26.435  0.00  0.00    +0.072 C 
ATOM      3  C3  UNL     1       6.620  -1.742 -27.953  0.00  0.00    +0.041 C 
ATOM      4  N1  UNL     1       5.874  -2.762 -28.690  0.00  0.00    -0.292 N 
ATOM      5  C4  UNL     1       5.515  -2.506 -30.013  0.00  0.00    +0.255 C 
ATOM      6  O1  UNL     1       5.875  -1.473 -30.577  0.00  0.00    -0.269 OA
ATOM      7  C5  UNL     1       4.710  -3.500 -30.690  0.00  0.00    +0.093 A 
ATOM      8  S1  UNL     1       5.394  -4.355 -31.995  0.00  0.00    -0.082 S 
ATOM      9  C6  UNL     1       3.957  -5.266 -32.254  0.00  0.00    +0.024 A 
ATOM     10  C7  UNL     1       3.759  -6.263 -33.228  0.00  0.00    -0.012 A 
ATOM     11  C8  UNL     1       2.518  -6.889 -33.293  0.00  0.00    +0.124 A 
ATOM     12  F1  UNL     1       2.315  -7.840 -34.214  0.00  0.00    -0.205 F 
ATOM     13  C9  UNL     1       1.492  -6.550 -32.431  0.00  0.00    -0.026 A 
ATOM     14  C10 UNL     1       1.693  -5.559 -31.466  0.00  0.00    -0.049 A 
ATOM     15  C11 UNL     1       2.946  -4.896 -31.360  0.00  0.00    +0.008 A 
ATOM     16  C12 UNL     1       3.400  -3.858 -30.469  0.00  0.00    +0.068 A 
ATOM     17 CL1  UNL     1       2.377  -3.159 -29.277  0.00  0.00    -0.082 Cl
ATOM     18  C13 UNL     1       5.697  -4.041 -27.991  0.00  0.00    +0.041 C 
ATOM     19  C14 UNL     1       6.826  -4.266 -26.970  0.00  0.00    +0.072 C 
ATOM     20  C15 UNL     1       6.651  -5.589 -26.237  0.00  0.00    -0.037 C 
ATOM     21  O2  UNL     1       6.903  -3.227 -25.981  0.00  0.00    -0.371 OA
ENDROOT
TORSDOF 0
ENDMDL
MODEL 6
REMARK VINA RESULT:    -5.820      5.232      7.650
REMARK INTER + INTRA:          -5.820
REMARK INTER:                  -5.820
REMARK INTRA:                   0.000
REMARK UNBOUND:                 0.000
REMARK  Name = /home/vital/Documents/PhD_2021/Malaria_codes/scripts/../data/pdbqt_ligands/ligand_290_temp.pdb
REMARK                            x       y       z     vdW  Elec       q    Type
REMARK                         _______ _______ _______ _____ _____    ______ ____
ROOT
ATOM      1  C1  UNL     1      -3.519  -9.262 -34.525  0.00  0.00    -0.037 C 
ATOM      2  C2  UNL     1      -2.598  -8.211 -33.922  0.00  0.00    +0.072 C 
ATOM      3  C3  UNL     1      -1.121  -8.604 -34.083  0.00  0.00    +0.041 C 
ATOM      4  N1  UNL     1      -0.242  -7.584 -33.510  0.00  0.00    -0.292 N 
ATOM      5  C4  UNL     1       1.056  -7.942 -33.147  0.00  0.00    +0.255 C 
ATOM      6  O1  UNL     1       1.483  -9.075 -33.365  0.00  0.00    -0.269 OA
ATOM      7  C5  UNL     1       1.873  -6.931 -32.511  0.00  0.00    +0.093 A 
ATOM      8  S1  UNL     1       3.239  -6.343 -33.341  0.00  0.00    -0.082 S 
ATOM      9  C6  UNL     1       3.658  -5.275 -32.058  0.00  0.00    +0.024 A 
ATOM     10  C7  UNL     1       4.747  -4.384 -32.029  0.00  0.00    -0.012 A 
ATOM     11  C8  UNL     1       4.932  -3.600 -30.894  0.00  0.00    +0.124 A 
ATOM     12  F1  UNL     1       5.963  -2.746 -30.852  0.00  0.00    -0.205 F 
ATOM     13  C9  UNL     1       4.078  -3.685 -29.810  0.00  0.00    -0.026 A 
ATOM     14  C10 UNL     1       2.998  -4.572 -29.843  0.00  0.00    -0.049 A 
ATOM     15  C11 UNL     1       2.768  -5.389 -30.984  0.00  0.00    +0.008 A 
ATOM     16  C12 UNL     1       1.746  -6.367 -31.262  0.00  0.00    +0.068 A 
ATOM     17 CL1  UNL     1       0.523  -6.767 -30.122  0.00  0.00    -0.082 Cl
ATOM     18  C13 UNL     1      -0.782  -6.218 -33.505  0.00  0.00    +0.041 C 
ATOM     19  C14 UNL     1      -1.815  -6.036 -34.632  0.00  0.00    +0.072 C 
ATOM     20  C15 UNL     1      -2.384  -4.624 -34.635  0.00  0.00    -0.037 C 
ATOM     21  O2  UNL     1      -2.919  -6.950 -34.534  0.00  0.00    -0.371 OA
ENDROOT
TORSDOF 0
ENDMDL
MODEL 7
REMARK VINA RESULT:    -5.743     14.713     15.969
REMARK INTER + INTRA:          -5.743
REMARK INTER:                  -5.743
REMARK INTRA:                   0.000
REMARK UNBOUND:                 0.000
REMARK  Name = /home/vital/Documents/PhD_2021/Malaria_codes/scripts/../data/pdbqt_ligands/ligand_290_temp.pdb
REMARK                            x       y       z     vdW  Elec       q    Type
REMARK                         _______ _______ _______ _____ _____    ______ ____
ROOT
ATOM      1  C1  UNL     1       2.639   4.017 -13.337  0.00  0.00    -0.037 C 
ATOM      2  C2  UNL     1       1.835   3.995 -14.629  0.00  0.00    +0.072 C 
ATOM      3  C3  UNL     1       2.045   5.284 -15.440  0.00  0.00    +0.041 C 
ATOM      4  N1  UNL     1       1.278   5.251 -16.686  0.00  0.00    -0.292 N 
ATOM      5  C4  UNL     1       0.969   6.455 -17.317  0.00  0.00    +0.255 C 
ATOM      6  O1  UNL     1       1.390   7.524 -16.878  0.00  0.00    -0.269 OA
ATOM      7  C5  UNL     1       0.142   6.393 -18.503  0.00  0.00    +0.093 A 
ATOM      8  S1  UNL     1       0.827   6.831 -20.000  0.00  0.00    -0.082 S 
ATOM      9  C6  UNL     1      -0.640   6.530 -20.848  0.00  0.00    +0.024 A 
ATOM     10  C7  UNL     1      -0.853   6.667 -22.233  0.00  0.00    -0.012 A 
ATOM     11  C8  UNL     1      -2.117   6.385 -22.741  0.00  0.00    +0.124 A 
ATOM     12  F1  UNL     1      -2.334   6.510 -24.057  0.00  0.00    -0.205 F 
ATOM     13  C9  UNL     1      -3.152   5.982 -21.919  0.00  0.00    -0.026 A 
ATOM     14  C10 UNL     1      -2.937   5.849 -20.544  0.00  0.00    -0.049 A 
ATOM     15  C11 UNL     1      -1.660   6.121 -19.982  0.00  0.00    +0.008 A 
ATOM     16  C12 UNL     1      -1.188   6.062 -18.621  0.00  0.00    +0.068 A 
ATOM     17 CL1  UNL     1      -2.214   5.630 -17.311  0.00  0.00    -0.082 Cl
ATOM     18  C13 UNL     1       1.025   3.912 -17.233  0.00  0.00    +0.041 C 
ATOM     19  C14 UNL     1       2.113   2.922 -16.780  0.00  0.00    +0.072 C 
ATOM     20  C15 UNL     1       1.859   1.529 -17.340  0.00  0.00    -0.037 C 
ATOM     21  O2  UNL     1       2.205   2.806 -15.351  0.00  0.00    -0.371 OA
ENDROOT
TORSDOF 0
ENDMDL
MODEL 8
REMARK VINA RESULT:    -5.641      3.701      5.418
REMARK INTER + INTRA:          -5.641
REMARK INTER:                  -5.641
REMARK INTRA:                   0.000
REMARK UNBOUND:                 0.000
REMARK  Name = /home/vital/Documents/PhD_2021/Malaria_codes/scripts/../data/pdbqt_ligands/ligand_290_temp.pdb
REMARK                            x       y       z     vdW  Elec       q    Type
REMARK                         _______ _______ _______ _____ _____    ______ ____
ROOT
ATOM      1  C1  UNL     1       4.778   1.748 -31.325  0.00  0.00    -0.037 C 
ATOM      2  C2  UNL     1       4.149   0.444 -31.794  0.00  0.00    +0.072 C 
ATOM      3  C3  UNL     1       4.131  -0.604 -30.669  0.00  0.00    +0.041 C 
ATOM      4  N1  UNL     1       3.515  -1.850 -31.124  0.00  0.00    -0.292 N 
ATOM      5  C4  UNL     1       3.805  -3.031 -30.441  0.00  0.00    +0.255 C 
ATOM      6  O1  UNL     1       4.510  -3.021 -29.433  0.00  0.00    -0.269 OA
ATOM      7  C5  UNL     1       3.243  -4.258 -30.964  0.00  0.00    +0.093 A 
ATOM      8  S1  UNL     1       2.072  -5.080 -30.039  0.00  0.00    -0.082 S 
ATOM      9  C6  UNL     1       1.907  -6.328 -31.212  0.00  0.00    +0.024 A 
ATOM     10  C7  UNL     1       1.042  -7.436 -31.143  0.00  0.00    -0.012 A 
ATOM     11  C8  UNL     1       1.053  -8.353 -32.190  0.00  0.00    +0.124 A 
ATOM     12  F1  UNL     1       0.235  -9.412 -32.139  0.00  0.00    -0.205 F 
ATOM     13  C9  UNL     1       1.891  -8.196 -33.278  0.00  0.00    -0.026 A 
ATOM     14  C10 UNL     1       2.750  -7.095 -33.342  0.00  0.00    -0.049 A 
ATOM     15  C11 UNL     1       2.768  -6.131 -32.298  0.00  0.00    +0.008 A 
ATOM     16  C12 UNL     1       3.546  -4.929 -32.127  0.00  0.00    +0.068 A 
ATOM     17 CL1  UNL     1       4.727  -4.429 -33.272  0.00  0.00    -0.082 Cl
ATOM     18  C13 UNL     1       2.519  -1.706 -32.193  0.00  0.00    +0.041 C 
ATOM     19  C14 UNL     1       1.879  -0.307 -32.158  0.00  0.00    +0.072 C 
ATOM     20  C15 UNL     1       0.845  -0.146 -33.265  0.00  0.00    -0.037 C 
ATOM     21  O2  UNL     1       2.838   0.752 -32.301  0.00  0.00    -0.371 OA
ENDROOT
TORSDOF 0
ENDMDL
MODEL 9
REMARK VINA RESULT:    -5.439      5.095      7.011
REMARK INTER + INTRA:          -5.439
REMARK INTER:                  -5.439
REMARK INTRA:                   0.000
REMARK UNBOUND:                 0.000
REMARK  Name = /home/vital/Documents/PhD_2021/Malaria_codes/scripts/../data/pdbqt_ligands/ligand_290_temp.pdb
REMARK                            x       y       z     vdW  Elec       q    Type
REMARK                         _______ _______ _______ _____ _____    ______ ____
ROOT
ATOM      1  C1  UNL     1      -3.403  -9.007 -33.710  0.00  0.00    -0.037 C 
ATOM      2  C2  UNL     1      -2.156  -8.325 -33.166  0.00  0.00    +0.072 C 
ATOM      3  C3  UNL     1      -1.844  -7.032 -33.936  0.00  0.00    +0.041 C 
ATOM      4  N1  UNL     1      -0.652  -6.377 -33.400  0.00  0.00    -0.292 N 
ATOM      5  C4  UNL     1       0.045  -5.481 -34.210  0.00  0.00    +0.255 C 
ATOM      6  O1  UNL     1      -0.369  -5.191 -35.331  0.00  0.00    -0.269 OA
ATOM      7  C5  UNL     1       1.265  -4.911 -33.679  0.00  0.00    +0.093 A 
ATOM      8  S1  UNL     1       1.310  -3.240 -33.351  0.00  0.00    -0.082 S 
ATOM      9  C6  UNL     1       2.939  -3.312 -32.802  0.00  0.00    +0.024 A 
ATOM     10  C7  UNL     1       3.710  -2.238 -32.317  0.00  0.00    -0.012 A 
ATOM     11  C8  UNL     1       5.021  -2.488 -31.924  0.00  0.00    +0.124 A 
ATOM     12  F1  UNL     1       5.767  -1.477 -31.459  0.00  0.00    -0.205 F 
ATOM     13  C9  UNL     1       5.571  -3.753 -32.004  0.00  0.00    -0.026 A 
ATOM     14  C10 UNL     1       4.803  -4.816 -32.488  0.00  0.00    -0.049 A 
ATOM     15  C11 UNL     1       3.457  -4.609 -32.896  0.00  0.00    +0.008 A 
ATOM     16  C12 UNL     1       2.472  -5.520 -33.422  0.00  0.00    +0.068 A 
ATOM     17 CL1  UNL     1       2.812  -7.183 -33.695  0.00  0.00    -0.082 Cl
ATOM     18  C13 UNL     1      -0.381  -6.627 -31.978  0.00  0.00    +0.041 C 
ATOM     19  C14 UNL     1      -1.682  -6.960 -31.226  0.00  0.00    +0.072 C 
ATOM     20  C15 UNL     1      -1.413  -7.225 -29.750  0.00  0.00    -0.037 C 
ATOM     21  O2  UNL     1      -2.359  -8.110 -31.757  0.00  0.00    -0.371 OA
ENDROOT
TORSDOF 0
ENDMDL
