MODEL 1
REMARK VINA RESULT:    -6.351      0.000      0.000
REMARK INTER + INTRA:          -6.351
REMARK INTER:                  -6.351
REMARK INTRA:                   0.000
REMARK UNBOUND:                 0.000
REMARK  Name = /home/vital/Documents/PhD_2021/Malaria_codes/scripts/../data/pdbqt_ligands/ligand_182_temp.pdb
REMARK                            x       y       z     vdW  Elec       q    Type
REMARK                         _______ _______ _______ _____ _____    ______ ____
ROOT
ATOM      1  N   UNL     1       5.941  -6.258 -26.374  0.00  0.00    -0.310 N 
ATOM      2  C   UNL     1       6.152  -4.904 -25.912  0.00  0.00    +0.106 C 
ATOM      3  N   UNL     1       7.598  -4.786 -25.848  0.00  0.00    -0.180 NA
ATOM      4  O   UNL     1       7.887  -3.352 -25.924  0.00  0.00    -0.297 OA
ATOM      5  C   UNL     1       8.733  -2.999 -24.825  0.00  0.00    +0.082 C 
ATOM      6  C   UNL     1       9.075  -1.505 -24.899  0.00  0.00    +0.022 C 
ATOM      7  N   UNL     1      10.023  -1.210 -25.983  0.00  0.00    -0.303 N 
ATOM      8  C   UNL     1      10.281   0.239 -26.024  0.00  0.00    +0.059 C 
ATOM      9  C   UNL     1      11.592   0.559 -27.178  0.00  0.00    -0.021 C 
ATOM     10  C   UNL     1      11.978   0.766 -26.008  0.00  0.00    -0.125 C 
ATOM     11  C   UNL     1      11.529   0.696 -24.843  0.00  0.00    -0.021 C 
ATOM     12  C   UNL     1       5.479  -4.672 -24.570  0.00  0.00    -0.013 A 
ATOM     13  C   UNL     1       5.972  -5.245 -23.385  0.00  0.00    -0.054 A 
ATOM     14  C   UNL     1       5.338  -5.021 -22.160  0.00  0.00    -0.042 A 
ATOM     15  C   UNL     1       4.191  -4.226 -22.101  0.00  0.00    +0.059 A 
ATOM     16 CL   UNL     1       3.467  -3.975 -20.554  0.00  0.00    -0.082 Cl
ATOM     17  C   UNL     1       3.680  -3.657 -23.272  0.00  0.00    +0.060 A 
ATOM     18 CL   UNL     1       2.265  -2.663 -23.273  0.00  0.00    -0.082 Cl
ATOM     19  C   UNL     1       4.320  -3.880 -24.497  0.00  0.00    -0.036 A 
ATOM     20  H   UNL     1       6.403  -6.387 -27.274  0.00  0.00    +0.000 HD
ATOM     21  H   UNL     1       4.941  -6.429 -26.478  0.00  0.00    +0.000 HD
ATOM     22  H   UNL     1       6.331  -6.913 -25.697  0.00  0.00    +0.000 HD
ATOM     23  H   UNL     1       8.030  -5.276 -26.630  0.00  0.00    +0.000 HD
ATOM     24  H   UNL     1       9.627  -1.510 -26.874  0.00  0.00    +0.000 HD
ATOM     25  H   UNL     1      10.898  -1.708 -25.817  0.00  0.00    +0.000 HD
ENDROOT
TORSDOF 0
ENDMDL
MODEL 2
REMARK VINA RESULT:    -6.344     11.601     13.818
REMARK INTER + INTRA:          -6.344
REMARK INTER:                  -6.344
REMARK INTRA:                   0.000
REMARK UNBOUND:                 0.000
REMARK  Name = /home/vital/Documents/PhD_2021/Malaria_codes/scripts/../data/pdbqt_ligands/ligand_182_temp.pdb
REMARK                            x       y       z     vdW  Elec       q    Type
REMARK                         _______ _______ _______ _____ _____    ______ ____
ROOT
ATOM      1  N   UNL     1      -2.544   6.473 -20.532  0.00  0.00    -0.310 N 
ATOM      2  C   UNL     1      -2.019   5.163 -20.217  0.00  0.00    +0.106 C 
ATOM      3  N   UNL     1      -3.178   4.296 -20.318  0.00  0.00    -0.180 NA
ATOM      4  O   UNL     1      -2.653   2.948 -20.551  0.00  0.00    -0.297 OA
ATOM      5  C   UNL     1      -3.226   2.062 -19.586  0.00  0.00    +0.082 C 
ATOM      6  C   UNL     1      -2.713   0.636 -19.827  0.00  0.00    +0.022 C 
ATOM      7  N   UNL     1      -3.308   0.033 -21.028  0.00  0.00    -0.303 N 
ATOM      8  C   UNL     1      -2.749  -1.315 -21.225  0.00  0.00    +0.059 C 
ATOM      9  C   UNL     1      -3.634  -2.120 -22.536  0.00  0.00    -0.021 C 
ATOM     10  C   UNL     1      -3.900  -2.652 -21.437  0.00  0.00    -0.125 C 
ATOM     11  C   UNL     1      -3.610  -2.510 -20.229  0.00  0.00    -0.021 C 
ATOM     12  C   UNL     1      -1.385   5.145 -18.836  0.00  0.00    -0.013 A 
ATOM     13  C   UNL     1      -2.160   5.211 -17.664  0.00  0.00    -0.054 A 
ATOM     14  C   UNL     1      -1.559   5.195 -16.403  0.00  0.00    -0.042 A 
ATOM     15  C   UNL     1      -0.169   5.122 -16.291  0.00  0.00    +0.059 A 
ATOM     16 CL   UNL     1       0.509   5.087 -14.703  0.00  0.00    -0.082 Cl
ATOM     17  C   UNL     1       0.618   5.066 -17.446  0.00  0.00    +0.060 A 
ATOM     18 CL   UNL     1       2.344   4.974 -17.382  0.00  0.00    -0.082 Cl
ATOM     19  C   UNL     1       0.012   5.079 -18.708  0.00  0.00    -0.036 A 
ATOM     20  H   UNL     1      -2.963   6.457 -21.461  0.00  0.00    +0.000 HD
ATOM     21  H   UNL     1      -1.787   7.156 -20.512  0.00  0.00    +0.000 HD
ATOM     22  H   UNL     1      -3.253   6.730 -19.845  0.00  0.00    +0.000 HD
ATOM     23  H   UNL     1      -3.771   4.584 -21.097  0.00  0.00    +0.000 HD
ATOM     24  H   UNL     1      -3.095   0.612 -21.841  0.00  0.00    +0.000 HD
ATOM     25  H   UNL     1      -4.319  -0.030 -20.913  0.00  0.00    +0.000 HD
ENDROOT
TORSDOF 0
ENDMDL
MODEL 3
REMARK VINA RESULT:    -6.150      8.274     11.608
REMARK INTER + INTRA:          -6.150
REMARK INTER:                  -6.150
REMARK INTRA:                   0.000
REMARK UNBOUND:                 0.000
REMARK  Name = /home/vital/Documents/PhD_2021/Malaria_codes/scripts/../data/pdbqt_ligands/ligand_182_temp.pdb
REMARK                            x       y       z     vdW  Elec       q    Type
REMARK                         _______ _______ _______ _____ _____    ______ ____
ROOT
ATOM      1  N   UNL     1       5.849  -4.861 -33.460  0.00  0.00    -0.310 N 
ATOM      2  C   UNL     1       4.675  -5.054 -32.638  0.00  0.00    +0.106 C 
ATOM      3  N   UNL     1       3.751  -5.747 -33.517  0.00  0.00    -0.180 NA
ATOM      4  O   UNL     1       2.803  -6.438 -32.640  0.00  0.00    -0.297 OA
ATOM      5  C   UNL     1       1.475  -6.089 -33.039  0.00  0.00    +0.082 C 
ATOM      6  C   UNL     1       0.461  -6.824 -32.152  0.00  0.00    +0.022 C 
ATOM      7  N   UNL     1       0.392  -8.258 -32.466  0.00  0.00    -0.303 N 
ATOM      8  C   UNL     1      -0.567  -8.910 -31.559  0.00  0.00    +0.059 C 
ATOM      9  C   UNL     1      -0.814 -10.586 -32.090  0.00  0.00    -0.021 C 
ATOM     10  C   UNL     1      -1.841  -9.904 -32.298  0.00  0.00    -0.125 C 
ATOM     11  C   UNL     1      -2.231  -8.725 -32.156  0.00  0.00    -0.021 C 
ATOM     12  C   UNL     1       4.132  -3.725 -32.139  0.00  0.00    -0.013 A 
ATOM     13  C   UNL     1       3.487  -2.819 -32.998  0.00  0.00    -0.054 A 
ATOM     14  C   UNL     1       2.996  -1.601 -32.520  0.00  0.00    -0.042 A 
ATOM     15  C   UNL     1       3.150  -1.264 -31.173  0.00  0.00    +0.059 A 
ATOM     16 CL   UNL     1       2.503   0.247 -30.645  0.00  0.00    -0.082 Cl
ATOM     17  C   UNL     1       3.798  -2.150 -30.306  0.00  0.00    +0.060 A 
ATOM     18 CL   UNL     1       4.024  -1.798 -28.628  0.00  0.00    -0.082 Cl
ATOM     19  C   UNL     1       4.286  -3.370 -30.788  0.00  0.00    -0.036 A 
ATOM     20  H   UNL     1       6.192  -5.766 -33.782  0.00  0.00    +0.000 HD
ATOM     21  H   UNL     1       6.574  -4.397 -32.913  0.00  0.00    +0.000 HD
ATOM     22  H   UNL     1       5.609  -4.283 -34.266  0.00  0.00    +0.000 HD
ATOM     23  H   UNL     1       4.251  -6.421 -34.098  0.00  0.00    +0.000 HD
ATOM     24  H   UNL     1       1.314  -8.678 -32.345  0.00  0.00    +0.000 HD
ATOM     25  H   UNL     1       0.088  -8.382 -33.431  0.00  0.00    +0.000 HD
ENDROOT
TORSDOF 0
ENDMDL
MODEL 4
REMARK VINA RESULT:    -6.142      6.236      7.969
REMARK INTER + INTRA:          -6.142
REMARK INTER:                  -6.142
REMARK INTRA:                   0.000
REMARK UNBOUND:                 0.000
REMARK  Name = /home/vital/Documents/PhD_2021/Malaria_codes/scripts/../data/pdbqt_ligands/ligand_182_temp.pdb
REMARK                            x       y       z     vdW  Elec       q    Type
REMARK                         _______ _______ _______ _____ _____    ______ ____
ROOT
ATOM      1  N   UNL     1       4.833  -1.897 -33.158  0.00  0.00    -0.310 N 
ATOM      2  C   UNL     1       4.503  -2.602 -31.940  0.00  0.00    +0.106 C 
ATOM      3  N   UNL     1       5.772  -2.695 -31.242  0.00  0.00    -0.180 NA
ATOM      4  O   UNL     1       5.440  -2.887 -29.828  0.00  0.00    -0.297 OA
ATOM      5  C   UNL     1       6.143  -4.036 -29.347  0.00  0.00    +0.082 C 
ATOM      6  C   UNL     1       5.834  -4.241 -27.858  0.00  0.00    +0.022 C 
ATOM      7  N   UNL     1       6.495  -3.236 -27.014  0.00  0.00    -0.303 N 
ATOM      8  C   UNL     1       6.131  -3.465 -25.606  0.00  0.00    +0.059 C 
ATOM      9  C   UNL     1       7.107  -2.396 -24.577  0.00  0.00    -0.021 C 
ATOM     10  C   UNL     1       7.457  -3.587 -24.430  0.00  0.00    -0.125 C 
ATOM     11  C   UNL     1       7.163  -4.716 -24.879  0.00  0.00    -0.021 C 
ATOM     12  C   UNL     1       3.893  -3.960 -32.243  0.00  0.00    -0.013 A 
ATOM     13  C   UNL     1       4.663  -5.022 -32.750  0.00  0.00    -0.054 A 
ATOM     14  C   UNL     1       4.083  -6.263 -33.023  0.00  0.00    -0.042 A 
ATOM     15  C   UNL     1       2.719  -6.463 -32.803  0.00  0.00    +0.059 A 
ATOM     16 CL   UNL     1       2.070  -8.026 -33.144  0.00  0.00    -0.082 Cl
ATOM     17  C   UNL     1       1.935  -5.415 -32.309  0.00  0.00    +0.060 A 
ATOM     18 CL   UNL     1       0.240  -5.591 -32.012  0.00  0.00    -0.082 Cl
ATOM     19  C   UNL     1       2.520  -4.173 -32.033  0.00  0.00    -0.036 A 
ATOM     20  H   UNL     1       5.240  -0.991 -32.927  0.00  0.00    +0.000 HD
ATOM     21  H   UNL     1       3.987  -1.758 -33.711  0.00  0.00    +0.000 HD
ATOM     22  H   UNL     1       5.506  -2.443 -33.696  0.00  0.00    +0.000 HD
ATOM     23  H   UNL     1       6.309  -1.837 -31.366  0.00  0.00    +0.000 HD
ATOM     24  H   UNL     1       6.194  -2.303 -27.297  0.00  0.00    +0.000 HD
ATOM     25  H   UNL     1       7.507  -3.312 -27.122  0.00  0.00    +0.000 HD
ENDROOT
TORSDOF 0
ENDMDL
MODEL 5
REMARK VINA RESULT:    -6.044      5.277      9.083
REMARK INTER + INTRA:          -6.044
REMARK INTER:                  -6.044
REMARK INTRA:                   0.000
REMARK UNBOUND:                 0.000
REMARK  Name = /home/vital/Documents/PhD_2021/Malaria_codes/scripts/../data/pdbqt_ligands/ligand_182_temp.pdb
REMARK                            x       y       z     vdW  Elec       q    Type
REMARK                         _______ _______ _______ _____ _____    ______ ____
ROOT
ATOM      1  N   UNL     1       5.826  -2.086 -19.763  0.00  0.00    -0.310 N 
ATOM      2  C   UNL     1       4.740  -2.263 -20.701  0.00  0.00    +0.106 C 
ATOM      3  N   UNL     1       3.706  -2.906 -19.911  0.00  0.00    -0.180 NA
ATOM      4  O   UNL     1       2.443  -2.628 -20.599  0.00  0.00    -0.297 OA
ATOM      5  C   UNL     1       1.757  -3.865 -20.813  0.00  0.00    +0.082 C 
ATOM      6  C   UNL     1       0.416  -3.596 -21.507  0.00  0.00    +0.022 C 
ATOM      7  N   UNL     1      -0.562  -2.982 -20.598  0.00  0.00    -0.303 N 
ATOM      8  C   UNL     1      -1.811  -2.717 -21.331  0.00  0.00    +0.059 C 
ATOM      9  C   UNL     1      -3.055  -2.190 -20.179  0.00  0.00    -0.021 C 
ATOM     10  C   UNL     1      -3.320  -3.329 -20.620  0.00  0.00    -0.125 C 
ATOM     11  C   UNL     1      -2.828  -4.174 -21.400  0.00  0.00    -0.021 C 
ATOM     12  C   UNL     1       5.177  -3.096 -21.894  0.00  0.00    -0.013 A 
ATOM     13  C   UNL     1       5.421  -4.476 -21.784  0.00  0.00    -0.054 A 
ATOM     14  C   UNL     1       5.825  -5.225 -22.892  0.00  0.00    -0.042 A 
ATOM     15  C   UNL     1       6.001  -4.604 -24.131  0.00  0.00    +0.059 A 
ATOM     16 CL   UNL     1       6.483  -5.591 -25.463  0.00  0.00    -0.082 Cl
ATOM     17  C   UNL     1       5.773  -3.230 -24.256  0.00  0.00    +0.060 A 
ATOM     18 CL   UNL     1       5.971  -2.396 -25.758  0.00  0.00    -0.082 Cl
ATOM     19  C   UNL     1       5.365  -2.483 -23.144  0.00  0.00    -0.036 A 
ATOM     20  H   UNL     1       5.506  -1.525 -18.974  0.00  0.00    +0.000 HD
ATOM     21  H   UNL     1       6.600  -1.610 -20.226  0.00  0.00    +0.000 HD
ATOM     22  H   UNL     1       6.137  -2.997 -19.427  0.00  0.00    +0.000 HD
ATOM     23  H   UNL     1       3.688  -2.520 -18.968  0.00  0.00    +0.000 HD
ATOM     24  H   UNL     1      -0.187  -2.105 -20.236  0.00  0.00    +0.000 HD
ATOM     25  H   UNL     1      -0.750  -3.616 -19.821  0.00  0.00    +0.000 HD
ENDROOT
TORSDOF 0
ENDMDL
MODEL 6
REMARK VINA RESULT:    -6.030     12.420     13.605
REMARK INTER + INTRA:          -6.030
REMARK INTER:                  -6.030
REMARK INTRA:                   0.000
REMARK UNBOUND:                 0.000
REMARK  Name = /home/vital/Documents/PhD_2021/Malaria_codes/scripts/../data/pdbqt_ligands/ligand_182_temp.pdb
REMARK                            x       y       z     vdW  Elec       q    Type
REMARK                         _______ _______ _______ _____ _____    ______ ____
ROOT
ATOM      1  N   UNL     1      -3.174   5.800 -17.286  0.00  0.00    -0.310 N 
ATOM      2  C   UNL     1      -1.933   5.073 -17.434  0.00  0.00    +0.106 C 
ATOM      3  N   UNL     1      -1.086   5.624 -16.392  0.00  0.00    -0.180 NA
ATOM      4  O   UNL     1      -0.064   4.610 -16.126  0.00  0.00    -0.297 OA
ATOM      5  C   UNL     1       1.224   5.226 -16.217  0.00  0.00    +0.082 C 
ATOM      6  C   UNL     1       2.313   4.189 -15.913  0.00  0.00    +0.022 C 
ATOM      7  N   UNL     1       2.360   3.841 -14.486  0.00  0.00    -0.303 N 
ATOM      8  C   UNL     1       3.396   2.819 -14.267  0.00  0.00    +0.059 C 
ATOM      9  C   UNL     1       3.603   2.572 -12.521  0.00  0.00    -0.021 C 
ATOM     10  C   UNL     1       4.605   3.140 -13.005  0.00  0.00    -0.125 C 
ATOM     11  C   UNL     1       5.002   3.565 -14.112  0.00  0.00    -0.021 C 
ATOM     12  C   UNL     1      -1.354   5.257 -18.826  0.00  0.00    -0.013 A 
ATOM     13  C   UNL     1      -0.789   6.476 -19.238  0.00  0.00    -0.054 A 
ATOM     14  C   UNL     1      -0.263   6.626 -20.524  0.00  0.00    -0.042 A 
ATOM     15  C   UNL     1      -0.301   5.559 -21.425  0.00  0.00    +0.059 A 
ATOM     16 CL   UNL     1       0.383   5.806 -22.992  0.00  0.00    -0.082 Cl
ATOM     17  C   UNL     1      -0.869   4.343 -21.036  0.00  0.00    +0.060 A 
ATOM     18 CL   UNL     1      -0.951   2.981 -22.099  0.00  0.00    -0.082 Cl
ATOM     19  C   UNL     1      -1.393   4.194 -19.746  0.00  0.00    -0.036 A 
ATOM     20  H   UNL     1      -3.541   5.660 -16.344  0.00  0.00    +0.000 HD
ATOM     21  H   UNL     1      -3.852   5.458 -17.968  0.00  0.00    +0.000 HD
ATOM     22  H   UNL     1      -3.007   6.794 -17.440  0.00  0.00    +0.000 HD
ATOM     23  H   UNL     1      -1.632   5.806 -15.550  0.00  0.00    +0.000 HD
ATOM     24  H   UNL     1       1.453   3.475 -14.195  0.00  0.00    +0.000 HD
ATOM     25  H   UNL     1       2.581   4.673 -13.939  0.00  0.00    +0.000 HD
ENDROOT
TORSDOF 0
ENDMDL
MODEL 7
REMARK VINA RESULT:    -5.873     12.410     14.121
REMARK INTER + INTRA:          -5.873
REMARK INTER:                  -5.873
REMARK INTRA:                   0.000
REMARK UNBOUND:                 0.000
REMARK  Name = /home/vital/Documents/PhD_2021/Malaria_codes/scripts/../data/pdbqt_ligands/ligand_182_temp.pdb
REMARK                            x       y       z     vdW  Elec       q    Type
REMARK                         _______ _______ _______ _____ _____    ______ ____
ROOT
ATOM      1  N   UNL     1       2.842   2.788 -12.373  0.00  0.00    -0.310 N 
ATOM      2  C   UNL     1       2.633   3.657 -13.509  0.00  0.00    +0.106 C 
ATOM      3  N   UNL     1       1.785   2.874 -14.389  0.00  0.00    -0.180 NA
ATOM      4  O   UNL     1       1.106   3.838 -15.257  0.00  0.00    -0.297 OA
ATOM      5  C   UNL     1       1.305   3.446 -16.619  0.00  0.00    +0.082 C 
ATOM      6  C   UNL     1       0.578   4.426 -17.549  0.00  0.00    +0.022 C 
ATOM      7  N   UNL     1      -0.880   4.250 -17.503  0.00  0.00    -0.303 N 
ATOM      8  C   UNL     1      -1.519   5.240 -18.385  0.00  0.00    +0.059 C 
ATOM      9  C   UNL     1      -3.252   4.876 -18.501  0.00  0.00    -0.021 C 
ATOM     10  C   UNL     1      -2.680   4.634 -19.585  0.00  0.00    -0.125 C 
ATOM     11  C   UNL     1      -1.529   4.675 -20.071  0.00  0.00    -0.021 C 
ATOM     12  C   UNL     1       3.954   4.045 -14.152  0.00  0.00    -0.013 A 
ATOM     13  C   UNL     1       4.718   3.123 -14.889  0.00  0.00    -0.054 A 
ATOM     14  C   UNL     1       5.932   3.498 -15.471  0.00  0.00    -0.042 A 
ATOM     15  C   UNL     1       6.407   4.802 -15.318  0.00  0.00    +0.059 A 
ATOM     16 CL   UNL     1       7.905   5.204 -16.079  0.00  0.00    -0.082 Cl
ATOM     17  C   UNL     1       5.666   5.730 -14.580  0.00  0.00    +0.060 A 
ATOM     18 CL   UNL     1       6.194   7.360 -14.351  0.00  0.00    -0.082 Cl
ATOM     19  C   UNL     1       4.448   5.352 -14.001  0.00  0.00    -0.036 A 
ATOM     20  H   UNL     1       1.941   2.544 -11.961  0.00  0.00    +0.000 HD
ATOM     21  H   UNL     1       3.413   3.269 -11.678  0.00  0.00    +0.000 HD
ATOM     22  H   UNL     1       3.317   1.939 -12.677  0.00  0.00    +0.000 HD
ATOM     23  H   UNL     1       1.102   2.345 -13.846  0.00  0.00    +0.000 HD
ATOM     24  H   UNL     1      -1.209   4.383 -16.547  0.00  0.00    +0.000 HD
ATOM     25  H   UNL     1      -1.120   3.309 -17.815  0.00  0.00    +0.000 HD
ENDROOT
TORSDOF 0
ENDMDL
MODEL 8
REMARK VINA RESULT:    -5.533      4.246      6.508
REMARK INTER + INTRA:          -5.533
REMARK INTER:                  -5.533
REMARK INTRA:                   0.000
REMARK UNBOUND:                 0.000
REMARK  Name = /home/vital/Documents/PhD_2021/Malaria_codes/scripts/../data/pdbqt_ligands/ligand_182_temp.pdb
REMARK                            x       y       z     vdW  Elec       q    Type
REMARK                         _______ _______ _______ _____ _____    ______ ____
ROOT
ATOM      1  N   UNL     1       5.670  -5.273 -23.500  0.00  0.00    -0.310 N 
ATOM      2  C   UNL     1       5.630  -4.367 -24.626  0.00  0.00    +0.106 C 
ATOM      3  N   UNL     1       5.761  -5.244 -25.776  0.00  0.00    -0.180 NA
ATOM      4  O   UNL     1       5.199  -4.507 -26.910  0.00  0.00    -0.297 OA
ATOM      5  C   UNL     1       6.160  -4.498 -27.969  0.00  0.00    +0.082 C 
ATOM      6  C   UNL     1       5.582  -3.755 -29.181  0.00  0.00    +0.022 C 
ATOM      7  N   UNL     1       4.542  -4.539 -29.863  0.00  0.00    -0.303 N 
ATOM      8  C   UNL     1       4.004  -3.759 -30.990  0.00  0.00    +0.059 C 
ATOM      9  C   UNL     1       2.919  -4.793 -31.941  0.00  0.00    -0.021 C 
ATOM     10  C   UNL     1       3.964  -4.548 -32.582  0.00  0.00    -0.125 C 
ATOM     11  C   UNL     1       5.037  -3.926 -32.428  0.00  0.00    -0.021 C 
ATOM     12  C   UNL     1       6.742  -3.336 -24.539  0.00  0.00    -0.013 A 
ATOM     13  C   UNL     1       8.089  -3.679 -24.752  0.00  0.00    -0.054 A 
ATOM     14  C   UNL     1       9.098  -2.716 -24.665  0.00  0.00    -0.042 A 
ATOM     15  C   UNL     1       8.778  -1.393 -24.354  0.00  0.00    +0.059 A 
ATOM     16 CL   UNL     1      10.071  -0.250 -24.281  0.00  0.00    -0.082 Cl
ATOM     17  C   UNL     1       7.445  -1.036 -24.129  0.00  0.00    +0.060 A 
ATOM     18 CL   UNL     1       6.977   0.583 -23.740  0.00  0.00    -0.082 Cl
ATOM     19  C   UNL     1       6.436  -2.002 -24.220  0.00  0.00    -0.036 A 
ATOM     20  H   UNL     1       4.915  -5.953 -23.583  0.00  0.00    +0.000 HD
ATOM     21  H   UNL     1       5.556  -4.744 -22.635  0.00  0.00    +0.000 HD
ATOM     22  H   UNL     1       6.565  -5.760 -23.486  0.00  0.00    +0.000 HD
ATOM     23  H   UNL     1       5.242  -6.109 -25.623  0.00  0.00    +0.000 HD
ATOM     24  H   UNL     1       3.791  -4.751 -29.207  0.00  0.00    +0.000 HD
ATOM     25  H   UNL     1       4.944  -5.409 -30.211  0.00  0.00    +0.000 HD
ENDROOT
TORSDOF 0
ENDMDL
MODEL 9
REMARK VINA RESULT:    -5.441      6.821      9.930
REMARK INTER + INTRA:          -5.441
REMARK INTER:                  -5.441
REMARK INTRA:                   0.000
REMARK UNBOUND:                 0.000
REMARK  Name = /home/vital/Documents/PhD_2021/Malaria_codes/scripts/../data/pdbqt_ligands/ligand_182_temp.pdb
REMARK                            x       y       z     vdW  Elec       q    Type
REMARK                         _______ _______ _______ _____ _____    ______ ____
ROOT
ATOM      1  N   UNL     1       6.072  -2.328 -32.188  0.00  0.00    -0.310 N 
ATOM      2  C   UNL     1       5.403  -3.449 -31.567  0.00  0.00    +0.106 C 
ATOM      3  N   UNL     1       4.107  -3.480 -32.220  0.00  0.00    -0.180 NA
ATOM      4  O   UNL     1       3.608  -4.847 -32.059  0.00  0.00    -0.297 OA
ATOM      5  C   UNL     1       2.293  -4.790 -31.498  0.00  0.00    +0.082 C 
ATOM      6  C   UNL     1       1.736  -6.212 -31.346  0.00  0.00    +0.022 C 
ATOM      7  N   UNL     1       1.373  -6.802 -32.642  0.00  0.00    -0.303 N 
ATOM      8  C   UNL     1       0.882  -8.174 -32.432  0.00  0.00    +0.059 C 
ATOM      9  C   UNL     1       0.236  -8.796 -33.964  0.00  0.00    -0.021 C 
ATOM     10  C   UNL     1      -0.688  -8.597 -33.147  0.00  0.00    -0.125 C 
ATOM     11  C   UNL     1      -0.838  -8.171 -31.981  0.00  0.00    -0.021 C 
ATOM     12  C   UNL     1       5.303  -3.261 -30.062  0.00  0.00    -0.013 A 
ATOM     13  C   UNL     1       4.434  -2.315 -29.490  0.00  0.00    -0.054 A 
ATOM     14  C   UNL     1       4.358  -2.156 -28.104  0.00  0.00    -0.042 A 
ATOM     15  C   UNL     1       5.157  -2.936 -27.264  0.00  0.00    +0.059 A 
ATOM     16 CL   UNL     1       5.000  -2.701 -25.561  0.00  0.00    -0.082 Cl
ATOM     17  C   UNL     1       6.034  -3.874 -27.817  0.00  0.00    +0.060 A 
ATOM     18 CL   UNL     1       7.052  -4.873 -26.838  0.00  0.00    -0.082 Cl
ATOM     19  C   UNL     1       6.106  -4.034 -29.206  0.00  0.00    -0.036 A 
ATOM     20  H   UNL     1       6.125  -2.479 -33.195  0.00  0.00    +0.000 HD
ATOM     21  H   UNL     1       7.014  -2.241 -31.807  0.00  0.00    +0.000 HD
ATOM     22  H   UNL     1       5.549  -1.473 -32.001  0.00  0.00    +0.000 HD
ATOM     23  H   UNL     1       4.202  -3.252 -33.209  0.00  0.00    +0.000 HD
ATOM     24  H   UNL     1       2.194  -6.823 -33.248  0.00  0.00    +0.000 HD
ATOM     25  H   UNL     1       0.643  -6.242 -33.080  0.00  0.00    +0.000 HD
ENDROOT
TORSDOF 0
ENDMDL
