MODEL 1
REMARK VINA RESULT:    -6.670      0.000      0.000
REMARK INTER + INTRA:          -6.670
REMARK INTER:                  -6.670
REMARK INTRA:                   0.000
REMARK UNBOUND:                 0.000
REMARK  Name = /home/vital/Documents/PhD_2021/Malaria_codes/scripts/../data/pdbqt_ligands/ligand_349_temp.pdb
REMARK                            x       y       z     vdW  Elec       q    Type
REMARK                         _______ _______ _______ _____ _____    ______ ____
ROOT
ATOM      1  C   UNL     1       5.598  -4.389 -31.979  0.00  0.00    -0.090 C 
ATOM      2  C   UNL     1       4.337  -4.044 -32.301  0.00  0.00    +0.008 C 
ATOM      3  C   UNL     1       4.042  -2.686 -32.747  0.00  0.00    -0.054 C 
ATOM      4  C   UNL     1       2.851  -2.349 -33.267  0.00  0.00    -0.059 C 
ATOM      5  C   UNL     1       1.813  -3.326 -33.494  0.00  0.00    -0.035 C 
ATOM      6  C   UNL     1       1.914  -4.585 -33.029  0.00  0.00    +0.106 C 
ATOM      7  N   UNL     1       0.975  -5.530 -33.416  0.00  0.00    -0.214 N 
ATOM      8  C   UNL     1       1.299  -6.764 -33.170  0.00  0.00    +0.218 C 
ATOM      9  N   UNL     1       0.520  -7.866 -33.437  0.00  0.00    -0.284 N 
ATOM     10  C   UNL     1      -0.745  -7.959 -34.035  0.00  0.00    +0.035 A 
ATOM     11  C   UNL     1      -1.210  -9.229 -34.411  0.00  0.00    -0.039 A 
ATOM     12  C   UNL     1      -2.466  -9.401 -35.002  0.00  0.00    -0.040 A 
ATOM     13  C   UNL     1      -3.290  -8.298 -35.219  0.00  0.00    +0.059 A 
ATOM     14 CL   UNL     1      -4.830  -8.578 -35.953  0.00  0.00    -0.082 Cl
ATOM     15  C   UNL     1      -2.854  -7.026 -34.839  0.00  0.00    +0.061 A 
ATOM     16 CL   UNL     1      -3.830  -5.616 -35.069  0.00  0.00    -0.082 Cl
ATOM     17  C   UNL     1      -1.594  -6.866 -34.248  0.00  0.00    -0.021 A 
ATOM     18  N   UNL     1       2.481  -7.201 -32.571  0.00  0.00    -0.232 N 
ATOM     19  O   UNL     1       3.549  -6.286 -32.823  0.00  0.00    -0.230 OA
ATOM     20  C   UNL     1       3.149  -5.017 -32.211  0.00  0.00    +0.261 C 
ATOM     21  N   UNL     1       2.841  -5.327 -30.776  0.00  0.00    -0.191 NA
ATOM     22  S   UNL     1       2.163  -4.059 -29.831  0.00  0.00    +0.060 SA
ATOM     23  C   UNL     1       2.095  -4.885 -28.361  0.00  0.00    -0.019 C 
ATOM     24  S   UNL     1       2.068  -5.759 -26.917  0.00  0.00    -0.091 S 
ATOM     25  H   UNL     1       0.125  -5.283 -33.846  0.00  0.00    +0.000 HD
ATOM     26  H   UNL     1       0.912  -8.727 -33.165  0.00  0.00    +0.000 HD
ATOM     27  H   UNL     1       2.567  -8.029 -32.045  0.00  0.00    +0.000 HD
ATOM     28  H   UNL     1       2.383  -4.934 -25.882  0.00  0.00    +0.000 HD
ENDROOT
TORSDOF 0
ENDMDL
MODEL 2
REMARK VINA RESULT:    -6.599      6.478      9.516
REMARK INTER + INTRA:          -6.599
REMARK INTER:                  -6.599
REMARK INTRA:                   0.000
REMARK UNBOUND:                 0.000
REMARK  Name = /home/vital/Documents/PhD_2021/Malaria_codes/scripts/../data/pdbqt_ligands/ligand_349_temp.pdb
REMARK                            x       y       z     vdW  Elec       q    Type
REMARK                         _______ _______ _______ _____ _____    ______ ____
ROOT
ATOM      1  C   UNL     1       5.988  -4.344 -32.305  0.00  0.00    -0.090 C 
ATOM      2  C   UNL     1       5.038  -4.180 -31.364  0.00  0.00    +0.008 C 
ATOM      3  C   UNL     1       3.634  -4.396 -31.697  0.00  0.00    -0.054 C 
ATOM      4  C   UNL     1       2.677  -4.442 -30.757  0.00  0.00    -0.059 C 
ATOM      5  C   UNL     1       2.986  -4.363 -29.349  0.00  0.00    -0.035 C 
ATOM      6  C   UNL     1       4.221  -4.055 -28.913  0.00  0.00    +0.106 C 
ATOM      7  N   UNL     1       4.509  -4.159 -27.560  0.00  0.00    -0.214 N 
ATOM      8  C   UNL     1       5.773  -4.132 -27.260  0.00  0.00    +0.218 C 
ATOM      9  N   UNL     1       6.298  -4.190 -25.989  0.00  0.00    -0.284 N 
ATOM     10  C   UNL     1       5.657  -4.315 -24.749  0.00  0.00    +0.035 A 
ATOM     11  C   UNL     1       6.443  -4.597 -23.620  0.00  0.00    -0.039 A 
ATOM     12  C   UNL     1       5.875  -4.724 -22.349  0.00  0.00    -0.040 A 
ATOM     13  C   UNL     1       4.501  -4.559 -22.180  0.00  0.00    +0.059 A 
ATOM     14 CL   UNL     1       3.862  -4.728 -20.583  0.00  0.00    -0.082 Cl
ATOM     15  C   UNL     1       3.701  -4.263 -23.286  0.00  0.00    +0.061 A 
ATOM     16 CL   UNL     1       1.991  -4.035 -23.146  0.00  0.00    -0.082 Cl
ATOM     17  C   UNL     1       4.281  -4.139 -24.556  0.00  0.00    -0.021 A 
ATOM     18  N   UNL     1       6.831  -4.016 -28.163  0.00  0.00    -0.232 N 
ATOM     19  O   UNL     1       6.475  -4.558 -29.437  0.00  0.00    -0.230 OA
ATOM     20  C   UNL     1       5.351  -3.753 -29.919  0.00  0.00    +0.261 C 
ATOM     21  N   UNL     1       5.816  -2.328 -29.890  0.00  0.00    -0.191 NA
ATOM     22  S   UNL     1       4.644  -1.116 -30.233  0.00  0.00    +0.060 SA
ATOM     23  C   UNL     1       5.670   0.221 -30.146  0.00  0.00    -0.019 C 
ATOM     24  S   UNL     1       6.750   1.516 -30.061  0.00  0.00    -0.091 S 
ATOM     25  H   UNL     1       3.807  -4.246 -26.876  0.00  0.00    +0.000 HD
ATOM     26  H   UNL     1       7.279  -4.136 -25.944  0.00  0.00    +0.000 HD
ATOM     27  H   UNL     1       7.704  -3.616 -27.950  0.00  0.00    +0.000 HD
ATOM     28  H   UNL     1       6.432   2.433 -31.014  0.00  0.00    +0.000 HD
ENDROOT
TORSDOF 0
ENDMDL
MODEL 3
REMARK VINA RESULT:    -6.476     11.897     13.088
REMARK INTER + INTRA:          -6.476
REMARK INTER:                  -6.476
REMARK INTRA:                   0.000
REMARK UNBOUND:                 0.000
REMARK  Name = /home/vital/Documents/PhD_2021/Malaria_codes/scripts/../data/pdbqt_ligands/ligand_349_temp.pdb
REMARK                            x       y       z     vdW  Elec       q    Type
REMARK                         _______ _______ _______ _____ _____    ______ ____
ROOT
ATOM      1  C   UNL     1      12.875   2.676 -29.604  0.00  0.00    -0.090 C 
ATOM      2  C   UNL     1      11.603   2.543 -29.183  0.00  0.00    +0.008 C 
ATOM      3  C   UNL     1      10.517   3.172 -29.927  0.00  0.00    -0.054 C 
ATOM      4  C   UNL     1       9.227   2.906 -29.669  0.00  0.00    -0.059 C 
ATOM      5  C   UNL     1       8.832   1.919 -28.691  0.00  0.00    -0.035 C 
ATOM      6  C   UNL     1       9.726   1.350 -27.862  0.00  0.00    +0.106 C 
ATOM      7  N   UNL     1       9.329   0.289 -27.061  0.00  0.00    -0.214 N 
ATOM      8  C   UNL     1      10.299  -0.385 -26.517  0.00  0.00    +0.218 C 
ATOM      9  N   UNL     1      10.151  -1.456 -25.666  0.00  0.00    -0.284 N 
ATOM     10  C   UNL     1       8.992  -2.093 -25.202  0.00  0.00    +0.035 A 
ATOM     11  C   UNL     1       9.130  -3.320 -24.533  0.00  0.00    -0.039 A 
ATOM     12  C   UNL     1       8.020  -4.007 -24.032  0.00  0.00    -0.040 A 
ATOM     13  C   UNL     1       6.742  -3.470 -24.183  0.00  0.00    +0.059 A 
ATOM     14 CL   UNL     1       5.412  -4.369 -23.542  0.00  0.00    -0.082 Cl
ATOM     15  C   UNL     1       6.582  -2.243 -24.833  0.00  0.00    +0.061 A 
ATOM     16 CL   UNL     1       5.027  -1.514 -25.045  0.00  0.00    -0.082 Cl
ATOM     17  C   UNL     1       7.701  -1.564 -25.331  0.00  0.00    -0.021 A 
ATOM     18  N   UNL     1      11.662  -0.138 -26.674  0.00  0.00    -0.232 N 
ATOM     19  O   UNL     1      11.927   0.479 -27.935  0.00  0.00    -0.230 OA
ATOM     20  C   UNL     1      11.213   1.758 -27.919  0.00  0.00    +0.261 C 
ATOM     21  N   UNL     1      11.685   2.481 -26.693  0.00  0.00    -0.191 NA
ATOM     22  S   UNL     1      10.885   3.953 -26.298  0.00  0.00    +0.060 SA
ATOM     23  C   UNL     1      11.817   4.361 -24.951  0.00  0.00    -0.019 C 
ATOM     24  S   UNL     1      12.795   4.723 -23.624  0.00  0.00    -0.091 S 
ATOM     25  H   UNL     1       8.383   0.063 -26.915  0.00  0.00    +0.000 HD
ATOM     26  H   UNL     1      10.994  -1.837 -25.329  0.00  0.00    +0.000 HD
ATOM     27  H   UNL     1      12.350  -0.359 -26.005  0.00  0.00    +0.000 HD
ATOM     28  H   UNL     1      13.019   6.064 -23.579  0.00  0.00    +0.000 HD
ENDROOT
TORSDOF 0
ENDMDL
MODEL 4
REMARK VINA RESULT:    -6.430     10.685     12.519
REMARK INTER + INTRA:          -6.430
REMARK INTER:                  -6.430
REMARK INTRA:                   0.000
REMARK UNBOUND:                 0.000
REMARK  Name = /home/vital/Documents/PhD_2021/Malaria_codes/scripts/../data/pdbqt_ligands/ligand_349_temp.pdb
REMARK                            x       y       z     vdW  Elec       q    Type
REMARK                         _______ _______ _______ _____ _____    ______ ____
ROOT
ATOM      1  C   UNL     1      12.280   3.387 -25.245  0.00  0.00    -0.090 C 
ATOM      2  C   UNL     1      11.601   2.627 -26.127  0.00  0.00    +0.008 C 
ATOM      3  C   UNL     1      11.960   2.651 -27.541  0.00  0.00    -0.054 C 
ATOM      4  C   UNL     1      11.455   1.772 -28.420  0.00  0.00    -0.059 C 
ATOM      5  C   UNL     1      10.586   0.694 -28.009  0.00  0.00    -0.035 C 
ATOM      6  C   UNL     1      10.092   0.624 -26.759  0.00  0.00    +0.106 C 
ATOM      7  N   UNL     1       9.403  -0.514 -26.364  0.00  0.00    -0.214 N 
ATOM      8  C   UNL     1       9.217  -0.631 -25.083  0.00  0.00    +0.218 C 
ATOM      9  N   UNL     1       8.542  -1.655 -24.461  0.00  0.00    -0.284 N 
ATOM     10  C   UNL     1       7.930  -2.796 -24.998  0.00  0.00    +0.035 A 
ATOM     11  C   UNL     1       7.521  -3.809 -24.116  0.00  0.00    -0.039 A 
ATOM     12  C   UNL     1       6.894  -4.970 -24.578  0.00  0.00    -0.040 A 
ATOM     13  C   UNL     1       6.653  -5.136 -25.941  0.00  0.00    +0.059 A 
ATOM     14 CL   UNL     1       5.875  -6.594 -26.448  0.00  0.00    -0.082 Cl
ATOM     15  C   UNL     1       7.039  -4.135 -26.837  0.00  0.00    +0.061 A 
ATOM     16 CL   UNL     1       6.762  -4.272 -28.539  0.00  0.00    -0.082 Cl
ATOM     17  C   UNL     1       7.667  -2.976 -26.362  0.00  0.00    -0.021 A 
ATOM     18  N   UNL     1       9.645   0.267 -24.104  0.00  0.00    -0.232 N 
ATOM     19  O   UNL     1      10.816   0.966 -24.531  0.00  0.00    -0.230 OA
ATOM     20  C   UNL     1      10.426   1.719 -25.725  0.00  0.00    +0.261 C 
ATOM     21  N   UNL     1       9.243   2.549 -25.325  0.00  0.00    -0.191 NA
ATOM     22  S   UNL     1       8.438   3.416 -26.575  0.00  0.00    +0.060 SA
ATOM     23  C   UNL     1       7.298   4.199 -25.608  0.00  0.00    -0.019 C 
ATOM     24  S   UNL     1       6.194   4.965 -24.586  0.00  0.00    -0.091 S 
ATOM     25  H   UNL     1       9.080  -1.185 -27.007  0.00  0.00    +0.000 HD
ATOM     26  H   UNL     1       8.477  -1.574 -23.482  0.00  0.00    +0.000 HD
ATOM     27  H   UNL     1       9.201   0.399 -23.236  0.00  0.00    +0.000 HD
ATOM     28  H   UNL     1       5.985   6.238 -25.017  0.00  0.00    +0.000 HD
ENDROOT
TORSDOF 0
ENDMDL
MODEL 5
REMARK VINA RESULT:    -6.251      2.898      3.533
REMARK INTER + INTRA:          -6.251
REMARK INTER:                  -6.251
REMARK INTRA:                   0.000
REMARK UNBOUND:                 0.000
REMARK  Name = /home/vital/Documents/PhD_2021/Malaria_codes/scripts/../data/pdbqt_ligands/ligand_349_temp.pdb
REMARK                            x       y       z     vdW  Elec       q    Type
REMARK                         _______ _______ _______ _____ _____    ______ ____
ROOT
ATOM      1  C   UNL     1       5.930  -0.624 -32.356  0.00  0.00    -0.090 C 
ATOM      2  C   UNL     1       4.740  -1.063 -31.904  0.00  0.00    +0.008 C 
ATOM      3  C   UNL     1       3.684  -0.110 -31.577  0.00  0.00    -0.054 C 
ATOM      4  C   UNL     1       2.426  -0.499 -31.317  0.00  0.00    -0.059 C 
ATOM      5  C   UNL     1       2.017  -1.880 -31.425  0.00  0.00    -0.035 C 
ATOM      6  C   UNL     1       2.911  -2.869 -31.609  0.00  0.00    +0.106 C 
ATOM      7  N   UNL     1       2.457  -4.153 -31.876  0.00  0.00    -0.214 N 
ATOM      8  C   UNL     1       3.358  -4.975 -32.326  0.00  0.00    +0.218 C 
ATOM      9  N   UNL     1       3.152  -6.300 -32.633  0.00  0.00    -0.284 N 
ATOM     10  C   UNL     1       1.985  -7.073 -32.576  0.00  0.00    +0.035 A 
ATOM     11  C   UNL     1       1.997  -8.341 -33.179  0.00  0.00    -0.039 A 
ATOM     12  C   UNL     1       0.874  -9.173 -33.152  0.00  0.00    -0.040 A 
ATOM     13  C   UNL     1      -0.289  -8.753 -32.507  0.00  0.00    +0.059 A 
ATOM     14 CL   UNL     1      -1.642  -9.829 -32.510  0.00  0.00    -0.082 Cl
ATOM     15  C   UNL     1      -0.319  -7.502 -31.887  0.00  0.00    +0.061 A 
ATOM     16 CL   UNL     1      -1.725  -6.923 -31.059  0.00  0.00    -0.082 Cl
ATOM     17  C   UNL     1       0.812  -6.676 -31.920  0.00  0.00    -0.021 A 
ATOM     18  N   UNL     1       4.701  -4.677 -32.559  0.00  0.00    -0.232 N 
ATOM     19  O   UNL     1       4.869  -3.292 -32.871  0.00  0.00    -0.230 OA
ATOM     20  C   UNL     1       4.419  -2.553 -31.690  0.00  0.00    +0.261 C 
ATOM     21  N   UNL     1       5.209  -3.092 -30.536  0.00  0.00    -0.191 NA
ATOM     22  S   UNL     1       4.771  -2.542 -28.964  0.00  0.00    +0.060 SA
ATOM     23  C   UNL     1       5.967  -3.359 -28.099  0.00  0.00    -0.019 C 
ATOM     24  S   UNL     1       7.196  -4.188 -27.291  0.00  0.00    -0.091 S 
ATOM     25  H   UNL     1       1.521  -4.422 -31.735  0.00  0.00    +0.000 HD
ATOM     26  H   UNL     1       3.953  -6.783 -32.942  0.00  0.00    +0.000 HD
ATOM     27  H   UNL     1       5.434  -5.332 -32.515  0.00  0.00    +0.000 HD
ATOM     28  H   UNL     1       7.672  -3.417 -26.276  0.00  0.00    +0.000 HD
ENDROOT
TORSDOF 0
ENDMDL
MODEL 6
REMARK VINA RESULT:    -6.179     15.431     18.533
REMARK INTER + INTRA:          -6.179
REMARK INTER:                  -6.179
REMARK INTRA:                   0.000
REMARK UNBOUND:                 0.000
REMARK  Name = /home/vital/Documents/PhD_2021/Malaria_codes/scripts/../data/pdbqt_ligands/ligand_349_temp.pdb
REMARK                            x       y       z     vdW  Elec       q    Type
REMARK                         _______ _______ _______ _____ _____    ______ ____
ROOT
ATOM      1  C   UNL     1       1.972   4.765 -13.332  0.00  0.00    -0.090 C 
ATOM      2  C   UNL     1       3.044   4.224 -13.942  0.00  0.00    +0.008 C 
ATOM      3  C   UNL     1       4.368   4.345 -13.340  0.00  0.00    -0.054 C 
ATOM      4  C   UNL     1       5.426   3.659 -13.798  0.00  0.00    -0.059 C 
ATOM      5  C   UNL     1       5.305   2.694 -14.866  0.00  0.00    -0.035 C 
ATOM      6  C   UNL     1       4.171   2.567 -15.578  0.00  0.00    +0.106 C 
ATOM      7  N   UNL     1       4.046   1.516 -16.475  0.00  0.00    -0.214 N 
ATOM      8  C   UNL     1       2.838   1.291 -16.898  0.00  0.00    +0.218 C 
ATOM      9  N   UNL     1       2.474   0.325 -17.808  0.00  0.00    -0.284 N 
ATOM     10  C   UNL     1       3.250  -0.639 -18.466  0.00  0.00    +0.035 A 
ATOM     11  C   UNL     1       2.588  -1.665 -19.160  0.00  0.00    -0.039 A 
ATOM     12  C   UNL     1       3.295  -2.654 -19.850  0.00  0.00    -0.040 A 
ATOM     13  C   UNL     1       4.689  -2.630 -19.867  0.00  0.00    +0.059 A 
ATOM     14 CL   UNL     1       5.503  -3.882 -20.737  0.00  0.00    -0.082 Cl
ATOM     15  C   UNL     1       5.369  -1.611 -19.195  0.00  0.00    +0.061 A 
ATOM     16 CL   UNL     1       7.097  -1.515 -19.184  0.00  0.00    -0.082 Cl
ATOM     17  C   UNL     1       4.650  -0.625 -18.507  0.00  0.00    -0.021 A 
ATOM     18  N   UNL     1       1.692   1.997 -16.530  0.00  0.00    -0.232 N 
ATOM     19  O   UNL     1       1.830   2.544 -15.217  0.00  0.00    -0.230 OA
ATOM     20  C   UNL     1       2.959   3.475 -15.283  0.00  0.00    +0.261 C 
ATOM     21  N   UNL     1       2.643   4.433 -16.392  0.00  0.00    -0.191 NA
ATOM     22  S   UNL     1       3.876   5.549 -16.837  0.00  0.00    +0.060 SA
ATOM     23  C   UNL     1       3.005   6.391 -18.011  0.00  0.00    -0.019 C 
ATOM     24  S   UNL     1       2.077   7.206 -19.162  0.00  0.00    -0.091 S 
ATOM     25  H   UNL     1       4.817   0.979 -16.769  0.00  0.00    +0.000 HD
ATOM     26  H   UNL     1       1.516   0.308 -18.033  0.00  0.00    +0.000 HD
ATOM     27  H   UNL     1       0.896   2.102 -17.098  0.00  0.00    +0.000 HD
ATOM     28  H   UNL     1       2.361   8.536 -19.114  0.00  0.00    +0.000 HD
ENDROOT
TORSDOF 0
ENDMDL
MODEL 7
REMARK VINA RESULT:    -6.173     16.357     18.681
REMARK INTER + INTRA:          -6.173
REMARK INTER:                  -6.173
REMARK INTRA:                   0.000
REMARK UNBOUND:                 0.000
REMARK  Name = /home/vital/Documents/PhD_2021/Malaria_codes/scripts/../data/pdbqt_ligands/ligand_349_temp.pdb
REMARK                            x       y       z     vdW  Elec       q    Type
REMARK                         _______ _______ _______ _____ _____    ______ ____
ROOT
ATOM      1  C   UNL     1       1.584   4.355 -13.330  0.00  0.00    -0.090 C 
ATOM      2  C   UNL     1       1.761   3.920 -14.592  0.00  0.00    +0.008 C 
ATOM      3  C   UNL     1       2.532   2.708 -14.848  0.00  0.00    -0.054 C 
ATOM      4  C   UNL     1       2.567   2.126 -16.056  0.00  0.00    -0.059 C 
ATOM      5  C   UNL     1       1.780   2.616 -17.163  0.00  0.00    -0.035 C 
ATOM      6  C   UNL     1       1.115   3.784 -17.093  0.00  0.00    +0.106 C 
ATOM      7  N   UNL     1       0.239   4.128 -18.113  0.00  0.00    -0.214 N 
ATOM      8  C   UNL     1      -0.571   5.108 -17.839  0.00  0.00    +0.218 C 
ATOM      9  N   UNL     1      -1.504   5.641 -18.698  0.00  0.00    -0.284 N 
ATOM     10  C   UNL     1      -1.837   5.281 -20.010  0.00  0.00    +0.035 A 
ATOM     11  C   UNL     1      -2.999   5.832 -20.576  0.00  0.00    -0.039 A 
ATOM     12  C   UNL     1      -3.389   5.528 -21.884  0.00  0.00    -0.040 A 
ATOM     13  C   UNL     1      -2.612   4.670 -22.661  0.00  0.00    +0.059 A 
ATOM     14 CL   UNL     1      -3.149   4.335 -24.269  0.00  0.00    -0.082 Cl
ATOM     15  C   UNL     1      -1.444   4.122 -22.124  0.00  0.00    +0.061 A 
ATOM     16 CL   UNL     1      -0.428   3.058 -23.036  0.00  0.00    -0.082 Cl
ATOM     17  C   UNL     1      -1.063   4.432 -20.812  0.00  0.00    -0.021 A 
ATOM     18  N   UNL     1      -0.630   5.814 -16.637  0.00  0.00    -0.232 N 
ATOM     19  O   UNL     1      -0.201   4.999 -15.544  0.00  0.00    -0.230 OA
ATOM     20  C   UNL     1       1.194   4.653 -15.821  0.00  0.00    +0.261 C 
ATOM     21  N   UNL     1       1.912   5.953 -16.025  0.00  0.00    -0.191 NA
ATOM     22  S   UNL     1       3.550   5.867 -16.551  0.00  0.00    +0.060 SA
ATOM     23  C   UNL     1       3.875   7.523 -16.542  0.00  0.00    -0.019 C 
ATOM     24  S   UNL     1       4.145   9.189 -16.497  0.00  0.00    -0.091 S 
ATOM     25  H   UNL     1       0.231   3.665 -18.981  0.00  0.00    +0.000 HD
ATOM     26  H   UNL     1      -2.020   6.395 -18.332  0.00  0.00    +0.000 HD
ATOM     27  H   UNL     1      -0.929   6.748 -16.554  0.00  0.00    +0.000 HD
ATOM     28  H   UNL     1       5.408   9.432 -16.051  0.00  0.00    +0.000 HD
ENDROOT
TORSDOF 0
ENDMDL
MODEL 8
REMARK VINA RESULT:    -6.055     16.132     19.553
REMARK INTER + INTRA:          -6.055
REMARK INTER:                  -6.055
REMARK INTRA:                   0.000
REMARK UNBOUND:                 0.000
REMARK  Name = /home/vital/Documents/PhD_2021/Malaria_codes/scripts/../data/pdbqt_ligands/ligand_349_temp.pdb
REMARK                            x       y       z     vdW  Elec       q    Type
REMARK                         _______ _______ _______ _____ _____    ______ ____
ROOT
ATOM      1  C   UNL     1      -3.298   6.432 -21.786  0.00  0.00    -0.090 C 
ATOM      2  C   UNL     1      -1.986   6.274 -21.529  0.00  0.00    +0.008 C 
ATOM      3  C   UNL     1      -0.990   6.792 -22.462  0.00  0.00    -0.054 C 
ATOM      4  C   UNL     1       0.316   6.839 -22.157  0.00  0.00    -0.059 C 
ATOM      5  C   UNL     1       0.811   6.455 -20.856  0.00  0.00    -0.035 C 
ATOM      6  C   UNL     1       0.019   5.860 -19.947  0.00  0.00    +0.106 C 
ATOM      7  N   UNL     1       0.491   5.666 -18.657  0.00  0.00    -0.214 N 
ATOM      8  C   UNL     1      -0.415   5.361 -17.776  0.00  0.00    +0.218 C 
ATOM      9  N   UNL     1      -0.183   5.097 -16.446  0.00  0.00    -0.284 N 
ATOM     10  C   UNL     1       1.012   5.109 -15.714  0.00  0.00    +0.035 A 
ATOM     11  C   UNL     1       0.934   5.040 -14.313  0.00  0.00    -0.039 A 
ATOM     12  C   UNL     1       2.084   5.036 -13.518  0.00  0.00    -0.040 A 
ATOM     13  C   UNL     1       3.344   5.091 -14.114  0.00  0.00    +0.059 A 
ATOM     14 CL   UNL     1       4.725   5.083 -13.075  0.00  0.00    -0.082 Cl
ATOM     15  C   UNL     1       3.446   5.145 -15.507  0.00  0.00    +0.061 A 
ATOM     16 CL   UNL     1       4.976   5.204 -16.312  0.00  0.00    -0.082 Cl
ATOM     17  C   UNL     1       2.287   5.149 -16.294  0.00  0.00    -0.021 A 
ATOM     18  N   UNL     1      -1.782   5.222 -18.016  0.00  0.00    -0.232 N 
ATOM     19  O   UNL     1      -2.192   6.038 -19.116  0.00  0.00    -0.230 OA
ATOM     20  C   UNL     1      -1.455   5.546 -20.282  0.00  0.00    +0.261 C 
ATOM     21  N   UNL     1      -1.751   4.079 -20.373  0.00  0.00    -0.191 NA
ATOM     22  S   UNL     1      -0.875   3.176 -21.548  0.00  0.00    +0.060 SA
ATOM     23  C   UNL     1      -1.619   1.685 -21.285  0.00  0.00    -0.019 C 
ATOM     24  S   UNL     1      -2.412   0.224 -20.988  0.00  0.00    -0.091 S 
ATOM     25  H   UNL     1       1.444   5.753 -18.425  0.00  0.00    +0.000 HD
ATOM     26  H   UNL     1      -0.984   4.861 -15.925  0.00  0.00    +0.000 HD
ATOM     27  H   UNL     1      -2.384   4.641 -17.497  0.00  0.00    +0.000 HD
ATOM     28  H   UNL     1      -2.601  -0.437 -22.163  0.00  0.00    +0.000 HD
ENDROOT
TORSDOF 0
ENDMDL
MODEL 9
REMARK VINA RESULT:    -5.929     12.528     14.551
REMARK INTER + INTRA:          -5.929
REMARK INTER:                  -5.929
REMARK INTRA:                   0.000
REMARK UNBOUND:                 0.000
REMARK  Name = /home/vital/Documents/PhD_2021/Malaria_codes/scripts/../data/pdbqt_ligands/ligand_349_temp.pdb
REMARK                            x       y       z     vdW  Elec       q    Type
REMARK                         _______ _______ _______ _____ _____    ______ ____
ROOT
ATOM      1  C   UNL     1     -10.225   2.631 -28.336  0.00  0.00    -0.090 C 
ATOM      2  C   UNL     1      -9.201   2.965 -27.526  0.00  0.00    +0.008 C 
ATOM      3  C   UNL     1      -8.937   4.367 -27.221  0.00  0.00    -0.054 C 
ATOM      4  C   UNL     1      -8.065   4.738 -26.271  0.00  0.00    -0.059 C 
ATOM      5  C   UNL     1      -7.392   3.773 -25.433  0.00  0.00    -0.035 C 
ATOM      6  C   UNL     1      -7.462   2.453 -25.682  0.00  0.00    +0.106 C 
ATOM      7  N   UNL     1      -6.942   1.559 -24.756  0.00  0.00    -0.214 N 
ATOM      8  C   UNL     1      -7.303   0.321 -24.920  0.00  0.00    +0.218 C 
ATOM      9  N   UNL     1      -6.895  -0.742 -24.147  0.00  0.00    -0.284 N 
ATOM     10  C   UNL     1      -6.056  -0.778 -23.026  0.00  0.00    +0.035 A 
ATOM     11  C   UNL     1      -6.000  -1.964 -22.276  0.00  0.00    -0.039 A 
ATOM     12  C   UNL     1      -5.176  -2.078 -21.151  0.00  0.00    -0.040 A 
ATOM     13  C   UNL     1      -4.380  -1.003 -20.759  0.00  0.00    +0.059 A 
ATOM     14 CL   UNL     1      -3.386  -1.208 -19.360  0.00  0.00    -0.082 Cl
ATOM     15  C   UNL     1      -4.409   0.182 -21.498  0.00  0.00    +0.061 A 
ATOM     16 CL   UNL     1      -3.439   1.551 -21.074  0.00  0.00    -0.082 Cl
ATOM     17  C   UNL     1      -5.238   0.285 -22.623  0.00  0.00    -0.021 A 
ATOM     18  N   UNL     1      -8.147  -0.164 -25.919  0.00  0.00    -0.232 N 
ATOM     19  O   UNL     1      -9.068   0.843 -26.343  0.00  0.00    -0.230 OA
ATOM     20  C   UNL     1      -8.255   1.928 -26.896  0.00  0.00    +0.261 C 
ATOM     21  N   UNL     1      -7.394   1.304 -27.953  0.00  0.00    -0.191 NA
ATOM     22  S   UNL     1      -6.187   2.302 -28.667  0.00  0.00    +0.060 SA
ATOM     23  C   UNL     1      -5.598   1.180 -29.782  0.00  0.00    -0.019 C 
ATOM     24  S   UNL     1      -5.064   0.020 -30.886  0.00  0.00    -0.091 S 
ATOM     25  H   UNL     1      -6.345   1.842 -24.027  0.00  0.00    +0.000 HD
ATOM     26  H   UNL     1      -7.250  -1.617 -24.427  0.00  0.00    +0.000 HD
ATOM     27  H   UNL     1      -8.113  -1.079 -26.282  0.00  0.00    +0.000 HD
ATOM     28  H   UNL     1      -4.762   0.624 -32.067  0.00  0.00    +0.000 HD
ENDROOT
TORSDOF 0
ENDMDL
