MODEL 1
REMARK VINA RESULT:    -3.430      0.000      0.000
REMARK INTER + INTRA:          -3.430
REMARK INTER:                  -3.430
REMARK INTRA:                   0.000
REMARK UNBOUND:                 0.000
REMARK  Name = /home/vital/Documents/PhD_2021/Malaria_codes/scripts/../data/pdbqt_ligands/ligand_35_temp.pdb
REMARK                            x       y       z     vdW  Elec       q    Type
REMARK                         _______ _______ _______ _____ _____    ______ ____
ROOT
ATOM      1  C1  UNL     1      -9.740 -14.168 -30.685  0.00  0.00    -0.065 C 
ATOM      2  C2  UNL     1      -9.530 -14.000 -29.188  0.00  0.00    -0.055 C 
ATOM      3  C3  UNL     1      -8.046 -14.088 -28.818  0.00  0.00    -0.040 C 
ATOM      4  C4  UNL     1      -7.801 -13.980 -27.313  0.00  0.00    +0.035 C 
ATOM      5  C5  UNL     1      -8.078 -12.632 -26.799  0.00  0.00    +0.063 C 
ATOM      6  N1  UNL     1      -8.296 -11.567 -26.392  0.00  0.00    -0.197 NA
ENDROOT
TORSDOF 0
ENDMDL
MODEL 2
REMARK VINA RESULT:    -3.002      1.464      1.525
REMARK INTER + INTRA:          -3.002
REMARK INTER:                  -3.002
REMARK INTRA:                   0.000
REMARK UNBOUND:                 0.000
REMARK  Name = /home/vital/Documents/PhD_2021/Malaria_codes/scripts/../data/pdbqt_ligands/ligand_35_temp.pdb
REMARK                            x       y       z     vdW  Elec       q    Type
REMARK                         _______ _______ _______ _____ _____    ______ ____
ROOT
ATOM      1  C1  UNL     1      -7.289 -13.204 -31.484  0.00  0.00    -0.065 C 
ATOM      2  C2  UNL     1      -8.071 -12.961 -30.202  0.00  0.00    -0.055 C 
ATOM      3  C3  UNL     1      -7.926 -14.135 -29.229  0.00  0.00    -0.040 C 
ATOM      4  C4  UNL     1      -8.745 -13.951 -27.951  0.00  0.00    +0.035 C 
ATOM      5  C5  UNL     1      -8.209 -12.884 -27.094  0.00  0.00    +0.063 C 
ATOM      6  N1  UNL     1      -7.786 -12.043 -26.417  0.00  0.00    -0.197 NA
ENDROOT
TORSDOF 0
ENDMDL
MODEL 3
REMARK VINA RESULT:    -2.997     18.274     19.503
REMARK INTER + INTRA:          -2.997
REMARK INTER:                  -2.997
REMARK INTRA:                   0.000
REMARK UNBOUND:                 0.000
REMARK  Name = /home/vital/Documents/PhD_2021/Malaria_codes/scripts/../data/pdbqt_ligands/ligand_35_temp.pdb
REMARK                            x       y       z     vdW  Elec       q    Type
REMARK                         _______ _______ _______ _____ _____    ______ ____
ROOT
ATOM      1  C1  UNL     1       9.003  -2.352 -23.755  0.00  0.00    -0.065 C 
ATOM      2  C2  UNL     1       8.826  -3.249 -24.971  0.00  0.00    -0.055 C 
ATOM      3  C3  UNL     1       7.472  -3.965 -24.945  0.00  0.00    -0.040 C 
ATOM      4  C4  UNL     1       7.281  -4.919 -26.125  0.00  0.00    +0.035 C 
ATOM      5  C5  UNL     1       7.130  -4.205 -27.400  0.00  0.00    +0.063 C 
ATOM      6  N1  UNL     1       7.010  -3.643 -28.407  0.00  0.00    -0.197 NA
ENDROOT
TORSDOF 0
ENDMDL
MODEL 4
REMARK VINA RESULT:    -2.994     10.537     11.093
REMARK INTER + INTRA:          -2.994
REMARK INTER:                  -2.994
REMARK INTRA:                   0.000
REMARK UNBOUND:                 0.000
REMARK  Name = /home/vital/Documents/PhD_2021/Malaria_codes/scripts/../data/pdbqt_ligands/ligand_35_temp.pdb
REMARK                            x       y       z     vdW  Elec       q    Type
REMARK                         _______ _______ _______ _____ _____    ______ ____
ROOT
ATOM      1  C1  UNL     1       2.199  -7.645 -33.556  0.00  0.00    -0.065 C 
ATOM      2  C2  UNL     1       0.830  -8.059 -33.038  0.00  0.00    -0.055 C 
ATOM      3  C3  UNL     1       0.036  -8.821 -34.104  0.00  0.00    -0.040 C 
ATOM      4  C4  UNL     1      -1.368  -9.205 -33.638  0.00  0.00    +0.035 C 
ATOM      5  C5  UNL     1      -1.347 -10.239 -32.595  0.00  0.00    +0.063 C 
ATOM      6  N1  UNL     1      -1.331 -11.056 -31.771  0.00  0.00    -0.197 NA
ENDROOT
TORSDOF 0
ENDMDL
MODEL 5
REMARK VINA RESULT:    -2.987     24.556     25.482
REMARK INTER + INTRA:          -2.987
REMARK INTER:                  -2.987
REMARK INTRA:                   0.000
REMARK UNBOUND:                 0.000
REMARK  Name = /home/vital/Documents/PhD_2021/Malaria_codes/scripts/../data/pdbqt_ligands/ligand_35_temp.pdb
REMARK                            x       y       z     vdW  Elec       q    Type
REMARK                         _______ _______ _______ _____ _____    ______ ____
ROOT
ATOM      1  C1  UNL     1       0.654   4.714 -14.912  0.00  0.00    -0.065 C 
ATOM      2  C2  UNL     1       2.022   4.131 -14.594  0.00  0.00    -0.055 C 
ATOM      3  C3  UNL     1       2.635   4.790 -13.354  0.00  0.00    -0.040 C 
ATOM      4  C4  UNL     1       4.037   4.268 -13.035  0.00  0.00    +0.035 C 
ATOM      5  C5  UNL     1       4.020   2.877 -12.563  0.00  0.00    +0.063 C 
ATOM      6  N1  UNL     1       4.008   1.779 -12.189  0.00  0.00    -0.197 NA
ENDROOT
TORSDOF 0
ENDMDL
MODEL 6
REMARK VINA RESULT:    -2.944     27.927     28.492
REMARK INTER + INTRA:          -2.944
REMARK INTER:                  -2.944
REMARK INTRA:                   0.000
REMARK UNBOUND:                 0.000
REMARK  Name = /home/vital/Documents/PhD_2021/Malaria_codes/scripts/../data/pdbqt_ligands/ligand_35_temp.pdb
REMARK                            x       y       z     vdW  Elec       q    Type
REMARK                         _______ _______ _______ _____ _____    ______ ____
ROOT
ATOM      1  C1  UNL     1       4.240   9.803 -20.852  0.00  0.00    -0.065 C 
ATOM      2  C2  UNL     1       3.842  10.407 -19.513  0.00  0.00    -0.055 C 
ATOM      3  C3  UNL     1       3.292   9.340 -18.561  0.00  0.00    -0.040 C 
ATOM      4  C4  UNL     1       2.828   9.920 -17.224  0.00  0.00    +0.035 C 
ATOM      5  C5  UNL     1       3.951  10.393 -16.403  0.00  0.00    +0.063 C 
ATOM      6  N1  UNL     1       4.836  10.767 -15.753  0.00  0.00    -0.197 NA
ENDROOT
TORSDOF 0
ENDMDL
MODEL 7
REMARK VINA RESULT:    -2.939      1.064      1.064
REMARK INTER + INTRA:          -2.939
REMARK INTER:                  -2.939
REMARK INTRA:                   0.000
REMARK UNBOUND:                 0.000
REMARK  Name = /home/vital/Documents/PhD_2021/Malaria_codes/scripts/../data/pdbqt_ligands/ligand_35_temp.pdb
REMARK                            x       y       z     vdW  Elec       q    Type
REMARK                         _______ _______ _______ _____ _____    ______ ____
ROOT
ATOM      1  C1  UNL     1      -9.995 -12.407 -31.010  0.00  0.00    -0.065 C 
ATOM      2  C2  UNL     1      -9.811 -12.698 -29.528  0.00  0.00    -0.055 C 
ATOM      3  C3  UNL     1      -8.415 -13.259 -29.238  0.00  0.00    -0.040 C 
ATOM      4  C4  UNL     1      -8.213 -13.616 -27.765  0.00  0.00    +0.035 C 
ATOM      5  C5  UNL     1      -8.157 -12.425 -26.906  0.00  0.00    +0.063 C 
ATOM      6  N1  UNL     1      -8.112 -11.486 -26.226  0.00  0.00    -0.197 NA
ENDROOT
TORSDOF 0
ENDMDL
MODEL 8
REMARK VINA RESULT:    -2.914      2.607      3.731
REMARK INTER + INTRA:          -2.914
REMARK INTER:                  -2.914
REMARK INTRA:                   0.000
REMARK UNBOUND:                 0.000
REMARK  Name = /home/vital/Documents/PhD_2021/Malaria_codes/scripts/../data/pdbqt_ligands/ligand_35_temp.pdb
REMARK                            x       y       z     vdW  Elec       q    Type
REMARK                         _______ _______ _______ _____ _____    ______ ____
ROOT
ATOM      1  C1  UNL     1      -9.294 -12.170 -26.589  0.00  0.00    -0.065 C 
ATOM      2  C2  UNL     1      -8.925 -12.325 -28.056  0.00  0.00    -0.055 C 
ATOM      3  C3  UNL     1      -8.199 -13.649 -28.313  0.00  0.00    -0.040 C 
ATOM      4  C4  UNL     1      -7.763 -13.816 -29.769  0.00  0.00    +0.035 C 
ATOM      5  C5  UNL     1      -8.904 -14.009 -30.674  0.00  0.00    +0.063 C 
ATOM      6  N1  UNL     1      -9.804 -14.162 -31.390  0.00  0.00    -0.197 NA
ENDROOT
TORSDOF 0
ENDMDL
MODEL 9
REMARK VINA RESULT:    -2.760     13.170     14.451
REMARK INTER + INTRA:          -2.760
REMARK INTER:                  -2.760
REMARK INTRA:                   0.000
REMARK UNBOUND:                 0.000
REMARK  Name = /home/vital/Documents/PhD_2021/Malaria_codes/scripts/../data/pdbqt_ligands/ligand_35_temp.pdb
REMARK                            x       y       z     vdW  Elec       q    Type
REMARK                         _______ _______ _______ _____ _____    ______ ____
ROOT
ATOM      1  C1  UNL     1      -6.158  -2.211 -23.772  0.00  0.00    -0.065 C 
ATOM      2  C2  UNL     1      -5.944  -1.785 -22.328  0.00  0.00    -0.055 C 
ATOM      3  C3  UNL     1      -4.508  -2.059 -21.872  0.00  0.00    -0.040 C 
ATOM      4  C4  UNL     1      -4.270  -1.694 -20.406  0.00  0.00    +0.035 C 
ATOM      5  C5  UNL     1      -4.302  -0.243 -20.180  0.00  0.00    +0.063 C 
ATOM      6  N1  UNL     1      -4.326   0.903 -20.000  0.00  0.00    -0.197 NA
ENDROOT
TORSDOF 0
ENDMDL
