MODEL 1
REMARK VINA RESULT:    -6.573      0.000      0.000
REMARK INTER + INTRA:          -6.573
REMARK INTER:                  -6.573
REMARK INTRA:                   0.000
REMARK UNBOUND:                 0.000
REMARK  Name = /home/vital/Documents/PhD_2021/Malaria_codes/scripts/../data/pdbqt_ligands/ligand_452_temp.pdb
REMARK                            x       y       z     vdW  Elec       q    Type
REMARK                         _______ _______ _______ _____ _____    ______ ____
ROOT
ATOM      1  C1  UNL     1       1.036   4.988 -14.453  0.00  0.00    +0.079 C 
ATOM      2  O1  UNL     1       1.286   5.589 -15.715  0.00  0.00    -0.491 OA
ATOM      3  C2  UNL     1       0.258   5.617 -16.623  0.00  0.00    +0.164 A 
ATOM      4  C3  UNL     1      -1.014   5.096 -16.390  0.00  0.00    +0.021 A 
ATOM      5  C4  UNL     1      -1.983   5.179 -17.386  0.00  0.00    +0.148 A 
ATOM      6  F1  UNL     1      -3.200   4.669 -17.135  0.00  0.00    -0.203 F 
ATOM      7  C5  UNL     1      -1.738   5.774 -18.632  0.00  0.00    +0.073 A 
ATOM      8  N1  UNL     1      -2.777   5.810 -19.571  0.00  0.00    -0.281 N 
ATOM      9  C6  UNL     1      -2.907   6.298 -20.865  0.00  0.00    +0.220 A 
ATOM     10  N2  UNL     1      -1.890   6.898 -21.498  0.00  0.00    -0.222 NA
ATOM     11  C7  UNL     1      -2.122   7.334 -22.751  0.00  0.00    +0.040 A 
ATOM     12  C8  UNL     1      -3.332   7.197 -23.405  0.00  0.00    +0.019 A 
ATOM     13  C9  UNL     1      -3.573   7.655 -24.716  0.00  0.00    -0.051 A 
ATOM     14  C10 UNL     1      -4.826   7.471 -25.294  0.00  0.00    -0.061 A 
ATOM     15  C11 UNL     1      -5.828   6.837 -24.566  0.00  0.00    -0.060 A 
ATOM     16  C12 UNL     1      -5.570   6.390 -23.265  0.00  0.00    -0.036 A 
ATOM     17  C13 UNL     1      -4.328   6.559 -22.665  0.00  0.00    +0.076 A 
ATOM     18  N3  UNL     1      -4.120   6.118 -21.416  0.00  0.00    -0.214 NA
ATOM     19  C14 UNL     1      -0.458   6.293 -18.854  0.00  0.00    +0.008 A 
ATOM     20  C15 UNL     1       0.539   6.222 -17.866  0.00  0.00    +0.163 A 
ATOM     21  O2  UNL     1       1.814   6.711 -18.017  0.00  0.00    -0.491 OA
ATOM     22  C16 UNL     1       2.142   7.328 -19.255  0.00  0.00    +0.079 C 
ATOM     23  H   UNL     1      -3.605   5.395 -19.237  0.00  0.00    +0.000 HD
ENDROOT
TORSDOF 0
ENDMDL
MODEL 2
REMARK VINA RESULT:    -6.543     15.717     17.564
REMARK INTER + INTRA:          -6.543
REMARK INTER:                  -6.543
REMARK INTRA:                   0.000
REMARK UNBOUND:                 0.000
REMARK  Name = /home/vital/Documents/PhD_2021/Malaria_codes/scripts/../data/pdbqt_ligands/ligand_452_temp.pdb
REMARK                            x       y       z     vdW  Elec       q    Type
REMARK                         _______ _______ _______ _____ _____    ______ ____
ROOT
ATOM      1  C1  UNL     1       0.831  -4.842 -35.083  0.00  0.00    +0.079 C 
ATOM      2  O1  UNL     1       0.822  -5.435 -33.792  0.00  0.00    -0.491 OA
ATOM      3  C2  UNL     1       1.786  -5.037 -32.901  0.00  0.00    +0.164 A 
ATOM      4  C3  UNL     1       2.772  -4.090 -33.176  0.00  0.00    +0.021 A 
ATOM      5  C4  UNL     1       3.702  -3.761 -32.194  0.00  0.00    +0.148 A 
ATOM      6  F1  UNL     1       4.641  -2.846 -32.486  0.00  0.00    -0.203 F 
ATOM      7  C5  UNL     1       3.694  -4.346 -30.919  0.00  0.00    +0.073 A 
ATOM      8  N1  UNL     1       4.673  -3.951 -29.997  0.00  0.00    -0.281 N 
ATOM      9  C6  UNL     1       4.974  -4.295 -28.685  0.00  0.00    +0.220 A 
ATOM     10  N2  UNL     1       4.254  -5.202 -28.011  0.00  0.00    -0.222 NA
ATOM     11  C7  UNL     1       4.631  -5.463 -26.746  0.00  0.00    +0.040 A 
ATOM     12  C8  UNL     1       5.702  -4.855 -26.118  0.00  0.00    +0.019 A 
ATOM     13  C9  UNL     1       6.095  -5.129 -24.792  0.00  0.00    -0.051 A 
ATOM     14  C10 UNL     1       7.190  -4.467 -24.244  0.00  0.00    -0.061 A 
ATOM     15  C11 UNL     1       7.883  -3.539 -25.014  0.00  0.00    -0.060 A 
ATOM     16  C12 UNL     1       7.478  -3.280 -26.328  0.00  0.00    -0.036 A 
ATOM     17  C13 UNL     1       6.389  -3.927 -26.901  0.00  0.00    +0.076 A 
ATOM     18  N3  UNL     1       6.031  -3.651 -28.163  0.00  0.00    -0.214 NA
ATOM     19  C14 UNL     1       2.701  -5.295 -30.655  0.00  0.00    +0.008 A 
ATOM     20  C15 UNL     1       1.750  -5.645 -31.629  0.00  0.00    +0.163 A 
ATOM     21  O2  UNL     1       0.749  -6.567 -31.436  0.00  0.00    -0.491 OA
ATOM     22  C16 UNL     1       0.675  -7.205 -30.168  0.00  0.00    +0.079 C 
ATOM     23  H   UNL     1       5.287  -3.273 -30.363  0.00  0.00    +0.000 HD
ENDROOT
TORSDOF 0
ENDMDL
MODEL 3
REMARK VINA RESULT:    -6.367     13.761     15.206
REMARK INTER + INTRA:          -6.367
REMARK INTER:                  -6.367
REMARK INTRA:                   0.000
REMARK UNBOUND:                 0.000
REMARK  Name = /home/vital/Documents/PhD_2021/Malaria_codes/scripts/../data/pdbqt_ligands/ligand_452_temp.pdb
REMARK                            x       y       z     vdW  Elec       q    Type
REMARK                         _______ _______ _______ _____ _____    ______ ____
ROOT
ATOM      1  C1  UNL     1      13.554   4.845 -25.444  0.00  0.00    +0.079 C 
ATOM      2  O1  UNL     1      12.701   4.244 -24.480  0.00  0.00    -0.491 OA
ATOM      3  C2  UNL     1      12.079   3.070 -24.823  0.00  0.00    +0.164 A 
ATOM      4  C3  UNL     1      12.227   2.428 -26.052  0.00  0.00    +0.021 A 
ATOM      5  C4  UNL     1      11.546   1.238 -26.292  0.00  0.00    +0.148 A 
ATOM      6  F1  UNL     1      11.707   0.641 -27.485  0.00  0.00    -0.203 F 
ATOM      7  C5  UNL     1      10.704   0.644 -25.341  0.00  0.00    +0.073 A 
ATOM      8  N1  UNL     1      10.060  -0.555 -25.676  0.00  0.00    -0.281 N 
ATOM      9  C6  UNL     1       9.183  -1.409 -25.019  0.00  0.00    +0.220 A 
ATOM     10  N2  UNL     1       8.761  -1.163 -23.771  0.00  0.00    -0.222 NA
ATOM     11  C7  UNL     1       7.912  -2.053 -23.226  0.00  0.00    +0.040 A 
ATOM     12  C8  UNL     1       7.460  -3.187 -23.876  0.00  0.00    +0.019 A 
ATOM     13  C9  UNL     1       6.570  -4.119 -23.304  0.00  0.00    -0.051 A 
ATOM     14  C10 UNL     1       6.170  -5.233 -24.036  0.00  0.00    -0.061 A 
ATOM     15  C11 UNL     1       6.656  -5.413 -25.327  0.00  0.00    -0.060 A 
ATOM     16  C12 UNL     1       7.539  -4.477 -25.878  0.00  0.00    -0.036 A 
ATOM     17  C13 UNL     1       7.954  -3.356 -25.169  0.00  0.00    +0.076 A 
ATOM     18  N3  UNL     1       8.802  -2.482 -25.732  0.00  0.00    -0.214 NA
ATOM     19  C14 UNL     1      10.563   1.297 -24.112  0.00  0.00    +0.008 A 
ATOM     20  C15 UNL     1      11.239   2.499 -23.844  0.00  0.00    +0.163 A 
ATOM     21  O2  UNL     1      11.146   3.191 -22.661  0.00  0.00    -0.491 OA
ATOM     22  C16 UNL     1      10.310   2.653 -21.645  0.00  0.00    +0.079 C 
ATOM     23  H   UNL     1      10.281  -0.863 -26.585  0.00  0.00    +0.000 HD
ENDROOT
TORSDOF 0
ENDMDL
MODEL 4
REMARK VINA RESULT:    -6.192      4.432      5.470
REMARK INTER + INTRA:          -6.192
REMARK INTER:                  -6.192
REMARK INTRA:                   0.000
REMARK UNBOUND:                 0.000
REMARK  Name = /home/vital/Documents/PhD_2021/Malaria_codes/scripts/../data/pdbqt_ligands/ligand_452_temp.pdb
REMARK                            x       y       z     vdW  Elec       q    Type
REMARK                         _______ _______ _______ _____ _____    ______ ____
ROOT
ATOM      1  C1  UNL     1       1.800   8.149 -17.360  0.00  0.00    +0.079 C 
ATOM      2  O1  UNL     1       1.795   6.738 -17.206  0.00  0.00    -0.491 OA
ATOM      3  C2  UNL     1       0.853   6.024 -17.904  0.00  0.00    +0.164 A 
ATOM      4  C3  UNL     1      -0.096   6.590 -18.753  0.00  0.00    +0.021 A 
ATOM      5  C4  UNL     1      -1.006   5.768 -19.413  0.00  0.00    +0.148 A 
ATOM      6  F1  UNL     1      -1.910   6.340 -20.225  0.00  0.00    -0.203 F 
ATOM      7  C5  UNL     1      -1.012   4.374 -19.261  0.00  0.00    +0.073 A 
ATOM      8  N1  UNL     1      -1.968   3.630 -19.967  0.00  0.00    -0.281 N 
ATOM      9  C6  UNL     1      -2.273   2.279 -20.068  0.00  0.00    +0.220 A 
ATOM     10  N2  UNL     1      -1.585   1.348 -19.393  0.00  0.00    -0.222 NA
ATOM     11  C7  UNL     1      -1.963   0.067 -19.560  0.00  0.00    +0.040 A 
ATOM     12  C8  UNL     1      -3.005  -0.330 -20.378  0.00  0.00    +0.019 A 
ATOM     13  C9  UNL     1      -3.400  -1.672 -20.553  0.00  0.00    -0.051 A 
ATOM     14  C10 UNL     1      -4.463  -1.976 -21.398  0.00  0.00    -0.061 A 
ATOM     15  C11 UNL     1      -5.125  -0.948 -22.061  0.00  0.00    -0.060 A 
ATOM     16  C12 UNL     1      -4.718   0.379 -21.875  0.00  0.00    -0.036 A 
ATOM     17  C13 UNL     1      -3.660   0.710 -21.037  0.00  0.00    +0.076 A 
ATOM     18  N3  UNL     1      -3.301   1.993 -20.886  0.00  0.00    -0.214 NA
ATOM     19  C14 UNL     1      -0.055   3.817 -18.406  0.00  0.00    +0.008 A 
ATOM     20  C15 UNL     1       0.874   4.624 -17.729  0.00  0.00    +0.163 A 
ATOM     21  O2  UNL     1       1.839   4.144 -16.876  0.00  0.00    -0.491 OA
ATOM     22  C16 UNL     1       1.896   2.739 -16.669  0.00  0.00    +0.079 C 
ATOM     23  H   UNL     1      -2.557   4.195 -20.517  0.00  0.00    +0.000 HD
ENDROOT
TORSDOF 0
ENDMDL
MODEL 5
REMARK VINA RESULT:    -6.131     14.275     14.547
REMARK INTER + INTRA:          -6.131
REMARK INTER:                  -6.131
REMARK INTRA:                   0.000
REMARK UNBOUND:                 0.000
REMARK  Name = /home/vital/Documents/PhD_2021/Malaria_codes/scripts/../data/pdbqt_ligands/ligand_452_temp.pdb
REMARK                            x       y       z     vdW  Elec       q    Type
REMARK                         _______ _______ _______ _____ _____    ______ ____
ROOT
ATOM      1  C1  UNL     1       5.130  -4.014 -20.575  0.00  0.00    +0.079 C 
ATOM      2  O1  UNL     1       5.995  -3.826 -21.686  0.00  0.00    -0.491 OA
ATOM      3  C2  UNL     1       5.466  -3.993 -22.941  0.00  0.00    +0.164 A 
ATOM      4  C3  UNL     1       4.138  -4.332 -23.199  0.00  0.00    +0.021 A 
ATOM      5  C4  UNL     1       3.709  -4.476 -24.515  0.00  0.00    +0.148 A 
ATOM      6  F1  UNL     1       2.425  -4.803 -24.735  0.00  0.00    -0.203 F 
ATOM      7  C5  UNL     1       4.562  -4.291 -25.613  0.00  0.00    +0.073 A 
ATOM      8  N1  UNL     1       4.038  -4.458 -26.901  0.00  0.00    -0.281 N 
ATOM      9  C6  UNL     1       4.557  -4.362 -28.187  0.00  0.00    +0.220 A 
ATOM     10  N2  UNL     1       5.840  -4.047 -28.407  0.00  0.00    -0.222 NA
ATOM     11  C7  UNL     1       6.241  -3.981 -29.690  0.00  0.00    +0.040 A 
ATOM     12  C8  UNL     1       5.413  -4.217 -30.772  0.00  0.00    +0.019 A 
ATOM     13  C9  UNL     1       5.835  -4.148 -32.115  0.00  0.00    -0.051 A 
ATOM     14  C10 UNL     1       4.927  -4.403 -33.140  0.00  0.00    -0.061 A 
ATOM     15  C11 UNL     1       3.612  -4.724 -32.823  0.00  0.00    -0.060 A 
ATOM     16  C12 UNL     1       3.211  -4.789 -31.483  0.00  0.00    -0.036 A 
ATOM     17  C13 UNL     1       4.097  -4.539 -30.441  0.00  0.00    +0.076 A 
ATOM     18  N3  UNL     1       3.675  -4.609 -29.170  0.00  0.00    -0.214 NA
ATOM     19  C14 UNL     1       5.892  -3.951 -25.341  0.00  0.00    +0.008 A 
ATOM     20  C15 UNL     1       6.351  -3.800 -24.022  0.00  0.00    +0.163 A 
ATOM     21  O2  UNL     1       7.641  -3.468 -23.685  0.00  0.00    -0.491 OA
ATOM     22  C16 UNL     1       8.568  -3.264 -24.744  0.00  0.00    +0.079 C 
ATOM     23  H   UNL     1       3.083  -4.698 -26.894  0.00  0.00    +0.000 HD
ENDROOT
TORSDOF 0
ENDMDL
MODEL 6
REMARK VINA RESULT:    -6.122     14.152     14.533
REMARK INTER + INTRA:          -6.122
REMARK INTER:                  -6.122
REMARK INTRA:                   0.000
REMARK UNBOUND:                 0.000
REMARK  Name = /home/vital/Documents/PhD_2021/Malaria_codes/scripts/../data/pdbqt_ligands/ligand_452_temp.pdb
REMARK                            x       y       z     vdW  Elec       q    Type
REMARK                         _______ _______ _______ _____ _____    ______ ____
ROOT
ATOM      1  C1  UNL     1       5.099  -4.247 -20.331  0.00  0.00    +0.079 C 
ATOM      2  O1  UNL     1       4.117  -4.239 -21.358  0.00  0.00    -0.491 OA
ATOM      3  C2  UNL     1       4.555  -4.236 -22.658  0.00  0.00    +0.164 A 
ATOM      4  C3  UNL     1       5.896  -4.242 -23.039  0.00  0.00    +0.021 A 
ATOM      5  C4  UNL     1       6.226  -4.240 -24.392  0.00  0.00    +0.148 A 
ATOM      6  F1  UNL     1       7.526  -4.245 -24.731  0.00  0.00    -0.203 F 
ATOM      7  C5  UNL     1       5.258  -4.232 -25.406  0.00  0.00    +0.073 A 
ATOM      8  N1  UNL     1       5.688  -4.229 -26.740  0.00  0.00    -0.281 N 
ATOM      9  C6  UNL     1       5.047  -4.222 -27.972  0.00  0.00    +0.220 A 
ATOM     10  N2  UNL     1       3.711  -4.214 -28.073  0.00  0.00    -0.222 NA
ATOM     11  C7  UNL     1       3.192  -4.207 -29.314  0.00  0.00    +0.040 A 
ATOM     12  C8  UNL     1       3.951  -4.208 -30.470  0.00  0.00    +0.019 A 
ATOM     13  C9  UNL     1       3.405  -4.201 -31.769  0.00  0.00    -0.051 A 
ATOM     14  C10 UNL     1       4.251  -4.201 -32.875  0.00  0.00    -0.061 A 
ATOM     15  C11 UNL     1       5.628  -4.209 -32.682  0.00  0.00    -0.060 A 
ATOM     16  C12 UNL     1       6.152  -4.216 -31.384  0.00  0.00    -0.036 A 
ATOM     17  C13 UNL     1       5.330  -4.216 -30.262  0.00  0.00    +0.076 A 
ATOM     18  N3  UNL     1       5.870  -4.223 -29.035  0.00  0.00    -0.214 NA
ATOM     19  C14 UNL     1       3.916  -4.226 -25.012  0.00  0.00    +0.008 A 
ATOM     20  C15 UNL     1       3.555  -4.228 -23.653  0.00  0.00    +0.163 A 
ATOM     21  O2  UNL     1       2.259  -4.223 -23.197  0.00  0.00    -0.491 OA
ATOM     22  C16 UNL     1       1.219  -4.214 -24.166  0.00  0.00    +0.079 C 
ATOM     23  H   UNL     1       6.669  -4.233 -26.822  0.00  0.00    +0.000 HD
ENDROOT
TORSDOF 0
ENDMDL
MODEL 7
REMARK VINA RESULT:    -6.086      9.729     10.043
REMARK INTER + INTRA:          -6.086
REMARK INTER:                  -6.086
REMARK INTRA:                   0.000
REMARK UNBOUND:                 0.000
REMARK  Name = /home/vital/Documents/PhD_2021/Malaria_codes/scripts/../data/pdbqt_ligands/ligand_452_temp.pdb
REMARK                            x       y       z     vdW  Elec       q    Type
REMARK                         _______ _______ _______ _____ _____    ______ ____
ROOT
ATOM      1  C1  UNL     1       5.860  -3.425 -20.222  0.00  0.00    +0.079 C 
ATOM      2  O1  UNL     1       4.969  -3.710 -21.290  0.00  0.00    -0.491 OA
ATOM      3  C2  UNL     1       3.649  -3.376 -21.125  0.00  0.00    +0.164 A 
ATOM      4  C3  UNL     1       3.124  -2.776 -19.981  0.00  0.00    +0.021 A 
ATOM      5  C4  UNL     1       1.765  -2.480 -19.923  0.00  0.00    +0.148 A 
ATOM      6  F1  UNL     1       1.285  -1.902 -18.809  0.00  0.00    -0.203 F 
ATOM      7  C5  UNL     1       0.884  -2.761 -20.977  0.00  0.00    +0.073 A 
ATOM      8  N1  UNL     1      -0.468  -2.426 -20.824  0.00  0.00    -0.281 N 
ATOM      9  C6  UNL     1      -1.600  -2.545 -21.622  0.00  0.00    +0.220 A 
ATOM     10  N2  UNL     1      -1.546  -3.087 -22.846  0.00  0.00    -0.222 NA
ATOM     11  C7  UNL     1      -2.700  -3.155 -23.536  0.00  0.00    +0.040 A 
ATOM     12  C8  UNL     1      -3.915  -2.705 -23.054  0.00  0.00    +0.019 A 
ATOM     13  C9  UNL     1      -5.123  -2.777 -23.778  0.00  0.00    -0.051 A 
ATOM     14  C10 UNL     1      -6.300  -2.298 -23.210  0.00  0.00    -0.061 A 
ATOM     15  C11 UNL     1      -6.268  -1.751 -21.931  0.00  0.00    -0.060 A 
ATOM     16  C12 UNL     1      -5.059  -1.687 -21.228  0.00  0.00    -0.036 A 
ATOM     17  C13 UNL     1      -3.870  -2.159 -21.771  0.00  0.00    +0.076 A 
ATOM     18  N3  UNL     1      -2.732  -2.079 -21.067  0.00  0.00    -0.214 NA
ATOM     19  C14 UNL     1       1.422  -3.362 -22.119  0.00  0.00    +0.008 A 
ATOM     20  C15 UNL     1       2.790  -3.672 -22.205  0.00  0.00    +0.163 A 
ATOM     21  O2  UNL     1       3.383  -4.262 -23.294  0.00  0.00    -0.491 OA
ATOM     22  C16 UNL     1       2.555  -4.578 -24.406  0.00  0.00    +0.079 C 
ATOM     23  H   UNL     1      -0.660  -2.011 -19.952  0.00  0.00    +0.000 HD
ENDROOT
TORSDOF 0
ENDMDL
MODEL 8
REMARK VINA RESULT:    -6.038     14.835     16.217
REMARK INTER + INTRA:          -6.038
REMARK INTER:                  -6.038
REMARK INTRA:                   0.000
REMARK UNBOUND:                 0.000
REMARK  Name = /home/vital/Documents/PhD_2021/Malaria_codes/scripts/../data/pdbqt_ligands/ligand_452_temp.pdb
REMARK                            x       y       z     vdW  Elec       q    Type
REMARK                         _______ _______ _______ _____ _____    ______ ____
ROOT
ATOM      1  C1  UNL     1      12.883   4.007 -30.423  0.00  0.00    +0.079 C 
ATOM      2  O1  UNL     1      11.754   3.184 -30.678  0.00  0.00    -0.491 OA
ATOM      3  C2  UNL     1      11.314   2.373 -29.662  0.00  0.00    +0.164 A 
ATOM      4  C3  UNL     1      11.898   2.304 -28.398  0.00  0.00    +0.021 A 
ATOM      5  C4  UNL     1      11.367   1.444 -27.442  0.00  0.00    +0.148 A 
ATOM      6  F1  UNL     1      11.949   1.397 -26.232  0.00  0.00    -0.203 F 
ATOM      7  C5  UNL     1      10.252   0.630 -27.693  0.00  0.00    +0.073 A 
ATOM      8  N1  UNL     1       9.790  -0.204 -26.666  0.00  0.00    -0.281 N 
ATOM      9  C6  UNL     1       8.751  -1.118 -26.544  0.00  0.00    +0.220 A 
ATOM     10  N2  UNL     1       7.911  -1.371 -27.558  0.00  0.00    -0.222 NA
ATOM     11  C7  UNL     1       6.939  -2.275 -27.335  0.00  0.00    +0.040 A 
ATOM     12  C8  UNL     1       6.766  -2.944 -26.137  0.00  0.00    +0.019 A 
ATOM     13  C9  UNL     1       5.747  -3.890 -25.905  0.00  0.00    -0.051 A 
ATOM     14  C10 UNL     1       5.651  -4.514 -24.665  0.00  0.00    -0.061 A 
ATOM     15  C11 UNL     1       6.565  -4.194 -23.667  0.00  0.00    -0.060 A 
ATOM     16  C12 UNL     1       7.570  -3.251 -23.915  0.00  0.00    -0.036 A 
ATOM     17  C13 UNL     1       7.689  -2.614 -25.144  0.00  0.00    +0.076 A 
ATOM     18  N3  UNL     1       8.664  -1.716 -25.344  0.00  0.00    -0.214 NA
ATOM     19  C14 UNL     1       9.675   0.708 -28.964  0.00  0.00    +0.008 A 
ATOM     20  C15 UNL     1      10.191   1.568 -29.948  0.00  0.00    +0.163 A 
ATOM     21  O2  UNL     1       9.674   1.694 -31.215  0.00  0.00    -0.491 OA
ATOM     22  C16 UNL     1       8.542   0.900 -31.547  0.00  0.00    +0.079 C 
ATOM     23  H   UNL     1      10.323  -0.123 -25.843  0.00  0.00    +0.000 HD
ENDROOT
TORSDOF 0
ENDMDL
MODEL 9
REMARK VINA RESULT:    -5.803     15.836     17.267
REMARK INTER + INTRA:          -5.803
REMARK INTER:                  -5.803
REMARK INTRA:                   0.000
REMARK UNBOUND:                 0.000
REMARK  Name = /home/vital/Documents/PhD_2021/Malaria_codes/scripts/../data/pdbqt_ligands/ligand_452_temp.pdb
REMARK                            x       y       z     vdW  Elec       q    Type
REMARK                         _______ _______ _______ _____ _____    ______ ____
ROOT
ATOM      1  C1  UNL     1       1.710  -7.012 -32.336  0.00  0.00    +0.079 C 
ATOM      2  O1  UNL     1       1.460  -5.619 -32.452  0.00  0.00    -0.491 OA
ATOM      3  C2  UNL     1       2.540  -4.772 -32.421  0.00  0.00    +0.164 A 
ATOM      4  C3  UNL     1       3.864  -5.188 -32.285  0.00  0.00    +0.021 A 
ATOM      5  C4  UNL     1       4.883  -4.240 -32.266  0.00  0.00    +0.148 A 
ATOM      6  F1  UNL     1       6.150  -4.667 -32.133  0.00  0.00    -0.203 F 
ATOM      7  C5  UNL     1       4.637  -2.864 -32.380  0.00  0.00    +0.073 A 
ATOM      8  N1  UNL     1       5.730  -1.986 -32.350  0.00  0.00    -0.281 N 
ATOM      9  C6  UNL     1       5.876  -0.606 -32.432  0.00  0.00    +0.220 A 
ATOM     10  N2  UNL     1       4.821   0.208 -32.573  0.00  0.00    -0.222 NA
ATOM     11  C7  UNL     1       5.073   1.528 -32.642  0.00  0.00    +0.040 A 
ATOM     12  C8  UNL     1       6.340   2.077 -32.576  0.00  0.00    +0.019 A 
ATOM     13  C9  UNL     1       6.603   3.460 -32.649  0.00  0.00    -0.051 A 
ATOM     14  C10 UNL     1       7.914   3.921 -32.572  0.00  0.00    -0.061 A 
ATOM     15  C11 UNL     1       8.952   3.007 -32.425  0.00  0.00    -0.060 A 
ATOM     16  C12 UNL     1       8.672   1.637 -32.355  0.00  0.00    -0.036 A 
ATOM     17  C13 UNL     1       7.372   1.150 -32.428  0.00  0.00    +0.076 A 
ATOM     18  N3  UNL     1       7.145  -0.170 -32.358  0.00  0.00    -0.214 NA
ATOM     19  C14 UNL     1       3.305  -2.459 -32.516  0.00  0.00    +0.008 A 
ATOM     20  C15 UNL     1       2.258  -3.395 -32.538  0.00  0.00    +0.163 A 
ATOM     21  O2  UNL     1       0.930  -3.068 -32.668  0.00  0.00    -0.491 OA
ATOM     22  C16 UNL     1       0.599  -1.690 -32.788  0.00  0.00    +0.079 C 
ATOM     23  H   UNL     1       6.590  -2.454 -32.247  0.00  0.00    +0.000 HD
ENDROOT
TORSDOF 0
ENDMDL
