MODEL 1
REMARK VINA RESULT:    -5.663      0.000      0.000
REMARK INTER + INTRA:          -5.663
REMARK INTER:                  -5.663
REMARK INTRA:                   0.000
REMARK UNBOUND:                 0.000
REMARK  Name = /home/vital/Documents/PhD_2021/Malaria_codes/scripts/../data/pdbqt_ligands/ligand_245_temp.pdb
REMARK                            x       y       z     vdW  Elec       q    Type
REMARK                         _______ _______ _______ _____ _____    ______ ____
ROOT
ATOM      1  C1  UNL     1      -3.177   5.555 -21.291  0.00  0.00    -0.055 C 
ATOM      2  C2  UNL     1      -2.131   6.639 -21.449  0.00  0.00    +0.043 C 
ATOM      3  C3  UNL     1      -0.963   6.399 -20.526  0.00  0.00    +0.312 C 
ATOM      4  O1  UNL     1       0.097   5.901 -20.879  0.00  0.00    -0.250 OA
ATOM      5  O2  UNL     1      -1.302   6.815 -19.243  0.00  0.00    -0.426 OA
ATOM      6  C4  UNL     1      -0.300   6.622 -18.289  0.00  0.00    +0.135 A 
ATOM      7  C5  UNL     1       0.859   7.403 -18.306  0.00  0.00    -0.018 A 
ATOM      8  C6  UNL     1       1.826   7.222 -17.312  0.00  0.00    -0.048 A 
ATOM      9  C7  UNL     1       1.622   6.277 -16.303  0.00  0.00    +0.018 A 
ATOM     10  C8  UNL     1       2.599   6.051 -15.251  0.00  0.00    -0.044 A 
ATOM     11  C9  UNL     1       2.351   5.139 -14.305  0.00  0.00    +0.024 A 
ATOM     12  C10 UNL     1       1.112   4.343 -14.280  0.00  0.00    +0.337 A 
ATOM     13  O3  UNL     1       0.917   3.520 -13.392  0.00  0.00    -0.245 OA
ATOM     14  O4  UNL     1       0.194   4.573 -15.295  0.00  0.00    -0.422 OA
ATOM     15  C11 UNL     1       0.445   5.528 -16.301  0.00  0.00    +0.143 A 
ATOM     16  C12 UNL     1      -0.530   5.690 -17.281  0.00  0.00    +0.024 A 
ENDROOT
TORSDOF 0
ENDMDL
MODEL 2
REMARK VINA RESULT:    -5.649     12.278     13.108
REMARK INTER + INTRA:          -5.649
REMARK INTER:                  -5.649
REMARK INTRA:                   0.000
REMARK UNBOUND:                 0.000
REMARK  Name = /home/vital/Documents/PhD_2021/Malaria_codes/scripts/../data/pdbqt_ligands/ligand_245_temp.pdb
REMARK                            x       y       z     vdW  Elec       q    Type
REMARK                         _______ _______ _______ _____ _____    ______ ____
ROOT
ATOM      1  C1  UNL     1       2.617  -2.925 -19.410  0.00  0.00    -0.055 C 
ATOM      2  C2  UNL     1       2.708  -4.214 -20.202  0.00  0.00    +0.043 C 
ATOM      3  C3  UNL     1       4.058  -4.346 -20.859  0.00  0.00    +0.312 C 
ATOM      4  O1  UNL     1       4.968  -5.037 -20.421  0.00  0.00    -0.250 OA
ATOM      5  O2  UNL     1       4.087  -3.558 -22.005  0.00  0.00    -0.426 OA
ATOM      6  C4  UNL     1       5.303  -3.583 -22.694  0.00  0.00    +0.135 A 
ATOM      7  C5  UNL     1       5.702  -4.725 -23.391  0.00  0.00    -0.018 A 
ATOM      8  C6  UNL     1       6.901  -4.710 -24.111  0.00  0.00    -0.048 A 
ATOM      9  C7  UNL     1       7.682  -3.551 -24.141  0.00  0.00    +0.018 A 
ATOM     10  C8  UNL     1       8.937  -3.487 -24.873  0.00  0.00    -0.044 A 
ATOM     11  C9  UNL     1       9.641  -2.351 -24.874  0.00  0.00    +0.024 A 
ATOM     12  C10 UNL     1       9.196  -1.142 -24.160  0.00  0.00    +0.337 A 
ATOM     13  O3  UNL     1       9.866  -0.117 -24.190  0.00  0.00    -0.245 OA
ATOM     14  O4  UNL     1       7.996  -1.227 -23.466  0.00  0.00    -0.422 OA
ATOM     15  C11 UNL     1       7.245  -2.419 -23.452  0.00  0.00    +0.143 A 
ATOM     16  C12 UNL     1       6.056  -2.414 -22.728  0.00  0.00    +0.024 A 
ENDROOT
TORSDOF 0
ENDMDL
MODEL 3
REMARK VINA RESULT:    -5.641     13.108     13.697
REMARK INTER + INTRA:          -5.641
REMARK INTER:                  -5.641
REMARK INTRA:                   0.000
REMARK UNBOUND:                 0.000
REMARK  Name = /home/vital/Documents/PhD_2021/Malaria_codes/scripts/../data/pdbqt_ligands/ligand_245_temp.pdb
REMARK                            x       y       z     vdW  Elec       q    Type
REMARK                         _______ _______ _______ _____ _____    ______ ____
ROOT
ATOM      1  C1  UNL     1      11.407   0.911 -25.379  0.00  0.00    -0.055 C 
ATOM      2  C2  UNL     1      11.155  -0.199 -26.381  0.00  0.00    +0.043 C 
ATOM      3  C3  UNL     1       9.861  -0.911 -26.080  0.00  0.00    +0.312 C 
ATOM      4  O1  UNL     1       8.811  -0.703 -26.672  0.00  0.00    -0.250 OA
ATOM      5  O2  UNL     1      10.066  -1.805 -25.034  0.00  0.00    -0.426 OA
ATOM      6  C4  UNL     1       8.925  -2.515 -24.649  0.00  0.00    +0.135 A 
ATOM      7  C5  UNL     1       8.389  -3.505 -25.476  0.00  0.00    -0.018 A 
ATOM      8  C6  UNL     1       7.275  -4.233 -25.047  0.00  0.00    -0.048 A 
ATOM      9  C7  UNL     1       6.716  -3.978 -23.792  0.00  0.00    +0.018 A 
ATOM     10  C8  UNL     1       5.556  -4.707 -23.304  0.00  0.00    -0.044 A 
ATOM     11  C9  UNL     1       5.065  -4.428 -22.093  0.00  0.00    +0.024 A 
ATOM     12  C10 UNL     1       5.656  -3.403 -21.216  0.00  0.00    +0.337 A 
ATOM     13  O3  UNL     1       5.182  -3.180 -20.108  0.00  0.00    -0.245 OA
ATOM     14  O4  UNL     1       6.761  -2.718 -21.703  0.00  0.00    -0.422 OA
ATOM     15  C11 UNL     1       7.287  -2.998 -22.980  0.00  0.00    +0.143 A 
ATOM     16  C12 UNL     1       8.395  -2.261 -23.388  0.00  0.00    +0.024 A 
ENDROOT
TORSDOF 0
ENDMDL
MODEL 4
REMARK VINA RESULT:    -5.562     14.711     16.163
REMARK INTER + INTRA:          -5.562
REMARK INTER:                  -5.562
REMARK INTRA:                   0.000
REMARK UNBOUND:                 0.000
REMARK  Name = /home/vital/Documents/PhD_2021/Malaria_codes/scripts/../data/pdbqt_ligands/ligand_245_temp.pdb
REMARK                            x       y       z     vdW  Elec       q    Type
REMARK                         _______ _______ _______ _____ _____    ______ ____
ROOT
ATOM      1  C1  UNL     1       8.885  -3.038 -25.232  0.00  0.00    -0.055 C 
ATOM      2  C2  UNL     1       9.274  -2.030 -24.170  0.00  0.00    +0.043 C 
ATOM      3  C3  UNL     1       9.570  -0.687 -24.787  0.00  0.00    +0.312 C 
ATOM      4  O1  UNL     1       8.783   0.250 -24.799  0.00  0.00    -0.250 OA
ATOM      5  O2  UNL     1      10.849  -0.708 -25.335  0.00  0.00    -0.426 OA
ATOM      6  C4  UNL     1      11.231   0.483 -25.959  0.00  0.00    +0.135 A 
ATOM      7  C5  UNL     1      11.504   1.625 -25.203  0.00  0.00    -0.018 A 
ATOM      8  C6  UNL     1      11.930   2.792 -25.847  0.00  0.00    -0.048 A 
ATOM      9  C7  UNL     1      12.094   2.803 -27.235  0.00  0.00    +0.018 A 
ATOM     10  C8  UNL     1      12.532   3.991 -27.949  0.00  0.00    -0.044 A 
ATOM     11  C9  UNL     1      12.679   3.945 -29.276  0.00  0.00    +0.024 A 
ATOM     12  C10 UNL     1      12.417   2.726 -30.060  0.00  0.00    +0.337 A 
ATOM     13  O3  UNL     1      12.570   2.720 -31.276  0.00  0.00    -0.245 OA
ATOM     14  O4  UNL     1      11.998   1.604 -29.359  0.00  0.00    -0.422 OA
ATOM     15  C11 UNL     1      11.833   1.639 -27.959  0.00  0.00    +0.143 A 
ATOM     16  C12 UNL     1      11.407   0.468 -27.339  0.00  0.00    +0.024 A 
ENDROOT
TORSDOF 0
ENDMDL
MODEL 5
REMARK VINA RESULT:    -5.508      1.530      1.950
REMARK INTER + INTRA:          -5.508
REMARK INTER:                  -5.508
REMARK INTRA:                   0.000
REMARK UNBOUND:                 0.000
REMARK  Name = /home/vital/Documents/PhD_2021/Malaria_codes/scripts/../data/pdbqt_ligands/ligand_245_temp.pdb
REMARK                            x       y       z     vdW  Elec       q    Type
REMARK                         _______ _______ _______ _____ _____    ______ ____
ROOT
ATOM      1  C1  UNL     1      -2.951   4.195 -19.168  0.00  0.00    -0.055 C 
ATOM      2  C2  UNL     1      -2.113   5.411 -19.507  0.00  0.00    +0.043 C 
ATOM      3  C3  UNL     1      -0.779   5.356 -18.806  0.00  0.00    +0.312 C 
ATOM      4  O1  UNL     1       0.263   5.003 -19.343  0.00  0.00    -0.250 OA
ATOM      5  O2  UNL     1      -0.943   5.751 -17.483  0.00  0.00    -0.426 OA
ATOM      6  C4  UNL     1       0.229   5.721 -16.721  0.00  0.00    +0.135 A 
ATOM      7  C5  UNL     1       1.245   6.654 -16.941  0.00  0.00    -0.018 A 
ATOM      8  C6  UNL     1       2.387   6.632 -16.135  0.00  0.00    -0.048 A 
ATOM      9  C7  UNL     1       2.499   5.691 -15.108  0.00  0.00    +0.018 A 
ATOM     10  C8  UNL     1       3.668   5.628 -14.246  0.00  0.00    -0.044 A 
ATOM     11  C9  UNL     1       3.720   4.712 -13.274  0.00  0.00    +0.024 A 
ATOM     12  C10 UNL     1       2.630   3.752 -13.031  0.00  0.00    +0.337 A 
ATOM     13  O3  UNL     1       2.712   2.931 -12.125  0.00  0.00    -0.245 OA
ATOM     14  O4  UNL     1       1.525   3.829 -13.867  0.00  0.00    -0.422 OA
ATOM     15  C11 UNL     1       1.458   4.786 -14.900  0.00  0.00    +0.143 A 
ATOM     16  C12 UNL     1       0.313   4.789 -15.691  0.00  0.00    +0.024 A 
ENDROOT
TORSDOF 0
ENDMDL
MODEL 6
REMARK VINA RESULT:    -5.405     17.331     19.909
REMARK INTER + INTRA:          -5.405
REMARK INTER:                  -5.405
REMARK INTRA:                   0.000
REMARK UNBOUND:                 0.000
REMARK  Name = /home/vital/Documents/PhD_2021/Malaria_codes/scripts/../data/pdbqt_ligands/ligand_245_temp.pdb
REMARK                            x       y       z     vdW  Elec       q    Type
REMARK                         _______ _______ _______ _____ _____    ______ ____
ROOT
ATOM      1  C1  UNL     1       3.955  -2.421 -30.647  0.00  0.00    -0.055 C 
ATOM      2  C2  UNL     1       4.480  -3.026 -31.934  0.00  0.00    +0.043 C 
ATOM      3  C3  UNL     1       3.482  -3.993 -32.520  0.00  0.00    +0.312 C 
ATOM      4  O1  UNL     1       2.726  -3.721 -33.443  0.00  0.00    -0.250 OA
ATOM      5  O2  UNL     1       3.563  -5.201 -31.836  0.00  0.00    -0.426 OA
ATOM      6  C4  UNL     1       2.666  -6.177 -32.279  0.00  0.00    +0.135 A 
ATOM      7  C5  UNL     1       2.840  -6.793 -33.520  0.00  0.00    -0.018 A 
ATOM      8  C6  UNL     1       1.955  -7.800 -33.920  0.00  0.00    -0.048 A 
ATOM      9  C7  UNL     1       0.916  -8.193 -33.073  0.00  0.00    +0.018 A 
ATOM     10  C8  UNL     1      -0.030  -9.232 -33.445  0.00  0.00    -0.044 A 
ATOM     11  C9  UNL     1      -1.002  -9.574 -32.594  0.00  0.00    +0.024 A 
ATOM     12  C10 UNL     1      -1.158  -8.939 -31.275  0.00  0.00    +0.337 A 
ATOM     13  O3  UNL     1      -2.058  -9.285 -30.518  0.00  0.00    -0.245 OA
ATOM     14  O4  UNL     1      -0.246  -7.948 -30.940  0.00  0.00    -0.422 OA
ATOM     15  C11 UNL     1       0.781  -7.573 -31.830  0.00  0.00    +0.143 A 
ATOM     16  C12 UNL     1       1.650  -6.568 -31.413  0.00  0.00    +0.024 A 
ENDROOT
TORSDOF 0
ENDMDL
MODEL 7
REMARK VINA RESULT:    -5.398      2.412      3.328
REMARK INTER + INTRA:          -5.398
REMARK INTER:                  -5.398
REMARK INTRA:                   0.000
REMARK UNBOUND:                 0.000
REMARK  Name = /home/vital/Documents/PhD_2021/Malaria_codes/scripts/../data/pdbqt_ligands/ligand_245_temp.pdb
REMARK                            x       y       z     vdW  Elec       q    Type
REMARK                         _______ _______ _______ _____ _____    ______ ____
ROOT
ATOM      1  C1  UNL     1      -1.470   4.673 -20.253  0.00  0.00    -0.055 C 
ATOM      2  C2  UNL     1      -1.853   5.532 -19.065  0.00  0.00    +0.043 C 
ATOM      3  C3  UNL     1      -0.741   5.571 -18.049  0.00  0.00    +0.312 C 
ATOM      4  O1  UNL     1       0.051   6.496 -17.936  0.00  0.00    -0.250 OA
ATOM      5  O2  UNL     1      -0.767   4.399 -17.299  0.00  0.00    -0.426 OA
ATOM      6  C4  UNL     1       0.237   4.310 -16.331  0.00  0.00    +0.135 A 
ATOM      7  C5  UNL     1       0.201   5.116 -15.191  0.00  0.00    -0.018 A 
ATOM      8  C6  UNL     1       1.192   4.975 -14.215  0.00  0.00    -0.048 A 
ATOM      9  C7  UNL     1       2.200   4.021 -14.377  0.00  0.00    +0.018 A 
ATOM     10  C8  UNL     1       3.253   3.839 -13.391  0.00  0.00    -0.044 A 
ATOM     11  C9  UNL     1       4.190   2.907 -13.592  0.00  0.00    +0.024 A 
ATOM     12  C10 UNL     1       4.202   2.041 -14.783  0.00  0.00    +0.337 A 
ATOM     13  O3  UNL     1       5.074   1.192 -14.930  0.00  0.00    -0.245 OA
ATOM     14  O4  UNL     1       3.189   2.234 -15.713  0.00  0.00    -0.422 OA
ATOM     15  C11 UNL     1       2.197   3.216 -15.517  0.00  0.00    +0.143 A 
ATOM     16  C12 UNL     1       1.221   3.341 -16.501  0.00  0.00    +0.024 A 
ENDROOT
TORSDOF 0
ENDMDL
MODEL 8
REMARK VINA RESULT:    -5.349     18.647     20.765
REMARK INTER + INTRA:          -5.349
REMARK INTER:                  -5.349
REMARK INTRA:                   0.000
REMARK UNBOUND:                 0.000
REMARK  Name = /home/vital/Documents/PhD_2021/Malaria_codes/scripts/../data/pdbqt_ligands/ligand_245_temp.pdb
REMARK                            x       y       z     vdW  Elec       q    Type
REMARK                         _______ _______ _______ _____ _____    ______ ____
ROOT
ATOM      1  C1  UNL     1       4.912  -4.375 -32.311  0.00  0.00    -0.055 C 
ATOM      2  C2  UNL     1       3.906  -3.721 -33.237  0.00  0.00    +0.043 C 
ATOM      3  C3  UNL     1       2.545  -4.351 -33.082  0.00  0.00    +0.312 C 
ATOM      4  O1  UNL     1       1.635  -3.864 -32.425  0.00  0.00    -0.250 OA
ATOM      5  O2  UNL     1       2.516  -5.551 -33.785  0.00  0.00    -0.426 OA
ATOM      6  C4  UNL     1       1.304  -6.242 -33.699  0.00  0.00    +0.135 A 
ATOM      7  C5  UNL     1       0.164  -5.762 -34.346  0.00  0.00    -0.018 A 
ATOM      8  C6  UNL     1      -1.025  -6.496 -34.284  0.00  0.00    -0.048 A 
ATOM      9  C7  UNL     1      -1.061  -7.708 -33.591  0.00  0.00    +0.018 A 
ATOM     10  C8  UNL     1      -2.273  -8.505 -33.496  0.00  0.00    -0.044 A 
ATOM     11  C9  UNL     1      -2.250  -9.662 -32.826  0.00  0.00    +0.024 A 
ATOM     12  C10 UNL     1      -1.034 -10.174 -32.173  0.00  0.00    +0.337 A 
ATOM     13  O3  UNL     1      -1.051 -11.243 -31.573  0.00  0.00    -0.245 OA
ATOM     14  O4  UNL     1       0.111  -9.397 -32.274  0.00  0.00    -0.422 OA
ATOM     15  C11 UNL     1       0.101  -8.173 -32.973  0.00  0.00    +0.143 A 
ATOM     16  C12 UNL     1       1.294  -7.457 -33.021  0.00  0.00    +0.024 A 
ENDROOT
TORSDOF 0
ENDMDL
MODEL 9
REMARK VINA RESULT:    -5.257     17.289     19.836
REMARK INTER + INTRA:          -5.257
REMARK INTER:                  -5.257
REMARK INTRA:                   0.000
REMARK UNBOUND:                 0.000
REMARK  Name = /home/vital/Documents/PhD_2021/Malaria_codes/scripts/../data/pdbqt_ligands/ligand_245_temp.pdb
REMARK                            x       y       z     vdW  Elec       q    Type
REMARK                         _______ _______ _______ _____ _____    ______ ____
ROOT
ATOM      1  C1  UNL     1      -0.974 -10.458 -32.012  0.00  0.00    -0.055 C 
ATOM      2  C2  UNL     1      -1.141  -9.869 -33.398  0.00  0.00    +0.043 C 
ATOM      3  C3  UNL     1      -0.078  -8.837 -33.675  0.00  0.00    +0.312 C 
ATOM      4  O1  UNL     1       0.928  -9.051 -34.339  0.00  0.00    -0.250 OA
ATOM      5  O2  UNL     1      -0.425  -7.645 -33.049  0.00  0.00    -0.426 OA
ATOM      6  C4  UNL     1       0.501  -6.612 -33.218  0.00  0.00    +0.135 A 
ATOM      7  C5  UNL     1       0.656  -5.990 -34.460  0.00  0.00    -0.018 A 
ATOM      8  C6  UNL     1       1.556  -4.928 -34.592  0.00  0.00    -0.048 A 
ATOM      9  C7  UNL     1       2.281  -4.485 -33.482  0.00  0.00    +0.018 A 
ATOM     10  C8  UNL     1       3.229  -3.387 -33.570  0.00  0.00    -0.044 A 
ATOM     11  C9  UNL     1       3.891  -3.000 -32.476  0.00  0.00    +0.024 A 
ATOM     12  C10 UNL     1       3.699  -3.642 -31.165  0.00  0.00    +0.337 A 
ATOM     13  O3  UNL     1       4.320  -3.254 -30.182  0.00  0.00    -0.245 OA
ATOM     14  O4  UNL     1       2.790  -4.690 -31.104  0.00  0.00    -0.422 OA
ATOM     15  C11 UNL     1       2.088  -5.113 -32.250  0.00  0.00    +0.143 A 
ATOM     16  C12 UNL     1       1.199  -6.172 -32.097  0.00  0.00    +0.024 A 
ENDROOT
TORSDOF 0
ENDMDL
