MODEL 1
REMARK VINA RESULT:    -6.991      0.000      0.000
REMARK INTER + INTRA:          -6.991
REMARK INTER:                  -6.991
REMARK INTRA:                   0.000
REMARK UNBOUND:                 0.000
REMARK  Name = /home/vital/Documents/PhD_2021/Malaria_codes/scripts/../data/pdbqt_ligands/ligand_268_temp.pdb
REMARK                            x       y       z     vdW  Elec       q    Type
REMARK                         _______ _______ _______ _____ _____    ______ ____
ROOT
ATOM      1  O1  UNL     1      10.426   0.505 -28.280  0.00  0.00    -0.266 OA
ATOM      2  C1  UNL     1      10.591   0.780 -27.096  0.00  0.00    +0.284 C 
ATOM      3  N1  UNL     1      11.320   1.873 -26.651  0.00  0.00    -0.278 N 
ATOM      4  C2  UNL     1      11.998   2.853 -27.418  0.00  0.00    +0.054 A 
ATOM      5  C3  UNL     1      12.030   2.860 -28.816  0.00  0.00    -0.021 A 
ATOM      6  C4  UNL     1      12.721   3.864 -29.500  0.00  0.00    +0.043 A 
ATOM      7 CL1  UNL     1      12.753   3.861 -31.221  0.00  0.00    -0.083 Cl
ATOM      8  C5  UNL     1      13.390   4.872 -28.806  0.00  0.00    -0.042 A 
ATOM      9  C6  UNL     1      13.369   4.879 -27.414  0.00  0.00    -0.040 A 
ATOM     10  C7  UNL     1      12.678   3.878 -26.727  0.00  0.00    +0.062 A 
ATOM     11 CL2  UNL     1      12.681   3.930 -24.995  0.00  0.00    -0.082 Cl
ATOM     12  C8  UNL     1      10.022  -0.030 -26.025  0.00  0.00    +0.190 A 
ATOM     13  C9  UNL     1      10.049   0.049 -24.643  0.00  0.00    -0.011 A 
ATOM     14  C10 UNL     1       9.296  -1.050 -24.153  0.00  0.00    -0.015 A 
ATOM     15  C11 UNL     1       8.846  -1.748 -25.254  0.00  0.00    +0.136 A 
ATOM     16  C12 UNL     1       8.036  -2.950 -25.450  0.00  0.00    +0.019 A 
ATOM     17  C13 UNL     1       7.739  -3.425 -26.738  0.00  0.00    -0.051 A 
ATOM     18  C14 UNL     1       6.966  -4.574 -26.924  0.00  0.00    -0.060 A 
ATOM     19  C15 UNL     1       6.476  -5.268 -25.820  0.00  0.00    -0.043 A 
ATOM     20  C16 UNL     1       6.763  -4.806 -24.538  0.00  0.00    +0.042 A 
ATOM     21 CL3  UNL     1       6.159  -5.661 -23.171  0.00  0.00    -0.084 Cl
ATOM     22  C17 UNL     1       7.535  -3.659 -24.348  0.00  0.00    -0.033 A 
ATOM     23  O2  UNL     1       9.286  -1.127 -26.387  0.00  0.00    -0.450 OA
ATOM     24  H   UNL     1      11.374   1.981 -25.674  0.00  0.00    +0.000 HD
ENDROOT
TORSDOF 0
ENDMDL
MODEL 2
REMARK VINA RESULT:    -6.843      7.434     11.505
REMARK INTER + INTRA:          -6.843
REMARK INTER:                  -6.843
REMARK INTRA:                   0.000
REMARK UNBOUND:                 0.000
REMARK  Name = /home/vital/Documents/PhD_2021/Malaria_codes/scripts/../data/pdbqt_ligands/ligand_268_temp.pdb
REMARK                            x       y       z     vdW  Elec       q    Type
REMARK                         _______ _______ _______ _____ _____    ______ ____
ROOT
ATOM      1  O1  UNL     1       1.885  -5.874 -29.788  0.00  0.00    -0.266 OA
ATOM      2  C1  UNL     1       2.539  -5.131 -30.514  0.00  0.00    +0.284 C 
ATOM      3  N1  UNL     1       2.179  -4.809 -31.814  0.00  0.00    -0.278 N 
ATOM      4  C2  UNL     1       1.047  -5.241 -32.549  0.00  0.00    +0.054 A 
ATOM      5  C3  UNL     1       0.072  -6.103 -32.038  0.00  0.00    -0.021 A 
ATOM      6  C4  UNL     1      -1.017  -6.482 -32.829  0.00  0.00    +0.043 A 
ATOM      7 CL1  UNL     1      -2.210  -7.546 -32.189  0.00  0.00    -0.083 Cl
ATOM      8  C5  UNL     1      -1.152  -6.011 -34.134  0.00  0.00    -0.042 A 
ATOM      9  C6  UNL     1      -0.190  -5.151 -34.658  0.00  0.00    -0.040 A 
ATOM     10  C7  UNL     1       0.900  -4.770 -33.871  0.00  0.00    +0.062 A 
ATOM     11 CL2  UNL     1       2.070  -3.698 -34.567  0.00  0.00    -0.082 Cl
ATOM     12  C8  UNL     1       3.778  -4.504 -30.068  0.00  0.00    +0.190 A 
ATOM     13  C9  UNL     1       4.689  -3.648 -30.662  0.00  0.00    -0.011 A 
ATOM     14  C10 UNL     1       5.701  -3.393 -29.700  0.00  0.00    -0.015 A 
ATOM     15  C11 UNL     1       5.364  -4.103 -28.567  0.00  0.00    +0.136 A 
ATOM     16  C12 UNL     1       5.964  -4.275 -27.245  0.00  0.00    +0.019 A 
ATOM     17  C13 UNL     1       5.360  -5.090 -26.273  0.00  0.00    -0.051 A 
ATOM     18  C14 UNL     1       5.934  -5.255 -25.010  0.00  0.00    -0.060 A 
ATOM     19  C15 UNL     1       7.125  -4.603 -24.697  0.00  0.00    -0.043 A 
ATOM     20  C16 UNL     1       7.732  -3.792 -25.652  0.00  0.00    +0.042 A 
ATOM     21 CL3  UNL     1       9.204  -2.984 -25.270  0.00  0.00    -0.084 Cl
ATOM     22  C17 UNL     1       7.162  -3.625 -26.915  0.00  0.00    -0.033 A 
ATOM     23  O2  UNL     1       4.197  -4.775 -28.792  0.00  0.00    -0.450 OA
ATOM     24  H   UNL     1       2.791  -4.201 -32.288  0.00  0.00    +0.000 HD
ENDROOT
TORSDOF 0
ENDMDL
MODEL 3
REMARK VINA RESULT:    -6.695      6.295      9.434
REMARK INTER + INTRA:          -6.695
REMARK INTER:                  -6.695
REMARK INTRA:                   0.000
REMARK UNBOUND:                 0.000
REMARK  Name = /home/vital/Documents/PhD_2021/Malaria_codes/scripts/../data/pdbqt_ligands/ligand_268_temp.pdb
REMARK                            x       y       z     vdW  Elec       q    Type
REMARK                         _______ _______ _______ _____ _____    ______ ____
ROOT
ATOM      1  O1  UNL     1       4.122  -2.928 -22.898  0.00  0.00    -0.266 OA
ATOM      2  C1  UNL     1       4.150  -3.630 -23.904  0.00  0.00    +0.284 C 
ATOM      3  N1  UNL     1       5.299  -3.883 -24.637  0.00  0.00    -0.278 N 
ATOM      4  C2  UNL     1       6.617  -3.416 -24.403  0.00  0.00    +0.054 A 
ATOM      5  C3  UNL     1       6.967  -2.583 -23.335  0.00  0.00    -0.021 A 
ATOM      6  C4  UNL     1       8.291  -2.166 -23.173  0.00  0.00    +0.043 A 
ATOM      7 CL1  UNL     1       8.709  -1.140 -21.854  0.00  0.00    -0.083 Cl
ATOM      8  C5  UNL     1       9.283  -2.568 -24.066  0.00  0.00    -0.042 A 
ATOM      9  C6  UNL     1       8.951  -3.396 -25.135  0.00  0.00    -0.040 A 
ATOM     10  C7  UNL     1       7.628  -3.816 -25.301  0.00  0.00    +0.062 A 
ATOM     11 CL2  UNL     1       7.265  -4.846 -26.646  0.00  0.00    -0.082 Cl
ATOM     12  C8  UNL     1       2.954  -4.276 -24.432  0.00  0.00    +0.190 A 
ATOM     13  C9  UNL     1       2.706  -5.098 -25.519  0.00  0.00    -0.011 A 
ATOM     14  C10 UNL     1       1.320  -5.401 -25.498  0.00  0.00    -0.015 A 
ATOM     15  C11 UNL     1       0.786  -4.753 -24.404  0.00  0.00    +0.136 A 
ATOM     16  C12 UNL     1      -0.551  -4.650 -23.822  0.00  0.00    +0.019 A 
ATOM     17  C13 UNL     1      -0.784  -3.888 -22.665  0.00  0.00    -0.051 A 
ATOM     18  C14 UNL     1      -2.062  -3.790 -22.109  0.00  0.00    -0.060 A 
ATOM     19  C15 UNL     1      -3.132  -4.454 -22.704  0.00  0.00    -0.043 A 
ATOM     20  C16 UNL     1      -2.914  -5.213 -23.852  0.00  0.00    +0.042 A 
ATOM     21 CL3  UNL     1      -4.233  -6.036 -24.591  0.00  0.00    -0.084 Cl
ATOM     22  C17 UNL     1      -1.639  -5.314 -24.410  0.00  0.00    -0.033 A 
ATOM     23  O2  UNL     1       1.778  -4.073 -23.760  0.00  0.00    -0.450 OA
ATOM     24  H   UNL     1       5.185  -4.464 -25.423  0.00  0.00    +0.000 HD
ENDROOT
TORSDOF 0
ENDMDL
MODEL 4
REMARK VINA RESULT:    -6.584     15.878     17.917
REMARK INTER + INTRA:          -6.584
REMARK INTER:                  -6.584
REMARK INTRA:                   0.000
REMARK UNBOUND:                 0.000
REMARK  Name = /home/vital/Documents/PhD_2021/Malaria_codes/scripts/../data/pdbqt_ligands/ligand_268_temp.pdb
REMARK                            x       y       z     vdW  Elec       q    Type
REMARK                         _______ _______ _______ _____ _____    ______ ____
ROOT
ATOM      1  O1  UNL     1      -6.791   3.464 -24.169  0.00  0.00    -0.266 OA
ATOM      2  C1  UNL     1      -7.246   2.461 -24.709  0.00  0.00    +0.284 C 
ATOM      3  N1  UNL     1      -8.138   2.492 -25.769  0.00  0.00    -0.278 N 
ATOM      4  C2  UNL     1      -8.691   3.620 -26.425  0.00  0.00    +0.054 A 
ATOM      5  C3  UNL     1      -8.397   4.942 -26.076  0.00  0.00    -0.021 A 
ATOM      6  C4  UNL     1      -8.984   6.002 -26.774  0.00  0.00    +0.043 A 
ATOM      7 CL1  UNL     1      -8.615   7.625 -26.334  0.00  0.00    -0.083 Cl
ATOM      8  C5  UNL     1      -9.869   5.764 -27.824  0.00  0.00    -0.042 A 
ATOM      9  C6  UNL     1     -10.173   4.453 -28.185  0.00  0.00    -0.040 A 
ATOM     10  C7  UNL     1      -9.587   3.392 -27.490  0.00  0.00    +0.062 A 
ATOM     11 CL2  UNL     1      -9.996   1.779 -27.975  0.00  0.00    -0.082 Cl
ATOM     12  C8  UNL     1      -6.883   1.116 -24.278  0.00  0.00    +0.190 A 
ATOM     13  C9  UNL     1      -7.236  -0.155 -24.697  0.00  0.00    -0.011 A 
ATOM     14  C10 UNL     1      -6.537  -1.071 -23.868  0.00  0.00    -0.015 A 
ATOM     15  C11 UNL     1      -5.792  -0.321 -22.983  0.00  0.00    +0.136 A 
ATOM     16  C12 UNL     1      -4.872  -0.633 -21.890  0.00  0.00    +0.019 A 
ATOM     17  C13 UNL     1      -4.249   0.387 -21.151  0.00  0.00    -0.051 A 
ATOM     18  C14 UNL     1      -3.370   0.087 -20.106  0.00  0.00    -0.060 A 
ATOM     19  C15 UNL     1      -3.099  -1.240 -19.785  0.00  0.00    -0.043 A 
ATOM     20  C16 UNL     1      -3.710  -2.260 -20.511  0.00  0.00    +0.042 A 
ATOM     21 CL3  UNL     1      -3.378  -3.902 -20.117  0.00  0.00    -0.084 Cl
ATOM     22  C17 UNL     1      -4.589  -1.965 -21.555  0.00  0.00    -0.033 A 
ATOM     23  O2  UNL     1      -6.003   1.004 -23.234  0.00  0.00    -0.450 OA
ATOM     24  H   UNL     1      -8.426   1.615 -26.112  0.00  0.00    +0.000 HD
ENDROOT
TORSDOF 0
ENDMDL
MODEL 5
REMARK VINA RESULT:    -6.463      7.079     10.527
REMARK INTER + INTRA:          -6.463
REMARK INTER:                  -6.463
REMARK INTRA:                   0.000
REMARK UNBOUND:                 0.000
REMARK  Name = /home/vital/Documents/PhD_2021/Malaria_codes/scripts/../data/pdbqt_ligands/ligand_268_temp.pdb
REMARK                            x       y       z     vdW  Elec       q    Type
REMARK                         _______ _______ _______ _____ _____    ______ ____
ROOT
ATOM      1  O1  UNL     1       4.315  -5.273 -27.306  0.00  0.00    -0.266 OA
ATOM      2  C1  UNL     1       3.444  -5.269 -26.442  0.00  0.00    +0.284 C 
ATOM      3  N1  UNL     1       3.658  -4.868 -25.132  0.00  0.00    -0.278 N 
ATOM      4  C2  UNL     1       4.857  -4.404 -24.535  0.00  0.00    +0.054 A 
ATOM      5  C3  UNL     1       6.067  -4.276 -25.223  0.00  0.00    -0.021 A 
ATOM      6  C4  UNL     1       7.207  -3.808 -24.562  0.00  0.00    +0.043 A 
ATOM      7 CL1  UNL     1       8.692  -3.655 -25.420  0.00  0.00    -0.083 Cl
ATOM      8  C5  UNL     1       7.160  -3.465 -23.211  0.00  0.00    -0.042 A 
ATOM      9  C6  UNL     1       5.962  -3.587 -22.511  0.00  0.00    -0.040 A 
ATOM     10  C7  UNL     1       4.821  -4.053 -23.169  0.00  0.00    +0.062 A 
ATOM     11 CL2  UNL     1       3.355  -4.188 -22.256  0.00  0.00    -0.082 Cl
ATOM     12  C8  UNL     1       2.076  -5.692 -26.718  0.00  0.00    +0.190 A 
ATOM     13  C9  UNL     1       0.926  -5.785 -25.952  0.00  0.00    -0.011 A 
ATOM     14  C10 UNL     1      -0.098  -6.273 -26.805  0.00  0.00    -0.015 A 
ATOM     15  C11 UNL     1       0.471  -6.455 -28.048  0.00  0.00    +0.136 A 
ATOM     16  C12 UNL     1      -0.019  -6.922 -29.345  0.00  0.00    +0.019 A 
ATOM     17  C13 UNL     1       0.833  -6.997 -30.459  0.00  0.00    -0.051 A 
ATOM     18  C14 UNL     1       0.364  -7.444 -31.698  0.00  0.00    -0.060 A 
ATOM     19  C15 UNL     1      -0.968  -7.823 -31.841  0.00  0.00    -0.043 A 
ATOM     20  C16 UNL     1      -1.822  -7.753 -30.743  0.00  0.00    +0.042 A 
ATOM     21 CL3  UNL     1      -3.470  -8.220 -30.916  0.00  0.00    -0.084 Cl
ATOM     22  C17 UNL     1      -1.359  -7.307 -29.505  0.00  0.00    -0.033 A 
ATOM     23  O2  UNL     1       1.788  -6.102 -27.993  0.00  0.00    -0.450 OA
ATOM     24  H   UNL     1       2.874  -4.912 -24.539  0.00  0.00    +0.000 HD
ENDROOT
TORSDOF 0
ENDMDL
MODEL 6
REMARK VINA RESULT:    -6.457     13.914     16.151
REMARK INTER + INTRA:          -6.457
REMARK INTER:                  -6.457
REMARK INTRA:                   0.000
REMARK UNBOUND:                 0.000
REMARK  Name = /home/vital/Documents/PhD_2021/Malaria_codes/scripts/../data/pdbqt_ligands/ligand_268_temp.pdb
REMARK                            x       y       z     vdW  Elec       q    Type
REMARK                         _______ _______ _______ _____ _____    ______ ____
ROOT
ATOM      1  O1  UNL     1      -1.585   0.595 -19.280  0.00  0.00    -0.266 OA
ATOM      2  C1  UNL     1      -2.110   1.448 -19.989  0.00  0.00    +0.284 C 
ATOM      3  N1  UNL     1      -3.094   1.173 -20.927  0.00  0.00    -0.278 N 
ATOM      4  C2  UNL     1      -3.675  -0.077 -21.257  0.00  0.00    +0.054 A 
ATOM      5  C3  UNL     1      -3.319  -1.284 -20.646  0.00  0.00    -0.021 A 
ATOM      6  C4  UNL     1      -3.941  -2.476 -21.027  0.00  0.00    +0.043 A 
ATOM      7 CL1  UNL     1      -3.493  -3.956 -20.269  0.00  0.00    -0.083 Cl
ATOM      8  C5  UNL     1      -4.921  -2.487 -22.018  0.00  0.00    -0.042 A 
ATOM      9  C6  UNL     1      -5.287  -1.293 -22.636  0.00  0.00    -0.040 A 
ATOM     10  C7  UNL     1      -4.669  -0.099 -22.257  0.00  0.00    +0.062 A 
ATOM     11 CL2  UNL     1      -5.158   1.359 -23.055  0.00  0.00    -0.082 Cl
ATOM     12  C8  UNL     1      -1.743   2.857 -19.909  0.00  0.00    +0.190 A 
ATOM     13  C9  UNL     1      -2.162   3.998 -20.571  0.00  0.00    -0.011 A 
ATOM     14  C10 UNL     1      -1.415   5.081 -20.039  0.00  0.00    -0.015 A 
ATOM     15  C11 UNL     1      -0.576   4.554 -19.080  0.00  0.00    +0.136 A 
ATOM     16  C12 UNL     1       0.431   5.109 -18.177  0.00  0.00    +0.019 A 
ATOM     17  C13 UNL     1       1.142   4.288 -17.286  0.00  0.00    -0.051 A 
ATOM     18  C14 UNL     1       2.104   4.820 -16.423  0.00  0.00    -0.060 A 
ATOM     19  C15 UNL     1       2.370   6.186 -16.437  0.00  0.00    -0.043 A 
ATOM     20  C16 UNL     1       1.672   7.012 -17.315  0.00  0.00    +0.042 A 
ATOM     21 CL3  UNL     1       1.998   8.702 -17.335  0.00  0.00    -0.084 Cl
ATOM     22  C17 UNL     1       0.710   6.484 -18.179  0.00  0.00    -0.033 A 
ATOM     23  O2  UNL     1      -0.777   3.206 -19.003  0.00  0.00    -0.450 OA
ATOM     24  H   UNL     1      -3.433   1.948 -21.430  0.00  0.00    +0.000 HD
ENDROOT
TORSDOF 0
ENDMDL
MODEL 7
REMARK VINA RESULT:    -6.438      6.485      9.705
REMARK INTER + INTRA:          -6.438
REMARK INTER:                  -6.438
REMARK INTRA:                   0.000
REMARK UNBOUND:                 0.000
REMARK  Name = /home/vital/Documents/PhD_2021/Malaria_codes/scripts/../data/pdbqt_ligands/ligand_268_temp.pdb
REMARK                            x       y       z     vdW  Elec       q    Type
REMARK                         _______ _______ _______ _____ _____    ______ ____
ROOT
ATOM      1  O1  UNL     1       4.184  -4.831 -27.841  0.00  0.00    -0.266 OA
ATOM      2  C1  UNL     1       4.779  -3.905 -28.384  0.00  0.00    +0.284 C 
ATOM      3  N1  UNL     1       5.771  -3.158 -27.768  0.00  0.00    -0.278 N 
ATOM      4  C2  UNL     1       6.287  -3.287 -26.454  0.00  0.00    +0.054 A 
ATOM      5  C3  UNL     1       5.842  -4.244 -25.537  0.00  0.00    -0.021 A 
ATOM      6  C4  UNL     1       6.403  -4.307 -24.258  0.00  0.00    +0.043 A 
ATOM      7 CL1  UNL     1       5.847  -5.490 -23.137  0.00  0.00    -0.083 Cl
ATOM      8  C5  UNL     1       7.410  -3.422 -23.874  0.00  0.00    -0.042 A 
ATOM      9  C6  UNL     1       7.863  -2.463 -24.775  0.00  0.00    -0.040 A 
ATOM     10  C7  UNL     1       7.306  -2.397 -26.055  0.00  0.00    +0.062 A 
ATOM     11 CL2  UNL     1       7.903  -1.186 -27.140  0.00  0.00    -0.082 Cl
ATOM     12  C8  UNL     1       4.494  -3.498 -29.755  0.00  0.00    +0.190 A 
ATOM     13  C9  UNL     1       4.999  -2.518 -30.591  0.00  0.00    -0.011 A 
ATOM     14  C10 UNL     1       4.302  -2.627 -31.823  0.00  0.00    -0.015 A 
ATOM     15  C11 UNL     1       3.406  -3.665 -31.683  0.00  0.00    +0.136 A 
ATOM     16  C12 UNL     1       2.408  -4.287 -32.554  0.00  0.00    +0.019 A 
ATOM     17  C13 UNL     1       1.625  -5.365 -32.108  0.00  0.00    -0.051 A 
ATOM     18  C14 UNL     1       0.671  -5.957 -32.940  0.00  0.00    -0.060 A 
ATOM     19  C15 UNL     1       0.487  -5.481 -34.236  0.00  0.00    -0.043 A 
ATOM     20  C16 UNL     1       1.258  -4.413 -34.689  0.00  0.00    +0.042 A 
ATOM     21 CL3  UNL     1       1.034  -3.821 -36.290  0.00  0.00    -0.084 Cl
ATOM     22  C17 UNL     1       2.211  -3.818 -33.861  0.00  0.00    -0.033 A 
ATOM     23  O2  UNL     1       3.524  -4.192 -30.430  0.00  0.00    -0.450 OA
ATOM     24  H   UNL     1       6.170  -2.444 -28.316  0.00  0.00    +0.000 HD
ENDROOT
TORSDOF 0
ENDMDL
MODEL 8
REMARK VINA RESULT:    -6.142     21.189     23.956
REMARK INTER + INTRA:          -6.142
REMARK INTER:                  -6.142
REMARK INTRA:                   0.000
REMARK UNBOUND:                 0.000
REMARK  Name = /home/vital/Documents/PhD_2021/Malaria_codes/scripts/../data/pdbqt_ligands/ligand_268_temp.pdb
REMARK                            x       y       z     vdW  Elec       q    Type
REMARK                         _______ _______ _______ _____ _____    ______ ____
ROOT
ATOM      1  O1  UNL     1      -9.167  -8.961 -30.320  0.00  0.00    -0.266 OA
ATOM      2  C1  UNL     1      -9.792  -9.250 -31.336  0.00  0.00    +0.284 C 
ATOM      3  N1  UNL     1     -10.126 -10.548 -31.694  0.00  0.00    -0.278 N 
ATOM      4  C2  UNL     1      -9.837 -11.754 -31.010  0.00  0.00    +0.054 A 
ATOM      5  C3  UNL     1      -9.132 -11.813 -29.803  0.00  0.00    -0.021 A 
ATOM      6  C4  UNL     1      -8.887 -13.045 -29.189  0.00  0.00    +0.043 A 
ATOM      7 CL1  UNL     1      -8.017 -13.104 -27.705  0.00  0.00    -0.083 Cl
ATOM      8  C5  UNL     1      -9.338 -14.233 -29.764  0.00  0.00    -0.042 A 
ATOM      9  C6  UNL     1     -10.042 -14.192 -30.966  0.00  0.00    -0.040 A 
ATOM     10  C7  UNL     1     -10.288 -12.962 -31.581  0.00  0.00    +0.062 A 
ATOM     11 CL2  UNL     1     -11.168 -12.963 -33.074  0.00  0.00    -0.082 Cl
ATOM     12  C8  UNL     1     -10.252  -8.237 -32.279  0.00  0.00    +0.190 A 
ATOM     13  C9  UNL     1     -10.957  -8.282 -33.469  0.00  0.00    -0.011 A 
ATOM     14  C10 UNL     1     -11.095  -6.942 -33.917  0.00  0.00    -0.015 A 
ATOM     15  C11 UNL     1     -10.469  -6.143 -32.984  0.00  0.00    +0.136 A 
ATOM     16  C12 UNL     1     -10.250  -4.704 -32.843  0.00  0.00    +0.019 A 
ATOM     17  C13 UNL     1      -9.553  -4.178 -31.743  0.00  0.00    -0.051 A 
ATOM     18  C14 UNL     1      -9.344  -2.803 -31.610  0.00  0.00    -0.060 A 
ATOM     19  C15 UNL     1      -9.832  -1.929 -32.578  0.00  0.00    -0.043 A 
ATOM     20  C16 UNL     1     -10.525  -2.438 -33.673  0.00  0.00    +0.042 A 
ATOM     21 CL3  UNL     1     -11.130  -1.361 -34.872  0.00  0.00    -0.084 Cl
ATOM     22  C17 UNL     1     -10.736  -3.811 -33.810  0.00  0.00    -0.033 A 
ATOM     23  O2  UNL     1      -9.960  -6.930 -31.991  0.00  0.00    -0.450 OA
ATOM     24  H   UNL     1     -10.631 -10.642 -32.533  0.00  0.00    +0.000 HD
ENDROOT
TORSDOF 0
ENDMDL
MODEL 9
REMARK VINA RESULT:    -5.997      7.393     12.160
REMARK INTER + INTRA:          -5.997
REMARK INTER:                  -5.997
REMARK INTRA:                   0.000
REMARK UNBOUND:                 0.000
REMARK  Name = /home/vital/Documents/PhD_2021/Malaria_codes/scripts/../data/pdbqt_ligands/ligand_268_temp.pdb
REMARK                            x       y       z     vdW  Elec       q    Type
REMARK                         _______ _______ _______ _____ _____    ______ ____
ROOT
ATOM      1  O1  UNL     1       1.627  -1.015 -21.164  0.00  0.00    -0.266 OA
ATOM      2  C1  UNL     1       1.562  -2.108 -21.717  0.00  0.00    +0.284 C 
ATOM      3  N1  UNL     1       0.397  -2.854 -21.819  0.00  0.00    -0.278 N 
ATOM      4  C2  UNL     1      -0.897  -2.540 -21.336  0.00  0.00    +0.054 A 
ATOM      5  C3  UNL     1      -1.204  -1.362 -20.647  0.00  0.00    -0.021 A 
ATOM      6  C4  UNL     1      -2.509  -1.125 -20.203  0.00  0.00    +0.043 A 
ATOM      7 CL1  UNL     1      -2.873   0.328 -19.355  0.00  0.00    -0.083 Cl
ATOM      8  C5  UNL     1      -3.523  -2.053 -20.436  0.00  0.00    -0.042 A 
ATOM      9  C6  UNL     1      -3.234  -3.231 -21.120  0.00  0.00    -0.040 A 
ATOM     10  C7  UNL     1      -1.932  -3.471 -21.566  0.00  0.00    +0.062 A 
ATOM     11 CL2  UNL     1      -1.622  -4.951 -22.413  0.00  0.00    -0.082 Cl
ATOM     12  C8  UNL     1       2.725  -2.737 -22.332  0.00  0.00    +0.190 A 
ATOM     13  C9  UNL     1       2.930  -3.930 -23.003  0.00  0.00    -0.011 A 
ATOM     14  C10 UNL     1       4.302  -3.971 -23.363  0.00  0.00    -0.015 A 
ATOM     15  C11 UNL     1       4.871  -2.805 -22.896  0.00  0.00    +0.136 A 
ATOM     16  C12 UNL     1       6.217  -2.232 -22.929  0.00  0.00    +0.019 A 
ATOM     17  C13 UNL     1       6.490  -0.983 -22.347  0.00  0.00    -0.051 A 
ATOM     18  C14 UNL     1       7.775  -0.436 -22.378  0.00  0.00    -0.060 A 
ATOM     19  C15 UNL     1       8.811  -1.132 -22.996  0.00  0.00    -0.043 A 
ATOM     20  C16 UNL     1       8.553  -2.371 -23.578  0.00  0.00    +0.042 A 
ATOM     21 CL3  UNL     1       9.831  -3.235 -24.343  0.00  0.00    -0.084 Cl
ATOM     22  C17 UNL     1       7.270  -2.921 -23.548  0.00  0.00    -0.033 A 
ATOM     23  O2  UNL     1       3.914  -2.059 -22.272  0.00  0.00    -0.450 OA
ATOM     24  H   UNL     1       0.481  -3.715 -22.289  0.00  0.00    +0.000 HD
ENDROOT
TORSDOF 0
ENDMDL
