MODEL 1
REMARK VINA RESULT:    -5.342      0.000      0.000
REMARK INTER + INTRA:          -5.342
REMARK INTER:                  -5.342
REMARK INTRA:                   0.000
REMARK UNBOUND:                 0.000
REMARK  Name = /home/vital/Documents/PhD_2021/Malaria_codes/scripts/../data/pdbqt_ligands/ligand_244_temp.pdb
REMARK                            x       y       z     vdW  Elec       q    Type
REMARK                         _______ _______ _______ _____ _____    ______ ____
ROOT
ATOM      1 CL1  UNL     1       5.794  -5.226 -23.053  0.00  0.00    -0.121 Cl
ATOM      2  C1  UNL     1       6.392  -4.317 -24.457  0.00  0.00    +0.041 C 
ATOM      3  C2  UNL     1       6.670  -5.262 -25.582  0.00  0.00    -0.070 C 
ATOM      4  C3  UNL     1       6.064  -5.344 -26.778  0.00  0.00    -0.063 C 
ATOM      5  C4  UNL     1       4.959  -4.538 -27.243  0.00  0.00    -0.048 C 
ATOM      6  C5  UNL     1       4.440  -4.667 -28.472  0.00  0.00    -0.005 C 
ATOM      7  N1  UNL     1       3.391  -3.958 -29.005  0.00  0.00    -0.312 N 
ATOM      8  C6  UNL     1       2.866  -4.072 -30.267  0.00  0.00    +0.086 C 
ATOM      9  N2  UNL     1       3.255  -4.874 -31.203  0.00  0.00    -0.239 NA
ATOM     10  C7  UNL     1       2.552  -4.796 -32.421  0.00  0.00    +0.084 A 
ATOM     11  C8  UNL     1       1.650  -5.824 -32.723  0.00  0.00    -0.035 A 
ATOM     12  C9  UNL     1       0.932  -5.821 -33.922  0.00  0.00    -0.060 A 
ATOM     13  C10 UNL     1       1.117  -4.790 -34.841  0.00  0.00    -0.060 A 
ATOM     14  C11 UNL     1       2.023  -3.765 -34.564  0.00  0.00    -0.041 A 
ATOM     15  C12 UNL     1       2.741  -3.769 -33.364  0.00  0.00    +0.066 A 
ATOM     16 CL2  UNL     1       3.856  -2.478 -33.083  0.00  0.00    -0.081 Cl
ATOM     17  H   UNL     1       2.968  -3.294 -28.415  0.00  0.00    +0.000 HD
ENDROOT
TORSDOF 0
ENDMDL
MODEL 2
REMARK VINA RESULT:    -5.217      2.077      2.479
REMARK INTER + INTRA:          -5.217
REMARK INTER:                  -5.217
REMARK INTRA:                   0.000
REMARK UNBOUND:                 0.000
REMARK  Name = /home/vital/Documents/PhD_2021/Malaria_codes/scripts/../data/pdbqt_ligands/ligand_244_temp.pdb
REMARK                            x       y       z     vdW  Elec       q    Type
REMARK                         _______ _______ _______ _____ _____    ______ ____
ROOT
ATOM      1 CL1  UNL     1       8.729  -2.932 -25.494  0.00  0.00    -0.121 Cl
ATOM      2  C1  UNL     1       7.913  -4.338 -26.209  0.00  0.00    +0.041 C 
ATOM      3  C2  UNL     1       6.435  -4.117 -26.197  0.00  0.00    -0.070 C 
ATOM      4  C3  UNL     1       5.597  -3.984 -27.238  0.00  0.00    -0.063 C 
ATOM      5  C4  UNL     1       5.952  -3.994 -28.639  0.00  0.00    -0.048 C 
ATOM      6  C5  UNL     1       5.040  -3.891 -29.615  0.00  0.00    -0.005 C 
ATOM      7  N1  UNL     1       5.274  -3.883 -30.968  0.00  0.00    -0.312 N 
ATOM      8  C6  UNL     1       4.344  -3.796 -31.972  0.00  0.00    +0.086 C 
ATOM      9  N2  UNL     1       3.062  -3.701 -31.841  0.00  0.00    -0.239 NA
ATOM     10  C7  UNL     1       2.318  -3.629 -33.035  0.00  0.00    +0.084 A 
ATOM     11  C8  UNL     1       1.783  -2.387 -33.400  0.00  0.00    -0.035 A 
ATOM     12  C9  UNL     1       1.019  -2.246 -34.561  0.00  0.00    -0.060 A 
ATOM     13  C10 UNL     1       0.772  -3.354 -35.369  0.00  0.00    -0.060 A 
ATOM     14  C11 UNL     1       1.283  -4.603 -35.014  0.00  0.00    -0.041 A 
ATOM     15  C12 UNL     1       2.048  -4.742 -33.851  0.00  0.00    +0.066 A 
ATOM     16 CL2  UNL     1       2.645  -6.317 -33.458  0.00  0.00    -0.081 Cl
ATOM     17  H   UNL     1       6.215  -3.947 -31.248  0.00  0.00    +0.000 HD
ENDROOT
TORSDOF 0
ENDMDL
MODEL 3
REMARK VINA RESULT:    -5.215      9.446     10.473
REMARK INTER + INTRA:          -5.215
REMARK INTER:                  -5.215
REMARK INTRA:                   0.000
REMARK UNBOUND:                 0.000
REMARK  Name = /home/vital/Documents/PhD_2021/Malaria_codes/scripts/../data/pdbqt_ligands/ligand_244_temp.pdb
REMARK                            x       y       z     vdW  Elec       q    Type
REMARK                         _______ _______ _______ _____ _____    ______ ____
ROOT
ATOM      1 CL1  UNL     1       6.238  -2.683 -20.097  0.00  0.00    -0.121 Cl
ATOM      2  C1  UNL     1       5.194  -3.757 -21.053  0.00  0.00    +0.041 C 
ATOM      3  C2  UNL     1       4.069  -4.248 -20.201  0.00  0.00    -0.070 C 
ATOM      4  C3  UNL     1       2.753  -4.011 -20.330  0.00  0.00    -0.063 C 
ATOM      5  C4  UNL     1       2.119  -3.181 -21.328  0.00  0.00    -0.048 C 
ATOM      6  C5  UNL     1       0.790  -3.032 -21.403  0.00  0.00    -0.005 C 
ATOM      7  N1  UNL     1       0.093  -2.265 -22.304  0.00  0.00    -0.312 N 
ATOM      8  C6  UNL     1      -1.267  -2.121 -22.398  0.00  0.00    +0.086 C 
ATOM      9  N2  UNL     1      -2.163  -2.678 -21.651  0.00  0.00    -0.239 NA
ATOM     10  C7  UNL     1      -3.504  -2.372 -21.954  0.00  0.00    +0.084 A 
ATOM     11  C8  UNL     1      -4.184  -1.493 -21.101  0.00  0.00    -0.035 A 
ATOM     12  C9  UNL     1      -5.521  -1.159 -21.331  0.00  0.00    -0.060 A 
ATOM     13  C10 UNL     1      -6.200  -1.712 -22.415  0.00  0.00    -0.060 A 
ATOM     14  C11 UNL     1      -5.544  -2.601 -23.266  0.00  0.00    -0.041 A 
ATOM     15  C12 UNL     1      -4.205  -2.935 -23.036  0.00  0.00    +0.066 A 
ATOM     16 CL2  UNL     1      -3.450  -4.050 -24.120  0.00  0.00    -0.081 Cl
ATOM     17  H   UNL     1       0.631  -1.761 -22.957  0.00  0.00    +0.000 HD
ENDROOT
TORSDOF 0
ENDMDL
MODEL 4
REMARK VINA RESULT:    -5.208     12.909     14.107
REMARK INTER + INTRA:          -5.208
REMARK INTER:                  -5.208
REMARK INTRA:                   0.000
REMARK UNBOUND:                 0.000
REMARK  Name = /home/vital/Documents/PhD_2021/Malaria_codes/scripts/../data/pdbqt_ligands/ligand_244_temp.pdb
REMARK                            x       y       z     vdW  Elec       q    Type
REMARK                         _______ _______ _______ _____ _____    ______ ____
ROOT
ATOM      1 CL1  UNL     1       1.874   7.881 -19.299  0.00  0.00    -0.121 Cl
ATOM      2  C1  UNL     1       1.154   6.605 -18.295  0.00  0.00    +0.041 C 
ATOM      3  C2  UNL     1      -0.336   6.670 -18.398  0.00  0.00    -0.070 C 
ATOM      4  C3  UNL     1      -1.182   5.765 -18.918  0.00  0.00    -0.063 C 
ATOM      5  C4  UNL     1      -0.828   4.509 -19.538  0.00  0.00    -0.048 C 
ATOM      6  C5  UNL     1      -1.746   3.648 -19.998  0.00  0.00    -0.005 C 
ATOM      7  N1  UNL     1      -1.514   2.439 -20.607  0.00  0.00    -0.312 N 
ATOM      8  C6  UNL     1      -2.448   1.545 -21.065  0.00  0.00    +0.086 C 
ATOM      9  N2  UNL     1      -3.734   1.668 -21.015  0.00  0.00    -0.239 NA
ATOM     10  C7  UNL     1      -4.482   0.602 -21.552  0.00  0.00    +0.084 A 
ATOM     11  C8  UNL     1      -5.100   0.796 -22.794  0.00  0.00    -0.035 A 
ATOM     12  C9  UNL     1      -5.872  -0.211 -23.377  0.00  0.00    -0.060 A 
ATOM     13  C10 UNL     1      -6.045  -1.426 -22.717  0.00  0.00    -0.060 A 
ATOM     14  C11 UNL     1      -5.450  -1.632 -21.472  0.00  0.00    -0.041 A 
ATOM     15  C12 UNL     1      -4.677  -0.622 -20.889  0.00  0.00    +0.066 A 
ATOM     16 CL2  UNL     1      -3.975  -0.933 -19.340  0.00  0.00    -0.081 Cl
ATOM     17  H   UNL     1      -0.571   2.186 -20.729  0.00  0.00    +0.000 HD
ENDROOT
TORSDOF 0
ENDMDL
MODEL 5
REMARK VINA RESULT:    -5.191      2.644      8.789
REMARK INTER + INTRA:          -5.191
REMARK INTER:                  -5.191
REMARK INTRA:                   0.000
REMARK UNBOUND:                 0.000
REMARK  Name = /home/vital/Documents/PhD_2021/Malaria_codes/scripts/../data/pdbqt_ligands/ligand_244_temp.pdb
REMARK                            x       y       z     vdW  Elec       q    Type
REMARK                         _______ _______ _______ _____ _____    ______ ____
ROOT
ATOM      1 CL1  UNL     1       1.627  -3.135 -34.462  0.00  0.00    -0.121 Cl
ATOM      2  C1  UNL     1       2.247  -4.423 -33.407  0.00  0.00    +0.041 C 
ATOM      3  C2  UNL     1       3.741  -4.377 -33.387  0.00  0.00    -0.070 C 
ATOM      4  C3  UNL     1       4.558  -4.104 -32.357  0.00  0.00    -0.063 C 
ATOM      5  C4  UNL     1       4.165  -3.756 -31.011  0.00  0.00    -0.048 C 
ATOM      6  C5  UNL     1       5.054  -3.535 -30.034  0.00  0.00    -0.005 C 
ATOM      7  N1  UNL     1       4.785  -3.192 -28.732  0.00  0.00    -0.312 N 
ATOM      8  C6  UNL     1       5.689  -2.983 -27.722  0.00  0.00    +0.086 C 
ATOM      9  N2  UNL     1       6.976  -3.063 -27.800  0.00  0.00    -0.239 NA
ATOM     10  C7  UNL     1       7.690  -2.804 -26.613  0.00  0.00    +0.084 A 
ATOM     11  C8  UNL     1       8.360  -1.579 -26.506  0.00  0.00    -0.035 A 
ATOM     12  C9  UNL     1       9.101  -1.264 -25.365  0.00  0.00    -0.060 A 
ATOM     13  C10 UNL     1       9.190  -2.178 -24.318  0.00  0.00    -0.060 A 
ATOM     14  C11 UNL     1       8.542  -3.410 -24.413  0.00  0.00    -0.041 A 
ATOM     15  C12 UNL     1       7.800  -3.725 -25.556  0.00  0.00    +0.066 A 
ATOM     16 CL2  UNL     1       7.028  -5.271 -25.620  0.00  0.00    -0.081 Cl
ATOM     17  H   UNL     1       3.835  -3.085 -28.496  0.00  0.00    +0.000 HD
ENDROOT
TORSDOF 0
ENDMDL
MODEL 6
REMARK VINA RESULT:    -5.176     11.678     13.889
REMARK INTER + INTRA:          -5.176
REMARK INTER:                  -5.176
REMARK INTRA:                   0.000
REMARK UNBOUND:                 0.000
REMARK  Name = /home/vital/Documents/PhD_2021/Malaria_codes/scripts/../data/pdbqt_ligands/ligand_244_temp.pdb
REMARK                            x       y       z     vdW  Elec       q    Type
REMARK                         _______ _______ _______ _____ _____    ______ ____
ROOT
ATOM      1 CL1  UNL     1       2.133   7.749 -18.517  0.00  0.00    -0.121 Cl
ATOM      2  C1  UNL     1       0.934   6.799 -17.614  0.00  0.00    +0.041 C 
ATOM      3  C2  UNL     1      -0.278   6.589 -18.462  0.00  0.00    -0.070 C 
ATOM      4  C3  UNL     1      -0.772   5.439 -18.951  0.00  0.00    -0.063 C 
ATOM      5  C4  UNL     1      -0.208   4.119 -18.787  0.00  0.00    -0.048 C 
ATOM      6  C5  UNL     1      -0.792   3.019 -19.282  0.00  0.00    -0.005 C 
ATOM      7  N1  UNL     1      -0.335   1.727 -19.188  0.00  0.00    -0.312 N 
ATOM      8  C6  UNL     1      -0.936   0.595 -19.676  0.00  0.00    +0.086 C 
ATOM      9  N2  UNL     1      -2.051   0.523 -20.325  0.00  0.00    -0.239 NA
ATOM     10  C7  UNL     1      -2.461  -0.766 -20.718  0.00  0.00    +0.084 A 
ATOM     11  C8  UNL     1      -2.330  -1.111 -22.069  0.00  0.00    -0.035 A 
ATOM     12  C9  UNL     1      -2.733  -2.366 -22.532  0.00  0.00    -0.060 A 
ATOM     13  C10 UNL     1      -3.283  -3.291 -21.647  0.00  0.00    -0.060 A 
ATOM     14  C11 UNL     1      -3.436  -2.959 -20.300  0.00  0.00    -0.041 A 
ATOM     15  C12 UNL     1      -3.032  -1.702 -19.837  0.00  0.00    +0.066 A 
ATOM     16 CL2  UNL     1      -3.256  -1.347 -18.160  0.00  0.00    -0.081 Cl
ATOM     17  H   UNL     1       0.520   1.599 -18.717  0.00  0.00    +0.000 HD
ENDROOT
TORSDOF 0
ENDMDL
MODEL 7
REMARK VINA RESULT:    -5.143      4.701      5.978
REMARK INTER + INTRA:          -5.143
REMARK INTER:                  -5.143
REMARK INTRA:                   0.000
REMARK UNBOUND:                 0.000
REMARK  Name = /home/vital/Documents/PhD_2021/Malaria_codes/scripts/../data/pdbqt_ligands/ligand_244_temp.pdb
REMARK                            x       y       z     vdW  Elec       q    Type
REMARK                         _______ _______ _______ _____ _____    ______ ____
ROOT
ATOM      1 CL1  UNL     1       7.100   0.711 -33.061  0.00  0.00    -0.121 Cl
ATOM      2  C1  UNL     1       6.011   0.127 -31.785  0.00  0.00    +0.041 C 
ATOM      3  C2  UNL     1       4.622   0.016 -32.326  0.00  0.00    -0.070 C 
ATOM      4  C3  UNL     1       3.873  -1.086 -32.496  0.00  0.00    -0.063 C 
ATOM      5  C4  UNL     1       4.266  -2.448 -32.216  0.00  0.00    -0.048 C 
ATOM      6  C5  UNL     1       3.435  -3.486 -32.383  0.00  0.00    -0.005 C 
ATOM      7  N1  UNL     1       3.712  -4.812 -32.153  0.00  0.00    -0.312 N 
ATOM      8  C6  UNL     1       2.862  -5.878 -32.304  0.00  0.00    +0.086 C 
ATOM      9  N2  UNL     1       1.632  -5.843 -32.698  0.00  0.00    -0.239 NA
ATOM     10  C7  UNL     1       0.965  -7.082 -32.767  0.00  0.00    +0.084 A 
ATOM     11  C8  UNL     1       0.740  -7.635 -34.034  0.00  0.00    -0.035 A 
ATOM     12  C9  UNL     1       0.070  -8.851 -34.179  0.00  0.00    -0.060 A 
ATOM     13  C10 UNL     1      -0.395  -9.528 -33.053  0.00  0.00    -0.060 A 
ATOM     14  C11 UNL     1      -0.194  -8.985 -31.783  0.00  0.00    -0.041 A 
ATOM     15  C12 UNL     1       0.478  -7.767 -31.640  0.00  0.00    +0.066 A 
ATOM     16 CL2  UNL     1       0.687  -7.141 -30.041  0.00  0.00    -0.081 Cl
ATOM     17  H   UNL     1       4.623  -5.021 -31.845  0.00  0.00    +0.000 HD
ENDROOT
TORSDOF 0
ENDMDL
MODEL 8
REMARK VINA RESULT:    -5.030     13.662     16.382
REMARK INTER + INTRA:          -5.030
REMARK INTER:                  -5.030
REMARK INTRA:                   0.000
REMARK UNBOUND:                 0.000
REMARK  Name = /home/vital/Documents/PhD_2021/Malaria_codes/scripts/../data/pdbqt_ligands/ligand_244_temp.pdb
REMARK                            x       y       z     vdW  Elec       q    Type
REMARK                         _______ _______ _______ _____ _____    ______ ____
ROOT
ATOM      1 CL1  UNL     1      -4.157  -0.761 -20.783  0.00  0.00    -0.121 Cl
ATOM      2  C1  UNL     1      -3.261  -0.275 -19.327  0.00  0.00    +0.041 C 
ATOM      3  C2  UNL     1      -1.817  -0.096 -19.667  0.00  0.00    -0.070 C 
ATOM      4  C3  UNL     1      -1.082   1.028 -19.641  0.00  0.00    -0.063 C 
ATOM      5  C4  UNL     1      -1.544   2.354 -19.301  0.00  0.00    -0.048 C 
ATOM      6  C5  UNL     1      -0.727   3.415 -19.266  0.00  0.00    -0.005 C 
ATOM      7  N1  UNL     1      -1.066   4.711 -18.964  0.00  0.00    -0.312 N 
ATOM      8  C6  UNL     1      -0.233   5.799 -18.909  0.00  0.00    +0.086 C 
ATOM      9  N2  UNL     1       1.040   5.817 -19.136  0.00  0.00    -0.239 NA
ATOM     10  C7  UNL     1       1.676   7.068 -19.010  0.00  0.00    +0.084 A 
ATOM     11  C8  UNL     1       2.052   7.732 -20.184  0.00  0.00    -0.035 A 
ATOM     12  C9  UNL     1       2.703   8.967 -20.134  0.00  0.00    -0.060 A 
ATOM     13  C10 UNL     1       2.997   9.549 -18.903  0.00  0.00    -0.060 A 
ATOM     14  C11 UNL     1       2.644   8.895 -17.722  0.00  0.00    -0.041 A 
ATOM     15  C12 UNL     1       1.992   7.658 -17.773  0.00  0.00    +0.066 A 
ATOM     16 CL2  UNL     1       1.590   6.892 -16.276  0.00  0.00    -0.081 Cl
ATOM     17  H   UNL     1      -2.015   4.878 -18.764  0.00  0.00    +0.000 HD
ENDROOT
TORSDOF 0
ENDMDL
