MODEL 1
REMARK VINA RESULT:    -6.232      0.000      0.000
REMARK INTER + INTRA:          -6.232
REMARK INTER:                  -6.232
REMARK INTRA:                   0.000
REMARK UNBOUND:                 0.000
REMARK  Name = /home/vital/Documents/PhD_2021/Malaria_codes/scripts/../data/pdbqt_ligands/ligand_50_temp.pdb
REMARK                            x       y       z     vdW  Elec       q    Type
REMARK                         _______ _______ _______ _____ _____    ______ ____
ROOT
ATOM      1  C1  UNL     1       4.911   3.036 -13.086  0.00  0.00    -0.062 C 
ATOM      2  C2  UNL     1       3.905   3.338 -14.184  0.00  0.00    -0.021 C 
ATOM      3  C3  UNL     1       3.456   4.794 -14.152  0.00  0.00    +0.093 C 
ATOM      4  O1  UNL     1       2.549   5.049 -15.241  0.00  0.00    -0.461 OA
ATOM      5  C4  UNL     1       1.238   4.789 -14.987  0.00  0.00    +0.343 C 
ATOM      6  O2  UNL     1       0.797   4.360 -13.933  0.00  0.00    -0.245 OA
ATOM      7  C5  UNL     1       0.392   5.096 -16.174  0.00  0.00    +0.104 A 
ATOM      8  C6  UNL     1      -0.986   4.933 -16.008  0.00  0.00    -0.002 A 
ATOM      9  C7  UNL     1      -1.862   5.183 -17.062  0.00  0.00    +0.126 A 
ATOM     10  O3  UNL     1      -3.183   4.953 -16.782  0.00  0.00    -0.506 OA
ATOM     11  C8  UNL     1      -1.407   5.633 -18.321  0.00  0.00    +0.027 A 
ATOM     12  C9  UNL     1      -2.269   5.946 -19.400  0.00  0.00    -0.050 A 
ATOM     13  C10 UNL     1      -1.773   6.377 -20.632  0.00  0.00    -0.061 A 
ATOM     14  C11 UNL     1      -0.404   6.511 -20.815  0.00  0.00    -0.061 A 
ATOM     15  C12 UNL     1       0.464   6.224 -19.762  0.00  0.00    -0.050 A 
ATOM     16  C13 UNL     1      -0.009   5.791 -18.504  0.00  0.00    +0.028 A 
ATOM     17  C14 UNL     1       0.874   5.517 -17.426  0.00  0.00    +0.139 A 
ATOM     18  O4  UNL     1       2.217   5.691 -17.676  0.00  0.00    -0.505 OA
ATOM     19  H   UNL     1      -3.437   4.655 -15.931  0.00  0.00    +0.000 HD
ATOM     20  H   UNL     1       2.845   5.525 -17.001  0.00  0.00    +0.000 HD
ENDROOT
TORSDOF 0
ENDMDL
MODEL 2
REMARK VINA RESULT:    -6.132     17.688     19.448
REMARK INTER + INTRA:          -6.132
REMARK INTER:                  -6.132
REMARK INTRA:                   0.000
REMARK UNBOUND:                 0.000
REMARK  Name = /home/vital/Documents/PhD_2021/Malaria_codes/scripts/../data/pdbqt_ligands/ligand_50_temp.pdb
REMARK                            x       y       z     vdW  Elec       q    Type
REMARK                         _______ _______ _______ _____ _____    ______ ____
ROOT
ATOM      1  C1  UNL     1       5.494  -1.057 -32.151  0.00  0.00    -0.062 C 
ATOM      2  C2  UNL     1       4.427  -2.138 -32.147  0.00  0.00    -0.021 C 
ATOM      3  C3  UNL     1       4.881  -3.376 -31.383  0.00  0.00    +0.093 C 
ATOM      4  O1  UNL     1       3.821  -4.350 -31.356  0.00  0.00    -0.461 OA
ATOM      5  C4  UNL     1       3.776  -5.198 -32.418  0.00  0.00    +0.343 C 
ATOM      6  O2  UNL     1       4.546  -5.183 -33.365  0.00  0.00    -0.245 OA
ATOM      7  C5  UNL     1       2.650  -6.166 -32.283  0.00  0.00    +0.104 A 
ATOM      8  C6  UNL     1       2.546  -7.135 -33.284  0.00  0.00    -0.002 A 
ATOM      9  C7  UNL     1       1.522  -8.078 -33.254  0.00  0.00    +0.126 A 
ATOM     10  O3  UNL     1       1.509  -8.951 -34.311  0.00  0.00    -0.506 OA
ATOM     11  C8  UNL     1       0.571  -8.115 -32.211  0.00  0.00    +0.027 A 
ATOM     12  C9  UNL     1      -0.455  -9.088 -32.119  0.00  0.00    -0.050 A 
ATOM     13  C10 UNL     1      -1.381  -9.079 -31.075  0.00  0.00    -0.061 A 
ATOM     14  C11 UNL     1      -1.304  -8.101 -30.094  0.00  0.00    -0.061 A 
ATOM     15  C12 UNL     1      -0.293  -7.142 -30.154  0.00  0.00    -0.050 A 
ATOM     16  C13 UNL     1       0.660  -7.129 -31.196  0.00  0.00    +0.028 A 
ATOM     17  C14 UNL     1       1.700  -6.164 -31.246  0.00  0.00    +0.139 A 
ATOM     18  O4  UNL     1       1.725  -5.237 -30.228  0.00  0.00    -0.505 OA
ATOM     19  H   UNL     1       2.162  -8.886 -34.979  0.00  0.00    +0.000 HD
ATOM     20  H   UNL     1       2.389  -4.577 -30.211  0.00  0.00    +0.000 HD
ENDROOT
TORSDOF 0
ENDMDL
MODEL 3
REMARK VINA RESULT:    -6.103     11.434     12.543
REMARK INTER + INTRA:          -6.103
REMARK INTER:                  -6.103
REMARK INTRA:                   0.000
REMARK UNBOUND:                 0.000
REMARK  Name = /home/vital/Documents/PhD_2021/Malaria_codes/scripts/../data/pdbqt_ligands/ligand_50_temp.pdb
REMARK                            x       y       z     vdW  Elec       q    Type
REMARK                         _______ _______ _______ _____ _____    ______ ____
ROOT
ATOM      1  C1  UNL     1       1.822  -2.231 -18.201  0.00  0.00    -0.062 C 
ATOM      2  C2  UNL     1       2.651  -2.392 -19.463  0.00  0.00    -0.021 C 
ATOM      3  C3  UNL     1       3.711  -3.476 -19.307  0.00  0.00    +0.093 C 
ATOM      4  O1  UNL     1       4.436  -3.634 -20.541  0.00  0.00    -0.461 OA
ATOM      5  C4  UNL     1       5.506  -2.812 -20.703  0.00  0.00    +0.343 C 
ATOM      6  O2  UNL     1       5.877  -1.971 -19.899  0.00  0.00    -0.245 OA
ATOM      7  C5  UNL     1       6.185  -3.066 -22.005  0.00  0.00    +0.104 A 
ATOM      8  C6  UNL     1       7.344  -2.326 -22.252  0.00  0.00    -0.002 A 
ATOM      9  C7  UNL     1       8.045  -2.482 -23.446  0.00  0.00    +0.126 A 
ATOM     10  O3  UNL     1       9.144  -1.675 -23.580  0.00  0.00    -0.506 OA
ATOM     11  C8  UNL     1       7.637  -3.402 -24.436  0.00  0.00    +0.027 A 
ATOM     12  C9  UNL     1       8.349  -3.625 -25.640  0.00  0.00    -0.050 A 
ATOM     13  C10 UNL     1       7.902  -4.537 -26.597  0.00  0.00    -0.061 A 
ATOM     14  C11 UNL     1       6.734  -5.253 -26.374  0.00  0.00    -0.061 A 
ATOM     15  C12 UNL     1       6.024  -5.062 -25.189  0.00  0.00    -0.050 A 
ATOM     16  C13 UNL     1       6.455  -4.150 -24.201  0.00  0.00    +0.028 A 
ATOM     17  C14 UNL     1       5.742  -3.970 -22.987  0.00  0.00    +0.139 A 
ATOM     18  O4  UNL     1       4.603  -4.728 -22.828  0.00  0.00    -0.505 OA
ATOM     19  H   UNL     1       9.374  -1.079 -22.895  0.00  0.00    +0.000 HD
ATOM     20  H   UNL     1       4.093  -4.650 -22.046  0.00  0.00    +0.000 HD
ENDROOT
TORSDOF 0
ENDMDL
MODEL 4
REMARK VINA RESULT:    -6.008     10.996     13.077
REMARK INTER + INTRA:          -6.008
REMARK INTER:                  -6.008
REMARK INTRA:                   0.000
REMARK UNBOUND:                 0.000
REMARK  Name = /home/vital/Documents/PhD_2021/Malaria_codes/scripts/../data/pdbqt_ligands/ligand_50_temp.pdb
REMARK                            x       y       z     vdW  Elec       q    Type
REMARK                         _______ _______ _______ _____ _____    ______ ____
ROOT
ATOM      1  C1  UNL     1      -3.260  -6.653 -28.706  0.00  0.00    -0.062 C 
ATOM      2  C2  UNL     1      -3.344  -5.691 -27.533  0.00  0.00    -0.021 C 
ATOM      3  C3  UNL     1      -4.231  -6.235 -26.420  0.00  0.00    +0.093 C 
ATOM      4  O1  UNL     1      -4.238  -5.321 -25.308  0.00  0.00    -0.461 OA
ATOM      5  C4  UNL     1      -5.167  -4.330 -25.369  0.00  0.00    +0.343 C 
ATOM      6  O2  UNL     1      -5.965  -4.166 -26.278  0.00  0.00    -0.245 OA
ATOM      7  C5  UNL     1      -5.091  -3.450 -24.168  0.00  0.00    +0.104 A 
ATOM      8  C6  UNL     1      -6.047  -2.434 -24.085  0.00  0.00    -0.002 A 
ATOM      9  C7  UNL     1      -6.052  -1.552 -23.007  0.00  0.00    +0.126 A 
ATOM     10  O3  UNL     1      -7.017  -0.581 -23.061  0.00  0.00    -0.506 OA
ATOM     11  C8  UNL     1      -5.123  -1.659 -21.950  0.00  0.00    +0.027 A 
ATOM     12  C9  UNL     1      -5.128  -0.813 -20.813  0.00  0.00    -0.050 A 
ATOM     13  C10 UNL     1      -4.181  -0.948 -19.796  0.00  0.00    -0.061 A 
ATOM     14  C11 UNL     1      -3.210  -1.934 -19.886  0.00  0.00    -0.061 A 
ATOM     15  C12 UNL     1      -3.194  -2.789 -20.987  0.00  0.00    -0.050 A 
ATOM     16  C13 UNL     1      -4.142  -2.679 -22.029  0.00  0.00    +0.028 A 
ATOM     17  C14 UNL     1      -4.137  -3.562 -23.141  0.00  0.00    +0.139 A 
ATOM     18  O4  UNL     1      -3.155  -4.527 -23.152  0.00  0.00    -0.505 OA
ATOM     19  H   UNL     1      -7.611  -0.550 -23.785  0.00  0.00    +0.000 HD
ATOM     20  H   UNL     1      -3.104  -5.137 -23.861  0.00  0.00    +0.000 HD
ENDROOT
TORSDOF 0
ENDMDL
MODEL 5
REMARK VINA RESULT:    -5.944      8.726      9.269
REMARK INTER + INTRA:          -5.944
REMARK INTER:                  -5.944
REMARK INTRA:                   0.000
REMARK UNBOUND:                 0.000
REMARK  Name = /home/vital/Documents/PhD_2021/Malaria_codes/scripts/../data/pdbqt_ligands/ligand_50_temp.pdb
REMARK                            x       y       z     vdW  Elec       q    Type
REMARK                         _______ _______ _______ _____ _____    ______ ____
ROOT
ATOM      1  C1  UNL     1       3.820  -4.243 -20.116  0.00  0.00    -0.062 C 
ATOM      2  C2  UNL     1       2.331  -4.028 -20.329  0.00  0.00    -0.021 C 
ATOM      3  C3  UNL     1       2.057  -2.813 -21.207  0.00  0.00    +0.093 C 
ATOM      4  O1  UNL     1       0.641  -2.679 -21.429  0.00  0.00    -0.461 OA
ATOM      5  C4  UNL     1      -0.037  -1.971 -20.486  0.00  0.00    +0.343 C 
ATOM      6  O2  UNL     1       0.460  -1.465 -19.492  0.00  0.00    -0.245 OA
ATOM      7  C5  UNL     1      -1.488  -1.889 -20.819  0.00  0.00    +0.104 A 
ATOM      8  C6  UNL     1      -2.276  -1.124 -19.955  0.00  0.00    -0.002 A 
ATOM      9  C7  UNL     1      -3.646  -0.994 -20.173  0.00  0.00    +0.126 A 
ATOM     10  O3  UNL     1      -4.311  -0.247 -19.237  0.00  0.00    -0.506 OA
ATOM     11  C8  UNL     1      -4.286  -1.598 -21.277  0.00  0.00    +0.027 A 
ATOM     12  C9  UNL     1      -5.666  -1.448 -21.561  0.00  0.00    -0.050 A 
ATOM     13  C10 UNL     1      -6.260  -2.074 -22.658  0.00  0.00    -0.061 A 
ATOM     14  C11 UNL     1      -5.490  -2.861 -23.502  0.00  0.00    -0.061 A 
ATOM     15  C12 UNL     1      -4.127  -3.010 -23.253  0.00  0.00    -0.050 A 
ATOM     16  C13 UNL     1      -3.498  -2.385 -22.153  0.00  0.00    +0.028 A 
ATOM     17  C14 UNL     1      -2.105  -2.523 -21.911  0.00  0.00    +0.139 A 
ATOM     18  O4  UNL     1      -1.403  -3.303 -22.802  0.00  0.00    -0.505 OA
ATOM     19  H   UNL     1      -3.842   0.133 -18.521  0.00  0.00    +0.000 HD
ATOM     20  H   UNL     1      -0.481  -3.428 -22.690  0.00  0.00    +0.000 HD
ENDROOT
TORSDOF 0
ENDMDL
MODEL 6
REMARK VINA RESULT:    -5.911      2.656      6.727
REMARK INTER + INTRA:          -5.911
REMARK INTER:                  -5.911
REMARK INTRA:                   0.000
REMARK UNBOUND:                 0.000
REMARK  Name = /home/vital/Documents/PhD_2021/Malaria_codes/scripts/../data/pdbqt_ligands/ligand_50_temp.pdb
REMARK                            x       y       z     vdW  Elec       q    Type
REMARK                         _______ _______ _______ _____ _____    ______ ____
ROOT
ATOM      1  C1  UNL     1      -3.250   7.974 -24.773  0.00  0.00    -0.062 C 
ATOM      2  C2  UNL     1      -2.764   7.723 -23.356  0.00  0.00    -0.021 C 
ATOM      3  C3  UNL     1      -2.309   6.281 -23.163  0.00  0.00    +0.093 C 
ATOM      4  O1  UNL     1      -1.805   6.102 -21.826  0.00  0.00    -0.461 OA
ATOM      5  C4  UNL     1      -2.735   5.783 -20.886  0.00  0.00    +0.343 C 
ATOM      6  O2  UNL     1      -3.931   5.651 -21.094  0.00  0.00    -0.245 OA
ATOM      7  C5  UNL     1      -2.105   5.613 -19.546  0.00  0.00    +0.104 A 
ATOM      8  C6  UNL     1      -2.954   5.215 -18.510  0.00  0.00    -0.002 A 
ATOM      9  C7  UNL     1      -2.464   5.040 -17.218  0.00  0.00    +0.126 A 
ATOM     10  O3  UNL     1      -3.404   4.683 -16.288  0.00  0.00    -0.506 OA
ATOM     11  C8  UNL     1      -1.100   5.228 -16.906  0.00  0.00    +0.027 A 
ATOM     12  C9  UNL     1      -0.554   5.011 -15.617  0.00  0.00    -0.050 A 
ATOM     13  C10 UNL     1       0.800   5.220 -15.350  0.00  0.00    -0.061 A 
ATOM     14  C11 UNL     1       1.644   5.646 -16.365  0.00  0.00    -0.061 A 
ATOM     15  C12 UNL     1       1.134   5.850 -17.646  0.00  0.00    -0.050 A 
ATOM     16  C13 UNL     1      -0.231   5.642 -17.947  0.00  0.00    +0.028 A 
ATOM     17  C14 UNL     1      -0.747   5.832 -19.256  0.00  0.00    +0.139 A 
ATOM     18  O4  UNL     1       0.154   6.237 -20.216  0.00  0.00    -0.505 OA
ATOM     19  H   UNL     1      -4.298   4.571 -16.544  0.00  0.00    +0.000 HD
ATOM     20  H   UNL     1      -0.131   6.378 -21.097  0.00  0.00    +0.000 HD
ENDROOT
TORSDOF 0
ENDMDL
MODEL 7
REMARK VINA RESULT:    -5.744     17.979     19.805
REMARK INTER + INTRA:          -5.744
REMARK INTER:                  -5.744
REMARK INTRA:                   0.000
REMARK UNBOUND:                 0.000
REMARK  Name = /home/vital/Documents/PhD_2021/Malaria_codes/scripts/../data/pdbqt_ligands/ligand_50_temp.pdb
REMARK                            x       y       z     vdW  Elec       q    Type
REMARK                         _______ _______ _______ _____ _____    ______ ____
ROOT
ATOM      1  C1  UNL     1      -3.715 -10.309 -33.140  0.00  0.00    -0.062 C 
ATOM      2  C2  UNL     1      -2.582  -9.308 -32.998  0.00  0.00    -0.021 C 
ATOM      3  C3  UNL     1      -1.384  -9.911 -32.275  0.00  0.00    +0.093 C 
ATOM      4  O1  UNL     1      -0.314  -8.949 -32.212  0.00  0.00    -0.461 OA
ATOM      5  C4  UNL     1      -0.348  -8.103 -31.149  0.00  0.00    +0.343 C 
ATOM      6  O2  UNL     1      -1.202  -8.101 -30.276  0.00  0.00    -0.245 OA
ATOM      7  C5  UNL     1       0.805  -7.159 -31.178  0.00  0.00    +0.104 A 
ATOM      8  C6  UNL     1       0.915  -6.284 -30.094  0.00  0.00    -0.002 A 
ATOM      9  C7  UNL     1       1.951  -5.356 -30.034  0.00  0.00    +0.126 A 
ATOM     10  O3  UNL     1       1.928  -4.534 -28.938  0.00  0.00    -0.506 OA
ATOM     11  C8  UNL     1       2.940  -5.275 -31.039  0.00  0.00    +0.027 A 
ATOM     12  C9  UNL     1       4.037  -4.380 -30.989  0.00  0.00    -0.050 A 
ATOM     13  C10 UNL     1       4.986  -4.326 -32.012  0.00  0.00    -0.061 A 
ATOM     14  C11 UNL     1       4.866  -5.170 -33.106  0.00  0.00    -0.061 A 
ATOM     15  C12 UNL     1       3.805  -6.071 -33.170  0.00  0.00    -0.050 A 
ATOM     16  C13 UNL     1       2.832  -6.150 -32.149  0.00  0.00    +0.028 A 
ATOM     17  C14 UNL     1       1.762  -7.082 -32.205  0.00  0.00    +0.139 A 
ATOM     18  O4  UNL     1       1.719  -7.898 -33.313  0.00  0.00    -0.505 OA
ATOM     19  H   UNL     1       1.250  -4.626 -28.299  0.00  0.00    +0.000 HD
ATOM     20  H   UNL     1       1.035  -8.532 -33.403  0.00  0.00    +0.000 HD
ENDROOT
TORSDOF 0
ENDMDL
MODEL 8
REMARK VINA RESULT:    -5.625     15.119     16.513
REMARK INTER + INTRA:          -5.625
REMARK INTER:                  -5.625
REMARK INTRA:                   0.000
REMARK UNBOUND:                 0.000
REMARK  Name = /home/vital/Documents/PhD_2021/Malaria_codes/scripts/../data/pdbqt_ligands/ligand_50_temp.pdb
REMARK                            x       y       z     vdW  Elec       q    Type
REMARK                         _______ _______ _______ _____ _____    ______ ____
ROOT
ATOM      1  C1  UNL     1       5.886  -4.541 -23.482  0.00  0.00    -0.062 C 
ATOM      2  C2  UNL     1       5.385  -4.250 -24.886  0.00  0.00    -0.021 C 
ATOM      3  C3  UNL     1       5.799  -5.338 -25.870  0.00  0.00    +0.093 C 
ATOM      4  O1  UNL     1       5.258  -5.051 -27.173  0.00  0.00    -0.461 OA
ATOM      5  C4  UNL     1       6.021  -4.249 -27.962  0.00  0.00    +0.343 C 
ATOM      6  O2  UNL     1       7.096  -3.765 -27.645  0.00  0.00    -0.245 OA
ATOM      7  C5  UNL     1       5.372  -4.026 -29.285  0.00  0.00    +0.104 A 
ATOM      8  C6  UNL     1       6.099  -3.271 -30.209  0.00  0.00    -0.002 A 
ATOM      9  C7  UNL     1       5.574  -2.997 -31.470  0.00  0.00    +0.126 A 
ATOM     10  O3  UNL     1       6.369  -2.218 -32.270  0.00  0.00    -0.506 OA
ATOM     11  C8  UNL     1       4.313  -3.485 -31.877  0.00  0.00    +0.027 A 
ATOM     12  C9  UNL     1       3.768  -3.271 -33.166  0.00  0.00    -0.050 A 
ATOM     13  C10 UNL     1       2.511  -3.764 -33.521  0.00  0.00    -0.061 A 
ATOM     14  C11 UNL     1       1.770  -4.488 -32.599  0.00  0.00    -0.061 A 
ATOM     15  C12 UNL     1       2.292  -4.726 -31.328  0.00  0.00    -0.050 A 
ATOM     16  C13 UNL     1       3.563  -4.244 -30.943  0.00  0.00    +0.028 A 
ATOM     17  C14 UNL     1       4.102  -4.503 -29.655  0.00  0.00    +0.139 A 
ATOM     18  O4  UNL     1       3.317  -5.244 -28.800  0.00  0.00    -0.505 OA
ATOM     19  H   UNL     1       7.198  -1.917 -31.954  0.00  0.00    +0.000 HD
ATOM     20  H   UNL     1       3.623  -5.445 -27.938  0.00  0.00    +0.000 HD
ENDROOT
TORSDOF 0
ENDMDL
MODEL 9
REMARK VINA RESULT:    -5.585     10.004     12.426
REMARK INTER + INTRA:          -5.585
REMARK INTER:                  -5.585
REMARK INTRA:                   0.000
REMARK UNBOUND:                 0.000
REMARK  Name = /home/vital/Documents/PhD_2021/Malaria_codes/scripts/../data/pdbqt_ligands/ligand_50_temp.pdb
REMARK                            x       y       z     vdW  Elec       q    Type
REMARK                         _______ _______ _______ _____ _____    ______ ____
ROOT
ATOM      1  C1  UNL     1      -7.793   1.650 -25.751  0.00  0.00    -0.062 C 
ATOM      2  C2  UNL     1      -6.734   0.653 -25.314  0.00  0.00    -0.021 C 
ATOM      3  C3  UNL     1      -7.262  -0.299 -24.248  0.00  0.00    +0.093 C 
ATOM      4  O1  UNL     1      -6.246  -1.260 -23.903  0.00  0.00    -0.461 OA
ATOM      5  C4  UNL     1      -5.381  -0.875 -22.927  0.00  0.00    +0.343 C 
ATOM      6  O2  UNL     1      -5.404   0.200 -22.348  0.00  0.00    -0.245 OA
ATOM      7  C5  UNL     1      -4.381  -1.944 -22.646  0.00  0.00    +0.104 A 
ATOM      8  C6  UNL     1      -3.480  -1.689 -21.608  0.00  0.00    -0.002 A 
ATOM      9  C7  UNL     1      -2.500  -2.621 -21.275  0.00  0.00    +0.126 A 
ATOM     10  O3  UNL     1      -1.658  -2.237 -20.265  0.00  0.00    -0.506 OA
ATOM     11  C8  UNL     1      -2.390  -3.860 -21.943  0.00  0.00    +0.027 A 
ATOM     12  C9  UNL     1      -1.440  -4.853 -21.601  0.00  0.00    -0.050 A 
ATOM     13  C10 UNL     1      -1.360  -6.061 -22.297  0.00  0.00    -0.061 A 
ATOM     14  C11 UNL     1      -2.231  -6.308 -23.348  0.00  0.00    -0.061 A 
ATOM     15  C12 UNL     1      -3.185  -5.353 -23.693  0.00  0.00    -0.050 A 
ATOM     16  C13 UNL     1      -3.292  -4.124 -23.005  0.00  0.00    +0.028 A 
ATOM     17  C14 UNL     1      -4.277  -3.159 -23.344  0.00  0.00    +0.139 A 
ATOM     18  O4  UNL     1      -5.117  -3.483 -24.386  0.00  0.00    -0.505 OA
ATOM     19  H   UNL     1      -1.771  -1.404 -19.853  0.00  0.00    +0.000 HD
ATOM     20  H   UNL     1      -5.786  -2.884 -24.653  0.00  0.00    +0.000 HD
ENDROOT
TORSDOF 0
ENDMDL
