MODEL 1
REMARK VINA RESULT:    -6.112      0.000      0.000
REMARK INTER + INTRA:          -6.112
REMARK INTER:                  -6.112
REMARK INTRA:                   0.000
REMARK UNBOUND:                 0.000
REMARK  Name = /home/vital/Documents/PhD_2021/Malaria_codes/scripts/../data/pdbqt_ligands/ligand_392_temp.pdb
REMARK                            x       y       z     vdW  Elec       q    Type
REMARK                         _______ _______ _______ _____ _____    ______ ____
ROOT
ATOM      1  C   UNL     1      -0.046  -2.287 -36.340  0.00  0.00    +0.030 C 
ATOM      2  N   UNL     1      -0.189  -2.848 -35.000  0.00  0.00    -0.279 NA
ATOM      3  C   UNL     1       0.922  -2.933 -34.345  0.00  0.00    +0.084 C 
ATOM      4  N   UNL     1       1.090  -3.432 -33.058  0.00  0.00    -0.268 N 
ATOM      5  C   UNL     1       0.005  -4.043 -32.422  0.00  0.00    +0.016 C 
ATOM      6  C   UNL     1      -0.773  -5.090 -32.761  0.00  0.00    +0.052 C 
ATOM      7 CL   UNL     1      -2.194  -5.283 -31.749  0.00  0.00    -0.085 Cl
ATOM      8  C   UNL     1      -0.640  -6.048 -33.941  0.00  0.00    +0.086 C 
ATOM      9 CL   UNL     1       1.052  -6.215 -34.566  0.00  0.00    -0.114 Cl
ATOM     10  C   UNL     1      -1.268  -7.516 -33.866  0.00  0.00    +0.029 C 
ATOM     11  C   UNL     1      -2.657  -7.395 -34.558  0.00  0.00    -0.048 C 
ATOM     12  N   UNL     1      -1.444  -8.135 -32.521  0.00  0.00    -0.290 N 
ATOM     13  C   UNL     1      -2.009  -9.520 -32.600  0.00  0.00    +0.002 C 
ATOM     14  C   UNL     1      -0.593 -10.087 -32.510  0.00  0.00    -0.019 C 
ATOM     15  C   UNL     1      -0.240  -8.745 -31.850  0.00  0.00    +0.049 C 
ATOM     16  C   UNL     1       1.173  -8.183 -32.089  0.00  0.00    +0.040 C 
ATOM     17  N   UNL     1       1.790  -7.276 -31.393  0.00  0.00    -0.198 NA
ATOM     18  N   UNL     1       1.098  -6.631 -30.415  0.00  0.00    -0.267 N 
ATOM     19  C   UNL     1       1.687  -5.432 -29.827  0.00  0.00    +0.050 C 
ATOM     20  C   UNL     1       2.963  -4.889 -30.493  0.00  0.00    +0.067 C 
ATOM     21  O   UNL     1       2.824  -4.538 -31.863  0.00  0.00    -0.355 OA
ATOM     22  C   UNL     1       2.358  -3.251 -32.280  0.00  0.00    +0.135 C 
ATOM     23  C   UNL     1       3.532  -2.738 -33.139  0.00  0.00    -0.019 C 
ATOM     24  C   UNL     1       2.141  -2.204 -31.169  0.00  0.00    -0.019 C 
ATOM     25  H   UNL     1      -1.913  -7.343 -32.080  0.00  0.00    +0.000 HD
ATOM     26  H   UNL     1       0.223  -6.965 -30.112  0.00  0.00    +0.000 HD
ENDROOT
TORSDOF 0
ENDMDL
MODEL 2
REMARK VINA RESULT:    -5.978      1.629      4.119
REMARK INTER + INTRA:          -5.978
REMARK INTER:                  -5.978
REMARK INTRA:                   0.000
REMARK UNBOUND:                 0.000
REMARK  Name = /home/vital/Documents/PhD_2021/Malaria_codes/scripts/../data/pdbqt_ligands/ligand_392_temp.pdb
REMARK                            x       y       z     vdW  Elec       q    Type
REMARK                         _______ _______ _______ _____ _____    ______ ____
ROOT
ATOM      1  C   UNL     1       2.335  -5.272 -28.269  0.00  0.00    +0.030 C 
ATOM      2  N   UNL     1       2.304  -5.554 -29.700  0.00  0.00    -0.279 NA
ATOM      3  C   UNL     1       2.087  -4.514 -30.436  0.00  0.00    +0.084 C 
ATOM      4  N   UNL     1       1.997  -4.483 -31.824  0.00  0.00    -0.268 N 
ATOM      5  C   UNL     1       1.993  -5.691 -32.528  0.00  0.00    +0.016 C 
ATOM      6  C   UNL     1       1.193  -6.774 -32.468  0.00  0.00    +0.052 C 
ATOM      7 CL   UNL     1       1.789  -8.154 -33.374  0.00  0.00    -0.085 Cl
ATOM      8  C   UNL     1      -0.081  -6.987 -31.657  0.00  0.00    +0.086 C 
ATOM      9 CL   UNL     1      -0.960  -5.456 -31.252  0.00  0.00    -0.114 Cl
ATOM     10  C   UNL     1      -1.173  -8.053 -32.131  0.00  0.00    +0.029 C 
ATOM     11  C   UNL     1      -0.849  -9.346 -31.327  0.00  0.00    -0.048 C 
ATOM     12  N   UNL     1      -1.244  -8.386 -33.582  0.00  0.00    -0.290 N 
ATOM     13  C   UNL     1      -2.331  -9.369 -33.890  0.00  0.00    +0.002 C 
ATOM     14  C   UNL     1      -3.255  -8.210 -34.264  0.00  0.00    -0.019 C 
ATOM     15  C   UNL     1      -1.954  -7.426 -34.503  0.00  0.00    +0.049 C 
ATOM     16  C   UNL     1      -1.971  -5.914 -34.216  0.00  0.00    +0.040 C 
ATOM     17  N   UNL     1      -1.132  -5.019 -34.645  0.00  0.00    -0.198 NA
ATOM     18  N   UNL     1      -0.027  -5.441 -35.317  0.00  0.00    -0.267 N 
ATOM     19  C   UNL     1       1.048  -4.482 -35.552  0.00  0.00    +0.050 C 
ATOM     20  C   UNL     1       0.922  -3.116 -34.854  0.00  0.00    +0.067 C 
ATOM     21  O   UNL     1       0.844  -3.169 -33.436  0.00  0.00    -0.355 OA
ATOM     22  C   UNL     1       2.008  -3.205 -32.607  0.00  0.00    +0.135 C 
ATOM     23  C   UNL     1       1.826  -1.951 -31.728  0.00  0.00    -0.019 C 
ATOM     24  C   UNL     1       3.366  -3.045 -33.319  0.00  0.00    -0.019 C 
ATOM     25  H   UNL     1      -0.248  -8.562 -33.718  0.00  0.00    +0.000 HD
ATOM     26  H   UNL     1       0.045  -6.369 -35.637  0.00  0.00    +0.000 HD
ENDROOT
TORSDOF 0
ENDMDL
MODEL 3
REMARK VINA RESULT:    -5.964     18.608     20.094
REMARK INTER + INTRA:          -5.964
REMARK INTER:                  -5.964
REMARK INTRA:                   0.000
REMARK UNBOUND:                 0.000
REMARK  Name = /home/vital/Documents/PhD_2021/Malaria_codes/scripts/../data/pdbqt_ligands/ligand_392_temp.pdb
REMARK                            x       y       z     vdW  Elec       q    Type
REMARK                         _______ _______ _______ _____ _____    ______ ____
ROOT
ATOM      1  C   UNL     1       7.218   5.865 -18.358  0.00  0.00    +0.030 C 
ATOM      2  N   UNL     1       6.090   6.123 -17.469  0.00  0.00    -0.279 NA
ATOM      3  C   UNL     1       5.854   5.169 -16.629  0.00  0.00    +0.084 C 
ATOM      4  N   UNL     1       4.844   5.135 -15.673  0.00  0.00    -0.268 N 
ATOM      5  C   UNL     1       3.877   6.145 -15.676  0.00  0.00    +0.016 C 
ATOM      6  C   UNL     1       3.015   6.574 -16.618  0.00  0.00    +0.052 C 
ATOM      7 CL   UNL     1       2.200   8.075 -16.212  0.00  0.00    -0.085 Cl
ATOM      8  C   UNL     1       2.734   5.996 -18.001  0.00  0.00    +0.086 C 
ATOM      9 CL   UNL     1       3.088   4.226 -18.146  0.00  0.00    -0.114 Cl
ATOM     10  C   UNL     1       1.330   6.261 -18.718  0.00  0.00    +0.029 C 
ATOM     11  C   UNL     1       1.579   7.482 -19.652  0.00  0.00    -0.048 C 
ATOM     12  N   UNL     1       0.145   6.539 -17.858  0.00  0.00    -0.290 N 
ATOM     13  C   UNL     1      -1.108   6.734 -18.657  0.00  0.00    +0.002 C 
ATOM     14  C   UNL     1      -1.469   5.267 -18.422  0.00  0.00    -0.019 C 
ATOM     15  C   UNL     1      -0.548   5.375 -17.196  0.00  0.00    +0.049 C 
ATOM     16  C   UNL     1       0.235   4.115 -16.781  0.00  0.00    +0.040 C 
ATOM     17  N   UNL     1       0.789   3.874 -15.631  0.00  0.00    -0.198 NA
ATOM     18  N   UNL     1       0.818   4.872 -14.707  0.00  0.00    -0.267 N 
ATOM     19  C   UNL     1       1.675   4.706 -13.536  0.00  0.00    +0.050 C 
ATOM     20  C   UNL     1       2.621   3.493 -13.537  0.00  0.00    +0.067 C 
ATOM     21  O   UNL     1       3.542   3.448 -14.618  0.00  0.00    -0.355 OA
ATOM     22  C   UNL     1       4.805   4.117 -14.574  0.00  0.00    +0.135 C 
ATOM     23  C   UNL     1       5.800   2.957 -14.782  0.00  0.00    -0.019 C 
ATOM     24  C   UNL     1       5.186   4.783 -13.237  0.00  0.00    -0.019 C 
ATOM     25  H   UNL     1       0.578   7.256 -17.276  0.00  0.00    +0.000 HD
ATOM     26  H   UNL     1       0.274   5.684 -14.824  0.00  0.00    +0.000 HD
ENDROOT
TORSDOF 0
ENDMDL
MODEL 4
REMARK VINA RESULT:    -5.964     10.846     13.114
REMARK INTER + INTRA:          -5.964
REMARK INTER:                  -5.964
REMARK INTRA:                   0.000
REMARK UNBOUND:                 0.000
REMARK  Name = /home/vital/Documents/PhD_2021/Malaria_codes/scripts/../data/pdbqt_ligands/ligand_392_temp.pdb
REMARK                            x       y       z     vdW  Elec       q    Type
REMARK                         _______ _______ _______ _____ _____    ______ ____
ROOT
ATOM      1  C   UNL     1      -2.395  -1.862 -26.228  0.00  0.00    +0.030 C 
ATOM      2  N   UNL     1      -2.558  -2.204 -24.819  0.00  0.00    -0.279 NA
ATOM      3  C   UNL     1      -3.217  -1.325 -24.138  0.00  0.00    +0.084 C 
ATOM      4  N   UNL     1      -3.517  -1.380 -22.781  0.00  0.00    -0.268 N 
ATOM      5  C   UNL     1      -2.952  -2.396 -22.005  0.00  0.00    +0.016 C 
ATOM      6  C   UNL     1      -1.675  -2.755 -21.770  0.00  0.00    +0.052 C 
ATOM      7 CL   UNL     1      -1.505  -4.292 -20.939  0.00  0.00    -0.085 Cl
ATOM      8  C   UNL     1      -0.385  -2.069 -22.207  0.00  0.00    +0.086 C 
ATOM      9 CL   UNL     1      -0.560  -0.288 -22.494  0.00  0.00    -0.114 Cl
ATOM     10  C   UNL     1       0.967  -2.288 -21.384  0.00  0.00    +0.029 C 
ATOM     11  C   UNL     1       1.717  -3.426 -22.137  0.00  0.00    -0.048 C 
ATOM     12  N   UNL     1       0.859  -2.647 -19.941  0.00  0.00    -0.290 N 
ATOM     13  C   UNL     1       2.199  -2.789 -19.286  0.00  0.00    +0.002 C 
ATOM     14  C   UNL     1       2.089  -1.350 -18.781  0.00  0.00    -0.019 C 
ATOM     15  C   UNL     1       0.574  -1.549 -18.949  0.00  0.00    +0.049 C 
ATOM     16  C   UNL     1      -0.266  -0.320 -19.343  0.00  0.00    +0.040 C 
ATOM     17  N   UNL     1      -1.550  -0.168 -19.218  0.00  0.00    -0.198 NA
ATOM     18  N   UNL     1      -2.290  -1.238 -18.820  0.00  0.00    -0.267 N 
ATOM     19  C   UNL     1      -3.742  -1.160 -18.948  0.00  0.00    +0.050 C 
ATOM     20  C   UNL     1      -4.308   0.059 -19.697  0.00  0.00    +0.067 C 
ATOM     21  O   UNL     1      -3.860   0.201 -21.038  0.00  0.00    -0.355 OA
ATOM     22  C   UNL     1      -4.504  -0.456 -22.133  0.00  0.00    +0.135 C 
ATOM     23  C   UNL     1      -4.913   0.727 -23.034  0.00  0.00    -0.019 C 
ATOM     24  C   UNL     1      -5.800  -1.226 -21.809  0.00  0.00    -0.019 C 
ATOM     25  H   UNL     1       0.186  -3.405 -20.052  0.00  0.00    +0.000 HD
ATOM     26  H   UNL     1      -1.858  -2.043 -18.455  0.00  0.00    +0.000 HD
ENDROOT
TORSDOF 0
ENDMDL
MODEL 5
REMARK VINA RESULT:    -5.892      2.138      5.448
REMARK INTER + INTRA:          -5.892
REMARK INTER:                  -5.892
REMARK INTRA:                   0.000
REMARK UNBOUND:                 0.000
REMARK  Name = /home/vital/Documents/PhD_2021/Malaria_codes/scripts/../data/pdbqt_ligands/ligand_392_temp.pdb
REMARK                            x       y       z     vdW  Elec       q    Type
REMARK                         _______ _______ _______ _____ _____    ______ ____
ROOT
ATOM      1  C   UNL     1      -4.461  -3.764 -33.325  0.00  0.00    +0.030 C 
ATOM      2  N   UNL     1      -3.280  -4.445 -33.844  0.00  0.00    -0.279 NA
ATOM      3  C   UNL     1      -3.110  -5.635 -33.370  0.00  0.00    +0.084 C 
ATOM      4  N   UNL     1      -2.072  -6.510 -33.675  0.00  0.00    -0.268 N 
ATOM      5  C   UNL     1      -1.009  -6.051 -34.459  0.00  0.00    +0.016 C 
ATOM      6  C   UNL     1      -0.145  -5.028 -34.307  0.00  0.00    +0.052 C 
ATOM      7 CL   UNL     1       0.832  -4.700 -35.727  0.00  0.00    -0.085 Cl
ATOM      8  C   UNL     1       0.023  -4.077 -33.126  0.00  0.00    +0.086 C 
ATOM      9 CL   UNL     1      -0.513  -4.769 -31.540  0.00  0.00    -0.114 Cl
ATOM     10  C   UNL     1       1.418  -3.337 -32.876  0.00  0.00    +0.029 C 
ATOM     11  C   UNL     1       1.258  -1.940 -33.543  0.00  0.00    -0.048 C 
ATOM     12  N   UNL     1       2.657  -3.985 -33.393  0.00  0.00    -0.290 N 
ATOM     13  C   UNL     1       3.892  -3.204 -33.059  0.00  0.00    +0.002 C 
ATOM     14  C   UNL     1       4.112  -4.099 -31.840  0.00  0.00    -0.019 C 
ATOM     15  C   UNL     1       3.254  -5.122 -32.602  0.00  0.00    +0.049 C 
ATOM     16  C   UNL     1       2.365  -6.065 -31.771  0.00  0.00    +0.040 C 
ATOM     17  N   UNL     1       1.834  -7.188 -32.153  0.00  0.00    -0.198 NA
ATOM     18  N   UNL     1       1.941  -7.541 -33.462  0.00  0.00    -0.267 N 
ATOM     19  C   UNL     1       1.117  -8.642 -33.951  0.00  0.00    +0.050 C 
ATOM     20  C   UNL     1       0.055  -9.195 -32.985  0.00  0.00    +0.067 C 
ATOM     21  O   UNL     1      -0.907  -8.247 -32.543  0.00  0.00    -0.355 OA
ATOM     22  C   UNL     1      -2.094  -7.957 -33.286  0.00  0.00    +0.135 C 
ATOM     23  C   UNL     1      -3.208  -8.300 -32.277  0.00  0.00    -0.019 C 
ATOM     24  C   UNL     1      -2.355  -8.826 -34.534  0.00  0.00    -0.019 C 
ATOM     25  H   UNL     1       2.321  -4.160 -34.340  0.00  0.00    +0.000 HD
ATOM     26  H   UNL     1       2.559  -7.066 -34.064  0.00  0.00    +0.000 HD
ENDROOT
TORSDOF 0
ENDMDL
MODEL 6
REMARK VINA RESULT:    -5.614      9.528     12.364
REMARK INTER + INTRA:          -5.614
REMARK INTER:                  -5.614
REMARK INTRA:                   0.000
REMARK UNBOUND:                 0.000
REMARK  Name = /home/vital/Documents/PhD_2021/Malaria_codes/scripts/../data/pdbqt_ligands/ligand_392_temp.pdb
REMARK                            x       y       z     vdW  Elec       q    Type
REMARK                         _______ _______ _______ _____ _____    ______ ____
ROOT
ATOM      1  C   UNL     1       0.561  -3.484 -24.541  0.00  0.00    +0.030 C 
ATOM      2  N   UNL     1       1.740  -3.754 -23.725  0.00  0.00    -0.279 NA
ATOM      3  C   UNL     1       1.887  -2.943 -22.729  0.00  0.00    +0.084 C 
ATOM      4  N   UNL     1       2.916  -2.954 -21.794  0.00  0.00    -0.268 N 
ATOM      5  C   UNL     1       3.998  -3.818 -21.989  0.00  0.00    +0.016 C 
ATOM      6  C   UNL     1       4.874  -3.961 -23.003  0.00  0.00    +0.052 C 
ATOM      7 CL   UNL     1       5.878  -5.395 -22.884  0.00  0.00    -0.085 Cl
ATOM      8  C   UNL     1       5.037  -3.114 -24.262  0.00  0.00    +0.086 C 
ATOM      9 CL   UNL     1       4.466  -1.405 -24.078  0.00  0.00    -0.114 Cl
ATOM     10  C   UNL     1       6.438  -3.069 -25.030  0.00  0.00    +0.029 C 
ATOM     11  C   UNL     1       6.309  -4.125 -26.166  0.00  0.00    -0.048 C 
ATOM     12  N   UNL     1       7.676  -3.345 -24.246  0.00  0.00    -0.290 N 
ATOM     13  C   UNL     1       8.916  -3.235 -25.081  0.00  0.00    +0.002 C 
ATOM     14  C   UNL     1       9.104  -1.801 -24.588  0.00  0.00    -0.019 C 
ATOM     15  C   UNL     1       8.244  -2.240 -23.392  0.00  0.00    +0.049 C 
ATOM     16  C   UNL     1       7.329  -1.183 -22.747  0.00  0.00    +0.040 C 
ATOM     17  N   UNL     1       6.787  -1.223 -21.566  0.00  0.00    -0.198 NA
ATOM     18  N   UNL     1       6.911  -2.365 -20.838  0.00  0.00    -0.267 N 
ATOM     19  C   UNL     1       6.079  -2.520 -19.648  0.00  0.00    +0.050 C 
ATOM     20  C   UNL     1       4.993  -1.454 -19.419  0.00  0.00    +0.067 C 
ATOM     21  O   UNL     1       4.038  -1.333 -20.464  0.00  0.00    -0.355 OA
ATOM     22  C   UNL     1       2.867  -2.152 -20.528  0.00  0.00    +0.135 C 
ATOM     23  C   UNL     1       1.733  -1.108 -20.512  0.00  0.00    -0.019 C 
ATOM     24  C   UNL     1       2.615  -3.089 -19.330  0.00  0.00    -0.019 C 
ATOM     25  H   UNL     1       7.352  -4.203 -23.800  0.00  0.00    +0.000 HD
ATOM     26  H   UNL     1       7.544  -3.069 -21.106  0.00  0.00    +0.000 HD
ENDROOT
TORSDOF 0
ENDMDL
MODEL 7
REMARK VINA RESULT:    -5.498      9.583     12.764
REMARK INTER + INTRA:          -5.498
REMARK INTER:                  -5.498
REMARK INTRA:                   0.000
REMARK UNBOUND:                 0.000
REMARK  Name = /home/vital/Documents/PhD_2021/Malaria_codes/scripts/../data/pdbqt_ligands/ligand_392_temp.pdb
REMARK                            x       y       z     vdW  Elec       q    Type
REMARK                         _______ _______ _______ _____ _____    ______ ____
ROOT
ATOM      1  C   UNL     1       5.753  -4.100 -28.373  0.00  0.00    +0.030 C 
ATOM      2  N   UNL     1       6.390  -3.963 -27.068  0.00  0.00    -0.279 NA
ATOM      3  C   UNL     1       5.560  -3.776 -26.095  0.00  0.00    +0.084 C 
ATOM      4  N   UNL     1       5.880  -3.604 -24.752  0.00  0.00    -0.268 N 
ATOM      5  C   UNL     1       7.224  -3.473 -24.388  0.00  0.00    +0.016 C 
ATOM      6  C   UNL     1       8.184  -2.604 -24.761  0.00  0.00    +0.052 C 
ATOM      7 CL   UNL     1       9.795  -3.045 -24.224  0.00  0.00    -0.085 Cl
ATOM      8  C   UNL     1       8.073  -1.370 -25.651  0.00  0.00    +0.086 C 
ATOM      9 CL   UNL     1       6.422  -0.626 -25.677  0.00  0.00    -0.114 Cl
ATOM     10  C   UNL     1       9.130  -0.178 -25.516  0.00  0.00    +0.029 C 
ATOM     11  C   UNL     1      10.196  -0.459 -26.616  0.00  0.00    -0.048 C 
ATOM     12  N   UNL     1       9.818   0.003 -24.206  0.00  0.00    -0.290 N 
ATOM     13  C   UNL     1      10.754   1.174 -24.210  0.00  0.00    +0.002 C 
ATOM     14  C   UNL     1       9.657   2.034 -23.583  0.00  0.00    -0.019 C 
ATOM     15  C   UNL     1       9.072   0.699 -23.096  0.00  0.00    +0.049 C 
ATOM     16  C   UNL     1       7.541   0.592 -22.979  0.00  0.00    +0.040 C 
ATOM     17  N   UNL     1       6.860  -0.280 -22.298  0.00  0.00    -0.198 NA
ATOM     18  N   UNL     1       7.531  -1.309 -21.715  0.00  0.00    -0.267 N 
ATOM     19  C   UNL     1       6.758  -2.433 -21.195  0.00  0.00    +0.050 C 
ATOM     20  C   UNL     1       5.253  -2.446 -21.516  0.00  0.00    +0.067 C 
ATOM     21  O   UNL     1       4.933  -2.450 -22.901  0.00  0.00    -0.355 OA
ATOM     22  C   UNL     1       4.851  -3.658 -23.663  0.00  0.00    +0.135 C 
ATOM     23  C   UNL     1       3.403  -3.618 -24.190  0.00  0.00    -0.019 C 
ATOM     24  C   UNL     1       4.994  -4.978 -22.879  0.00  0.00    -0.019 C 
ATOM     25  H   UNL     1      10.106  -0.967 -24.081  0.00  0.00    +0.000 HD
ATOM     26  H   UNL     1       8.513  -1.297 -21.645  0.00  0.00    +0.000 HD
ENDROOT
TORSDOF 0
ENDMDL
MODEL 8
REMARK VINA RESULT:    -5.444      8.861     11.197
REMARK INTER + INTRA:          -5.444
REMARK INTER:                  -5.444
REMARK INTRA:                   0.000
REMARK UNBOUND:                 0.000
REMARK  Name = /home/vital/Documents/PhD_2021/Malaria_codes/scripts/../data/pdbqt_ligands/ligand_392_temp.pdb
REMARK                            x       y       z     vdW  Elec       q    Type
REMARK                         _______ _______ _______ _____ _____    ______ ____
ROOT
ATOM      1  C   UNL     1       7.394   1.038 -21.440  0.00  0.00    +0.030 C 
ATOM      2  N   UNL     1       7.157  -0.361 -21.777  0.00  0.00    -0.279 NA
ATOM      3  C   UNL     1       7.609  -0.707 -22.937  0.00  0.00    +0.084 C 
ATOM      4  N   UNL     1       7.520  -1.966 -23.522  0.00  0.00    -0.268 N 
ATOM      5  C   UNL     1       6.752  -2.950 -22.894  0.00  0.00    +0.016 C 
ATOM      6  C   UNL     1       5.456  -2.994 -22.527  0.00  0.00    +0.052 C 
ATOM      7 CL   UNL     1       5.047  -4.361 -21.506  0.00  0.00    -0.085 Cl
ATOM      8  C   UNL     1       4.345  -1.982 -22.793  0.00  0.00    +0.086 C 
ATOM      9 CL   UNL     1       4.611  -0.969 -24.270  0.00  0.00    -0.114 Cl
ATOM     10  C   UNL     1       2.815  -2.445 -22.801  0.00  0.00    +0.029 C 
ATOM     11  C   UNL     1       2.293  -2.133 -21.368  0.00  0.00    -0.048 C 
ATOM     12  N   UNL     1       2.515  -3.868 -23.130  0.00  0.00    -0.290 N 
ATOM     13  C   UNL     1       1.045  -4.155 -23.135  0.00  0.00    +0.002 C 
ATOM     14  C   UNL     1       1.025  -3.956 -24.651  0.00  0.00    -0.019 C 
ATOM     15  C   UNL     1       2.525  -4.285 -24.579  0.00  0.00    +0.049 C 
ATOM     16  C   UNL     1       3.454  -3.599 -25.598  0.00  0.00    +0.040 C 
ATOM     17  N   UNL     1       4.654  -3.959 -25.939  0.00  0.00    -0.198 NA
ATOM     18  N   UNL     1       5.244  -4.973 -25.250  0.00  0.00    -0.267 N 
ATOM     19  C   UNL     1       6.675  -5.194 -25.434  0.00  0.00    +0.050 C 
ATOM     20  C   UNL     1       7.438  -4.140 -26.255  0.00  0.00    +0.067 C 
ATOM     21  O   UNL     1       7.382  -2.818 -25.738  0.00  0.00    -0.355 OA
ATOM     22  C   UNL     1       8.298  -2.345 -24.746  0.00  0.00    +0.135 C 
ATOM     23  C   UNL     1       8.953  -1.139 -25.450  0.00  0.00    -0.019 C 
ATOM     24  C   UNL     1       9.445  -3.299 -24.357  0.00  0.00    -0.019 C 
ATOM     25  H   UNL     1       3.185  -4.289 -22.486  0.00  0.00    +0.000 HD
ATOM     26  H   UNL     1       4.719  -5.543 -24.643  0.00  0.00    +0.000 HD
ENDROOT
TORSDOF 0
ENDMDL
MODEL 9
REMARK VINA RESULT:    -5.434      2.483      5.280
REMARK INTER + INTRA:          -5.434
REMARK INTER:                  -5.434
REMARK INTRA:                   0.000
REMARK UNBOUND:                 0.000
REMARK  Name = /home/vital/Documents/PhD_2021/Malaria_codes/scripts/../data/pdbqt_ligands/ligand_392_temp.pdb
REMARK                            x       y       z     vdW  Elec       q    Type
REMARK                         _______ _______ _______ _____ _____    ______ ____
ROOT
ATOM      1  C   UNL     1      -0.169  -6.153 -27.430  0.00  0.00    +0.030 C 
ATOM      2  N   UNL     1       0.872  -5.978 -28.437  0.00  0.00    -0.279 NA
ATOM      3  C   UNL     1       1.579  -4.907 -28.282  0.00  0.00    +0.084 C 
ATOM      4  N   UNL     1       2.627  -4.480 -29.090  0.00  0.00    -0.268 N 
ATOM      5  C   UNL     1       2.888  -5.168 -30.279  0.00  0.00    +0.016 C 
ATOM      6  C   UNL     1       2.126  -5.440 -31.356  0.00  0.00    +0.052 C 
ATOM      7 CL   UNL     1       2.844  -6.591 -32.469  0.00  0.00    -0.085 Cl
ATOM      8  C   UNL     1       0.712  -4.967 -31.680  0.00  0.00    +0.086 C 
ATOM      9 CL   UNL     1       0.262  -3.398 -30.895  0.00  0.00    -0.114 Cl
ATOM     10  C   UNL     1       0.207  -4.903 -33.196  0.00  0.00    +0.029 C 
ATOM     11  C   UNL     1      -0.552  -6.242 -33.424  0.00  0.00    -0.048 C 
ATOM     12  N   UNL     1       1.230  -4.733 -34.268  0.00  0.00    -0.290 N 
ATOM     13  C   UNL     1       0.617  -4.655 -35.633  0.00  0.00    +0.002 C 
ATOM     14  C   UNL     1       0.666  -3.129 -35.552  0.00  0.00    -0.019 C 
ATOM     15  C   UNL     1       1.782  -3.353 -34.519  0.00  0.00    +0.049 C 
ATOM     16  C   UNL     1       1.910  -2.328 -33.376  0.00  0.00    +0.040 C 
ATOM     17  N   UNL     1       2.940  -2.125 -32.611  0.00  0.00    -0.198 NA
ATOM     18  N   UNL     1       3.995  -2.978 -32.708  0.00  0.00    -0.267 N 
ATOM     19  C   UNL     1       5.021  -2.930 -31.671  0.00  0.00    +0.050 C 
ATOM     20  C   UNL     1       4.730  -2.043 -30.449  0.00  0.00    +0.067 C 
ATOM     21  O   UNL     1       3.557  -2.384 -29.723  0.00  0.00    -0.355 OA
ATOM     22  C   UNL     1       3.557  -3.374 -28.691  0.00  0.00    +0.135 C 
ATOM     23  C   UNL     1       3.064  -2.576 -27.467  0.00  0.00    -0.019 C 
ATOM     24  C   UNL     1       4.928  -3.964 -28.303  0.00  0.00    -0.019 C 
ATOM     25  H   UNL     1       1.860  -5.473 -33.957  0.00  0.00    +0.000 HD
ATOM     26  H   UNL     1       4.065  -3.611 -33.459  0.00  0.00    +0.000 HD
ENDROOT
TORSDOF 0
ENDMDL
