MODEL 1
REMARK VINA RESULT:    -6.829      0.000      0.000
REMARK INTER + INTRA:          -6.829
REMARK INTER:                  -6.829
REMARK INTRA:                   0.000
REMARK UNBOUND:                 0.000
REMARK  Name = /home/vital/Documents/PhD_2021/Malaria_codes/scripts/../data/pdbqt_ligands/ligand_116_temp.pdb
REMARK                            x       y       z     vdW  Elec       q    Type
REMARK                         _______ _______ _______ _____ _____    ______ ____
ROOT
ATOM      1  C1  UNL     1       3.084  -2.728 -21.384  0.00  0.00    -0.084 C 
ATOM      2  C2  UNL     1       2.802  -3.119 -20.136  0.00  0.00    +0.015 C 
ATOM      3 CL1  UNL     1       3.786  -4.328 -19.379  0.00  0.00    -0.088 Cl
ATOM      4  C3  UNL     1       1.639  -2.611 -19.326  0.00  0.00    +0.002 C 
ATOM      5  C4  UNL     1       2.060  -1.596 -18.301  0.00  0.00    -0.065 C 
ATOM      6  C5  UNL     1       1.638  -0.324 -18.293  0.00  0.00    -0.007 C 
ATOM      7  N1  UNL     1       1.985   0.635 -17.387  0.00  0.00    -0.290 N 
ATOM      8  C6  UNL     1       1.583   1.967 -17.353  0.00  0.00    +0.221 A 
ATOM      9  N2  UNL     1       2.090   2.700 -16.355  0.00  0.00    -0.199 NA
ATOM     10  C7  UNL     1       1.726   3.992 -16.269  0.00  0.00    +0.132 A 
ATOM     11  N3  UNL     1       2.257   4.779 -15.224  0.00  0.00    -0.326 N 
ATOM     12  C8  UNL     1       3.055   4.046 -14.238  0.00  0.00    +0.034 C 
ATOM     13  C9  UNL     1       3.484   5.011 -13.128  0.00  0.00    +0.060 C 
ATOM     14  O1  UNL     1       2.329   5.539 -12.470  0.00  0.00    -0.393 OA
ATOM     15  C10 UNL     1       0.871   4.587 -17.212  0.00  0.00    +0.040 A 
ATOM     16  C11 UNL     1       0.480   5.951 -17.218  0.00  0.00    -0.049 A 
ATOM     17  C12 UNL     1      -0.384   6.444 -18.195  0.00  0.00    -0.061 A 
ATOM     18  C13 UNL     1      -0.861   5.584 -19.174  0.00  0.00    -0.060 A 
ATOM     19  C14 UNL     1      -0.466   4.243 -19.171  0.00  0.00    -0.036 A 
ATOM     20  C15 UNL     1       0.396   3.731 -18.208  0.00  0.00    +0.078 A 
ATOM     21  N4  UNL     1       0.738   2.443 -18.278  0.00  0.00    -0.214 NA
ATOM     22  H   UNL     1       2.594   0.349 -16.669  0.00  0.00    +0.000 HD
ATOM     23  H   UNL     1       2.102   5.750 -15.162  0.00  0.00    +0.000 HD
ATOM     24  H   UNL     1       1.781   6.016 -13.112  0.00  0.00    +0.000 HD
ENDROOT
TORSDOF 0
ENDMDL
MODEL 2
REMARK VINA RESULT:    -6.706      4.538      6.383
REMARK INTER + INTRA:          -6.706
REMARK INTER:                  -6.706
REMARK INTRA:                   0.000
REMARK UNBOUND:                 0.000
REMARK  Name = /home/vital/Documents/PhD_2021/Malaria_codes/scripts/../data/pdbqt_ligands/ligand_116_temp.pdb
REMARK                            x       y       z     vdW  Elec       q    Type
REMARK                         _______ _______ _______ _____ _____    ______ ____
ROOT
ATOM      1  C1  UNL     1       4.695  -4.243 -21.630  0.00  0.00    -0.084 C 
ATOM      2  C2  UNL     1       4.711  -3.699 -20.407  0.00  0.00    +0.015 C 
ATOM      3 CL1  UNL     1       6.153  -2.922 -19.840  0.00  0.00    -0.088 Cl
ATOM      4  C3  UNL     1       3.561  -3.747 -19.438  0.00  0.00    +0.002 C 
ATOM      5  C4  UNL     1       2.810  -2.446 -19.381  0.00  0.00    -0.065 C 
ATOM      6  C5  UNL     1       1.522  -2.312 -19.725  0.00  0.00    -0.007 C 
ATOM      7  N1  UNL     1       0.794  -1.160 -19.689  0.00  0.00    -0.290 N 
ATOM      8  C6  UNL     1      -0.537  -0.975 -20.053  0.00  0.00    +0.221 A 
ATOM      9  N2  UNL     1      -1.002   0.273 -19.934  0.00  0.00    -0.199 NA
ATOM     10  C7  UNL     1      -2.286   0.505 -20.261  0.00  0.00    +0.132 A 
ATOM     11  N3  UNL     1      -2.790   1.819 -20.146  0.00  0.00    -0.326 N 
ATOM     12  C8  UNL     1      -1.875   2.784 -19.530  0.00  0.00    +0.034 C 
ATOM     13  C9  UNL     1      -2.590   4.132 -19.394  0.00  0.00    +0.060 C 
ATOM     14  O1  UNL     1      -3.734   3.992 -18.547  0.00  0.00    -0.393 OA
ATOM     15  C10 UNL     1      -3.122  -0.511 -20.754  0.00  0.00    +0.040 A 
ATOM     16  C11 UNL     1      -4.469  -0.337 -21.166  0.00  0.00    -0.049 A 
ATOM     17  C12 UNL     1      -5.220  -1.414 -21.632  0.00  0.00    -0.061 A 
ATOM     18  C13 UNL     1      -4.635  -2.671 -21.696  0.00  0.00    -0.060 A 
ATOM     19  C14 UNL     1      -3.305  -2.837 -21.299  0.00  0.00    -0.036 A 
ATOM     20  C15 UNL     1      -2.537  -1.777 -20.833  0.00  0.00    +0.078 A 
ATOM     21  N4  UNL     1      -1.270  -2.010 -20.484  0.00  0.00    -0.214 NA
ATOM     22  H   UNL     1       1.269  -0.360 -19.367  0.00  0.00    +0.000 HD
ATOM     23  H   UNL     1      -3.690   2.070 -20.456  0.00  0.00    +0.000 HD
ATOM     24  H   UNL     1      -4.345   3.345 -18.933  0.00  0.00    +0.000 HD
ENDROOT
TORSDOF 0
ENDMDL
MODEL 3
REMARK VINA RESULT:    -6.624     14.262     18.144
REMARK INTER + INTRA:          -6.624
REMARK INTER:                  -6.624
REMARK INTRA:                   0.000
REMARK UNBOUND:                 0.000
REMARK  Name = /home/vital/Documents/PhD_2021/Malaria_codes/scripts/../data/pdbqt_ligands/ligand_116_temp.pdb
REMARK                            x       y       z     vdW  Elec       q    Type
REMARK                         _______ _______ _______ _____ _____    ______ ____
ROOT
ATOM      1  C1  UNL     1       4.970  -1.770 -27.832  0.00  0.00    -0.084 C 
ATOM      2  C2  UNL     1       5.658  -2.841 -28.245  0.00  0.00    +0.015 C 
ATOM      3 CL1  UNL     1       6.353  -3.912 -27.073  0.00  0.00    -0.088 Cl
ATOM      4  C3  UNL     1       5.924  -3.179 -29.688  0.00  0.00    +0.002 C 
ATOM      5  C4  UNL     1       5.026  -4.275 -30.190  0.00  0.00    -0.065 C 
ATOM      6  C5  UNL     1       4.139  -4.118 -31.182  0.00  0.00    -0.007 C 
ATOM      7  N1  UNL     1       3.305  -5.077 -31.677  0.00  0.00    -0.290 N 
ATOM      8  C6  UNL     1       2.361  -4.950 -32.691  0.00  0.00    +0.221 A 
ATOM      9  N2  UNL     1       1.660  -6.055 -32.971  0.00  0.00    -0.199 NA
ATOM     10  C7  UNL     1       0.741  -5.991 -33.952  0.00  0.00    +0.132 A 
ATOM     11  N3  UNL     1      -0.011  -7.147 -34.255  0.00  0.00    -0.326 N 
ATOM     12  C8  UNL     1       0.405  -8.361 -33.546  0.00  0.00    +0.034 C 
ATOM     13  C9  UNL     1      -0.439  -9.540 -34.042  0.00  0.00    +0.060 C 
ATOM     14  O1  UNL     1      -0.221  -9.739 -35.442  0.00  0.00    -0.393 OA
ATOM     15  C10 UNL     1       0.480  -4.799 -34.648  0.00  0.00    +0.040 A 
ATOM     16  C11 UNL     1      -0.504  -4.639 -35.659  0.00  0.00    -0.049 A 
ATOM     17  C12 UNL     1      -0.679  -3.414 -36.299  0.00  0.00    -0.061 A 
ATOM     18  C13 UNL     1       0.120  -2.338 -35.936  0.00  0.00    -0.060 A 
ATOM     19  C14 UNL     1       1.081  -2.497 -34.934  0.00  0.00    -0.036 A 
ATOM     20  C15 UNL     1       1.272  -3.709 -34.280  0.00  0.00    +0.078 A 
ATOM     21  N4  UNL     1       2.200  -3.781 -33.325  0.00  0.00    -0.214 NA
ATOM     22  H   UNL     1       3.381  -5.968 -31.265  0.00  0.00    +0.000 HD
ATOM     23  H   UNL     1      -0.758  -7.139 -34.895  0.00  0.00    +0.000 HD
ATOM     24  H   UNL     1      -0.478  -8.939 -35.926  0.00  0.00    +0.000 HD
ENDROOT
TORSDOF 0
ENDMDL
MODEL 4
REMARK VINA RESULT:    -6.525     10.117     13.193
REMARK INTER + INTRA:          -6.525
REMARK INTER:                  -6.525
REMARK INTRA:                   0.000
REMARK UNBOUND:                 0.000
REMARK  Name = /home/vital/Documents/PhD_2021/Malaria_codes/scripts/../data/pdbqt_ligands/ligand_116_temp.pdb
REMARK                            x       y       z     vdW  Elec       q    Type
REMARK                         _______ _______ _______ _____ _____    ______ ____
ROOT
ATOM      1  C1  UNL     1      -7.079   4.778 -24.848  0.00  0.00    -0.084 C 
ATOM      2  C2  UNL     1      -8.147   4.000 -25.055  0.00  0.00    +0.015 C 
ATOM      3 CL1  UNL     1      -9.183   4.316 -26.408  0.00  0.00    -0.088 Cl
ATOM      4  C3  UNL     1      -8.562   2.865 -24.156  0.00  0.00    +0.002 C 
ATOM      5  C4  UNL     1      -8.190   1.524 -24.726  0.00  0.00    -0.065 C 
ATOM      6  C5  UNL     1      -7.339   0.674 -24.137  0.00  0.00    -0.007 C 
ATOM      7  N1  UNL     1      -6.971  -0.553 -24.607  0.00  0.00    -0.290 N 
ATOM      8  C6  UNL     1      -6.080  -1.457 -24.035  0.00  0.00    +0.221 A 
ATOM      9  N2  UNL     1      -5.886  -2.590 -24.720  0.00  0.00    -0.199 NA
ATOM     10  C7  UNL     1      -5.043  -3.505 -24.207  0.00  0.00    +0.132 A 
ATOM     11  N3  UNL     1      -4.825  -4.703 -24.921  0.00  0.00    -0.326 N 
ATOM     12  C8  UNL     1      -5.673  -4.886 -26.102  0.00  0.00    +0.034 C 
ATOM     13  C9  UNL     1      -5.383  -6.260 -26.714  0.00  0.00    +0.060 C 
ATOM     14  O1  UNL     1      -5.697  -7.289 -25.770  0.00  0.00    -0.393 OA
ATOM     15  C10 UNL     1      -4.345  -3.281 -23.009  0.00  0.00    +0.040 A 
ATOM     16  C11 UNL     1      -3.404  -4.172 -22.429  0.00  0.00    -0.049 A 
ATOM     17  C12 UNL     1      -2.770  -3.861 -21.228  0.00  0.00    -0.061 A 
ATOM     18  C13 UNL     1      -3.063  -2.660 -20.597  0.00  0.00    -0.060 A 
ATOM     19  C14 UNL     1      -3.982  -1.780 -21.175  0.00  0.00    -0.036 A 
ATOM     20  C15 UNL     1      -4.625  -2.069 -22.374  0.00  0.00    +0.078 A 
ATOM     21  N4  UNL     1      -5.481  -1.174 -22.871  0.00  0.00    -0.214 NA
ATOM     22  H   UNL     1      -7.386  -0.832 -25.454  0.00  0.00    +0.000 HD
ATOM     23  H   UNL     1      -4.152  -5.367 -24.645  0.00  0.00    +0.000 HD
ATOM     24  H   UNL     1      -5.155  -7.174 -24.975  0.00  0.00    +0.000 HD
ENDROOT
TORSDOF 0
ENDMDL
MODEL 5
REMARK VINA RESULT:    -6.419      9.058     12.447
REMARK INTER + INTRA:          -6.419
REMARK INTER:                  -6.419
REMARK INTRA:                   0.000
REMARK UNBOUND:                 0.000
REMARK  Name = /home/vital/Documents/PhD_2021/Malaria_codes/scripts/../data/pdbqt_ligands/ligand_116_temp.pdb
REMARK                            x       y       z     vdW  Elec       q    Type
REMARK                         _______ _______ _______ _____ _____    ______ ____
ROOT
ATOM      1  C1  UNL     1      10.564   2.861 -29.478  0.00  0.00    -0.084 C 
ATOM      2  C2  UNL     1      11.457   2.816 -28.483  0.00  0.00    +0.015 C 
ATOM      3 CL1  UNL     1      12.148   4.291 -27.891  0.00  0.00    -0.088 Cl
ATOM      4  C3  UNL     1      11.960   1.548 -27.844  0.00  0.00    +0.002 C 
ATOM      5  C4  UNL     1      11.315   1.289 -26.511  0.00  0.00    -0.065 C 
ATOM      6  C5  UNL     1      10.553   0.220 -26.246  0.00  0.00    -0.007 C 
ATOM      7  N1  UNL     1       9.950  -0.064 -25.056  0.00  0.00    -0.290 N 
ATOM      8  C6  UNL     1       9.139  -1.152 -24.745  0.00  0.00    +0.221 A 
ATOM      9  N2  UNL     1       8.660  -1.180 -23.496  0.00  0.00    -0.199 NA
ATOM     10  C7  UNL     1       7.879  -2.215 -23.139  0.00  0.00    +0.132 A 
ATOM     11  N3  UNL     1       7.362  -2.255 -21.826  0.00  0.00    -0.326 N 
ATOM     12  C8  UNL     1       7.863  -1.209 -20.930  0.00  0.00    +0.034 C 
ATOM     13  C9  UNL     1       7.283  -1.436 -19.529  0.00  0.00    +0.060 C 
ATOM     14  O1  UNL     1       7.712  -2.704 -19.025  0.00  0.00    -0.393 OA
ATOM     15  C10 UNL     1       7.531  -3.230 -24.046  0.00  0.00    +0.040 A 
ATOM     16  C11 UNL     1       6.676  -4.327 -23.761  0.00  0.00    -0.049 A 
ATOM     17  C12 UNL     1       6.400  -5.289 -24.730  0.00  0.00    -0.061 A 
ATOM     18  C13 UNL     1       6.969  -5.166 -25.990  0.00  0.00    -0.060 A 
ATOM     19  C14 UNL     1       7.803  -4.080 -26.271  0.00  0.00    -0.036 A 
ATOM     20  C15 UNL     1       8.090  -3.107 -25.320  0.00  0.00    +0.078 A 
ATOM     21  N4  UNL     1       8.885  -2.092 -25.666  0.00  0.00    -0.214 NA
ATOM     22  H   UNL     1      10.107   0.579 -24.328  0.00  0.00    +0.000 HD
ATOM     23  H   UNL     1       6.713  -2.935 -21.534  0.00  0.00    +0.000 HD
ATOM     24  H   UNL     1       7.401  -3.408 -19.615  0.00  0.00    +0.000 HD
ENDROOT
TORSDOF 0
ENDMDL
MODEL 6
REMARK VINA RESULT:    -6.357     12.051     16.126
REMARK INTER + INTRA:          -6.357
REMARK INTER:                  -6.357
REMARK INTRA:                   0.000
REMARK UNBOUND:                 0.000
REMARK  Name = /home/vital/Documents/PhD_2021/Malaria_codes/scripts/../data/pdbqt_ligands/ligand_116_temp.pdb
REMARK                            x       y       z     vdW  Elec       q    Type
REMARK                         _______ _______ _______ _____ _____    ______ ____
ROOT
ATOM      1  C1  UNL     1      -1.347  -3.574 -23.848  0.00  0.00    -0.084 C 
ATOM      2  C2  UNL     1      -1.403  -4.909 -23.934  0.00  0.00    +0.015 C 
ATOM      3 CL1  UNL     1      -2.852  -5.733 -23.460  0.00  0.00    -0.088 Cl
ATOM      4  C3  UNL     1      -0.261  -5.782 -24.380  0.00  0.00    +0.002 C 
ATOM      5  C4  UNL     1      -0.428  -6.257 -25.797  0.00  0.00    -0.065 C 
ATOM      6  C5  UNL     1       0.417  -5.952 -26.790  0.00  0.00    -0.007 C 
ATOM      7  N1  UNL     1       0.314  -6.357 -28.089  0.00  0.00    -0.290 N 
ATOM      8  C6  UNL     1       1.159  -6.049 -29.152  0.00  0.00    +0.221 A 
ATOM      9  N2  UNL     1       0.815  -6.571 -30.335  0.00  0.00    -0.199 NA
ATOM     10  C7  UNL     1       1.604  -6.314 -31.394  0.00  0.00    +0.132 A 
ATOM     11  N3  UNL     1       1.250  -6.853 -32.650  0.00  0.00    -0.326 N 
ATOM     12  C8  UNL     1       0.111  -7.776 -32.632  0.00  0.00    +0.034 C 
ATOM     13  C9  UNL     1      -0.093  -8.341 -34.042  0.00  0.00    +0.060 C 
ATOM     14  O1  UNL     1       1.070  -9.069 -34.447  0.00  0.00    -0.393 OA
ATOM     15  C10 UNL     1       2.739  -5.493 -31.293  0.00  0.00    +0.040 A 
ATOM     16  C11 UNL     1       3.591  -5.136 -32.371  0.00  0.00    -0.049 A 
ATOM     17  C12 UNL     1       4.702  -4.321 -32.164  0.00  0.00    -0.061 A 
ATOM     18  C13 UNL     1       4.971  -3.851 -30.887  0.00  0.00    -0.060 A 
ATOM     19  C14 UNL     1       4.124  -4.196 -29.829  0.00  0.00    -0.036 A 
ATOM     20  C15 UNL     1       3.009  -5.006 -30.012  0.00  0.00    +0.078 A 
ATOM     21  N4  UNL     1       2.240  -5.282 -28.957  0.00  0.00    -0.214 NA
ATOM     22  H   UNL     1      -0.451  -6.938 -28.300  0.00  0.00    +0.000 HD
ATOM     23  H   UNL     1       1.733  -6.627 -33.478  0.00  0.00    +0.000 HD
ATOM     24  H   UNL     1       1.837  -8.476 -34.450  0.00  0.00    +0.000 HD
ENDROOT
TORSDOF 0
ENDMDL
MODEL 7
REMARK VINA RESULT:    -6.056      3.604      4.177
REMARK INTER + INTRA:          -6.056
REMARK INTER:                  -6.056
REMARK INTRA:                   0.000
REMARK UNBOUND:                 0.000
REMARK  Name = /home/vital/Documents/PhD_2021/Malaria_codes/scripts/../data/pdbqt_ligands/ligand_116_temp.pdb
REMARK                            x       y       z     vdW  Elec       q    Type
REMARK                         _______ _______ _______ _____ _____    ______ ____
ROOT
ATOM      1  C1  UNL     1      -1.361   1.154 -22.784  0.00  0.00    -0.084 C 
ATOM      2  C2  UNL     1      -2.122   1.055 -21.688  0.00  0.00    +0.015 C 
ATOM      3 CL1  UNL     1      -2.693  -0.503 -21.185  0.00  0.00    -0.088 Cl
ATOM      4  C3  UNL     1      -2.574   2.224 -20.855  0.00  0.00    +0.002 C 
ATOM      5  C4  UNL     1      -1.774   2.364 -19.590  0.00  0.00    -0.065 C 
ATOM      6  C5  UNL     1      -1.014   3.429 -19.302  0.00  0.00    -0.007 C 
ATOM      7  N1  UNL     1      -0.273   3.608 -18.171  0.00  0.00    -0.290 N 
ATOM      8  C6  UNL     1       0.541   4.688 -17.841  0.00  0.00    +0.221 A 
ATOM      9  N2  UNL     1       1.173   4.600 -16.666  0.00  0.00    -0.199 NA
ATOM     10  C7  UNL     1       1.964   5.623 -16.293  0.00  0.00    +0.132 A 
ATOM     11  N3  UNL     1       2.642   5.541 -15.057  0.00  0.00    -0.326 N 
ATOM     12  C8  UNL     1       2.287   4.385 -14.229  0.00  0.00    +0.034 C 
ATOM     13  C9  UNL     1       3.032   4.483 -12.894  0.00  0.00    +0.060 C 
ATOM     14  O1  UNL     1       2.637   5.671 -12.202  0.00  0.00    -0.393 OA
ATOM     15  C10 UNL     1       2.167   6.743 -17.116  0.00  0.00    +0.040 A 
ATOM     16  C11 UNL     1       3.021   7.836 -16.817  0.00  0.00    -0.049 A 
ATOM     17  C12 UNL     1       3.146   8.908 -17.698  0.00  0.00    -0.061 A 
ATOM     18  C13 UNL     1       2.426   8.899 -18.885  0.00  0.00    -0.060 A 
ATOM     19  C14 UNL     1       1.594   7.816 -19.181  0.00  0.00    -0.036 A 
ATOM     20  C15 UNL     1       1.455   6.735 -18.318  0.00  0.00    +0.078 A 
ATOM     21  N4  UNL     1       0.651   5.731 -18.675  0.00  0.00    -0.214 NA
ATOM     22  H   UNL     1      -0.320   2.884 -17.506  0.00  0.00    +0.000 HD
ATOM     23  H   UNL     1       3.304   6.212 -14.772  0.00  0.00    +0.000 HD
ATOM     24  H   UNL     1       2.851   6.447 -12.743  0.00  0.00    +0.000 HD
ENDROOT
TORSDOF 0
ENDMDL
MODEL 8
REMARK VINA RESULT:    -6.046     13.580     16.365
REMARK INTER + INTRA:          -6.046
REMARK INTER:                  -6.046
REMARK INTRA:                   0.000
REMARK UNBOUND:                 0.000
REMARK  Name = /home/vital/Documents/PhD_2021/Malaria_codes/scripts/../data/pdbqt_ligands/ligand_116_temp.pdb
REMARK                            x       y       z     vdW  Elec       q    Type
REMARK                         _______ _______ _______ _____ _____    ______ ____
ROOT
ATOM      1  C1  UNL     1       5.856   3.841 -33.920  0.00  0.00    -0.084 C 
ATOM      2  C2  UNL     1       6.992   3.306 -33.458  0.00  0.00    +0.015 C 
ATOM      3 CL1  UNL     1       8.085   4.290 -32.542  0.00  0.00    -0.088 Cl
ATOM      4  C3  UNL     1       7.433   1.889 -33.713  0.00  0.00    +0.002 C 
ATOM      5  C4  UNL     1       7.202   0.999 -32.523  0.00  0.00    -0.065 C 
ATOM      6  C5  UNL     1       6.383  -0.060 -32.532  0.00  0.00    -0.007 C 
ATOM      7  N1  UNL     1       6.140  -0.900 -31.485  0.00  0.00    -0.290 N 
ATOM      8  C6  UNL     1       5.286  -1.999 -31.448  0.00  0.00    +0.221 A 
ATOM      9  N2  UNL     1       5.225  -2.646 -30.279  0.00  0.00    -0.199 NA
ATOM     10  C7  UNL     1       4.423  -3.722 -30.191  0.00  0.00    +0.132 A 
ATOM     11  N3  UNL     1       4.343  -4.412 -28.961  0.00  0.00    -0.326 N 
ATOM     12  C8  UNL     1       5.277  -3.952 -27.930  0.00  0.00    +0.034 C 
ATOM     13  C9  UNL     1       5.134  -4.847 -26.695  0.00  0.00    +0.060 C 
ATOM     14  O1  UNL     1       5.464  -6.197 -27.032  0.00  0.00    -0.393 OA
ATOM     15  C10 UNL     1       3.633  -4.150 -31.271  0.00  0.00    +0.040 A 
ATOM     16  C11 UNL     1       2.728  -5.243 -31.243  0.00  0.00    -0.049 A 
ATOM     17  C12 UNL     1       1.995  -5.594 -32.376  0.00  0.00    -0.061 A 
ATOM     18  C13 UNL     1       2.154  -4.859 -33.542  0.00  0.00    -0.060 A 
ATOM     19  C14 UNL     1       3.039  -3.777 -33.563  0.00  0.00    -0.036 A 
ATOM     20  C15 UNL     1       3.778  -3.407 -32.445  0.00  0.00    +0.078 A 
ATOM     21  N4  UNL     1       4.594  -2.355 -32.538  0.00  0.00    -0.214 NA
ATOM     22  H   UNL     1       6.630  -0.706 -30.654  0.00  0.00    +0.000 HD
ATOM     23  H   UNL     1       3.707  -5.147 -28.808  0.00  0.00    +0.000 HD
ATOM     24  H   UNL     1       4.864  -6.513 -27.724  0.00  0.00    +0.000 HD
ENDROOT
TORSDOF 0
ENDMDL
MODEL 9
REMARK VINA RESULT:    -5.952     11.221     13.767
REMARK INTER + INTRA:          -5.952
REMARK INTER:                  -5.952
REMARK INTRA:                   0.000
REMARK UNBOUND:                 0.000
REMARK  Name = /home/vital/Documents/PhD_2021/Malaria_codes/scripts/../data/pdbqt_ligands/ligand_116_temp.pdb
REMARK                            x       y       z     vdW  Elec       q    Type
REMARK                         _______ _______ _______ _____ _____    ______ ____
ROOT
ATOM      1  C1  UNL     1      -1.946  -4.298 -22.774  0.00  0.00    -0.084 C 
ATOM      2  C2  UNL     1      -2.141  -5.242 -23.703  0.00  0.00    +0.015 C 
ATOM      3 CL1  UNL     1      -3.685  -5.366 -24.481  0.00  0.00    -0.088 Cl
ATOM      4  C3  UNL     1      -1.113  -6.263 -24.110  0.00  0.00    +0.002 C 
ATOM      5  C4  UNL     1      -0.456  -5.921 -25.418  0.00  0.00    -0.065 C 
ATOM      6  C5  UNL     1       0.852  -5.668 -25.553  0.00  0.00    -0.007 C 
ATOM      7  N1  UNL     1       1.497  -5.356 -26.713  0.00  0.00    -0.290 N 
ATOM      8  C6  UNL     1       2.848  -5.070 -26.893  0.00  0.00    +0.221 A 
ATOM      9  N2  UNL     1       3.217  -4.779 -28.145  0.00  0.00    -0.199 NA
ATOM     10  C7  UNL     1       4.514  -4.506 -28.377  0.00  0.00    +0.132 A 
ATOM     11  N3  UNL     1       4.918  -4.192 -29.692  0.00  0.00    -0.326 N 
ATOM     12  C8  UNL     1       3.877  -4.341 -30.714  0.00  0.00    +0.034 C 
ATOM     13  C9  UNL     1       4.486  -4.052 -32.090  0.00  0.00    +0.060 C 
ATOM     14  O1  UNL     1       5.528  -4.992 -32.367  0.00  0.00    -0.393 OA
ATOM     15  C10 UNL     1       5.464  -4.483 -27.342  0.00  0.00    +0.040 A 
ATOM     16  C11 UNL     1       6.837  -4.158 -27.497  0.00  0.00    -0.049 A 
ATOM     17  C12 UNL     1       7.703  -4.173 -26.405  0.00  0.00    -0.061 A 
ATOM     18  C13 UNL     1       7.210  -4.508 -25.152  0.00  0.00    -0.060 A 
ATOM     19  C14 UNL     1       5.855  -4.819 -25.001  0.00  0.00    -0.036 A 
ATOM     20  C15 UNL     1       4.973  -4.807 -26.075  0.00  0.00    +0.078 A 
ATOM     21  N4  UNL     1       3.691  -5.102 -25.852  0.00  0.00    -0.214 NA
ATOM     22  H   UNL     1       0.939  -5.329 -27.523  0.00  0.00    +0.000 HD
ATOM     23  H   UNL     1       5.831  -3.894 -29.909  0.00  0.00    +0.000 HD
ATOM     24  H   UNL     1       6.220  -4.917 -31.692  0.00  0.00    +0.000 HD
ENDROOT
TORSDOF 0
ENDMDL
