MODEL 1
REMARK VINA RESULT:    -6.901      0.000      0.000
REMARK INTER + INTRA:          -6.901
REMARK INTER:                  -6.901
REMARK INTRA:                   0.000
REMARK UNBOUND:                 0.000
REMARK  Name = /home/vital/Documents/PhD_2021/Malaria_codes/scripts/../data/pdbqt_ligands/ligand_27_temp.pdb
REMARK                            x       y       z     vdW  Elec       q    Type
REMARK                         _______ _______ _______ _____ _____    ______ ____
ROOT
ATOM      1  C   UNL     1       0.668  -8.140 -30.911  0.00  0.00    -0.031 C 
ATOM      2  C   UNL     1       1.357  -7.475 -32.095  0.00  0.00    +0.087 C 
ATOM      3  O   UNL     1       0.905  -6.114 -32.178  0.00  0.00    -0.489 OA
ATOM      4  C   UNL     1       1.944  -5.216 -32.176  0.00  0.00    +0.162 A 
ATOM      5  C   UNL     1       2.722  -5.057 -31.027  0.00  0.00    -0.016 A 
ATOM      6  C   UNL     1       3.745  -4.111 -31.004  0.00  0.00    -0.054 A 
ATOM      7  C   UNL     1       3.990  -3.312 -32.127  0.00  0.00    -0.030 A 
ATOM      8  C   UNL     1       5.087  -2.268 -32.102  0.00  0.00    +0.022 C 
ATOM      9  N   UNL     1       4.519  -0.948 -31.839  0.00  0.00    -0.307 N 
ATOM     10  C   UNL     1       5.512   0.113 -31.547  0.00  0.00    +0.035 C 
ATOM     11  C   UNL     1       6.047  -0.046 -30.117  0.00  0.00    -0.047 C 
ATOM     12  C   UNL     1       6.648   0.271 -32.620  0.00  0.00    +0.099 C 
ATOM     13  O   UNL     1       7.599  -0.796 -32.536  0.00  0.00    -0.386 OA
ATOM     14  C   UNL     1       7.279   1.658 -32.606  0.00  0.00    +0.036 A 
ATOM     15  C   UNL     1       6.605   2.670 -33.316  0.00  0.00    +0.130 A 
ATOM     16  F   UNL     1       5.462   2.380 -33.956  0.00  0.00    -0.205 F 
ATOM     17  C   UNL     1       7.067   3.985 -33.378  0.00  0.00    -0.026 A 
ATOM     18  C   UNL     1       8.237   4.331 -32.715  0.00  0.00    -0.058 A 
ATOM     19  C   UNL     1       8.927   3.357 -31.994  0.00  0.00    -0.043 A 
ATOM     20  C   UNL     1       8.453   2.035 -31.934  0.00  0.00    +0.049 A 
ATOM     21 CL   UNL     1       9.387   0.934 -30.977  0.00  0.00    -0.083 Cl
ATOM     22  C   UNL     1       3.176  -3.456 -33.267  0.00  0.00    -0.012 A 
ATOM     23  C   UNL     1       2.145  -4.401 -33.298  0.00  0.00    +0.162 A 
ATOM     24  O   UNL     1       1.310  -4.618 -34.364  0.00  0.00    -0.491 OA
ATOM     25  C   UNL     1       1.364  -3.675 -35.430  0.00  0.00    +0.079 C 
ATOM     26  H   UNL     1       3.894  -1.026 -31.037  0.00  0.00    +0.000 HD
ATOM     27  H   UNL     1       4.045  -0.666 -32.697  0.00  0.00    +0.000 HD
ATOM     28  H   UNL     1       8.045  -0.766 -31.675  0.00  0.00    +0.000 HD
ENDROOT
TORSDOF 0
ENDMDL
MODEL 2
REMARK VINA RESULT:    -6.879      7.779     12.074
REMARK INTER + INTRA:          -6.879
REMARK INTER:                  -6.879
REMARK INTRA:                   0.000
REMARK UNBOUND:                 0.000
REMARK  Name = /home/vital/Documents/PhD_2021/Malaria_codes/scripts/../data/pdbqt_ligands/ligand_27_temp.pdb
REMARK                            x       y       z     vdW  Elec       q    Type
REMARK                         _______ _______ _______ _____ _____    ______ ____
ROOT
ATOM      1  C   UNL     1      12.875   4.660 -30.642  0.00  0.00    -0.031 C 
ATOM      2  C   UNL     1      13.222   3.853 -29.399  0.00  0.00    +0.087 C 
ATOM      3  O   UNL     1      12.230   4.115 -28.394  0.00  0.00    -0.489 OA
ATOM      4  C   UNL     1      11.645   2.966 -27.923  0.00  0.00    +0.162 A 
ATOM      5  C   UNL     1      10.827   2.207 -28.764  0.00  0.00    -0.016 A 
ATOM      6  C   UNL     1      10.192   1.067 -28.275  0.00  0.00    -0.054 A 
ATOM      7  C   UNL     1      10.363   0.684 -26.940  0.00  0.00    -0.030 A 
ATOM      8  C   UNL     1       9.660  -0.543 -26.397  0.00  0.00    +0.022 C 
ATOM      9  N   UNL     1       8.458  -0.150 -25.665  0.00  0.00    -0.307 N 
ATOM     10  C   UNL     1       7.556  -1.268 -25.298  0.00  0.00    +0.035 C 
ATOM     11  C   UNL     1       6.768  -1.733 -26.531  0.00  0.00    -0.047 C 
ATOM     12  C   UNL     1       8.244  -2.445 -24.520  0.00  0.00    +0.099 C 
ATOM     13  O   UNL     1       9.058  -3.242 -25.387  0.00  0.00    -0.386 OA
ATOM     14  C   UNL     1       7.255  -3.257 -23.691  0.00  0.00    +0.036 A 
ATOM     15  C   UNL     1       6.919  -2.746 -22.423  0.00  0.00    +0.130 A 
ATOM     16  F   UNL     1       7.467  -1.595 -22.007  0.00  0.00    -0.205 F 
ATOM     17  C   UNL     1       6.021  -3.383 -21.567  0.00  0.00    -0.026 A 
ATOM     18  C   UNL     1       5.418  -4.569 -21.965  0.00  0.00    -0.058 A 
ATOM     19  C   UNL     1       5.719  -5.100 -23.219  0.00  0.00    -0.043 A 
ATOM     20  C   UNL     1       6.623  -4.450 -24.077  0.00  0.00    +0.049 A 
ATOM     21 CL   UNL     1       6.882  -5.199 -25.618  0.00  0.00    -0.083 Cl
ATOM     22  C   UNL     1      11.161   1.476 -26.092  0.00  0.00    -0.012 A 
ATOM     23  C   UNL     1      11.801   2.623 -26.573  0.00  0.00    +0.162 A 
ATOM     24  O   UNL     1      12.602   3.448 -25.826  0.00  0.00    -0.491 OA
ATOM     25  C   UNL     1      12.614   3.236 -24.418  0.00  0.00    +0.079 C 
ATOM     26  H   UNL     1       7.933   0.503 -26.246  0.00  0.00    +0.000 HD
ATOM     27  H   UNL     1       8.779   0.257 -24.786  0.00  0.00    +0.000 HD
ATOM     28  H   UNL     1       8.500  -3.661 -26.061  0.00  0.00    +0.000 HD
ENDROOT
TORSDOF 0
ENDMDL
MODEL 3
REMARK VINA RESULT:    -6.836     13.970     14.928
REMARK INTER + INTRA:          -6.836
REMARK INTER:                  -6.836
REMARK INTRA:                   0.000
REMARK UNBOUND:                 0.000
REMARK  Name = /home/vital/Documents/PhD_2021/Malaria_codes/scripts/../data/pdbqt_ligands/ligand_27_temp.pdb
REMARK                            x       y       z     vdW  Elec       q    Type
REMARK                         _______ _______ _______ _____ _____    ______ ____
ROOT
ATOM      1  C   UNL     1      -6.081  -2.220 -22.301  0.00  0.00    -0.031 C 
ATOM      2  C   UNL     1      -4.604  -1.869 -22.424  0.00  0.00    +0.087 C 
ATOM      3  O   UNL     1      -4.495  -0.513 -22.883  0.00  0.00    -0.489 OA
ATOM      4  C   UNL     1      -3.722   0.261 -22.054  0.00  0.00    +0.162 A 
ATOM      5  C   UNL     1      -4.173   0.564 -20.766  0.00  0.00    -0.016 A 
ATOM      6  C   UNL     1      -3.415   1.390 -19.939  0.00  0.00    -0.054 A 
ATOM      7  C   UNL     1      -2.207   1.927 -20.396  0.00  0.00    -0.030 A 
ATOM      8  C   UNL     1      -1.388   2.842 -19.509  0.00  0.00    +0.022 C 
ATOM      9  N   UNL     1      -1.630   4.238 -19.868  0.00  0.00    -0.307 N 
ATOM     10  C   UNL     1      -1.080   5.232 -18.916  0.00  0.00    +0.035 C 
ATOM     11  C   UNL     1      -1.961   5.302 -17.661  0.00  0.00    -0.047 C 
ATOM     12  C   UNL     1       0.448   5.064 -18.593  0.00  0.00    +0.099 C 
ATOM     13  O   UNL     1       0.681   3.945 -17.730  0.00  0.00    -0.386 OA
ATOM     14  C   UNL     1       1.090   6.358 -18.106  0.00  0.00    +0.036 A 
ATOM     15  C   UNL     1       1.500   7.274 -19.094  0.00  0.00    +0.130 A 
ATOM     16  F   UNL     1       1.313   6.979 -20.389  0.00  0.00    -0.205 F 
ATOM     17  C   UNL     1       2.093   8.499 -18.787  0.00  0.00    -0.026 A 
ATOM     18  C   UNL     1       2.291   8.850 -17.458  0.00  0.00    -0.058 A 
ATOM     19  C   UNL     1       1.887   7.972 -16.453  0.00  0.00    -0.043 A 
ATOM     20  C   UNL     1       1.288   6.741 -16.770  0.00  0.00    +0.049 A 
ATOM     21 CL   UNL     1       0.805   5.761 -15.427  0.00  0.00    -0.083 Cl
ATOM     22  C   UNL     1      -1.780   1.645 -21.709  0.00  0.00    -0.012 A 
ATOM     23  C   UNL     1      -2.535   0.818 -22.547  0.00  0.00    +0.162 A 
ATOM     24  O   UNL     1      -2.195   0.482 -23.832  0.00  0.00    -0.491 OA
ATOM     25  C   UNL     1      -1.107   1.188 -24.420  0.00  0.00    +0.079 C 
ATOM     26  H   UNL     1      -2.638   4.379 -19.926  0.00  0.00    +0.000 HD
ATOM     27  H   UNL     1      -1.147   4.393 -20.753  0.00  0.00    +0.000 HD
ATOM     28  H   UNL     1       0.246   4.099 -16.876  0.00  0.00    +0.000 HD
ENDROOT
TORSDOF 0
ENDMDL
MODEL 4
REMARK VINA RESULT:    -6.767     13.352     15.473
REMARK INTER + INTRA:          -6.767
REMARK INTER:                  -6.767
REMARK INTRA:                   0.000
REMARK UNBOUND:                 0.000
REMARK  Name = /home/vital/Documents/PhD_2021/Malaria_codes/scripts/../data/pdbqt_ligands/ligand_27_temp.pdb
REMARK                            x       y       z     vdW  Elec       q    Type
REMARK                         _______ _______ _______ _____ _____    ______ ____
ROOT
ATOM      1  C   UNL     1     -10.482   6.025 -25.279  0.00  0.00    -0.031 C 
ATOM      2  C   UNL     1      -9.002   5.755 -25.514  0.00  0.00    +0.087 C 
ATOM      3  O   UNL     1      -8.393   5.427 -24.255  0.00  0.00    -0.489 OA
ATOM      4  C   UNL     1      -7.733   4.224 -24.289  0.00  0.00    +0.162 A 
ATOM      5  C   UNL     1      -8.457   3.037 -24.431  0.00  0.00    -0.016 A 
ATOM      6  C   UNL     1      -7.795   1.812 -24.416  0.00  0.00    -0.054 A 
ATOM      7  C   UNL     1      -6.406   1.763 -24.250  0.00  0.00    -0.030 A 
ATOM      8  C   UNL     1      -5.684   0.433 -24.213  0.00  0.00    +0.022 C 
ATOM      9  N   UNL     1      -5.415   0.045 -22.830  0.00  0.00    -0.307 N 
ATOM     10  C   UNL     1      -4.935  -1.346 -22.652  0.00  0.00    +0.035 C 
ATOM     11  C   UNL     1      -6.105  -2.328 -22.801  0.00  0.00    -0.047 C 
ATOM     12  C   UNL     1      -3.686  -1.732 -23.522  0.00  0.00    +0.099 C 
ATOM     13  O   UNL     1      -4.042  -1.913 -24.898  0.00  0.00    -0.386 OA
ATOM     14  C   UNL     1      -2.899  -2.896 -22.934  0.00  0.00    +0.036 A 
ATOM     15  C   UNL     1      -1.973  -2.589 -21.919  0.00  0.00    +0.130 A 
ATOM     16  F   UNL     1      -1.826  -1.317 -21.520  0.00  0.00    -0.205 F 
ATOM     17  C   UNL     1      -1.193  -3.560 -21.289  0.00  0.00    -0.026 A 
ATOM     18  C   UNL     1      -1.325  -4.891 -21.661  0.00  0.00    -0.058 A 
ATOM     19  C   UNL     1      -2.240  -5.234 -22.656  0.00  0.00    -0.043 A 
ATOM     20  C   UNL     1      -3.024  -4.251 -23.284  0.00  0.00    +0.049 A 
ATOM     21 CL   UNL     1      -4.143  -4.817 -24.478  0.00  0.00    -0.083 Cl
ATOM     22  C   UNL     1      -5.691   2.963 -24.072  0.00  0.00    -0.012 A 
ATOM     23  C   UNL     1      -6.347   4.199 -24.083  0.00  0.00    +0.162 A 
ATOM     24  O   UNL     1      -5.734   5.415 -23.927  0.00  0.00    -0.491 OA
ATOM     25  C   UNL     1      -4.369   5.405 -23.520  0.00  0.00    +0.079 C 
ATOM     26  H   UNL     1      -6.278   0.153 -22.297  0.00  0.00    +0.000 HD
ATOM     27  H   UNL     1      -4.661   0.651 -22.505  0.00  0.00    +0.000 HD
ATOM     28  H   UNL     1      -4.659  -2.658 -24.977  0.00  0.00    +0.000 HD
ENDROOT
TORSDOF 0
ENDMDL
MODEL 5
REMARK VINA RESULT:    -6.672      3.333      9.538
REMARK INTER + INTRA:          -6.672
REMARK INTER:                  -6.672
REMARK INTRA:                   0.000
REMARK UNBOUND:                 0.000
REMARK  Name = /home/vital/Documents/PhD_2021/Malaria_codes/scripts/../data/pdbqt_ligands/ligand_27_temp.pdb
REMARK                            x       y       z     vdW  Elec       q    Type
REMARK                         _______ _______ _______ _____ _____    ______ ____
ROOT
ATOM      1  C   UNL     1      10.838   6.088 -34.226  0.00  0.00    -0.031 C 
ATOM      2  C   UNL     1      11.155   4.771 -33.530  0.00  0.00    +0.087 C 
ATOM      3  O   UNL     1      10.324   4.660 -32.364  0.00  0.00    -0.489 OA
ATOM      4  C   UNL     1       9.595   3.497 -32.349  0.00  0.00    +0.162 A 
ATOM      5  C   UNL     1       8.580   3.301 -33.289  0.00  0.00    -0.016 A 
ATOM      6  C   UNL     1       7.805   2.144 -33.246  0.00  0.00    -0.054 A 
ATOM      7  C   UNL     1       8.033   1.180 -32.256  0.00  0.00    -0.030 A 
ATOM      8  C   UNL     1       7.180  -0.070 -32.192  0.00  0.00    +0.022 C 
ATOM      9  N   UNL     1       6.141   0.082 -31.176  0.00  0.00    -0.307 N 
ATOM     10  C   UNL     1       5.097  -0.969 -31.188  0.00  0.00    +0.035 C 
ATOM     11  C   UNL     1       4.126  -0.732 -32.353  0.00  0.00    -0.047 C 
ATOM     12  C   UNL     1       5.638  -2.442 -31.121  0.00  0.00    +0.099 C 
ATOM     13  O   UNL     1       6.214  -2.845 -32.368  0.00  0.00    -0.386 OA
ATOM     14  C   UNL     1       4.606  -3.422 -30.576  0.00  0.00    +0.036 A 
ATOM     15  C   UNL     1       4.488  -3.507 -29.176  0.00  0.00    +0.130 A 
ATOM     16  F   UNL     1       5.266  -2.740 -28.398  0.00  0.00    -0.205 F 
ATOM     17  C   UNL     1       3.577  -4.356 -28.546  0.00  0.00    -0.026 A 
ATOM     18  C   UNL     1       2.742  -5.156 -29.314  0.00  0.00    -0.058 A 
ATOM     19  C   UNL     1       2.824  -5.090 -30.705  0.00  0.00    -0.043 A 
ATOM     20  C   UNL     1       3.741  -4.230 -31.332  0.00  0.00    +0.049 A 
ATOM     21 CL   UNL     1       3.717  -4.223 -33.064  0.00  0.00    -0.083 Cl
ATOM     22  C   UNL     1       9.034   1.405 -31.292  0.00  0.00    -0.012 A 
ATOM     23  C   UNL     1       9.816   2.565 -31.326  0.00  0.00    +0.162 A 
ATOM     24  O   UNL     1      10.817   2.864 -30.438  0.00  0.00    -0.491 OA
ATOM     25  C   UNL     1      10.926   2.037 -29.283  0.00  0.00    +0.079 C 
ATOM     26  H   UNL     1       5.686   0.983 -31.322  0.00  0.00    +0.000 HD
ATOM     27  H   UNL     1       6.611   0.007 -30.273  0.00  0.00    +0.000 HD
ATOM     28  H   UNL     1       5.529  -2.847 -33.055  0.00  0.00    +0.000 HD
ENDROOT
TORSDOF 0
ENDMDL
MODEL 6
REMARK VINA RESULT:    -6.656     14.480     17.462
REMARK INTER + INTRA:          -6.656
REMARK INTER:                  -6.656
REMARK INTRA:                   0.000
REMARK UNBOUND:                 0.000
REMARK  Name = /home/vital/Documents/PhD_2021/Malaria_codes/scripts/../data/pdbqt_ligands/ligand_27_temp.pdb
REMARK                            x       y       z     vdW  Elec       q    Type
REMARK                         _______ _______ _______ _____ _____    ______ ____
ROOT
ATOM      1  C   UNL     1       2.692  10.117 -17.021  0.00  0.00    -0.031 C 
ATOM      2  C   UNL     1       2.915   8.620 -16.857  0.00  0.00    +0.087 C 
ATOM      3  O   UNL     1       1.687   8.022 -16.414  0.00  0.00    -0.489 OA
ATOM      4  C   UNL     1       1.279   6.996 -17.230  0.00  0.00    +0.162 A 
ATOM      5  C   UNL     1       0.862   7.271 -18.535  0.00  0.00    -0.016 A 
ATOM      6  C   UNL     1       0.400   6.240 -19.350  0.00  0.00    -0.054 A 
ATOM      7  C   UNL     1       0.342   4.929 -18.863  0.00  0.00    -0.030 A 
ATOM      8  C   UNL     1      -0.178   3.807 -19.737  0.00  0.00    +0.022 C 
ATOM      9  N   UNL     1      -1.572   3.517 -19.406  0.00  0.00    -0.307 N 
ATOM     10  C   UNL     1      -2.264   2.613 -20.355  0.00  0.00    +0.035 C 
ATOM     11  C   UNL     1      -2.627   3.374 -21.637  0.00  0.00    -0.047 C 
ATOM     12  C   UNL     1      -1.530   1.251 -20.627  0.00  0.00    +0.099 C 
ATOM     13  O   UNL     1      -0.384   1.433 -21.466  0.00  0.00    -0.386 OA
ATOM     14  C   UNL     1      -2.478   0.161 -21.112  0.00  0.00    +0.036 A 
ATOM     15  C   UNL     1      -3.198  -0.539 -20.126  0.00  0.00    +0.130 A 
ATOM     16  F   UNL     1      -3.028  -0.224 -18.833  0.00  0.00    -0.205 F 
ATOM     17  C   UNL     1      -4.105  -1.554 -20.431  0.00  0.00    -0.026 A 
ATOM     18  C   UNL     1      -4.324  -1.901 -21.758  0.00  0.00    -0.058 A 
ATOM     19  C   UNL     1      -3.635  -1.222 -22.763  0.00  0.00    -0.043 A 
ATOM     20  C   UNL     1      -2.725  -0.198 -22.447  0.00  0.00    +0.049 A 
ATOM     21 CL   UNL     1      -1.963   0.585 -23.791  0.00  0.00    -0.083 Cl
ATOM     22  C   UNL     1       0.730   4.670 -17.534  0.00  0.00    -0.012 A 
ATOM     23  C   UNL     1       1.193   5.699 -16.707  0.00  0.00    +0.162 A 
ATOM     24  O   UNL     1       1.600   5.540 -15.407  0.00  0.00    -0.491 OA
ATOM     25  C   UNL     1       1.337   4.281 -14.796  0.00  0.00    +0.079 C 
ATOM     26  H   UNL     1      -2.081   4.400 -19.382  0.00  0.00    +0.000 HD
ATOM     27  H   UNL     1      -1.557   3.032 -18.509  0.00  0.00    +0.000 HD
ATOM     28  H   UNL     1      -0.667   1.759 -22.335  0.00  0.00    +0.000 HD
ENDROOT
TORSDOF 0
ENDMDL
MODEL 7
REMARK VINA RESULT:    -6.457     15.139     17.081
REMARK INTER + INTRA:          -6.457
REMARK INTER:                  -6.457
REMARK INTRA:                   0.000
REMARK UNBOUND:                 0.000
REMARK  Name = /home/vital/Documents/PhD_2021/Malaria_codes/scripts/../data/pdbqt_ligands/ligand_27_temp.pdb
REMARK                            x       y       z     vdW  Elec       q    Type
REMARK                         _______ _______ _______ _____ _____    ______ ____
ROOT
ATOM      1  C   UNL     1       2.569   2.949 -14.892  0.00  0.00    -0.031 C 
ATOM      2  C   UNL     1       1.882   4.291 -15.101  0.00  0.00    +0.087 C 
ATOM      3  O   UNL     1       2.365   4.864 -16.327  0.00  0.00    -0.489 OA
ATOM      4  C   UNL     1       1.348   5.185 -17.192  0.00  0.00    +0.162 A 
ATOM      5  C   UNL     1       0.587   4.169 -17.778  0.00  0.00    -0.016 A 
ATOM      6  C   UNL     1      -0.412   4.488 -18.694  0.00  0.00    -0.054 A 
ATOM      7  C   UNL     1      -0.652   5.823 -19.038  0.00  0.00    -0.030 A 
ATOM      8  C   UNL     1      -1.724   6.175 -20.049  0.00  0.00    +0.022 C 
ATOM      9  N   UNL     1      -1.122   6.411 -21.359  0.00  0.00    -0.307 N 
ATOM     10  C   UNL     1      -2.085   6.521 -22.479  0.00  0.00    +0.035 C 
ATOM     11  C   UNL     1      -2.606   5.129 -22.863  0.00  0.00    -0.047 C 
ATOM     12  C   UNL     1      -3.230   7.575 -22.267  0.00  0.00    +0.099 C 
ATOM     13  O   UNL     1      -4.206   7.107 -21.329  0.00  0.00    -0.386 OA
ATOM     14  C   UNL     1      -3.829   8.063 -23.581  0.00  0.00    +0.036 A 
ATOM     15  C   UNL     1      -3.139   9.093 -24.249  0.00  0.00    +0.130 A 
ATOM     16  F   UNL     1      -2.012   9.589 -23.716  0.00  0.00    -0.205 F 
ATOM     17  C   UNL     1      -3.571   9.627 -25.463  0.00  0.00    -0.026 A 
ATOM     18  C   UNL     1      -4.725   9.131 -26.057  0.00  0.00    -0.058 A 
ATOM     19  C   UNL     1      -5.428   8.103 -25.430  0.00  0.00    -0.043 A 
ATOM     20  C   UNL     1      -4.984   7.570 -24.208  0.00  0.00    +0.049 A 
ATOM     21 CL   UNL     1      -5.932   6.276 -23.553  0.00  0.00    -0.083 Cl
ATOM     22  C   UNL     1       0.144   6.836 -18.469  0.00  0.00    -0.012 A 
ATOM     23  C   UNL     1       1.152   6.525 -17.550  0.00  0.00    +0.162 A 
ATOM     24  O   UNL     1       1.968   7.443 -16.939  0.00  0.00    -0.491 OA
ATOM     25  C   UNL     1       1.923   8.778 -17.432  0.00  0.00    +0.079 C 
ATOM     26  H   UNL     1      -0.489   5.637 -21.560  0.00  0.00    +0.000 HD
ATOM     27  H   UNL     1      -0.651   7.314 -21.298  0.00  0.00    +0.000 HD
ATOM     28  H   UNL     1      -4.640   6.313 -21.682  0.00  0.00    +0.000 HD
ENDROOT
TORSDOF 0
ENDMDL
MODEL 8
REMARK VINA RESULT:    -6.285      9.754     12.732
REMARK INTER + INTRA:          -6.285
REMARK INTER:                  -6.285
REMARK INTRA:                   0.000
REMARK UNBOUND:                 0.000
REMARK  Name = /home/vital/Documents/PhD_2021/Malaria_codes/scripts/../data/pdbqt_ligands/ligand_27_temp.pdb
REMARK                            x       y       z     vdW  Elec       q    Type
REMARK                         _______ _______ _______ _____ _____    ______ ____
ROOT
ATOM      1  C   UNL     1       7.720  -4.254 -26.285  0.00  0.00    -0.031 C 
ATOM      2  C   UNL     1       6.776  -4.918 -25.293  0.00  0.00    +0.087 C 
ATOM      3  O   UNL     1       6.198  -3.898 -24.462  0.00  0.00    -0.489 OA
ATOM      4  C   UNL     1       4.826  -3.931 -24.470  0.00  0.00    +0.162 A 
ATOM      5  C   UNL     1       4.130  -3.601 -25.636  0.00  0.00    -0.016 A 
ATOM      6  C   UNL     1       2.737  -3.584 -25.634  0.00  0.00    -0.054 A 
ATOM      7  C   UNL     1       2.030  -3.886 -24.464  0.00  0.00    -0.030 A 
ATOM      8  C   UNL     1       0.516  -3.850 -24.451  0.00  0.00    +0.022 C 
ATOM      9  N   UNL     1       0.049  -2.591 -23.876  0.00  0.00    -0.307 N 
ATOM     10  C   UNL     1      -1.402  -2.332 -24.033  0.00  0.00    +0.035 C 
ATOM     11  C   UNL     1      -1.706  -1.897 -25.473  0.00  0.00    -0.047 C 
ATOM     12  C   UNL     1      -2.339  -3.484 -23.521  0.00  0.00    +0.099 C 
ATOM     13  O   UNL     1      -2.330  -4.603 -24.415  0.00  0.00    -0.386 OA
ATOM     14  C   UNL     1      -3.738  -2.990 -23.171  0.00  0.00    +0.036 A 
ATOM     15  C   UNL     1      -3.910  -2.419 -21.896  0.00  0.00    +0.130 A 
ATOM     16  F   UNL     1      -2.862  -2.332 -21.063  0.00  0.00    -0.205 F 
ATOM     17  C   UNL     1      -5.134  -1.919 -21.451  0.00  0.00    -0.026 A 
ATOM     18  C   UNL     1      -6.241  -1.975 -22.288  0.00  0.00    -0.058 A 
ATOM     19  C   UNL     1      -6.106  -2.524 -23.563  0.00  0.00    -0.043 A 
ATOM     20  C   UNL     1      -4.868  -3.023 -24.004  0.00  0.00    +0.049 A 
ATOM     21 CL   UNL     1      -4.831  -3.648 -25.619  0.00  0.00    -0.083 Cl
ATOM     22  C   UNL     1       2.742  -4.182 -23.286  0.00  0.00    -0.012 A 
ATOM     23  C   UNL     1       4.141  -4.199 -23.277  0.00  0.00    +0.162 A 
ATOM     24  O   UNL     1       4.917  -4.484 -22.183  0.00  0.00    -0.491 OA
ATOM     25  C   UNL     1       4.255  -4.563 -20.924  0.00  0.00    +0.079 C 
ATOM     26  H   UNL     1       0.557  -1.829 -24.326  0.00  0.00    +0.000 HD
ATOM     27  H   UNL     1       0.220  -2.654 -22.872  0.00  0.00    +0.000 HD
ATOM     28  H   UNL     1      -2.689  -4.333 -25.275  0.00  0.00    +0.000 HD
ENDROOT
TORSDOF 0
ENDMDL
MODEL 9
REMARK VINA RESULT:    -6.186      5.162      8.099
REMARK INTER + INTRA:          -6.186
REMARK INTER:                  -6.186
REMARK INTRA:                   0.000
REMARK UNBOUND:                 0.000
REMARK  Name = /home/vital/Documents/PhD_2021/Malaria_codes/scripts/../data/pdbqt_ligands/ligand_27_temp.pdb
REMARK                            x       y       z     vdW  Elec       q    Type
REMARK                         _______ _______ _______ _____ _____    ______ ____
ROOT
ATOM      1  C   UNL     1       8.828  -3.236 -24.809  0.00  0.00    -0.031 C 
ATOM      2  C   UNL     1       7.341  -2.948 -24.966  0.00  0.00    +0.087 C 
ATOM      3  O   UNL     1       7.173  -1.972 -26.006  0.00  0.00    -0.489 OA
ATOM      4  C   UNL     1       6.314  -2.396 -26.989  0.00  0.00    +0.162 A 
ATOM      5  C   UNL     1       6.679  -3.457 -27.821  0.00  0.00    -0.016 A 
ATOM      6  C   UNL     1       5.831  -3.858 -28.852  0.00  0.00    -0.054 A 
ATOM      7  C   UNL     1       4.617  -3.194 -29.063  0.00  0.00    -0.030 A 
ATOM      8  C   UNL     1       3.700  -3.612 -30.194  0.00  0.00    +0.022 C 
ATOM      9  N   UNL     1       3.875  -2.720 -31.338  0.00  0.00    -0.307 N 
ATOM     10  C   UNL     1       3.218  -3.170 -32.588  0.00  0.00    +0.035 C 
ATOM     11  C   UNL     1       4.028  -4.306 -33.228  0.00  0.00    -0.047 C 
ATOM     12  C   UNL     1       1.688  -3.499 -32.450  0.00  0.00    +0.099 C 
ATOM     13  O   UNL     1       1.479  -4.739 -31.763  0.00  0.00    -0.386 OA
ATOM     14  C   UNL     1       0.945  -3.401 -33.777  0.00  0.00    +0.036 A 
ATOM     15  C   UNL     1       0.531  -2.117 -34.179  0.00  0.00    +0.130 A 
ATOM     16  F   UNL     1       0.802  -1.059 -33.399  0.00  0.00    -0.205 F 
ATOM     17  C   UNL     1      -0.150  -1.883 -35.374  0.00  0.00    -0.026 A 
ATOM     18  C   UNL     1      -0.437  -2.948 -36.218  0.00  0.00    -0.058 A 
ATOM     19  C   UNL     1      -0.032  -4.233 -35.857  0.00  0.00    -0.043 A 
ATOM     20  C   UNL     1       0.656  -4.459 -34.653  0.00  0.00    +0.049 A 
ATOM     21 CL   UNL     1       1.128  -6.096 -34.342  0.00  0.00    -0.083 Cl
ATOM     22  C   UNL     1       4.276  -2.103 -28.241  0.00  0.00    -0.012 A 
ATOM     23  C   UNL     1       5.122  -1.692 -27.205  0.00  0.00    +0.162 A 
ATOM     24  O   UNL     1       4.869  -0.649 -26.351  0.00  0.00    -0.491 OA
ATOM     25  C   UNL     1       3.772   0.200 -26.673  0.00  0.00    +0.079 C 
ATOM     26  H   UNL     1       4.875  -2.631 -31.520  0.00  0.00    +0.000 HD
ATOM     27  H   UNL     1       3.430  -1.838 -31.083  0.00  0.00    +0.000 HD
ATOM     28  H   UNL     1       1.860  -5.465 -32.283  0.00  0.00    +0.000 HD
ENDROOT
TORSDOF 0
ENDMDL
