MODEL 1
REMARK VINA RESULT:    -4.481      0.000      0.000
REMARK INTER + INTRA:          -4.481
REMARK INTER:                  -4.481
REMARK INTRA:                   0.000
REMARK UNBOUND:                 0.000
REMARK  Name = /home/vital/Documents/PhD_2021/Malaria_codes/scripts/../data/pdbqt_ligands/ligand_339_temp.pdb
REMARK                            x       y       z     vdW  Elec       q    Type
REMARK                         _______ _______ _______ _____ _____    ______ ____
ROOT
ATOM      1  C1  UNL     1       1.193  -5.479 -34.836  0.00  0.00    -0.016 C 
ATOM      2  C2  UNL     1       1.246  -4.215 -35.141  0.00  0.00    -0.001 C 
ATOM      3  C3  UNL     1       1.672  -3.155 -34.255  0.00  0.00    -0.053 C 
ATOM      4  C4  UNL     1       2.778  -3.073 -33.498  0.00  0.00    -0.060 C 
ATOM      5  C5  UNL     1       3.812  -4.068 -33.345  0.00  0.00    -0.044 C 
ATOM      6  C6  UNL     1       3.770  -5.086 -32.474  0.00  0.00    +0.029 C 
ATOM      7  N1  UNL     1       2.762  -5.299 -31.580  0.00  0.00    -0.248 NA
ATOM      8  C7  UNL     1       2.084  -6.391 -31.676  0.00  0.00    +0.083 C 
ATOM      9  N2  UNL     1       2.069  -7.451 -32.554  0.00  0.00    -0.316 N 
ATOM     10  C8  UNL     1       2.211  -7.277 -33.985  0.00  0.00    +0.112 C 
ATOM     11  N3  UNL     1       1.067  -6.628 -34.627  0.00  0.00    -0.223 N 
ATOM     12  H   UNL     1       1.956  -8.362 -32.196  0.00  0.00    +0.000 HD
ATOM     13  H   UNL     1       0.248  -7.120 -34.867  0.00  0.00    +0.000 HD
ENDROOT
TORSDOF 0
ENDMDL
MODEL 2
REMARK VINA RESULT:    -4.286      3.284      4.425
REMARK INTER + INTRA:          -4.286
REMARK INTER:                  -4.286
REMARK INTRA:                   0.000
REMARK UNBOUND:                 0.000
REMARK  Name = /home/vital/Documents/PhD_2021/Malaria_codes/scripts/../data/pdbqt_ligands/ligand_339_temp.pdb
REMARK                            x       y       z     vdW  Elec       q    Type
REMARK                         _______ _______ _______ _____ _____    ______ ____
ROOT
ATOM      1  C1  UNL     1       1.406  -8.348 -33.789  0.00  0.00    -0.016 C 
ATOM      2  C2  UNL     1       2.291  -7.806 -33.003  0.00  0.00    -0.001 C 
ATOM      3  C3  UNL     1       2.012  -6.834 -31.969  0.00  0.00    -0.053 C 
ATOM      4  C4  UNL     1       1.092  -6.873 -30.993  0.00  0.00    -0.060 C 
ATOM      5  C5  UNL     1       0.100  -7.895 -30.762  0.00  0.00    -0.044 C 
ATOM      6  C6  UNL     1      -1.101  -7.943 -31.355  0.00  0.00    +0.029 C 
ATOM      7  N1  UNL     1      -1.571  -7.006 -32.228  0.00  0.00    -0.248 NA
ATOM      8  C7  UNL     1      -1.842  -7.379 -33.431  0.00  0.00    +0.083 C 
ATOM      9  N2  UNL     1      -1.709  -8.553 -34.139  0.00  0.00    -0.316 N 
ATOM     10  C8  UNL     1      -0.548  -9.410 -34.011  0.00  0.00    +0.112 C 
ATOM     11  N3  UNL     1       0.681  -8.843 -34.569  0.00  0.00    -0.223 N 
ATOM     12  H   UNL     1      -2.429  -8.820 -34.755  0.00  0.00    +0.000 HD
ATOM     13  H   UNL     1       0.886  -8.875 -35.531  0.00  0.00    +0.000 HD
ENDROOT
TORSDOF 0
ENDMDL
MODEL 3
REMARK VINA RESULT:    -4.280     13.302     14.729
REMARK INTER + INTRA:          -4.280
REMARK INTER:                  -4.280
REMARK INTRA:                   0.000
REMARK UNBOUND:                 0.000
REMARK  Name = /home/vital/Documents/PhD_2021/Malaria_codes/scripts/../data/pdbqt_ligands/ligand_339_temp.pdb
REMARK                            x       y       z     vdW  Elec       q    Type
REMARK                         _______ _______ _______ _____ _____    ______ ____
ROOT
ATOM      1  C1  UNL     1      -2.212  -2.717 -21.447  0.00  0.00    -0.016 C 
ATOM      2  C2  UNL     1      -3.144  -3.002 -22.309  0.00  0.00    -0.001 C 
ATOM      3  C3  UNL     1      -4.551  -2.712 -22.150  0.00  0.00    -0.053 C 
ATOM      4  C4  UNL     1      -5.148  -1.559 -21.805  0.00  0.00    -0.060 C 
ATOM      5  C5  UNL     1      -4.512  -0.313 -21.454  0.00  0.00    -0.044 C 
ATOM      6  C6  UNL     1      -4.077   0.004 -20.227  0.00  0.00    +0.029 C 
ATOM      7  N1  UNL     1      -4.215  -0.791 -19.128  0.00  0.00    -0.248 NA
ATOM      8  C7  UNL     1      -3.145  -1.205 -18.539  0.00  0.00    +0.083 C 
ATOM      9  N2  UNL     1      -1.795  -1.098 -18.788  0.00  0.00    -0.316 N 
ATOM     10  C8  UNL     1      -1.241  -1.202 -20.121  0.00  0.00    +0.112 C 
ATOM     11  N3  UNL     1      -1.320  -2.544 -20.702  0.00  0.00    -0.223 N 
ATOM     12  H   UNL     1      -1.184  -0.946 -18.030  0.00  0.00    +0.000 HD
ATOM     13  H   UNL     1      -0.672  -3.252 -20.483  0.00  0.00    +0.000 HD
ENDROOT
TORSDOF 0
ENDMDL
MODEL 4
REMARK VINA RESULT:    -4.253      1.665      3.180
REMARK INTER + INTRA:          -4.253
REMARK INTER:                  -4.253
REMARK INTRA:                   0.000
REMARK UNBOUND:                 0.000
REMARK  Name = /home/vital/Documents/PhD_2021/Malaria_codes/scripts/../data/pdbqt_ligands/ligand_339_temp.pdb
REMARK                            x       y       z     vdW  Elec       q    Type
REMARK                         _______ _______ _______ _____ _____    ______ ____
ROOT
ATOM      1  C1  UNL     1       1.617  -7.201 -33.833  0.00  0.00    -0.016 C 
ATOM      2  C2  UNL     1       2.724  -7.252 -33.151  0.00  0.00    -0.001 C 
ATOM      3  C3  UNL     1       3.702  -6.192 -33.055  0.00  0.00    -0.053 C 
ATOM      4  C4  UNL     1       3.521  -4.893 -32.764  0.00  0.00    -0.060 C 
ATOM      5  C5  UNL     1       2.272  -4.215 -32.518  0.00  0.00    -0.044 C 
ATOM      6  C6  UNL     1       1.479  -3.704 -33.470  0.00  0.00    +0.029 C 
ATOM      7  N1  UNL     1       1.764  -3.717 -34.804  0.00  0.00    -0.248 NA
ATOM      8  C7  UNL     1       0.966  -4.354 -35.590  0.00  0.00    +0.083 C 
ATOM      9  N2  UNL     1      -0.150  -5.140 -35.413  0.00  0.00    -0.316 N 
ATOM     10  C8  UNL     1      -0.262  -6.099 -34.334  0.00  0.00    +0.112 C 
ATOM     11  N3  UNL     1       0.627  -7.255 -34.463  0.00  0.00    -0.223 N 
ATOM     12  H   UNL     1      -0.900  -5.048 -36.045  0.00  0.00    +0.000 HD
ATOM     13  H   UNL     1       0.411  -8.025 -35.037  0.00  0.00    +0.000 HD
ENDROOT
TORSDOF 0
ENDMDL
MODEL 5
REMARK VINA RESULT:    -4.187     18.840     20.177
REMARK INTER + INTRA:          -4.187
REMARK INTER:                  -4.187
REMARK INTRA:                   0.000
REMARK UNBOUND:                 0.000
REMARK  Name = /home/vital/Documents/PhD_2021/Malaria_codes/scripts/../data/pdbqt_ligands/ligand_339_temp.pdb
REMARK                            x       y       z     vdW  Elec       q    Type
REMARK                         _______ _______ _______ _____ _____    ______ ____
ROOT
ATOM      1  C1  UNL     1       1.856   7.355 -16.299  0.00  0.00    -0.016 C 
ATOM      2  C2  UNL     1       1.846   8.130 -17.345  0.00  0.00    -0.001 C 
ATOM      3  C3  UNL     1       1.551   7.712 -18.697  0.00  0.00    -0.053 C 
ATOM      4  C4  UNL     1       0.517   6.989 -19.156  0.00  0.00    -0.060 C 
ATOM      5  C5  UNL     1      -0.551   6.399 -18.387  0.00  0.00    -0.044 C 
ATOM      6  C6  UNL     1      -0.491   5.200 -17.790  0.00  0.00    +0.029 C 
ATOM      7  N1  UNL     1       0.574   4.352 -17.862  0.00  0.00    -0.248 NA
ATOM      8  C7  UNL     1       1.183   4.047 -16.767  0.00  0.00    +0.083 C 
ATOM      9  N2  UNL     1       1.070   4.435 -15.451  0.00  0.00    -0.316 N 
ATOM     10  C8  UNL     1       0.819   5.808 -15.064  0.00  0.00    +0.112 C 
ATOM     11  N3  UNL     1       1.939   6.717 -15.317  0.00  0.00    -0.223 N 
ATOM     12  H   UNL     1       1.163   3.753 -14.746  0.00  0.00    +0.000 HD
ATOM     13  H   UNL     1       2.707   6.788 -14.706  0.00  0.00    +0.000 HD
ENDROOT
TORSDOF 0
ENDMDL
MODEL 6
REMARK VINA RESULT:    -4.046      2.396      3.780
REMARK INTER + INTRA:          -4.046
REMARK INTER:                  -4.046
REMARK INTRA:                   0.000
REMARK UNBOUND:                 0.000
REMARK  Name = /home/vital/Documents/PhD_2021/Malaria_codes/scripts/../data/pdbqt_ligands/ligand_339_temp.pdb
REMARK                            x       y       z     vdW  Elec       q    Type
REMARK                         _______ _______ _______ _____ _____    ______ ____
ROOT
ATOM      1  C1  UNL     1       1.482  -6.144 -34.644  0.00  0.00    -0.016 C 
ATOM      2  C2  UNL     1       0.756  -5.078 -34.816  0.00  0.00    -0.001 C 
ATOM      3  C3  UNL     1      -0.689  -5.042 -34.853  0.00  0.00    -0.053 C 
ATOM      4  C4  UNL     1      -1.574  -5.571 -33.993  0.00  0.00    -0.060 C 
ATOM      5  C5  UNL     1      -1.292  -6.363 -32.820  0.00  0.00    -0.044 C 
ATOM      6  C6  UNL     1      -1.100  -7.689 -32.822  0.00  0.00    +0.029 C 
ATOM      7  N1  UNL     1      -1.186  -8.483 -33.928  0.00  0.00    -0.248 NA
ATOM      8  C7  UNL     1      -0.132  -9.126 -34.298  0.00  0.00    +0.083 C 
ATOM      9  N2  UNL     1       1.177  -9.173 -33.874  0.00  0.00    -0.316 N 
ATOM     10  C8  UNL     1       1.903  -7.991 -33.459  0.00  0.00    +0.112 C 
ATOM     11  N3  UNL     1       2.209  -7.061 -34.548  0.00  0.00    -0.223 N 
ATOM     12  H   UNL     1       1.637 -10.044 -33.852  0.00  0.00    +0.000 HD
ATOM     13  H   UNL     1       2.971  -7.196 -35.157  0.00  0.00    +0.000 HD
ENDROOT
TORSDOF 0
ENDMDL
MODEL 7
REMARK VINA RESULT:    -3.940     14.005     14.844
REMARK INTER + INTRA:          -3.940
REMARK INTER:                  -3.940
REMARK INTRA:                   0.000
REMARK UNBOUND:                 0.000
REMARK  Name = /home/vital/Documents/PhD_2021/Malaria_codes/scripts/../data/pdbqt_ligands/ligand_339_temp.pdb
REMARK                            x       y       z     vdW  Elec       q    Type
REMARK                         _______ _______ _______ _____ _____    ______ ____
ROOT
ATOM      1  C1  UNL     1      -9.709 -11.261 -28.997  0.00  0.00    -0.016 C 
ATOM      2  C2  UNL     1      -9.008 -11.805 -28.045  0.00  0.00    -0.001 C 
ATOM      3  C3  UNL     1      -8.772 -13.222 -27.881  0.00  0.00    -0.053 C 
ATOM      4  C4  UNL     1      -8.348 -14.123 -28.782  0.00  0.00    -0.060 C 
ATOM      5  C5  UNL     1      -8.063 -13.900 -30.178  0.00  0.00    -0.044 C 
ATOM      6  C6  UNL     1      -8.974 -13.936 -31.160  0.00  0.00    +0.029 C 
ATOM      7  N1  UNL     1     -10.293 -14.231 -30.980  0.00  0.00    -0.248 NA
ATOM      8  C7  UNL     1     -11.165 -13.330 -31.280  0.00  0.00    +0.083 C 
ATOM      9  N2  UNL     1     -11.103 -12.022 -31.706  0.00  0.00    -0.316 N 
ATOM     10  C8  UNL     1     -10.137 -11.079 -31.183  0.00  0.00    +0.112 C 
ATOM     11  N3  UNL     1     -10.367 -10.695 -29.788  0.00  0.00    -0.223 N 
ATOM     12  H   UNL     1     -11.740 -11.717 -32.392  0.00  0.00    +0.000 HD
ATOM     13  H   UNL     1     -11.027 -10.011 -29.533  0.00  0.00    +0.000 HD
ENDROOT
TORSDOF 0
ENDMDL
MODEL 8
REMARK VINA RESULT:    -3.862      3.016      4.523
REMARK INTER + INTRA:          -3.862
REMARK INTER:                  -3.862
REMARK INTRA:                   0.000
REMARK UNBOUND:                 0.000
REMARK  Name = /home/vital/Documents/PhD_2021/Malaria_codes/scripts/../data/pdbqt_ligands/ligand_339_temp.pdb
REMARK                            x       y       z     vdW  Elec       q    Type
REMARK                         _______ _______ _______ _____ _____    ______ ____
ROOT
ATOM      1  C1  UNL     1      -0.912  -9.150 -31.863  0.00  0.00    -0.016 C 
ATOM      2  C2  UNL     1      -1.110  -8.365 -30.844  0.00  0.00    -0.001 C 
ATOM      3  C3  UNL     1      -0.428  -7.113 -30.603  0.00  0.00    -0.053 C 
ATOM      4  C4  UNL     1      -0.238  -6.075 -31.434  0.00  0.00    -0.060 C 
ATOM      5  C5  UNL     1      -0.637  -5.974 -32.816  0.00  0.00    -0.044 C 
ATOM      6  C6  UNL     1       0.080  -6.425 -33.854  0.00  0.00    +0.029 C 
ATOM      7  N1  UNL     1       1.310  -7.006 -33.751  0.00  0.00    -0.248 NA
ATOM      8  C7  UNL     1       1.442  -8.225 -34.147  0.00  0.00    +0.083 C 
ATOM      9  N2  UNL     1       0.584  -9.190 -34.624  0.00  0.00    -0.316 N 
ATOM     10  C8  UNL     1      -0.743  -9.389 -34.078  0.00  0.00    +0.112 C 
ATOM     11  N3  UNL     1      -0.758  -9.937 -32.720  0.00  0.00    -0.223 N 
ATOM     12  H   UNL     1       0.884  -9.767 -35.363  0.00  0.00    +0.000 HD
ATOM     13  H   UNL     1      -0.646 -10.898 -32.539  0.00  0.00    +0.000 HD
ENDROOT
TORSDOF 0
ENDMDL
MODEL 9
REMARK VINA RESULT:    -3.840      3.501      4.695
REMARK INTER + INTRA:          -3.840
REMARK INTER:                  -3.840
REMARK INTRA:                   0.000
REMARK UNBOUND:                 0.000
REMARK  Name = /home/vital/Documents/PhD_2021/Malaria_codes/scripts/../data/pdbqt_ligands/ligand_339_temp.pdb
REMARK                            x       y       z     vdW  Elec       q    Type
REMARK                         _______ _______ _______ _____ _____    ______ ____
ROOT
ATOM      1  C1  UNL     1      -0.329  -9.222 -34.391  0.00  0.00    -0.016 C 
ATOM      2  C2  UNL     1      -1.623  -9.262 -34.523  0.00  0.00    -0.001 C 
ATOM      3  C3  UNL     1      -2.582  -8.908 -33.501  0.00  0.00    -0.053 C 
ATOM      4  C4  UNL     1      -2.641  -7.806 -32.737  0.00  0.00    -0.060 C 
ATOM      5  C5  UNL     1      -1.712  -6.702 -32.715  0.00  0.00    -0.044 C 
ATOM      6  C6  UNL     1      -0.586  -6.665 -31.989  0.00  0.00    +0.029 C 
ATOM      7  N1  UNL     1      -0.184  -7.649 -31.135  0.00  0.00    -0.248 NA
ATOM      8  C7  UNL     1       0.932  -8.247 -31.379  0.00  0.00    +0.083 C 
ATOM      9  N2  UNL     1       1.863  -8.192 -32.391  0.00  0.00    -0.316 N 
ATOM     10  C8  UNL     1       1.489  -8.072 -33.785  0.00  0.00    +0.112 C 
ATOM     11  N3  UNL     1       0.844  -9.264 -34.339  0.00  0.00    -0.223 N 
ATOM     12  H   UNL     1       2.819  -8.236 -32.159  0.00  0.00    +0.000 HD
ATOM     13  H   UNL     1       1.357 -10.046 -34.645  0.00  0.00    +0.000 HD
ENDROOT
TORSDOF 0
ENDMDL
