MODEL 1
REMARK VINA RESULT:    -4.720      0.000      0.000
REMARK INTER + INTRA:          -4.720
REMARK INTER:                  -4.720
REMARK INTRA:                   0.000
REMARK UNBOUND:                 0.000
REMARK  Name = /home/vital/Documents/PhD_2021/Malaria_codes/scripts/../data/pdbqt_ligands/ligand_181_temp.pdb
REMARK                            x       y       z     vdW  Elec       q    Type
REMARK                         _______ _______ _______ _____ _____    ______ ____
ROOT
ATOM      1  C1  UNL     1       9.569  -3.153 -24.302  0.00  0.00    -0.047 C 
ATOM      2  C2  UNL     1       8.514  -2.572 -25.185  0.00  0.00    -0.091 C 
ATOM      3  C3  UNL     1       7.431  -3.188 -25.687  0.00  0.00    -0.080 C 
ATOM      4  C4  UNL     1       7.016  -4.619 -25.506  0.00  0.00    +0.042 C 
ATOM      5  C5  UNL     1       5.749  -4.679 -24.663  0.00  0.00    +0.217 C 
ATOM      6  O1  UNL     1       4.629  -4.567 -25.152  0.00  0.00    -0.275 OA
ATOM      7  N1  UNL     1       5.983  -4.831 -23.313  0.00  0.00    -0.315 N 
ATOM      8  C6  UNL     1       4.896  -4.968 -22.366  0.00  0.00    +0.014 C 
ATOM      9  C7  UNL     1       5.307  -4.546 -20.947  0.00  0.00    -0.029 C 
ATOM     10  C8  UNL     1       4.165  -4.829 -19.969  0.00  0.00    -0.061 C 
ATOM     11  C9  UNL     1       5.787  -3.083 -20.854  0.00  0.00    -0.052 C 
ATOM     12  C10 UNL     1       4.775  -2.035 -21.296  0.00  0.00    -0.065 C 
ATOM     13  H   UNL     1       6.910  -4.845 -22.984  0.00  0.00    +0.000 HD
ENDROOT
TORSDOF 0
ENDMDL
MODEL 2
REMARK VINA RESULT:    -4.582     12.010     13.420
REMARK INTER + INTRA:          -4.582
REMARK INTER:                  -4.582
REMARK INTRA:                   0.000
REMARK UNBOUND:                 0.000
REMARK  Name = /home/vital/Documents/PhD_2021/Malaria_codes/scripts/../data/pdbqt_ligands/ligand_181_temp.pdb
REMARK                            x       y       z     vdW  Elec       q    Type
REMARK                         _______ _______ _______ _____ _____    ______ ____
ROOT
ATOM      1  C1  UNL     1       2.996   8.120 -16.676  0.00  0.00    -0.047 C 
ATOM      2  C2  UNL     1       3.500   6.723 -16.519  0.00  0.00    -0.091 C 
ATOM      3  C3  UNL     1       3.027   5.764 -15.707  0.00  0.00    -0.080 C 
ATOM      4  C4  UNL     1       1.886   5.857 -14.736  0.00  0.00    +0.042 C 
ATOM      5  C5  UNL     1       0.734   4.987 -15.221  0.00  0.00    +0.217 C 
ATOM      6  O1  UNL     1       0.663   3.788 -14.967  0.00  0.00    -0.275 OA
ATOM      7  N1  UNL     1      -0.189   5.661 -15.994  0.00  0.00    -0.315 N 
ATOM      8  C6  UNL     1      -1.382   5.009 -16.491  0.00  0.00    +0.014 C 
ATOM      9  C7  UNL     1      -1.940   5.700 -17.745  0.00  0.00    -0.029 C 
ATOM     10  C8  UNL     1      -3.264   5.050 -18.152  0.00  0.00    -0.061 C 
ATOM     11  C9  UNL     1      -0.941   5.742 -18.920  0.00  0.00    -0.052 C 
ATOM     12  C10 UNL     1      -0.449   4.386 -19.406  0.00  0.00    -0.065 C 
ATOM     13  H   UNL     1      -0.032   6.607 -16.214  0.00  0.00    +0.000 HD
ENDROOT
TORSDOF 0
ENDMDL
MODEL 3
REMARK VINA RESULT:    -4.531      9.431     11.368
REMARK INTER + INTRA:          -4.531
REMARK INTER:                  -4.531
REMARK INTRA:                   0.000
REMARK UNBOUND:                 0.000
REMARK  Name = /home/vital/Documents/PhD_2021/Malaria_codes/scripts/../data/pdbqt_ligands/ligand_181_temp.pdb
REMARK                            x       y       z     vdW  Elec       q    Type
REMARK                         _______ _______ _______ _____ _____    ______ ____
ROOT
ATOM      1  C1  UNL     1       0.670  -3.935 -36.239  0.00  0.00    -0.047 C 
ATOM      2  C2  UNL     1      -0.109  -4.431 -35.065  0.00  0.00    -0.091 C 
ATOM      3  C3  UNL     1       0.129  -5.524 -34.322  0.00  0.00    -0.080 C 
ATOM      4  C4  UNL     1       1.226  -6.535 -34.493  0.00  0.00    +0.042 C 
ATOM      5  C5  UNL     1       2.200  -6.432 -33.328  0.00  0.00    +0.217 C 
ATOM      6  O1  UNL     1       2.020  -7.021 -32.266  0.00  0.00    -0.275 OA
ATOM      7  N1  UNL     1       3.269  -5.594 -33.566  0.00  0.00    -0.315 N 
ATOM      8  C6  UNL     1       4.328  -5.422 -32.593  0.00  0.00    +0.014 C 
ATOM      9  C7  UNL     1       5.064  -4.085 -32.770  0.00  0.00    -0.029 C 
ATOM     10  C8  UNL     1       6.248  -4.010 -31.803  0.00  0.00    -0.061 C 
ATOM     11  C9  UNL     1       4.143  -2.854 -32.639  0.00  0.00    -0.052 C 
ATOM     12  C10 UNL     1       3.410  -2.725 -31.311  0.00  0.00    -0.065 C 
ATOM     13  H   UNL     1       3.314  -5.102 -34.416  0.00  0.00    +0.000 HD
ENDROOT
TORSDOF 0
ENDMDL
MODEL 4
REMARK VINA RESULT:    -4.322     10.156     11.611
REMARK INTER + INTRA:          -4.322
REMARK INTER:                  -4.322
REMARK INTRA:                   0.000
REMARK UNBOUND:                 0.000
REMARK  Name = /home/vital/Documents/PhD_2021/Malaria_codes/scripts/../data/pdbqt_ligands/ligand_181_temp.pdb
REMARK                            x       y       z     vdW  Elec       q    Type
REMARK                         _______ _______ _______ _____ _____    ______ ____
ROOT
ATOM      1  C1  UNL     1       4.980  -4.374 -33.082  0.00  0.00    -0.047 C 
ATOM      2  C2  UNL     1       3.929  -3.577 -32.383  0.00  0.00    -0.091 C 
ATOM      3  C3  UNL     1       2.727  -3.206 -32.855  0.00  0.00    -0.080 C 
ATOM      4  C4  UNL     1       2.144  -3.483 -34.211  0.00  0.00    +0.042 C 
ATOM      5  C5  UNL     1       0.973  -4.446 -34.074  0.00  0.00    +0.217 C 
ATOM      6  O1  UNL     1      -0.166  -4.066 -33.820  0.00  0.00    -0.275 OA
ATOM      7  N1  UNL     1       1.320  -5.773 -34.223  0.00  0.00    -0.315 N 
ATOM      8  C6  UNL     1       0.326  -6.825 -34.186  0.00  0.00    +0.014 C 
ATOM      9  C7  UNL     1       0.934  -8.180 -33.790  0.00  0.00    -0.029 C 
ATOM     10  C8  UNL     1      -0.131  -9.276 -33.888  0.00  0.00    -0.061 C 
ATOM     11  C9  UNL     1       1.614  -8.170 -32.406  0.00  0.00    -0.052 C 
ATOM     12  C10 UNL     1       0.713  -7.788 -31.239  0.00  0.00    -0.065 C 
ATOM     13  H   UNL     1       2.266  -6.010 -34.358  0.00  0.00    +0.000 HD
ENDROOT
TORSDOF 0
ENDMDL
MODEL 5
REMARK VINA RESULT:    -4.236     11.724     13.435
REMARK INTER + INTRA:          -4.236
REMARK INTER:                  -4.236
REMARK INTRA:                   0.000
REMARK UNBOUND:                 0.000
REMARK  Name = /home/vital/Documents/PhD_2021/Malaria_codes/scripts/../data/pdbqt_ligands/ligand_181_temp.pdb
REMARK                            x       y       z     vdW  Elec       q    Type
REMARK                         _______ _______ _______ _____ _____    ______ ____
ROOT
ATOM      1  C1  UNL     1      -4.233  -0.170 -20.234  0.00  0.00    -0.047 C 
ATOM      2  C2  UNL     1      -3.630  -0.930 -21.369  0.00  0.00    -0.091 C 
ATOM      3  C3  UNL     1      -4.250  -1.755 -22.229  0.00  0.00    -0.080 C 
ATOM      4  C4  UNL     1      -5.701  -2.140 -22.253  0.00  0.00    +0.042 C 
ATOM      5  C5  UNL     1      -6.363  -1.550 -23.491  0.00  0.00    +0.217 C 
ATOM      6  O1  UNL     1      -6.343  -2.115 -24.581  0.00  0.00    -0.275 OA
ATOM      7  N1  UNL     1      -6.945  -0.318 -23.280  0.00  0.00    -0.315 N 
ATOM      8  C6  UNL     1      -7.674   0.366 -24.327  0.00  0.00    +0.014 C 
ATOM      9  C7  UNL     1      -7.724   1.885 -24.100  0.00  0.00    -0.029 C 
ATOM     10  C8  UNL     1      -8.608   2.541 -25.163  0.00  0.00    -0.061 C 
ATOM     11  C9  UNL     1      -6.332   2.544 -24.032  0.00  0.00    -0.052 C 
ATOM     12  C10 UNL     1      -5.462   2.363 -25.268  0.00  0.00    -0.065 C 
ATOM     13  H   UNL     1      -6.864   0.107 -22.396  0.00  0.00    +0.000 HD
ENDROOT
TORSDOF 0
ENDMDL
MODEL 6
REMARK VINA RESULT:    -4.222     12.408     13.996
REMARK INTER + INTRA:          -4.222
REMARK INTER:                  -4.222
REMARK INTRA:                   0.000
REMARK UNBOUND:                 0.000
REMARK  Name = /home/vital/Documents/PhD_2021/Malaria_codes/scripts/../data/pdbqt_ligands/ligand_181_temp.pdb
REMARK                            x       y       z     vdW  Elec       q    Type
REMARK                         _______ _______ _______ _____ _____    ______ ____
ROOT
ATOM      1  C1  UNL     1       3.811   4.659 -12.642  0.00  0.00    -0.047 C 
ATOM      2  C2  UNL     1       3.250   3.680 -13.620  0.00  0.00    -0.091 C 
ATOM      3  C3  UNL     1       2.054   3.721 -14.231  0.00  0.00    -0.080 C 
ATOM      4  C4  UNL     1       0.971   4.748 -14.072  0.00  0.00    +0.042 C 
ATOM      5  C5  UNL     1       0.833   5.546 -15.361  0.00  0.00    +0.217 C 
ATOM      6  O1  UNL     1       0.136   5.166 -16.298  0.00  0.00    -0.275 OA
ATOM      7  N1  UNL     1       1.586   6.700 -15.388  0.00  0.00    -0.315 N 
ATOM      8  C6  UNL     1       1.532   7.615 -16.509  0.00  0.00    +0.014 C 
ATOM      9  C7  UNL     1       2.804   8.470 -16.620  0.00  0.00    -0.029 C 
ATOM     10  C8  UNL     1       2.642   9.501 -17.740  0.00  0.00    -0.061 C 
ATOM     11  C9  UNL     1       4.092   7.639 -16.794  0.00  0.00    -0.052 C 
ATOM     12  C10 UNL     1       4.123   6.731 -18.016  0.00  0.00    -0.065 C 
ATOM     13  H   UNL     1       2.175   6.908 -14.628  0.00  0.00    +0.000 HD
ENDROOT
TORSDOF 0
ENDMDL
MODEL 7
REMARK VINA RESULT:    -4.220      8.445     10.471
REMARK INTER + INTRA:          -4.220
REMARK INTER:                  -4.220
REMARK INTRA:                   0.000
REMARK UNBOUND:                 0.000
REMARK  Name = /home/vital/Documents/PhD_2021/Malaria_codes/scripts/../data/pdbqt_ligands/ligand_181_temp.pdb
REMARK                            x       y       z     vdW  Elec       q    Type
REMARK                         _______ _______ _______ _____ _____    ______ ____
ROOT
ATOM      1  C1  UNL     1      -6.288  -1.240 -22.317  0.00  0.00    -0.047 C 
ATOM      2  C2  UNL     1      -5.107  -0.327 -22.351  0.00  0.00    -0.091 C 
ATOM      3  C3  UNL     1      -4.060  -0.303 -21.509  0.00  0.00    -0.080 C 
ATOM      4  C4  UNL     1      -3.822  -1.174 -20.309  0.00  0.00    +0.042 C 
ATOM      5  C5  UNL     1      -2.642  -2.099 -20.578  0.00  0.00    +0.217 C 
ATOM      6  O1  UNL     1      -1.480  -1.756 -20.381  0.00  0.00    -0.275 OA
ATOM      7  N1  UNL     1      -3.000  -3.327 -21.093  0.00  0.00    -0.315 N 
ATOM      8  C6  UNL     1      -2.016  -4.356 -21.353  0.00  0.00    +0.014 C 
ATOM      9  C7  UNL     1      -2.493  -5.358 -22.416  0.00  0.00    -0.029 C 
ATOM     10  C8  UNL     1      -1.473  -6.490 -22.559  0.00  0.00    -0.061 C 
ATOM     11  C9  UNL     1      -2.816  -4.706 -23.776  0.00  0.00    -0.052 C 
ATOM     12  C10 UNL     1      -1.662  -3.960 -24.432  0.00  0.00    -0.065 C 
ATOM     13  H   UNL     1      -3.948  -3.508 -21.290  0.00  0.00    +0.000 HD
ENDROOT
TORSDOF 0
ENDMDL
MODEL 8
REMARK VINA RESULT:    -4.150     11.895     13.290
REMARK INTER + INTRA:          -4.150
REMARK INTER:                  -4.150
REMARK INTRA:                   0.000
REMARK UNBOUND:                 0.000
REMARK  Name = /home/vital/Documents/PhD_2021/Malaria_codes/scripts/../data/pdbqt_ligands/ligand_181_temp.pdb
REMARK                            x       y       z     vdW  Elec       q    Type
REMARK                         _______ _______ _______ _____ _____    ______ ____
ROOT
ATOM      1  C1  UNL     1      -0.946  -9.483 -34.344  0.00  0.00    -0.047 C 
ATOM      2  C2  UNL     1      -0.387  -9.113 -33.009  0.00  0.00    -0.091 C 
ATOM      3  C3  UNL     1       0.817  -8.582 -32.738  0.00  0.00    -0.080 C 
ATOM      4  C4  UNL     1       1.914  -8.245 -33.706  0.00  0.00    +0.042 C 
ATOM      5  C5  UNL     1       2.083  -6.734 -33.777  0.00  0.00    +0.217 C 
ATOM      6  O1  UNL     1       2.786  -6.112 -32.986  0.00  0.00    -0.275 OA
ATOM      7  N1  UNL     1       1.348  -6.135 -34.780  0.00  0.00    -0.315 N 
ATOM      8  C6  UNL     1       1.432  -4.713 -35.036  0.00  0.00    +0.014 C 
ATOM      9  C7  UNL     1       0.176  -4.177 -35.739  0.00  0.00    -0.029 C 
ATOM     10  C8  UNL     1       0.370  -2.701 -36.097  0.00  0.00    -0.061 C 
ATOM     11  C9  UNL     1      -1.123  -4.402 -34.938  0.00  0.00    -0.052 C 
ATOM     12  C10 UNL     1      -1.152  -3.773 -33.552  0.00  0.00    -0.065 C 
ATOM     13  H   UNL     1       0.752  -6.688 -35.334  0.00  0.00    +0.000 HD
ENDROOT
TORSDOF 0
ENDMDL
MODEL 9
REMARK VINA RESULT:    -4.033     11.529     13.486
REMARK INTER + INTRA:          -4.033
REMARK INTER:                  -4.033
REMARK INTRA:                   0.000
REMARK UNBOUND:                 0.000
REMARK  Name = /home/vital/Documents/PhD_2021/Malaria_codes/scripts/../data/pdbqt_ligands/ligand_181_temp.pdb
REMARK                            x       y       z     vdW  Elec       q    Type
REMARK                         _______ _______ _______ _____ _____    ______ ____
ROOT
ATOM      1  C1  UNL     1       5.749   5.809 -13.726  0.00  0.00    -0.047 C 
ATOM      2  C2  UNL     1       5.207   4.419 -13.651  0.00  0.00    -0.091 C 
ATOM      3  C3  UNL     1       3.968   4.037 -13.301  0.00  0.00    -0.080 C 
ATOM      4  C4  UNL     1       2.820   4.907 -12.876  0.00  0.00    +0.042 C 
ATOM      5  C5  UNL     1       1.733   4.871 -13.942  0.00  0.00    +0.217 C 
ATOM      6  O1  UNL     1       0.872   3.998 -13.974  0.00  0.00    -0.275 OA
ATOM      7  N1  UNL     1       1.834   5.881 -14.876  0.00  0.00    -0.315 N 
ATOM      8  C6  UNL     1       0.852   6.041 -15.928  0.00  0.00    +0.014 C 
ATOM      9  C7  UNL     1       1.421   6.791 -17.142  0.00  0.00    -0.029 C 
ATOM     10  C8  UNL     1       0.312   7.042 -18.166  0.00  0.00    -0.061 C 
ATOM     11  C9  UNL     1       2.640   6.094 -17.782  0.00  0.00    -0.052 C 
ATOM     12  C10 UNL     1       2.393   4.676 -18.278  0.00  0.00    -0.065 C 
ATOM     13  H   UNL     1       2.591   6.507 -14.828  0.00  0.00    +0.000 HD
ENDROOT
TORSDOF 0
ENDMDL
