MODEL 1
REMARK VINA RESULT:    -6.601      0.000      0.000
REMARK INTER + INTRA:          -6.601
REMARK INTER:                  -6.601
REMARK INTRA:                   0.000
REMARK UNBOUND:                 0.000
REMARK  Name = /home/vital/Documents/PhD_2021/Malaria_codes/scripts/../data/pdbqt_ligands/ligand_53_temp.pdb
REMARK                            x       y       z     vdW  Elec       q    Type
REMARK                         _______ _______ _______ _____ _____    ______ ____
ROOT
ATOM      1  C   UNL     1       5.911  -4.278 -28.285  0.00  0.00    -0.117 C 
ATOM      2  C   UNL     1       5.738  -3.892 -29.409  0.00  0.00    -0.078 C 
ATOM      3  C   UNL     1       5.529  -3.422 -30.793  0.00  0.00    +0.117 C 
ATOM      4  N   UNL     1       4.687  -4.430 -31.416  0.00  0.00    -0.236 N 
ATOM      5  C   UNL     1       4.902  -4.919 -32.578  0.00  0.00    +0.196 C 
ATOM      6  N   UNL     1       5.901  -4.567 -33.443  0.00  0.00    -0.370 N 
ATOM      7  N   UNL     1       4.160  -5.904 -33.176  0.00  0.00    -0.326 N 
ATOM      8  C   UNL     1       3.012  -6.567 -32.697  0.00  0.00    +0.042 A 
ATOM      9  C   UNL     1       2.587  -7.732 -33.363  0.00  0.00    -0.037 A 
ATOM     10  C   UNL     1       1.429  -8.414 -32.976  0.00  0.00    -0.046 A 
ATOM     11  C   UNL     1       0.664  -7.926 -31.923  0.00  0.00    +0.018 A 
ATOM     12 BR   UNL     1      -0.904  -8.839 -31.395  0.00  0.00    -0.050 Br
ATOM     13  C   UNL     1       1.044  -6.762 -31.265  0.00  0.00    -0.046 A 
ATOM     14  C   UNL     1       2.205  -6.086 -31.659  0.00  0.00    -0.037 A 
ATOM     15  C   UNL     1       4.849  -2.034 -30.818  0.00  0.00    -0.013 C 
ATOM     16  C   UNL     1       4.861  -1.430 -32.226  0.00  0.00    -0.060 C 
ATOM     17  C   UNL     1       3.414  -2.037 -30.276  0.00  0.00    -0.060 C 
ATOM     18  H   UNL     1       3.906  -4.757 -30.913  0.00  0.00    +0.000 HD
ATOM     19  H   UNL     1       6.547  -3.867 -33.191  0.00  0.00    +0.000 HD
ATOM     20  H   UNL     1       5.975  -5.013 -34.318  0.00  0.00    +0.000 HD
ATOM     21  H   UNL     1       4.473  -6.188 -34.065  0.00  0.00    +0.000 HD
ENDROOT
TORSDOF 0
ENDMDL
MODEL 2
REMARK VINA RESULT:    -6.277      4.013      4.622
REMARK INTER + INTRA:          -6.277
REMARK INTER:                  -6.277
REMARK INTRA:                   0.000
REMARK UNBOUND:                 0.000
REMARK  Name = /home/vital/Documents/PhD_2021/Malaria_codes/scripts/../data/pdbqt_ligands/ligand_53_temp.pdb
REMARK                            x       y       z     vdW  Elec       q    Type
REMARK                         _______ _______ _______ _____ _____    ______ ____
ROOT
ATOM      1  C   UNL     1       1.568  -4.739 -28.829  0.00  0.00    -0.117 C 
ATOM      2  C   UNL     1       2.461  -4.751 -29.632  0.00  0.00    -0.078 C 
ATOM      3  C   UNL     1       3.556  -4.773 -30.622  0.00  0.00    +0.117 C 
ATOM      4  N   UNL     1       2.954  -4.324 -31.867  0.00  0.00    -0.236 N 
ATOM      5  C   UNL     1       3.141  -4.896 -32.995  0.00  0.00    +0.196 C 
ATOM      6  N   UNL     1       3.948  -5.971 -33.244  0.00  0.00    -0.370 N 
ATOM      7  N   UNL     1       2.554  -4.532 -34.178  0.00  0.00    -0.326 N 
ATOM      8  C   UNL     1       1.667  -3.467 -34.440  0.00  0.00    +0.042 A 
ATOM      9  C   UNL     1       0.979  -3.457 -35.668  0.00  0.00    -0.037 A 
ATOM     10  C   UNL     1       0.123  -2.408 -36.018  0.00  0.00    -0.046 A 
ATOM     11  C   UNL     1      -0.044  -1.338 -35.147  0.00  0.00    +0.018 A 
ATOM     12 BR   UNL     1      -1.197   0.085 -35.612  0.00  0.00    -0.050 Br
ATOM     13  C   UNL     1       0.643  -1.308 -33.939  0.00  0.00    -0.046 A 
ATOM     14  C   UNL     1       1.499  -2.362 -33.597  0.00  0.00    -0.037 A 
ATOM     15  C   UNL     1       4.716  -3.844 -30.196  0.00  0.00    -0.013 C 
ATOM     16  C   UNL     1       5.952  -4.053 -31.075  0.00  0.00    -0.060 C 
ATOM     17  C   UNL     1       4.346  -2.355 -30.182  0.00  0.00    -0.060 C 
ATOM     18  H   UNL     1       2.368  -3.533 -31.839  0.00  0.00    +0.000 HD
ATOM     19  H   UNL     1       4.462  -6.383 -32.512  0.00  0.00    +0.000 HD
ATOM     20  H   UNL     1       4.016  -6.335 -34.157  0.00  0.00    +0.000 HD
ATOM     21  H   UNL     1       2.783  -5.092 -34.954  0.00  0.00    +0.000 HD
ENDROOT
TORSDOF 0
ENDMDL
MODEL 3
REMARK VINA RESULT:    -6.109     16.600     19.252
REMARK INTER + INTRA:          -6.109
REMARK INTER:                  -6.109
REMARK INTRA:                   0.000
REMARK UNBOUND:                 0.000
REMARK  Name = /home/vital/Documents/PhD_2021/Malaria_codes/scripts/../data/pdbqt_ligands/ligand_53_temp.pdb
REMARK                            x       y       z     vdW  Elec       q    Type
REMARK                         _______ _______ _______ _____ _____    ______ ____
ROOT
ATOM      1  C   UNL     1       1.440   2.687 -18.636  0.00  0.00    -0.117 C 
ATOM      2  C   UNL     1       0.802   3.499 -18.023  0.00  0.00    -0.078 C 
ATOM      3  C   UNL     1       0.022   4.497 -17.264  0.00  0.00    +0.117 C 
ATOM      4  N   UNL     1       0.722   5.756 -17.458  0.00  0.00    -0.236 N 
ATOM      5  C   UNL     1       0.983   6.578 -16.514  0.00  0.00    +0.196 C 
ATOM      6  N   UNL     1       0.627   6.457 -15.200  0.00  0.00    -0.370 N 
ATOM      7  N   UNL     1       1.682   7.749 -16.651  0.00  0.00    -0.326 N 
ATOM      8  C   UNL     1       2.232   8.327 -17.814  0.00  0.00    +0.042 A 
ATOM      9  C   UNL     1       3.143   9.389 -17.665  0.00  0.00    -0.037 A 
ATOM     10  C   UNL     1       3.689  10.044 -18.774  0.00  0.00    -0.046 A 
ATOM     11  C   UNL     1       3.315   9.655 -20.055  0.00  0.00    +0.018 A 
ATOM     12 BR   UNL     1       4.045  10.535 -21.559  0.00  0.00    -0.050 Br
ATOM     13  C   UNL     1       2.396   8.627 -20.232  0.00  0.00    -0.046 A 
ATOM     14  C   UNL     1       1.854   7.977 -19.116  0.00  0.00    -0.037 A 
ATOM     15  C   UNL     1      -1.433   4.582 -17.780  0.00  0.00    -0.013 C 
ATOM     16  C   UNL     1      -2.310   5.418 -16.842  0.00  0.00    -0.060 C 
ATOM     17  C   UNL     1      -1.554   5.123 -19.210  0.00  0.00    -0.060 C 
ATOM     18  H   UNL     1       1.013   5.989 -18.370  0.00  0.00    +0.000 HD
ATOM     19  H   UNL     1       0.113   5.672 -14.899  0.00  0.00    +0.000 HD
ATOM     20  H   UNL     1       0.884   7.154 -14.554  0.00  0.00    +0.000 HD
ATOM     21  H   UNL     1       1.820   8.259 -15.820  0.00  0.00    +0.000 HD
ENDROOT
TORSDOF 0
ENDMDL
MODEL 4
REMARK VINA RESULT:    -6.094      3.357      6.917
REMARK INTER + INTRA:          -6.094
REMARK INTER:                  -6.094
REMARK INTRA:                   0.000
REMARK UNBOUND:                 0.000
REMARK  Name = /home/vital/Documents/PhD_2021/Malaria_codes/scripts/../data/pdbqt_ligands/ligand_53_temp.pdb
REMARK                            x       y       z     vdW  Elec       q    Type
REMARK                         _______ _______ _______ _____ _____    ______ ____
ROOT
ATOM      1  C   UNL     1      -3.181  -6.167 -33.475  0.00  0.00    -0.117 C 
ATOM      2  C   UNL     1      -2.471  -7.133 -33.393  0.00  0.00    -0.078 C 
ATOM      3  C   UNL     1      -1.597  -8.319 -33.300  0.00  0.00    +0.117 C 
ATOM      4  N   UNL     1      -0.248  -7.790 -33.180  0.00  0.00    -0.236 N 
ATOM      5  C   UNL     1       0.751  -8.231 -33.846  0.00  0.00    +0.196 C 
ATOM      6  N   UNL     1       0.751  -9.273 -34.730  0.00  0.00    -0.370 N 
ATOM      7  N   UNL     1       2.025  -7.726 -33.797  0.00  0.00    -0.326 N 
ATOM      8  C   UNL     1       2.533  -6.669 -33.013  0.00  0.00    +0.042 A 
ATOM      9  C   UNL     1       3.801  -6.150 -33.334  0.00  0.00    -0.037 A 
ATOM     10  C   UNL     1       4.390  -5.137 -32.571  0.00  0.00    -0.046 A 
ATOM     11  C   UNL     1       3.724  -4.640 -31.457  0.00  0.00    +0.018 A 
ATOM     12 BR   UNL     1       4.513  -3.273 -30.418  0.00  0.00    -0.050 Br
ATOM     13  C   UNL     1       2.482  -5.153 -31.100  0.00  0.00    -0.046 A 
ATOM     14  C   UNL     1       1.900  -6.167 -31.869  0.00  0.00    -0.037 A 
ATOM     15  C   UNL     1      -1.964  -9.192 -32.077  0.00  0.00    -0.013 C 
ATOM     16  C   UNL     1      -1.240 -10.541 -32.117  0.00  0.00    -0.060 C 
ATOM     17  C   UNL     1      -1.702  -8.511 -30.728  0.00  0.00    -0.060 C 
ATOM     18  H   UNL     1      -0.095  -7.048 -32.551  0.00  0.00    +0.000 HD
ATOM     19  H   UNL     1      -0.081  -9.771 -34.905  0.00  0.00    +0.000 HD
ATOM     20  H   UNL     1       1.582  -9.528 -35.192  0.00  0.00    +0.000 HD
ATOM     21  H   UNL     1       2.676  -8.163 -34.391  0.00  0.00    +0.000 HD
ENDROOT
TORSDOF 0
ENDMDL
MODEL 5
REMARK VINA RESULT:    -5.708     15.789     18.342
REMARK INTER + INTRA:          -5.708
REMARK INTER:                  -5.708
REMARK INTRA:                   0.000
REMARK UNBOUND:                 0.000
REMARK  Name = /home/vital/Documents/PhD_2021/Malaria_codes/scripts/../data/pdbqt_ligands/ligand_53_temp.pdb
REMARK                            x       y       z     vdW  Elec       q    Type
REMARK                         _______ _______ _______ _____ _____    ______ ____
ROOT
ATOM      1  C   UNL     1      -2.000   1.691 -20.280  0.00  0.00    -0.117 C 
ATOM      2  C   UNL     1      -2.087   2.869 -20.058  0.00  0.00    -0.078 C 
ATOM      3  C   UNL     1      -2.199   4.314 -19.779  0.00  0.00    +0.117 C 
ATOM      4  N   UNL     1      -1.407   4.534 -18.580  0.00  0.00    -0.236 N 
ATOM      5  C   UNL     1      -1.801   5.235 -17.586  0.00  0.00    +0.196 C 
ATOM      6  N   UNL     1      -2.978   5.923 -17.483  0.00  0.00    -0.370 N 
ATOM      7  N   UNL     1      -1.104   5.424 -16.420  0.00  0.00    -0.326 N 
ATOM      8  C   UNL     1       0.172   4.944 -16.059  0.00  0.00    +0.042 A 
ATOM      9  C   UNL     1       0.562   5.035 -14.710  0.00  0.00    -0.037 A 
ATOM     10  C   UNL     1       1.832   4.627 -14.287  0.00  0.00    -0.046 A 
ATOM     11  C   UNL     1       2.741   4.136 -15.218  0.00  0.00    +0.018 A 
ATOM     12 BR   UNL     1       4.459   3.585 -14.656  0.00  0.00    -0.050 Br
ATOM     13  C   UNL     1       2.393   4.061 -16.562  0.00  0.00    -0.046 A 
ATOM     14  C   UNL     1       1.120   4.473 -16.976  0.00  0.00    -0.037 A 
ATOM     15  C   UNL     1      -1.666   5.156 -20.962  0.00  0.00    -0.013 C 
ATOM     16  C   UNL     1      -2.010   6.639 -20.792  0.00  0.00    -0.060 C 
ATOM     17  C   UNL     1      -0.158   5.006 -21.201  0.00  0.00    -0.060 C 
ATOM     18  H   UNL     1      -0.515   4.118 -18.531  0.00  0.00    +0.000 HD
ATOM     19  H   UNL     1      -3.622   5.910 -18.227  0.00  0.00    +0.000 HD
ATOM     20  H   UNL     1      -3.181   6.431 -16.664  0.00  0.00    +0.000 HD
ATOM     21  H   UNL     1      -1.558   5.972 -15.741  0.00  0.00    +0.000 HD
ENDROOT
TORSDOF 0
ENDMDL
MODEL 6
REMARK VINA RESULT:    -5.619     16.351     18.962
REMARK INTER + INTRA:          -5.619
REMARK INTER:                  -5.619
REMARK INTRA:                   0.000
REMARK UNBOUND:                 0.000
REMARK  Name = /home/vital/Documents/PhD_2021/Malaria_codes/scripts/../data/pdbqt_ligands/ligand_53_temp.pdb
REMARK                            x       y       z     vdW  Elec       q    Type
REMARK                         _______ _______ _______ _____ _____    ______ ____
ROOT
ATOM      1  C   UNL     1      -0.209   1.790 -19.634  0.00  0.00    -0.117 C 
ATOM      2  C   UNL     1      -0.556   2.896 -19.321  0.00  0.00    -0.078 C 
ATOM      3  C   UNL     1      -0.986   4.254 -18.931  0.00  0.00    +0.117 C 
ATOM      4  N   UNL     1      -0.252   4.551 -17.711  0.00  0.00    -0.236 N 
ATOM      5  C   UNL     1      -0.784   5.065 -16.669  0.00  0.00    +0.196 C 
ATOM      6  N   UNL     1      -2.084   5.461 -16.522  0.00  0.00    -0.370 N 
ATOM      7  N   UNL     1      -0.136   5.314 -15.486  0.00  0.00    -0.326 N 
ATOM      8  C   UNL     1       1.218   5.106 -15.153  0.00  0.00    +0.042 A 
ATOM      9  C   UNL     1       1.591   5.176 -13.798  0.00  0.00    -0.037 A 
ATOM     10  C   UNL     1       2.924   5.031 -13.398  0.00  0.00    -0.046 A 
ATOM     11  C   UNL     1       3.911   4.832 -14.356  0.00  0.00    +0.018 A 
ATOM     12 BR   UNL     1       5.714   4.638 -13.826  0.00  0.00    -0.050 Br
ATOM     13  C   UNL     1       3.575   4.786 -15.705  0.00  0.00    -0.046 A 
ATOM     14  C   UNL     1       2.239   4.933 -16.096  0.00  0.00    -0.037 A 
ATOM     15  C   UNL     1      -0.667   5.284 -20.039  0.00  0.00    -0.013 C 
ATOM     16  C   UNL     1      -1.333   6.633 -19.756  0.00  0.00    -0.060 C 
ATOM     17  C   UNL     1       0.834   5.495 -20.277  0.00  0.00    -0.060 C 
ATOM     18  H   UNL     1       0.710   4.343 -17.687  0.00  0.00    +0.000 HD
ATOM     19  H   UNL     1      -2.717   5.363 -17.270  0.00  0.00    +0.000 HD
ATOM     20  H   UNL     1      -2.389   5.845 -15.668  0.00  0.00    +0.000 HD
ATOM     21  H   UNL     1      -0.695   5.691 -14.769  0.00  0.00    +0.000 HD
ENDROOT
TORSDOF 0
ENDMDL
MODEL 7
REMARK VINA RESULT:    -5.592     17.188     18.670
REMARK INTER + INTRA:          -5.592
REMARK INTER:                  -5.592
REMARK INTRA:                   0.000
REMARK UNBOUND:                 0.000
REMARK  Name = /home/vital/Documents/PhD_2021/Malaria_codes/scripts/../data/pdbqt_ligands/ligand_53_temp.pdb
REMARK                            x       y       z     vdW  Elec       q    Type
REMARK                         _______ _______ _______ _____ _____    ______ ____
ROOT
ATOM      1  C   UNL     1       2.734   9.789 -17.381  0.00  0.00    -0.117 C 
ATOM      2  C   UNL     1       2.677   8.712 -16.852  0.00  0.00    -0.078 C 
ATOM      3  C   UNL     1       2.603   7.390 -16.199  0.00  0.00    +0.117 C 
ATOM      4  N   UNL     1       1.384   6.782 -16.707  0.00  0.00    -0.236 N 
ATOM      5  C   UNL     1       0.526   6.185 -15.971  0.00  0.00    +0.196 C 
ATOM      6  N   UNL     1       0.608   5.974 -14.623  0.00  0.00    -0.370 N 
ATOM      7  N   UNL     1      -0.655   5.643 -16.406  0.00  0.00    -0.326 N 
ATOM      8  C   UNL     1      -1.176   5.581 -17.715  0.00  0.00    +0.042 A 
ATOM      9  C   UNL     1      -2.528   5.226 -17.880  0.00  0.00    -0.037 A 
ATOM     10  C   UNL     1      -3.100   5.095 -19.149  0.00  0.00    -0.046 A 
ATOM     11  C   UNL     1      -2.318   5.300 -20.280  0.00  0.00    +0.018 A 
ATOM     12 BR   UNL     1      -3.081   5.123 -21.999  0.00  0.00    -0.050 Br
ATOM     13  C   UNL     1      -0.973   5.625 -20.148  0.00  0.00    -0.046 A 
ATOM     14  C   UNL     1      -0.408   5.753 -18.874  0.00  0.00    -0.037 A 
ATOM     15  C   UNL     1       3.841   6.527 -16.535  0.00  0.00    -0.013 C 
ATOM     16  C   UNL     1       3.896   5.267 -15.666  0.00  0.00    -0.060 C 
ATOM     17  C   UNL     1       3.938   6.132 -18.014  0.00  0.00    -0.060 C 
ATOM     18  H   UNL     1       1.210   6.832 -17.675  0.00  0.00    +0.000 HD
ATOM     19  H   UNL     1       1.393   6.294 -14.121  0.00  0.00    +0.000 HD
ATOM     20  H   UNL     1      -0.117   5.502 -14.153  0.00  0.00    +0.000 HD
ATOM     21  H   UNL     1      -1.219   5.240 -15.707  0.00  0.00    +0.000 HD
ENDROOT
TORSDOF 0
ENDMDL
MODEL 8
REMARK VINA RESULT:    -5.496      5.067      7.925
REMARK INTER + INTRA:          -5.496
REMARK INTER:                  -5.496
REMARK INTRA:                   0.000
REMARK UNBOUND:                 0.000
REMARK  Name = /home/vital/Documents/PhD_2021/Malaria_codes/scripts/../data/pdbqt_ligands/ligand_53_temp.pdb
REMARK                            x       y       z     vdW  Elec       q    Type
REMARK                         _______ _______ _______ _____ _____    ______ ____
ROOT
ATOM      1  C   UNL     1      -3.973  -8.668 -36.010  0.00  0.00    -0.117 C 
ATOM      2  C   UNL     1      -3.083  -8.896 -35.237  0.00  0.00    -0.078 C 
ATOM      3  C   UNL     1      -1.983  -9.177 -34.292  0.00  0.00    +0.117 C 
ATOM      4  N   UNL     1      -1.122  -8.007 -34.349  0.00  0.00    -0.236 N 
ATOM      5  C   UNL     1       0.152  -8.064 -34.437  0.00  0.00    +0.196 C 
ATOM      6  N   UNL     1       0.922  -9.193 -34.448  0.00  0.00    -0.370 N 
ATOM      7  N   UNL     1       0.991  -6.985 -34.542  0.00  0.00    -0.326 N 
ATOM      8  C   UNL     1       0.676  -5.611 -34.546  0.00  0.00    +0.042 A 
ATOM      9  C   UNL     1       1.672  -4.699 -34.943  0.00  0.00    -0.037 A 
ATOM     10  C   UNL     1       1.449  -3.318 -34.922  0.00  0.00    -0.046 A 
ATOM     11  C   UNL     1       0.225  -2.827 -34.483  0.00  0.00    +0.018 A 
ATOM     12 BR   UNL     1      -0.085  -0.963 -34.449  0.00  0.00    -0.050 Br
ATOM     13  C   UNL     1      -0.767  -3.703 -34.059  0.00  0.00    -0.046 A 
ATOM     14  C   UNL     1      -0.535  -5.083 -34.082  0.00  0.00    -0.037 A 
ATOM     15  C   UNL     1      -2.519  -9.406 -32.860  0.00  0.00    -0.013 C 
ATOM     16  C   UNL     1      -1.425  -9.946 -31.934  0.00  0.00    -0.060 C 
ATOM     17  C   UNL     1      -3.154  -8.161 -32.228  0.00  0.00    -0.060 C 
ATOM     18  H   UNL     1      -1.546  -7.118 -34.319  0.00  0.00    +0.000 HD
ATOM     19  H   UNL     1       0.499 -10.080 -34.381  0.00  0.00    +0.000 HD
ATOM     20  H   UNL     1       1.902  -9.121 -34.523  0.00  0.00    +0.000 HD
ATOM     21  H   UNL     1       1.948  -7.201 -34.627  0.00  0.00    +0.000 HD
ENDROOT
TORSDOF 0
ENDMDL
MODEL 9
REMARK VINA RESULT:    -5.052     12.875     13.991
REMARK INTER + INTRA:          -5.052
REMARK INTER:                  -5.052
REMARK INTRA:                   0.000
REMARK UNBOUND:                 0.000
REMARK  Name = /home/vital/Documents/PhD_2021/Malaria_codes/scripts/../data/pdbqt_ligands/ligand_53_temp.pdb
REMARK                            x       y       z     vdW  Elec       q    Type
REMARK                         _______ _______ _______ _____ _____    ______ ____
ROOT
ATOM      1  C   UNL     1      -1.372   3.767 -19.456  0.00  0.00    -0.117 C 
ATOM      2  C   UNL     1      -1.116   2.595 -19.405  0.00  0.00    -0.078 C 
ATOM      3  C   UNL     1      -0.805   1.153 -19.337  0.00  0.00    +0.117 C 
ATOM      4  N   UNL     1      -1.956   0.487 -19.926  0.00  0.00    -0.236 N 
ATOM      5  C   UNL     1      -2.525  -0.536 -19.413  0.00  0.00    +0.196 C 
ATOM      6  N   UNL     1      -2.148  -1.202 -18.280  0.00  0.00    -0.370 N 
ATOM      7  N   UNL     1      -3.639  -1.161 -19.912  0.00  0.00    -0.326 N 
ATOM      8  C   UNL     1      -4.377  -0.865 -21.076  0.00  0.00    +0.042 A 
ATOM      9  C   UNL     1      -5.640  -1.465 -21.236  0.00  0.00    -0.037 A 
ATOM     10  C   UNL     1      -6.407  -1.259 -22.388  0.00  0.00    -0.046 A 
ATOM     11  C   UNL     1      -5.910  -0.459 -23.410  0.00  0.00    +0.018 A 
ATOM     12 BR   UNL     1      -6.937  -0.176 -24.970  0.00  0.00    -0.050 Br
ATOM     13  C   UNL     1      -4.653   0.125 -23.291  0.00  0.00    -0.046 A 
ATOM     14  C   UNL     1      -3.893  -0.087 -22.135  0.00  0.00    -0.037 A 
ATOM     15  C   UNL     1       0.490   0.821 -20.114  0.00  0.00    -0.013 C 
ATOM     16  C   UNL     1       0.955  -0.612 -19.837  0.00  0.00    -0.060 C 
ATOM     17  C   UNL     1       0.379   1.039 -21.628  0.00  0.00    -0.060 C 
ATOM     18  H   UNL     1      -2.318   0.845 -20.769  0.00  0.00    +0.000 HD
ATOM     19  H   UNL     1      -1.359  -0.902 -17.771  0.00  0.00    +0.000 HD
ATOM     20  H   UNL     1      -2.664  -1.982 -17.972  0.00  0.00    +0.000 HD
ATOM     21  H   UNL     1      -3.969  -1.922 -19.383  0.00  0.00    +0.000 HD
ENDROOT
TORSDOF 0
ENDMDL
