MODEL 1
REMARK VINA RESULT:    -7.291      0.000      0.000
REMARK INTER + INTRA:         -12.739
REMARK INTER:                 -11.127
REMARK INTRA:                  -1.612
REMARK UNBOUND:                -1.612
REMARK SMILES CCc1sc2nc(N)[nH]c(=O)c2c1Sc1ccc(C(=O)N[C@@H](CCC(=O)[O-])C(=O)[O-])cc1
REMARK SMILES IDX 19 1 20 2 21 3 18 5 15 6 16 7 32 8 17 9 31 10 14 11 13 12
REMARK SMILES IDX 3 13 4 14 5 15 12 16 6 17 10 18 7 19 9 20 11 21 8 22 2 26
REMARK SMILES IDX 1 27 22 28 23 29 24 30 25 31 26 32 27 33 28 34 29 35 30 36
REMARK H PARENT 21 4 9 23 8 24 8 25
ROOT
ATOM      1  C   UNL     1      11.340 -24.258 -48.388  1.00  0.00     0.251 C 
ATOM      2  O   UNL     1      12.228 -25.067 -48.637  1.00  0.00    -0.269 OA
ATOM      3  N   UNL     1      11.485 -23.141 -47.612  1.00  0.00    -0.344 N 
ATOM      4  H   UNL     1      10.727 -22.483 -47.462  1.00  0.00     0.164 HD
ENDROOT
BRANCH   1   5
ATOM      5  C   UNL     1      10.001 -24.413 -49.023  1.00  0.00     0.039 A 
ATOM      6  C   UNL     1       7.402 -25.004 -49.894  1.00  0.00     0.012 A 
ATOM      7  C   UNL     1       7.599 -24.178 -48.783  1.00  0.00     0.016 A 
ATOM      8  C   UNL     1       8.511 -25.444 -50.630  1.00  0.00     0.016 A 
ATOM      9  C   UNL     1       8.894 -23.888 -48.346  1.00  0.00     0.015 A 
ATOM     10  C   UNL     1       9.807 -25.152 -50.196  1.00  0.00     0.015 A 
BRANCH   6  11
ATOM     11  S   UNL     1       5.751 -25.593 -50.262  1.00  0.00    -0.088 SA
BRANCH  11  12
ATOM     12  C   UNL     1       5.211 -24.362 -51.424  1.00  0.00     0.041 A 
ATOM     13  C   UNL     1       5.487 -24.435 -52.780  1.00  0.00     0.021 A 
ATOM     14  S   UNL     1       4.669 -23.197 -53.646  1.00  0.00    -0.119 S 
ATOM     15  C   UNL     1       3.946 -22.581 -52.231  1.00  0.00     0.134 A 
ATOM     16  C   UNL     1       4.395 -23.230 -51.099  1.00  0.00     0.091 A 
ATOM     17  N   UNL     1       3.030 -21.578 -52.293  1.00  0.00    -0.204 NA
ATOM     18  C   UNL     1       3.917 -22.718 -49.823  1.00  0.00     0.262 C 
ATOM     19  C   UNL     1       2.508 -21.253 -51.145  1.00  0.00     0.201 C 
ATOM     20  N   UNL     1       2.896 -21.809 -49.955  1.00  0.00    -0.292 N 
ATOM     21  O   UNL     1       4.417 -23.010 -48.741  1.00  0.00    -0.269 OA
ATOM     22  N   UNL     1       1.518 -20.330 -51.042  1.00  0.00    -0.369 N 
ATOM     23  H   UNL     1       2.382 -21.516 -49.121  1.00  0.00     0.173 HD
ATOM     24  H   UNL     1       0.990 -20.456 -50.154  1.00  0.00     0.159 HD
ATOM     25  H   UNL     1       0.886 -20.351 -51.830  1.00  0.00     0.159 HD
BRANCH  13  26
ATOM     26  C   UNL     1       6.320 -25.426 -53.541  1.00  0.00     0.044 C 
ATOM     27  C   UNL     1       7.537 -24.767 -54.174  1.00  0.00     0.010 C 
ENDBRANCH  13  26
ENDBRANCH  11  12
ENDBRANCH   6  11
ENDBRANCH   1   5
BRANCH   3  28
ATOM     28  C   UNL     1      12.774 -22.475 -47.334  1.00  0.00     0.128 C 
BRANCH  28  29
ATOM     29  C   UNL     1      12.689 -20.966 -47.662  1.00  0.00     0.037 C 
BRANCH  29  30
ATOM     30  C   UNL     1      13.397 -20.549 -48.961  1.00  0.00     0.055 C 
BRANCH  30  31
ATOM     31  C   UNL     1      12.600 -20.719 -50.257  1.00  0.00     0.041 C 
ATOM     32  O   UNL     1      11.398 -21.110 -50.080  1.00  0.00    -0.550 OA
ATOM     33  O   UNL     1      13.175 -20.459 -51.345  1.00  0.00    -0.550 OA
ENDBRANCH  30  31
ENDBRANCH  29  30
ENDBRANCH  28  29
BRANCH  28  34
ATOM     34  C   UNL     1      13.226 -22.691 -45.846  1.00  0.00     0.064 C 
ATOM     35  O   UNL     1      14.469 -22.809 -45.647  1.00  0.00    -0.548 OA
ATOM     36  O   UNL     1      12.267 -22.775 -45.011  1.00  0.00    -0.548 OA
ENDBRANCH  28  34
ENDBRANCH   3  28
TORSDOF 9
ENDMDL
MODEL 2
REMARK VINA RESULT:    -7.117      7.175     10.105
REMARK INTER + INTRA:         -12.473
REMARK INTER:                 -11.523
REMARK INTRA:                  -0.951
REMARK UNBOUND:                -1.612
REMARK SMILES CCc1sc2nc(N)[nH]c(=O)c2c1Sc1ccc(C(=O)N[C@@H](CCC(=O)[O-])C(=O)[O-])cc1
REMARK SMILES IDX 19 1 20 2 21 3 18 5 15 6 16 7 32 8 17 9 31 10 14 11 13 12
REMARK SMILES IDX 3 13 4 14 5 15 12 16 6 17 10 18 7 19 9 20 11 21 8 22 2 26
REMARK SMILES IDX 1 27 22 28 23 29 24 30 25 31 26 32 27 33 28 34 29 35 30 36
REMARK H PARENT 21 4 9 23 8 24 8 25
ROOT
ATOM      1  C   UNL     1      13.195 -20.939 -49.349  1.00  0.00     0.251 C 
ATOM      2  O   UNL     1      11.976 -20.814 -49.290  1.00  0.00    -0.269 OA
ATOM      3  N   UNL     1      13.988 -20.483 -50.367  1.00  0.00    -0.344 N 
ATOM      4  H   UNL     1      14.997 -20.582 -50.354  1.00  0.00     0.164 HD
ENDROOT
BRANCH   1   5
ATOM      5  C   UNL     1      13.930 -21.558 -48.210  1.00  0.00     0.039 A 
ATOM      6  C   UNL     1      15.305 -23.097 -46.313  1.00  0.00     0.012 A 
ATOM      7  C   UNL     1      15.971 -22.622 -47.446  1.00  0.00     0.016 A 
ATOM      8  C   UNL     1      13.978 -22.710 -46.080  1.00  0.00     0.016 A 
ATOM      9  C   UNL     1      15.284 -21.860 -48.395  1.00  0.00     0.015 A 
ATOM     10  C   UNL     1      13.291 -21.944 -47.026  1.00  0.00     0.015 A 
BRANCH   6  11
ATOM     11  S   UNL     1      16.117 -24.302 -45.264  1.00  0.00    -0.088 SA
BRANCH  11  12
ATOM     12  C   UNL     1      14.724 -24.977 -44.393  1.00  0.00     0.041 A 
ATOM     13  C   UNL     1      13.822 -25.851 -44.979  1.00  0.00     0.021 A 
ATOM     14  S   UNL     1      12.708 -26.459 -43.822  1.00  0.00    -0.119 S 
ATOM     15  C   UNL     1      13.428 -25.577 -42.553  1.00  0.00     0.134 A 
ATOM     16  C   UNL     1      14.433 -24.748 -43.009  1.00  0.00     0.091 A 
ATOM     17  N   UNL     1      13.018 -25.739 -41.267  1.00  0.00    -0.204 NA
ATOM     18  C   UNL     1      15.051 -23.873 -42.024  1.00  0.00     0.262 C 
ATOM     19  C   UNL     1      13.700 -25.055 -40.394  1.00  0.00     0.201 C 
ATOM     20  N   UNL     1      14.698 -24.181 -40.733  1.00  0.00    -0.292 N 
ATOM     21  O   UNL     1      15.759 -22.914 -42.313  1.00  0.00    -0.269 OA
ATOM     22  N   UNL     1      13.476 -25.167 -39.059  1.00  0.00    -0.369 N 
ATOM     23  H   UNL     1      15.203 -23.737 -39.962  1.00  0.00     0.173 HD
ATOM     24  H   UNL     1      14.308 -24.855 -38.519  1.00  0.00     0.159 HD
ATOM     25  H   UNL     1      13.216 -26.105 -38.789  1.00  0.00     0.159 HD
BRANCH  13  26
ATOM     26  C   UNL     1      13.734 -26.337 -46.397  1.00  0.00     0.044 C 
ATOM     27  C   UNL     1      12.459 -25.859 -47.076  1.00  0.00     0.010 C 
ENDBRANCH  13  26
ENDBRANCH  11  12
ENDBRANCH   6  11
ENDBRANCH   1   5
BRANCH   3  28
ATOM     28  C   UNL     1      13.614 -19.397 -51.297  1.00  0.00     0.128 C 
BRANCH  28  29
ATOM     29  C   UNL     1      14.512 -18.158 -51.076  1.00  0.00     0.037 C 
BRANCH  29  30
ATOM     30  C   UNL     1      14.933 -17.432 -52.364  1.00  0.00     0.055 C 
BRANCH  30  31
ATOM     31  C   UNL     1      16.437 -17.298 -52.612  1.00  0.00     0.041 C 
ATOM     32  O   UNL     1      17.025 -16.487 -51.821  1.00  0.00    -0.550 OA
ATOM     33  O   UNL     1      16.948 -17.982 -53.537  1.00  0.00    -0.550 OA
ENDBRANCH  30  31
ENDBRANCH  29  30
ENDBRANCH  28  29
BRANCH  28  34
ATOM     34  C   UNL     1      13.685 -19.870 -52.792  1.00  0.00     0.064 C 
ATOM     35  O   UNL     1      14.586 -20.711 -53.074  1.00  0.00    -0.548 OA
ATOM     36  O   UNL     1      12.848 -19.301 -53.566  1.00  0.00    -0.548 OA
ENDBRANCH  28  34
ENDBRANCH   3  28
TORSDOF 9
ENDMDL
MODEL 3
REMARK VINA RESULT:    -6.814      3.183      8.918
REMARK INTER + INTRA:         -12.011
REMARK INTER:                 -10.872
REMARK INTRA:                  -1.138
REMARK UNBOUND:                -1.612
REMARK SMILES CCc1sc2nc(N)[nH]c(=O)c2c1Sc1ccc(C(=O)N[C@@H](CCC(=O)[O-])C(=O)[O-])cc1
REMARK SMILES IDX 19 1 20 2 21 3 18 5 15 6 16 7 32 8 17 9 31 10 14 11 13 12
REMARK SMILES IDX 3 13 4 14 5 15 12 16 6 17 10 18 7 19 9 20 11 21 8 22 2 26
REMARK SMILES IDX 1 27 22 28 23 29 24 30 25 31 26 32 27 33 28 34 29 35 30 36
REMARK H PARENT 21 4 9 23 8 24 8 25
ROOT
ATOM      1  C   UNL     1       5.275 -24.672 -49.816  1.00  0.00     0.251 C 
ATOM      2  O   UNL     1       4.814 -25.710 -49.352  1.00  0.00    -0.269 OA
ATOM      3  N   UNL     1       4.539 -23.653 -50.356  1.00  0.00    -0.344 N 
ATOM      4  H   UNL     1       4.965 -22.799 -50.698  1.00  0.00     0.164 HD
ENDROOT
BRANCH   1   5
ATOM      5  C   UNL     1       6.741 -24.414 -49.736  1.00  0.00     0.039 A 
ATOM      6  C   UNL     1       9.538 -24.280 -49.861  1.00  0.00     0.012 A 
ATOM      7  C   UNL     1       8.765 -23.809 -50.926  1.00  0.00     0.016 A 
ATOM      8  C   UNL     1       8.904 -24.719 -48.691  1.00  0.00     0.016 A 
ATOM      9  C   UNL     1       7.371 -23.881 -50.867  1.00  0.00     0.015 A 
ATOM     10  C   UNL     1       7.509 -24.788 -48.628  1.00  0.00     0.015 A 
BRANCH   6  11
ATOM     11  S   UNL     1      11.310 -24.444 -50.073  1.00  0.00    -0.088 SA
BRANCH  11  12
ATOM     12  C   UNL     1      11.899 -23.415 -48.751  1.00  0.00     0.041 A 
ATOM     13  C   UNL     1      12.234 -22.082 -48.927  1.00  0.00     0.021 A 
ATOM     14  S   UNL     1      12.586 -21.328 -47.425  1.00  0.00    -0.119 S 
ATOM     15  C   UNL     1      12.281 -22.758 -46.549  1.00  0.00     0.134 A 
ATOM     16  C   UNL     1      12.020 -23.827 -47.383  1.00  0.00     0.091 A 
ATOM     17  N   UNL     1      12.295 -22.763 -45.190  1.00  0.00    -0.204 NA
ATOM     18  C   UNL     1      11.843 -25.122 -46.745  1.00  0.00     0.262 C 
ATOM     19  C   UNL     1      11.978 -23.906 -44.652  1.00  0.00     0.201 C 
ATOM     20  N   UNL     1      11.727 -25.039 -45.380  1.00  0.00    -0.292 N 
ATOM     21  O   UNL     1      11.865 -26.189 -47.351  1.00  0.00    -0.269 OA
ATOM     22  N   UNL     1      11.861 -24.060 -43.308  1.00  0.00    -0.369 N 
ATOM     23  H   UNL     1      11.435 -25.867 -44.855  1.00  0.00     0.173 HD
ATOM     24  H   UNL     1      11.271 -24.887 -43.083  1.00  0.00     0.159 HD
ATOM     25  H   UNL     1      11.493 -23.235 -42.855  1.00  0.00     0.159 HD
BRANCH  13  26
ATOM     26  C   UNL     1      12.280 -21.259 -50.182  1.00  0.00     0.044 C 
ATOM     27  C   UNL     1      13.227 -20.076 -50.044  1.00  0.00     0.010 C 
ENDBRANCH  13  26
ENDBRANCH  11  12
ENDBRANCH   6  11
ENDBRANCH   1   5
BRANCH   3  28
ATOM     28  C   UNL     1       3.111 -23.408 -50.067  1.00  0.00     0.128 C 
BRANCH  28  29
ATOM     29  C   UNL     1       2.918 -22.996 -48.589  1.00  0.00     0.037 C 
BRANCH  29  30
ATOM     30  C   UNL     1       3.616 -21.686 -48.190  1.00  0.00     0.055 C 
BRANCH  30  31
ATOM     31  C   UNL     1       3.301 -21.141 -46.795  1.00  0.00     0.041 C 
ATOM     32  O   UNL     1       3.834 -20.009 -46.546  1.00  0.00    -0.550 OA
ATOM     33  O   UNL     1       2.562 -21.829 -46.044  1.00  0.00    -0.550 OA
ENDBRANCH  30  31
ENDBRANCH  29  30
ENDBRANCH  28  29
BRANCH  28  34
ATOM     34  C   UNL     1       2.507 -22.320 -51.025  1.00  0.00     0.064 C 
ATOM     35  O   UNL     1       3.336 -21.627 -51.682  1.00  0.00    -0.548 OA
ATOM     36  O   UNL     1       1.237 -22.229 -50.985  1.00  0.00    -0.548 OA
ENDBRANCH  28  34
ENDBRANCH   3  28
TORSDOF 9
ENDMDL
MODEL 4
REMARK VINA RESULT:    -6.698      4.853     10.793
REMARK INTER + INTRA:         -11.835
REMARK INTER:                 -10.615
REMARK INTRA:                  -1.220
REMARK UNBOUND:                -1.612
REMARK SMILES CCc1sc2nc(N)[nH]c(=O)c2c1Sc1ccc(C(=O)N[C@@H](CCC(=O)[O-])C(=O)[O-])cc1
REMARK SMILES IDX 19 1 20 2 21 3 18 5 15 6 16 7 32 8 17 9 31 10 14 11 13 12
REMARK SMILES IDX 3 13 4 14 5 15 12 16 6 17 10 18 7 19 9 20 11 21 8 22 2 26
REMARK SMILES IDX 1 27 22 28 23 29 24 30 25 31 26 32 27 33 28 34 29 35 30 36
REMARK H PARENT 21 4 9 23 8 24 8 25
ROOT
ATOM      1  C   UNL     1      10.956 -22.893 -48.748  1.00  0.00     0.251 C 
ATOM      2  O   UNL     1      11.215 -21.820 -49.282  1.00  0.00    -0.269 OA
ATOM      3  N   UNL     1       9.836 -23.643 -48.986  1.00  0.00    -0.344 N 
ATOM      4  H   UNL     1       9.682 -24.542 -48.544  1.00  0.00     0.164 HD
ENDROOT
BRANCH   1   5
ATOM      5  C   UNL     1      11.942 -23.515 -47.821  1.00  0.00     0.039 A 
ATOM      6  C   UNL     1      13.466 -24.964 -45.966  1.00  0.00     0.012 A 
ATOM      7  C   UNL     1      13.209 -25.497 -47.233  1.00  0.00     0.016 A 
ATOM      8  C   UNL     1      13.048 -23.659 -45.671  1.00  0.00     0.016 A 
ATOM      9  C   UNL     1      12.445 -24.778 -48.155  1.00  0.00     0.015 A 
ATOM     10  C   UNL     1      12.287 -22.936 -46.594  1.00  0.00     0.015 A 
BRANCH   6  11
ATOM     11  S   UNL     1      14.194 -26.012 -44.709  1.00  0.00    -0.088 SA
BRANCH  11  12
ATOM     12  C   UNL     1      15.031 -24.803 -43.713  1.00  0.00     0.041 A 
ATOM     13  C   UNL     1      14.613 -24.457 -42.438  1.00  0.00     0.021 A 
ATOM     14  S   UNL     1      15.739 -23.405 -41.681  1.00  0.00    -0.119 S 
ATOM     15  C   UNL     1      16.779 -23.422 -43.031  1.00  0.00     0.134 A 
ATOM     16  C   UNL     1      16.238 -24.126 -44.088  1.00  0.00     0.091 A 
ATOM     17  N   UNL     1      17.990 -22.806 -42.990  1.00  0.00    -0.204 NA
ATOM     18  C   UNL     1      16.998 -24.121 -45.329  1.00  0.00     0.262 C 
ATOM     19  C   UNL     1      18.708 -22.957 -44.066  1.00  0.00     0.201 C 
ATOM     20  N   UNL     1      18.264 -23.610 -45.184  1.00  0.00    -0.292 N 
ATOM     21  O   UNL     1      16.537 -24.471 -46.411  1.00  0.00    -0.269 OA
ATOM     22  N   UNL     1      19.976 -22.478 -44.157  1.00  0.00    -0.369 N 
ATOM     23  H   UNL     1      18.932 -23.715 -45.952  1.00  0.00     0.173 HD
ATOM     24  H   UNL     1      20.506 -22.981 -44.897  1.00  0.00     0.159 HD
ATOM     25  H   UNL     1      20.471 -22.527 -43.278  1.00  0.00     0.159 HD
BRANCH  13  26
ATOM     26  C   UNL     1      13.399 -24.897 -41.671  1.00  0.00     0.044 C 
ATOM     27  C   UNL     1      13.409 -24.359 -40.248  1.00  0.00     0.010 C 
ENDBRANCH  13  26
ENDBRANCH  11  12
ENDBRANCH   6  11
ENDBRANCH   1   5
BRANCH   3  28
ATOM     28  C   UNL     1       9.010 -23.549 -50.208  1.00  0.00     0.128 C 
BRANCH  28  29
ATOM     29  C   UNL     1       9.262 -24.765 -51.130  1.00  0.00     0.037 C 
BRANCH  29  30
ATOM     30  C   UNL     1      10.705 -24.894 -51.644  1.00  0.00     0.055 C 
BRANCH  30  31
ATOM     31  C   UNL     1      11.119 -23.932 -52.759  1.00  0.00     0.041 C 
ATOM     32  O   UNL     1      11.624 -22.837 -52.341  1.00  0.00    -0.550 OA
ATOM     33  O   UNL     1      10.940 -24.293 -53.951  1.00  0.00    -0.550 OA
ENDBRANCH  30  31
ENDBRANCH  29  30
ENDBRANCH  28  29
BRANCH  28  34
ATOM     34  C   UNL     1       7.483 -23.426 -49.863  1.00  0.00     0.064 C 
ATOM     35  O   UNL     1       6.780 -22.741 -50.660  1.00  0.00    -0.548 OA
ATOM     36  O   UNL     1       7.140 -23.997 -48.777  1.00  0.00    -0.548 OA
ENDBRANCH  28  34
ENDBRANCH   3  28
TORSDOF 9
ENDMDL
MODEL 5
REMARK VINA RESULT:    -6.529      6.396     11.051
REMARK INTER + INTRA:         -11.576
REMARK INTER:                 -11.066
REMARK INTRA:                  -0.510
REMARK UNBOUND:                -1.612
REMARK SMILES CCc1sc2nc(N)[nH]c(=O)c2c1Sc1ccc(C(=O)N[C@@H](CCC(=O)[O-])C(=O)[O-])cc1
REMARK SMILES IDX 19 1 20 2 21 3 18 5 15 6 16 7 32 8 17 9 31 10 14 11 13 12
REMARK SMILES IDX 3 13 4 14 5 15 12 16 6 17 10 18 7 19 9 20 11 21 8 22 2 26
REMARK SMILES IDX 1 27 22 28 23 29 24 30 25 31 26 32 27 33 28 34 29 35 30 36
REMARK H PARENT 21 4 9 23 8 24 8 25
ROOT
ATOM      1  C   UNL     1      13.571 -22.244 -48.179  1.00  0.00     0.251 C 
ATOM      2  O   UNL     1      14.682 -22.227 -48.699  1.00  0.00    -0.269 OA
ATOM      3  N   UNL     1      12.512 -21.463 -48.554  1.00  0.00    -0.344 N 
ATOM      4  H   UNL     1      11.601 -21.537 -48.113  1.00  0.00     0.164 HD
ENDROOT
BRANCH   1   5
ATOM      5  C   UNL     1      13.274 -23.231 -47.103  1.00  0.00     0.039 A 
ATOM      6  C   UNL     1      13.140 -25.024 -44.952  1.00  0.00     0.012 A 
ATOM      7  C   UNL     1      13.088 -23.646 -44.721  1.00  0.00     0.016 A 
ATOM      8  C   UNL     1      13.151 -25.502 -46.270  1.00  0.00     0.016 A 
ATOM      9  C   UNL     1      13.161 -22.753 -45.792  1.00  0.00     0.015 A 
ATOM     10  C   UNL     1      13.220 -24.609 -47.343  1.00  0.00     0.015 A 
BRANCH   6  11
ATOM     11  S   UNL     1      13.335 -26.136 -43.560  1.00  0.00    -0.088 SA
BRANCH  11  12
ATOM     12  C   UNL     1      14.656 -25.337 -42.681  1.00  0.00     0.041 A 
ATOM     13  C   UNL     1      14.458 -24.630 -41.506  1.00  0.00     0.021 A 
ATOM     14  S   UNL     1      15.954 -24.145 -40.816  1.00  0.00    -0.119 S 
ATOM     15  C   UNL     1      16.854 -24.882 -42.061  1.00  0.00     0.134 A 
ATOM     16  C   UNL     1      16.040 -25.399 -43.048  1.00  0.00     0.091 A 
ATOM     17  N   UNL     1      18.212 -24.930 -42.009  1.00  0.00    -0.204 NA
ATOM     18  C   UNL     1      16.707 -25.964 -44.212  1.00  0.00     0.262 C 
ATOM     19  C   UNL     1      18.766 -25.582 -42.991  1.00  0.00     0.201 C 
ATOM     20  N   UNL     1      18.061 -26.112 -44.038  1.00  0.00    -0.292 N 
ATOM     21  O   UNL     1      16.136 -26.219 -45.267  1.00  0.00    -0.269 OA
ATOM     22  N   UNL     1      20.106 -25.797 -43.045  1.00  0.00    -0.369 N 
ATOM     23  H   UNL     1      18.593 -26.650 -44.726  1.00  0.00     0.173 HD
ATOM     24  H   UNL     1      20.324 -26.606 -43.662  1.00  0.00     0.159 HD
ATOM     25  H   UNL     1      20.513 -25.935 -42.131  1.00  0.00     0.159 HD
BRANCH  13  26
ATOM     26  C   UNL     1      13.183 -24.297 -40.786  1.00  0.00     0.044 C 
ATOM     27  C   UNL     1      13.411 -24.127 -39.291  1.00  0.00     0.010 C 
ENDBRANCH  13  26
ENDBRANCH  11  12
ENDBRANCH   6  11
ENDBRANCH   1   5
BRANCH   3  28
ATOM     28  C   UNL     1      12.363 -20.835 -49.883  1.00  0.00     0.128 C 
BRANCH  28  29
ATOM     29  C   UNL     1      13.715 -20.257 -50.366  1.00  0.00     0.037 C 
BRANCH  29  30
ATOM     30  C   UNL     1      13.619 -18.885 -51.052  1.00  0.00     0.055 C 
BRANCH  30  31
ATOM     31  C   UNL     1      13.951 -18.844 -52.545  1.00  0.00     0.041 C 
ATOM     32  O   UNL     1      12.972 -19.150 -53.304  1.00  0.00    -0.550 OA
ATOM     33  O   UNL     1      15.118 -18.517 -52.884  1.00  0.00    -0.550 OA
ENDBRANCH  30  31
ENDBRANCH  29  30
ENDBRANCH  28  29
BRANCH  28  34
ATOM     34  C   UNL     1      11.789 -21.846 -50.938  1.00  0.00     0.064 C 
ATOM     35  O   UNL     1      12.479 -22.022 -51.982  1.00  0.00    -0.548 OA
ATOM     36  O   UNL     1      10.652 -22.335 -50.634  1.00  0.00    -0.548 OA
ENDBRANCH  28  34
ENDBRANCH   3  28
TORSDOF 9
ENDMDL
MODEL 6
REMARK VINA RESULT:    -6.444      2.191      3.845
REMARK INTER + INTRA:         -11.447
REMARK INTER:                  -9.684
REMARK INTRA:                  -1.763
REMARK UNBOUND:                -1.612
REMARK SMILES CCc1sc2nc(N)[nH]c(=O)c2c1Sc1ccc(C(=O)N[C@@H](CCC(=O)[O-])C(=O)[O-])cc1
REMARK SMILES IDX 19 1 20 2 21 3 18 5 15 6 16 7 32 8 17 9 31 10 14 11 13 12
REMARK SMILES IDX 3 13 4 14 5 15 12 16 6 17 10 18 7 19 9 20 11 21 8 22 2 26
REMARK SMILES IDX 1 27 22 28 23 29 24 30 25 31 26 32 27 33 28 34 29 35 30 36
REMARK H PARENT 21 4 9 23 8 24 8 25
ROOT
ATOM      1  C   UNL     1      13.284 -22.178 -47.423  1.00  0.00     0.251 C 
ATOM      2  O   UNL     1      13.072 -20.972 -47.345  1.00  0.00    -0.269 OA
ATOM      3  N   UNL     1      14.253 -22.855 -46.735  1.00  0.00    -0.344 N 
ATOM      4  H   UNL     1      14.368 -23.860 -46.809  1.00  0.00     0.164 HD
ENDROOT
BRANCH   1   5
ATOM      5  C   UNL     1      12.392 -23.032 -48.257  1.00  0.00     0.039 A 
ATOM      6  C   UNL     1      10.467 -24.682 -49.453  1.00  0.00     0.012 A 
ATOM      7  C   UNL     1      10.188 -23.332 -49.224  1.00  0.00     0.016 A 
ATOM      8  C   UNL     1      11.749 -25.177 -49.180  1.00  0.00     0.016 A 
ATOM      9  C   UNL     1      11.145 -22.510 -48.623  1.00  0.00     0.015 A 
ATOM     10  C   UNL     1      12.709 -24.356 -48.581  1.00  0.00     0.015 A 
BRANCH   6  11
ATOM     11  S   UNL     1       9.138 -25.775 -49.955  1.00  0.00    -0.088 SA
BRANCH  11  12
ATOM     12  C   UNL     1       8.357 -24.792 -51.212  1.00  0.00     0.041 A 
ATOM     13  C   UNL     1       8.846 -24.698 -52.505  1.00  0.00     0.021 A 
ATOM     14  S   UNL     1       7.764 -23.826 -53.514  1.00  0.00    -0.119 S 
ATOM     15  C   UNL     1       6.651 -23.590 -52.245  1.00  0.00     0.134 A 
ATOM     16  C   UNL     1       7.132 -24.068 -51.043  1.00  0.00     0.091 A 
ATOM     17  N   UNL     1       5.444 -23.007 -52.472  1.00  0.00    -0.204 NA
ATOM     18  C   UNL     1       6.304 -23.829 -49.870  1.00  0.00     0.262 C 
ATOM     19  C   UNL     1       4.667 -22.952 -51.428  1.00  0.00     0.201 C 
ATOM     20  N   UNL     1       5.048 -23.370 -50.181  1.00  0.00    -0.292 N 
ATOM     21  O   UNL     1       6.704 -23.956 -48.717  1.00  0.00    -0.269 OA
ATOM     22  N   UNL     1       3.396 -22.478 -51.502  1.00  0.00    -0.369 N 
ATOM     23  H   UNL     1       4.339 -23.330 -49.446  1.00  0.00     0.173 HD
ATOM     24  H   UNL     1       2.826 -22.832 -50.708  1.00  0.00     0.159 HD
ATOM     25  H   UNL     1       2.951 -22.703 -52.380  1.00  0.00     0.159 HD
BRANCH  13  26
ATOM     26  C   UNL     1      10.100 -25.266 -53.104  1.00  0.00     0.044 C 
ATOM     27  C   UNL     1      11.233 -24.249 -53.105  1.00  0.00     0.010 C 
ENDBRANCH  13  26
ENDBRANCH  11  12
ENDBRANCH   6  11
ENDBRANCH   1   5
BRANCH   3  28
ATOM     28  C   UNL     1      14.878 -22.381 -45.483  1.00  0.00     0.128 C 
BRANCH  28  29
ATOM     29  C   UNL     1      14.323 -23.161 -44.268  1.00  0.00     0.037 C 
BRANCH  29  30
ATOM     30  C   UNL     1      13.550 -24.441 -44.625  1.00  0.00     0.055 C 
BRANCH  30  31
ATOM     31  C   UNL     1      12.033 -24.302 -44.776  1.00  0.00     0.041 C 
ATOM     32  O   UNL     1      11.531 -23.333 -44.114  1.00  0.00    -0.550 OA
ATOM     33  O   UNL     1      11.434 -25.120 -45.520  1.00  0.00    -0.550 OA
ENDBRANCH  30  31
ENDBRANCH  29  30
ENDBRANCH  28  29
BRANCH  28  34
ATOM     34  C   UNL     1      16.442 -22.492 -45.541  1.00  0.00     0.064 C 
ATOM     35  O   UNL     1      17.089 -21.771 -44.728  1.00  0.00    -0.548 OA
ATOM     36  O   UNL     1      16.883 -23.269 -46.451  1.00  0.00    -0.548 OA
ENDBRANCH  28  34
ENDBRANCH   3  28
TORSDOF 9
ENDMDL
MODEL 7
REMARK VINA RESULT:    -6.342      4.747      7.053
REMARK INTER + INTRA:         -11.291
REMARK INTER:                  -9.833
REMARK INTRA:                  -1.457
REMARK UNBOUND:                -1.612
REMARK SMILES CCc1sc2nc(N)[nH]c(=O)c2c1Sc1ccc(C(=O)N[C@@H](CCC(=O)[O-])C(=O)[O-])cc1
REMARK SMILES IDX 19 1 20 2 21 3 18 5 15 6 16 7 32 8 17 9 31 10 14 11 13 12
REMARK SMILES IDX 3 13 4 14 5 15 12 16 6 17 10 18 7 19 9 20 11 21 8 22 2 26
REMARK SMILES IDX 1 27 22 28 23 29 24 30 25 31 26 32 27 33 28 34 29 35 30 36
REMARK H PARENT 21 4 9 23 8 24 8 25
ROOT
ATOM      1  C   UNL     1      15.151 -25.567 -44.812  1.00  0.00     0.251 C 
ATOM      2  O   UNL     1      16.088 -25.940 -45.510  1.00  0.00    -0.269 OA
ATOM      3  N   UNL     1      15.242 -25.210 -43.494  1.00  0.00    -0.344 N 
ATOM      4  H   UNL     1      14.443 -24.875 -42.967  1.00  0.00     0.164 HD
ENDROOT
BRANCH   1   5
ATOM      5  C   UNL     1      13.801 -25.392 -45.419  1.00  0.00     0.039 A 
ATOM      6  C   UNL     1      11.433 -24.692 -46.744  1.00  0.00     0.012 A 
ATOM      7  C   UNL     1      12.490 -25.269 -47.454  1.00  0.00     0.016 A 
ATOM      8  C   UNL     1      11.526 -24.565 -45.352  1.00  0.00     0.016 A 
ATOM      9  C   UNL     1      13.672 -25.613 -46.795  1.00  0.00     0.015 A 
ATOM     10  C   UNL     1      12.708 -24.912 -44.690  1.00  0.00     0.015 A 
BRANCH   6  11
ATOM     11  S   UNL     1      10.049 -23.999 -47.648  1.00  0.00    -0.088 SA
BRANCH  11  12
ATOM     12  C   UNL     1      10.849 -23.511 -49.157  1.00  0.00     0.041 A 
ATOM     13  C   UNL     1      10.597 -24.124 -50.374  1.00  0.00     0.021 A 
ATOM     14  S   UNL     1      11.386 -23.300 -51.657  1.00  0.00    -0.119 S 
ATOM     15  C   UNL     1      12.044 -22.132 -50.605  1.00  0.00     0.134 A 
ATOM     16  C   UNL     1      11.764 -22.415 -49.283  1.00  0.00     0.091 A 
ATOM     17  N   UNL     1      12.736 -21.066 -51.087  1.00  0.00    -0.204 NA
ATOM     18  C   UNL     1      12.363 -21.537 -48.289  1.00  0.00     0.262 C 
ATOM     19  C   UNL     1      13.122 -20.218 -50.176  1.00  0.00     0.201 C 
ATOM     20  N   UNL     1      12.925 -20.410 -48.835  1.00  0.00    -0.292 N 
ATOM     21  O   UNL     1      12.424 -21.803 -47.093  1.00  0.00    -0.269 OA
ATOM     22  N   UNL     1      13.751 -19.058 -50.496  1.00  0.00    -0.369 N 
ATOM     23  H   UNL     1      13.222 -19.653 -48.214  1.00  0.00     0.173 HD
ATOM     24  H   UNL     1      13.659 -18.366 -49.724  1.00  0.00     0.159 HD
ATOM     25  H   UNL     1      13.414 -18.662 -51.362  1.00  0.00     0.159 HD
BRANCH  13  26
ATOM     26  C   UNL     1       9.739 -25.314 -50.693  1.00  0.00     0.044 C 
ATOM     27  C   UNL     1       8.428 -24.902 -51.347  1.00  0.00     0.010 C 
ENDBRANCH  13  26
ENDBRANCH  11  12
ENDBRANCH   6  11
ENDBRANCH   1   5
BRANCH   3  28
ATOM     28  C   UNL     1      16.486 -24.771 -42.829  1.00  0.00     0.128 C 
BRANCH  28  29
ATOM     29  C   UNL     1      16.373 -23.295 -42.381  1.00  0.00     0.037 C 
BRANCH  29  30
ATOM     30  C   UNL     1      15.731 -22.357 -43.417  1.00  0.00     0.055 C 
BRANCH  30  31
ATOM     31  C   UNL     1      16.552 -22.064 -44.674  1.00  0.00     0.041 C 
ATOM     32  O   UNL     1      15.932 -22.293 -45.766  1.00  0.00    -0.550 OA
ATOM     33  O   UNL     1      17.725 -21.632 -44.528  1.00  0.00    -0.550 OA
ENDBRANCH  30  31
ENDBRANCH  29  30
ENDBRANCH  28  29
BRANCH  28  34
ATOM     34  C   UNL     1      16.842 -25.691 -41.608  1.00  0.00     0.064 C 
ATOM     35  O   UNL     1      18.052 -25.693 -41.239  1.00  0.00    -0.548 OA
ATOM     36  O   UNL     1      15.865 -26.376 -41.161  1.00  0.00    -0.548 OA
ENDBRANCH  28  34
ENDBRANCH   3  28
TORSDOF 9
ENDMDL
MODEL 8
REMARK VINA RESULT:    -6.259      4.550     10.670
REMARK INTER + INTRA:         -11.165
REMARK INTER:                  -9.615
REMARK INTRA:                  -1.550
REMARK UNBOUND:                -1.612
REMARK SMILES CCc1sc2nc(N)[nH]c(=O)c2c1Sc1ccc(C(=O)N[C@@H](CCC(=O)[O-])C(=O)[O-])cc1
REMARK SMILES IDX 19 1 20 2 21 3 18 5 15 6 16 7 32 8 17 9 31 10 14 11 13 12
REMARK SMILES IDX 3 13 4 14 5 15 12 16 6 17 10 18 7 19 9 20 11 21 8 22 2 26
REMARK SMILES IDX 1 27 22 28 23 29 24 30 25 31 26 32 27 33 28 34 29 35 30 36
REMARK H PARENT 21 4 9 23 8 24 8 25
ROOT
ATOM      1  C   UNL     1      10.507 -22.744 -49.734  1.00  0.00     0.251 C 
ATOM      2  O   UNL     1      10.993 -21.899 -50.479  1.00  0.00    -0.269 OA
ATOM      3  N   UNL     1       9.269 -23.307 -49.881  1.00  0.00    -0.344 N 
ATOM      4  H   UNL     1       8.924 -24.028 -49.256  1.00  0.00     0.164 HD
ENDROOT
BRANCH   1   5
ATOM      5  C   UNL     1      11.318 -23.293 -48.611  1.00  0.00     0.039 A 
ATOM      6  C   UNL     1      13.018 -24.604 -46.808  1.00  0.00     0.012 A 
ATOM      7  C   UNL     1      13.532 -23.647 -47.687  1.00  0.00     0.016 A 
ATOM      8  C   UNL     1      11.634 -24.824 -46.761  1.00  0.00     0.016 A 
ATOM      9  C   UNL     1      12.687 -22.998 -48.590  1.00  0.00     0.015 A 
ATOM     10  C   UNL     1      10.786 -24.172 -47.662  1.00  0.00     0.015 A 
BRANCH   6  11
ATOM     11  S   UNL     1      14.151 -25.623 -45.866  1.00  0.00    -0.088 SA
BRANCH  11  12
ATOM     12  C   UNL     1      14.797 -24.430 -44.720  1.00  0.00     0.041 A 
ATOM     13  C   UNL     1      14.136 -24.071 -43.556  1.00  0.00     0.021 A 
ATOM     14  S   UNL     1      15.109 -23.042 -42.584  1.00  0.00    -0.119 S 
ATOM     15  C   UNL     1      16.401 -23.087 -43.695  1.00  0.00     0.134 A 
ATOM     16  C   UNL     1      16.070 -23.782 -44.841  1.00  0.00     0.091 A 
ATOM     17  N   UNL     1      17.592 -22.499 -43.408  1.00  0.00    -0.204 NA
ATOM     18  C   UNL     1      17.065 -23.799 -45.902  1.00  0.00     0.262 C 
ATOM     19  C   UNL     1      18.510 -22.670 -44.316  1.00  0.00     0.201 C 
ATOM     20  N   UNL     1      18.287 -23.316 -45.502  1.00  0.00    -0.292 N 
ATOM     21  O   UNL     1      16.826 -24.142 -47.055  1.00  0.00    -0.269 OA
ATOM     22  N   UNL     1      19.780 -22.220 -44.147  1.00  0.00    -0.369 N 
ATOM     23  H   UNL     1      19.094 -23.439 -46.118  1.00  0.00     0.173 HD
ATOM     24  H   UNL     1      20.438 -22.737 -44.765  1.00  0.00     0.159 HD
ATOM     25  H   UNL     1      20.086 -22.277 -43.186  1.00  0.00     0.159 HD
BRANCH  13  26
ATOM     26  C   UNL     1      12.783 -24.480 -43.052  1.00  0.00     0.044 C 
ATOM     27  C   UNL     1      12.864 -25.102 -41.666  1.00  0.00     0.010 C 
ENDBRANCH  13  26
ENDBRANCH  11  12
ENDBRANCH   6  11
ENDBRANCH   1   5
BRANCH   3  28
ATOM     28  C   UNL     1       8.520 -23.362 -51.154  1.00  0.00     0.128 C 
BRANCH  28  29
ATOM     29  C   UNL     1       8.431 -24.816 -51.672  1.00  0.00     0.037 C 
BRANCH  29  30
ATOM     30  C   UNL     1       8.647 -25.895 -50.598  1.00  0.00     0.055 C 
BRANCH  30  31
ATOM     31  C   UNL     1       7.508 -26.099 -49.597  1.00  0.00     0.041 C 
ATOM     32  O   UNL     1       7.832 -25.863 -48.385  1.00  0.00    -0.550 OA
ATOM     33  O   UNL     1       6.388 -26.462 -50.040  1.00  0.00    -0.550 OA
ENDBRANCH  30  31
ENDBRANCH  29  30
ENDBRANCH  28  29
BRANCH  28  34
ATOM     34  C   UNL     1       7.085 -22.742 -51.004  1.00  0.00     0.064 C 
ATOM     35  O   UNL     1       6.668 -22.048 -51.976  1.00  0.00    -0.548 OA
ATOM     36  O   UNL     1       6.525 -22.973 -49.883  1.00  0.00    -0.548 OA
ENDBRANCH  28  34
ENDBRANCH   3  28
TORSDOF 9
ENDMDL
MODEL 9
REMARK VINA RESULT:    -6.072     23.615     25.956
REMARK INTER + INTRA:         -10.880
REMARK INTER:                  -8.046
REMARK INTRA:                  -2.834
REMARK UNBOUND:                -1.612
REMARK SMILES CCc1sc2nc(N)[nH]c(=O)c2c1Sc1ccc(C(=O)N[C@@H](CCC(=O)[O-])C(=O)[O-])cc1
REMARK SMILES IDX 19 1 20 2 21 3 18 5 15 6 16 7 32 8 17 9 31 10 14 11 13 12
REMARK SMILES IDX 3 13 4 14 5 15 12 16 6 17 10 18 7 19 9 20 11 21 8 22 2 26
REMARK SMILES IDX 1 27 22 28 23 29 24 30 25 31 26 32 27 33 28 34 29 35 30 36
REMARK H PARENT 21 4 9 23 8 24 8 25
ROOT
ATOM      1  C   UNL     1      -0.496  -9.614 -33.556  1.00  0.00     0.251 C 
ATOM      2  O   UNL     1      -0.627 -10.798 -33.265  1.00  0.00    -0.269 OA
ATOM      3  N   UNL     1      -1.145  -8.975 -34.578  1.00  0.00    -0.344 N 
ATOM      4  H   UNL     1      -1.027  -7.984 -34.759  1.00  0.00     0.164 HD
ENDROOT
BRANCH   1   5
ATOM      5  C   UNL     1       0.363  -8.736 -32.712  1.00  0.00     0.039 A 
ATOM      6  C   UNL     1       1.663  -6.774 -31.189  1.00  0.00     0.012 A 
ATOM      7  C   UNL     1       0.569  -7.463 -30.658  1.00  0.00     0.016 A 
ATOM      8  C   UNL     1       2.169  -7.145 -32.442  1.00  0.00     0.016 A 
ATOM      9  C   UNL     1      -0.083  -8.437 -31.419  1.00  0.00     0.015 A 
ATOM     10  C   UNL     1       1.520  -8.122 -33.203  1.00  0.00     0.015 A 
BRANCH   6  11
ATOM     11  S   UNL     1       2.299  -5.342 -30.319  1.00  0.00    -0.088 SA
BRANCH  11  12
ATOM     12  C   UNL     1       2.336  -4.146 -31.632  1.00  0.00     0.041 A 
ATOM     13  C   UNL     1       3.514  -3.686 -32.198  1.00  0.00     0.021 A 
ATOM     14  S   UNL     1       3.198  -2.685 -33.558  1.00  0.00    -0.119 S 
ATOM     15  C   UNL     1       1.512  -2.876 -33.402  1.00  0.00     0.134 A 
ATOM     16  C   UNL     1       1.177  -3.598 -32.274  1.00  0.00     0.091 A 
ATOM     17  N   UNL     1       0.660  -2.362 -34.330  1.00  0.00    -0.204 NA
ATOM     18  C   UNL     1      -0.243  -3.737 -31.988  1.00  0.00     0.262 C 
ATOM     19  C   UNL     1      -0.594  -2.642 -34.122  1.00  0.00     0.201 C 
ATOM     20  N   UNL     1      -1.044  -3.326 -33.024  1.00  0.00    -0.292 N 
ATOM     21  O   UNL     1      -0.686  -4.115 -30.909  1.00  0.00    -0.269 OA
ATOM     22  N   UNL     1      -1.566  -2.278 -34.999  1.00  0.00    -0.369 N 
ATOM     23  H   UNL     1      -2.045  -3.535 -32.991  1.00  0.00     0.173 HD
ATOM     24  H   UNL     1      -2.413  -2.869 -34.875  1.00  0.00     0.159 HD
ATOM     25  H   UNL     1      -1.253  -2.312 -35.958  1.00  0.00     0.159 HD
BRANCH  13  26
ATOM     26  C   UNL     1       4.939  -3.972 -31.821  1.00  0.00     0.044 C 
ATOM     27  C   UNL     1       5.551  -5.042 -32.712  1.00  0.00     0.010 C 
ENDBRANCH  13  26
ENDBRANCH  11  12
ENDBRANCH   6  11
ENDBRANCH   1   5
BRANCH   3  28
ATOM     28  C   UNL     1      -2.409  -9.439 -35.186  1.00  0.00     0.128 C 
BRANCH  28  29
ATOM     29  C   UNL     1      -3.462  -8.306 -35.182  1.00  0.00     0.037 C 
BRANCH  29  30
ATOM     30  C   UNL     1      -3.275  -7.259 -34.073  1.00  0.00     0.055 C 
BRANCH  30  31
ATOM     31  C   UNL     1      -2.543  -5.973 -34.464  1.00  0.00     0.041 C 
ATOM     32  O   UNL     1      -1.271  -6.075 -34.451  1.00  0.00    -0.550 OA
ATOM     33  O   UNL     1      -3.233  -4.965 -34.762  1.00  0.00    -0.550 OA
ENDBRANCH  30  31
ENDBRANCH  29  30
ENDBRANCH  28  29
BRANCH  28  34
ATOM     34  C   UNL     1      -2.184  -9.976 -36.644  1.00  0.00     0.064 C 
ATOM     35  O   UNL     1      -3.079  -9.695 -37.492  1.00  0.00    -0.548 OA
ATOM     36  O   UNL     1      -1.136 -10.686 -36.789  1.00  0.00    -0.548 OA
ENDBRANCH  28  34
ENDBRANCH   3  28
TORSDOF 9
ENDMDL
