MODEL 1
REMARK VINA RESULT:    -8.138      0.000      0.000
REMARK INTER + INTRA:         -10.520
REMARK INTER:                 -10.041
REMARK INTRA:                  -0.479
REMARK UNBOUND:                -0.479
REMARK SMILES COc1cc(-n2ccc3c4c(N)nc(N)[nH+]c4nc(=O)c-3c2)cc(OC)c1OC
REMARK SMILES IDX 3 1 4 2 5 3 23 4 24 5 27 6 2 7 1 8 28 9 29 10 6 11 7 12
REMARK SMILES IDX 22 13 8 14 21 15 9 16 19 17 10 18 18 19 20 20 11 21 17 22
REMARK SMILES IDX 12 23 13 24 16 25 14 26 15 27 25 33 26 34
REMARK H PARENT 12 28 12 29 16 30 15 31 15 32
ROOT
ATOM      1  C   UNL     1      16.138 -23.471 -42.421  1.00  0.00     0.166 A 
ATOM      2  C   UNL     1      15.323 -23.399 -43.558  1.00  0.00     0.077 A 
ATOM      3  C   UNL     1      13.986 -23.843 -43.533  1.00  0.00     0.053 A 
ATOM      4  C   UNL     1      13.495 -24.379 -42.329  1.00  0.00     0.077 A 
ATOM      5  C   UNL     1      14.299 -24.476 -41.189  1.00  0.00     0.166 A 
ATOM      6  C   UNL     1      15.606 -23.980 -41.225  1.00  0.00     0.203 A 
ENDROOT
BRANCH   1   7
ATOM      7  O   UNL     1      17.438 -23.038 -42.371  1.00  0.00    -0.493 OA
ATOM      8  C   UNL     1      18.287 -23.388 -43.457  1.00  0.00     0.278 C 
ENDBRANCH   1   7
BRANCH   6   9
ATOM      9  O   UNL     1      16.398 -24.023 -40.103  1.00  0.00    -0.490 OA
ATOM     10  C   UNL     1      16.769 -25.374 -39.821  1.00  0.00     0.278 C 
ENDBRANCH   6   9
BRANCH   3  11
ATOM     11  N   UNL     1      13.153 -23.755 -44.697  1.00  0.00    -0.323 N 
ATOM     12  C   UNL     1      12.254 -24.772 -45.029  1.00  0.00     0.092 C 
ATOM     13  C   UNL     1      13.245 -22.665 -45.572  1.00  0.00     0.107 C 
ATOM     14  C   UNL     1      11.450 -24.746 -46.108  1.00  0.00     0.028 C 
ATOM     15  C   UNL     1      12.497 -22.540 -46.686  1.00  0.00     0.080 C 
ATOM     16  C   UNL     1      11.499 -23.581 -47.001  1.00  0.00     0.010 C 
ATOM     17  C   UNL     1      12.664 -21.329 -47.541  1.00  0.00     0.332 C 
ATOM     18  C   UNL     1      10.723 -23.408 -48.092  1.00  0.00     0.106 C 
ATOM     19  N   UNL     1      11.979 -21.338 -48.727  1.00  0.00    -0.092 NA
ATOM     20  O   UNL     1      13.373 -20.394 -47.203  1.00  0.00    -0.252 OA
ATOM     21  C   UNL     1       9.584 -24.244 -48.579  1.00  0.00     0.198 C 
ATOM     22  C   UNL     1      11.127 -22.266 -48.935  1.00  0.00     0.247 C 
ATOM     23  N   UNL     1       8.961 -25.214 -47.841  1.00  0.00    -0.373 N 
ATOM     24  N   UNL     1       9.090 -24.052 -49.769  1.00  0.00    -0.089 NA
ATOM     25  N   UNL     1      10.478 -22.238 -50.190  1.00  0.00    -0.236 N 
ATOM     26  C   UNL     1       9.559 -23.084 -50.569  1.00  0.00     0.344 C 
ATOM     27  N   UNL     1       9.043 -22.994 -51.768  1.00  0.00    -0.308 N 
ATOM     28  H   UNL     1       8.821 -25.033 -46.850  1.00  0.00     0.159 HD
ATOM     29  H   UNL     1       8.107 -25.573 -48.264  1.00  0.00     0.159 HD
ATOM     30  H   UNL     1      10.765 -21.505 -50.821  1.00  0.00     0.245 HD
ATOM     31  H   UNL     1       8.334 -23.678 -52.003  1.00  0.00     0.232 HD
ATOM     32  H   UNL     1       9.314 -22.307 -52.453  1.00  0.00     0.232 HD
ENDBRANCH   3  11
BRANCH   5  33
ATOM     33  O   UNL     1      13.674 -25.024 -40.099  1.00  0.00    -0.493 OA
ATOM     34  C   UNL     1      13.122 -24.076 -39.187  1.00  0.00     0.278 C 
ENDBRANCH   5  33
TORSDOF 4
ENDMDL
MODEL 2
REMARK VINA RESULT:    -8.136      2.975      8.451
REMARK INTER + INTRA:         -10.518
REMARK INTER:                  -9.941
REMARK INTRA:                  -0.577
REMARK UNBOUND:                -0.479
REMARK SMILES COc1cc(-n2ccc3c4c(N)nc(N)[nH+]c4nc(=O)c-3c2)cc(OC)c1OC
REMARK SMILES IDX 3 1 4 2 5 3 23 4 24 5 27 6 2 7 1 8 28 9 29 10 6 11 7 12
REMARK SMILES IDX 22 13 8 14 21 15 9 16 19 17 10 18 18 19 20 20 11 21 17 22
REMARK SMILES IDX 12 23 13 24 16 25 14 26 15 27 25 33 26 34
REMARK H PARENT 12 28 12 29 16 30 15 31 15 32
ROOT
ATOM      1  C   UNL     1      11.898 -21.968 -49.621  1.00  0.00     0.166 A 
ATOM      2  C   UNL     1      12.485 -22.206 -48.371  1.00  0.00     0.077 A 
ATOM      3  C   UNL     1      11.986 -23.196 -47.503  1.00  0.00     0.053 A 
ATOM      4  C   UNL     1      10.866 -23.934 -47.922  1.00  0.00     0.077 A 
ATOM      5  C   UNL     1      10.255 -23.698 -49.158  1.00  0.00     0.166 A 
ATOM      6  C   UNL     1      10.800 -22.746 -50.024  1.00  0.00     0.203 A 
ENDROOT
BRANCH   1   7
ATOM      7  O   UNL     1      12.345 -21.035 -50.522  1.00  0.00    -0.493 OA
ATOM      8  C   UNL     1      13.374 -20.152 -50.095  1.00  0.00     0.278 C 
ENDBRANCH   1   7
BRANCH   6   9
ATOM      9  O   UNL     1      10.243 -22.531 -51.262  1.00  0.00    -0.490 OA
ATOM     10  C   UNL     1      10.697 -23.527 -52.180  1.00  0.00     0.278 C 
ENDBRANCH   6   9
BRANCH   3  11
ATOM     11  N   UNL     1      12.600 -23.443 -46.230  1.00  0.00    -0.323 N 
ATOM     12  C   UNL     1      11.932 -24.146 -45.223  1.00  0.00     0.092 C 
ATOM     13  C   UNL     1      13.875 -22.946 -45.932  1.00  0.00     0.107 C 
ATOM     14  C   UNL     1      12.455 -24.407 -44.010  1.00  0.00     0.028 C 
ATOM     15  C   UNL     1      14.491 -23.137 -44.748  1.00  0.00     0.080 C 
ATOM     16  C   UNL     1      13.815 -23.938 -43.709  1.00  0.00     0.010 C 
ATOM     17  C   UNL     1      15.857 -22.577 -44.543  1.00  0.00     0.332 C 
ATOM     18  C   UNL     1      14.472 -24.162 -42.552  1.00  0.00     0.106 C 
ATOM     19  N   UNL     1      16.360 -22.685 -43.272  1.00  0.00    -0.092 NA
ATOM     20  O   UNL     1      16.482 -22.051 -45.450  1.00  0.00    -0.252 OA
ATOM     21  C   UNL     1      14.068 -25.009 -41.388  1.00  0.00     0.198 C 
ATOM     22  C   UNL     1      15.727 -23.395 -42.422  1.00  0.00     0.247 C 
ATOM     23  N   UNL     1      13.049 -25.922 -41.409  1.00  0.00    -0.373 N 
ATOM     24  N   UNL     1      14.722 -24.935 -40.264  1.00  0.00    -0.089 NA
ATOM     25  N   UNL     1      16.279 -23.440 -41.122  1.00  0.00    -0.236 N 
ATOM     26  C   UNL     1      15.789 -24.135 -40.131  1.00  0.00     0.344 C 
ATOM     27  N   UNL     1      16.356 -24.081 -38.953  1.00  0.00    -0.308 N 
ATOM     28  H   UNL     1      12.924 -26.468 -42.257  1.00  0.00     0.159 HD
ATOM     29  H   UNL     1      13.012 -26.522 -40.587  1.00  0.00     0.159 HD
ATOM     30  H   UNL     1      17.108 -22.885 -40.973  1.00  0.00     0.245 HD
ATOM     31  H   UNL     1      15.930 -24.643 -38.225  1.00  0.00     0.232 HD
ATOM     32  H   UNL     1      17.163 -23.518 -38.736  1.00  0.00     0.232 HD
ENDBRANCH   3  11
BRANCH   5  33
ATOM     33  O   UNL     1       9.172 -24.498 -49.417  1.00  0.00    -0.493 OA
ATOM     34  C   UNL     1       8.017 -24.218 -48.627  1.00  0.00     0.278 C 
ENDBRANCH   5  33
TORSDOF 4
ENDMDL
MODEL 3
REMARK VINA RESULT:    -8.066      0.112      2.347
REMARK INTER + INTRA:         -10.431
REMARK INTER:                  -9.961
REMARK INTRA:                  -0.470
REMARK UNBOUND:                -0.479
REMARK SMILES COc1cc(-n2ccc3c4c(N)nc(N)[nH+]c4nc(=O)c-3c2)cc(OC)c1OC
REMARK SMILES IDX 3 1 4 2 5 3 23 4 24 5 27 6 2 7 1 8 28 9 29 10 6 11 7 12
REMARK SMILES IDX 22 13 8 14 21 15 9 16 19 17 10 18 18 19 20 20 11 21 17 22
REMARK SMILES IDX 12 23 13 24 16 25 14 26 15 27 25 33 26 34
REMARK H PARENT 12 28 12 29 16 30 15 31 15 32
ROOT
ATOM      1  C   UNL     1      14.263 -24.446 -41.159  1.00  0.00     0.166 A 
ATOM      2  C   UNL     1      13.461 -24.358 -42.306  1.00  0.00     0.077 A 
ATOM      3  C   UNL     1      13.958 -23.820 -43.509  1.00  0.00     0.053 A 
ATOM      4  C   UNL     1      15.285 -23.357 -43.523  1.00  0.00     0.077 A 
ATOM      5  C   UNL     1      16.094 -23.418 -42.384  1.00  0.00     0.166 A 
ATOM      6  C   UNL     1      15.595 -24.004 -41.217  1.00  0.00     0.203 A 
ENDROOT
BRANCH   1   7
ATOM      7  O   UNL     1      13.850 -24.976 -39.964  1.00  0.00    -0.493 OA
ATOM      8  C   UNL     1      13.189 -24.105 -39.055  1.00  0.00     0.278 C 
ENDBRANCH   1   7
BRANCH   6   9
ATOM      9  O   UNL     1      16.388 -24.117 -40.100  1.00  0.00    -0.490 OA
ATOM     10  C   UNL     1      16.924 -25.439 -40.016  1.00  0.00     0.278 C 
ENDBRANCH   6   9
BRANCH   3  11
ATOM     11  N   UNL     1      13.136 -23.746 -44.683  1.00  0.00    -0.323 N 
ATOM     12  C   UNL     1      12.257 -24.778 -45.023  1.00  0.00     0.092 C 
ATOM     13  C   UNL     1      13.218 -22.655 -45.557  1.00  0.00     0.107 C 
ATOM     14  C   UNL     1      11.463 -24.766 -46.110  1.00  0.00     0.028 C 
ATOM     15  C   UNL     1      12.480 -22.543 -46.679  1.00  0.00     0.080 C 
ATOM     16  C   UNL     1      11.502 -23.600 -47.003  1.00  0.00     0.010 C 
ATOM     17  C   UNL     1      12.636 -21.330 -47.532  1.00  0.00     0.332 C 
ATOM     18  C   UNL     1      10.734 -23.441 -48.102  1.00  0.00     0.106 C 
ATOM     19  N   UNL     1      11.963 -21.351 -48.726  1.00  0.00    -0.092 NA
ATOM     20  O   UNL     1      13.326 -20.383 -47.187  1.00  0.00    -0.252 OA
ATOM     21  C   UNL     1       9.614 -24.296 -48.600  1.00  0.00     0.198 C 
ATOM     22  C   UNL     1      11.129 -22.293 -48.942  1.00  0.00     0.247 C 
ATOM     23  N   UNL     1       9.000 -25.275 -47.867  1.00  0.00    -0.373 N 
ATOM     24  N   UNL     1       9.130 -24.113 -49.795  1.00  0.00    -0.089 NA
ATOM     25  N   UNL     1      10.491 -22.276 -50.203  1.00  0.00    -0.236 N 
ATOM     26  C   UNL     1       9.590 -23.138 -50.591  1.00  0.00     0.344 C 
ATOM     27  N   UNL     1       9.086 -23.056 -51.795  1.00  0.00    -0.308 N 
ATOM     28  H   UNL     1       8.848 -25.097 -46.878  1.00  0.00     0.159 HD
ATOM     29  H   UNL     1       8.157 -25.649 -48.299  1.00  0.00     0.159 HD
ATOM     30  H   UNL     1      10.773 -21.538 -50.832  1.00  0.00     0.245 HD
ATOM     31  H   UNL     1       8.390 -23.752 -52.037  1.00  0.00     0.232 HD
ATOM     32  H   UNL     1       9.352 -22.365 -52.477  1.00  0.00     0.232 HD
ENDBRANCH   3  11
BRANCH   5  33
ATOM     33  O   UNL     1      17.360 -22.923 -42.560  1.00  0.00    -0.493 OA
ATOM     34  C   UNL     1      18.187 -23.689 -43.434  1.00  0.00     0.278 C 
ENDBRANCH   5  33
TORSDOF 4
ENDMDL
MODEL 4
REMARK VINA RESULT:    -7.854      2.971      8.720
REMARK INTER + INTRA:         -10.170
REMARK INTER:                  -9.655
REMARK INTRA:                  -0.516
REMARK UNBOUND:                -0.479
REMARK SMILES COc1cc(-n2ccc3c4c(N)nc(N)[nH+]c4nc(=O)c-3c2)cc(OC)c1OC
REMARK SMILES IDX 3 1 4 2 5 3 23 4 24 5 27 6 2 7 1 8 28 9 29 10 6 11 7 12
REMARK SMILES IDX 22 13 8 14 21 15 9 16 19 17 10 18 18 19 20 20 11 21 17 22
REMARK SMILES IDX 12 23 13 24 16 25 14 26 15 27 25 33 26 34
REMARK H PARENT 12 28 12 29 16 30 15 31 15 32
ROOT
ATOM      1  C   UNL     1      10.129 -23.798 -49.141  1.00  0.00     0.166 A 
ATOM      2  C   UNL     1      10.758 -24.019 -47.909  1.00  0.00     0.077 A 
ATOM      3  C   UNL     1      11.916 -23.308 -47.538  1.00  0.00     0.053 A 
ATOM      4  C   UNL     1      12.435 -22.375 -48.453  1.00  0.00     0.077 A 
ATOM      5  C   UNL     1      11.832 -22.155 -49.695  1.00  0.00     0.166 A 
ATOM      6  C   UNL     1      10.654 -22.834 -50.018  1.00  0.00     0.203 A 
ENDROOT
BRANCH   1   7
ATOM      7  O   UNL     1       8.990 -24.439 -49.555  1.00  0.00    -0.493 OA
ATOM      8  C   UNL     1       7.880 -24.443 -48.666  1.00  0.00     0.278 C 
ENDBRANCH   1   7
BRANCH   6   9
ATOM      9  O   UNL     1      10.019 -22.599 -51.214  1.00  0.00    -0.490 OA
ATOM     10  C   UNL     1      10.479 -23.525 -52.200  1.00  0.00     0.278 C 
ENDBRANCH   6   9
BRANCH   3  11
ATOM     11  N   UNL     1      12.547 -23.530 -46.269  1.00  0.00    -0.323 N 
ATOM     12  C   UNL     1      11.899 -24.226 -45.245  1.00  0.00     0.092 C 
ATOM     13  C   UNL     1      13.821 -23.015 -45.994  1.00  0.00     0.107 C 
ATOM     14  C   UNL     1      12.439 -24.463 -44.035  1.00  0.00     0.028 C 
ATOM     15  C   UNL     1      14.452 -23.183 -44.815  1.00  0.00     0.080 C 
ATOM     16  C   UNL     1      13.797 -23.976 -43.756  1.00  0.00     0.010 C 
ATOM     17  C   UNL     1      15.814 -22.605 -44.632  1.00  0.00     0.332 C 
ATOM     18  C   UNL     1      14.469 -24.177 -42.603  1.00  0.00     0.106 C 
ATOM     19  N   UNL     1      16.333 -22.689 -43.367  1.00  0.00    -0.092 NA
ATOM     20  O   UNL     1      16.423 -22.085 -45.554  1.00  0.00    -0.252 OA
ATOM     21  C   UNL     1      14.088 -25.011 -41.423  1.00  0.00     0.198 C 
ATOM     22  C   UNL     1      15.717 -23.394 -42.499  1.00  0.00     0.247 C 
ATOM     23  N   UNL     1      13.079 -25.935 -41.420  1.00  0.00    -0.373 N 
ATOM     24  N   UNL     1      14.754 -24.914 -40.308  1.00  0.00    -0.089 NA
ATOM     25  N   UNL     1      16.284 -23.415 -41.205  1.00  0.00    -0.236 N 
ATOM     26  C   UNL     1      15.814 -24.101 -40.198  1.00  0.00     0.344 C 
ATOM     27  N   UNL     1      16.393 -24.024 -39.028  1.00  0.00    -0.308 N 
ATOM     28  H   UNL     1      12.950 -26.494 -42.259  1.00  0.00     0.159 HD
ATOM     29  H   UNL     1      13.058 -26.524 -40.589  1.00  0.00     0.159 HD
ATOM     30  H   UNL     1      17.109 -22.848 -41.074  1.00  0.00     0.245 HD
ATOM     31  H   UNL     1      15.982 -24.580 -38.288  1.00  0.00     0.232 HD
ATOM     32  H   UNL     1      17.196 -23.450 -38.828  1.00  0.00     0.232 HD
ENDBRANCH   3  11
BRANCH   5  33
ATOM     33  O   UNL     1      12.461 -21.217 -50.473  1.00  0.00    -0.493 OA
ATOM     34  C   UNL     1      13.337 -20.342 -49.764  1.00  0.00     0.278 C 
ENDBRANCH   5  33
TORSDOF 4
ENDMDL
MODEL 5
REMARK VINA RESULT:    -7.761      1.637      3.456
REMARK INTER + INTRA:         -10.055
REMARK INTER:                  -9.416
REMARK INTRA:                  -0.639
REMARK UNBOUND:                -0.479
REMARK SMILES COc1cc(-n2ccc3c4c(N)nc(N)[nH+]c4nc(=O)c-3c2)cc(OC)c1OC
REMARK SMILES IDX 3 1 4 2 5 3 23 4 24 5 27 6 2 7 1 8 28 9 29 10 6 11 7 12
REMARK SMILES IDX 22 13 8 14 21 15 9 16 19 17 10 18 18 19 20 20 11 21 17 22
REMARK SMILES IDX 12 23 13 24 16 25 14 26 15 27 25 33 26 34
REMARK H PARENT 12 28 12 29 16 30 15 31 15 32
ROOT
ATOM      1  C   UNL     1      13.764 -24.332 -41.877  1.00  0.00     0.166 A 
ATOM      2  C   UNL     1      13.017 -24.225 -43.058  1.00  0.00     0.077 A 
ATOM      3  C   UNL     1      13.544 -23.604 -44.207  1.00  0.00     0.053 A 
ATOM      4  C   UNL     1      14.845 -23.078 -44.131  1.00  0.00     0.077 A 
ATOM      5  C   UNL     1      15.599 -23.158 -42.956  1.00  0.00     0.166 A 
ATOM      6  C   UNL     1      15.074 -23.825 -41.845  1.00  0.00     0.203 A 
ENDROOT
BRANCH   1   7
ATOM      7  O   UNL     1      13.321 -24.940 -40.732  1.00  0.00    -0.493 OA
ATOM      8  C   UNL     1      12.987 -26.320 -40.810  1.00  0.00     0.278 C 
ENDBRANCH   1   7
BRANCH   6   9
ATOM      9  O   UNL     1      15.817 -23.956 -40.696  1.00  0.00    -0.490 OA
ATOM     10  C   UNL     1      16.565 -25.172 -40.736  1.00  0.00     0.278 C 
ENDBRANCH   6   9
BRANCH   3  11
ATOM     11  N   UNL     1      12.777 -23.510 -45.416  1.00  0.00    -0.323 N 
ATOM     12  C   UNL     1      13.017 -22.502 -46.354  1.00  0.00     0.092 C 
ATOM     13  C   UNL     1      11.727 -24.399 -45.679  1.00  0.00     0.107 C 
ATOM     14  C   UNL     1      12.331 -22.362 -47.503  1.00  0.00     0.028 C 
ATOM     15  C   UNL     1      10.968 -24.346 -46.791  1.00  0.00     0.080 C 
ATOM     16  C   UNL     1      11.264 -23.324 -47.814  1.00  0.00     0.010 C 
ATOM     17  C   UNL     1       9.883 -25.352 -46.978  1.00  0.00     0.332 C 
ATOM     18  C   UNL     1      10.526 -23.323 -48.944  1.00  0.00     0.106 C 
ATOM     19  N   UNL     1       9.062 -25.150 -48.056  1.00  0.00    -0.092 NA
ATOM     20  O   UNL     1       9.736 -26.292 -46.212  1.00  0.00    -0.252 OA
ATOM     21  C   UNL     1      10.676 -22.476 -50.166  1.00  0.00     0.198 C 
ATOM     22  C   UNL     1       9.378 -24.251 -48.906  1.00  0.00     0.247 C 
ATOM     23  N   UNL     1      11.774 -21.710 -50.450  1.00  0.00    -0.373 N 
ATOM     24  N   UNL     1       9.740 -22.458 -51.072  1.00  0.00    -0.089 NA
ATOM     25  N   UNL     1       8.475 -24.069 -49.977  1.00  0.00    -0.236 N 
ATOM     26  C   UNL     1       8.644 -23.220 -50.955  1.00  0.00     0.344 C 
ATOM     27  N   UNL     1       7.729 -23.102 -51.882  1.00  0.00    -0.308 N 
ATOM     28  H   UNL     1      12.687 -22.090 -50.213  1.00  0.00     0.159 HD
ATOM     29  H   UNL     1      11.779 -21.324 -51.392  1.00  0.00     0.159 HD
ATOM     30  H   UNL     1       7.647 -24.645 -49.961  1.00  0.00     0.245 HD
ATOM     31  H   UNL     1       7.918 -22.428 -52.614  1.00  0.00     0.232 HD
ATOM     32  H   UNL     1       6.867 -23.624 -51.900  1.00  0.00     0.232 HD
ENDBRANCH   3  11
BRANCH   5  33
ATOM     33  O   UNL     1      16.846 -22.594 -43.043  1.00  0.00    -0.493 OA
ATOM     34  C   UNL     1      17.773 -23.312 -43.857  1.00  0.00     0.278 C 
ENDBRANCH   5  33
TORSDOF 4
ENDMDL
MODEL 6
REMARK VINA RESULT:    -7.074      1.801      2.734
REMARK INTER + INTRA:          -9.207
REMARK INTER:                  -8.700
REMARK INTRA:                  -0.507
REMARK UNBOUND:                -0.479
REMARK SMILES COc1cc(-n2ccc3c4c(N)nc(N)[nH+]c4nc(=O)c-3c2)cc(OC)c1OC
REMARK SMILES IDX 3 1 4 2 5 3 23 4 24 5 27 6 2 7 1 8 28 9 29 10 6 11 7 12
REMARK SMILES IDX 22 13 8 14 21 15 9 16 19 17 10 18 18 19 20 20 11 21 17 22
REMARK SMILES IDX 12 23 13 24 16 25 14 26 15 27 25 33 26 34
REMARK H PARENT 12 28 12 29 16 30 15 31 15 32
ROOT
ATOM      1  C   UNL     1      17.150 -24.985 -42.225  1.00  0.00     0.166 A 
ATOM      2  C   UNL     1      16.422 -24.654 -43.376  1.00  0.00     0.077 A 
ATOM      3  C   UNL     1      15.077 -24.241 -43.301  1.00  0.00     0.053 A 
ATOM      4  C   UNL     1      14.478 -24.183 -42.031  1.00  0.00     0.077 A 
ATOM      5  C   UNL     1      15.182 -24.527 -40.873  1.00  0.00     0.166 A 
ATOM      6  C   UNL     1      16.531 -24.884 -40.968  1.00  0.00     0.203 A 
ENDROOT
BRANCH   1   7
ATOM      7  O   UNL     1      18.464 -25.374 -42.226  1.00  0.00    -0.493 OA
ATOM      8  C   UNL     1      18.849 -26.385 -43.148  1.00  0.00     0.278 C 
ENDBRANCH   1   7
BRANCH   6   9
ATOM      9  O   UNL     1      17.255 -25.181 -39.838  1.00  0.00    -0.490 OA
ATOM     10  C   UNL     1      16.870 -26.462 -39.336  1.00  0.00     0.278 C 
ENDBRANCH   6   9
BRANCH   3  11
ATOM     11  N   UNL     1      14.342 -23.892 -44.482  1.00  0.00    -0.323 N 
ATOM     12  C   UNL     1      14.701 -22.791 -45.265  1.00  0.00     0.092 C 
ATOM     13  C   UNL     1      13.207 -24.615 -44.870  1.00  0.00     0.107 C 
ATOM     14  C   UNL     1      14.050 -22.413 -46.381  1.00  0.00     0.028 C 
ATOM     15  C   UNL     1      12.474 -24.321 -45.961  1.00  0.00     0.080 C 
ATOM     16  C   UNL     1      12.891 -23.200 -46.826  1.00  0.00     0.010 C 
ATOM     17  C   UNL     1      11.291 -25.167 -46.291  1.00  0.00     0.332 C 
ATOM     18  C   UNL     1      12.174 -22.957 -47.943  1.00  0.00     0.106 C 
ATOM     19  N   UNL     1      10.512 -24.725 -47.327  1.00  0.00    -0.092 NA
ATOM     20  O   UNL     1      11.034 -26.187 -45.669  1.00  0.00    -0.252 OA
ATOM     21  C   UNL     1      12.431 -21.964 -49.030  1.00  0.00     0.198 C 
ATOM     22  C   UNL     1      10.934 -23.752 -48.038  1.00  0.00     0.247 C 
ATOM     23  N   UNL     1      13.608 -21.287 -49.201  1.00  0.00    -0.373 N 
ATOM     24  N   UNL     1      11.515 -21.715 -49.922  1.00  0.00    -0.089 NA
ATOM     25  N   UNL     1      10.070 -23.322 -49.071  1.00  0.00    -0.236 N 
ATOM     26  C   UNL     1      10.342 -22.364 -49.915  1.00  0.00     0.344 C 
ATOM     27  N   UNL     1       9.459 -22.016 -50.815  1.00  0.00    -0.308 N 
ATOM     28  H   UNL     1      14.472 -21.793 -49.023  1.00  0.00     0.159 HD
ATOM     29  H   UNL     1      13.668 -20.772 -50.078  1.00  0.00     0.159 HD
ATOM     30  H   UNL     1       9.185 -23.802 -49.137  1.00  0.00     0.245 HD
ATOM     31  H   UNL     1       9.728 -21.267 -51.441  1.00  0.00     0.232 HD
ATOM     32  H   UNL     1       8.547 -22.434 -50.907  1.00  0.00     0.232 HD
ENDBRANCH   3  11
BRANCH   5  33
ATOM     33  O   UNL     1      14.456 -24.422 -39.715  1.00  0.00    -0.493 OA
ATOM     34  C   UNL     1      13.076 -24.111 -39.899  1.00  0.00     0.278 C 
ENDBRANCH   5  33
TORSDOF 4
ENDMDL
MODEL 7
REMARK VINA RESULT:    -7.045      3.333      8.810
REMARK INTER + INTRA:          -9.172
REMARK INTER:                  -8.521
REMARK INTRA:                  -0.651
REMARK UNBOUND:                -0.479
REMARK SMILES COc1cc(-n2ccc3c4c(N)nc(N)[nH+]c4nc(=O)c-3c2)cc(OC)c1OC
REMARK SMILES IDX 3 1 4 2 5 3 23 4 24 5 27 6 2 7 1 8 28 9 29 10 6 11 7 12
REMARK SMILES IDX 22 13 8 14 21 15 9 16 19 17 10 18 18 19 20 20 11 21 17 22
REMARK SMILES IDX 12 23 13 24 16 25 14 26 15 27 25 33 26 34
REMARK H PARENT 12 28 12 29 16 30 15 31 15 32
ROOT
ATOM      1  C   UNL     1      10.210 -23.765 -51.644  1.00  0.00     0.166 A 
ATOM      2  C   UNL     1      11.059 -23.766 -50.529  1.00  0.00     0.077 A 
ATOM      3  C   UNL     1      10.550 -23.682 -49.218  1.00  0.00     0.053 A 
ATOM      4  C   UNL     1       9.157 -23.580 -49.060  1.00  0.00     0.077 A 
ATOM      5  C   UNL     1       8.295 -23.557 -50.161  1.00  0.00     0.166 A 
ATOM      6  C   UNL     1       8.821 -23.695 -51.449  1.00  0.00     0.203 A 
ENDROOT
BRANCH   1   7
ATOM      7  O   UNL     1      10.637 -23.864 -52.942  1.00  0.00    -0.493 OA
ATOM      8  C   UNL     1      11.413 -25.004 -53.292  1.00  0.00     0.278 C 
ENDBRANCH   1   7
BRANCH   6   9
ATOM      9  O   UNL     1       7.988 -23.723 -52.542  1.00  0.00    -0.490 OA
ATOM     10  C   UNL     1       7.515 -25.053 -52.760  1.00  0.00     0.278 C 
ENDBRANCH   6   9
BRANCH   3  11
ATOM     11  N   UNL     1      11.425 -23.698 -48.081  1.00  0.00    -0.323 N 
ATOM     12  C   UNL     1      11.048 -24.306 -46.881  1.00  0.00     0.092 C 
ATOM     13  C   UNL     1      12.672 -23.061 -48.117  1.00  0.00     0.107 C 
ATOM     14  C   UNL     1      11.823 -24.351 -45.781  1.00  0.00     0.028 C 
ATOM     15  C   UNL     1      13.524 -23.033 -47.074  1.00  0.00     0.080 C 
ATOM     16  C   UNL     1      13.156 -23.734 -45.828  1.00  0.00     0.010 C 
ATOM     17  C   UNL     1      14.835 -22.339 -47.226  1.00  0.00     0.332 C 
ATOM     18  C   UNL     1      14.048 -23.740 -44.815  1.00  0.00     0.106 C 
ATOM     19  N   UNL     1      15.586 -22.227 -46.085  1.00  0.00    -0.092 NA
ATOM     20  O   UNL     1      15.209 -21.895 -48.300  1.00  0.00    -0.252 OA
ATOM     21  C   UNL     1      13.975 -24.447 -43.500  1.00  0.00     0.198 C 
ATOM     22  C   UNL     1      15.212 -22.861 -45.042  1.00  0.00     0.247 C 
ATOM     23  N   UNL     1      13.077 -25.435 -43.198  1.00  0.00    -0.373 N 
ATOM     24  N   UNL     1      14.824 -24.163 -42.554  1.00  0.00    -0.089 NA
ATOM     25  N   UNL     1      16.010 -22.679 -43.890  1.00  0.00    -0.236 N 
ATOM     26  C   UNL     1      15.803 -23.267 -42.743  1.00  0.00     0.344 C 
ATOM     27  N   UNL     1      16.580 -23.003 -41.724  1.00  0.00    -0.308 N 
ATOM     28  H   UNL     1      12.848 -26.102 -43.931  1.00  0.00     0.159 HD
ATOM     29  H   UNL     1      13.268 -25.915 -42.321  1.00  0.00     0.159 HD
ATOM     30  H   UNL     1      16.787 -22.042 -43.985  1.00  0.00     0.245 HD
ATOM     31  H   UNL     1      16.369 -23.491 -40.862  1.00  0.00     0.232 HD
ATOM     32  H   UNL     1      17.347 -22.351 -41.749  1.00  0.00     0.232 HD
ENDBRANCH   3  11
BRANCH   5  33
ATOM     33  O   UNL     1       6.967 -23.451 -49.839  1.00  0.00    -0.493 OA
ATOM     34  C   UNL     1       6.439 -24.550 -49.099  1.00  0.00     0.278 C 
ENDBRANCH   5  33
TORSDOF 4
ENDMDL
MODEL 8
REMARK VINA RESULT:    -7.011      3.348      9.093
REMARK INTER + INTRA:          -9.129
REMARK INTER:                  -8.504
REMARK INTRA:                  -0.625
REMARK UNBOUND:                -0.479
REMARK SMILES COc1cc(-n2ccc3c4c(N)nc(N)[nH+]c4nc(=O)c-3c2)cc(OC)c1OC
REMARK SMILES IDX 3 1 4 2 5 3 23 4 24 5 27 6 2 7 1 8 28 9 29 10 6 11 7 12
REMARK SMILES IDX 22 13 8 14 21 15 9 16 19 17 10 18 18 19 20 20 11 21 17 22
REMARK SMILES IDX 12 23 13 24 16 25 14 26 15 27 25 33 26 34
REMARK H PARENT 12 28 12 29 16 30 15 31 15 32
ROOT
ATOM      1  C   UNL     1       8.298 -23.545 -50.042  1.00  0.00     0.166 A 
ATOM      2  C   UNL     1       9.183 -23.574 -48.956  1.00  0.00     0.077 A 
ATOM      3  C   UNL     1      10.577 -23.649 -49.147  1.00  0.00     0.053 A 
ATOM      4  C   UNL     1      11.057 -23.710 -50.467  1.00  0.00     0.077 A 
ATOM      5  C   UNL     1      10.188 -23.701 -51.563  1.00  0.00     0.166 A 
ATOM      6  C   UNL     1       8.813 -23.573 -51.349  1.00  0.00     0.203 A 
ENDROOT
BRANCH   1   7
ATOM      7  O   UNL     1       6.935 -23.452 -49.928  1.00  0.00    -0.493 OA
ATOM      8  C   UNL     1       6.248 -24.560 -49.360  1.00  0.00     0.278 C 
ENDBRANCH   1   7
BRANCH   6   9
ATOM      9  O   UNL     1       7.945 -23.516 -52.413  1.00  0.00    -0.490 OA
ATOM     10  C   UNL     1       7.635 -24.837 -52.861  1.00  0.00     0.278 C 
ENDBRANCH   6   9
BRANCH   3  11
ATOM     11  N   UNL     1      11.478 -23.665 -48.031  1.00  0.00    -0.323 N 
ATOM     12  C   UNL     1      11.125 -24.266 -46.819  1.00  0.00     0.092 C 
ATOM     13  C   UNL     1      12.728 -23.038 -48.099  1.00  0.00     0.107 C 
ATOM     14  C   UNL     1      11.926 -24.311 -45.738  1.00  0.00     0.028 C 
ATOM     15  C   UNL     1      13.605 -23.011 -47.076  1.00  0.00     0.080 C 
ATOM     16  C   UNL     1      13.262 -23.703 -45.819  1.00  0.00     0.010 C 
ATOM     17  C   UNL     1      14.917 -22.327 -47.262  1.00  0.00     0.332 C 
ATOM     18  C   UNL     1      14.176 -23.711 -44.826  1.00  0.00     0.106 C 
ATOM     19  N   UNL     1      15.695 -22.214 -46.139  1.00  0.00    -0.092 NA
ATOM     20  O   UNL     1      15.268 -21.890 -48.347  1.00  0.00    -0.252 OA
ATOM     21  C   UNL     1      14.129 -24.411 -43.506  1.00  0.00     0.198 C 
ATOM     22  C   UNL     1      15.341 -22.842 -45.085  1.00  0.00     0.247 C 
ATOM     23  N   UNL     1      13.232 -25.391 -43.180  1.00  0.00    -0.373 N 
ATOM     24  N   UNL     1      15.002 -24.129 -42.582  1.00  0.00    -0.089 NA
ATOM     25  N   UNL     1      16.167 -22.660 -43.953  1.00  0.00    -0.236 N 
ATOM     26  C   UNL     1      15.982 -23.241 -42.798  1.00  0.00     0.344 C 
ATOM     27  N   UNL     1      16.785 -22.977 -41.799  1.00  0.00    -0.308 N 
ATOM     28  H   UNL     1      12.981 -26.060 -43.903  1.00  0.00     0.159 HD
ATOM     29  H   UNL     1      13.439 -25.868 -42.304  1.00  0.00     0.159 HD
ATOM     30  H   UNL     1      16.945 -22.028 -44.069  1.00  0.00     0.245 HD
ATOM     31  H   UNL     1      16.591 -23.460 -40.930  1.00  0.00     0.232 HD
ATOM     32  H   UNL     1      17.556 -22.331 -41.845  1.00  0.00     0.232 HD
ENDBRANCH   3  11
BRANCH   5  33
ATOM     33  O   UNL     1      10.812 -23.770 -52.781  1.00  0.00    -0.493 OA
ATOM     34  C   UNL     1      11.356 -25.048 -53.106  1.00  0.00     0.278 C 
ENDBRANCH   5  33
TORSDOF 4
ENDMDL
MODEL 9
REMARK VINA RESULT:    -7.005      3.928      9.274
REMARK INTER + INTRA:          -9.122
REMARK INTER:                  -8.530
REMARK INTRA:                  -0.592
REMARK UNBOUND:                -0.479
REMARK SMILES COc1cc(-n2ccc3c4c(N)nc(N)[nH+]c4nc(=O)c-3c2)cc(OC)c1OC
REMARK SMILES IDX 3 1 4 2 5 3 23 4 24 5 27 6 2 7 1 8 28 9 29 10 6 11 7 12
REMARK SMILES IDX 22 13 8 14 21 15 9 16 19 17 10 18 18 19 20 20 11 21 17 22
REMARK SMILES IDX 12 23 13 24 16 25 14 26 15 27 25 33 26 34
REMARK H PARENT 12 28 12 29 16 30 15 31 15 32
ROOT
ATOM      1  C   UNL     1       7.353 -23.648 -51.670  1.00  0.00     0.166 A 
ATOM      2  C   UNL     1       8.481 -23.589 -50.840  1.00  0.00     0.077 A 
ATOM      3  C   UNL     1       8.399 -23.897 -49.468  1.00  0.00     0.053 A 
ATOM      4  C   UNL     1       7.143 -24.253 -48.949  1.00  0.00     0.077 A 
ATOM      5  C   UNL     1       6.003 -24.299 -49.757  1.00  0.00     0.166 A 
ATOM      6  C   UNL     1       6.119 -24.040 -51.126  1.00  0.00     0.203 A 
ENDROOT
BRANCH   1   7
ATOM      7  O   UNL     1       7.367 -23.381 -53.015  1.00  0.00    -0.493 OA
ATOM      8  C   UNL     1       8.317 -24.077 -53.812  1.00  0.00     0.278 C 
ENDBRANCH   1   7
BRANCH   6   9
ATOM      9  O   UNL     1       5.020 -24.125 -51.947  1.00  0.00    -0.490 OA
ATOM     10  C   UNL     1       4.841 -25.474 -52.382  1.00  0.00     0.278 C 
ENDBRANCH   6   9
BRANCH   3  11
ATOM     11  N   UNL     1       9.561 -23.848 -48.627  1.00  0.00    -0.323 N 
ATOM     12  C   UNL     1       9.796 -24.821 -47.652  1.00  0.00     0.092 C 
ATOM     13  C   UNL     1      10.479 -22.794 -48.722  1.00  0.00     0.107 C 
ATOM     14  C   UNL     1      10.865 -24.826 -46.834  1.00  0.00     0.028 C 
ATOM     15  C   UNL     1      11.577 -22.692 -47.947  1.00  0.00     0.080 C 
ATOM     16  C   UNL     1      11.862 -23.755 -46.963  1.00  0.00     0.010 C 
ATOM     17  C   UNL     1      12.498 -21.536 -48.142  1.00  0.00     0.332 C 
ATOM     18  C   UNL     1      12.996 -23.661 -46.236  1.00  0.00     0.106 C 
ATOM     19  N   UNL     1      13.511 -21.420 -47.227  1.00  0.00    -0.092 NA
ATOM     20  O   UNL     1      12.350 -20.740 -49.057  1.00  0.00    -0.252 OA
ATOM     21  C   UNL     1      13.570 -24.633 -45.256  1.00  0.00     0.198 C 
ATOM     22  C   UNL     1      13.706 -22.377 -46.405  1.00  0.00     0.247 C 
ATOM     23  N   UNL     1      13.156 -25.930 -45.116  1.00  0.00    -0.373 N 
ATOM     24  N   UNL     1      14.557 -24.280 -44.484  1.00  0.00    -0.089 NA
ATOM     25  N   UNL     1      14.744 -22.184 -45.467  1.00  0.00    -0.236 N 
ATOM     26  C   UNL     1      15.108 -23.061 -44.570  1.00  0.00     0.344 C 
ATOM     27  N   UNL     1      16.060 -22.771 -43.721  1.00  0.00    -0.308 N 
ATOM     28  H   UNL     1      12.909 -26.439 -45.961  1.00  0.00     0.159 HD
ATOM     29  H   UNL     1      13.756 -26.494 -44.518  1.00  0.00     0.159 HD
ATOM     30  H   UNL     1      15.221 -21.296 -45.510  1.00  0.00     0.245 HD
ATOM     31  H   UNL     1      16.297 -23.493 -43.051  1.00  0.00     0.232 HD
ATOM     32  H   UNL     1      16.547 -21.890 -43.694  1.00  0.00     0.232 HD
ENDBRANCH   3  11
BRANCH   5  33
ATOM     33  O   UNL     1       4.855 -24.659 -49.099  1.00  0.00    -0.493 OA
ATOM     34  C   UNL     1       4.008 -23.572 -48.731  1.00  0.00     0.278 C 
ENDBRANCH   5  33
TORSDOF 4
ENDMDL
