REMARK SMILES COc1cc([C@@H](C)C#Cc2c(C)nc(N)nc2N)cc(OC)c1OC
REMARK SMILES IDX 6 1 7 2 8 3 5 4 3 5 4 6 23 7 20 8 19 9 2 10 1 11 24 12 25 13
REMARK SMILES IDX 21 14 22 15 9 16 10 17 11 18 17 19 13 20 16 21 14 22 12 23
REMARK SMILES IDX 18 24 15 27
REMARK H PARENT 18 25 18 26 15 28 15 29
ROOT
ATOM      1  C   UNL     1       1.075   0.893  -2.580  1.00  0.00     0.092 C 
ATOM      2  C   UNL     1       1.491   2.320  -2.944  1.00  0.00     0.027 C 
ATOM      3  C   UNL     1       2.185   0.180  -1.914  1.00  0.00    -0.090 C 
ENDROOT
BRANCH   1   4
ATOM      4  C   UNL     1      -0.180   0.878  -1.718  1.00  0.00    -0.026 A 
ATOM      5  C   UNL     1      -2.516   0.239  -1.429  1.00  0.00     0.164 A 
ATOM      6  C   UNL     1      -1.353   0.273  -2.204  1.00  0.00     0.055 A 
ATOM      7  C   UNL     1      -2.491   0.802  -0.142  1.00  0.00     0.203 A 
ATOM      8  C   UNL     1      -1.338   1.428   0.359  1.00  0.00     0.164 A 
ATOM      9  C   UNL     1      -0.188   1.455  -0.433  1.00  0.00     0.055 A 
BRANCH   5  10
ATOM     10  O   UNL     1      -3.702  -0.327  -1.820  1.00  0.00    -0.493 OA
ATOM     11  C   UNL     1      -3.810  -0.758  -3.169  1.00  0.00     0.278 C 
ENDBRANCH   5  10
BRANCH   7  12
ATOM     12  O   UNL     1      -3.643   0.808   0.614  1.00  0.00    -0.490 OA
ATOM     13  C   UNL     1      -3.694  -0.365   1.424  1.00  0.00     0.278 C 
ENDBRANCH   7  12
BRANCH   8  14
ATOM     14  O   UNL     1      -1.433   1.958   1.620  1.00  0.00    -0.493 OA
ATOM     15  C   UNL     1      -0.331   2.718   2.097  1.00  0.00     0.278 C 
ENDBRANCH   8  14
ENDBRANCH   1   4
BRANCH   3  16
ATOM     16  C   UNL     1       3.060  -0.407  -1.336  1.00  0.00    -0.061 C 
ATOM     17  C   UNL     1       4.076  -1.109  -0.609  1.00  0.00     0.088 A 
ATOM     18  C   UNL     1       3.847  -1.630   0.655  1.00  0.00     0.061 A 
ATOM     19  C   UNL     1       5.355  -1.303  -1.123  1.00  0.00     0.145 A 
ATOM     20  N   UNL     1       4.804  -2.290   1.347  1.00  0.00    -0.217 NA
ATOM     21  N   UNL     1       6.310  -1.960  -0.448  1.00  0.00    -0.195 NA
ATOM     22  C   UNL     1       5.989  -2.442   0.753  1.00  0.00     0.222 A 
ATOM     23  C   UNL     1       2.517  -1.493   1.340  1.00  0.00     0.068 C 
BRANCH  19  24
ATOM     24  N   UNL     1       5.717  -0.818  -2.396  1.00  0.00    -0.382 N 
ATOM     25  H   UNL     1       5.110  -1.241  -3.093  1.00  0.00     0.158 HD
ATOM     26  H   UNL     1       5.564   0.185  -2.428  1.00  0.00     0.158 HD
ENDBRANCH  19  24
BRANCH  22  27
ATOM     27  N   UNL     1       6.971  -3.107   1.456  1.00  0.00    -0.368 N 
ATOM     28  H   UNL     1       6.793  -3.035   2.447  1.00  0.00     0.159 HD
ATOM     29  H   UNL     1       7.879  -2.817   1.119  1.00  0.00     0.159 HD
ENDBRANCH  22  27
ENDBRANCH   3  16
TORSDOF 7
