REMARK SMILES Nc1nc(N)c(-c2ccc(NCc3ccc(Cl)cc3)cc2)c(COCc2ccccc2)n1
REMARK SMILES IDX 2 1 3 2 4 3 6 4 22 5 32 6 1 7 5 10 23 13 24 14 25 15 26 16
REMARK SMILES IDX 27 17 31 18 28 19 30 20 29 21 7 22 8 23 21 24 9 25 20 26
REMARK SMILES IDX 10 27 11 28 12 30 13 31 14 32 19 33 15 34 18 35 16 36 17 37
REMARK H PARENT 1 8 1 9 5 11 5 12 11 29
ROOT
ATOM      1  C   UNL     1      -5.862  -1.594   0.425  1.00  0.00     0.222 A 
ATOM      2  N   UNL     1      -5.709  -0.572  -0.413  1.00  0.00    -0.196 NA
ATOM      3  C   UNL     1      -4.463  -0.101  -0.575  1.00  0.00     0.137 A 
ATOM      4  C   UNL     1      -3.349  -0.606   0.097  1.00  0.00     0.048 A 
ATOM      5  C   UNL     1      -3.629  -1.660   0.965  1.00  0.00     0.082 A 
ATOM      6  N   UNL     1      -4.882  -2.158   1.129  1.00  0.00    -0.215 NA
ENDROOT
BRANCH   1   7
ATOM      7  N   UNL     1      -7.139  -2.081   0.614  1.00  0.00    -0.368 N 
ATOM      8  H   UNL     1      -7.807  -1.352   0.404  1.00  0.00     0.159 HD
ATOM      9  H   UNL     1      -7.199  -2.509   1.528  1.00  0.00     0.159 HD
ENDBRANCH   1   7
BRANCH   3  10
ATOM     10  N   UNL     1      -4.364   0.989  -1.448  1.00  0.00    -0.383 N 
ATOM     11  H   UNL     1      -5.274   1.123  -1.879  1.00  0.00     0.158 HD
ATOM     12  H   UNL     1      -3.621   0.862  -2.127  1.00  0.00     0.158 HD
ENDBRANCH   3  10
BRANCH   5  13
ATOM     13  C   UNL     1      -2.559  -2.318   1.806  1.00  0.00     0.217 C 
BRANCH  13  14
ATOM     14  O   UNL     1      -2.123  -1.422   2.831  1.00  0.00    -0.370 OA
BRANCH  14  15
ATOM     15  C   UNL     1      -1.256  -2.052   3.774  1.00  0.00     0.196 C 
BRANCH  15  16
ATOM     16  C   UNL     1       0.113  -2.328   3.203  1.00  0.00    -0.022 A 
ATOM     17  C   UNL     1       0.690  -3.601   3.305  1.00  0.00     0.006 A 
ATOM     18  C   UNL     1       0.836  -1.306   2.574  1.00  0.00     0.006 A 
ATOM     19  C   UNL     1       1.958  -3.847   2.773  1.00  0.00     0.000 A 
ATOM     20  C   UNL     1       2.100  -1.554   2.038  1.00  0.00     0.000 A 
ATOM     21  C   UNL     1       2.661  -2.825   2.138  1.00  0.00     0.000 A 
ENDBRANCH  15  16
ENDBRANCH  14  15
ENDBRANCH  13  14
ENDBRANCH   5  13
BRANCH   4  22
ATOM     22  C   UNL     1      -2.001  -0.063  -0.114  1.00  0.00    -0.013 A 
ATOM     23  C   UNL     1      -1.067  -0.734  -0.912  1.00  0.00     0.011 A 
ATOM     24  C   UNL     1      -1.614   1.149   0.470  1.00  0.00     0.011 A 
ATOM     25  C   UNL     1       0.211  -0.199  -1.120  1.00  0.00     0.026 A 
ATOM     26  C   UNL     1      -0.335   1.680   0.254  1.00  0.00     0.026 A 
ATOM     27  C   UNL     1       0.588   1.035  -0.573  1.00  0.00     0.034 A 
BRANCH  27  28
ATOM     28  N   UNL     1       1.899   1.482  -0.769  1.00  0.00    -0.381 N 
ATOM     29  H   UNL     1       2.330   1.015  -1.564  1.00  0.00     0.160 HD
BRANCH  28  30
ATOM     30  C   UNL     1       2.203   2.910  -0.781  1.00  0.00     0.148 C 
BRANCH  30  31
ATOM     31  C   UNL     1       1.944   3.500  -2.150  1.00  0.00    -0.029 A 
ATOM     32  C   UNL     1       0.687   4.033  -2.473  1.00  0.00     0.007 A 
ATOM     33  C   UNL     1       2.949   3.488  -3.131  1.00  0.00     0.007 A 
ATOM     34  C   UNL     1       0.443   4.557  -3.744  1.00  0.00     0.021 A 
ATOM     35  C   UNL     1       2.705   4.013  -4.402  1.00  0.00     0.021 A 
ATOM     36  C   UNL     1       1.453   4.546  -4.703  1.00  0.00     0.041 A 
ATOM     37  Cl  UNL     1       1.153   5.190  -6.270  1.00  0.00    -0.084 Cl
ENDBRANCH  30  31
ENDBRANCH  28  30
ENDBRANCH  27  28
ENDBRANCH   4  22
TORSDOF 10
