REMARK SMILES Oc1ccc(/N=N/c2ccc(Br)cc2)cc1
REMARK SMILES IDX 2 1 3 2 4 3 5 4 15 5 16 6 1 7 6 9 7 10 8 11 9 12 14 13 10 14
REMARK SMILES IDX 13 15 11 16 12 17
REMARK H PARENT 1 8
ROOT
ATOM      1  C   UNL     1      -3.769  -1.658   1.510  1.00  0.00     0.115 A 
ATOM      2  C   UNL     1      -2.680  -2.346   2.032  1.00  0.00     0.048 A 
ATOM      3  C   UNL     1      -1.387  -1.876   1.793  1.00  0.00     0.034 A 
ATOM      4  C   UNL     1      -1.179  -0.714   1.041  1.00  0.00     0.086 A 
ATOM      5  C   UNL     1      -2.291  -0.042   0.512  1.00  0.00     0.034 A 
ATOM      6  C   UNL     1      -3.588  -0.508   0.749  1.00  0.00     0.048 A 
ENDROOT
BRANCH   1   7
ATOM      7  O   UNL     1      -5.013  -2.150   1.768  1.00  0.00    -0.508 OA
ATOM      8  H   UNL     1      -5.671  -1.570   1.350  1.00  0.00     0.293 HD
ENDBRANCH   1   7
BRANCH   4   9
ATOM      9  N   UNL     1       0.137  -0.284   0.794  1.00  0.00    -0.151 NA
ATOM     10  N   UNL     1       0.316   0.871   1.239  1.00  0.00    -0.151 NA
BRANCH  10  11
ATOM     11  C   UNL     1       1.638   1.292   1.006  1.00  0.00     0.086 A 
ATOM     12  C   UNL     1       2.453   1.619   2.095  1.00  0.00     0.031 A 
ATOM     13  C   UNL     1       2.148   1.445  -0.292  1.00  0.00     0.031 A 
ATOM     14  C   UNL     1       3.762   2.068   1.898  1.00  0.00     0.018 A 
ATOM     15  C   UNL     1       3.455   1.894  -0.496  1.00  0.00     0.018 A 
ATOM     16  C   UNL     1       4.257   2.202   0.602  1.00  0.00     0.018 A 
ATOM     17  Br  UNL     1       6.026   2.810   0.331  1.00  0.00    -0.051 Br
ENDBRANCH  10  11
ENDBRANCH   4   9
TORSDOF 3
