MODEL 1
REMARK VINA RESULT:    -4.718      0.000      0.000
REMARK INTER + INTRA:          -6.297
REMARK INTER:                  -6.648
REMARK INTRA:                   0.352
REMARK UNBOUND:                 0.352
REMARK SMILES Nc1nc(N)c2c3c(sc2n1)CCCCCC3
REMARK SMILES IDX 2 1 3 2 4 3 6 4 7 5 8 6 9 7 10 8 11 9 1 10 5 13 17 16 16 17
REMARK SMILES IDX 15 18 12 20 13 21 14 22
REMARK H PARENT 1 11 1 12 5 14 5 15
REMARK Flexibility Score:    8.900
ROOT
ATOM      1  C   UNL     1      11.559 -22.478 -48.548  1.00  0.00     0.223 A 
ATOM      2  N   UNL     1      12.714 -22.025 -49.036  1.00  0.00    -0.196 NA
ATOM      3  C   UNL     1      13.842 -22.170 -48.314  1.00  0.00     0.138 A 
ATOM      4  C   UNL     1      13.794 -22.826 -47.068  1.00  0.00     0.057 A 
ATOM      5  C   UNL     1      14.779 -23.197 -46.060  1.00  0.00    -0.021 A 
ATOM      6  C   UNL     1      14.188 -23.889 -45.010  1.00  0.00     0.011 A 
ATOM      7  S   UNL     1      12.502 -24.050 -45.198  1.00  0.00    -0.120 S 
ATOM      8  C   UNL     1      12.528 -23.256 -46.699  1.00  0.00     0.131 A 
ATOM      9  N   UNL     1      11.390 -23.108 -47.393  1.00  0.00    -0.202 NA
ENDROOT
BRANCH   1  10
ATOM     10  N   UNL     1      10.440 -22.309 -49.341  1.00  0.00    -0.368 N 
ATOM     11  H   UNL     1      10.548 -22.838 -50.195  1.00  0.00     0.159 HD
ATOM     12  H   UNL     1       9.607 -22.478 -48.793  1.00  0.00     0.159 HD
ENDBRANCH   1  10
BRANCH   3  13
ATOM     13  N   UNL     1      14.987 -21.623 -48.891  1.00  0.00    -0.383 N 
ATOM     14  H   UNL     1      14.878 -21.666 -49.901  1.00  0.00     0.158 HD
ATOM     15  H   UNL     1      15.185 -20.691 -48.556  1.00  0.00     0.158 HD
ENDBRANCH   3  13
BRANCH   5  16
ATOM     16  C   UNL     1      16.260 -22.931 -46.122  1.00  0.00     0.037 C 
BRANCH  16  17
ATOM     17  C   UNL     1      16.783 -22.063 -44.976  1.00  0.00     0.005 C 
BRANCH  17  18
ATOM     18  C   UNL     1      17.666 -22.793 -43.952  1.00  0.00     0.000 CG0
ATOM     19  G   UNL     1      16.917 -23.348 -42.737  1.00  0.00     0.000 G0
ENDBRANCH  17  18
ENDBRANCH  16  17
ENDBRANCH   5  16
BRANCH   6  20
ATOM     20  C   UNL     1      14.868 -24.506 -43.825  1.00  0.00     0.047 C 
BRANCH  20  21
ATOM     21  C   UNL     1      15.405 -23.455 -42.850  1.00  0.00     0.006 C 
BRANCH  21  22
ATOM     22  C   UNL     1      16.930 -23.354 -42.721  1.00  0.00     0.000 CG0
ATOM     23  G   UNL     1      17.658 -22.800 -43.949  1.00  0.00     0.000 G0
ENDBRANCH  21  22
ENDBRANCH  20  21
ENDBRANCH   6  20
TORSDOF 2
ENDMDL
MODEL 2
REMARK VINA RESULT:    -4.503      3.185      4.736
REMARK INTER + INTRA:          -5.995
REMARK INTER:                  -6.327
REMARK INTRA:                   0.332
REMARK UNBOUND:                 0.352
REMARK SMILES Nc1nc(N)c2c3c(sc2n1)CCCCCC3
REMARK SMILES IDX 2 1 3 2 4 3 6 4 7 5 8 6 9 7 10 8 11 9 1 10 5 13 17 16 16 17
REMARK SMILES IDX 15 18 12 20 13 21 14 22
REMARK H PARENT 1 11 1 12 5 14 5 15
REMARK Flexibility Score:    8.900
ROOT
ATOM      1  C   UNL     1      14.118 -22.547 -46.216  1.00  0.00     0.223 A 
ATOM      2  N   UNL     1      12.924 -22.987 -45.816  1.00  0.00    -0.196 NA
ATOM      3  C   UNL     1      12.792 -23.519 -44.585  1.00  0.00     0.138 A 
ATOM      4  C   UNL     1      13.905 -23.574 -43.725  1.00  0.00     0.057 A 
ATOM      5  C   UNL     1      14.129 -24.021 -42.356  1.00  0.00    -0.021 A 
ATOM      6  C   UNL     1      15.445 -23.807 -41.965  1.00  0.00     0.011 A 
ATOM      7  S   UNL     1      16.397 -23.138 -43.210  1.00  0.00    -0.120 S 
ATOM      8  C   UNL     1      15.074 -23.066 -44.272  1.00  0.00     0.131 A 
ATOM      9  N   UNL     1      15.233 -22.548 -45.499  1.00  0.00    -0.202 NA
ENDROOT
BRANCH   1  10
ATOM     10  N   UNL     1      14.187 -22.003 -47.485  1.00  0.00    -0.368 N 
ATOM     11  H   UNL     1      13.290 -21.608 -47.732  1.00  0.00     0.159 HD
ATOM     12  H   UNL     1      14.994 -21.399 -47.551  1.00  0.00     0.159 HD
ENDBRANCH   1  10
BRANCH   3  13
ATOM     13  N   UNL     1      11.516 -23.990 -44.280  1.00  0.00    -0.383 N 
ATOM     14  H   UNL     1      11.591 -24.983 -44.074  1.00  0.00     0.158 HD
ATOM     15  H   UNL     1      11.074 -23.466 -43.538  1.00  0.00     0.158 HD
ENDBRANCH   3  13
BRANCH   5  16
ATOM     16  C   UNL     1      13.094 -24.601 -41.429  1.00  0.00     0.037 C 
BRANCH  16  17
ATOM     17  C   UNL     1      13.392 -26.034 -40.983  1.00  0.00     0.005 C 
BRANCH  17  18
ATOM     18  C   UNL     1      13.733 -26.199 -39.493  1.00  0.00     0.000 CG0
ATOM     19  G   UNL     1      15.219 -26.055 -39.154  1.00  0.00     0.000 G0
ENDBRANCH  17  18
ENDBRANCH  16  17
ENDBRANCH   5  16
BRANCH   6  20
ATOM     20  C   UNL     1      16.050 -24.057 -40.617  1.00  0.00     0.047 C 
BRANCH  20  21
ATOM     21  C   UNL     1      16.126 -25.548 -40.280  1.00  0.00     0.006 C 
BRANCH  21  22
ATOM     22  C   UNL     1      15.222 -26.042 -39.142  1.00  0.00     0.000 CG0
ATOM     23  G   UNL     1      13.742 -26.201 -39.501  1.00  0.00     0.000 G0
ENDBRANCH  21  22
ENDBRANCH  20  21
ENDBRANCH   6  20
TORSDOF 2
ENDMDL
MODEL 3
REMARK VINA RESULT:    -4.407      2.150      3.526
REMARK INTER + INTRA:          -5.858
REMARK INTER:                  -6.248
REMARK INTRA:                   0.390
REMARK UNBOUND:                 0.352
REMARK SMILES Nc1nc(N)c2c3c(sc2n1)CCCCCC3
REMARK SMILES IDX 2 1 3 2 4 3 6 4 7 5 8 6 9 7 10 8 11 9 1 10 5 13 17 16 16 17
REMARK SMILES IDX 15 18 12 20 13 21 14 22
REMARK H PARENT 1 11 1 12 5 14 5 15
REMARK Flexibility Score:    8.900
ROOT
ATOM      1  C   UNL     1      13.004 -20.650 -50.123  1.00  0.00     0.223 A 
ATOM      2  N   UNL     1      11.830 -21.228 -49.863  1.00  0.00    -0.196 NA
ATOM      3  C   UNL     1      11.748 -22.150 -48.885  1.00  0.00     0.138 A 
ATOM      4  C   UNL     1      12.891 -22.470 -48.128  1.00  0.00     0.057 A 
ATOM      5  C   UNL     1      13.168 -23.353 -47.002  1.00  0.00    -0.021 A 
ATOM      6  C   UNL     1      14.495 -23.255 -46.600  1.00  0.00     0.011 A 
ATOM      7  S   UNL     1      15.394 -22.179 -47.568  1.00  0.00    -0.120 S 
ATOM      8  C   UNL     1      14.034 -21.780 -48.502  1.00  0.00     0.131 A 
ATOM      9  N   UNL     1      14.143 -20.870 -49.482  1.00  0.00    -0.202 NA
ENDROOT
BRANCH   1  10
ATOM     10  N   UNL     1      13.022 -19.704 -51.130  1.00  0.00    -0.368 N 
ATOM     11  H   UNL     1      13.432 -18.848 -50.782  1.00  0.00     0.159 HD
ATOM     12  H   UNL     1      13.425 -20.105 -51.965  1.00  0.00     0.159 HD
ENDBRANCH   1  10
BRANCH   3  13
ATOM     13  N   UNL     1      10.489 -22.726 -48.722  1.00  0.00    -0.383 N 
ATOM     14  H   UNL     1      10.472 -23.593 -49.254  1.00  0.00     0.158 HD
ATOM     15  H   UNL     1      10.242 -22.856 -47.751  1.00  0.00     0.158 HD
ENDBRANCH   3  13
BRANCH   5  16
ATOM     16  C   UNL     1      12.173 -24.238 -46.299  1.00  0.00     0.037 C 
BRANCH  16  17
ATOM     17  C   UNL     1      11.913 -23.847 -44.843  1.00  0.00     0.005 C 
BRANCH  17  18
ATOM     18  C   UNL     1      12.515 -24.793 -43.792  1.00  0.00     0.000 CG0
ATOM     19  G   UNL     1      13.849 -24.331 -43.199  1.00  0.00     0.000 G0
ENDBRANCH  17  18
ENDBRANCH  16  17
ENDBRANCH   5  16
BRANCH   6  20
ATOM     20  C   UNL     1      15.150 -23.936 -45.436  1.00  0.00     0.047 C 
BRANCH  20  21
ATOM     21  C   UNL     1      14.672 -23.381 -44.093  1.00  0.00     0.006 C 
BRANCH  21  22
ATOM     22  C   UNL     1      13.856 -24.332 -43.207  1.00  0.00     0.000 CG0
ATOM     23  G   UNL     1      12.515 -24.785 -43.792  1.00  0.00     0.000 G0
ENDBRANCH  21  22
ENDBRANCH  20  21
ENDBRANCH   6  20
TORSDOF 2
ENDMDL
MODEL 4
REMARK VINA RESULT:    -4.393      4.340      6.358
REMARK INTER + INTRA:          -5.839
REMARK INTER:                  -6.162
REMARK INTRA:                   0.323
REMARK UNBOUND:                 0.352
REMARK SMILES Nc1nc(N)c2c3c(sc2n1)CCCCCC3
REMARK SMILES IDX 2 1 3 2 4 3 6 4 7 5 8 6 9 7 10 8 11 9 1 10 5 13 17 16 16 17
REMARK SMILES IDX 15 18 12 20 13 21 14 22
REMARK H PARENT 1 11 1 12 5 14 5 15
REMARK Flexibility Score:    8.900
ROOT
ATOM      1  C   UNL     1      15.583 -24.203 -40.291  1.00  0.00     0.223 A 
ATOM      2  N   UNL     1      14.350 -24.642 -40.550  1.00  0.00    -0.196 NA
ATOM      3  C   UNL     1      13.874 -24.577 -41.809  1.00  0.00     0.138 A 
ATOM      4  C   UNL     1      14.694 -24.079 -42.841  1.00  0.00     0.057 A 
ATOM      5  C   UNL     1      14.547 -23.904 -44.280  1.00  0.00    -0.021 A 
ATOM      6  C   UNL     1      15.708 -23.394 -44.846  1.00  0.00     0.011 A 
ATOM      7  S   UNL     1      16.921 -23.088 -43.689  1.00  0.00    -0.120 S 
ATOM      8  C   UNL     1      15.953 -23.675 -42.424  1.00  0.00     0.131 A 
ATOM      9  N   UNL     1      16.442 -23.715 -41.175  1.00  0.00    -0.202 NA
ENDROOT
BRANCH   1  10
ATOM     10  N   UNL     1      16.017 -24.306 -38.983  1.00  0.00    -0.368 N 
ATOM     11  H   UNL     1      16.152 -23.381 -38.598  1.00  0.00     0.159 HD
ATOM     12  H   UNL     1      15.414 -24.937 -38.474  1.00  0.00     0.159 HD
ENDBRANCH   1  10
BRANCH   3  13
ATOM     13  N   UNL     1      12.562 -25.017 -41.966  1.00  0.00    -0.383 N 
ATOM     14  H   UNL     1      11.987 -24.537 -41.279  1.00  0.00     0.158 HD
ATOM     15  H   UNL     1      12.223 -24.903 -42.911  1.00  0.00     0.158 HD
ENDBRANCH   3  13
BRANCH   5  16
ATOM     16  C   UNL     1      13.335 -24.259 -45.100  1.00  0.00     0.037 C 
BRANCH  16  17
ATOM     17  C   UNL     1      12.676 -23.059 -45.786  1.00  0.00     0.005 C 
BRANCH  17  18
ATOM     18  C   UNL     1      12.770 -23.049 -47.320  1.00  0.00     0.000 CG0
ATOM     19  G   UNL     1      14.053 -22.428 -47.881  1.00  0.00     0.000 G0
ENDBRANCH  17  18
ENDBRANCH  16  17
ENDBRANCH   5  16
BRANCH   6  20
ATOM     20  C   UNL     1      15.985 -23.148 -46.299  1.00  0.00     0.047 C 
BRANCH  20  21
ATOM     21  C   UNL     1      15.119 -22.025 -46.874  1.00  0.00     0.006 C 
BRANCH  21  22
ATOM     22  C   UNL     1      14.053 -22.436 -47.898  1.00  0.00     0.000 CG0
ATOM     23  G   UNL     1      12.779 -23.049 -47.309  1.00  0.00     0.000 G0
ENDBRANCH  21  22
ENDBRANCH  20  21
ENDBRANCH   6  20
TORSDOF 2
ENDMDL
MODEL 5
REMARK VINA RESULT:    -4.358      3.851      6.153
REMARK INTER + INTRA:          -5.789
REMARK INTER:                  -6.171
REMARK INTRA:                   0.382
REMARK UNBOUND:                 0.352
REMARK SMILES Nc1nc(N)c2c3c(sc2n1)CCCCCC3
REMARK SMILES IDX 2 1 3 2 4 3 6 4 7 5 8 6 9 7 10 8 11 9 1 10 5 13 17 16 16 17
REMARK SMILES IDX 15 18 12 20 13 21 14 22
REMARK H PARENT 1 11 1 12 5 14 5 15
REMARK Flexibility Score:    8.900
ROOT
ATOM      1  C   UNL     1      14.901 -23.670 -42.770  1.00  0.00     0.223 A 
ATOM      2  N   UNL     1      13.617 -23.979 -42.956  1.00  0.00    -0.196 NA
ATOM      3  C   UNL     1      13.047 -23.752 -44.156  1.00  0.00     0.138 A 
ATOM      4  C   UNL     1      13.820 -23.222 -45.207  1.00  0.00     0.057 A 
ATOM      5  C   UNL     1      13.572 -22.895 -46.605  1.00  0.00    -0.021 A 
ATOM      6  C   UNL     1      14.724 -22.427 -47.225  1.00  0.00     0.011 A 
ATOM      7  S   UNL     1      16.050 -22.335 -46.158  1.00  0.00    -0.120 S 
ATOM      8  C   UNL     1      15.141 -22.965 -44.870  1.00  0.00     0.131 A 
ATOM      9  N   UNL     1      15.724 -23.167 -43.679  1.00  0.00    -0.202 NA
ENDROOT
BRANCH   1  10
ATOM     10  N   UNL     1      15.430 -23.936 -41.522  1.00  0.00    -0.368 N 
ATOM     11  H   UNL     1      16.199 -23.306 -41.339  1.00  0.00     0.159 HD
ATOM     12  H   UNL     1      14.686 -23.971 -40.838  1.00  0.00     0.159 HD
ENDBRANCH   1  10
BRANCH   3  13
ATOM     13  N   UNL     1      11.692 -24.068 -44.234  1.00  0.00    -0.383 N 
ATOM     14  H   UNL     1      11.196 -23.478 -43.570  1.00  0.00     0.158 HD
ATOM     15  H   UNL     1      11.328 -23.994 -45.174  1.00  0.00     0.158 HD
ENDBRANCH   3  13
BRANCH   5  16
ATOM     16  C   UNL     1      12.270 -23.067 -47.342  1.00  0.00     0.037 C 
BRANCH  16  17
ATOM     17  C   UNL     1      11.705 -21.767 -47.917  1.00  0.00     0.005 C 
BRANCH  17  18
ATOM     18  C   UNL     1      11.709 -21.672 -49.451  1.00  0.00     0.000 CG0
ATOM     19  G   UNL     1      12.951 -21.004 -50.050  1.00  0.00     0.000 G0
ENDBRANCH  17  18
ENDBRANCH  16  17
ENDBRANCH   5  16
BRANCH   6  20
ATOM     20  C   UNL     1      14.902 -22.061 -48.668  1.00  0.00     0.047 C 
BRANCH  20  21
ATOM     21  C   UNL     1      14.118 -20.804 -49.050  1.00  0.00     0.006 C 
BRANCH  21  22
ATOM     22  C   UNL     1      12.955 -20.991 -50.034  1.00  0.00     0.000 CG0
ATOM     23  G   UNL     1      11.710 -21.670 -49.456  1.00  0.00     0.000 G0
ENDBRANCH  21  22
ENDBRANCH  20  21
ENDBRANCH   6  20
TORSDOF 2
ENDMDL
MODEL 6
REMARK VINA RESULT:    -4.313      1.396      2.667
REMARK INTER + INTRA:          -5.726
REMARK INTER:                  -6.059
REMARK INTRA:                   0.332
REMARK UNBOUND:                 0.352
REMARK SMILES Nc1nc(N)c2c3c(sc2n1)CCCCCC3
REMARK SMILES IDX 2 1 3 2 4 3 6 4 7 5 8 6 9 7 10 8 11 9 1 10 5 13 17 16 16 17
REMARK SMILES IDX 15 18 12 20 13 21 14 22
REMARK H PARENT 1 11 1 12 5 14 5 15
REMARK Flexibility Score:    8.900
ROOT
ATOM      1  C   UNL     1      11.020 -22.777 -48.928  1.00  0.00     0.223 A 
ATOM      2  N   UNL     1      10.638 -23.603 -47.953  1.00  0.00    -0.196 NA
ATOM      3  C   UNL     1      11.527 -23.976 -47.013  1.00  0.00     0.138 A 
ATOM      4  C   UNL     1      12.839 -23.466 -47.051  1.00  0.00     0.057 A 
ATOM      5  C   UNL     1      14.023 -23.601 -46.212  1.00  0.00    -0.021 A 
ATOM      6  C   UNL     1      15.072 -22.827 -46.693  1.00  0.00     0.011 A 
ATOM      7  S   UNL     1      14.672 -22.002 -48.129  1.00  0.00    -0.120 S 
ATOM      8  C   UNL     1      13.086 -22.608 -48.113  1.00  0.00     0.131 A 
ATOM      9  N   UNL     1      12.222 -22.236 -49.069  1.00  0.00    -0.202 NA
ENDROOT
BRANCH   1  10
ATOM     10  N   UNL     1      10.059 -22.424 -49.856  1.00  0.00    -0.368 N 
ATOM     11  H   UNL     1      10.274 -22.854 -50.745  1.00  0.00     0.159 HD
ATOM     12  H   UNL     1       9.139 -22.589 -49.471  1.00  0.00     0.159 HD
ENDBRANCH   1  10
BRANCH   3  13
ATOM     13  N   UNL     1      11.042 -24.875 -46.065  1.00  0.00    -0.383 N 
ATOM     14  H   UNL     1      10.508 -25.587 -46.555  1.00  0.00     0.158 HD
ATOM     15  H   UNL     1      11.773 -25.261 -45.484  1.00  0.00     0.158 HD
ENDBRANCH   3  13
BRANCH   5  16
ATOM     16  C   UNL     1      14.133 -24.420 -44.953  1.00  0.00     0.037 C 
BRANCH  16  17
ATOM     17  C   UNL     1      14.227 -23.584 -43.675  1.00  0.00     0.005 C 
BRANCH  17  18
ATOM     18  C   UNL     1      15.559 -23.694 -42.917  1.00  0.00     0.000 CG0
ATOM     19  G   UNL     1      16.691 -22.828 -43.478  1.00  0.00     0.000 G0
ENDBRANCH  17  18
ENDBRANCH  16  17
ENDBRANCH   5  16
BRANCH   6  20
ATOM     20  C   UNL     1      16.424 -22.633 -46.074  1.00  0.00     0.047 C 
BRANCH  20  21
ATOM     21  C   UNL     1      16.343 -21.968 -44.698  1.00  0.00     0.006 C 
BRANCH  21  22
ATOM     22  C   UNL     1      16.704 -22.842 -43.490  1.00  0.00     0.000 CG0
ATOM     23  G   UNL     1      15.562 -23.695 -42.931  1.00  0.00     0.000 G0
ENDBRANCH  21  22
ENDBRANCH  20  21
ENDBRANCH   6  20
TORSDOF 2
ENDMDL
MODEL 7
REMARK VINA RESULT:    -4.300      2.508      3.651
REMARK INTER + INTRA:          -5.708
REMARK INTER:                  -6.042
REMARK INTRA:                   0.334
REMARK UNBOUND:                 0.352
REMARK SMILES Nc1nc(N)c2c3c(sc2n1)CCCCCC3
REMARK SMILES IDX 2 1 3 2 4 3 6 4 7 5 8 6 9 7 10 8 11 9 1 10 5 13 17 16 16 17
REMARK SMILES IDX 15 18 12 20 13 21 14 22
REMARK H PARENT 1 11 1 12 5 14 5 15
REMARK Flexibility Score:    8.900
ROOT
ATOM      1  C   UNL     1      14.829 -22.310 -47.222  1.00  0.00     0.223 A 
ATOM      2  N   UNL     1      16.024 -22.175 -46.644  1.00  0.00    -0.196 NA
ATOM      3  C   UNL     1      16.176 -22.511 -45.348  1.00  0.00     0.138 A 
ATOM      4  C   UNL     1      15.082 -23.031 -44.629  1.00  0.00     0.057 A 
ATOM      5  C   UNL     1      14.882 -23.529 -43.274  1.00  0.00    -0.021 A 
ATOM      6  C   UNL     1      13.580 -23.976 -43.089  1.00  0.00     0.011 A 
ATOM      7  S   UNL     1      12.611 -23.764 -44.475  1.00  0.00    -0.120 S 
ATOM      8  C   UNL     1      13.910 -23.127 -45.364  1.00  0.00     0.131 A 
ATOM      9  N   UNL     1      13.732 -22.783 -46.649  1.00  0.00    -0.202 NA
ENDROOT
BRANCH   1  10
ATOM     10  N   UNL     1      14.741 -21.958 -48.555  1.00  0.00    -0.368 N 
ATOM     11  H   UNL     1      15.655 -22.021 -48.982  1.00  0.00     0.159 HD
ATOM     12  H   UNL     1      13.988 -22.471 -48.992  1.00  0.00     0.159 HD
ENDBRANCH   1  10
BRANCH   3  13
ATOM     13  N   UNL     1      17.449 -22.292 -44.827  1.00  0.00    -0.383 N 
ATOM     14  H   UNL     1      18.089 -22.166 -45.608  1.00  0.00     0.158 HD
ATOM     15  H   UNL     1      17.475 -21.524 -44.171  1.00  0.00     0.158 HD
ENDBRANCH   3  13
BRANCH   5  16
ATOM     16  C   UNL     1      15.928 -23.614 -42.194  1.00  0.00     0.037 C 
BRANCH  16  17
ATOM     17  C   UNL     1      16.323 -25.045 -41.823  1.00  0.00     0.005 C 
BRANCH  17  18
ATOM     18  C   UNL     1      15.927 -25.486 -40.405  1.00  0.00     0.000 CG0
ATOM     19  G   UNL     1      14.514 -26.064 -40.281  1.00  0.00     0.000 G0
ENDBRANCH  17  18
ENDBRANCH  16  17
ENDBRANCH   5  16
BRANCH   6  20
ATOM     20  C   UNL     1      13.002 -24.628 -41.869  1.00  0.00     0.047 C 
BRANCH  20  21
ATOM     21  C   UNL     1      13.652 -25.981 -41.570  1.00  0.00     0.006 C 
BRANCH  21  22
ATOM     22  C   UNL     1      14.506 -26.066 -40.298  1.00  0.00     0.000 CG0
ATOM     23  G   UNL     1      15.922 -25.496 -40.419  1.00  0.00     0.000 G0
ENDBRANCH  21  22
ENDBRANCH  20  21
ENDBRANCH   6  20
TORSDOF 2
ENDMDL
MODEL 8
REMARK VINA RESULT:    -4.133      3.793      5.883
REMARK INTER + INTRA:          -5.472
REMARK INTER:                  -6.018
REMARK INTRA:                   0.546
REMARK UNBOUND:                 0.352
REMARK SMILES Nc1nc(N)c2c3c(sc2n1)CCCCCC3
REMARK SMILES IDX 2 1 3 2 4 3 6 4 7 5 8 6 9 7 10 8 11 9 1 10 5 13 17 16 16 17
REMARK SMILES IDX 15 18 12 20 13 21 14 22
REMARK H PARENT 1 11 1 12 5 14 5 15
REMARK Flexibility Score:    8.900
ROOT
ATOM      1  C   UNL     1      18.511 -22.696 -44.182  1.00  0.00     0.223 A 
ATOM      2  N   UNL     1      17.950 -23.091 -43.038  1.00  0.00    -0.196 NA
ATOM      3  C   UNL     1      16.612 -23.233 -42.970  1.00  0.00     0.138 A 
ATOM      4  C   UNL     1      15.826 -22.996 -44.114  1.00  0.00     0.057 A 
ATOM      5  C   UNL     1      14.405 -23.087 -44.424  1.00  0.00    -0.021 A 
ATOM      6  C   UNL     1      14.159 -22.774 -45.755  1.00  0.00     0.011 A 
ATOM      7  S   UNL     1      15.575 -22.337 -46.597  1.00  0.00    -0.120 S 
ATOM      8  C   UNL     1      16.548 -22.608 -45.232  1.00  0.00     0.131 A 
ATOM      9  N   UNL     1      17.877 -22.444 -45.318  1.00  0.00    -0.202 NA
ENDROOT
BRANCH   1  10
ATOM     10  N   UNL     1      19.888 -22.579 -44.191  1.00  0.00    -0.368 N 
ATOM     11  H   UNL     1      20.201 -22.347 -45.124  1.00  0.00     0.159 HD
ATOM     12  H   UNL     1      20.182 -21.972 -43.439  1.00  0.00     0.159 HD
ENDBRANCH   1  10
BRANCH   3  13
ATOM     13  N   UNL     1      16.122 -23.605 -41.720  1.00  0.00    -0.383 N 
ATOM     14  H   UNL     1      16.902 -23.612 -41.067  1.00  0.00     0.158 HD
ATOM     15  H   UNL     1      15.356 -23.022 -41.412  1.00  0.00     0.158 HD
ENDBRANCH   3  13
BRANCH   5  16
ATOM     16  C   UNL     1      13.312 -23.507 -43.477  1.00  0.00     0.037 C 
BRANCH  16  17
ATOM     17  C   UNL     1      13.124 -25.023 -43.378  1.00  0.00     0.005 C 
BRANCH  17  18
ATOM     18  C   UNL     1      12.890 -25.743 -44.715  1.00  0.00     0.000 CG0
ATOM     19  G   UNL     1      11.849 -25.085 -45.625  1.00  0.00     0.000 G0
ENDBRANCH  17  18
ENDBRANCH  16  17
ENDBRANCH   5  16
BRANCH   6  20
ATOM     20  C   UNL     1      12.848 -22.826 -46.480  1.00  0.00     0.047 C 
BRANCH  20  21
ATOM     21  C   UNL     1      12.420 -24.259 -46.805  1.00  0.00     0.006 C 
BRANCH  21  22
ATOM     22  C   UNL     1      11.849 -25.085 -45.645  1.00  0.00     0.000 CG0
ATOM     23  G   UNL     1      12.888 -25.727 -44.722  1.00  0.00     0.000 G0
ENDBRANCH  21  22
ENDBRANCH  20  21
ENDBRANCH   6  20
TORSDOF 2
ENDMDL
MODEL 9
REMARK VINA RESULT:    -4.122      3.436      5.361
REMARK INTER + INTRA:          -5.456
REMARK INTER:                  -6.415
REMARK INTRA:                   0.959
REMARK UNBOUND:                 0.352
REMARK SMILES Nc1nc(N)c2c3c(sc2n1)CCCCCC3
REMARK SMILES IDX 2 1 3 2 4 3 6 4 7 5 8 6 9 7 10 8 11 9 1 10 5 13 17 16 16 17
REMARK SMILES IDX 15 18 12 20 13 21 14 22
REMARK H PARENT 1 11 1 12 5 14 5 15
REMARK Flexibility Score:    8.900
ROOT
ATOM      1  C   UNL     1      18.495 -22.551 -44.240  1.00  0.00     0.223 A 
ATOM      2  N   UNL     1      17.732 -22.312 -45.308  1.00  0.00    -0.196 NA
ATOM      3  C   UNL     1      16.413 -22.580 -45.254  1.00  0.00     0.138 A 
ATOM      4  C   UNL     1      15.850 -23.078 -44.063  1.00  0.00     0.057 A 
ATOM      5  C   UNL     1      14.504 -23.430 -43.628  1.00  0.00    -0.021 A 
ATOM      6  C   UNL     1      14.496 -23.842 -42.301  1.00  0.00     0.011 A 
ATOM      7  S   UNL     1      16.054 -23.854 -41.609  1.00  0.00    -0.120 S 
ATOM      8  C   UNL     1      16.762 -23.261 -43.034  1.00  0.00     0.131 A 
ATOM      9  N   UNL     1      18.080 -23.018 -43.070  1.00  0.00    -0.202 NA
ENDROOT
BRANCH   1  10
ATOM     10  N   UNL     1      19.838 -22.246 -44.354  1.00  0.00    -0.368 N 
ATOM     11  H   UNL     1      20.286 -22.915 -44.966  1.00  0.00     0.159 HD
ATOM     12  H   UNL     1      19.945 -21.267 -44.580  1.00  0.00     0.159 HD
ENDBRANCH   1  10
BRANCH   3  13
ATOM     13  N   UNL     1      15.713 -22.338 -46.434  1.00  0.00    -0.383 N 
ATOM     14  H   UNL     1      15.899 -21.378 -46.715  1.00  0.00     0.158 HD
ATOM     15  H   UNL     1      15.928 -23.008 -47.159  1.00  0.00     0.158 HD
ENDBRANCH   3  13
BRANCH   5  16
ATOM     16  C   UNL     1      13.248 -23.334 -44.453  1.00  0.00     0.037 C 
BRANCH  16  17
ATOM     17  C   UNL     1      12.528 -24.670 -44.646  1.00  0.00     0.005 C 
BRANCH  17  18
ATOM     18  C   UNL     1      13.387 -25.919 -44.395  1.00  0.00     0.000 CG0
ATOM     19  G   UNL     1      13.455 -26.369 -42.932  1.00  0.00     0.000 G0
ENDBRANCH  17  18
ENDBRANCH  16  17
ENDBRANCH   5  16
BRANCH   6  20
ATOM     20  C   UNL     1      13.307 -24.211 -41.466  1.00  0.00     0.047 C 
BRANCH  20  21
ATOM     21  C   UNL     1      12.642 -25.506 -41.940  1.00  0.00     0.006 C 
BRANCH  21  22
ATOM     22  C   UNL     1      13.444 -26.370 -42.922  1.00  0.00     0.000 CG0
ATOM     23  G   UNL     1      13.391 -25.921 -44.385  1.00  0.00     0.000 G0
ENDBRANCH  21  22
ENDBRANCH  20  21
ENDBRANCH   6  20
TORSDOF 2
ENDMDL
