MODEL 1
REMARK VINA RESULT:    -8.866      0.000      0.000
REMARK INTER + INTRA:         -14.974
REMARK INTER:                 -14.049
REMARK INTRA:                  -0.925
REMARK UNBOUND:                -0.925
REMARK SMILES C#CCN(Cc1ccc2[nH]c(N)nc(=O)c2c1)c1ccc(C(=O)N[C@@H](CCC(=O)[O-])C(=O)[O-])cc1
REMARK SMILES IDX 22 1 23 2 24 3 21 5 18 6 19 7 35 8 20 9 34 10 4 11 3 12 2 13
REMARK SMILES IDX 1 14 5 15 6 16 7 17 17 18 8 19 16 20 9 21 14 22 10 23 13 24
REMARK SMILES IDX 15 25 11 26 12 27 25 31 26 32 27 33 28 34 29 35 30 36 31 37
REMARK SMILES IDX 32 38 33 39
REMARK H PARENT 24 4 10 28 12 29 12 30
ROOT
ATOM      1  C   UNL     1      13.187 -21.091 -49.618  1.00  0.00     0.251 C 
ATOM      2  O   UNL     1      11.966 -20.976 -49.637  1.00  0.00    -0.269 OA
ATOM      3  N   UNL     1      14.068 -20.392 -50.403  1.00  0.00    -0.344 N 
ATOM      4  H   UNL     1      14.929 -20.867 -50.658  1.00  0.00     0.164 HD
ENDROOT
BRANCH   1   5
ATOM      5  C   UNL     1      13.811 -22.056 -48.662  1.00  0.00     0.039 A 
ATOM      6  C   UNL     1      14.897 -23.873 -46.727  1.00  0.00     0.038 A 
ATOM      7  C   UNL     1      13.589 -24.003 -47.227  1.00  0.00     0.027 A 
ATOM      8  C   UNL     1      15.641 -22.800 -47.252  1.00  0.00     0.027 A 
ATOM      9  C   UNL     1      13.050 -23.115 -48.172  1.00  0.00     0.016 A 
ATOM     10  C   UNL     1      15.113 -21.901 -48.194  1.00  0.00     0.016 A 
BRANCH   6  11
ATOM     11  N   UNL     1      15.409 -24.724 -45.748  1.00  0.00    -0.356 N 
BRANCH  11  12
ATOM     12  C   UNL     1      16.756 -24.545 -45.200  1.00  0.00     0.206 C 
ATOM     13  C   UNL     1      16.855 -23.308 -44.406  1.00  0.00    -0.085 C 
ATOM     14  C   UNL     1      16.926 -22.294 -43.766  1.00  0.00     0.006 C 
ENDBRANCH  11  12
BRANCH  11  15
ATOM     15  C   UNL     1      14.584 -25.740 -45.088  1.00  0.00     0.153 C 
BRANCH  15  16
ATOM     16  C   UNL     1      14.189 -25.327 -43.680  1.00  0.00    -0.028 A 
ATOM     17  C   UNL     1      12.995 -24.633 -43.424  1.00  0.00     0.008 A 
ATOM     18  C   UNL     1      15.044 -25.602 -42.601  1.00  0.00     0.021 A 
ATOM     19  C   UNL     1      12.656 -24.224 -42.130  1.00  0.00     0.027 A 
ATOM     20  C   UNL     1      14.697 -25.193 -41.306  1.00  0.00     0.066 A 
ATOM     21  C   UNL     1      13.517 -24.482 -41.067  1.00  0.00     0.054 A 
ATOM     22  C   UNL     1      15.570 -25.482 -40.136  1.00  0.00     0.282 C 
ATOM     23  N   UNL     1      13.179 -24.148 -39.751  1.00  0.00    -0.325 N 
ATOM     24  N   UNL     1      15.226 -24.987 -38.892  1.00  0.00    -0.175 NA
ATOM     25  O   UNL     1      16.579 -26.158 -40.313  1.00  0.00    -0.267 OA
ATOM     26  C   UNL     1      14.101 -24.366 -38.778  1.00  0.00     0.201 C 
ATOM     27  N   UNL     1      13.719 -23.862 -37.576  1.00  0.00    -0.369 N 
ATOM     28  H   UNL     1      12.567 -23.350 -39.643  1.00  0.00     0.170 HD
ATOM     29  H   UNL     1      12.767 -24.102 -37.328  1.00  0.00     0.159 HD
ATOM     30  H   UNL     1      14.363 -24.171 -36.854  1.00  0.00     0.159 HD
ENDBRANCH  15  16
ENDBRANCH  11  15
ENDBRANCH   6  11
ENDBRANCH   1   5
BRANCH   3  31
ATOM     31  C   UNL     1      13.653 -19.518 -51.525  1.00  0.00     0.128 C 
BRANCH  31  32
ATOM     32  C   UNL     1      14.419 -18.184 -51.456  1.00  0.00     0.037 C 
BRANCH  32  33
ATOM     33  C   UNL     1      14.418 -17.430 -52.792  1.00  0.00     0.055 C 
BRANCH  33  34
ATOM     34  C   UNL     1      15.756 -16.867 -53.286  1.00  0.00     0.041 C 
ATOM     35  O   UNL     1      16.809 -17.341 -52.778  1.00  0.00    -0.550 OA
ATOM     36  O   UNL     1      15.649 -15.958 -54.164  1.00  0.00    -0.550 OA
ENDBRANCH  33  34
ENDBRANCH  32  33
ENDBRANCH  31  32
BRANCH  31  37
ATOM     37  C   UNL     1      13.991 -20.197 -52.904  1.00  0.00     0.064 C 
ATOM     38  O   UNL     1      15.235 -20.406 -53.092  1.00  0.00    -0.548 OA
ATOM     39  O   UNL     1      13.012 -20.495 -53.647  1.00  0.00    -0.548 OA
ENDBRANCH  31  37
ENDBRANCH   3  31
TORSDOF 10
ENDMDL
MODEL 2
REMARK VINA RESULT:    -8.785      1.198      2.306
REMARK INTER + INTRA:         -14.846
REMARK INTER:                 -14.045
REMARK INTRA:                  -0.801
REMARK UNBOUND:                -0.925
REMARK SMILES C#CCN(Cc1ccc2[nH]c(N)nc(=O)c2c1)c1ccc(C(=O)N[C@@H](CCC(=O)[O-])C(=O)[O-])cc1
REMARK SMILES IDX 22 1 23 2 24 3 21 5 18 6 19 7 35 8 20 9 34 10 4 11 3 12 2 13
REMARK SMILES IDX 1 14 5 15 6 16 7 17 17 18 8 19 16 20 9 21 14 22 10 23 13 24
REMARK SMILES IDX 15 25 11 26 12 27 25 31 26 32 27 33 28 34 29 35 30 36 31 37
REMARK SMILES IDX 32 38 33 39
REMARK H PARENT 24 4 10 28 12 29 12 30
ROOT
ATOM      1  C   UNL     1      13.438 -20.002 -49.140  1.00  0.00     0.251 C 
ATOM      2  O   UNL     1      13.083 -18.947 -48.625  1.00  0.00    -0.269 OA
ATOM      3  N   UNL     1      13.807 -20.167 -50.451  1.00  0.00    -0.344 N 
ATOM      4  H   UNL     1      13.611 -21.072 -50.870  1.00  0.00     0.164 HD
ENDROOT
BRANCH   1   5
ATOM      5  C   UNL     1      13.500 -21.236 -48.299  1.00  0.00     0.039 A 
ATOM      6  C   UNL     1      13.652 -23.685 -46.814  1.00  0.00     0.038 A 
ATOM      7  C   UNL     1      14.735 -23.196 -47.567  1.00  0.00     0.027 A 
ATOM      8  C   UNL     1      12.496 -22.883 -46.826  1.00  0.00     0.027 A 
ATOM      9  C   UNL     1      14.665 -21.999 -48.299  1.00  0.00     0.016 A 
ATOM     10  C   UNL     1      12.411 -21.687 -47.558  1.00  0.00     0.016 A 
BRANCH   6  11
ATOM     11  N   UNL     1      13.706 -24.901 -46.134  1.00  0.00    -0.356 N 
BRANCH  11  12
ATOM     12  C   UNL     1      12.796 -26.004 -46.453  1.00  0.00     0.206 C 
ATOM     13  C   UNL     1      12.476 -26.039 -47.891  1.00  0.00    -0.085 C 
ATOM     14  C   UNL     1      12.218 -26.055 -49.064  1.00  0.00     0.006 C 
ENDBRANCH  11  12
BRANCH  11  15
ATOM     15  C   UNL     1      14.773 -25.214 -45.179  1.00  0.00     0.153 C 
BRANCH  15  16
ATOM     16  C   UNL     1      14.341 -24.968 -43.742  1.00  0.00    -0.028 A 
ATOM     17  C   UNL     1      13.016 -24.636 -43.420  1.00  0.00     0.008 A 
ATOM     18  C   UNL     1      15.284 -25.032 -42.704  1.00  0.00     0.021 A 
ATOM     19  C   UNL     1      12.632 -24.376 -42.100  1.00  0.00     0.027 A 
ATOM     20  C   UNL     1      14.893 -24.774 -41.383  1.00  0.00     0.066 A 
ATOM     21  C   UNL     1      13.576 -24.421 -41.077  1.00  0.00     0.054 A 
ATOM     22  C   UNL     1      15.861 -24.849 -40.254  1.00  0.00     0.282 C 
ATOM     23  N   UNL     1      13.216 -24.233 -39.737  1.00  0.00    -0.325 N 
ATOM     24  N   UNL     1      15.448 -24.506 -38.980  1.00  0.00    -0.175 NA
ATOM     25  O   UNL     1      17.008 -25.216 -40.492  1.00  0.00    -0.267 OA
ATOM     26  C   UNL     1      14.202 -24.220 -38.804  1.00  0.00     0.201 C 
ATOM     27  N   UNL     1      13.749 -23.878 -37.571  1.00  0.00    -0.369 N 
ATOM     28  H   UNL     1      12.414 -23.637 -39.577  1.00  0.00     0.170 HD
ATOM     29  H   UNL     1      12.910 -24.377 -37.302  1.00  0.00     0.159 HD
ATOM     30  H   UNL     1      14.483 -24.021 -36.883  1.00  0.00     0.159 HD
ENDBRANCH  15  16
ENDBRANCH  11  15
ENDBRANCH   6  11
ENDBRANCH   1   5
BRANCH   3  31
ATOM     31  C   UNL     1      13.654 -19.118 -51.485  1.00  0.00     0.128 C 
BRANCH  31  32
ATOM     32  C   UNL     1      14.744 -18.046 -51.302  1.00  0.00     0.037 C 
BRANCH  32  33
ATOM     33  C   UNL     1      15.008 -17.243 -52.583  1.00  0.00     0.055 C 
BRANCH  33  34
ATOM     34  C   UNL     1      16.409 -16.650 -52.769  1.00  0.00     0.041 C 
ATOM     35  O   UNL     1      16.732 -16.275 -53.929  1.00  0.00    -0.550 OA
ATOM     36  O   UNL     1      17.106 -16.612 -51.710  1.00  0.00    -0.550 OA
ENDBRANCH  33  34
ENDBRANCH  32  33
ENDBRANCH  31  32
BRANCH  31  37
ATOM     37  C   UNL     1      13.821 -19.735 -52.923  1.00  0.00     0.064 C 
ATOM     38  O   UNL     1      12.920 -19.377 -53.752  1.00  0.00    -0.548 OA
ATOM     39  O   UNL     1      14.831 -20.472 -53.113  1.00  0.00    -0.548 OA
ENDBRANCH  31  37
ENDBRANCH   3  31
TORSDOF 10
ENDMDL
MODEL 3
REMARK VINA RESULT:    -8.273      3.159      6.219
REMARK INTER + INTRA:         -14.035
REMARK INTER:                 -12.896
REMARK INTRA:                  -1.139
REMARK UNBOUND:                -0.925
REMARK SMILES C#CCN(Cc1ccc2[nH]c(N)nc(=O)c2c1)c1ccc(C(=O)N[C@@H](CCC(=O)[O-])C(=O)[O-])cc1
REMARK SMILES IDX 22 1 23 2 24 3 21 5 18 6 19 7 35 8 20 9 34 10 4 11 3 12 2 13
REMARK SMILES IDX 1 14 5 15 6 16 7 17 17 18 8 19 16 20 9 21 14 22 10 23 13 24
REMARK SMILES IDX 15 25 11 26 12 27 25 31 26 32 27 33 28 34 29 35 30 36 31 37
REMARK SMILES IDX 32 38 33 39
REMARK H PARENT 24 4 10 28 12 29 12 30
ROOT
ATOM      1  C   UNL     1      13.514 -20.128 -49.321  1.00  0.00     0.251 C 
ATOM      2  O   UNL     1      13.160 -18.997 -49.003  1.00  0.00    -0.269 OA
ATOM      3  N   UNL     1      13.888 -20.524 -50.580  1.00  0.00    -0.344 N 
ATOM      4  H   UNL     1      13.692 -21.488 -50.833  1.00  0.00     0.164 HD
ENDROOT
BRANCH   1   5
ATOM      5  C   UNL     1      13.570 -21.193 -48.274  1.00  0.00     0.039 A 
ATOM      6  C   UNL     1      13.658 -23.343 -46.377  1.00  0.00     0.038 A 
ATOM      7  C   UNL     1      14.571 -23.244 -47.443  1.00  0.00     0.027 A 
ATOM      8  C   UNL     1      12.709 -22.307 -46.297  1.00  0.00     0.027 A 
ATOM      9  C   UNL     1      14.531 -22.195 -48.376  1.00  0.00     0.016 A 
ATOM     10  C   UNL     1      12.654 -21.255 -47.227  1.00  0.00     0.016 A 
BRANCH   6  11
ATOM     11  N   UNL     1      13.666 -24.414 -45.485  1.00  0.00    -0.356 N 
BRANCH  11  12
ATOM     12  C   UNL     1      14.572 -24.450 -44.334  1.00  0.00     0.206 C 
ATOM     13  C   UNL     1      13.830 -24.383 -43.063  1.00  0.00    -0.085 C 
ATOM     14  C   UNL     1      13.215 -24.322 -42.032  1.00  0.00     0.006 C 
ENDBRANCH  11  12
BRANCH  11  15
ATOM     15  C   UNL     1      12.667 -25.486 -45.542  1.00  0.00     0.153 C 
BRANCH  15  16
ATOM     16  C   UNL     1      12.042 -25.607 -46.922  1.00  0.00    -0.028 A 
ATOM     17  C   UNL     1      12.659 -26.343 -47.947  1.00  0.00     0.008 A 
ATOM     18  C   UNL     1      10.839 -24.944 -47.210  1.00  0.00     0.021 A 
ATOM     19  C   UNL     1      12.096 -26.422 -49.225  1.00  0.00     0.027 A 
ATOM     20  C   UNL     1      10.278 -25.029 -48.491  1.00  0.00     0.066 A 
ATOM     21  C   UNL     1      10.913 -25.745 -49.510  1.00  0.00     0.054 A 
ATOM     22  C   UNL     1       8.995 -24.353 -48.828  1.00  0.00     0.282 C 
ATOM     23  N   UNL     1      10.286 -25.856 -50.756  1.00  0.00    -0.325 N 
ATOM     24  N   UNL     1       8.523 -24.397 -50.126  1.00  0.00    -0.175 NA
ATOM     25  O   UNL     1       8.390 -23.770 -47.934  1.00  0.00    -0.267 OA
ATOM     26  C   UNL     1       9.175 -25.109 -50.984  1.00  0.00     0.201 C 
ATOM     27  N   UNL     1       8.751 -25.184 -52.271  1.00  0.00    -0.369 N 
ATOM     28  H   UNL     1      10.899 -26.031 -51.542  1.00  0.00     0.170 HD
ATOM     29  H   UNL     1       8.710 -26.133 -52.622  1.00  0.00     0.159 HD
ATOM     30  H   UNL     1       7.844 -24.733 -52.361  1.00  0.00     0.159 HD
ENDBRANCH  15  16
ENDBRANCH  11  15
ENDBRANCH   6  11
ENDBRANCH   1   5
BRANCH   3  31
ATOM     31  C   UNL     1      13.743 -19.674 -51.785  1.00  0.00     0.128 C 
BRANCH  31  32
ATOM     32  C   UNL     1      14.643 -18.431 -51.656  1.00  0.00     0.037 C 
BRANCH  32  33
ATOM     33  C   UNL     1      14.469 -17.449 -52.822  1.00  0.00     0.055 C 
BRANCH  33  34
ATOM     34  C   UNL     1      15.695 -16.635 -53.249  1.00  0.00     0.041 C 
ATOM     35  O   UNL     1      15.608 -15.968 -54.316  1.00  0.00    -0.550 OA
ATOM     36  O   UNL     1      16.688 -16.735 -52.466  1.00  0.00    -0.550 OA
ENDBRANCH  33  34
ENDBRANCH  32  33
ENDBRANCH  31  32
BRANCH  31  37
ATOM     37  C   UNL     1      14.190 -20.463 -53.071  1.00  0.00     0.064 C 
ATOM     38  O   UNL     1      13.266 -21.167 -53.599  1.00  0.00    -0.548 OA
ATOM     39  O   UNL     1      15.380 -20.289 -53.460  1.00  0.00    -0.548 OA
ENDBRANCH  31  37
ENDBRANCH   3  31
TORSDOF 10
ENDMDL
MODEL 4
REMARK VINA RESULT:    -7.904      2.555     10.720
REMARK INTER + INTRA:         -13.449
REMARK INTER:                 -11.807
REMARK INTRA:                  -1.642
REMARK UNBOUND:                -0.925
REMARK SMILES C#CCN(Cc1ccc2[nH]c(N)nc(=O)c2c1)c1ccc(C(=O)N[C@@H](CCC(=O)[O-])C(=O)[O-])cc1
REMARK SMILES IDX 22 1 23 2 24 3 21 5 18 6 19 7 35 8 20 9 34 10 4 11 3 12 2 13
REMARK SMILES IDX 1 14 5 15 6 16 7 17 17 18 8 19 16 20 9 21 14 22 10 23 13 24
REMARK SMILES IDX 15 25 11 26 12 27 25 31 26 32 27 33 28 34 29 35 30 36 31 37
REMARK SMILES IDX 32 38 33 39
REMARK H PARENT 24 4 10 28 12 29 12 30
ROOT
ATOM      1  C   UNL     1      15.525 -23.050 -43.842  1.00  0.00     0.251 C 
ATOM      2  O   UNL     1      16.082 -21.963 -43.724  1.00  0.00    -0.269 OA
ATOM      3  N   UNL     1      15.654 -24.112 -42.983  1.00  0.00    -0.344 N 
ATOM      4  H   UNL     1      15.573 -25.040 -43.389  1.00  0.00     0.164 HD
ENDROOT
BRANCH   1   5
ATOM      5  C   UNL     1      14.608 -23.274 -45.000  1.00  0.00     0.039 A 
ATOM      6  C   UNL     1      12.920 -23.590 -47.298  1.00  0.00     0.038 A 
ATOM      7  C   UNL     1      14.318 -23.732 -47.368  1.00  0.00     0.027 A 
ATOM      8  C   UNL     1      12.405 -23.300 -46.021  1.00  0.00     0.027 A 
ATOM      9  C   UNL     1      15.149 -23.575 -46.248  1.00  0.00     0.016 A 
ATOM     10  C   UNL     1      13.226 -23.135 -44.893  1.00  0.00     0.016 A 
BRANCH   6  11
ATOM     11  N   UNL     1      12.103 -23.693 -48.423  1.00  0.00    -0.356 N 
BRANCH  11  12
ATOM     12  C   UNL     1      11.865 -24.976 -49.088  1.00  0.00     0.206 C 
ATOM     13  C   UNL     1      10.599 -25.586 -48.645  1.00  0.00    -0.085 C 
ATOM     14  C   UNL     1       9.568 -26.077 -48.273  1.00  0.00     0.006 C 
ENDBRANCH  11  12
BRANCH  11  15
ATOM     15  C   UNL     1      11.302 -22.566 -48.911  1.00  0.00     0.153 C 
BRANCH  15  16
ATOM     16  C   UNL     1      12.172 -21.447 -49.462  1.00  0.00    -0.028 A 
ATOM     17  C   UNL     1      12.644 -20.411 -48.640  1.00  0.00     0.008 A 
ATOM     18  C   UNL     1      12.489 -21.411 -50.829  1.00  0.00     0.021 A 
ATOM     19  C   UNL     1      13.414 -19.365 -49.160  1.00  0.00     0.027 A 
ATOM     20  C   UNL     1      13.263 -20.363 -51.344  1.00  0.00     0.066 A 
ATOM     21  C   UNL     1      13.708 -19.324 -50.521  1.00  0.00     0.054 A 
ATOM     22  C   UNL     1      13.634 -20.300 -52.784  1.00  0.00     0.282 C 
ATOM     23  N   UNL     1      14.532 -18.331 -51.064  1.00  0.00    -0.325 N 
ATOM     24  N   UNL     1      14.329 -19.205 -53.261  1.00  0.00    -0.175 NA
ATOM     25  O   UNL     1      13.306 -21.233 -53.512  1.00  0.00    -0.267 OA
ATOM     26  C   UNL     1      14.715 -18.315 -52.409  1.00  0.00     0.201 C 
ATOM     27  N   UNL     1      15.401 -17.222 -52.829  1.00  0.00    -0.369 N 
ATOM     28  H   UNL     1      14.521 -17.440 -50.584  1.00  0.00     0.170 HD
ATOM     29  H   UNL     1      16.232 -17.038 -52.281  1.00  0.00     0.159 HD
ATOM     30  H   UNL     1      15.639 -17.322 -53.812  1.00  0.00     0.159 HD
ENDBRANCH  15  16
ENDBRANCH  11  15
ENDBRANCH   6  11
ENDBRANCH   1   5
BRANCH   3  31
ATOM     31  C   UNL     1      16.636 -24.157 -41.876  1.00  0.00     0.128 C 
BRANCH  31  32
ATOM     32  C   UNL     1      15.915 -24.473 -40.553  1.00  0.00     0.037 C 
BRANCH  32  33
ATOM     33  C   UNL     1      14.860 -25.577 -40.701  1.00  0.00     0.055 C 
BRANCH  33  34
ATOM     34  C   UNL     1      13.392 -25.183 -40.504  1.00  0.00     0.041 C 
ATOM     35  O   UNL     1      13.155 -24.125 -39.859  1.00  0.00    -0.550 OA
ATOM     36  O   UNL     1      12.559 -25.993 -41.016  1.00  0.00    -0.550 OA
ENDBRANCH  33  34
ENDBRANCH  32  33
ENDBRANCH  31  32
BRANCH  31  37
ATOM     37  C   UNL     1      17.698 -25.291 -42.129  1.00  0.00     0.064 C 
ATOM     38  O   UNL     1      17.815 -25.631 -43.353  1.00  0.00    -0.548 OA
ATOM     39  O   UNL     1      18.337 -25.708 -41.121  1.00  0.00    -0.548 OA
ENDBRANCH  31  37
ENDBRANCH   3  31
TORSDOF 10
ENDMDL
MODEL 5
REMARK VINA RESULT:    -7.892      5.978      8.331
REMARK INTER + INTRA:         -13.431
REMARK INTER:                 -12.108
REMARK INTRA:                  -1.323
REMARK UNBOUND:                -0.925
REMARK SMILES C#CCN(Cc1ccc2[nH]c(N)nc(=O)c2c1)c1ccc(C(=O)N[C@@H](CCC(=O)[O-])C(=O)[O-])cc1
REMARK SMILES IDX 22 1 23 2 24 3 21 5 18 6 19 7 35 8 20 9 34 10 4 11 3 12 2 13
REMARK SMILES IDX 1 14 5 15 6 16 7 17 17 18 8 19 16 20 9 21 14 22 10 23 13 24
REMARK SMILES IDX 15 25 11 26 12 27 25 31 26 32 27 33 28 34 29 35 30 36 31 37
REMARK SMILES IDX 32 38 33 39
REMARK H PARENT 24 4 10 28 12 29 12 30
ROOT
ATOM      1  C   UNL     1       6.127 -24.429 -49.675  1.00  0.00     0.251 C 
ATOM      2  O   UNL     1       5.759 -25.540 -49.310  1.00  0.00    -0.269 OA
ATOM      3  N   UNL     1       5.321 -23.456 -50.211  1.00  0.00    -0.344 N 
ATOM      4  H   UNL     1       5.749 -22.829 -50.886  1.00  0.00     0.164 HD
ENDROOT
BRANCH   1   5
ATOM      5  C   UNL     1       7.566 -24.055 -49.529  1.00  0.00     0.039 A 
ATOM      6  C   UNL     1      10.290 -23.250 -49.129  1.00  0.00     0.038 A 
ATOM      7  C   UNL     1       9.548 -23.909 -48.132  1.00  0.00     0.027 A 
ATOM      8  C   UNL     1       9.610 -23.028 -50.341  1.00  0.00     0.027 A 
ATOM      9  C   UNL     1       8.213 -24.302 -48.321  1.00  0.00     0.016 A 
ATOM     10  C   UNL     1       8.274 -23.412 -50.542  1.00  0.00     0.016 A 
BRANCH   6  11
ATOM     11  N   UNL     1      11.597 -22.812 -48.918  1.00  0.00    -0.356 N 
BRANCH  11  12
ATOM     12  C   UNL     1      11.903 -21.404 -48.654  1.00  0.00     0.206 C 
ATOM     13  C   UNL     1      12.621 -20.787 -49.784  1.00  0.00    -0.085 C 
ATOM     14  C   UNL     1      13.211 -20.297 -50.708  1.00  0.00     0.006 C 
ENDBRANCH  11  12
BRANCH  11  15
ATOM     15  C   UNL     1      12.720 -23.743 -48.783  1.00  0.00     0.153 C 
BRANCH  15  16
ATOM     16  C   UNL     1      13.580 -23.425 -47.570  1.00  0.00    -0.028 A 
ATOM     17  C   UNL     1      14.792 -22.727 -47.691  1.00  0.00     0.008 A 
ATOM     18  C   UNL     1      13.188 -23.864 -46.296  1.00  0.00     0.021 A 
ATOM     19  C   UNL     1      15.596 -22.468 -46.576  1.00  0.00     0.027 A 
ATOM     20  C   UNL     1      13.995 -23.599 -45.182  1.00  0.00     0.066 A 
ATOM     21  C   UNL     1      15.212 -22.924 -45.317  1.00  0.00     0.054 A 
ATOM     22  C   UNL     1      13.604 -24.034 -43.812  1.00  0.00     0.282 C 
ATOM     23  N   UNL     1      15.956 -22.625 -44.170  1.00  0.00    -0.325 N 
ATOM     24  N   UNL     1      14.471 -23.822 -42.758  1.00  0.00    -0.175 NA
ATOM     25  O   UNL     1      12.512 -24.574 -43.661  1.00  0.00    -0.267 OA
ATOM     26  C   UNL     1      15.558 -23.165 -42.989  1.00  0.00     0.201 C 
ATOM     27  N   UNL     1      16.441 -22.931 -41.986  1.00  0.00    -0.369 N 
ATOM     28  H   UNL     1      16.949 -22.496 -44.312  1.00  0.00     0.170 HD
ATOM     29  H   UNL     1      16.742 -21.966 -41.936  1.00  0.00     0.159 HD
ATOM     30  H   UNL     1      16.039 -23.223 -41.099  1.00  0.00     0.159 HD
ENDBRANCH  15  16
ENDBRANCH  11  15
ENDBRANCH   6  11
ENDBRANCH   1   5
BRANCH   3  31
ATOM     31  C   UNL     1       3.908 -23.680 -50.594  1.00  0.00     0.128 C 
BRANCH  31  32
ATOM     32  C   UNL     1       2.980 -23.222 -49.454  1.00  0.00     0.037 C 
BRANCH  32  33
ATOM     33  C   UNL     1       3.586 -22.089 -48.615  1.00  0.00     0.055 C 
BRANCH  33  34
ATOM     34  C   UNL     1       3.198 -22.021 -47.134  1.00  0.00     0.041 C 
ATOM     35  O   UNL     1       2.118 -22.575 -46.790  1.00  0.00    -0.550 OA
ATOM     36  O   UNL     1       4.022 -21.388 -46.405  1.00  0.00    -0.550 OA
ENDBRANCH  33  34
ENDBRANCH  32  33
ENDBRANCH  31  32
BRANCH  31  37
ATOM     37  C   UNL     1       3.547 -22.842 -51.876  1.00  0.00     0.064 C 
ATOM     38  O   UNL     1       4.555 -22.324 -52.462  1.00  0.00    -0.548 OA
ATOM     39  O   UNL     1       2.327 -22.803 -52.207  1.00  0.00    -0.548 OA
ENDBRANCH  31  37
ENDBRANCH   3  31
TORSDOF 10
ENDMDL
MODEL 6
REMARK VINA RESULT:    -7.849      5.225      7.043
REMARK INTER + INTRA:         -13.363
REMARK INTER:                 -11.789
REMARK INTRA:                  -1.574
REMARK UNBOUND:                -0.925
REMARK SMILES C#CCN(Cc1ccc2[nH]c(N)nc(=O)c2c1)c1ccc(C(=O)N[C@@H](CCC(=O)[O-])C(=O)[O-])cc1
REMARK SMILES IDX 22 1 23 2 24 3 21 5 18 6 19 7 35 8 20 9 34 10 4 11 3 12 2 13
REMARK SMILES IDX 1 14 5 15 6 16 7 17 17 18 8 19 16 20 9 21 14 22 10 23 13 24
REMARK SMILES IDX 15 25 11 26 12 27 25 31 26 32 27 33 28 34 29 35 30 36 31 37
REMARK SMILES IDX 32 38 33 39
REMARK H PARENT 24 4 10 28 12 29 12 30
ROOT
ATOM      1  C   UNL     1       7.530 -25.420 -49.065  1.00  0.00     0.251 C 
ATOM      2  O   UNL     1       7.004 -26.453 -48.665  1.00  0.00    -0.269 OA
ATOM      3  N   UNL     1       7.066 -24.630 -50.087  1.00  0.00    -0.344 N 
ATOM      4  H   UNL     1       7.763 -24.130 -50.630  1.00  0.00     0.164 HD
ENDROOT
BRANCH   1   5
ATOM      5  C   UNL     1       8.777 -24.935 -48.401  1.00  0.00     0.039 A 
ATOM      6  C   UNL     1      11.246 -24.022 -47.261  1.00  0.00     0.038 A 
ATOM      7  C   UNL     1      10.634 -23.370 -48.347  1.00  0.00     0.027 A 
ATOM      8  C   UNL     1      10.556 -25.142 -46.762  1.00  0.00     0.027 A 
ATOM      9  C   UNL     1       9.428 -23.814 -48.911  1.00  0.00     0.016 A 
ATOM     10  C   UNL     1       9.351 -25.600 -47.320  1.00  0.00     0.016 A 
BRANCH   6  11
ATOM     11  N   UNL     1      12.472 -23.610 -46.739  1.00  0.00    -0.356 N 
BRANCH  11  12
ATOM     12  C   UNL     1      13.741 -23.977 -47.372  1.00  0.00     0.206 C 
ATOM     13  C   UNL     1      14.400 -22.806 -47.977  1.00  0.00    -0.085 C 
ATOM     14  C   UNL     1      14.925 -21.846 -48.472  1.00  0.00     0.006 C 
ENDBRANCH  11  12
BRANCH  11  15
ATOM     15  C   UNL     1      12.567 -22.655 -45.631  1.00  0.00     0.153 C 
BRANCH  15  16
ATOM     16  C   UNL     1      13.131 -23.297 -44.373  1.00  0.00    -0.028 A 
ATOM     17  C   UNL     1      12.362 -24.167 -43.584  1.00  0.00     0.008 A 
ATOM     18  C   UNL     1      14.437 -22.995 -43.955  1.00  0.00     0.021 A 
ATOM     19  C   UNL     1      12.876 -24.727 -42.409  1.00  0.00     0.027 A 
ATOM     20  C   UNL     1      14.947 -23.561 -42.779  1.00  0.00     0.066 A 
ATOM     21  C   UNL     1      14.164 -24.407 -41.988  1.00  0.00     0.054 A 
ATOM     22  C   UNL     1      16.332 -23.278 -42.313  1.00  0.00     0.282 C 
ATOM     23  N   UNL     1      14.734 -25.000 -40.856  1.00  0.00    -0.325 N 
ATOM     24  N   UNL     1      16.762 -23.793 -41.105  1.00  0.00    -0.175 NA
ATOM     25  O   UNL     1      17.057 -22.587 -43.023  1.00  0.00    -0.267 OA
ATOM     26  C   UNL     1      15.968 -24.585 -40.467  1.00  0.00     0.201 C 
ATOM     27  N   UNL     1      16.345 -25.117 -39.277  1.00  0.00    -0.369 N 
ATOM     28  H   UNL     1      14.085 -25.277 -40.131  1.00  0.00     0.170 HD
ATOM     29  H   UNL     1      16.191 -26.116 -39.220  1.00  0.00     0.159 HD
ATOM     30  H   UNL     1      17.321 -24.898 -39.097  1.00  0.00     0.159 HD
ENDBRANCH  15  16
ENDBRANCH  11  15
ENDBRANCH   6  11
ENDBRANCH   1   5
BRANCH   3  31
ATOM     31  C   UNL     1       5.949 -25.016 -50.980  1.00  0.00     0.128 C 
BRANCH  31  32
ATOM     32  C   UNL     1       4.615 -24.529 -50.385  1.00  0.00     0.037 C 
BRANCH  32  33
ATOM     33  C   UNL     1       4.744 -23.182 -49.662  1.00  0.00     0.055 C 
BRANCH  33  34
ATOM     34  C   UNL     1       3.486 -22.313 -49.559  1.00  0.00     0.041 C 
ATOM     35  O   UNL     1       2.441 -22.733 -50.125  1.00  0.00    -0.550 OA
ATOM     36  O   UNL     1       3.646 -21.235 -48.908  1.00  0.00    -0.550 OA
ENDBRANCH  33  34
ENDBRANCH  32  33
ENDBRANCH  31  32
BRANCH  31  37
ATOM     37  C   UNL     1       6.120 -24.346 -52.394  1.00  0.00     0.064 C 
ATOM     38  O   UNL     1       5.128 -24.521 -53.177  1.00  0.00    -0.548 OA
ATOM     39  O   UNL     1       7.181 -23.687 -52.587  1.00  0.00    -0.548 OA
ENDBRANCH  31  37
ENDBRANCH   3  31
TORSDOF 10
ENDMDL
MODEL 7
REMARK VINA RESULT:    -7.695      2.812     10.004
REMARK INTER + INTRA:         -13.118
REMARK INTER:                 -11.233
REMARK INTRA:                  -1.885
REMARK UNBOUND:                -0.925
REMARK SMILES C#CCN(Cc1ccc2[nH]c(N)nc(=O)c2c1)c1ccc(C(=O)N[C@@H](CCC(=O)[O-])C(=O)[O-])cc1
REMARK SMILES IDX 22 1 23 2 24 3 21 5 18 6 19 7 35 8 20 9 34 10 4 11 3 12 2 13
REMARK SMILES IDX 1 14 5 15 6 16 7 17 17 18 8 19 16 20 9 21 14 22 10 23 13 24
REMARK SMILES IDX 15 25 11 26 12 27 25 31 26 32 27 33 28 34 29 35 30 36 31 37
REMARK SMILES IDX 32 38 33 39
REMARK H PARENT 24 4 10 28 12 29 12 30
ROOT
ATOM      1  C   UNL     1      14.606 -25.531 -43.776  1.00  0.00     0.251 C 
ATOM      2  O   UNL     1      14.147 -26.340 -42.975  1.00  0.00    -0.269 OA
ATOM      3  N   UNL     1      15.793 -24.857 -43.639  1.00  0.00    -0.344 N 
ATOM      4  H   UNL     1      15.842 -23.929 -44.050  1.00  0.00     0.164 HD
ENDROOT
BRANCH   1   5
ATOM      5  C   UNL     1      13.845 -25.235 -45.027  1.00  0.00     0.039 A 
ATOM      6  C   UNL     1      12.413 -24.517 -47.406  1.00  0.00     0.038 A 
ATOM      7  C   UNL     1      13.773 -24.206 -47.226  1.00  0.00     0.027 A 
ATOM      8  C   UNL     1      11.808 -25.219 -46.347  1.00  0.00     0.027 A 
ATOM      9  C   UNL     1      14.478 -24.552 -46.062  1.00  0.00     0.016 A 
ATOM     10  C   UNL     1      12.500 -25.567 -45.176  1.00  0.00     0.016 A 
BRANCH   6  11
ATOM     11  N   UNL     1      11.702 -24.124 -48.539  1.00  0.00    -0.356 N 
BRANCH  11  12
ATOM     12  C   UNL     1      11.473 -25.038 -49.661  1.00  0.00     0.206 C 
ATOM     13  C   UNL     1      10.034 -25.243 -49.904  1.00  0.00    -0.085 C 
ATOM     14  C   UNL     1       8.859 -25.408 -50.089  1.00  0.00     0.006 C 
ENDBRANCH  11  12
BRANCH  11  15
ATOM     15  C   UNL     1      11.001 -22.838 -48.614  1.00  0.00     0.153 C 
BRANCH  15  16
ATOM     16  C   UNL     1      11.901 -21.730 -49.137  1.00  0.00    -0.028 A 
ATOM     17  C   UNL     1      12.392 -20.721 -48.293  1.00  0.00     0.008 A 
ATOM     18  C   UNL     1      12.228 -21.675 -50.501  1.00  0.00     0.021 A 
ATOM     19  C   UNL     1      13.190 -19.684 -48.787  1.00  0.00     0.027 A 
ATOM     20  C   UNL     1      13.030 -20.636 -50.990  1.00  0.00     0.066 A 
ATOM     21  C   UNL     1      13.494 -19.624 -50.145  1.00  0.00     0.054 A 
ATOM     22  C   UNL     1      13.412 -20.554 -52.427  1.00  0.00     0.282 C 
ATOM     23  N   UNL     1      14.344 -18.640 -50.663  1.00  0.00    -0.325 N 
ATOM     24  N   UNL     1      14.136 -19.467 -52.878  1.00  0.00    -0.175 NA
ATOM     25  O   UNL     1      13.067 -21.464 -53.175  1.00  0.00    -0.267 OA
ATOM     26  C   UNL     1      14.536 -18.602 -52.007  1.00  0.00     0.201 C 
ATOM     27  N   UNL     1      15.251 -17.518 -52.401  1.00  0.00    -0.369 N 
ATOM     28  H   UNL     1      14.351 -17.759 -50.166  1.00  0.00     0.170 HD
ATOM     29  H   UNL     1      16.083 -17.365 -51.844  1.00  0.00     0.159 HD
ATOM     30  H   UNL     1      15.493 -17.604 -53.384  1.00  0.00     0.159 HD
ENDBRANCH  15  16
ENDBRANCH  11  15
ENDBRANCH   6  11
ENDBRANCH   1   5
BRANCH   3  31
ATOM     31  C   UNL     1      16.611 -24.877 -42.405  1.00  0.00     0.128 C 
BRANCH  31  32
ATOM     32  C   UNL     1      18.079 -24.560 -42.748  1.00  0.00     0.037 C 
BRANCH  32  33
ATOM     33  C   UNL     1      18.266 -24.127 -44.208  1.00  0.00     0.055 C 
BRANCH  33  34
ATOM     34  C   UNL     1      18.339 -22.623 -44.495  1.00  0.00     0.041 C 
ATOM     35  O   UNL     1      17.279 -21.953 -44.355  1.00  0.00    -0.550 OA
ATOM     36  O   UNL     1      19.483 -22.214 -44.861  1.00  0.00    -0.550 OA
ENDBRANCH  33  34
ENDBRANCH  32  33
ENDBRANCH  31  32
BRANCH  31  37
ATOM     37  C   UNL     1      16.105 -23.784 -41.392  1.00  0.00     0.064 C 
ATOM     38  O   UNL     1      15.054 -24.115 -40.750  1.00  0.00    -0.548 OA
ATOM     39  O   UNL     1      16.801 -22.733 -41.294  1.00  0.00    -0.548 OA
ENDBRANCH  31  37
ENDBRANCH   3  31
TORSDOF 10
ENDMDL
MODEL 8
REMARK VINA RESULT:    -7.645      3.385      4.945
REMARK INTER + INTRA:         -13.039
REMARK INTER:                 -12.151
REMARK INTRA:                  -0.887
REMARK UNBOUND:                -0.925
REMARK SMILES C#CCN(Cc1ccc2[nH]c(N)nc(=O)c2c1)c1ccc(C(=O)N[C@@H](CCC(=O)[O-])C(=O)[O-])cc1
REMARK SMILES IDX 22 1 23 2 24 3 21 5 18 6 19 7 35 8 20 9 34 10 4 11 3 12 2 13
REMARK SMILES IDX 1 14 5 15 6 16 7 17 17 18 8 19 16 20 9 21 14 22 10 23 13 24
REMARK SMILES IDX 15 25 11 26 12 27 25 31 26 32 27 33 28 34 29 35 30 36 31 37
REMARK SMILES IDX 32 38 33 39
REMARK H PARENT 24 4 10 28 12 29 12 30
ROOT
ATOM      1  C   UNL     1      11.169 -23.431 -50.270  1.00  0.00     0.251 C 
ATOM      2  O   UNL     1      11.062 -22.410 -50.942  1.00  0.00    -0.269 OA
ATOM      3  N   UNL     1      10.486 -24.603 -50.481  1.00  0.00    -0.344 N 
ATOM      4  H   UNL     1      10.277 -25.163 -49.660  1.00  0.00     0.164 HD
ENDROOT
BRANCH   1   5
ATOM      5  C   UNL     1      12.126 -23.448 -49.123  1.00  0.00     0.039 A 
ATOM      6  C   UNL     1      14.074 -23.439 -47.017  1.00  0.00     0.038 A 
ATOM      7  C   UNL     1      13.793 -22.294 -47.785  1.00  0.00     0.027 A 
ATOM      8  C   UNL     1      13.322 -24.583 -47.342  1.00  0.00     0.027 A 
ATOM      9  C   UNL     1      12.843 -22.293 -48.819  1.00  0.00     0.016 A 
ATOM     10  C   UNL     1      12.373 -24.598 -48.377  1.00  0.00     0.016 A 
BRANCH   6  11
ATOM     11  N   UNL     1      15.057 -23.451 -46.028  1.00  0.00    -0.356 N 
BRANCH  11  12
ATOM     12  C   UNL     1      15.734 -22.224 -45.601  1.00  0.00     0.206 C 
ATOM     13  C   UNL     1      17.133 -22.485 -45.220  1.00  0.00    -0.085 C 
ATOM     14  C   UNL     1      18.270 -22.711 -44.906  1.00  0.00     0.006 C 
ENDBRANCH  11  12
BRANCH  11  15
ATOM     15  C   UNL     1      15.358 -24.650 -45.241  1.00  0.00     0.153 C 
BRANCH  15  16
ATOM     16  C   UNL     1      14.756 -24.581 -43.847  1.00  0.00    -0.028 A 
ATOM     17  C   UNL     1      13.381 -24.375 -43.649  1.00  0.00     0.008 A 
ATOM     18  C   UNL     1      15.583 -24.687 -42.718  1.00  0.00     0.021 A 
ATOM     19  C   UNL     1      12.839 -24.276 -42.363  1.00  0.00     0.027 A 
ATOM     20  C   UNL     1      15.034 -24.591 -41.432  1.00  0.00     0.066 A 
ATOM     21  C   UNL     1      13.668 -24.361 -41.247  1.00  0.00     0.054 A 
ATOM     22  C   UNL     1      15.878 -24.715 -40.212  1.00  0.00     0.282 C 
ATOM     23  N   UNL     1      13.152 -24.336 -39.947  1.00  0.00    -0.325 N 
ATOM     24  N   UNL     1      15.305 -24.532 -38.967  1.00  0.00    -0.175 NA
ATOM     25  O   UNL     1      17.069 -24.977 -40.350  1.00  0.00    -0.267 OA
ATOM     26  C   UNL     1      14.028 -24.351 -38.909  1.00  0.00     0.201 C 
ATOM     27  N   UNL     1      13.419 -24.167 -37.710  1.00  0.00    -0.369 N 
ATOM     28  H   UNL     1      12.293 -23.815 -39.824  1.00  0.00     0.170 HD
ATOM     29  H   UNL     1      12.599 -24.746 -37.587  1.00  0.00     0.159 HD
ATOM     30  H   UNL     1      14.084 -24.329 -36.959  1.00  0.00     0.159 HD
ENDBRANCH  15  16
ENDBRANCH  11  15
ENDBRANCH   6  11
ENDBRANCH   1   5
BRANCH   3  31
ATOM     31  C   UNL     1       9.377 -24.742 -51.452  1.00  0.00     0.128 C 
BRANCH  31  32
ATOM     32  C   UNL     1       8.566 -23.434 -51.507  1.00  0.00     0.037 C 
BRANCH  32  33
ATOM     33  C   UNL     1       7.389 -23.424 -50.523  1.00  0.00     0.055 C 
BRANCH  33  34
ATOM     34  C   UNL     1       6.153 -22.604 -50.908  1.00  0.00     0.041 C 
ATOM     35  O   UNL     1       6.185 -21.986 -52.007  1.00  0.00    -0.550 OA
ATOM     36  O   UNL     1       5.218 -22.631 -50.051  1.00  0.00    -0.550 OA
ENDBRANCH  33  34
ENDBRANCH  32  33
ENDBRANCH  31  32
BRANCH  31  37
ATOM     37  C   UNL     1       9.941 -25.022 -52.894  1.00  0.00     0.064 C 
ATOM     38  O   UNL     1       9.603 -24.151 -53.764  1.00  0.00    -0.548 OA
ATOM     39  O   UNL     1      10.686 -26.034 -53.028  1.00  0.00    -0.548 OA
ENDBRANCH  31  37
ENDBRANCH   3  31
TORSDOF 10
ENDMDL
MODEL 9
REMARK VINA RESULT:    -7.625      4.250     10.883
REMARK INTER + INTRA:         -13.007
REMARK INTER:                 -11.965
REMARK INTRA:                  -1.042
REMARK UNBOUND:                -0.925
REMARK SMILES C#CCN(Cc1ccc2[nH]c(N)nc(=O)c2c1)c1ccc(C(=O)N[C@@H](CCC(=O)[O-])C(=O)[O-])cc1
REMARK SMILES IDX 22 1 23 2 24 3 21 5 18 6 19 7 35 8 20 9 34 10 4 11 3 12 2 13
REMARK SMILES IDX 1 14 5 15 6 16 7 17 17 18 8 19 16 20 9 21 14 22 10 23 13 24
REMARK SMILES IDX 15 25 11 26 12 27 25 31 26 32 27 33 28 34 29 35 30 36 31 37
REMARK SMILES IDX 32 38 33 39
REMARK H PARENT 24 4 10 28 12 29 12 30
ROOT
ATOM      1  C   UNL     1      14.665 -24.877 -43.672  1.00  0.00     0.251 C 
ATOM      2  O   UNL     1      14.583 -26.094 -43.541  1.00  0.00    -0.269 OA
ATOM      3  N   UNL     1      15.223 -24.011 -42.765  1.00  0.00    -0.344 N 
ATOM      4  H   UNL     1      14.830 -23.076 -42.725  1.00  0.00     0.164 HD
ENDROOT
BRANCH   1   5
ATOM      5  C   UNL     1      14.135 -24.242 -44.916  1.00  0.00     0.039 A 
ATOM      6  C   UNL     1      12.978 -23.024 -47.241  1.00  0.00     0.038 A 
ATOM      7  C   UNL     1      12.921 -22.421 -45.971  1.00  0.00     0.027 A 
ATOM      8  C   UNL     1      13.656 -24.256 -47.296  1.00  0.00     0.027 A 
ATOM      9  C   UNL     1      13.483 -23.015 -44.829  1.00  0.00     0.016 A 
ATOM     10  C   UNL     1      14.217 -24.863 -46.161  1.00  0.00     0.016 A 
BRANCH   6  11
ATOM     11  N   UNL     1      12.372 -22.458 -48.362  1.00  0.00    -0.356 N 
BRANCH  11  12
ATOM     12  C   UNL     1      12.366 -21.010 -48.586  1.00  0.00     0.206 C 
ATOM     13  C   UNL     1      12.976 -20.663 -49.882  1.00  0.00    -0.085 C 
ATOM     14  C   UNL     1      13.480 -20.391 -50.938  1.00  0.00     0.006 C 
ENDBRANCH  11  12
BRANCH  11  15
ATOM     15  C   UNL     1      11.851 -23.274 -49.463  1.00  0.00     0.153 C 
BRANCH  15  16
ATOM     16  C   UNL     1      10.378 -23.602 -49.280  1.00  0.00    -0.028 A 
ATOM     17  C   UNL     1       9.925 -24.367 -48.193  1.00  0.00     0.008 A 
ATOM     18  C   UNL     1       9.439 -23.172 -50.230  1.00  0.00     0.021 A 
ATOM     19  C   UNL     1       8.573 -24.696 -48.050  1.00  0.00     0.027 A 
ATOM     20  C   UNL     1       8.085 -23.502 -50.080  1.00  0.00     0.066 A 
ATOM     21  C   UNL     1       7.649 -24.284 -49.007  1.00  0.00     0.054 A 
ATOM     22  C   UNL     1       7.058 -23.049 -51.058  1.00  0.00     0.282 C 
ATOM     23  N   UNL     1       6.280 -24.536 -48.861  1.00  0.00    -0.325 N 
ATOM     24  N   UNL     1       5.749 -23.468 -50.913  1.00  0.00    -0.175 NA
ATOM     25  O   UNL     1       7.409 -22.311 -51.974  1.00  0.00    -0.267 OA
ATOM     26  C   UNL     1       5.449 -24.167 -49.869  1.00  0.00     0.201 C 
ATOM     27  N   UNL     1       4.177 -24.601 -49.682  1.00  0.00    -0.369 N 
ATOM     28  H   UNL     1       6.040 -25.370 -48.340  1.00  0.00     0.170 HD
ATOM     29  H   UNL     1       3.827 -24.419 -48.750  1.00  0.00     0.159 HD
ATOM     30  H   UNL     1       3.565 -24.184 -50.378  1.00  0.00     0.159 HD
ENDBRANCH  15  16
ENDBRANCH  11  15
ENDBRANCH   6  11
ENDBRANCH   1   5
BRANCH   3  31
ATOM     31  C   UNL     1      15.649 -24.411 -41.404  1.00  0.00     0.128 C 
BRANCH  31  32
ATOM     32  C   UNL     1      14.537 -25.237 -40.732  1.00  0.00     0.037 C 
BRANCH  32  33
ATOM     33  C   UNL     1      13.728 -24.424 -39.712  1.00  0.00     0.055 C 
BRANCH  33  34
ATOM     34  C   UNL     1      13.835 -24.834 -38.239  1.00  0.00     0.041 C 
ATOM     35  O   UNL     1      13.684 -23.931 -37.372  1.00  0.00    -0.550 OA
ATOM     36  O   UNL     1      14.081 -26.065 -38.055  1.00  0.00    -0.550 OA
ENDBRANCH  33  34
ENDBRANCH  32  33
ENDBRANCH  31  32
BRANCH  31  37
ATOM     37  C   UNL     1      16.941 -25.308 -41.474  1.00  0.00     0.064 C 
ATOM     38  O   UNL     1      17.890 -24.802 -42.160  1.00  0.00    -0.548 OA
ATOM     39  O   UNL     1      16.917 -26.392 -40.825  1.00  0.00    -0.548 OA
ENDBRANCH  31  37
ENDBRANCH   3  31
TORSDOF 10
ENDMDL
