REMARK SMILES COc1ccc(OC)c(-c2sc3nc(N)nc(N)c3c2C)c1
REMARK SMILES IDX 10 1 11 2 12 3 13 4 14 5 16 6 17 7 19 8 20 9 21 10 9 11 3 12
REMARK SMILES IDX 4 13 22 14 5 15 6 16 2 17 1 18 7 19 8 20 18 21 15 24
REMARK H PARENT 18 22 18 23 15 25 15 26
ROOT
ATOM      1  C   UNL     1      -0.554  -0.456   0.343  1.00  0.00     0.044 A 
ATOM      2  S   UNL     1       0.949  -0.354   1.153  1.00  0.00    -0.115 S 
ATOM      3  C   UNL     1       0.862  -1.972   1.657  1.00  0.00     0.131 A 
ATOM      4  N   UNL     1       1.854  -2.504   2.387  1.00  0.00    -0.202 NA
ATOM      5  C   UNL     1       1.643  -3.772   2.714  1.00  0.00     0.223 A 
ATOM      6  N   UNL     1       0.583  -4.510   2.372  1.00  0.00    -0.196 NA
ATOM      7  C   UNL     1      -0.403  -3.953   1.646  1.00  0.00     0.138 A 
ATOM      8  C   UNL     1      -0.294  -2.610   1.240  1.00  0.00     0.057 A 
ATOM      9  C   UNL     1      -1.128  -1.717   0.452  1.00  0.00    -0.019 A 
ATOM     10  C   UNL     1      -2.430  -2.113  -0.170  1.00  0.00     0.047 C 
ENDROOT
BRANCH   1  11
ATOM     11  C   UNL     1      -1.046   0.738  -0.358  1.00  0.00     0.038 A 
ATOM     12  C   UNL     1      -2.074   2.940  -0.226  1.00  0.00     0.119 A 
ATOM     13  C   UNL     1      -2.021   3.028  -1.616  1.00  0.00     0.050 A 
ATOM     14  C   UNL     1      -1.590   1.793   0.400  1.00  0.00     0.059 A 
ATOM     15  C   UNL     1      -1.486   1.989  -2.383  1.00  0.00     0.051 A 
ATOM     16  C   UNL     1      -0.992   0.838  -1.764  1.00  0.00     0.127 A 
BRANCH  12  17
ATOM     17  O   UNL     1      -2.622   4.028   0.396  1.00  0.00    -0.497 OA
ATOM     18  C   UNL     1      -2.636   4.017   1.818  1.00  0.00     0.278 C 
ENDBRANCH  12  17
BRANCH  16  19
ATOM     19  O   UNL     1      -0.458  -0.234  -2.433  1.00  0.00    -0.496 OA
ATOM     20  C   UNL     1      -0.264  -0.104  -3.835  1.00  0.00     0.278 C 
ENDBRANCH  16  19
ENDBRANCH   1  11
BRANCH   7  21
ATOM     21  N   UNL     1      -1.487  -4.778   1.364  1.00  0.00    -0.383 N 
ATOM     22  H   UNL     1      -2.380  -4.306   1.361  1.00  0.00     0.158 HD
ATOM     23  H   UNL     1      -1.442  -5.604   1.952  1.00  0.00     0.158 HD
ENDBRANCH   7  21
BRANCH   5  24
ATOM     24  N   UNL     1       2.630  -4.406   3.445  1.00  0.00    -0.368 N 
ATOM     25  H   UNL     1       3.514  -3.942   3.293  1.00  0.00     0.159 HD
ATOM     26  H   UNL     1       2.593  -5.400   3.268  1.00  0.00     0.159 HD
ENDBRANCH   5  24
TORSDOF 5
