MODEL 1
REMARK VINA RESULT:    -7.593      0.000      0.000
REMARK INTER + INTRA:         -10.809
REMARK INTER:                 -10.256
REMARK INTRA:                  -0.553
REMARK UNBOUND:                -0.553
REMARK SMILES COc1cc(CN(C)c2cnc3nc(N)nc(N)c3c2)cc(OC)c1
REMARK SMILES IDX 6 1 5 2 3 3 4 4 25 5 22 6 21 7 2 8 1 9 23 10 24 11 7 12 8 13
REMARK SMILES IDX 9 14 10 15 20 16 11 17 19 18 12 19 17 20 13 21 16 22 14 23
REMARK SMILES IDX 18 24 15 27
REMARK H PARENT 18 25 18 26 15 28 15 29
ROOT
ATOM      1  C   UNL     1      13.021 -23.843 -44.194  1.00  0.00     0.152 C 
ENDROOT
BRANCH   1   2
ATOM      2  C   UNL     1      14.054 -23.857 -43.083  1.00  0.00    -0.021 A 
ATOM      3  C   UNL     1      14.677 -24.399 -40.796  1.00  0.00     0.122 A 
ATOM      4  C   UNL     1      13.732 -24.388 -41.822  1.00  0.00     0.052 A 
ATOM      5  C   UNL     1      15.948 -23.871 -41.032  1.00  0.00     0.092 A 
ATOM      6  C   UNL     1      16.286 -23.330 -42.274  1.00  0.00     0.122 A 
ATOM      7  C   UNL     1      15.342 -23.336 -43.298  1.00  0.00     0.052 A 
BRANCH   3   8
ATOM      8  O   UNL     1      14.487 -24.888 -39.533  1.00  0.00    -0.497 OA
ATOM      9  C   UNL     1      13.618 -24.157 -38.678  1.00  0.00     0.278 C 
ENDBRANCH   3   8
BRANCH   6  10
ATOM     10  O   UNL     1      17.559 -22.838 -42.362  1.00  0.00    -0.497 OA
ATOM     11  C   UNL     1      18.311 -23.210 -43.511  1.00  0.00     0.278 C 
ENDBRANCH   6  10
ENDBRANCH   1   2
BRANCH   1  12
ATOM     12  N   UNL     1      13.563 -24.343 -45.469  1.00  0.00    -0.369 N 
ATOM     13  C   UNL     1      13.339 -25.764 -45.742  1.00  0.00     0.144 C 
BRANCH  12  14
ATOM     14  C   UNL     1      13.667 -23.464 -46.544  1.00  0.00     0.056 A 
ATOM     15  C   UNL     1      14.837 -22.807 -46.917  1.00  0.00     0.139 A 
ATOM     16  C   UNL     1      12.567 -23.144 -47.338  1.00  0.00     0.043 A 
ATOM     17  N   UNL     1      14.970 -21.946 -47.960  1.00  0.00    -0.234 NA
ATOM     18  C   UNL     1      12.676 -22.249 -48.432  1.00  0.00     0.064 A 
ATOM     19  C   UNL     1      13.905 -21.659 -48.705  1.00  0.00     0.167 A 
ATOM     20  C   UNL     1      11.638 -21.884 -49.285  1.00  0.00     0.138 A 
ATOM     21  N   UNL     1      14.069 -20.806 -49.705  1.00  0.00    -0.193 NA
ATOM     22  N   UNL     1      11.792 -21.013 -50.286  1.00  0.00    -0.196 NA
ATOM     23  C   UNL     1      13.007 -20.494 -50.437  1.00  0.00     0.224 A 
BRANCH  20  24
ATOM     24  N   UNL     1      10.344 -22.403 -49.145  1.00  0.00    -0.383 N 
ATOM     25  H   UNL     1       9.910 -21.918 -48.361  1.00  0.00     0.158 HD
ATOM     26  H   UNL     1       9.802 -22.296 -49.994  1.00  0.00     0.158 HD
ENDBRANCH  20  24
BRANCH  23  27
ATOM     27  N   UNL     1      13.190 -19.599 -51.470  1.00  0.00    -0.368 N 
ATOM     28  H   UNL     1      13.286 -18.658 -51.119  1.00  0.00     0.159 HD
ATOM     29  H   UNL     1      12.511 -19.765 -52.202  1.00  0.00     0.159 HD
ENDBRANCH  23  27
ENDBRANCH  12  14
ENDBRANCH   1  12
TORSDOF 7
ENDMDL
MODEL 2
REMARK VINA RESULT:    -7.570      0.163      2.528
REMARK INTER + INTRA:         -10.778
REMARK INTER:                 -10.251
REMARK INTRA:                  -0.527
REMARK UNBOUND:                -0.553
REMARK SMILES COc1cc(CN(C)c2cnc3nc(N)nc(N)c3c2)cc(OC)c1
REMARK SMILES IDX 6 1 5 2 3 3 4 4 25 5 22 6 21 7 2 8 1 9 23 10 24 11 7 12 8 13
REMARK SMILES IDX 9 14 10 15 20 16 11 17 19 18 12 19 17 20 13 21 16 22 14 23
REMARK SMILES IDX 18 24 15 27
REMARK H PARENT 18 25 18 26 15 28 15 29
ROOT
ATOM      1  C   UNL     1      12.984 -23.936 -44.042  1.00  0.00     0.152 C 
ENDROOT
BRANCH   1   2
ATOM      2  C   UNL     1      14.040 -23.915 -42.954  1.00  0.00    -0.021 A 
ATOM      3  C   UNL     1      16.287 -23.356 -42.212  1.00  0.00     0.122 A 
ATOM      4  C   UNL     1      15.311 -23.374 -43.209  1.00  0.00     0.052 A 
ATOM      5  C   UNL     1      15.990 -23.888 -40.956  1.00  0.00     0.092 A 
ATOM      6  C   UNL     1      14.737 -24.440 -40.684  1.00  0.00     0.122 A 
ATOM      7  C   UNL     1      13.762 -24.441 -41.679  1.00  0.00     0.052 A 
BRANCH   3   8
ATOM      8  O   UNL     1      17.554 -22.856 -42.337  1.00  0.00    -0.497 OA
ATOM      9  C   UNL     1      18.285 -23.222 -43.499  1.00  0.00     0.278 C 
ENDBRANCH   3   8
BRANCH   6  10
ATOM     10  O   UNL     1      14.587 -24.935 -39.417  1.00  0.00    -0.497 OA
ATOM     11  C   UNL     1      13.774 -24.179 -38.527  1.00  0.00     0.278 C 
ENDBRANCH   6  10
ENDBRANCH   1   2
BRANCH   1  12
ATOM     12  N   UNL     1      13.510 -24.433 -45.325  1.00  0.00    -0.369 N 
ATOM     13  C   UNL     1      13.275 -25.851 -45.603  1.00  0.00     0.144 C 
BRANCH  12  14
ATOM     14  C   UNL     1      13.608 -23.548 -46.396  1.00  0.00     0.056 A 
ATOM     15  C   UNL     1      14.771 -22.870 -46.755  1.00  0.00     0.139 A 
ATOM     16  C   UNL     1      12.511 -23.245 -47.200  1.00  0.00     0.043 A 
ATOM     17  N   UNL     1      14.899 -22.003 -47.794  1.00  0.00    -0.234 NA
ATOM     18  C   UNL     1      12.615 -22.345 -48.290  1.00  0.00     0.064 A 
ATOM     19  C   UNL     1      13.836 -21.733 -48.549  1.00  0.00     0.167 A 
ATOM     20  C   UNL     1      11.579 -21.995 -49.152  1.00  0.00     0.138 A 
ATOM     21  N   UNL     1      13.995 -20.874 -49.545  1.00  0.00    -0.193 NA
ATOM     22  N   UNL     1      11.727 -21.119 -50.149  1.00  0.00    -0.196 NA
ATOM     23  C   UNL     1      12.935 -20.578 -50.286  1.00  0.00     0.224 A 
BRANCH  20  24
ATOM     24  N   UNL     1      10.294 -22.538 -49.026  1.00  0.00    -0.383 N 
ATOM     25  H   UNL     1      10.187 -23.232 -49.763  1.00  0.00     0.158 HD
ATOM     26  H   UNL     1      10.145 -22.944 -48.109  1.00  0.00     0.158 HD
ENDBRANCH  20  24
BRANCH  23  27
ATOM     27  N   UNL     1      13.112 -19.677 -51.315  1.00  0.00    -0.368 N 
ATOM     28  H   UNL     1      12.404 -18.958 -51.290  1.00  0.00     0.159 HD
ATOM     29  H   UNL     1      13.261 -20.166 -52.188  1.00  0.00     0.159 HD
ENDBRANCH  23  27
ENDBRANCH  12  14
ENDBRANCH   1  12
TORSDOF 7
ENDMDL
MODEL 3
REMARK VINA RESULT:    -7.321      1.548      3.037
REMARK INTER + INTRA:         -10.443
REMARK INTER:                 -10.138
REMARK INTRA:                  -0.305
REMARK UNBOUND:                -0.553
REMARK SMILES COc1cc(CN(C)c2cnc3nc(N)nc(N)c3c2)cc(OC)c1
REMARK SMILES IDX 6 1 5 2 3 3 4 4 25 5 22 6 21 7 2 8 1 9 23 10 24 11 7 12 8 13
REMARK SMILES IDX 9 14 10 15 20 16 11 17 19 18 12 19 17 20 13 21 16 22 14 23
REMARK SMILES IDX 18 24 15 27
REMARK H PARENT 18 25 18 26 15 28 15 29
ROOT
ATOM      1  C   UNL     1      16.041 -22.108 -44.820  1.00  0.00     0.152 C 
ENDROOT
BRANCH   1   2
ATOM      2  C   UNL     1      15.571 -22.901 -43.616  1.00  0.00    -0.021 A 
ATOM      3  C   UNL     1      16.005 -23.849 -41.419  1.00  0.00     0.122 A 
ATOM      4  C   UNL     1      16.433 -23.117 -42.527  1.00  0.00     0.052 A 
ATOM      5  C   UNL     1      14.710 -24.373 -41.404  1.00  0.00     0.092 A 
ATOM      6  C   UNL     1      13.841 -24.179 -42.479  1.00  0.00     0.122 A 
ATOM      7  C   UNL     1      14.270 -23.433 -43.575  1.00  0.00     0.052 A 
BRANCH   3   8
ATOM      8  O   UNL     1      16.746 -24.124 -40.302  1.00  0.00    -0.497 OA
ATOM      9  C   UNL     1      16.163 -24.984 -39.332  1.00  0.00     0.278 C 
ENDBRANCH   3   8
BRANCH   6  10
ATOM     10  O   UNL     1      12.609 -24.755 -42.336  1.00  0.00    -0.497 OA
ATOM     11  C   UNL     1      12.550 -25.963 -41.586  1.00  0.00     0.278 C 
ENDBRANCH   6  10
ENDBRANCH   1   2
BRANCH   1  12
ATOM     12  N   UNL     1      16.033 -22.909 -46.056  1.00  0.00    -0.369 N 
ATOM     13  C   UNL     1      16.916 -24.076 -46.064  1.00  0.00     0.144 C 
BRANCH  12  14
ATOM     14  C   UNL     1      14.873 -22.943 -46.825  1.00  0.00     0.056 A 
ATOM     15  C   UNL     1      13.948 -23.985 -46.812  1.00  0.00     0.139 A 
ATOM     16  C   UNL     1      14.551 -21.917 -47.712  1.00  0.00     0.043 A 
ATOM     17  N   UNL     1      12.807 -24.047 -47.548  1.00  0.00    -0.234 NA
ATOM     18  C   UNL     1      13.368 -21.956 -48.492  1.00  0.00     0.064 A 
ATOM     19  C   UNL     1      12.521 -23.052 -48.386  1.00  0.00     0.167 A 
ATOM     20  C   UNL     1      12.960 -20.973 -49.391  1.00  0.00     0.138 A 
ATOM     21  N   UNL     1      11.407 -23.153 -49.097  1.00  0.00    -0.193 NA
ATOM     22  N   UNL     1      11.847 -21.073 -50.122  1.00  0.00    -0.196 NA
ATOM     23  C   UNL     1      11.126 -22.179 -49.954  1.00  0.00     0.224 A 
BRANCH  20  24
ATOM     24  N   UNL     1      13.702 -19.803 -49.599  1.00  0.00    -0.383 N 
ATOM     25  H   UNL     1      14.566 -19.898 -49.069  1.00  0.00     0.158 HD
ATOM     26  H   UNL     1      13.886 -19.644 -50.583  1.00  0.00     0.158 HD
ENDBRANCH  20  24
BRANCH  23  27
ATOM     27  N   UNL     1       9.968 -22.299 -50.693  1.00  0.00    -0.368 N 
ATOM     28  H   UNL     1       9.762 -23.268 -50.885  1.00  0.00     0.159 HD
ATOM     29  H   UNL     1       9.981 -21.654 -51.472  1.00  0.00     0.159 HD
ENDBRANCH  23  27
ENDBRANCH  12  14
ENDBRANCH   1  12
TORSDOF 7
ENDMDL
MODEL 4
REMARK VINA RESULT:    -7.301      1.587      2.709
REMARK INTER + INTRA:         -10.415
REMARK INTER:                 -10.039
REMARK INTRA:                  -0.376
REMARK UNBOUND:                -0.553
REMARK SMILES COc1cc(CN(C)c2cnc3nc(N)nc(N)c3c2)cc(OC)c1
REMARK SMILES IDX 6 1 5 2 3 3 4 4 25 5 22 6 21 7 2 8 1 9 23 10 24 11 7 12 8 13
REMARK SMILES IDX 9 14 10 15 20 16 11 17 19 18 12 19 17 20 13 21 16 22 14 23
REMARK SMILES IDX 18 24 15 27
REMARK H PARENT 18 25 18 26 15 28 15 29
ROOT
ATOM      1  C   UNL     1      16.372 -21.996 -44.927  1.00  0.00     0.152 C 
ENDROOT
BRANCH   1   2
ATOM      2  C   UNL     1      16.075 -22.942 -43.779  1.00  0.00    -0.021 A 
ATOM      3  C   UNL     1      14.480 -23.974 -42.260  1.00  0.00     0.122 A 
ATOM      4  C   UNL     1      14.758 -23.108 -43.319  1.00  0.00     0.052 A 
ATOM      5  C   UNL     1      15.529 -24.672 -41.656  1.00  0.00     0.092 A 
ATOM      6  C   UNL     1      16.846 -24.514 -42.091  1.00  0.00     0.122 A 
ATOM      7  C   UNL     1      17.113 -23.660 -43.158  1.00  0.00     0.052 A 
BRANCH   3   8
ATOM      8  O   UNL     1      13.246 -24.222 -41.726  1.00  0.00    -0.497 OA
ATOM      9  C   UNL     1      13.202 -24.719 -40.396  1.00  0.00     0.278 C 
ENDBRANCH   3   8
BRANCH   6  10
ATOM     10  O   UNL     1      17.772 -25.249 -41.403  1.00  0.00    -0.497 OA
ATOM     11  C   UNL     1      17.273 -26.183 -40.453  1.00  0.00     0.278 C 
ENDBRANCH   6  10
ENDBRANCH   1   2
BRANCH   1  12
ATOM     12  N   UNL     1      16.356 -22.677 -46.233  1.00  0.00    -0.369 N 
ATOM     13  C   UNL     1      17.333 -23.754 -46.401  1.00  0.00     0.144 C 
BRANCH  12  14
ATOM     14  C   UNL     1      15.157 -22.746 -46.938  1.00  0.00     0.056 A 
ATOM     15  C   UNL     1      14.241 -23.791 -46.838  1.00  0.00     0.139 A 
ATOM     16  C   UNL     1      14.783 -21.757 -47.846  1.00  0.00     0.043 A 
ATOM     17  N   UNL     1      13.064 -23.886 -47.510  1.00  0.00    -0.234 NA
ATOM     18  C   UNL     1      13.561 -21.830 -48.561  1.00  0.00     0.064 A 
ATOM     19  C   UNL     1      12.727 -22.926 -48.369  1.00  0.00     0.167 A 
ATOM     20  C   UNL     1      13.100 -20.884 -49.473  1.00  0.00     0.138 A 
ATOM     21  N   UNL     1      11.579 -23.059 -49.016  1.00  0.00    -0.193 NA
ATOM     22  N   UNL     1      11.951 -21.018 -50.141  1.00  0.00    -0.196 NA
ATOM     23  C   UNL     1      11.248 -22.120 -49.894  1.00  0.00     0.224 A 
BRANCH  20  24
ATOM     24  N   UNL     1      13.823 -19.720 -49.764  1.00  0.00    -0.383 N 
ATOM     25  H   UNL     1      13.436 -19.334 -50.623  1.00  0.00     0.158 HD
ATOM     26  H   UNL     1      13.780 -19.051 -49.004  1.00  0.00     0.158 HD
ENDBRANCH  20  24
BRANCH  23  27
ATOM     27  N   UNL     1      10.054 -22.273 -50.567  1.00  0.00    -0.368 N 
ATOM     28  H   UNL     1      10.012 -21.665 -51.370  1.00  0.00     0.159 HD
ATOM     29  H   UNL     1       9.280 -22.253 -49.916  1.00  0.00     0.159 HD
ENDBRANCH  23  27
ENDBRANCH  12  14
ENDBRANCH   1  12
TORSDOF 7
ENDMDL
MODEL 5
REMARK VINA RESULT:    -7.168      3.725      8.034
REMARK INTER + INTRA:         -10.236
REMARK INTER:                  -9.669
REMARK INTRA:                  -0.567
REMARK UNBOUND:                -0.553
REMARK SMILES COc1cc(CN(C)c2cnc3nc(N)nc(N)c3c2)cc(OC)c1
REMARK SMILES IDX 6 1 5 2 3 3 4 4 25 5 22 6 21 7 2 8 1 9 23 10 24 11 7 12 8 13
REMARK SMILES IDX 9 14 10 15 20 16 11 17 19 18 12 19 17 20 13 21 16 22 14 23
REMARK SMILES IDX 18 24 15 27
REMARK H PARENT 18 25 18 26 15 28 15 29
ROOT
ATOM      1  C   UNL     1      15.728 -22.008 -46.211  1.00  0.00     0.152 C 
ENDROOT
BRANCH   1   2
ATOM      2  C   UNL     1      14.481 -22.157 -47.061  1.00  0.00    -0.021 A 
ATOM      3  C   UNL     1      13.264 -21.689 -49.114  1.00  0.00     0.122 A 
ATOM      4  C   UNL     1      14.411 -21.558 -48.330  1.00  0.00     0.052 A 
ATOM      5  C   UNL     1      12.180 -22.420 -48.622  1.00  0.00     0.092 A 
ATOM      6  C   UNL     1      12.225 -23.015 -47.360  1.00  0.00     0.122 A 
ATOM      7  C   UNL     1      13.379 -22.892 -46.589  1.00  0.00     0.052 A 
BRANCH   3   8
ATOM      8  O   UNL     1      13.077 -21.158 -50.360  1.00  0.00    -0.497 OA
ATOM      9  C   UNL     1      13.393 -19.784 -50.534  1.00  0.00     0.278 C 
ENDBRANCH   3   8
BRANCH   6  10
ATOM     10  O   UNL     1      11.090 -23.690 -47.000  1.00  0.00    -0.497 OA
ATOM     11  C   UNL     1      11.250 -24.772 -46.090  1.00  0.00     0.278 C 
ENDBRANCH   6  10
ENDBRANCH   1   2
BRANCH   1  12
ATOM     12  N   UNL     1      16.149 -23.282 -45.604  1.00  0.00    -0.369 N 
ATOM     13  C   UNL     1      17.234 -23.985 -46.289  1.00  0.00     0.144 C 
BRANCH  12  14
ATOM     14  C   UNL     1      16.009 -23.448 -44.228  1.00  0.00     0.056 A 
ATOM     15  C   UNL     1      17.033 -23.261 -43.302  1.00  0.00     0.139 A 
ATOM     16  C   UNL     1      14.803 -23.851 -43.658  1.00  0.00     0.043 A 
ATOM     17  N   UNL     1      16.927 -23.413 -41.956  1.00  0.00    -0.234 NA
ATOM     18  C   UNL     1      14.665 -24.018 -42.257  1.00  0.00     0.064 A 
ATOM     19  C   UNL     1      15.763 -23.796 -41.435  1.00  0.00     0.167 A 
ATOM     20  C   UNL     1      13.498 -24.402 -41.600  1.00  0.00     0.138 A 
ATOM     21  N   UNL     1      15.701 -23.946 -40.120  1.00  0.00    -0.193 NA
ATOM     22  N   UNL     1      13.431 -24.571 -40.277  1.00  0.00    -0.196 NA
ATOM     23  C   UNL     1      14.552 -24.353 -39.595  1.00  0.00     0.224 A 
BRANCH  20  24
ATOM     24  N   UNL     1      12.305 -24.651 -42.290  1.00  0.00    -0.383 N 
ATOM     25  H   UNL     1      12.420 -24.280 -43.231  1.00  0.00     0.158 HD
ATOM     26  H   UNL     1      12.078 -25.639 -42.306  1.00  0.00     0.158 HD
ENDBRANCH  20  24
BRANCH  23  27
ATOM     27  N   UNL     1      14.503 -24.513 -38.226  1.00  0.00    -0.368 N 
ATOM     28  H   UNL     1      14.823 -23.681 -37.754  1.00  0.00     0.159 HD
ATOM     29  H   UNL     1      14.917 -25.397 -37.961  1.00  0.00     0.159 HD
ENDBRANCH  23  27
ENDBRANCH  12  14
ENDBRANCH   1  12
TORSDOF 7
ENDMDL
MODEL 6
REMARK VINA RESULT:    -7.101      3.906      7.873
REMARK INTER + INTRA:         -10.145
REMARK INTER:                  -9.525
REMARK INTRA:                  -0.620
REMARK UNBOUND:                -0.553
REMARK SMILES COc1cc(CN(C)c2cnc3nc(N)nc(N)c3c2)cc(OC)c1
REMARK SMILES IDX 6 1 5 2 3 3 4 4 25 5 22 6 21 7 2 8 1 9 23 10 24 11 7 12 8 13
REMARK SMILES IDX 9 14 10 15 20 16 11 17 19 18 12 19 17 20 13 21 16 22 14 23
REMARK SMILES IDX 18 24 15 27
REMARK H PARENT 18 25 18 26 15 28 15 29
ROOT
ATOM      1  C   UNL     1      15.909 -22.278 -46.167  1.00  0.00     0.152 C 
ENDROOT
BRANCH   1   2
ATOM      2  C   UNL     1      14.700 -22.487 -47.058  1.00  0.00    -0.021 A 
ATOM      3  C   UNL     1      13.027 -23.965 -48.024  1.00  0.00     0.122 A 
ATOM      4  C   UNL     1      14.137 -23.767 -47.202  1.00  0.00     0.052 A 
ATOM      5  C   UNL     1      12.482 -22.878 -48.710  1.00  0.00     0.092 A 
ATOM      6  C   UNL     1      13.032 -21.600 -48.590  1.00  0.00     0.122 A 
ATOM      7  C   UNL     1      14.130 -21.407 -47.755  1.00  0.00     0.052 A 
BRANCH   3   8
ATOM      8  O   UNL     1      12.391 -25.156 -48.242  1.00  0.00    -0.497 OA
ATOM      9  C   UNL     1      11.641 -25.281 -49.443  1.00  0.00     0.278 C 
ENDBRANCH   3   8
BRANCH   6  10
ATOM     10  O   UNL     1      12.406 -20.631 -49.326  1.00  0.00    -0.497 OA
ATOM     11  C   UNL     1      13.138 -20.079 -50.413  1.00  0.00     0.278 C 
ENDBRANCH   6  10
ENDBRANCH   1   2
BRANCH   1  12
ATOM     12  N   UNL     1      16.318 -23.513 -45.477  1.00  0.00    -0.369 N 
ATOM     13  C   UNL     1      17.451 -24.227 -46.070  1.00  0.00     0.144 C 
BRANCH  12  14
ATOM     14  C   UNL     1      16.106 -23.617 -44.105  1.00  0.00     0.056 A 
ATOM     15  C   UNL     1      17.088 -23.414 -43.138  1.00  0.00     0.139 A 
ATOM     16  C   UNL     1      14.864 -23.968 -43.580  1.00  0.00     0.043 A 
ATOM     17  N   UNL     1      16.912 -23.506 -41.793  1.00  0.00    -0.234 NA
ATOM     18  C   UNL     1      14.652 -24.071 -42.182  1.00  0.00     0.064 A 
ATOM     19  C   UNL     1      15.715 -23.840 -41.316  1.00  0.00     0.167 A 
ATOM     20  C   UNL     1      13.445 -24.400 -41.569  1.00  0.00     0.138 A 
ATOM     21  N   UNL     1      15.584 -23.932 -40.001  1.00  0.00    -0.193 NA
ATOM     22  N   UNL     1      13.309 -24.510 -40.245  1.00  0.00    -0.196 NA
ATOM     23  C   UNL     1      14.401 -24.290 -39.517  1.00  0.00     0.224 A 
BRANCH  20  24
ATOM     24  N   UNL     1      12.282 -24.650 -42.308  1.00  0.00    -0.383 N 
ATOM     25  H   UNL     1      12.560 -24.741 -43.283  1.00  0.00     0.158 HD
ATOM     26  H   UNL     1      11.800 -25.480 -41.981  1.00  0.00     0.158 HD
ENDBRANCH  20  24
BRANCH  23  27
ATOM     27  N   UNL     1      14.280 -24.390 -38.147  1.00  0.00    -0.368 N 
ATOM     28  H   UNL     1      13.478 -24.949 -37.896  1.00  0.00     0.159 HD
ATOM     29  H   UNL     1      14.375 -23.479 -37.719  1.00  0.00     0.159 HD
ENDBRANCH  23  27
ENDBRANCH  12  14
ENDBRANCH   1  12
TORSDOF 7
ENDMDL
MODEL 7
REMARK VINA RESULT:    -6.723      0.981      3.212
REMARK INTER + INTRA:          -9.635
REMARK INTER:                  -8.999
REMARK INTRA:                  -0.636
REMARK UNBOUND:                -0.553
REMARK SMILES COc1cc(CN(C)c2cnc3nc(N)nc(N)c3c2)cc(OC)c1
REMARK SMILES IDX 6 1 5 2 3 3 4 4 25 5 22 6 21 7 2 8 1 9 23 10 24 11 7 12 8 13
REMARK SMILES IDX 9 14 10 15 20 16 11 17 19 18 12 19 17 20 13 21 16 22 14 23
REMARK SMILES IDX 18 24 15 27
REMARK H PARENT 18 25 18 26 15 28 15 29
ROOT
ATOM      1  C   UNL     1      12.321 -24.418 -43.431  1.00  0.00     0.152 C 
ENDROOT
BRANCH   1   2
ATOM      2  C   UNL     1      13.537 -24.207 -42.551  1.00  0.00    -0.021 A 
ATOM      3  C   UNL     1      15.813 -23.398 -42.262  1.00  0.00     0.122 A 
ATOM      4  C   UNL     1      14.690 -23.591 -43.068  1.00  0.00     0.052 A 
ATOM      5  C   UNL     1      15.783 -23.830 -40.934  1.00  0.00     0.092 A 
ATOM      6  C   UNL     1      14.653 -24.453 -40.403  1.00  0.00     0.122 A 
ATOM      7  C   UNL     1      13.530 -24.629 -41.209  1.00  0.00     0.052 A 
BRANCH   3   8
ATOM      8  O   UNL     1      16.987 -22.811 -42.647  1.00  0.00    -0.497 OA
ATOM      9  C   UNL     1      17.951 -23.642 -43.278  1.00  0.00     0.278 C 
ENDBRANCH   3   8
BRANCH   6  10
ATOM     10  O   UNL     1      14.766 -24.835 -39.095  1.00  0.00    -0.497 OA
ATOM     11  C   UNL     1      13.778 -24.343 -38.197  1.00  0.00     0.278 C 
ENDBRANCH   6  10
ENDBRANCH   1   2
BRANCH   1  12
ATOM     12  N   UNL     1      12.672 -24.978 -44.747  1.00  0.00    -0.369 N 
ATOM     13  C   UNL     1      12.561 -26.433 -44.870  1.00  0.00     0.144 C 
BRANCH  12  14
ATOM     14  C   UNL     1      12.479 -24.195 -45.882  1.00  0.00     0.056 A 
ATOM     15  C   UNL     1      11.260 -24.048 -46.541  1.00  0.00     0.139 A 
ATOM     16  C   UNL     1      13.527 -23.498 -46.479  1.00  0.00     0.043 A 
ATOM     17  N   UNL     1      11.040 -23.291 -47.648  1.00  0.00    -0.234 NA
ATOM     18  C   UNL     1      13.326 -22.701 -47.634  1.00  0.00     0.064 A 
ATOM     19  C   UNL     1      12.058 -22.631 -48.197  1.00  0.00     0.167 A 
ATOM     20  C   UNL     1      14.309 -21.960 -48.287  1.00  0.00     0.138 A 
ATOM     21  N   UNL     1      11.808 -21.914 -49.283  1.00  0.00    -0.193 NA
ATOM     22  N   UNL     1      14.069 -21.247 -49.389  1.00  0.00    -0.196 NA
ATOM     23  C   UNL     1      12.822 -21.274 -49.852  1.00  0.00     0.224 A 
BRANCH  20  24
ATOM     24  N   UNL     1      15.633 -21.921 -47.832  1.00  0.00    -0.383 N 
ATOM     25  H   UNL     1      15.774 -22.742 -47.247  1.00  0.00     0.158 HD
ATOM     26  H   UNL     1      16.294 -21.894 -48.599  1.00  0.00     0.158 HD
ENDBRANCH  20  24
BRANCH  23  27
ATOM     27  N   UNL     1      12.550 -20.537 -50.986  1.00  0.00    -0.368 N 
ATOM     28  H   UNL     1      12.459 -21.136 -51.792  1.00  0.00     0.159 HD
ATOM     29  H   UNL     1      13.180 -19.748 -51.050  1.00  0.00     0.159 HD
ENDBRANCH  23  27
ENDBRANCH  12  14
ENDBRANCH   1  12
TORSDOF 7
ENDMDL
MODEL 8
REMARK VINA RESULT:    -6.647      2.639      4.347
REMARK INTER + INTRA:          -9.531
REMARK INTER:                  -8.961
REMARK INTRA:                  -0.570
REMARK UNBOUND:                -0.553
REMARK SMILES COc1cc(CN(C)c2cnc3nc(N)nc(N)c3c2)cc(OC)c1
REMARK SMILES IDX 6 1 5 2 3 3 4 4 25 5 22 6 21 7 2 8 1 9 23 10 24 11 7 12 8 13
REMARK SMILES IDX 9 14 10 15 20 16 11 17 19 18 12 19 17 20 13 21 16 22 14 23
REMARK SMILES IDX 18 24 15 27
REMARK H PARENT 18 25 18 26 15 28 15 29
ROOT
ATOM      1  C   UNL     1      14.096 -23.119 -47.286  1.00  0.00     0.152 C 
ENDROOT
BRANCH   1   2
ATOM      2  C   UNL     1      14.833 -22.940 -45.973  1.00  0.00    -0.021 A 
ATOM      3  C   UNL     1      14.948 -23.250 -43.563  1.00  0.00     0.122 A 
ATOM      4  C   UNL     1      14.275 -23.416 -44.775  1.00  0.00     0.052 A 
ATOM      5  C   UNL     1      16.183 -22.598 -43.552  1.00  0.00     0.092 A 
ATOM      6  C   UNL     1      16.751 -22.108 -44.729  1.00  0.00     0.122 A 
ATOM      7  C   UNL     1      16.081 -22.291 -45.937  1.00  0.00     0.052 A 
BRANCH   3   8
ATOM      8  O   UNL     1      14.511 -23.671 -42.337  1.00  0.00    -0.497 OA
ATOM      9  C   UNL     1      15.502 -24.027 -41.383  1.00  0.00     0.278 C 
ENDBRANCH   3   8
BRANCH   6  10
ATOM     10  O   UNL     1      17.957 -21.482 -44.570  1.00  0.00    -0.497 OA
ATOM     11  C   UNL     1      19.109 -22.315 -44.521  1.00  0.00     0.278 C 
ENDBRANCH   6  10
ENDBRANCH   1   2
BRANCH   1  12
ATOM     12  N   UNL     1      12.811 -22.400 -47.310  1.00  0.00    -0.369 N 
ATOM     13  C   UNL     1      12.873 -20.999 -47.730  1.00  0.00     0.144 C 
BRANCH  12  14
ATOM     14  C   UNL     1      11.645 -23.121 -47.556  1.00  0.00     0.056 A 
ATOM     15  C   UNL     1      11.194 -24.182 -46.775  1.00  0.00     0.139 A 
ATOM     16  C   UNL     1      10.829 -22.843 -48.651  1.00  0.00     0.043 A 
ATOM     17  N   UNL     1      10.062 -24.903 -46.988  1.00  0.00    -0.234 NA
ATOM     18  C   UNL     1       9.642 -23.578 -48.897  1.00  0.00     0.064 A 
ATOM     19  C   UNL     1       9.297 -24.615 -48.039  1.00  0.00     0.167 A 
ATOM     20  C   UNL     1       8.761 -23.362 -49.954  1.00  0.00     0.138 A 
ATOM     21  N   UNL     1       8.208 -25.347 -48.222  1.00  0.00    -0.193 NA
ATOM     22  N   UNL     1       7.670 -24.104 -50.154  1.00  0.00    -0.196 NA
ATOM     23  C   UNL     1       7.453 -25.085 -49.282  1.00  0.00     0.224 A 
BRANCH  20  24
ATOM     24  N   UNL     1       8.968 -22.345 -50.896  1.00  0.00    -0.383 N 
ATOM     25  H   UNL     1       9.932 -22.033 -50.794  1.00  0.00     0.158 HD
ATOM     26  H   UNL     1       8.778 -22.663 -51.840  1.00  0.00     0.158 HD
ENDBRANCH  20  24
BRANCH  23  27
ATOM     27  N   UNL     1       6.326 -25.859 -49.465  1.00  0.00    -0.368 N 
ATOM     28  H   UNL     1       6.077 -25.906 -50.441  1.00  0.00     0.159 HD
ATOM     29  H   UNL     1       5.609 -25.594 -48.804  1.00  0.00     0.159 HD
ENDBRANCH  23  27
ENDBRANCH  12  14
ENDBRANCH   1  12
TORSDOF 7
ENDMDL
MODEL 9
REMARK VINA RESULT:    -6.632      3.948      7.883
REMARK INTER + INTRA:          -9.512
REMARK INTER:                  -8.802
REMARK INTRA:                  -0.710
REMARK UNBOUND:                -0.553
REMARK SMILES COc1cc(CN(C)c2cnc3nc(N)nc(N)c3c2)cc(OC)c1
REMARK SMILES IDX 6 1 5 2 3 3 4 4 25 5 22 6 21 7 2 8 1 9 23 10 24 11 7 12 8 13
REMARK SMILES IDX 9 14 10 15 20 16 11 17 19 18 12 19 17 20 13 21 16 22 14 23
REMARK SMILES IDX 18 24 15 27
REMARK H PARENT 18 25 18 26 15 28 15 29
ROOT
ATOM      1  C   UNL     1      13.002 -21.923 -46.693  1.00  0.00     0.152 C 
ENDROOT
BRANCH   1   2
ATOM      2  C   UNL     1      12.082 -22.763 -47.558  1.00  0.00    -0.021 A 
ATOM      3  C   UNL     1      10.885 -24.843 -47.957  1.00  0.00     0.122 A 
ATOM      4  C   UNL     1      11.728 -24.065 -47.163  1.00  0.00     0.052 A 
ATOM      5  C   UNL     1      10.398 -24.316 -49.156  1.00  0.00     0.092 A 
ATOM      6  C   UNL     1      10.745 -23.030 -49.572  1.00  0.00     0.122 A 
ATOM      7  C   UNL     1      11.575 -22.253 -48.766  1.00  0.00     0.052 A 
BRANCH   3   8
ATOM      8  O   UNL     1      10.468 -26.115 -47.680  1.00  0.00    -0.497 OA
ATOM      9  C   UNL     1       9.746 -26.314 -46.473  1.00  0.00     0.278 C 
ENDBRANCH   3   8
BRANCH   6  10
ATOM     10  O   UNL     1      10.207 -22.646 -50.770  1.00  0.00    -0.497 OA
ATOM     11  C   UNL     1       8.831 -22.943 -50.979  1.00  0.00     0.278 C 
ENDBRANCH   6  10
ENDBRANCH   1   2
BRANCH   1  12
ATOM     12  N   UNL     1      14.325 -22.545 -46.514  1.00  0.00    -0.369 N 
ATOM     13  C   UNL     1      15.291 -22.304 -47.587  1.00  0.00     0.144 C 
BRANCH  12  14
ATOM     14  C   UNL     1      14.799 -22.751 -45.221  1.00  0.00     0.056 A 
ATOM     15  C   UNL     1      16.053 -22.348 -44.767  1.00  0.00     0.139 A 
ATOM     16  C   UNL     1      14.043 -23.421 -44.261  1.00  0.00     0.043 A 
ATOM     17  N   UNL     1      16.543 -22.533 -43.513  1.00  0.00    -0.234 NA
ATOM     18  C   UNL     1      14.529 -23.629 -42.946  1.00  0.00     0.064 A 
ATOM     19  C   UNL     1      15.799 -23.173 -42.613  1.00  0.00     0.167 A 
ATOM     20  C   UNL     1      13.839 -24.272 -41.921  1.00  0.00     0.138 A 
ATOM     21  N   UNL     1      16.315 -23.347 -41.405  1.00  0.00    -0.193 NA
ATOM     22  N   UNL     1      14.358 -24.464 -40.705  1.00  0.00    -0.196 NA
ATOM     23  C   UNL     1      15.591 -24.007 -40.509  1.00  0.00     0.224 A 
BRANCH  20  24
ATOM     24  N   UNL     1      12.545 -24.775 -42.100  1.00  0.00    -0.383 N 
ATOM     25  H   UNL     1      12.538 -25.278 -42.985  1.00  0.00     0.158 HD
ATOM     26  H   UNL     1      12.264 -25.374 -41.331  1.00  0.00     0.158 HD
ENDBRANCH  20  24
BRANCH  23  27
ATOM     27  N   UNL     1      16.142 -24.187 -39.257  1.00  0.00    -0.368 N 
ATOM     28  H   UNL     1      15.683 -23.604 -38.574  1.00  0.00     0.159 HD
ATOM     29  H   UNL     1      17.152 -24.151 -39.311  1.00  0.00     0.159 HD
ENDBRANCH  23  27
ENDBRANCH  12  14
ENDBRANCH   1  12
TORSDOF 7
ENDMDL
