MODEL 1
REMARK VINA RESULT:    -7.183      0.000      0.000
REMARK INTER + INTRA:          -8.975
REMARK INTER:                  -8.443
REMARK INTRA:                  -0.533
REMARK UNBOUND:                -0.533
REMARK SMILES Cc1[nH]c2nc(N)nc(O)c2c1Sc1ccc(Cl)cc1
REMARK SMILES IDX 1 1 2 2 3 3 4 4 5 5 6 6 8 7 9 8 11 9 12 10 13 12 14 13 15 14
REMARK SMILES IDX 20 15 16 16 19 17 17 18 18 19 10 20 7 22
REMARK H PARENT 3 11 10 21 7 23 7 24
ROOT
ATOM      1  C   UNL     1      13.595 -22.970 -45.116  1.00  0.00     0.065 C 
ATOM      2  C   UNL     1      15.027 -23.028 -44.722  1.00  0.00     0.028 A 
ATOM      3  N   UNL     1      15.911 -22.030 -45.068  1.00  0.00    -0.342 N 
ATOM      4  C   UNL     1      17.155 -22.318 -44.581  1.00  0.00     0.148 A 
ATOM      5  N   UNL     1      18.235 -21.544 -44.744  1.00  0.00    -0.195 NA
ATOM      6  C   UNL     1      19.331 -22.062 -44.173  1.00  0.00     0.225 A 
ATOM      7  N   UNL     1      19.404 -23.195 -43.465  1.00  0.00    -0.177 NA
ATOM      8  C   UNL     1      18.289 -23.934 -43.325  1.00  0.00     0.226 A 
ATOM      9  C   UNL     1      17.090 -23.522 -43.900  1.00  0.00     0.095 A 
ATOM     10  C   UNL     1      15.747 -23.972 -44.010  1.00  0.00     0.048 A 
ATOM     11  H   UNL     1      15.699 -21.196 -45.597  1.00  0.00     0.168 HD
ENDROOT
BRANCH  10  12
ATOM     12  S   UNL     1      15.099 -25.454 -43.341  1.00  0.00    -0.087 SA
BRANCH  12  13
ATOM     13  C   UNL     1      14.655 -24.987 -41.674  1.00  0.00     0.012 A 
ATOM     14  C   UNL     1      15.647 -25.007 -40.686  1.00  0.00     0.017 A 
ATOM     15  C   UNL     1      13.360 -24.577 -41.333  1.00  0.00     0.017 A 
ATOM     16  C   UNL     1      15.343 -24.645 -39.369  1.00  0.00     0.021 A 
ATOM     17  C   UNL     1      13.055 -24.215 -40.017  1.00  0.00     0.021 A 
ATOM     18  C   UNL     1      14.048 -24.253 -39.040  1.00  0.00     0.041 A 
ATOM     19  Cl  UNL     1      13.674 -23.803 -37.423  1.00  0.00    -0.084 Cl
ENDBRANCH  12  13
ENDBRANCH  10  12
BRANCH   8  20
ATOM     20  O   UNL     1      18.421 -25.076 -42.576  1.00  0.00    -0.493 OA
ATOM     21  H   UNL     1      17.530 -25.296 -42.260  1.00  0.00     0.295 HD
ENDBRANCH   8  20
BRANCH   6  22
ATOM     22  N   UNL     1      20.498 -21.328 -44.280  1.00  0.00    -0.368 N 
ATOM     23  H   UNL     1      20.955 -21.534 -45.156  1.00  0.00     0.159 HD
ATOM     24  H   UNL     1      20.297 -20.358 -44.075  1.00  0.00     0.159 HD
ENDBRANCH   6  22
TORSDOF 4
ENDMDL
MODEL 2
REMARK VINA RESULT:    -6.639      2.801      4.081
REMARK INTER + INTRA:          -8.336
REMARK INTER:                  -7.795
REMARK INTRA:                  -0.540
REMARK UNBOUND:                -0.533
REMARK SMILES Cc1[nH]c2nc(N)nc(O)c2c1Sc1ccc(Cl)cc1
REMARK SMILES IDX 1 1 2 2 3 3 4 4 5 5 6 6 8 7 9 8 11 9 12 10 13 12 14 13 15 14
REMARK SMILES IDX 20 15 16 16 19 17 17 18 18 19 10 20 7 22
REMARK H PARENT 3 11 10 21 7 23 7 24
ROOT
ATOM      1  C   UNL     1      17.166 -25.609 -44.530  1.00  0.00     0.065 C 
ATOM      2  C   UNL     1      15.972 -24.806 -44.902  1.00  0.00     0.028 A 
ATOM      3  N   UNL     1      16.082 -23.649 -45.641  1.00  0.00    -0.342 N 
ATOM      4  C   UNL     1      14.843 -23.110 -45.851  1.00  0.00     0.148 A 
ATOM      5  N   UNL     1      14.609 -21.985 -46.539  1.00  0.00    -0.195 NA
ATOM      6  C   UNL     1      13.307 -21.673 -46.589  1.00  0.00     0.225 A 
ATOM      7  N   UNL     1      12.295 -22.384 -46.075  1.00  0.00    -0.177 NA
ATOM      8  C   UNL     1      12.583 -23.510 -45.400  1.00  0.00     0.226 A 
ATOM      9  C   UNL     1      13.902 -23.926 -45.246  1.00  0.00     0.095 A 
ATOM     10  C   UNL     1      14.625 -24.985 -44.634  1.00  0.00     0.048 A 
ATOM     11  H   UNL     1      16.935 -23.239 -45.992  1.00  0.00     0.168 HD
ENDROOT
BRANCH  10  12
ATOM     12  S   UNL     1      13.937 -26.306 -43.715  1.00  0.00    -0.087 SA
BRANCH  12  13
ATOM     13  C   UNL     1      13.874 -25.655 -42.052  1.00  0.00     0.012 A 
ATOM     14  C   UNL     1      14.631 -26.284 -41.056  1.00  0.00     0.017 A 
ATOM     15  C   UNL     1      13.116 -24.524 -41.721  1.00  0.00     0.017 A 
ATOM     16  C   UNL     1      14.613 -25.804 -39.743  1.00  0.00     0.021 A 
ATOM     17  C   UNL     1      13.098 -24.043 -40.408  1.00  0.00     0.021 A 
ATOM     18  C   UNL     1      13.845 -24.687 -39.425  1.00  0.00     0.041 A 
ATOM     19  Cl  UNL     1      13.826 -24.092 -37.810  1.00  0.00    -0.084 Cl
ENDBRANCH  12  13
ENDBRANCH  10  12
BRANCH   8  20
ATOM     20  O   UNL     1      11.505 -24.204 -44.911  1.00  0.00    -0.493 OA
ATOM     21  H   UNL     1      11.386 -24.968 -45.497  1.00  0.00     0.295 HD
ENDBRANCH   8  20
BRANCH   6  22
ATOM     22  N   UNL     1      12.964 -20.530 -47.286  1.00  0.00    -0.368 N 
ATOM     23  H   UNL     1      12.042 -20.633 -47.682  1.00  0.00     0.159 HD
ATOM     24  H   UNL     1      13.133 -19.724 -46.699  1.00  0.00     0.159 HD
ENDBRANCH   6  22
TORSDOF 4
ENDMDL
MODEL 3
REMARK VINA RESULT:    -6.617      5.264      6.970
REMARK INTER + INTRA:          -8.310
REMARK INTER:                  -7.906
REMARK INTRA:                  -0.404
REMARK UNBOUND:                -0.533
REMARK SMILES Cc1[nH]c2nc(N)nc(O)c2c1Sc1ccc(Cl)cc1
REMARK SMILES IDX 1 1 2 2 3 3 4 4 5 5 6 6 8 7 9 8 11 9 12 10 13 12 14 13 15 14
REMARK SMILES IDX 20 15 16 16 19 17 17 18 18 19 10 20 7 22
REMARK H PARENT 3 11 10 21 7 23 7 24
ROOT
ATOM      1  C   UNL     1      11.536 -25.716 -47.893  1.00  0.00     0.065 C 
ATOM      2  C   UNL     1      11.903 -24.315 -48.221  1.00  0.00     0.028 A 
ATOM      3  N   UNL     1      11.900 -23.853 -49.519  1.00  0.00    -0.342 N 
ATOM      4  C   UNL     1      12.267 -22.536 -49.547  1.00  0.00     0.148 A 
ATOM      5  N   UNL     1      12.358 -21.795 -50.659  1.00  0.00    -0.195 NA
ATOM      6  C   UNL     1      12.745 -20.537 -50.409  1.00  0.00     0.225 A 
ATOM      7  N   UNL     1      12.985 -19.999 -49.206  1.00  0.00    -0.177 NA
ATOM      8  C   UNL     1      12.872 -20.784 -48.121  1.00  0.00     0.226 A 
ATOM      9  C   UNL     1      12.510 -22.122 -48.249  1.00  0.00     0.095 A 
ATOM     10  C   UNL     1      12.295 -23.256 -47.420  1.00  0.00     0.048 A 
ATOM     11  H   UNL     1      11.664 -24.384 -50.345  1.00  0.00     0.168 HD
ENDROOT
BRANCH  10  12
ATOM     12  S   UNL     1      12.472 -23.308 -45.679  1.00  0.00    -0.087 SA
BRANCH  12  13
ATOM     13  C   UNL     1      14.222 -23.032 -45.441  1.00  0.00     0.012 A 
ATOM     14  C   UNL     1      14.672 -22.632 -44.177  1.00  0.00     0.017 A 
ATOM     15  C   UNL     1      15.155 -23.230 -46.466  1.00  0.00     0.017 A 
ATOM     16  C   UNL     1      16.033 -22.409 -43.947  1.00  0.00     0.021 A 
ATOM     17  C   UNL     1      16.517 -23.007 -46.237  1.00  0.00     0.021 A 
ATOM     18  C   UNL     1      16.949 -22.596 -44.979  1.00  0.00     0.041 A 
ATOM     19  Cl  UNL     1      18.625 -22.327 -44.696  1.00  0.00    -0.084 Cl
ENDBRANCH  12  13
ENDBRANCH  10  12
BRANCH   8  20
ATOM     20  O   UNL     1      13.114 -20.174 -46.916  1.00  0.00    -0.493 OA
ATOM     21  H   UNL     1      13.210 -20.887 -46.266  1.00  0.00     0.295 HD
ENDBRANCH   8  20
BRANCH   6  22
ATOM     22  N   UNL     1      12.860 -19.690 -51.495  1.00  0.00    -0.368 N 
ATOM     23  H   UNL     1      12.886 -20.227 -52.349  1.00  0.00     0.159 HD
ATOM     24  H   UNL     1      12.160 -18.964 -51.422  1.00  0.00     0.159 HD
ENDBRANCH   6  22
TORSDOF 4
ENDMDL
MODEL 4
REMARK VINA RESULT:    -6.579      4.353      5.985
REMARK INTER + INTRA:          -8.265
REMARK INTER:                  -7.911
REMARK INTRA:                  -0.354
REMARK UNBOUND:                -0.533
REMARK SMILES Cc1[nH]c2nc(N)nc(O)c2c1Sc1ccc(Cl)cc1
REMARK SMILES IDX 1 1 2 2 3 3 4 4 5 5 6 6 8 7 9 8 11 9 12 10 13 12 14 13 15 14
REMARK SMILES IDX 20 15 16 16 19 17 17 18 18 19 10 20 7 22
REMARK H PARENT 3 11 10 21 7 23 7 24
ROOT
ATOM      1  C   UNL     1      14.610 -25.981 -46.420  1.00  0.00     0.065 C 
ATOM      2  C   UNL     1      13.898 -24.812 -46.999  1.00  0.00     0.028 A 
ATOM      3  N   UNL     1      12.944 -24.962 -47.981  1.00  0.00    -0.342 N 
ATOM      4  C   UNL     1      12.440 -23.741 -48.333  1.00  0.00     0.148 A 
ATOM      5  N   UNL     1      11.492 -23.547 -49.259  1.00  0.00    -0.195 NA
ATOM      6  C   UNL     1      11.184 -22.253 -49.417  1.00  0.00     0.225 A 
ATOM      7  N   UNL     1      11.690 -21.221 -48.729  1.00  0.00    -0.177 NA
ATOM      8  C   UNL     1      12.633 -21.471 -47.805  1.00  0.00     0.226 A 
ATOM      9  C   UNL     1      13.068 -22.772 -47.569  1.00  0.00     0.095 A 
ATOM     10  C   UNL     1      14.000 -23.455 -46.742  1.00  0.00     0.048 A 
ATOM     11  H   UNL     1      12.639 -25.832 -48.394  1.00  0.00     0.168 HD
ENDROOT
BRANCH  10  12
ATOM     12  S   UNL     1      15.079 -22.717 -45.579  1.00  0.00    -0.087 SA
BRANCH  12  13
ATOM     13  C   UNL     1      14.500 -23.368 -44.019  1.00  0.00     0.012 A 
ATOM     14  C   UNL     1      15.409 -23.481 -42.960  1.00  0.00     0.017 A 
ATOM     15  C   UNL     1      13.166 -23.742 -43.814  1.00  0.00     0.017 A 
ATOM     16  C   UNL     1      14.996 -23.982 -41.721  1.00  0.00     0.021 A 
ATOM     17  C   UNL     1      12.752 -24.243 -42.576  1.00  0.00     0.021 A 
ATOM     18  C   UNL     1      13.670 -24.362 -41.536  1.00  0.00     0.041 A 
ATOM     19  Cl  UNL     1      13.159 -24.975 -40.011  1.00  0.00    -0.084 Cl
ENDBRANCH  12  13
ENDBRANCH  10  12
BRANCH   8  20
ATOM     20  O   UNL     1      13.102 -20.377 -47.121  1.00  0.00    -0.493 OA
ATOM     21  H   UNL     1      14.039 -20.553 -46.938  1.00  0.00     0.295 HD
ENDBRANCH   8  20
BRANCH   6  22
ATOM     22  N   UNL     1      10.207 -21.951 -50.347  1.00  0.00    -0.368 N 
ATOM     23  H   UNL     1      10.548 -22.141 -51.277  1.00  0.00     0.159 HD
ATOM     24  H   UNL     1       9.340 -22.392 -50.068  1.00  0.00     0.159 HD
ENDBRANCH   6  22
TORSDOF 4
ENDMDL
MODEL 5
REMARK VINA RESULT:    -6.392      2.750      4.616
REMARK INTER + INTRA:          -8.046
REMARK INTER:                  -7.526
REMARK INTRA:                  -0.520
REMARK UNBOUND:                -0.533
REMARK SMILES Cc1[nH]c2nc(N)nc(O)c2c1Sc1ccc(Cl)cc1
REMARK SMILES IDX 1 1 2 2 3 3 4 4 5 5 6 6 8 7 9 8 11 9 12 10 13 12 14 13 15 14
REMARK SMILES IDX 20 15 16 16 19 17 17 18 18 19 10 20 7 22
REMARK H PARENT 3 11 10 21 7 23 7 24
ROOT
ATOM      1  C   UNL     1      16.695 -22.590 -44.150  1.00  0.00     0.065 C 
ATOM      2  C   UNL     1      15.465 -22.908 -44.920  1.00  0.00     0.028 A 
ATOM      3  N   UNL     1      14.877 -21.983 -45.755  1.00  0.00    -0.342 N 
ATOM      4  C   UNL     1      13.771 -22.525 -46.347  1.00  0.00     0.148 A 
ATOM      5  N   UNL     1      12.980 -21.883 -47.217  1.00  0.00    -0.195 NA
ATOM      6  C   UNL     1      11.959 -22.639 -47.641  1.00  0.00     0.225 A 
ATOM      7  N   UNL     1      11.721 -23.916 -47.314  1.00  0.00    -0.177 NA
ATOM      8  C   UNL     1      12.549 -24.518 -46.443  1.00  0.00     0.226 A 
ATOM      9  C   UNL     1      13.629 -23.828 -45.900  1.00  0.00     0.095 A 
ATOM     10  C   UNL     1      14.693 -24.055 -44.986  1.00  0.00     0.048 A 
ATOM     11  H   UNL     1      15.196 -21.040 -45.927  1.00  0.00     0.168 HD
ENDROOT
BRANCH  10  12
ATOM     12  S   UNL     1      14.996 -25.538 -44.106  1.00  0.00    -0.087 SA
BRANCH  12  13
ATOM     13  C   UNL     1      14.626 -25.090 -42.417  1.00  0.00     0.012 A 
ATOM     14  C   UNL     1      15.672 -25.063 -41.486  1.00  0.00     0.017 A 
ATOM     15  C   UNL     1      13.335 -24.740 -42.002  1.00  0.00     0.017 A 
ATOM     16  C   UNL     1      15.427 -24.713 -40.154  1.00  0.00     0.021 A 
ATOM     17  C   UNL     1      13.088 -24.391 -40.670  1.00  0.00     0.021 A 
ATOM     18  C   UNL     1      14.136 -24.381 -39.752  1.00  0.00     0.041 A 
ATOM     19  Cl  UNL     1      13.833 -23.947 -38.115  1.00  0.00    -0.084 Cl
ENDBRANCH  12  13
ENDBRANCH  10  12
BRANCH   8  20
ATOM     20  O   UNL     1      12.263 -25.829 -46.158  1.00  0.00    -0.493 OA
ATOM     21  H   UNL     1      11.411 -25.826 -45.694  1.00  0.00     0.295 HD
ENDBRANCH   8  20
BRANCH   6  22
ATOM     22  N   UNL     1      11.091 -22.065 -48.550  1.00  0.00    -0.368 N 
ATOM     23  H   UNL     1      11.611 -21.659 -49.314  1.00  0.00     0.159 HD
ATOM     24  H   UNL     1      10.367 -22.733 -48.781  1.00  0.00     0.159 HD
ENDBRANCH   6  22
TORSDOF 4
ENDMDL
MODEL 6
REMARK VINA RESULT:    -6.379      4.526      6.338
REMARK INTER + INTRA:          -8.031
REMARK INTER:                  -7.514
REMARK INTRA:                  -0.517
REMARK UNBOUND:                -0.533
REMARK SMILES Cc1[nH]c2nc(N)nc(O)c2c1Sc1ccc(Cl)cc1
REMARK SMILES IDX 1 1 2 2 3 3 4 4 5 5 6 6 8 7 9 8 11 9 12 10 13 12 14 13 15 14
REMARK SMILES IDX 20 15 16 16 19 17 17 18 18 19 10 20 7 22
REMARK H PARENT 3 11 10 21 7 23 7 24
ROOT
ATOM      1  C   UNL     1      13.530 -25.988 -47.013  1.00  0.00     0.065 C 
ATOM      2  C   UNL     1      14.504 -25.242 -46.175  1.00  0.00     0.028 A 
ATOM      3  N   UNL     1      15.757 -25.746 -45.903  1.00  0.00    -0.342 N 
ATOM      4  C   UNL     1      16.455 -24.867 -45.123  1.00  0.00     0.148 A 
ATOM      5  N   UNL     1      17.706 -25.063 -44.687  1.00  0.00    -0.195 NA
ATOM      6  C   UNL     1      18.154 -24.050 -43.933  1.00  0.00     0.225 A 
ATOM      7  N   UNL     1      17.499 -22.919 -43.644  1.00  0.00    -0.177 NA
ATOM      8  C   UNL     1      16.247 -22.768 -44.111  1.00  0.00     0.226 A 
ATOM      9  C   UNL     1      15.653 -23.765 -44.880  1.00  0.00     0.095 A 
ATOM     10  C   UNL     1      14.417 -24.018 -45.533  1.00  0.00     0.048 A 
ATOM     11  H   UNL     1      16.132 -26.628 -46.222  1.00  0.00     0.168 HD
ENDROOT
BRANCH  10  12
ATOM     12  S   UNL     1      13.024 -22.957 -45.549  1.00  0.00    -0.087 SA
BRANCH  12  13
ATOM     13  C   UNL     1      13.096 -22.218 -47.174  1.00  0.00     0.012 A 
ATOM     14  C   UNL     1      14.350 -21.905 -47.714  1.00  0.00     0.017 A 
ATOM     15  C   UNL     1      11.945 -21.967 -47.932  1.00  0.00     0.017 A 
ATOM     16  C   UNL     1      14.451 -21.329 -48.984  1.00  0.00     0.021 A 
ATOM     17  C   UNL     1      12.045 -21.390 -49.202  1.00  0.00     0.021 A 
ATOM     18  C   UNL     1      13.298 -21.072 -49.721  1.00  0.00     0.041 A 
ATOM     19  Cl  UNL     1      13.421 -20.367 -51.286  1.00  0.00    -0.084 Cl
ENDBRANCH  12  13
ENDBRANCH  10  12
BRANCH   8  20
ATOM     20  O   UNL     1      15.632 -21.582 -43.797  1.00  0.00    -0.493 OA
ATOM     21  H   UNL     1      16.184 -21.164 -43.117  1.00  0.00     0.295 HD
ENDBRANCH   8  20
BRANCH   6  22
ATOM     22  N   UNL     1      19.442 -24.157 -43.444  1.00  0.00    -0.368 N 
ATOM     23  H   UNL     1      19.863 -25.015 -43.766  1.00  0.00     0.159 HD
ATOM     24  H   UNL     1      19.938 -23.295 -43.631  1.00  0.00     0.159 HD
ENDBRANCH   6  22
TORSDOF 4
ENDMDL
MODEL 7
REMARK VINA RESULT:    -6.357     24.485     26.148
REMARK INTER + INTRA:          -8.004
REMARK INTER:                  -7.421
REMARK INTRA:                  -0.584
REMARK UNBOUND:                -0.533
REMARK SMILES Cc1[nH]c2nc(N)nc(O)c2c1Sc1ccc(Cl)cc1
REMARK SMILES IDX 1 1 2 2 3 3 4 4 5 5 6 6 8 7 9 8 11 9 12 10 13 12 14 13 15 14
REMARK SMILES IDX 20 15 16 16 19 17 17 18 18 19 10 20 7 22
REMARK H PARENT 3 11 10 21 7 23 7 24
ROOT
ATOM      1  C   UNL     1       0.407  -3.541 -30.838  1.00  0.00     0.065 C 
ATOM      2  C   UNL     1       0.654  -4.824 -31.544  1.00  0.00     0.028 A 
ATOM      3  N   UNL     1       0.018  -5.987 -31.170  1.00  0.00    -0.342 N 
ATOM      4  C   UNL     1       0.411  -7.016 -31.979  1.00  0.00     0.148 A 
ATOM      5  N   UNL     1      -0.028  -8.277 -31.876  1.00  0.00    -0.195 NA
ATOM      6  C   UNL     1       0.523  -9.091 -32.787  1.00  0.00     0.225 A 
ATOM      7  N   UNL     1       1.384  -8.744 -33.751  1.00  0.00    -0.177 NA
ATOM      8  C   UNL     1       1.789  -7.463 -33.816  1.00  0.00     0.226 A 
ATOM      9  C   UNL     1       1.317  -6.525 -32.903  1.00  0.00     0.095 A 
ATOM     10  C   UNL     1       1.478  -5.143 -32.610  1.00  0.00     0.048 A 
ATOM     11  H   UNL     1      -0.648  -6.093 -30.418  1.00  0.00     0.168 HD
ENDROOT
BRANCH  10  12
ATOM     12  S   UNL     1       2.520  -4.024 -33.461  1.00  0.00    -0.087 SA
BRANCH  12  13
ATOM     13  C   UNL     1       1.428  -3.295 -34.674  1.00  0.00     0.012 A 
ATOM     14  C   UNL     1       1.115  -4.032 -35.822  1.00  0.00     0.017 A 
ATOM     15  C   UNL     1       0.858  -2.028 -34.499  1.00  0.00     0.017 A 
ATOM     16  C   UNL     1       0.261  -3.500 -36.795  1.00  0.00     0.021 A 
ATOM     17  C   UNL     1       0.005  -1.495 -35.471  1.00  0.00     0.021 A 
ATOM     18  C   UNL     1      -0.288  -2.234 -36.615  1.00  0.00     0.041 A 
ATOM     19  Cl  UNL     1      -1.342  -1.580 -37.808  1.00  0.00    -0.084 Cl
ENDBRANCH  12  13
ENDBRANCH  10  12
BRANCH   8  20
ATOM     20  O   UNL     1       2.660  -7.164 -34.833  1.00  0.00    -0.493 OA
ATOM     21  H   UNL     1       2.139  -7.191 -35.652  1.00  0.00     0.295 HD
ENDBRANCH   8  20
BRANCH   6  22
ATOM     22  N   UNL     1       0.123 -10.414 -32.767  1.00  0.00    -0.368 N 
ATOM     23  H   UNL     1      -0.717 -10.511 -32.217  1.00  0.00     0.159 HD
ATOM     24  H   UNL     1       0.104 -10.767 -33.715  1.00  0.00     0.159 HD
ENDBRANCH   6  22
TORSDOF 4
ENDMDL
MODEL 8
REMARK VINA RESULT:    -6.339      3.454      5.253
REMARK INTER + INTRA:          -7.983
REMARK INTER:                  -7.424
REMARK INTRA:                  -0.559
REMARK UNBOUND:                -0.533
REMARK SMILES Cc1[nH]c2nc(N)nc(O)c2c1Sc1ccc(Cl)cc1
REMARK SMILES IDX 1 1 2 2 3 3 4 4 5 5 6 6 8 7 9 8 11 9 12 10 13 12 14 13 15 14
REMARK SMILES IDX 20 15 16 16 19 17 17 18 18 19 10 20 7 22
REMARK H PARENT 3 11 10 21 7 23 7 24
ROOT
ATOM      1  C   UNL     1      13.456 -24.234 -41.492  1.00  0.00     0.065 C 
ATOM      2  C   UNL     1      14.594 -24.042 -42.427  1.00  0.00     0.028 A 
ATOM      3  N   UNL     1      15.729 -23.358 -42.051  1.00  0.00    -0.342 N 
ATOM      4  C   UNL     1      16.622 -23.330 -43.085  1.00  0.00     0.148 A 
ATOM      5  N   UNL     1      17.824 -22.742 -43.038  1.00  0.00    -0.195 NA
ATOM      6  C   UNL     1      18.498 -22.854 -44.191  1.00  0.00     0.225 A 
ATOM      7  N   UNL     1      18.098 -23.504 -45.290  1.00  0.00    -0.177 NA
ATOM      8  C   UNL     1      16.885 -24.083 -45.284  1.00  0.00     0.226 A 
ATOM      9  C   UNL     1      16.070 -24.009 -44.158  1.00  0.00     0.095 A 
ATOM     10  C   UNL     1      14.782 -24.441 -43.739  1.00  0.00     0.048 A 
ATOM     11  H   UNL     1      15.904 -22.933 -41.152  1.00  0.00     0.168 HD
ENDROOT
BRANCH  10  12
ATOM     12  S   UNL     1      13.634 -25.343 -44.704  1.00  0.00    -0.087 SA
BRANCH  12  13
ATOM     13  C   UNL     1      13.201 -24.191 -46.000  1.00  0.00     0.012 A 
ATOM     14  C   UNL     1      13.032 -24.678 -47.302  1.00  0.00     0.017 A 
ATOM     15  C   UNL     1      12.999 -22.828 -45.751  1.00  0.00     0.017 A 
ATOM     16  C   UNL     1      12.689 -23.812 -48.344  1.00  0.00     0.021 A 
ATOM     17  C   UNL     1      12.657 -21.960 -46.792  1.00  0.00     0.021 A 
ATOM     18  C   UNL     1      12.505 -22.456 -48.085  1.00  0.00     0.041 A 
ATOM     19  Cl  UNL     1      12.079 -21.389 -49.366  1.00  0.00    -0.084 Cl
ENDBRANCH  12  13
ENDBRANCH  10  12
BRANCH   8  20
ATOM     20  O   UNL     1      16.536 -24.748 -46.433  1.00  0.00    -0.493 OA
ATOM     21  H   UNL     1      17.082 -24.370 -47.141  1.00  0.00     0.295 HD
ENDBRANCH   8  20
BRANCH   6  22
ATOM     22  N   UNL     1      19.757 -22.285 -44.236  1.00  0.00    -0.368 N 
ATOM     23  H   UNL     1      20.320 -22.751 -44.932  1.00  0.00     0.159 HD
ATOM     24  H   UNL     1      19.662 -21.281 -44.309  1.00  0.00     0.159 HD
ENDBRANCH   6  22
TORSDOF 4
ENDMDL
MODEL 9
REMARK VINA RESULT:    -6.193      4.024      6.191
REMARK INTER + INTRA:          -7.812
REMARK INTER:                  -7.300
REMARK INTRA:                  -0.512
REMARK UNBOUND:                -0.533
REMARK SMILES Cc1[nH]c2nc(N)nc(O)c2c1Sc1ccc(Cl)cc1
REMARK SMILES IDX 1 1 2 2 3 3 4 4 5 5 6 6 8 7 9 8 11 9 12 10 13 12 14 13 15 14
REMARK SMILES IDX 20 15 16 16 19 17 17 18 18 19 10 20 7 22
REMARK H PARENT 3 11 10 21 7 23 7 24
ROOT
ATOM      1  C   UNL     1      17.679 -24.761 -44.314  1.00  0.00     0.065 C 
ATOM      2  C   UNL     1      16.594 -24.739 -43.300  1.00  0.00     0.028 A 
ATOM      3  N   UNL     1      16.826 -24.337 -42.003  1.00  0.00    -0.342 N 
ATOM      4  C   UNL     1      15.667 -24.402 -41.280  1.00  0.00     0.148 A 
ATOM      5  N   UNL     1      15.558 -24.073 -39.986  1.00  0.00    -0.195 NA
ATOM      6  C   UNL     1      14.314 -24.235 -39.517  1.00  0.00     0.225 A 
ATOM      7  N   UNL     1      13.242 -24.630 -40.215  1.00  0.00    -0.177 NA
ATOM      8  C   UNL     1      13.403 -24.941 -41.512  1.00  0.00     0.226 A 
ATOM      9  C   UNL     1      14.656 -24.849 -42.112  1.00  0.00     0.095 A 
ATOM     10  C   UNL     1      15.253 -25.076 -43.382  1.00  0.00     0.048 A 
ATOM     11  H   UNL     1      17.707 -24.031 -41.618  1.00  0.00     0.168 HD
ENDROOT
BRANCH  10  12
ATOM     12  S   UNL     1      14.436 -25.661 -44.815  1.00  0.00    -0.087 SA
BRANCH  12  13
ATOM     13  C   UNL     1      14.141 -24.167 -45.751  1.00  0.00     0.012 A 
ATOM     14  C   UNL     1      12.896 -23.537 -45.634  1.00  0.00     0.017 A 
ATOM     15  C   UNL     1      15.120 -23.595 -46.573  1.00  0.00     0.017 A 
ATOM     16  C   UNL     1      12.625 -22.365 -46.347  1.00  0.00     0.021 A 
ATOM     17  C   UNL     1      14.851 -22.423 -47.285  1.00  0.00     0.021 A 
ATOM     18  C   UNL     1      13.603 -21.814 -47.170  1.00  0.00     0.041 A 
ATOM     19  Cl  UNL     1      13.273 -20.369 -48.044  1.00  0.00    -0.084 Cl
ENDBRANCH  12  13
ENDBRANCH  10  12
BRANCH   8  20
ATOM     20  O   UNL     1      12.267 -25.323 -42.180  1.00  0.00    -0.493 OA
ATOM     21  H   UNL     1      12.152 -26.270 -41.997  1.00  0.00     0.295 HD
ENDBRANCH   8  20
BRANCH   6  22
ATOM     22  N   UNL     1      14.099 -23.913 -38.190  1.00  0.00    -0.368 N 
ATOM     23  H   UNL     1      14.982 -23.760 -37.726  1.00  0.00     0.159 HD
ATOM     24  H   UNL     1      13.410 -23.174 -38.138  1.00  0.00     0.159 HD
ENDBRANCH   6  22
TORSDOF 4
ENDMDL
