MODEL 1
REMARK VINA RESULT:    -8.479      0.000      0.000
REMARK INTER + INTRA:         -10.368
REMARK INTER:                  -9.966
REMARK INTRA:                  -0.401
REMARK UNBOUND:                -0.401
REMARK SMILES CN(c1ccc2ccccc2c1)c1ccc2nc(N)nc(N)c2n1
REMARK SMILES IDX 13 1 14 2 15 3 16 4 17 5 18 6 20 7 21 8 23 9 24 10 2 11 1 12
REMARK SMILES IDX 3 13 4 14 12 15 5 16 11 17 6 18 10 19 7 20 9 21 8 22 22 23
REMARK SMILES IDX 19 26
REMARK H PARENT 22 24 22 25 19 27 19 28
ROOT
ATOM      1  C   UNL     1      14.267 -23.884 -46.017  1.00  0.00     0.133 A 
ATOM      2  C   UNL     1      13.811 -24.998 -46.717  1.00  0.00     0.049 A 
ATOM      3  C   UNL     1      12.930 -24.828 -47.788  1.00  0.00     0.035 A 
ATOM      4  C   UNL     1      12.499 -23.567 -48.161  1.00  0.00     0.097 A 
ATOM      5  N   UNL     1      11.651 -23.426 -49.192  1.00  0.00    -0.211 NA
ATOM      6  C   UNL     1      11.285 -22.182 -49.506  1.00  0.00     0.222 A 
ATOM      7  N   UNL     1      11.668 -21.088 -48.852  1.00  0.00    -0.194 NA
ATOM      8  C   UNL     1      12.511 -21.263 -47.820  1.00  0.00     0.155 A 
ATOM      9  C   UNL     1      12.990 -22.506 -47.406  1.00  0.00     0.133 A 
ATOM     10  N   UNL     1      13.847 -22.648 -46.359  1.00  0.00    -0.225 NA
ENDROOT
BRANCH   1  11
ATOM     11  N   UNL     1      15.152 -24.049 -44.918  1.00  0.00    -0.329 N 
ATOM     12  C   UNL     1      16.427 -23.359 -45.146  1.00  0.00     0.152 C 
BRANCH  11  13
ATOM     13  C   UNL     1      14.704 -24.148 -43.573  1.00  0.00     0.043 A 
ATOM     14  C   UNL     1      13.324 -24.187 -43.305  1.00  0.00     0.027 A 
ATOM     15  C   UNL     1      15.565 -24.254 -42.466  1.00  0.00     0.035 A 
ATOM     16  C   UNL     1      12.823 -24.305 -42.004  1.00  0.00     0.011 A 
ATOM     17  C   UNL     1      15.083 -24.373 -41.144  1.00  0.00    -0.016 A 
ATOM     18  C   UNL     1      13.692 -24.398 -40.913  1.00  0.00    -0.018 A 
ATOM     19  C   UNL     1      15.957 -24.467 -40.049  1.00  0.00     0.009 A 
ATOM     20  C   UNL     1      13.210 -24.516 -39.599  1.00  0.00     0.009 A 
ATOM     21  C   UNL     1      15.466 -24.584 -38.747  1.00  0.00     0.001 A 
ATOM     22  C   UNL     1      14.093 -24.608 -38.522  1.00  0.00     0.001 A 
ENDBRANCH  11  13
ENDBRANCH   1  11
BRANCH   8  23
ATOM     23  N   UNL     1      12.933 -20.094 -47.126  1.00  0.00    -0.382 N 
ATOM     24  H   UNL     1      13.325 -19.465 -47.826  1.00  0.00     0.158 HD
ATOM     25  H   UNL     1      13.738 -20.362 -46.561  1.00  0.00     0.158 HD
ENDBRANCH   8  23
BRANCH   6  26
ATOM     26  N   UNL     1      10.411 -22.021 -50.559  1.00  0.00    -0.368 N 
ATOM     27  H   UNL     1       9.474 -22.270 -50.281  1.00  0.00     0.159 HD
ATOM     28  H   UNL     1      10.550 -21.111 -50.978  1.00  0.00     0.159 HD
ENDBRANCH   6  26
TORSDOF 4
ENDMDL
MODEL 2
REMARK VINA RESULT:    -8.471      1.424      2.024
REMARK INTER + INTRA:         -10.359
REMARK INTER:                  -9.861
REMARK INTRA:                  -0.497
REMARK UNBOUND:                -0.401
REMARK SMILES CN(c1ccc2ccccc2c1)c1ccc2nc(N)nc(N)c2n1
REMARK SMILES IDX 13 1 14 2 15 3 16 4 17 5 18 6 20 7 21 8 23 9 24 10 2 11 1 12
REMARK SMILES IDX 3 13 4 14 12 15 5 16 11 17 6 18 10 19 7 20 9 21 8 22 22 23
REMARK SMILES IDX 19 26
REMARK H PARENT 22 24 22 25 19 27 19 28
ROOT
ATOM      1  C   UNL     1      14.067 -23.890 -46.588  1.00  0.00     0.133 A 
ATOM      2  C   UNL     1      15.252 -23.211 -46.856  1.00  0.00     0.049 A 
ATOM      3  C   UNL     1      15.258 -22.176 -47.795  1.00  0.00     0.035 A 
ATOM      4  C   UNL     1      14.102 -21.818 -48.467  1.00  0.00     0.097 A 
ATOM      5  N   UNL     1      14.129 -20.822 -49.366  1.00  0.00    -0.211 NA
ATOM      6  C   UNL     1      12.977 -20.522 -49.969  1.00  0.00     0.222 A 
ATOM      7  N   UNL     1      11.826 -21.159 -49.770  1.00  0.00    -0.194 NA
ATOM      8  C   UNL     1      11.833 -22.156 -48.869  1.00  0.00     0.155 A 
ATOM      9  C   UNL     1      12.961 -22.551 -48.152  1.00  0.00     0.133 A 
ATOM     10  N   UNL     1      12.933 -23.563 -47.243  1.00  0.00    -0.225 NA
ENDROOT
BRANCH   1  11
ATOM     11  N   UNL     1      14.055 -24.953 -45.645  1.00  0.00    -0.329 N 
ATOM     12  C   UNL     1      14.913 -26.063 -46.074  1.00  0.00     0.152 C 
BRANCH  11  13
ATOM     13  C   UNL     1      13.923 -24.744 -44.246  1.00  0.00     0.043 A 
ATOM     14  C   UNL     1      12.642 -24.578 -43.690  1.00  0.00     0.027 A 
ATOM     15  C   UNL     1      15.007 -24.730 -43.350  1.00  0.00     0.035 A 
ATOM     16  C   UNL     1      12.448 -24.390 -42.317  1.00  0.00     0.011 A 
ATOM     17  C   UNL     1      14.836 -24.541 -41.962  1.00  0.00    -0.016 A 
ATOM     18  C   UNL     1      13.537 -24.368 -41.440  1.00  0.00    -0.018 A 
ATOM     19  C   UNL     1      15.930 -24.520 -41.082  1.00  0.00     0.009 A 
ATOM     20  C   UNL     1      13.363 -24.179 -40.060  1.00  0.00     0.009 A 
ATOM     21  C   UNL     1      15.746 -24.331 -39.711  1.00  0.00     0.001 A 
ATOM     22  C   UNL     1      14.463 -24.160 -39.200  1.00  0.00     0.001 A 
ENDBRANCH  11  13
ENDBRANCH   1  11
BRANCH   8  23
ATOM     23  N   UNL     1      10.600 -22.831 -48.645  1.00  0.00    -0.382 N 
ATOM     24  H   UNL     1      10.650 -23.709 -49.160  1.00  0.00     0.158 HD
ATOM     25  H   UNL     1       9.881 -22.301 -49.138  1.00  0.00     0.158 HD
ENDBRANCH   8  23
BRANCH   6  26
ATOM     26  N   UNL     1      12.990 -19.505 -50.898  1.00  0.00    -0.368 N 
ATOM     27  H   UNL     1      13.849 -19.522 -51.428  1.00  0.00     0.159 HD
ATOM     28  H   UNL     1      12.121 -19.507 -51.415  1.00  0.00     0.159 HD
ENDBRANCH   6  26
TORSDOF 4
ENDMDL
MODEL 3
REMARK VINA RESULT:    -7.793      1.278      2.455
REMARK INTER + INTRA:          -9.561
REMARK INTER:                  -9.257
REMARK INTRA:                  -0.304
REMARK UNBOUND:                -0.401
REMARK SMILES CN(c1ccc2ccccc2c1)c1ccc2nc(N)nc(N)c2n1
REMARK SMILES IDX 13 1 14 2 15 3 16 4 17 5 18 6 20 7 21 8 23 9 24 10 2 11 1 12
REMARK SMILES IDX 3 13 4 14 12 15 5 16 11 17 6 18 10 19 7 20 9 21 8 22 22 23
REMARK SMILES IDX 19 26
REMARK H PARENT 22 24 22 25 19 27 19 28
ROOT
ATOM      1  C   UNL     1      15.185 -23.520 -46.494  1.00  0.00     0.133 A 
ATOM      2  C   UNL     1      15.508 -22.362 -47.195  1.00  0.00     0.049 A 
ATOM      3  C   UNL     1      14.580 -21.807 -48.080  1.00  0.00     0.035 A 
ATOM      4  C   UNL     1      13.343 -22.395 -48.273  1.00  0.00     0.097 A 
ATOM      5  N   UNL     1      12.465 -21.848 -49.129  1.00  0.00    -0.211 NA
ATOM      6  C   UNL     1      11.287 -22.460 -49.260  1.00  0.00     0.222 A 
ATOM      7  N   UNL     1      10.940 -23.583 -48.637  1.00  0.00    -0.194 NA
ATOM      8  C   UNL     1      11.843 -24.112 -47.792  1.00  0.00     0.155 A 
ATOM      9  C   UNL     1      13.098 -23.557 -47.546  1.00  0.00     0.133 A 
ATOM     10  N   UNL     1      13.988 -24.115 -46.680  1.00  0.00    -0.225 NA
ENDROOT
BRANCH   1  11
ATOM     11  N   UNL     1      16.128 -24.099 -45.603  1.00  0.00    -0.329 N 
ATOM     12  C   UNL     1      17.503 -23.914 -46.081  1.00  0.00     0.152 C 
BRANCH  11  13
ATOM     13  C   UNL     1      15.935 -24.146 -44.196  1.00  0.00     0.043 A 
ATOM     14  C   UNL     1      17.052 -24.091 -43.344  1.00  0.00     0.027 A 
ATOM     15  C   UNL     1      14.672 -24.203 -43.580  1.00  0.00     0.035 A 
ATOM     16  C   UNL     1      16.924 -24.112 -41.951  1.00  0.00     0.011 A 
ATOM     17  C   UNL     1      14.518 -24.226 -42.177  1.00  0.00    -0.016 A 
ATOM     18  C   UNL     1      15.662 -24.181 -41.353  1.00  0.00    -0.018 A 
ATOM     19  C   UNL     1      13.250 -24.294 -41.577  1.00  0.00     0.009 A 
ATOM     20  C   UNL     1      15.513 -24.204 -39.957  1.00  0.00     0.009 A 
ATOM     21  C   UNL     1      13.114 -24.317 -40.188  1.00  0.00     0.001 A 
ATOM     22  C   UNL     1      14.244 -24.273 -39.378  1.00  0.00     0.001 A 
ENDBRANCH  11  13
ENDBRANCH   1  11
BRANCH   8  23
ATOM     23  N   UNL     1      11.470 -25.306 -47.115  1.00  0.00    -0.382 N 
ATOM     24  H   UNL     1      12.241 -25.962 -47.234  1.00  0.00     0.158 HD
ATOM     25  H   UNL     1      10.710 -25.725 -47.653  1.00  0.00     0.158 HD
ENDBRANCH   8  23
BRANCH   6  26
ATOM     26  N   UNL     1      10.378 -21.912 -50.138  1.00  0.00    -0.368 N 
ATOM     27  H   UNL     1       9.621 -22.557 -50.310  1.00  0.00     0.159 HD
ATOM     28  H   UNL     1      10.138 -20.977 -49.838  1.00  0.00     0.159 HD
ENDBRANCH   6  26
TORSDOF 4
ENDMDL
MODEL 4
REMARK VINA RESULT:    -7.792      2.663      8.031
REMARK INTER + INTRA:          -9.560
REMARK INTER:                  -9.071
REMARK INTRA:                  -0.489
REMARK UNBOUND:                -0.401
REMARK SMILES CN(c1ccc2ccccc2c1)c1ccc2nc(N)nc(N)c2n1
REMARK SMILES IDX 13 1 14 2 15 3 16 4 17 5 18 6 20 7 21 8 23 9 24 10 2 11 1 12
REMARK SMILES IDX 3 13 4 14 12 15 5 16 11 17 6 18 10 19 7 20 9 21 8 22 22 23
REMARK SMILES IDX 19 26
REMARK H PARENT 22 24 22 25 19 27 19 28
ROOT
ATOM      1  C   UNL     1      14.201 -24.775 -44.056  1.00  0.00     0.133 A 
ATOM      2  C   UNL     1      12.909 -24.402 -43.693  1.00  0.00     0.049 A 
ATOM      3  C   UNL     1      12.601 -24.200 -42.346  1.00  0.00     0.035 A 
ATOM      4  C   UNL     1      13.560 -24.370 -41.363  1.00  0.00     0.097 A 
ATOM      5  N   UNL     1      13.244 -24.173 -40.074  1.00  0.00    -0.211 NA
ATOM      6  C   UNL     1      14.219 -24.343 -39.180  1.00  0.00     0.222 A 
ATOM      7  N   UNL     1      15.459 -24.727 -39.471  1.00  0.00    -0.194 NA
ATOM      8  C   UNL     1      15.744 -24.923 -40.770  1.00  0.00     0.155 A 
ATOM      9  C   UNL     1      14.824 -24.754 -41.804  1.00  0.00     0.133 A 
ATOM     10  N   UNL     1      15.146 -24.957 -43.110  1.00  0.00    -0.225 NA
ENDROOT
BRANCH   1  11
ATOM     11  N   UNL     1      14.520 -24.995 -45.423  1.00  0.00    -0.329 N 
ATOM     12  C   UNL     1      14.239 -26.378 -45.824  1.00  0.00     0.152 C 
BRANCH  11  13
ATOM     13  C   UNL     1      14.380 -23.993 -46.421  1.00  0.00     0.043 A 
ATOM     14  C   UNL     1      15.407 -23.048 -46.598  1.00  0.00     0.027 A 
ATOM     15  C   UNL     1      13.280 -23.902 -47.292  1.00  0.00     0.035 A 
ATOM     16  C   UNL     1      15.336 -22.052 -47.578  1.00  0.00     0.011 A 
ATOM     17  C   UNL     1      13.186 -22.905 -48.286  1.00  0.00    -0.016 A 
ATOM     18  C   UNL     1      14.230 -21.968 -48.429  1.00  0.00    -0.018 A 
ATOM     19  C   UNL     1      12.075 -22.822 -49.142  1.00  0.00     0.009 A 
ATOM     20  C   UNL     1      14.140 -20.974 -49.418  1.00  0.00     0.009 A 
ATOM     21  C   UNL     1      11.996 -21.830 -50.120  1.00  0.00     0.001 A 
ATOM     22  C   UNL     1      13.027 -20.906 -50.258  1.00  0.00     0.001 A 
ENDBRANCH  11  13
ENDBRANCH   1  11
BRANCH   8  23
ATOM     23  N   UNL     1      17.073 -25.322 -41.085  1.00  0.00    -0.382 N 
ATOM     24  H   UNL     1      17.335 -24.820 -41.934  1.00  0.00     0.158 HD
ATOM     25  H   UNL     1      17.026 -26.296 -41.384  1.00  0.00     0.158 HD
ENDBRANCH   8  23
BRANCH   6  26
ATOM     26  N   UNL     1      13.907 -24.149 -37.852  1.00  0.00    -0.368 N 
ATOM     27  H   UNL     1      14.745 -24.141 -37.290  1.00  0.00     0.159 HD
ATOM     28  H   UNL     1      13.276 -23.365 -37.763  1.00  0.00     0.159 HD
ENDBRANCH   6  26
TORSDOF 4
ENDMDL
MODEL 5
REMARK VINA RESULT:    -7.618      1.537      2.465
REMARK INTER + INTRA:          -9.355
REMARK INTER:                  -9.074
REMARK INTRA:                  -0.282
REMARK UNBOUND:                -0.401
REMARK SMILES CN(c1ccc2ccccc2c1)c1ccc2nc(N)nc(N)c2n1
REMARK SMILES IDX 13 1 14 2 15 3 16 4 17 5 18 6 20 7 21 8 23 9 24 10 2 11 1 12
REMARK SMILES IDX 3 13 4 14 12 15 5 16 11 17 6 18 10 19 7 20 9 21 8 22 22 23
REMARK SMILES IDX 19 26
REMARK H PARENT 22 24 22 25 19 27 19 28
ROOT
ATOM      1  C   UNL     1      12.133 -23.662 -46.653  1.00  0.00     0.133 A 
ATOM      2  C   UNL     1      12.006 -24.392 -47.832  1.00  0.00     0.049 A 
ATOM      3  C   UNL     1      12.171 -23.752 -49.063  1.00  0.00     0.035 A 
ATOM      4  C   UNL     1      12.456 -22.399 -49.128  1.00  0.00     0.097 A 
ATOM      5  N   UNL     1      12.610 -21.802 -50.320  1.00  0.00    -0.211 NA
ATOM      6  C   UNL     1      12.894 -20.499 -50.311  1.00  0.00     0.222 A 
ATOM      7  N   UNL     1      12.996 -19.750 -49.215  1.00  0.00    -0.194 NA
ATOM      8  C   UNL     1      12.830 -20.375 -48.037  1.00  0.00     0.155 A 
ATOM      9  C   UNL     1      12.556 -21.736 -47.908  1.00  0.00     0.133 A 
ATOM     10  N   UNL     1      12.398 -22.339 -46.698  1.00  0.00    -0.225 NA
ENDROOT
BRANCH   1  11
ATOM     11  N   UNL     1      11.952 -24.302 -45.398  1.00  0.00    -0.329 N 
ATOM     12  C   UNL     1      11.215 -25.562 -45.537  1.00  0.00     0.152 C 
BRANCH  11  13
ATOM     13  C   UNL     1      12.906 -24.226 -44.347  1.00  0.00     0.043 A 
ATOM     14  C   UNL     1      14.243 -23.910 -44.649  1.00  0.00     0.027 A 
ATOM     15  C   UNL     1      12.592 -24.410 -42.988  1.00  0.00     0.035 A 
ATOM     16  C   UNL     1      15.222 -23.800 -43.656  1.00  0.00     0.011 A 
ATOM     17  C   UNL     1      13.563 -24.306 -41.969  1.00  0.00    -0.016 A 
ATOM     18  C   UNL     1      14.897 -23.997 -42.311  1.00  0.00    -0.018 A 
ATOM     19  C   UNL     1      13.235 -24.503 -40.618  1.00  0.00     0.009 A 
ATOM     20  C   UNL     1      15.865 -23.893 -41.299  1.00  0.00     0.009 A 
ATOM     21  C   UNL     1      14.206 -24.398 -39.621  1.00  0.00     0.001 A 
ATOM     22  C   UNL     1      15.521 -24.093 -39.961  1.00  0.00     0.001 A 
ENDBRANCH  11  13
ENDBRANCH   1  11
BRANCH   8  23
ATOM     23  N   UNL     1      12.952 -19.580 -46.863  1.00  0.00    -0.382 N 
ATOM     24  H   UNL     1      12.016 -19.499 -46.466  1.00  0.00     0.158 HD
ATOM     25  H   UNL     1      13.168 -18.632 -47.171  1.00  0.00     0.158 HD
ENDBRANCH   8  23
BRANCH   6  26
ATOM     26  N   UNL     1      13.050 -19.871 -51.527  1.00  0.00    -0.368 N 
ATOM     27  H   UNL     1      12.156 -19.568 -51.885  1.00  0.00     0.159 HD
ATOM     28  H   UNL     1      13.786 -19.182 -51.461  1.00  0.00     0.159 HD
ENDBRANCH   6  26
TORSDOF 4
ENDMDL
MODEL 6
REMARK VINA RESULT:    -7.501      2.769      7.659
REMARK INTER + INTRA:          -9.218
REMARK INTER:                  -9.206
REMARK INTRA:                  -0.012
REMARK UNBOUND:                -0.401
REMARK SMILES CN(c1ccc2ccccc2c1)c1ccc2nc(N)nc(N)c2n1
REMARK SMILES IDX 13 1 14 2 15 3 16 4 17 5 18 6 20 7 21 8 23 9 24 10 2 11 1 12
REMARK SMILES IDX 3 13 4 14 12 15 5 16 11 17 6 18 10 19 7 20 9 21 8 22 22 23
REMARK SMILES IDX 19 26
REMARK H PARENT 22 24 22 25 19 27 19 28
ROOT
ATOM      1  C   UNL     1      16.012 -23.501 -44.211  1.00  0.00     0.133 A 
ATOM      2  C   UNL     1      17.059 -23.358 -43.304  1.00  0.00     0.049 A 
ATOM      3  C   UNL     1      16.830 -23.574 -41.943  1.00  0.00     0.035 A 
ATOM      4  C   UNL     1      15.573 -23.926 -41.481  1.00  0.00     0.097 A 
ATOM      5  N   UNL     1      15.373 -24.127 -40.169  1.00  0.00    -0.211 NA
ATOM      6  C   UNL     1      14.141 -24.475 -39.793  1.00  0.00     0.222 A 
ATOM      7  N   UNL     1      13.101 -24.596 -40.614  1.00  0.00    -0.194 NA
ATOM      8  C   UNL     1      13.332 -24.380 -41.921  1.00  0.00     0.155 A 
ATOM      9  C   UNL     1      14.577 -24.038 -42.447  1.00  0.00     0.133 A 
ATOM     10  N   UNL     1      14.778 -23.831 -43.777  1.00  0.00    -0.225 NA
ENDROOT
BRANCH   1  11
ATOM     11  N   UNL     1      16.234 -23.270 -45.595  1.00  0.00    -0.329 N 
ATOM     12  C   UNL     1      17.493 -23.872 -46.047  1.00  0.00     0.152 C 
BRANCH  11  13
ATOM     13  C   UNL     1      15.179 -23.192 -46.544  1.00  0.00     0.043 A 
ATOM     14  C   UNL     1      14.252 -24.246 -46.634  1.00  0.00     0.027 A 
ATOM     15  C   UNL     1      14.969 -22.091 -47.394  1.00  0.00     0.035 A 
ATOM     16  C   UNL     1      13.181 -24.217 -47.534  1.00  0.00     0.011 A 
ATOM     17  C   UNL     1      13.896 -22.041 -48.310  1.00  0.00    -0.016 A 
ATOM     18  C   UNL     1      12.991 -23.120 -48.380  1.00  0.00    -0.018 A 
ATOM     19  C   UNL     1      13.706 -20.938 -49.160  1.00  0.00     0.009 A 
ATOM     20  C   UNL     1      11.924 -23.073 -49.291  1.00  0.00     0.009 A 
ATOM     21  C   UNL     1      12.642 -20.902 -50.061  1.00  0.00     0.001 A 
ATOM     22  C   UNL     1      11.751 -21.969 -50.128  1.00  0.00     0.001 A 
ENDBRANCH  11  13
ENDBRANCH   1  11
BRANCH   8  23
ATOM     23  N   UNL     1      12.224 -24.522 -42.803  1.00  0.00    -0.382 N 
ATOM     24  H   UNL     1      11.391 -24.283 -42.266  1.00  0.00     0.158 HD
ATOM     25  H   UNL     1      12.118 -25.520 -42.985  1.00  0.00     0.158 HD
ENDBRANCH   8  23
BRANCH   6  26
ATOM     26  N   UNL     1      13.919 -24.681 -38.449  1.00  0.00    -0.368 N 
ATOM     27  H   UNL     1      13.534 -25.600 -38.292  1.00  0.00     0.159 HD
ATOM     28  H   UNL     1      14.744 -24.422 -37.926  1.00  0.00     0.159 HD
ENDBRANCH   6  26
TORSDOF 4
ENDMDL
MODEL 7
REMARK VINA RESULT:    -6.922      2.388      4.386
REMARK INTER + INTRA:          -8.537
REMARK INTER:                  -8.358
REMARK INTRA:                  -0.179
REMARK UNBOUND:                -0.401
REMARK SMILES CN(c1ccc2ccccc2c1)c1ccc2nc(N)nc(N)c2n1
REMARK SMILES IDX 13 1 14 2 15 3 16 4 17 5 18 6 20 7 21 8 23 9 24 10 2 11 1 12
REMARK SMILES IDX 3 13 4 14 12 15 5 16 11 17 6 18 10 19 7 20 9 21 8 22 22 23
REMARK SMILES IDX 19 26
REMARK H PARENT 22 24 22 25 19 27 19 28
ROOT
ATOM      1  C   UNL     1      11.904 -23.042 -47.611  1.00  0.00     0.133 A 
ATOM      2  C   UNL     1      11.685 -24.091 -46.721  1.00  0.00     0.049 A 
ATOM      3  C   UNL     1      10.569 -24.915 -46.884  1.00  0.00     0.035 A 
ATOM      4  C   UNL     1       9.673 -24.701 -47.917  1.00  0.00     0.097 A 
ATOM      5  N   UNL     1       8.605 -25.503 -48.056  1.00  0.00    -0.211 NA
ATOM      6  C   UNL     1       7.789 -25.249 -49.080  1.00  0.00     0.222 A 
ATOM      7  N   UNL     1       7.936 -24.244 -49.939  1.00  0.00    -0.194 NA
ATOM      8  C   UNL     1       9.011 -23.454 -49.770  1.00  0.00     0.155 A 
ATOM      9  C   UNL     1       9.954 -23.628 -48.758  1.00  0.00     0.133 A 
ATOM     10  N   UNL     1      11.034 -22.812 -48.616  1.00  0.00    -0.225 NA
ENDROOT
BRANCH   1  11
ATOM     11  N   UNL     1      13.029 -22.191 -47.444  1.00  0.00    -0.329 N 
ATOM     12  C   UNL     1      12.647 -20.776 -47.505  1.00  0.00     0.152 C 
BRANCH  11  13
ATOM     13  C   UNL     1      14.135 -22.525 -46.616  1.00  0.00     0.043 A 
ATOM     14  C   UNL     1      15.407 -22.683 -47.194  1.00  0.00     0.027 A 
ATOM     15  C   UNL     1      14.053 -22.672 -45.220  1.00  0.00     0.035 A 
ATOM     16  C   UNL     1      16.537 -22.991 -46.429  1.00  0.00     0.011 A 
ATOM     17  C   UNL     1      15.179 -22.983 -44.427  1.00  0.00    -0.016 A 
ATOM     18  C   UNL     1      16.438 -23.144 -45.043  1.00  0.00    -0.018 A 
ATOM     19  C   UNL     1      15.078 -23.136 -43.034  1.00  0.00     0.009 A 
ATOM     20  C   UNL     1      17.559 -23.454 -44.257  1.00  0.00     0.009 A 
ATOM     21  C   UNL     1      16.200 -23.444 -42.263  1.00  0.00     0.001 A 
ATOM     22  C   UNL     1      17.440 -23.604 -42.874  1.00  0.00     0.001 A 
ENDBRANCH  11  13
ENDBRANCH   1  11
BRANCH   8  23
ATOM     23  N   UNL     1       9.179 -22.386 -50.695  1.00  0.00    -0.382 N 
ATOM     24  H   UNL     1       8.259 -22.199 -51.095  1.00  0.00     0.158 HD
ATOM     25  H   UNL     1       9.714 -22.758 -51.480  1.00  0.00     0.158 HD
ENDBRANCH   8  23
BRANCH   6  26
ATOM     26  N   UNL     1       6.686 -26.060 -49.233  1.00  0.00    -0.368 N 
ATOM     27  H   UNL     1       6.127 -26.058 -48.393  1.00  0.00     0.159 HD
ATOM     28  H   UNL     1       6.223 -25.842 -50.105  1.00  0.00     0.159 HD
ENDBRANCH   6  26
TORSDOF 4
ENDMDL
MODEL 8
REMARK VINA RESULT:    -6.795      2.428      7.905
REMARK INTER + INTRA:          -8.388
REMARK INTER:                  -8.085
REMARK INTRA:                  -0.303
REMARK UNBOUND:                -0.401
REMARK SMILES CN(c1ccc2ccccc2c1)c1ccc2nc(N)nc(N)c2n1
REMARK SMILES IDX 13 1 14 2 15 3 16 4 17 5 18 6 20 7 21 8 23 9 24 10 2 11 1 12
REMARK SMILES IDX 3 13 4 14 12 15 5 16 11 17 6 18 10 19 7 20 9 21 8 22 22 23
REMARK SMILES IDX 19 26
REMARK H PARENT 22 24 22 25 19 27 19 28
ROOT
ATOM      1  C   UNL     1      13.316 -22.104 -47.327  1.00  0.00     0.133 A 
ATOM      2  C   UNL     1      14.699 -22.017 -47.459  1.00  0.00     0.049 A 
ATOM      3  C   UNL     1      15.523 -22.526 -46.452  1.00  0.00     0.035 A 
ATOM      4  C   UNL     1      14.984 -23.113 -45.321  1.00  0.00     0.097 A 
ATOM      5  N   UNL     1      15.793 -23.594 -44.364  1.00  0.00    -0.211 NA
ATOM      6  C   UNL     1      15.208 -24.157 -43.306  1.00  0.00     0.222 A 
ATOM      7  N   UNL     1      13.893 -24.239 -43.117  1.00  0.00    -0.194 NA
ATOM      8  C   UNL     1      13.109 -23.742 -44.090  1.00  0.00     0.155 A 
ATOM      9  C   UNL     1      13.594 -23.153 -45.257  1.00  0.00     0.133 A 
ATOM     10  N   UNL     1      12.773 -22.662 -46.225  1.00  0.00    -0.225 NA
ENDROOT
BRANCH   1  11
ATOM     11  N   UNL     1      12.470 -21.577 -48.339  1.00  0.00    -0.329 N 
ATOM     12  C   UNL     1      13.153 -20.544 -49.127  1.00  0.00     0.152 C 
BRANCH  11  13
ATOM     13  C   UNL     1      11.490 -22.356 -49.011  1.00  0.00     0.043 A 
ATOM     14  C   UNL     1      11.588 -22.541 -50.402  1.00  0.00     0.027 A 
ATOM     15  C   UNL     1      10.424 -23.004 -48.362  1.00  0.00     0.035 A 
ATOM     16  C   UNL     1      10.665 -23.314 -51.115  1.00  0.00     0.011 A 
ATOM     17  C   UNL     1       9.480 -23.788 -49.060  1.00  0.00    -0.016 A 
ATOM     18  C   UNL     1       9.605 -23.943 -50.456  1.00  0.00    -0.018 A 
ATOM     19  C   UNL     1       8.415 -24.421 -48.398  1.00  0.00     0.009 A 
ATOM     20  C   UNL     1       8.667 -24.722 -51.154  1.00  0.00     0.009 A 
ATOM     21  C   UNL     1       7.490 -25.193 -49.101  1.00  0.00     0.001 A 
ATOM     22  C   UNL     1       7.615 -25.343 -50.479  1.00  0.00     0.001 A 
ENDBRANCH  11  13
ENDBRANCH   1  11
BRANCH   8  23
ATOM     23  N   UNL     1      11.703 -23.840 -43.897  1.00  0.00    -0.382 N 
ATOM     24  H   UNL     1      11.295 -22.990 -44.286  1.00  0.00     0.158 HD
ATOM     25  H   UNL     1      11.536 -23.752 -42.895  1.00  0.00     0.158 HD
ENDBRANCH   8  23
BRANCH   6  26
ATOM     26  N   UNL     1      16.025 -24.651 -42.313  1.00  0.00    -0.368 N 
ATOM     27  H   UNL     1      16.679 -23.946 -42.011  1.00  0.00     0.159 HD
ATOM     28  H   UNL     1      15.462 -25.103 -41.604  1.00  0.00     0.159 HD
ENDBRANCH   6  26
TORSDOF 4
ENDMDL
MODEL 9
REMARK VINA RESULT:    -6.706      4.735      7.713
REMARK INTER + INTRA:          -8.284
REMARK INTER:                  -7.821
REMARK INTRA:                  -0.462
REMARK UNBOUND:                -0.401
REMARK SMILES CN(c1ccc2ccccc2c1)c1ccc2nc(N)nc(N)c2n1
REMARK SMILES IDX 13 1 14 2 15 3 16 4 17 5 18 6 20 7 21 8 23 9 24 10 2 11 1 12
REMARK SMILES IDX 3 13 4 14 12 15 5 16 11 17 6 18 10 19 7 20 9 21 8 22 22 23
REMARK SMILES IDX 19 26
REMARK H PARENT 22 24 22 25 19 27 19 28
ROOT
ATOM      1  C   UNL     1       8.757 -24.104 -50.308  1.00  0.00     0.133 A 
ATOM      2  C   UNL     1       8.446 -24.771 -49.126  1.00  0.00     0.049 A 
ATOM      3  C   UNL     1       7.128 -24.779 -48.663  1.00  0.00     0.035 A 
ATOM      4  C   UNL     1       6.125 -24.129 -49.361  1.00  0.00     0.097 A 
ATOM      5  N   UNL     1       4.865 -24.147 -48.898  1.00  0.00    -0.211 NA
ATOM      6  C   UNL     1       3.946 -23.511 -49.626  1.00  0.00     0.222 A 
ATOM      7  N   UNL     1       4.196 -22.834 -50.744  1.00  0.00    -0.194 NA
ATOM      8  C   UNL     1       5.468 -22.828 -51.177  1.00  0.00     0.155 A 
ATOM      9  C   UNL     1       6.517 -23.476 -50.526  1.00  0.00     0.133 A 
ATOM     10  N   UNL     1       7.794 -23.454 -50.994  1.00  0.00    -0.225 NA
ENDROOT
BRANCH   1  11
ATOM     11  N   UNL     1      10.097 -24.079 -50.778  1.00  0.00    -0.329 N 
ATOM     12  C   UNL     1      10.152 -23.951 -52.239  1.00  0.00     0.152 C 
BRANCH  11  13
ATOM     13  C   UNL     1      11.165 -23.501 -50.040  1.00  0.00     0.043 A 
ATOM     14  C   UNL     1      11.475 -22.141 -50.224  1.00  0.00     0.027 A 
ATOM     15  C   UNL     1      11.927 -24.200 -49.086  1.00  0.00     0.035 A 
ATOM     16  C   UNL     1      12.501 -21.512 -49.511  1.00  0.00     0.011 A 
ATOM     17  C   UNL     1      12.967 -23.586 -48.356  1.00  0.00    -0.016 A 
ATOM     18  C   UNL     1      13.257 -22.223 -48.574  1.00  0.00    -0.018 A 
ATOM     19  C   UNL     1      13.726 -24.301 -47.414  1.00  0.00     0.009 A 
ATOM     20  C   UNL     1      14.292 -21.609 -47.849  1.00  0.00     0.009 A 
ATOM     21  C   UNL     1      14.752 -23.681 -46.700  1.00  0.00     0.001 A 
ATOM     22  C   UNL     1      15.036 -22.336 -46.917  1.00  0.00     0.001 A 
ENDBRANCH  11  13
ENDBRANCH   1  11
BRANCH   8  23
ATOM     23  N   UNL     1       5.736 -22.116 -52.380  1.00  0.00    -0.382 N 
ATOM     24  H   UNL     1       5.033 -22.412 -53.057  1.00  0.00     0.158 HD
ATOM     25  H   UNL     1       6.608 -22.490 -52.756  1.00  0.00     0.158 HD
ENDBRANCH   8  23
BRANCH   6  26
ATOM     26  N   UNL     1       2.649 -23.516 -49.161  1.00  0.00    -0.368 N 
ATOM     27  H   UNL     1       2.259 -24.445 -49.214  1.00  0.00     0.159 HD
ATOM     28  H   UNL     1       2.606 -23.040 -48.270  1.00  0.00     0.159 HD
ENDBRANCH   6  26
TORSDOF 4
ENDMDL
