MODEL 1
REMARK VINA RESULT:    -8.020      0.000      0.000
REMARK INTER + INTRA:         -14.907
REMARK INTER:                 -13.645
REMARK INTRA:                  -1.262
REMARK UNBOUND:                -1.262
REMARK SMILES Nc1ncc(CCCCc2ccc(C(=O)N[C@@H](CCC(=O)[O-])C(=O)[O-])cc2)c(N)n1
REMARK SMILES IDX 10 1 11 2 12 3 13 4 26 5 27 6 9 7 8 8 7 9 6 10 5 11 2 12
REMARK SMILES IDX 3 13 30 14 4 15 28 16 1 17 29 20 14 23 15 24 16 25 17 27
REMARK SMILES IDX 18 28 19 29 20 30 21 31 22 32 23 33 24 34 25 35
REMARK H PARENT 1 18 1 19 29 21 29 22 16 26
ROOT
ATOM      1  C   UNL     1      13.184 -21.185 -48.722  1.00  0.00    -0.048 A 
ATOM      2  C   UNL     1      12.333 -21.465 -47.647  1.00  0.00     0.004 A 
ATOM      3  C   UNL     1      12.782 -22.254 -46.586  1.00  0.00     0.014 A 
ATOM      4  C   UNL     1      14.088 -22.770 -46.579  1.00  0.00     0.039 A 
ATOM      5  C   UNL     1      14.966 -22.397 -47.601  1.00  0.00     0.014 A 
ATOM      6  C   UNL     1      14.518 -21.605 -48.662  1.00  0.00     0.004 A 
ENDROOT
BRANCH   1   7
ATOM      7  C   UNL     1      12.643 -20.597 -50.001  1.00  0.00     0.035 C 
BRANCH   7   8
ATOM      8  C   UNL     1      13.749 -20.304 -51.036  1.00  0.00     0.005 C 
BRANCH   8   9
ATOM      9  C   UNL     1      13.789 -18.869 -51.595  1.00  0.00     0.005 C 
BRANCH   9  10
ATOM     10  C   UNL     1      14.118 -18.723 -53.085  1.00  0.00     0.041 C 
BRANCH  10  11
ATOM     11  C   UNL     1      15.423 -18.062 -53.405  1.00  0.00     0.013 A 
ATOM     12  C   UNL     1      17.703 -16.721 -53.953  1.00  0.00     0.221 A 
ATOM     13  N   UNL     1      16.617 -15.983 -53.732  1.00  0.00    -0.221 NA
ATOM     14  N   UNL     1      17.749 -18.050 -53.921  1.00  0.00    -0.196 NA
ATOM     15  C   UNL     1      15.496 -16.681 -53.479  1.00  0.00     0.122 A 
ATOM     16  C   UNL     1      16.615 -18.723 -53.646  1.00  0.00     0.132 A 
BRANCH  12  17
ATOM     17  N   UNL     1      18.900 -16.054 -54.161  1.00  0.00    -0.368 N 
ATOM     18  H   UNL     1      19.561 -16.460 -53.508  1.00  0.00     0.159 HD
ATOM     19  H   UNL     1      18.720 -15.065 -54.070  1.00  0.00     0.159 HD
ENDBRANCH  12  17
BRANCH  16  20
ATOM     20  N   UNL     1      16.720 -20.108 -53.682  1.00  0.00    -0.383 N 
ATOM     21  H   UNL     1      16.042 -20.608 -53.066  1.00  0.00     0.158 HD
ATOM     22  H   UNL     1      16.449 -20.489 -54.580  1.00  0.00     0.158 HD
ENDBRANCH  16  20
ENDBRANCH  10  11
ENDBRANCH   9  10
ENDBRANCH   8   9
ENDBRANCH   7   8
ENDBRANCH   1   7
BRANCH   4  23
ATOM     23  C   UNL     1      14.402 -23.836 -45.575  1.00  0.00     0.251 C 
ATOM     24  O   UNL     1      14.957 -24.871 -45.943  1.00  0.00    -0.269 OA
ATOM     25  N   UNL     1      14.115 -23.563 -44.261  1.00  0.00    -0.344 N 
ATOM     26  H   UNL     1      13.537 -22.783 -43.978  1.00  0.00     0.164 HD
BRANCH  25  27
ATOM     27  C   UNL     1      15.073 -23.882 -43.179  1.00  0.00     0.128 C 
BRANCH  27  28
ATOM     28  C   UNL     1      16.093 -22.726 -43.010  1.00  0.00     0.037 C 
BRANCH  28  29
ATOM     29  C   UNL     1      17.562 -23.106 -43.273  1.00  0.00     0.055 C 
BRANCH  29  30
ATOM     30  C   UNL     1      18.145 -22.584 -44.591  1.00  0.00     0.041 C 
ATOM     31  O   UNL     1      17.872 -23.282 -45.619  1.00  0.00    -0.550 OA
ATOM     32  O   UNL     1      18.804 -21.508 -44.542  1.00  0.00    -0.550 OA
ENDBRANCH  29  30
ENDBRANCH  28  29
ENDBRANCH  27  28
BRANCH  27  33
ATOM     33  C   UNL     1      14.369 -24.198 -41.816  1.00  0.00     0.064 C 
ATOM     34  O   UNL     1      13.103 -24.211 -41.831  1.00  0.00    -0.548 OA
ATOM     35  O   UNL     1      15.157 -24.363 -40.831  1.00  0.00    -0.548 OA
ENDBRANCH  27  33
ENDBRANCH  25  27
ENDBRANCH   4  23
TORSDOF 13
ENDMDL
MODEL 2
REMARK VINA RESULT:    -7.999      0.792      2.767
REMARK INTER + INTRA:         -14.872
REMARK INTER:                 -13.922
REMARK INTRA:                  -0.951
REMARK UNBOUND:                -1.262
REMARK SMILES Nc1ncc(CCCCc2ccc(C(=O)N[C@@H](CCC(=O)[O-])C(=O)[O-])cc2)c(N)n1
REMARK SMILES IDX 10 1 11 2 12 3 13 4 26 5 27 6 9 7 8 8 7 9 6 10 5 11 2 12
REMARK SMILES IDX 3 13 30 14 4 15 28 16 1 17 29 20 14 23 15 24 16 25 17 27
REMARK SMILES IDX 18 28 19 29 20 30 21 31 22 32 23 33 24 34 25 35
REMARK H PARENT 1 18 1 19 29 21 29 22 16 26
ROOT
ATOM      1  C   UNL     1      13.293 -21.198 -48.767  1.00  0.00    -0.048 A 
ATOM      2  C   UNL     1      12.515 -21.294 -47.609  1.00  0.00     0.004 A 
ATOM      3  C   UNL     1      13.036 -21.900 -46.464  1.00  0.00     0.014 A 
ATOM      4  C   UNL     1      14.342 -22.414 -46.457  1.00  0.00     0.039 A 
ATOM      5  C   UNL     1      15.150 -22.218 -47.581  1.00  0.00     0.014 A 
ATOM      6  C   UNL     1      14.631 -21.609 -48.726  1.00  0.00     0.004 A 
ENDROOT
BRANCH   1   7
ATOM      7  C   UNL     1      12.666 -20.826 -50.088  1.00  0.00     0.035 C 
BRANCH   7   8
ATOM      8  C   UNL     1      13.713 -20.457 -51.160  1.00  0.00     0.005 C 
BRANCH   8   9
ATOM      9  C   UNL     1      13.768 -18.972 -51.569  1.00  0.00     0.005 C 
BRANCH   9  10
ATOM     10  C   UNL     1      14.023 -18.679 -53.051  1.00  0.00     0.041 C 
BRANCH  10  11
ATOM     11  C   UNL     1      15.342 -18.045 -53.374  1.00  0.00     0.013 A 
ATOM     12  C   UNL     1      17.647 -16.750 -53.931  1.00  0.00     0.221 A 
ATOM     13  N   UNL     1      16.571 -15.991 -53.729  1.00  0.00    -0.221 NA
ATOM     14  N   UNL     1      17.670 -18.079 -53.876  1.00  0.00    -0.196 NA
ATOM     15  C   UNL     1      15.438 -16.667 -53.471  1.00  0.00     0.122 A 
ATOM     16  C   UNL     1      16.524 -18.729 -53.596  1.00  0.00     0.132 A 
BRANCH  12  17
ATOM     17  N   UNL     1      18.855 -16.107 -54.142  1.00  0.00    -0.368 N 
ATOM     18  H   UNL     1      19.572 -16.811 -54.009  1.00  0.00     0.159 HD
ATOM     19  H   UNL     1      18.887 -15.305 -53.531  1.00  0.00     0.159 HD
ENDBRANCH  12  17
BRANCH  16  20
ATOM     20  N   UNL     1      16.606 -20.115 -53.608  1.00  0.00    -0.383 N 
ATOM     21  H   UNL     1      16.284 -20.560 -54.496  1.00  0.00     0.158 HD
ATOM     22  H   UNL     1      17.564 -20.443 -53.591  1.00  0.00     0.158 HD
ENDBRANCH  16  20
ENDBRANCH  10  11
ENDBRANCH   9  10
ENDBRANCH   8   9
ENDBRANCH   7   8
ENDBRANCH   1   7
BRANCH   4  23
ATOM     23  C   UNL     1      14.728 -23.302 -45.314  1.00  0.00     0.251 C 
ATOM     24  O   UNL     1      15.106 -24.451 -45.539  1.00  0.00    -0.269 OA
ATOM     25  N   UNL     1      14.707 -22.751 -44.057  1.00  0.00    -0.344 N 
ATOM     26  H   UNL     1      14.266 -21.863 -43.857  1.00  0.00     0.164 HD
BRANCH  25  27
ATOM     27  C   UNL     1      15.808 -22.981 -43.095  1.00  0.00     0.128 C 
BRANCH  27  28
ATOM     28  C   UNL     1      15.604 -24.334 -42.365  1.00  0.00     0.037 C 
BRANCH  28  29
ATOM     29  C   UNL     1      15.059 -24.226 -40.928  1.00  0.00     0.055 C 
BRANCH  29  30
ATOM     30  C   UNL     1      13.538 -24.364 -40.795  1.00  0.00     0.041 C 
ATOM     31  O   UNL     1      12.885 -24.234 -41.878  1.00  0.00    -0.550 OA
ATOM     32  O   UNL     1      13.083 -24.624 -39.646  1.00  0.00    -0.550 OA
ENDBRANCH  29  30
ENDBRANCH  28  29
ENDBRANCH  27  28
BRANCH  27  33
ATOM     33  C   UNL     1      17.223 -22.925 -43.763  1.00  0.00     0.064 C 
ATOM     34  O   UNL     1      17.941 -23.960 -43.637  1.00  0.00    -0.548 OA
ATOM     35  O   UNL     1      17.508 -21.819 -44.324  1.00  0.00    -0.548 OA
ENDBRANCH  27  33
ENDBRANCH  25  27
ENDBRANCH   4  23
TORSDOF 13
ENDMDL
MODEL 3
REMARK VINA RESULT:    -7.325      5.022     10.191
REMARK INTER + INTRA:         -13.726
REMARK INTER:                 -12.216
REMARK INTRA:                  -1.510
REMARK UNBOUND:                -1.262
REMARK SMILES Nc1ncc(CCCCc2ccc(C(=O)N[C@@H](CCC(=O)[O-])C(=O)[O-])cc2)c(N)n1
REMARK SMILES IDX 10 1 11 2 12 3 13 4 26 5 27 6 9 7 8 8 7 9 6 10 5 11 2 12
REMARK SMILES IDX 3 13 30 14 4 15 28 16 1 17 29 20 14 23 15 24 16 25 17 27
REMARK SMILES IDX 18 28 19 29 20 30 21 31 22 32 23 33 24 34 25 35
REMARK H PARENT 1 18 1 19 29 21 29 22 16 26
ROOT
ATOM      1  C   UNL     1      16.632 -23.558 -46.022  1.00  0.00    -0.048 A 
ATOM      2  C   UNL     1      15.885 -24.730 -46.180  1.00  0.00     0.004 A 
ATOM      3  C   UNL     1      14.540 -24.658 -46.548  1.00  0.00     0.014 A 
ATOM      4  C   UNL     1      13.922 -23.417 -46.768  1.00  0.00     0.039 A 
ATOM      5  C   UNL     1      14.702 -22.257 -46.715  1.00  0.00     0.014 A 
ATOM      6  C   UNL     1      16.048 -22.328 -46.350  1.00  0.00     0.004 A 
ENDROOT
BRANCH   1   7
ATOM      7  C   UNL     1      17.980 -23.589 -45.346  1.00  0.00     0.035 C 
BRANCH   7   8
ATOM      8  C   UNL     1      17.909 -24.131 -43.902  1.00  0.00     0.005 C 
BRANCH   8   9
ATOM      9  C   UNL     1      16.824 -23.511 -43.001  1.00  0.00     0.005 C 
BRANCH   9  10
ATOM     10  C   UNL     1      15.578 -24.366 -42.743  1.00  0.00     0.041 C 
BRANCH  10  11
ATOM     11  C   UNL     1      15.001 -24.281 -41.363  1.00  0.00     0.013 A 
ATOM     12  C   UNL     1      14.117 -24.101 -38.816  1.00  0.00     0.221 A 
ATOM     13  N   UNL     1      15.437 -24.074 -38.992  1.00  0.00    -0.221 NA
ATOM     14  N   UNL     1      13.215 -24.204 -39.789  1.00  0.00    -0.196 NA
ATOM     15  C   UNL     1      15.844 -24.183 -40.269  1.00  0.00     0.122 A 
ATOM     16  C   UNL     1      13.650 -24.292 -41.060  1.00  0.00     0.132 A 
BRANCH  12  17
ATOM     17  N   UNL     1      13.638 -23.933 -37.527  1.00  0.00    -0.368 N 
ATOM     18  H   UNL     1      14.435 -24.067 -36.915  1.00  0.00     0.159 HD
ATOM     19  H   UNL     1      12.860 -24.563 -37.404  1.00  0.00     0.159 HD
ENDBRANCH  12  17
BRANCH  16  20
ATOM     20  N   UNL     1      12.660 -24.452 -42.020  1.00  0.00    -0.383 N 
ATOM     21  H   UNL     1      12.954 -25.003 -42.856  1.00  0.00     0.158 HD
ATOM     22  H   UNL     1      11.899 -25.033 -41.692  1.00  0.00     0.158 HD
ENDBRANCH  16  20
ENDBRANCH  10  11
ENDBRANCH   9  10
ENDBRANCH   8   9
ENDBRANCH   7   8
ENDBRANCH   1   7
BRANCH   4  23
ATOM     23  C   UNL     1      12.428 -23.397 -46.866  1.00  0.00     0.251 C 
ATOM     24  O   UNL     1      11.759 -23.102 -45.876  1.00  0.00    -0.269 OA
ATOM     25  N   UNL     1      11.878 -23.644 -48.099  1.00  0.00    -0.344 N 
ATOM     26  H   UNL     1      12.411 -24.021 -48.871  1.00  0.00     0.164 HD
BRANCH  25  27
ATOM     27  C   UNL     1      10.766 -22.821 -48.627  1.00  0.00     0.128 C 
BRANCH  27  28
ATOM     28  C   UNL     1      11.218 -22.071 -49.907  1.00  0.00     0.037 C 
BRANCH  28  29
ATOM     29  C   UNL     1      12.710 -21.692 -49.950  1.00  0.00     0.055 C 
BRANCH  29  30
ATOM     30  C   UNL     1      13.000 -20.211 -50.222  1.00  0.00     0.041 C 
ATOM     31  O   UNL     1      12.951 -19.866 -51.445  1.00  0.00    -0.550 OA
ATOM     32  O   UNL     1      13.224 -19.476 -49.220  1.00  0.00    -0.550 OA
ENDBRANCH  29  30
ENDBRANCH  28  29
ENDBRANCH  27  28
BRANCH  27  33
ATOM     33  C   UNL     1       9.471 -23.655 -48.907  1.00  0.00     0.064 C 
ATOM     34  O   UNL     1       9.277 -23.999 -50.110  1.00  0.00    -0.548 OA
ATOM     35  O   UNL     1       8.732 -23.855 -47.892  1.00  0.00    -0.548 OA
ENDBRANCH  27  33
ENDBRANCH  25  27
ENDBRANCH   4  23
TORSDOF 13
ENDMDL
MODEL 4
REMARK VINA RESULT:    -7.294      4.904      9.550
REMARK INTER + INTRA:         -13.674
REMARK INTER:                 -11.167
REMARK INTRA:                  -2.506
REMARK UNBOUND:                -1.262
REMARK SMILES Nc1ncc(CCCCc2ccc(C(=O)N[C@@H](CCC(=O)[O-])C(=O)[O-])cc2)c(N)n1
REMARK SMILES IDX 10 1 11 2 12 3 13 4 26 5 27 6 9 7 8 8 7 9 6 10 5 11 2 12
REMARK SMILES IDX 3 13 30 14 4 15 28 16 1 17 29 20 14 23 15 24 16 25 17 27
REMARK SMILES IDX 18 28 19 29 20 30 21 31 22 32 23 33 24 34 25 35
REMARK H PARENT 1 18 1 19 29 21 29 22 16 26
ROOT
ATOM      1  C   UNL     1      16.843 -22.515 -45.316  1.00  0.00    -0.048 A 
ATOM      2  C   UNL     1      16.454 -22.761 -46.637  1.00  0.00     0.004 A 
ATOM      3  C   UNL     1      15.099 -22.833 -46.966  1.00  0.00     0.014 A 
ATOM      4  C   UNL     1      14.112 -22.657 -45.982  1.00  0.00     0.039 A 
ATOM      5  C   UNL     1      14.506 -22.304 -44.688  1.00  0.00     0.014 A 
ATOM      6  C   UNL     1      15.862 -22.228 -44.359  1.00  0.00     0.004 A 
ENDROOT
BRANCH   1   7
ATOM      7  C   UNL     1      18.272 -22.726 -44.881  1.00  0.00     0.035 C 
BRANCH   7   8
ATOM      8  C   UNL     1      18.381 -23.290 -43.449  1.00  0.00     0.005 C 
BRANCH   8   9
ATOM      9  C   UNL     1      18.531 -24.820 -43.335  1.00  0.00     0.005 C 
BRANCH   9  10
ATOM     10  C   UNL     1      17.652 -25.519 -42.293  1.00  0.00     0.041 C 
BRANCH  10  11
ATOM     11  C   UNL     1      16.178 -25.273 -42.409  1.00  0.00     0.013 A 
ATOM     12  C   UNL     1      13.521 -24.933 -42.755  1.00  0.00     0.221 A 
ATOM     13  N   UNL     1      14.160 -25.628 -43.695  1.00  0.00    -0.221 NA
ATOM     14  N   UNL     1      14.086 -24.405 -41.673  1.00  0.00    -0.196 NA
ATOM     15  C   UNL     1      15.483 -25.765 -43.501  1.00  0.00     0.122 A 
ATOM     16  C   UNL     1      15.410 -24.574 -41.494  1.00  0.00     0.132 A 
BRANCH  12  17
ATOM     17  N   UNL     1      12.146 -24.811 -42.871  1.00  0.00    -0.368 N 
ATOM     18  H   UNL     1      11.977 -24.443 -43.800  1.00  0.00     0.159 HD
ATOM     19  H   UNL     1      11.820 -24.255 -42.096  1.00  0.00     0.159 HD
ENDBRANCH  12  17
BRANCH  16  20
ATOM     20  N   UNL     1      15.945 -23.952 -40.374  1.00  0.00    -0.383 N 
ATOM     21  H   UNL     1      16.270 -24.608 -39.629  1.00  0.00     0.158 HD
ATOM     22  H   UNL     1      16.818 -23.480 -40.578  1.00  0.00     0.158 HD
ENDBRANCH  16  20
ENDBRANCH  10  11
ENDBRANCH   9  10
ENDBRANCH   8   9
ENDBRANCH   7   8
ENDBRANCH   1   7
BRANCH   4  23
ATOM     23  C   UNL     1      12.708 -23.037 -46.337  1.00  0.00     0.251 C 
ATOM     24  O   UNL     1      11.840 -23.035 -45.466  1.00  0.00    -0.269 OA
ATOM     25  N   UNL     1      12.446 -23.302 -47.659  1.00  0.00    -0.344 N 
ATOM     26  H   UNL     1      13.177 -23.442 -48.344  1.00  0.00     0.164 HD
BRANCH  25  27
ATOM     27  C   UNL     1      11.240 -22.767 -48.329  1.00  0.00     0.128 C 
BRANCH  27  28
ATOM     28  C   UNL     1      11.623 -22.130 -49.690  1.00  0.00     0.037 C 
BRANCH  28  29
ATOM     29  C   UNL     1      13.051 -21.558 -49.765  1.00  0.00     0.055 C 
BRANCH  29  30
ATOM     30  C   UNL     1      13.137 -20.050 -50.030  1.00  0.00     0.041 C 
ATOM     31  O   UNL     1      13.252 -19.323 -48.993  1.00  0.00    -0.550 OA
ATOM     32  O   UNL     1      13.119 -19.677 -51.236  1.00  0.00    -0.550 OA
ENDBRANCH  29  30
ENDBRANCH  28  29
ENDBRANCH  27  28
BRANCH  27  33
ATOM     33  C   UNL     1      10.122 -23.847 -48.523  1.00  0.00     0.064 C 
ATOM     34  O   UNL     1      10.241 -24.599 -49.534  1.00  0.00    -0.548 OA
ATOM     35  O   UNL     1       9.189 -23.815 -47.658  1.00  0.00    -0.548 OA
ENDBRANCH  27  33
ENDBRANCH  25  27
ENDBRANCH   4  23
TORSDOF 13
ENDMDL
MODEL 5
REMARK VINA RESULT:    -7.246      5.838     10.621
REMARK INTER + INTRA:         -13.592
REMARK INTER:                 -12.285
REMARK INTRA:                  -1.307
REMARK UNBOUND:                -1.262
REMARK SMILES Nc1ncc(CCCCc2ccc(C(=O)N[C@@H](CCC(=O)[O-])C(=O)[O-])cc2)c(N)n1
REMARK SMILES IDX 10 1 11 2 12 3 13 4 26 5 27 6 9 7 8 8 7 9 6 10 5 11 2 12
REMARK SMILES IDX 3 13 30 14 4 15 28 16 1 17 29 20 14 23 15 24 16 25 17 27
REMARK SMILES IDX 18 28 19 29 20 30 21 31 22 32 23 33 24 34 25 35
REMARK H PARENT 1 18 1 19 29 21 29 22 16 26
ROOT
ATOM      1  C   UNL     1      15.159 -22.358 -46.729  1.00  0.00    -0.048 A 
ATOM      2  C   UNL     1      15.252 -21.945 -48.062  1.00  0.00     0.004 A 
ATOM      3  C   UNL     1      14.098 -21.617 -48.776  1.00  0.00     0.014 A 
ATOM      4  C   UNL     1      12.834 -21.691 -48.168  1.00  0.00     0.039 A 
ATOM      5  C   UNL     1      12.758 -22.000 -46.806  1.00  0.00     0.014 A 
ATOM      6  C   UNL     1      13.913 -22.325 -46.091  1.00  0.00     0.004 A 
ENDROOT
BRANCH   1   7
ATOM      7  C   UNL     1      16.337 -22.996 -46.036  1.00  0.00     0.035 C 
BRANCH   7   8
ATOM      8  C   UNL     1      16.544 -22.462 -44.603  1.00  0.00     0.005 C 
BRANCH   8   9
ATOM      9  C   UNL     1      16.581 -23.522 -43.485  1.00  0.00     0.005 C 
BRANCH   9  10
ATOM     10  C   UNL     1      15.270 -24.261 -43.198  1.00  0.00     0.041 C 
BRANCH  10  11
ATOM     11  C   UNL     1      14.814 -24.255 -41.771  1.00  0.00     0.013 A 
ATOM     12  C   UNL     1      14.154 -24.213 -39.151  1.00  0.00     0.221 A 
ATOM     13  N   UNL     1      15.451 -24.136 -39.440  1.00  0.00    -0.221 NA
ATOM     14  N   UNL     1      13.172 -24.304 -40.046  1.00  0.00    -0.196 NA
ATOM     15  C   UNL     1      15.747 -24.175 -40.750  1.00  0.00     0.122 A 
ATOM     16  C   UNL     1      13.496 -24.322 -41.353  1.00  0.00     0.132 A 
BRANCH  12  17
ATOM     17  N   UNL     1      13.786 -24.117 -37.819  1.00  0.00    -0.368 N 
ATOM     18  H   UNL     1      13.287 -23.239 -37.732  1.00  0.00     0.159 HD
ATOM     19  H   UNL     1      14.620 -24.223 -37.262  1.00  0.00     0.159 HD
ENDBRANCH  12  17
BRANCH  16  20
ATOM     20  N   UNL     1      12.430 -24.474 -42.229  1.00  0.00    -0.383 N 
ATOM     21  H   UNL     1      12.695 -24.456 -43.239  1.00  0.00     0.158 HD
ATOM     22  H   UNL     1      12.019 -25.398 -42.178  1.00  0.00     0.158 HD
ENDBRANCH  16  20
ENDBRANCH  10  11
ENDBRANCH   9  10
ENDBRANCH   8   9
ENDBRANCH   7   8
ENDBRANCH   1   7
BRANCH   4  23
ATOM     23  C   UNL     1      11.634 -21.616 -49.060  1.00  0.00     0.251 C 
ATOM     24  O   UNL     1      11.656 -20.881 -50.046  1.00  0.00    -0.269 OA
ATOM     25  N   UNL     1      10.579 -22.443 -48.762  1.00  0.00    -0.344 N 
ATOM     26  H   UNL     1      10.502 -22.937 -47.883  1.00  0.00     0.164 HD
BRANCH  25  27
ATOM     27  C   UNL     1       9.876 -23.207 -49.818  1.00  0.00     0.128 C 
BRANCH  27  28
ATOM     28  C   UNL     1      10.891 -24.046 -50.636  1.00  0.00     0.037 C 
BRANCH  28  29
ATOM     29  C   UNL     1      10.981 -23.687 -52.131  1.00  0.00     0.055 C 
BRANCH  29  30
ATOM     30  C   UNL     1      10.073 -24.507 -53.055  1.00  0.00     0.041 C 
ATOM     31  O   UNL     1      10.591 -25.573 -53.516  1.00  0.00    -0.550 OA
ATOM     32  O   UNL     1       8.903 -24.072 -53.244  1.00  0.00    -0.550 OA
ENDBRANCH  29  30
ENDBRANCH  28  29
ENDBRANCH  27  28
BRANCH  27  33
ATOM     33  C   UNL     1       8.737 -24.121 -49.251  1.00  0.00     0.064 C 
ATOM     34  O   UNL     1       8.477 -25.167 -49.916  1.00  0.00    -0.548 OA
ATOM     35  O   UNL     1       8.168 -23.680 -48.202  1.00  0.00    -0.548 OA
ENDBRANCH  27  33
ENDBRANCH  25  27
ENDBRANCH   4  23
TORSDOF 13
ENDMDL
MODEL 6
REMARK VINA RESULT:    -7.213      5.364     10.237
REMARK INTER + INTRA:         -13.536
REMARK INTER:                 -11.898
REMARK INTRA:                  -1.638
REMARK UNBOUND:                -1.262
REMARK SMILES Nc1ncc(CCCCc2ccc(C(=O)N[C@@H](CCC(=O)[O-])C(=O)[O-])cc2)c(N)n1
REMARK SMILES IDX 10 1 11 2 12 3 13 4 26 5 27 6 9 7 8 8 7 9 6 10 5 11 2 12
REMARK SMILES IDX 3 13 30 14 4 15 28 16 1 17 29 20 14 23 15 24 16 25 17 27
REMARK SMILES IDX 18 28 19 29 20 30 21 31 22 32 23 33 24 34 25 35
REMARK H PARENT 1 18 1 19 29 21 29 22 16 26
ROOT
ATOM      1  C   UNL     1      14.219 -21.886 -47.353  1.00  0.00    -0.048 A 
ATOM      2  C   UNL     1      14.594 -21.583 -48.666  1.00  0.00     0.004 A 
ATOM      3  C   UNL     1      13.633 -21.554 -49.679  1.00  0.00     0.014 A 
ATOM      4  C   UNL     1      12.284 -21.821 -49.395  1.00  0.00     0.039 A 
ATOM      5  C   UNL     1      11.900 -22.016 -48.065  1.00  0.00     0.014 A 
ATOM      6  C   UNL     1      12.861 -22.042 -47.050  1.00  0.00     0.004 A 
ENDROOT
BRANCH   1   7
ATOM      7  C   UNL     1      15.259 -22.214 -46.311  1.00  0.00     0.035 C 
BRANCH   7   8
ATOM      8  C   UNL     1      15.678 -23.699 -46.336  1.00  0.00     0.005 C 
BRANCH   8   9
ATOM      9  C   UNL     1      15.022 -24.605 -45.277  1.00  0.00     0.005 C 
BRANCH   9  10
ATOM     10  C   UNL     1      14.127 -23.913 -44.243  1.00  0.00     0.041 C 
BRANCH  10  11
ATOM     11  C   UNL     1      14.570 -24.024 -42.816  1.00  0.00     0.013 A 
ATOM     12  C   UNL     1      15.513 -24.144 -40.287  1.00  0.00     0.221 A 
ATOM     13  N   UNL     1      16.347 -23.674 -41.212  1.00  0.00    -0.221 NA
ATOM     14  N   UNL     1      14.266 -24.549 -40.513  1.00  0.00    -0.196 NA
ATOM     15  C   UNL     1      15.853 -23.642 -42.462  1.00  0.00     0.122 A 
ATOM     16  C   UNL     1      13.790 -24.489 -41.771  1.00  0.00     0.132 A 
BRANCH  12  17
ATOM     17  N   UNL     1      15.947 -24.143 -38.972  1.00  0.00    -0.368 N 
ATOM     18  H   UNL     1      16.576 -24.933 -38.886  1.00  0.00     0.159 HD
ATOM     19  H   UNL     1      15.131 -24.145 -38.379  1.00  0.00     0.159 HD
ENDBRANCH  12  17
BRANCH  16  20
ATOM     20  N   UNL     1      12.502 -24.978 -41.947  1.00  0.00    -0.383 N 
ATOM     21  H   UNL     1      12.055 -24.703 -42.848  1.00  0.00     0.158 HD
ATOM     22  H   UNL     1      12.485 -25.985 -42.048  1.00  0.00     0.158 HD
ENDBRANCH  16  20
ENDBRANCH  10  11
ENDBRANCH   9  10
ENDBRANCH   8   9
ENDBRANCH   7   8
ENDBRANCH   1   7
BRANCH   4  23
ATOM     23  C   UNL     1      11.370 -22.064 -50.556  1.00  0.00     0.251 C 
ATOM     24  O   UNL     1      11.840 -22.162 -51.689  1.00  0.00    -0.269 OA
ATOM     25  N   UNL     1      10.037 -22.241 -50.278  1.00  0.00    -0.344 N 
ATOM     26  H   UNL     1       9.633 -22.023 -49.377  1.00  0.00     0.164 HD
BRANCH  25  27
ATOM     27  C   UNL     1       9.250 -23.316 -50.922  1.00  0.00     0.128 C 
BRANCH  27  28
ATOM     28  C   UNL     1       8.982 -24.460 -49.911  1.00  0.00     0.037 C 
BRANCH  28  29
ATOM     29  C   UNL     1       8.904 -24.024 -48.436  1.00  0.00     0.055 C 
BRANCH  29  30
ATOM     30  C   UNL     1       9.431 -25.048 -47.423  1.00  0.00     0.041 C 
ATOM     31  O   UNL     1      10.313 -24.609 -46.619  1.00  0.00    -0.550 OA
ATOM     32  O   UNL     1       8.926 -26.204 -47.459  1.00  0.00    -0.550 OA
ENDBRANCH  29  30
ENDBRANCH  28  29
ENDBRANCH  27  28
BRANCH  27  33
ATOM     33  C   UNL     1       7.906 -22.801 -51.539  1.00  0.00     0.064 C 
ATOM     34  O   UNL     1       7.304 -21.896 -50.889  1.00  0.00    -0.548 OA
ATOM     35  O   UNL     1       7.546 -23.388 -52.608  1.00  0.00    -0.548 OA
ENDBRANCH  27  33
ENDBRANCH  25  27
ENDBRANCH   4  23
TORSDOF 13
ENDMDL
MODEL 7
REMARK VINA RESULT:    -7.194      4.396     10.988
REMARK INTER + INTRA:         -13.503
REMARK INTER:                 -12.539
REMARK INTRA:                  -0.964
REMARK UNBOUND:                -1.262
REMARK SMILES Nc1ncc(CCCCc2ccc(C(=O)N[C@@H](CCC(=O)[O-])C(=O)[O-])cc2)c(N)n1
REMARK SMILES IDX 10 1 11 2 12 3 13 4 26 5 27 6 9 7 8 8 7 9 6 10 5 11 2 12
REMARK SMILES IDX 3 13 30 14 4 15 28 16 1 17 29 20 14 23 15 24 16 25 17 27
REMARK SMILES IDX 18 28 19 29 20 30 21 31 22 32 23 33 24 34 25 35
REMARK H PARENT 1 18 1 19 29 21 29 22 16 26
ROOT
ATOM      1  C   UNL     1      14.394 -22.294 -46.358  1.00  0.00    -0.048 A 
ATOM      2  C   UNL     1      15.220 -22.259 -47.487  1.00  0.00     0.004 A 
ATOM      3  C   UNL     1      14.750 -21.708 -48.681  1.00  0.00     0.014 A 
ATOM      4  C   UNL     1      13.452 -21.179 -48.765  1.00  0.00     0.039 A 
ATOM      5  C   UNL     1      12.672 -21.119 -47.605  1.00  0.00     0.014 A 
ATOM      6  C   UNL     1      13.143 -21.667 -46.410  1.00  0.00     0.004 A 
ENDROOT
BRANCH   1   7
ATOM      7  C   UNL     1      14.759 -23.138 -45.162  1.00  0.00     0.035 C 
BRANCH   7   8
ATOM      8  C   UNL     1      15.929 -22.543 -44.350  1.00  0.00     0.005 C 
BRANCH   8   9
ATOM      9  C   UNL     1      16.528 -23.455 -43.262  1.00  0.00     0.005 C 
BRANCH   9  10
ATOM     10  C   UNL     1      15.669 -24.643 -42.814  1.00  0.00     0.041 C 
BRANCH  10  11
ATOM     11  C   UNL     1      14.994 -24.497 -41.485  1.00  0.00     0.013 A 
ATOM     12  C   UNL     1      13.930 -24.221 -39.017  1.00  0.00     0.221 A 
ATOM     13  N   UNL     1      15.257 -24.312 -39.087  1.00  0.00    -0.221 NA
ATOM     14  N   UNL     1      13.103 -24.252 -40.058  1.00  0.00    -0.196 NA
ATOM     15  C   UNL     1      15.753 -24.465 -40.327  1.00  0.00     0.122 A 
ATOM     16  C   UNL     1      13.628 -24.387 -41.290  1.00  0.00     0.132 A 
BRANCH  12  17
ATOM     17  N   UNL     1      13.368 -24.002 -37.770  1.00  0.00    -0.368 N 
ATOM     18  H   UNL     1      14.125 -24.094 -37.103  1.00  0.00     0.159 HD
ATOM     19  H   UNL     1      12.592 -24.638 -37.667  1.00  0.00     0.159 HD
ENDBRANCH  12  17
BRANCH  16  20
ATOM     20  N   UNL     1      12.707 -24.467 -42.326  1.00  0.00    -0.383 N 
ATOM     21  H   UNL     1      11.906 -25.112 -42.144  1.00  0.00     0.158 HD
ATOM     22  H   UNL     1      12.200 -23.600 -42.457  1.00  0.00     0.158 HD
ENDBRANCH  16  20
ENDBRANCH  10  11
ENDBRANCH   9  10
ENDBRANCH   8   9
ENDBRANCH   7   8
ENDBRANCH   1   7
BRANCH   4  23
ATOM     23  C   UNL     1      12.915 -20.881 -50.130  1.00  0.00     0.251 C 
ATOM     24  O   UNL     1      11.758 -20.482 -50.254  1.00  0.00    -0.269 OA
ATOM     25  N   UNL     1      13.785 -21.003 -51.186  1.00  0.00    -0.344 N 
ATOM     26  H   UNL     1      14.683 -21.461 -51.105  1.00  0.00     0.164 HD
BRANCH  25  27
ATOM     27  C   UNL     1      13.851 -19.980 -52.254  1.00  0.00     0.128 C 
BRANCH  27  28
ATOM     28  C   UNL     1      14.525 -18.691 -51.717  1.00  0.00     0.037 C 
BRANCH  28  29
ATOM     29  C   UNL     1      14.441 -17.471 -52.653  1.00  0.00     0.055 C 
BRANCH  29  30
ATOM     30  C   UNL     1      15.782 -16.803 -52.979  1.00  0.00     0.041 C 
ATOM     31  O   UNL     1      15.761 -16.000 -53.964  1.00  0.00    -0.550 OA
ATOM     32  O   UNL     1      16.760 -17.083 -52.231  1.00  0.00    -0.550 OA
ENDBRANCH  29  30
ENDBRANCH  28  29
ENDBRANCH  27  28
BRANCH  27  33
ATOM     33  C   UNL     1      14.584 -20.490 -53.540  1.00  0.00     0.064 C 
ATOM     34  O   UNL     1      13.910 -21.236 -54.309  1.00  0.00    -0.548 OA
ATOM     35  O   UNL     1      15.800 -20.129 -53.643  1.00  0.00    -0.548 OA
ENDBRANCH  27  33
ENDBRANCH  25  27
ENDBRANCH   4  23
TORSDOF 13
ENDMDL
MODEL 8
REMARK VINA RESULT:    -7.147      5.332      9.577
REMARK INTER + INTRA:         -13.423
REMARK INTER:                 -10.781
REMARK INTRA:                  -2.642
REMARK UNBOUND:                -1.262
REMARK SMILES Nc1ncc(CCCCc2ccc(C(=O)N[C@@H](CCC(=O)[O-])C(=O)[O-])cc2)c(N)n1
REMARK SMILES IDX 10 1 11 2 12 3 13 4 26 5 27 6 9 7 8 8 7 9 6 10 5 11 2 12
REMARK SMILES IDX 3 13 30 14 4 15 28 16 1 17 29 20 14 23 15 24 16 25 17 27
REMARK SMILES IDX 18 28 19 29 20 30 21 31 22 32 23 33 24 34 25 35
REMARK H PARENT 1 18 1 19 29 21 29 22 16 26
ROOT
ATOM      1  C   UNL     1      15.018 -22.167 -46.574  1.00  0.00    -0.048 A 
ATOM      2  C   UNL     1      15.273 -22.019 -47.942  1.00  0.00     0.004 A 
ATOM      3  C   UNL     1      14.219 -21.804 -48.832  1.00  0.00     0.014 A 
ATOM      4  C   UNL     1      12.895 -21.727 -48.369  1.00  0.00     0.039 A 
ATOM      5  C   UNL     1      12.659 -21.766 -46.991  1.00  0.00     0.014 A 
ATOM      6  C   UNL     1      13.714 -21.978 -46.100  1.00  0.00     0.004 A 
ENDROOT
BRANCH   1   7
ATOM      7  C   UNL     1      16.083 -22.690 -45.643  1.00  0.00     0.035 C 
BRANCH   7   8
ATOM      8  C   UNL     1      16.643 -24.057 -46.089  1.00  0.00     0.005 C 
BRANCH   8   9
ATOM      9  C   UNL     1      16.128 -25.284 -45.311  1.00  0.00     0.005 C 
BRANCH   9  10
ATOM     10  C   UNL     1      14.624 -25.332 -45.024  1.00  0.00     0.041 C 
BRANCH  10  11
ATOM     11  C   UNL     1      14.217 -25.040 -43.613  1.00  0.00     0.013 A 
ATOM     12  C   UNL     1      13.646 -24.540 -41.019  1.00  0.00     0.221 A 
ATOM     13  N   UNL     1      14.880 -24.965 -41.287  1.00  0.00    -0.221 NA
ATOM     14  N   UNL     1      12.690 -24.342 -41.923  1.00  0.00    -0.196 NA
ATOM     15  C   UNL     1      15.126 -25.220 -42.583  1.00  0.00     0.122 A 
ATOM     16  C   UNL     1      12.970 -24.587 -43.217  1.00  0.00     0.132 A 
BRANCH  12  17
ATOM     17  N   UNL     1      13.354 -24.203 -39.708  1.00  0.00    -0.368 N 
ATOM     18  H   UNL     1      12.479 -24.666 -39.491  1.00  0.00     0.159 HD
ATOM     19  H   UNL     1      13.365 -23.197 -39.639  1.00  0.00     0.159 HD
ENDBRANCH  12  17
BRANCH  16  20
ATOM     20  N   UNL     1      11.913 -24.414 -44.100  1.00  0.00    -0.383 N 
ATOM     21  H   UNL     1      10.973 -24.620 -43.695  1.00  0.00     0.158 HD
ATOM     22  H   UNL     1      11.780 -23.442 -44.353  1.00  0.00     0.158 HD
ENDBRANCH  16  20
ENDBRANCH  10  11
ENDBRANCH   9  10
ENDBRANCH   8   9
ENDBRANCH   7   8
ENDBRANCH   1   7
BRANCH   4  23
ATOM     23  C   UNL     1      11.803 -21.793 -49.391  1.00  0.00     0.251 C 
ATOM     24  O   UNL     1      12.005 -21.360 -50.525  1.00  0.00    -0.269 OA
ATOM     25  N   UNL     1      10.634 -22.411 -49.020  1.00  0.00    -0.344 N 
ATOM     26  H   UNL     1      10.416 -22.637 -48.059  1.00  0.00     0.164 HD
BRANCH  25  27
ATOM     27  C   UNL     1       9.949 -23.369 -49.918  1.00  0.00     0.128 C 
BRANCH  27  28
ATOM     28  C   UNL     1      10.880 -24.569 -50.228  1.00  0.00     0.037 C 
BRANCH  28  29
ATOM     29  C   UNL     1      10.959 -25.639 -49.123  1.00  0.00     0.055 C 
BRANCH  29  30
ATOM     30  C   UNL     1      11.768 -25.239 -47.884  1.00  0.00     0.041 C 
ATOM     31  O   UNL     1      13.030 -25.257 -48.032  1.00  0.00    -0.550 OA
ATOM     32  O   UNL     1      11.116 -24.903 -46.856  1.00  0.00    -0.550 OA
ENDBRANCH  29  30
ENDBRANCH  28  29
ENDBRANCH  27  28
BRANCH  27  33
ATOM     33  C   UNL     1       8.581 -23.869 -49.343  1.00  0.00     0.064 C 
ATOM     34  O   UNL     1       8.373 -23.639 -48.116  1.00  0.00    -0.548 OA
ATOM     35  O   UNL     1       7.847 -24.493 -50.173  1.00  0.00    -0.548 OA
ENDBRANCH  27  33
ENDBRANCH  25  27
ENDBRANCH   4  23
TORSDOF 13
ENDMDL
