REMARK SMILES COc1cc(N(C)Cc2ccc3nc(N)nc(N)c3c2Cl)cc(OC)c1OC
REMARK SMILES IDX 6 1 7 2 5 3 3 4 4 5 26 6 23 7 22 8 2 9 1 10 27 11 28 12
REMARK SMILES IDX 24 13 25 14 8 15 9 16 10 17 20 18 11 19 19 20 12 21 17 22
REMARK SMILES IDX 13 23 16 24 14 25 21 26 18 27 15 30
REMARK H PARENT 18 28 18 29 15 31 15 32
ROOT
ATOM      1  N   UNL     1       1.735   0.682   2.050  1.00  0.00    -0.370 N 
ATOM      2  C   UNL     1       3.032   0.675   2.734  1.00  0.00     0.144 C 
ENDROOT
BRANCH   1   3
ATOM      3  C   UNL     1       1.664  -0.270   1.008  1.00  0.00     0.044 A 
ATOM      4  C   UNL     1       1.162  -0.715  -1.339  1.00  0.00     0.166 A 
ATOM      5  C   UNL     1       1.277   0.173  -0.266  1.00  0.00     0.076 A 
ATOM      6  C   UNL     1       1.465  -2.072  -1.137  1.00  0.00     0.203 A 
ATOM      7  C   UNL     1       1.807  -2.540   0.139  1.00  0.00     0.166 A 
ATOM      8  C   UNL     1       1.929  -1.632   1.195  1.00  0.00     0.076 A 
BRANCH   4   9
ATOM      9  O   UNL     1       0.785  -0.355  -2.609  1.00  0.00    -0.493 OA
ATOM     10  C   UNL     1       0.242   0.948  -2.777  1.00  0.00     0.278 C 
ENDBRANCH   4   9
BRANCH   6  11
ATOM     11  O   UNL     1       1.388  -2.944  -2.197  1.00  0.00    -0.490 OA
ATOM     12  C   UNL     1       2.624  -2.939  -2.914  1.00  0.00     0.278 C 
ENDBRANCH   6  11
BRANCH   7  13
ATOM     13  O   UNL     1       2.095  -3.840   0.468  1.00  0.00    -0.493 OA
ATOM     14  C   UNL     1       1.215  -4.806  -0.102  1.00  0.00     0.278 C 
ENDBRANCH   7  13
ENDBRANCH   1   3
BRANCH   1  15
ATOM     15  C   UNL     1       0.581   0.614   2.970  1.00  0.00     0.153 C 
BRANCH  15  16
ATOM     16  C   UNL     1      -0.670   1.186   2.332  1.00  0.00    -0.009 A 
ATOM     17  C   UNL     1      -1.630   0.301   1.836  1.00  0.00     0.009 A 
ATOM     18  C   UNL     1      -0.893   2.568   2.170  1.00  0.00     0.059 A 
ATOM     19  C   UNL     1      -2.772   0.782   1.201  1.00  0.00     0.030 A 
ATOM     20  C   UNL     1      -2.072   3.067   1.510  1.00  0.00     0.062 A 
ATOM     21  C   UNL     1      -3.005   2.137   1.032  1.00  0.00     0.079 A 
ATOM     22  C   UNL     1      -2.451   4.405   1.248  1.00  0.00     0.138 A 
ATOM     23  N   UNL     1      -4.135   2.469   0.405  1.00  0.00    -0.213 NA
ATOM     24  N   UNL     1      -3.589   4.744   0.624  1.00  0.00    -0.196 NA
ATOM     25  C   UNL     1      -4.394   3.762   0.244  1.00  0.00     0.222 A 
ATOM     26  Cl  UNL     1       0.300   3.673   2.798  1.00  0.00    -0.083 Cl
BRANCH  22  27
ATOM     27  N   UNL     1      -1.662   5.503   1.627  1.00  0.00    -0.383 N 
ATOM     28  H   UNL     1      -1.536   5.492   2.636  1.00  0.00     0.158 HD
ATOM     29  H   UNL     1      -0.734   5.406   1.223  1.00  0.00     0.158 HD
ENDBRANCH  22  27
BRANCH  25  30
ATOM     30  N   UNL     1      -5.559   4.106  -0.409  1.00  0.00    -0.368 N 
ATOM     31  H   UNL     1      -5.458   5.027  -0.813  1.00  0.00     0.159 HD
ATOM     32  H   UNL     1      -5.849   3.356  -1.019  1.00  0.00     0.159 HD
ENDBRANCH  25  30
ENDBRANCH  15  16
ENDBRANCH   1  15
TORSDOF 8
