MODEL 1
REMARK VINA RESULT:    -8.969      0.000      0.000
REMARK INTER + INTRA:          -8.969
REMARK INTER:                  -8.969
REMARK INTRA:                   0.000
REMARK UNBOUND:                 0.000
REMARK  Name = /home/vital/Documents/PhD_2021/Malaria_codes/scripts/../data/pdbqt_ligands/ligand_104_temp.pdb
REMARK                            x       y       z     vdW  Elec       q    Type
REMARK                         _______ _______ _______ _____ _____    ______ ____
ROOT
ATOM      1  C1  UNL     1       3.829   1.965 -31.789  0.00  0.00    +0.079 C 
ATOM      2  O1  UNL     1       4.551   0.883 -32.363  0.00  0.00    -0.495 OA
ATOM      3  C2  UNL     1       4.400  -0.343 -31.776  0.00  0.00    +0.120 A 
ATOM      4  C3  UNL     1       3.595  -0.631 -30.674  0.00  0.00    -0.020 A 
ATOM      5  C4  UNL     1       3.533  -1.936 -30.170  0.00  0.00    -0.054 A 
ATOM      6  C5  UNL     1       4.273  -2.976 -30.760  0.00  0.00    -0.035 A 
ATOM      7  C6  UNL     1       4.215  -4.413 -30.225  0.00  0.00    +0.044 C 
ATOM      8  C7  UNL     1       4.690  -4.470 -28.787  0.00  0.00    +0.024 C 
ATOM      9  C8  UNL     1       3.848  -4.710 -27.755  0.00  0.00    +0.024 C 
ATOM     10  C9  UNL     1       4.362  -4.737 -26.319  0.00  0.00    -0.008 C 
ATOM     11  C10 UNL     1       5.878  -4.986 -26.168  0.00  0.00    -0.023 C 
ATOM     12  C11 UNL     1       6.305  -4.652 -24.727  0.00  0.00    -0.059 C 
ATOM     13  C12 UNL     1       6.213  -6.469 -26.434  0.00  0.00    -0.059 C 
ATOM     14  C13 UNL     1       6.635  -4.078 -27.141  0.00  0.00    +0.016 C 
ATOM     15  C14 UNL     1       6.150  -4.261 -28.558  0.00  0.00    +0.162 C 
ATOM     16  O2  UNL     1       6.936  -4.218 -29.502  0.00  0.00    -0.292 OA
ATOM     17  N1  UNL     1       2.469  -4.964 -27.995  0.00  0.00    -0.276 N 
ATOM     18  C15 UNL     1       1.576  -5.102 -26.888  0.00  0.00    +0.038 A 
ATOM     19  C16 UNL     1       1.085  -3.966 -26.234  0.00  0.00    -0.037 A 
ATOM     20  C17 UNL     1       0.216  -4.099 -25.149  0.00  0.00    -0.018 A 
ATOM     21  C18 UNL     1      -0.174  -5.364 -24.698  0.00  0.00    +0.120 A 
ATOM     22  O3  UNL     1      -1.025  -5.349 -23.628  0.00  0.00    -0.495 OA
ATOM     23  C19 UNL     1      -1.448  -6.610 -23.125  0.00  0.00    +0.079 C 
ATOM     24  C20 UNL     1       0.313  -6.500 -25.344  0.00  0.00    -0.018 A 
ATOM     25  C21 UNL     1       1.183  -6.370 -26.433  0.00  0.00    -0.037 A 
ATOM     26  C22 UNL     1       1.996  -5.175 -29.319  0.00  0.00    +0.024 C 
ATOM     27  C23 UNL     1       2.814  -4.976 -30.379  0.00  0.00    +0.024 C 
ATOM     28  C24 UNL     1       2.387  -5.336 -31.763  0.00  0.00    +0.162 C 
ATOM     29  O4  UNL     1       3.195  -5.320 -32.690  0.00  0.00    -0.292 OA
ATOM     30  C25 UNL     1       0.973  -5.815 -31.996  0.00  0.00    +0.016 C 
ATOM     31  C26 UNL     1      -0.010  -5.303 -30.940  0.00  0.00    -0.023 C 
ATOM     32  C27 UNL     1      -1.358  -6.025 -31.112  0.00  0.00    -0.059 C 
ATOM     33  C28 UNL     1      -0.256  -3.789 -31.115  0.00  0.00    -0.059 C 
ATOM     34  C29 UNL     1       0.553  -5.613 -29.536  0.00  0.00    -0.008 C 
ATOM     35  C30 UNL     1       5.077  -2.673 -31.867  0.00  0.00    -0.054 A 
ATOM     36  C31 UNL     1       5.138  -1.369 -32.367  0.00  0.00    -0.020 A 
ENDROOT
TORSDOF 0
ENDMDL
MODEL 2
REMARK VINA RESULT:    -8.498     11.246     14.559
REMARK INTER + INTRA:          -8.498
REMARK INTER:                  -8.498
REMARK INTRA:                   0.000
REMARK UNBOUND:                 0.000
REMARK  Name = /home/vital/Documents/PhD_2021/Malaria_codes/scripts/../data/pdbqt_ligands/ligand_104_temp.pdb
REMARK                            x       y       z     vdW  Elec       q    Type
REMARK                         _______ _______ _______ _____ _____    ______ ____
ROOT
ATOM      1  C1  UNL     1       4.696   9.330 -19.640  0.00  0.00    +0.079 C 
ATOM      2  O1  UNL     1       3.507   9.452 -18.871  0.00  0.00    -0.495 OA
ATOM      3  C2  UNL     1       2.851   8.293 -18.558  0.00  0.00    +0.120 A 
ATOM      4  C3  UNL     1       3.247   7.004 -18.914  0.00  0.00    -0.020 A 
ATOM      5  C4  UNL     1       2.478   5.900 -18.528  0.00  0.00    -0.054 A 
ATOM      6  C5  UNL     1       1.301   6.064 -17.778  0.00  0.00    -0.035 A 
ATOM      7  C6  UNL     1       0.447   4.866 -17.342  0.00  0.00    +0.044 C 
ATOM      8  C7  UNL     1      -0.058   4.099 -18.548  0.00  0.00    +0.024 C 
ATOM      9  C8  UNL     1       0.401   2.867 -18.866  0.00  0.00    +0.024 C 
ATOM     10  C9  UNL     1      -0.117   2.137 -20.102  0.00  0.00    -0.008 C 
ATOM     11  C10 UNL     1      -1.482   2.625 -20.630  0.00  0.00    -0.023 C 
ATOM     12  C11 UNL     1      -1.713   2.054 -22.041  0.00  0.00    -0.059 C 
ATOM     13  C12 UNL     1      -2.625   2.127 -19.720  0.00  0.00    -0.059 C 
ATOM     14  C13 UNL     1      -1.475   4.154 -20.701  0.00  0.00    +0.016 C 
ATOM     15  C14 UNL     1      -1.108   4.767 -19.371  0.00  0.00    +0.162 C 
ATOM     16  O2  UNL     1      -1.647   5.803 -18.986  0.00  0.00    -0.292 OA
ATOM     17  N1  UNL     1       1.361   2.219 -18.038  0.00  0.00    -0.276 N 
ATOM     18  C15 UNL     1       1.917   0.969 -18.451  0.00  0.00    +0.038 A 
ATOM     19  C16 UNL     1       2.949   0.936 -19.396  0.00  0.00    -0.037 A 
ATOM     20  C17 UNL     1       3.491  -0.284 -19.803  0.00  0.00    -0.018 A 
ATOM     21  C18 UNL     1       3.010  -1.488 -19.280  0.00  0.00    +0.120 A 
ATOM     22  O3  UNL     1       3.628  -2.607 -19.767  0.00  0.00    -0.495 OA
ATOM     23  C19 UNL     1       3.172  -3.860 -19.272  0.00  0.00    +0.079 C 
ATOM     24  C20 UNL     1       1.980  -1.462 -18.341  0.00  0.00    -0.018 A 
ATOM     25  C21 UNL     1       1.437  -0.241 -17.929  0.00  0.00    -0.037 A 
ATOM     26  C22 UNL     1       1.694   2.760 -16.767  0.00  0.00    +0.024 C 
ATOM     27  C23 UNL     1       1.232   3.977 -16.395  0.00  0.00    +0.024 C 
ATOM     28  C24 UNL     1       1.444   4.495 -15.012  0.00  0.00    +0.162 C 
ATOM     29  O4  UNL     1       0.869   5.514 -14.632  0.00  0.00    -0.292 OA
ATOM     30  C25 UNL     1       2.295   3.699 -14.050  0.00  0.00    +0.016 C 
ATOM     31  C26 UNL     1       3.317   2.807 -14.759  0.00  0.00    -0.023 C 
ATOM     32  C27 UNL     1       3.966   1.865 -13.729  0.00  0.00    -0.059 C 
ATOM     33  C28 UNL     1       4.436   3.660 -15.393  0.00  0.00    -0.059 C 
ATOM     34  C29 UNL     1       2.593   1.962 -15.829  0.00  0.00    -0.008 C 
ATOM     35  C30 UNL     1       0.915   7.364 -17.426  0.00  0.00    -0.054 A 
ATOM     36  C31 UNL     1       1.684   8.464 -17.813  0.00  0.00    -0.020 A 
ENDROOT
TORSDOF 0
ENDMDL
MODEL 3
REMARK VINA RESULT:    -8.477      4.714      7.490
REMARK INTER + INTRA:          -8.477
REMARK INTER:                  -8.477
REMARK INTRA:                   0.000
REMARK UNBOUND:                 0.000
REMARK  Name = /home/vital/Documents/PhD_2021/Malaria_codes/scripts/../data/pdbqt_ligands/ligand_104_temp.pdb
REMARK                            x       y       z     vdW  Elec       q    Type
REMARK                         _______ _______ _______ _____ _____    ______ ____
ROOT
ATOM      1  C1  UNL     1       8.042   3.982 -23.577  0.00  0.00    +0.079 C 
ATOM      2  O1  UNL     1       8.880   2.978 -23.020  0.00  0.00    -0.495 OA
ATOM      3  C2  UNL     1       8.379   1.705 -22.983  0.00  0.00    +0.120 A 
ATOM      4  C3  UNL     1       7.130   1.301 -23.450  0.00  0.00    -0.020 A 
ATOM      5  C4  UNL     1       6.740  -0.040 -23.349  0.00  0.00    -0.054 A 
ATOM      6  C5  UNL     1       7.594  -1.001 -22.780  0.00  0.00    -0.035 A 
ATOM      7  C6  UNL     1       7.187  -2.475 -22.664  0.00  0.00    +0.044 C 
ATOM      8  C7  UNL     1       5.941  -2.624 -21.812  0.00  0.00    +0.024 C 
ATOM      9  C8  UNL     1       4.745  -2.976 -22.337  0.00  0.00    +0.024 C 
ATOM     10  C9  UNL     1       3.509  -3.092 -21.449  0.00  0.00    -0.008 C 
ATOM     11  C10 UNL     1       3.796  -3.290 -19.945  0.00  0.00    -0.023 C 
ATOM     12  C11 UNL     1       2.501  -3.051 -19.147  0.00  0.00    -0.059 C 
ATOM     13  C12 UNL     1       4.267  -4.733 -19.669  0.00  0.00    -0.059 C 
ATOM     14  C13 UNL     1       4.856  -2.281 -19.499  0.00  0.00    +0.016 C 
ATOM     15  C14 UNL     1       6.100  -2.374 -20.350  0.00  0.00    +0.162 C 
ATOM     16  O2  UNL     1       7.214  -2.227 -19.852  0.00  0.00    -0.292 OA
ATOM     17  N1  UNL     1       4.623  -3.267 -23.724  0.00  0.00    -0.276 N 
ATOM     18  C15 UNL     1       3.331  -3.525 -24.278  0.00  0.00    +0.038 A 
ATOM     19  C16 UNL     1       2.474  -2.463 -24.591  0.00  0.00    -0.037 A 
ATOM     20  C17 UNL     1       1.210  -2.714 -25.128  0.00  0.00    -0.018 A 
ATOM     21  C18 UNL     1       0.780  -4.024 -25.357  0.00  0.00    +0.120 A 
ATOM     22  O3  UNL     1      -0.478  -4.126 -25.884  0.00  0.00    -0.495 OA
ATOM     23  C19 UNL     1      -0.968  -5.438 -26.131  0.00  0.00    +0.079 C 
ATOM     24  C20 UNL     1       1.627  -5.087 -25.045  0.00  0.00    -0.018 A 
ATOM     25  C21 UNL     1       2.895  -4.838 -24.508  0.00  0.00    -0.037 A 
ATOM     26  C22 UNL     1       5.782  -3.394 -24.536  0.00  0.00    +0.024 C 
ATOM     27  C23 UNL     1       7.003  -3.081 -24.043  0.00  0.00    +0.024 C 
ATOM     28  C24 UNL     1       8.245  -3.351 -24.825  0.00  0.00    +0.162 C 
ATOM     29  O4  UNL     1       9.352  -3.232 -24.302  0.00  0.00    -0.292 OA
ATOM     30  C25 UNL     1       8.126  -3.868 -26.240  0.00  0.00    +0.016 C 
ATOM     31  C26 UNL     1       6.804  -3.479 -26.906  0.00  0.00    -0.023 C 
ATOM     32  C27 UNL     1       6.665  -4.240 -28.237  0.00  0.00    -0.059 C 
ATOM     33  C28 UNL     1       6.777  -1.968 -27.218  0.00  0.00    -0.059 C 
ATOM     34  C29 UNL     1       5.636  -3.872 -25.976  0.00  0.00    -0.008 C 
ATOM     35  C30 UNL     1       8.847  -0.582 -22.314  0.00  0.00    -0.054 A 
ATOM     36  C31 UNL     1       9.233   0.758 -22.416  0.00  0.00    -0.020 A 
ENDROOT
TORSDOF 0
ENDMDL
MODEL 4
REMARK VINA RESULT:    -8.309      3.429      5.159
REMARK INTER + INTRA:          -8.309
REMARK INTER:                  -8.309
REMARK INTRA:                   0.000
REMARK UNBOUND:                 0.000
REMARK  Name = /home/vital/Documents/PhD_2021/Malaria_codes/scripts/../data/pdbqt_ligands/ligand_104_temp.pdb
REMARK                            x       y       z     vdW  Elec       q    Type
REMARK                         _______ _______ _______ _____ _____    ______ ____
ROOT
ATOM      1  C1  UNL     1       5.550  -1.068 -29.782  0.00  0.00    +0.079 C 
ATOM      2  O1  UNL     1       5.884  -2.409 -29.450  0.00  0.00    -0.495 OA
ATOM      3  C2  UNL     1       5.253  -2.954 -28.365  0.00  0.00    +0.120 A 
ATOM      4  C3  UNL     1       4.305  -2.319 -27.563  0.00  0.00    -0.020 A 
ATOM      5  C4  UNL     1       3.736  -2.995 -26.477  0.00  0.00    -0.054 A 
ATOM      6  C5  UNL     1       4.104  -4.318 -26.175  0.00  0.00    -0.035 A 
ATOM      7  C6  UNL     1       3.488  -5.077 -24.992  0.00  0.00    +0.044 C 
ATOM      8  C7  UNL     1       3.784  -4.366 -23.686  0.00  0.00    +0.024 C 
ATOM      9  C8  UNL     1       2.824  -3.728 -22.976  0.00  0.00    +0.024 C 
ATOM     10  C9  UNL     1       3.167  -3.004 -21.677  0.00  0.00    -0.008 C 
ATOM     11  C10 UNL     1       4.474  -3.462 -20.995  0.00  0.00    -0.023 C 
ATOM     12  C11 UNL     1       4.864  -2.441 -19.911  0.00  0.00    -0.059 C 
ATOM     13  C12 UNL     1       4.278  -4.832 -20.311  0.00  0.00    -0.059 C 
ATOM     14  C13 UNL     1       5.588  -3.536 -22.042  0.00  0.00    +0.016 C 
ATOM     15  C14 UNL     1       5.195  -4.415 -23.205  0.00  0.00    +0.162 C 
ATOM     16  O2  UNL     1       6.024  -5.137 -23.755  0.00  0.00    -0.292 OA
ATOM     17  N1  UNL     1       1.472  -3.740 -23.419  0.00  0.00    -0.276 N 
ATOM     18  C15 UNL     1       0.496  -2.966 -22.719  0.00  0.00    +0.038 A 
ATOM     19  C16 UNL     1       0.390  -1.590 -22.951  0.00  0.00    -0.037 A 
ATOM     20  C17 UNL     1      -0.561  -0.831 -22.265  0.00  0.00    -0.018 A 
ATOM     21  C18 UNL     1      -1.416  -1.431 -21.335  0.00  0.00    +0.120 A 
ATOM     22  O3  UNL     1      -2.295  -0.573 -20.735  0.00  0.00    -0.495 OA
ATOM     23  C19 UNL     1      -3.184  -1.131 -19.774  0.00  0.00    +0.079 C 
ATOM     24  C20 UNL     1      -1.313  -2.802 -21.097  0.00  0.00    -0.018 A 
ATOM     25  C21 UNL     1      -0.363  -3.564 -21.785  0.00  0.00    -0.037 A 
ATOM     26  C22 UNL     1       1.074  -4.586 -24.489  0.00  0.00    +0.024 C 
ATOM     27  C23 UNL     1       1.998  -5.267 -25.206  0.00  0.00    +0.024 C 
ATOM     28  C24 UNL     1       1.593  -6.274 -26.230  0.00  0.00    +0.162 C 
ATOM     29  O4  UNL     1       2.431  -7.013 -26.746  0.00  0.00    -0.292 OA
ATOM     30  C25 UNL     1       0.127  -6.445 -26.555  0.00  0.00    +0.016 C 
ATOM     31  C26 UNL     1      -0.695  -5.185 -26.272  0.00  0.00    -0.023 C 
ATOM     32  C27 UNL     1      -2.192  -5.520 -26.400  0.00  0.00    -0.059 C 
ATOM     33  C28 UNL     1      -0.367  -4.079 -27.297  0.00  0.00    -0.059 C 
ATOM     34  C29 UNL     1      -0.406  -4.708 -24.832  0.00  0.00    -0.008 C 
ATOM     35  C30 UNL     1       5.056  -4.944 -26.989  0.00  0.00    -0.054 A 
ATOM     36  C31 UNL     1       5.623  -4.267 -28.072  0.00  0.00    -0.020 A 
ENDROOT
TORSDOF 0
ENDMDL
MODEL 5
REMARK VINA RESULT:    -7.944      2.390      3.515
REMARK INTER + INTRA:          -7.944
REMARK INTER:                  -7.944
REMARK INTRA:                   0.000
REMARK UNBOUND:                 0.000
REMARK  Name = /home/vital/Documents/PhD_2021/Malaria_codes/scripts/../data/pdbqt_ligands/ligand_104_temp.pdb
REMARK                            x       y       z     vdW  Elec       q    Type
REMARK                         _______ _______ _______ _____ _____    ______ ____
ROOT
ATOM      1  C1  UNL     1      -1.526  -0.904 -35.527  0.00  0.00    +0.079 C 
ATOM      2  O1  UNL     1      -0.386  -1.669 -35.896  0.00  0.00    -0.495 OA
ATOM      3  C2  UNL     1       0.157  -2.474 -34.932  0.00  0.00    +0.120 A 
ATOM      4  C3  UNL     1      -0.310  -2.622 -33.627  0.00  0.00    -0.020 A 
ATOM      5  C4  UNL     1       0.344  -3.483 -32.738  0.00  0.00    -0.054 A 
ATOM      6  C5  UNL     1       1.476  -4.213 -33.139  0.00  0.00    -0.035 A 
ATOM      7  C6  UNL     1       2.204  -5.165 -32.181  0.00  0.00    +0.044 C 
ATOM      8  C7  UNL     1       2.731  -4.414 -30.974  0.00  0.00    +0.024 C 
ATOM      9  C8  UNL     1       2.202  -4.568 -29.739  0.00  0.00    +0.024 C 
ATOM     10  C9  UNL     1       2.746  -3.775 -28.553  0.00  0.00    -0.008 C 
ATOM     11  C10 UNL     1       4.177  -3.226 -28.731  0.00  0.00    -0.023 C 
ATOM     12  C11 UNL     1       4.461  -2.185 -27.633  0.00  0.00    -0.059 C 
ATOM     13  C12 UNL     1       5.215  -4.361 -28.591  0.00  0.00    -0.059 C 
ATOM     14  C13 UNL     1       4.292  -2.556 -30.102  0.00  0.00    +0.016 C 
ATOM     15  C14 UNL     1       3.882  -3.495 -31.211  0.00  0.00    +0.162 C 
ATOM     16  O2  UNL     1       4.471  -3.487 -32.290  0.00  0.00    -0.292 OA
ATOM     17  N1  UNL     1       1.142  -5.490 -29.518  0.00  0.00    -0.276 N 
ATOM     18  C15 UNL     1       0.522  -5.556 -28.233  0.00  0.00    +0.038 A 
ATOM     19  C16 UNL     1      -0.443  -4.610 -27.868  0.00  0.00    -0.037 A 
ATOM     20  C17 UNL     1      -1.047  -4.669 -26.610  0.00  0.00    -0.018 A 
ATOM     21  C18 UNL     1      -0.697  -5.669 -25.697  0.00  0.00    +0.120 A 
ATOM     22  O3  UNL     1      -1.363  -5.609 -24.505  0.00  0.00    -0.495 OA
ATOM     23  C19 UNL     1      -1.039  -6.599 -23.536  0.00  0.00    +0.079 C 
ATOM     24  C20 UNL     1       0.266  -6.613 -26.054  0.00  0.00    -0.018 A 
ATOM     25  C21 UNL     1       0.872  -6.557 -27.314  0.00  0.00    -0.037 A 
ATOM     26  C22 UNL     1       0.764  -6.407 -30.537  0.00  0.00    +0.024 C 
ATOM     27  C23 UNL     1       1.291  -6.308 -31.779  0.00  0.00    +0.024 C 
ATOM     28  C24 UNL     1       1.025  -7.348 -32.816  0.00  0.00    +0.162 C 
ATOM     29  O4  UNL     1       1.648  -7.345 -33.877  0.00  0.00    -0.292 OA
ATOM     30  C25 UNL     1       0.052  -8.462 -32.509  0.00  0.00    +0.016 C 
ATOM     31  C26 UNL     1      -0.984  -8.072 -31.453  0.00  0.00    -0.023 C 
ATOM     32  C27 UNL     1      -1.771  -9.326 -31.031  0.00  0.00    -0.059 C 
ATOM     33  C28 UNL     1      -1.989  -7.052 -32.028  0.00  0.00    -0.059 C 
ATOM     34  C29 UNL     1      -0.255  -7.496 -30.220  0.00  0.00    -0.008 C 
ATOM     35  C30 UNL     1       1.935  -4.057 -34.453  0.00  0.00    -0.054 A 
ATOM     36  C31 UNL     1       1.280  -3.196 -35.338  0.00  0.00    -0.020 A 
ENDROOT
TORSDOF 0
ENDMDL
MODEL 6
REMARK VINA RESULT:    -7.943      5.534      9.299
REMARK INTER + INTRA:          -7.943
REMARK INTER:                  -7.943
REMARK INTRA:                   0.000
REMARK UNBOUND:                 0.000
REMARK  Name = /home/vital/Documents/PhD_2021/Malaria_codes/scripts/../data/pdbqt_ligands/ligand_104_temp.pdb
REMARK                            x       y       z     vdW  Elec       q    Type
REMARK                         _______ _______ _______ _____ _____    ______ ____
ROOT
ATOM      1  C1  UNL     1       3.674  -2.539 -26.479  0.00  0.00    +0.079 C 
ATOM      2  O1  UNL     1       3.616  -3.226 -25.236  0.00  0.00    -0.495 OA
ATOM      3  C2  UNL     1       2.431  -3.171 -24.554  0.00  0.00    +0.120 A 
ATOM      4  C3  UNL     1       1.274  -2.514 -24.970  0.00  0.00    -0.020 A 
ATOM      5  C4  UNL     1       0.125  -2.537 -24.170  0.00  0.00    -0.054 A 
ATOM      6  C5  UNL     1       0.113  -3.218 -22.941  0.00  0.00    -0.035 A 
ATOM      7  C6  UNL     1      -1.137  -3.258 -22.052  0.00  0.00    +0.044 C 
ATOM      8  C7  UNL     1      -1.545  -1.858 -21.636  0.00  0.00    +0.024 C 
ATOM      9  C8  UNL     1      -2.660  -1.257 -22.113  0.00  0.00    +0.024 C 
ATOM     10  C9  UNL     1      -3.023   0.162 -21.687  0.00  0.00    -0.008 C 
ATOM     11  C10 UNL     1      -2.380   0.638 -20.367  0.00  0.00    -0.023 C 
ATOM     12  C11 UNL     1      -2.551   2.162 -20.240  0.00  0.00    -0.059 C 
ATOM     13  C12 UNL     1      -3.074  -0.023 -19.157  0.00  0.00    -0.059 C 
ATOM     14  C13 UNL     1      -0.888   0.298 -20.385  0.00  0.00    +0.016 C 
ATOM     15  C14 UNL     1      -0.658  -1.169 -20.654  0.00  0.00    +0.162 C 
ATOM     16  O2  UNL     1       0.251  -1.776 -20.091  0.00  0.00    -0.292 OA
ATOM     17  N1  UNL     1      -3.526  -1.949 -23.005  0.00  0.00    -0.276 N 
ATOM     18  C15 UNL     1      -4.634  -1.260 -23.586  0.00  0.00    +0.038 A 
ATOM     19  C16 UNL     1      -4.440  -0.416 -24.687  0.00  0.00    -0.037 A 
ATOM     20  C17 UNL     1      -5.522   0.262 -25.253  0.00  0.00    -0.018 A 
ATOM     21  C18 UNL     1      -6.810   0.113 -24.729  0.00  0.00    +0.120 A 
ATOM     22  O3  UNL     1      -7.774   0.835 -25.378  0.00  0.00    -0.495 OA
ATOM     23  C19 UNL     1      -9.102   0.725 -24.881  0.00  0.00    +0.079 C 
ATOM     24  C20 UNL     1      -7.009  -0.723 -23.631  0.00  0.00    -0.018 A 
ATOM     25  C21 UNL     1      -5.928  -1.405 -23.063  0.00  0.00    -0.037 A 
ATOM     26  C22 UNL     1      -3.349  -3.339 -23.245  0.00  0.00    +0.024 C 
ATOM     27  C23 UNL     1      -2.264  -3.987 -22.760  0.00  0.00    +0.024 C 
ATOM     28  C24 UNL     1      -2.136  -5.469 -22.869  0.00  0.00    +0.162 C 
ATOM     29  O4  UNL     1      -1.241  -6.065 -22.272  0.00  0.00    -0.292 OA
ATOM     30  C25 UNL     1      -3.179  -6.243 -23.642  0.00  0.00    +0.016 C 
ATOM     31  C26 UNL     1      -3.874  -5.398 -24.712  0.00  0.00    -0.023 C 
ATOM     32  C27 UNL     1      -5.071  -6.184 -25.277  0.00  0.00    -0.059 C 
ATOM     33  C28 UNL     1      -2.910  -5.095 -25.879  0.00  0.00    -0.059 C 
ATOM     34  C29 UNL     1      -4.388  -4.093 -24.067  0.00  0.00    -0.008 C 
ATOM     35  C30 UNL     1       1.282  -3.875 -22.534  0.00  0.00    -0.054 A 
ATOM     36  C31 UNL     1       2.427  -3.850 -23.335  0.00  0.00    -0.020 A 
ENDROOT
TORSDOF 0
ENDMDL
MODEL 7
REMARK VINA RESULT:    -7.936      5.506     10.624
REMARK INTER + INTRA:          -7.936
REMARK INTER:                  -7.936
REMARK INTRA:                   0.000
REMARK UNBOUND:                 0.000
REMARK  Name = /home/vital/Documents/PhD_2021/Malaria_codes/scripts/../data/pdbqt_ligands/ligand_104_temp.pdb
REMARK                            x       y       z     vdW  Elec       q    Type
REMARK                         _______ _______ _______ _____ _____    ______ ____
ROOT
ATOM      1  C1  UNL     1       0.178  -0.359 -20.802  0.00  0.00    +0.079 C 
ATOM      2  O1  UNL     1       0.757  -1.597 -20.412  0.00  0.00    -0.495 OA
ATOM      3  C2  UNL     1       2.030  -1.848 -20.846  0.00  0.00    +0.120 A 
ATOM      4  C3  UNL     1       2.815  -0.998 -21.624  0.00  0.00    -0.020 A 
ATOM      5  C4  UNL     1       4.108  -1.382 -22.001  0.00  0.00    -0.054 A 
ATOM      6  C5  UNL     1       4.639  -2.622 -21.606  0.00  0.00    -0.035 A 
ATOM      7  C6  UNL     1       6.054  -3.058 -22.005  0.00  0.00    +0.044 C 
ATOM      8  C7  UNL     1       6.189  -3.129 -23.513  0.00  0.00    +0.024 C 
ATOM      9  C8  UNL     1       6.932  -2.243 -24.216  0.00  0.00    +0.024 C 
ATOM     10  C9  UNL     1       7.024  -2.335 -25.736  0.00  0.00    -0.008 C 
ATOM     11  C10 UNL     1       6.677  -3.715 -26.333  0.00  0.00    -0.023 C 
ATOM     12  C11 UNL     1       6.480  -3.575 -27.854  0.00  0.00    -0.059 C 
ATOM     13  C12 UNL     1       7.828  -4.715 -26.092  0.00  0.00    -0.059 C 
ATOM     14  C13 UNL     1       5.379  -4.224 -25.702  0.00  0.00    +0.016 C 
ATOM     15  C14 UNL     1       5.468  -4.243 -24.196  0.00  0.00    +0.162 C 
ATOM     16  O2  UNL     1       4.940  -5.144 -23.546  0.00  0.00    -0.292 OA
ATOM     17  N1  UNL     1       7.661  -1.221 -23.545  0.00  0.00    -0.276 N 
ATOM     18  C15 UNL     1       8.346  -0.228 -24.310  0.00  0.00    +0.038 A 
ATOM     19  C16 UNL     1       7.642   0.854 -24.850  0.00  0.00    -0.037 A 
ATOM     20  C17 UNL     1       8.309   1.824 -25.602  0.00  0.00    -0.018 A 
ATOM     21  C18 UNL     1       9.685   1.727 -25.829  0.00  0.00    +0.120 A 
ATOM     22  O3  UNL     1      10.210   2.742 -26.581  0.00  0.00    -0.495 OA
ATOM     23  C19 UNL     1      11.606   2.688 -26.849  0.00  0.00    +0.079 C 
ATOM     24  C20 UNL     1      10.392   0.650 -25.296  0.00  0.00    -0.018 A 
ATOM     25  C21 UNL     1       9.727  -0.322 -24.541  0.00  0.00    -0.037 A 
ATOM     26  C22 UNL     1       7.787  -1.240 -22.129  0.00  0.00    +0.024 C 
ATOM     27  C23 UNL     1       7.085  -2.130 -21.389  0.00  0.00    +0.024 C 
ATOM     28  C24 UNL     1       7.317  -2.268 -19.922  0.00  0.00    +0.162 C 
ATOM     29  O4  UNL     1       6.809  -3.195 -19.293  0.00  0.00    -0.292 OA
ATOM     30  C25 UNL     1       8.263  -1.312 -19.233  0.00  0.00    +0.016 C 
ATOM     31  C26 UNL     1       8.390   0.028 -19.962  0.00  0.00    -0.023 C 
ATOM     32  C27 UNL     1       9.540   0.837 -19.336  0.00  0.00    -0.059 C 
ATOM     33  C28 UNL     1       7.093   0.852 -19.815  0.00  0.00    -0.059 C 
ATOM     34  C29 UNL     1       8.710  -0.237 -21.449  0.00  0.00    -0.008 C 
ATOM     35  C30 UNL     1       3.840  -3.467 -20.824  0.00  0.00    -0.054 A 
ATOM     36  C31 UNL     1       2.550  -3.081 -20.450  0.00  0.00    -0.020 A 
ENDROOT
TORSDOF 0
ENDMDL
MODEL 8
REMARK VINA RESULT:    -7.813      3.579      9.072
REMARK INTER + INTRA:          -7.813
REMARK INTER:                  -7.813
REMARK INTRA:                   0.000
REMARK UNBOUND:                 0.000
REMARK  Name = /home/vital/Documents/PhD_2021/Malaria_codes/scripts/../data/pdbqt_ligands/ligand_104_temp.pdb
REMARK                            x       y       z     vdW  Elec       q    Type
REMARK                         _______ _______ _______ _____ _____    ______ ____
ROOT
ATOM      1  C1  UNL     1       2.679  -2.297 -21.288  0.00  0.00    +0.079 C 
ATOM      2  O1  UNL     1       3.554  -3.376 -21.591  0.00  0.00    -0.495 OA
ATOM      3  C2  UNL     1       4.301  -3.264 -22.732  0.00  0.00    +0.120 A 
ATOM      4  C3  UNL     1       4.291  -2.187 -23.617  0.00  0.00    -0.020 A 
ATOM      5  C4  UNL     1       5.108  -2.203 -24.754  0.00  0.00    -0.054 A 
ATOM      6  C5  UNL     1       5.950  -3.295 -25.025  0.00  0.00    -0.035 A 
ATOM      7  C6  UNL     1       6.856  -3.330 -26.263  0.00  0.00    +0.044 C 
ATOM      8  C7  UNL     1       6.033  -3.250 -27.533  0.00  0.00    +0.024 C 
ATOM      9  C8  UNL     1       6.032  -2.155 -28.327  0.00  0.00    +0.024 C 
ATOM     10  C9  UNL     1       5.171  -2.106 -29.587  0.00  0.00    -0.008 C 
ATOM     11  C10 UNL     1       4.743  -3.479 -30.144  0.00  0.00    -0.023 C 
ATOM     12  C11 UNL     1       3.625  -3.279 -31.183  0.00  0.00    -0.059 C 
ATOM     13  C12 UNL     1       5.929  -4.172 -30.848  0.00  0.00    -0.059 C 
ATOM     14  C13 UNL     1       4.216  -4.345 -28.998  0.00  0.00    +0.016 C 
ATOM     15  C14 UNL     1       5.224  -4.455 -27.880  0.00  0.00    +0.162 C 
ATOM     16  O2  UNL     1       5.359  -5.506 -27.257  0.00  0.00    -0.292 OA
ATOM     17  N1  UNL     1       6.853  -1.036 -28.014  0.00  0.00    -0.276 N 
ATOM     18  C15 UNL     1       6.754   0.153 -28.800  0.00  0.00    +0.038 A 
ATOM     19  C16 UNL     1       5.712   1.060 -28.574  0.00  0.00    -0.037 A 
ATOM     20  C17 UNL     1       5.610   2.220 -29.345  0.00  0.00    -0.018 A 
ATOM     21  C18 UNL     1       6.540   2.491 -30.352  0.00  0.00    +0.120 A 
ATOM     22  O3  UNL     1       6.322   3.659 -31.030  0.00  0.00    -0.495 OA
ATOM     23  C19 UNL     1       7.236   3.980 -32.071  0.00  0.00    +0.079 C 
ATOM     24  C20 UNL     1       7.579   1.590 -30.584  0.00  0.00    -0.018 A 
ATOM     25  C21 UNL     1       7.685   0.428 -29.813  0.00  0.00    -0.037 A 
ATOM     26  C22 UNL     1       7.834  -1.129 -26.989  0.00  0.00    +0.024 C 
ATOM     27  C23 UNL     1       7.890  -2.221 -26.190  0.00  0.00    +0.024 C 
ATOM     28  C24 UNL     1       9.001  -2.406 -25.212  0.00  0.00    +0.162 C 
ATOM     29  O4  UNL     1       9.143  -3.476 -24.622  0.00  0.00    -0.292 OA
ATOM     30  C25 UNL     1      10.011  -1.297 -25.026  0.00  0.00    +0.016 C 
ATOM     31  C26 UNL     1       9.451   0.082 -25.382  0.00  0.00    -0.023 C 
ATOM     32  C27 UNL     1      10.601   1.105 -25.396  0.00  0.00    -0.059 C 
ATOM     33  C28 UNL     1       8.421   0.539 -24.327  0.00  0.00    -0.059 C 
ATOM     34  C29 UNL     1       8.813   0.020 -26.786  0.00  0.00    -0.008 C 
ATOM     35  C30 UNL     1       5.952  -4.371 -24.127  0.00  0.00    -0.054 A 
ATOM     36  C31 UNL     1       5.134  -4.352 -22.994  0.00  0.00    -0.020 A 
ENDROOT
TORSDOF 0
ENDMDL
MODEL 9
REMARK VINA RESULT:    -7.779      1.863      7.910
REMARK INTER + INTRA:          -7.779
REMARK INTER:                  -7.779
REMARK INTRA:                   0.000
REMARK UNBOUND:                 0.000
REMARK  Name = /home/vital/Documents/PhD_2021/Malaria_codes/scripts/../data/pdbqt_ligands/ligand_104_temp.pdb
REMARK                            x       y       z     vdW  Elec       q    Type
REMARK                         _______ _______ _______ _____ _____    ______ ____
ROOT
ATOM      1  C1  UNL     1      -1.572  -2.865 -24.679  0.00  0.00    +0.079 C 
ATOM      2  O1  UNL     1      -0.938  -4.130 -24.817  0.00  0.00    -0.495 OA
ATOM      3  C2  UNL     1       0.042  -4.230 -25.766  0.00  0.00    +0.120 A 
ATOM      4  C3  UNL     1       0.484  -3.205 -26.601  0.00  0.00    -0.020 A 
ATOM      5  C4  UNL     1       1.500  -3.446 -27.534  0.00  0.00    -0.054 A 
ATOM      6  C5  UNL     1       2.092  -4.715 -27.647  0.00  0.00    -0.035 A 
ATOM      7  C6  UNL     1       3.210  -4.998 -28.660  0.00  0.00    +0.044 C 
ATOM      8  C7  UNL     1       2.725  -4.754 -30.076  0.00  0.00    +0.024 C 
ATOM      9  C8  UNL     1       3.161  -3.711 -30.820  0.00  0.00    +0.024 C 
ATOM     10  C9  UNL     1       2.631  -3.487 -32.233  0.00  0.00    -0.008 C 
ATOM     11  C10 UNL     1       2.016  -4.731 -32.910  0.00  0.00    -0.023 C 
ATOM     12  C11 UNL     1       1.232  -4.293 -34.160  0.00  0.00    -0.059 C 
ATOM     13  C12 UNL     1       3.124  -5.707 -33.360  0.00  0.00    -0.059 C 
ATOM     14  C13 UNL     1       1.060  -5.415 -31.929  0.00  0.00    +0.016 C 
ATOM     15  C14 UNL     1       1.745  -5.736 -30.623  0.00  0.00    +0.162 C 
ATOM     16  O2  UNL     1       1.485  -6.773 -30.016  0.00  0.00    -0.292 OA
ATOM     17  N1  UNL     1       4.139  -2.816 -30.304  0.00  0.00    -0.276 N 
ATOM     18  C15 UNL     1       4.501  -1.658 -31.059  0.00  0.00    +0.038 A 
ATOM     19  C16 UNL     1       3.685  -0.521 -31.038  0.00  0.00    -0.037 A 
ATOM     20  C17 UNL     1       4.035   0.610 -31.778  0.00  0.00    -0.018 A 
ATOM     21  C18 UNL     1       5.199   0.623 -32.553  0.00  0.00    +0.120 A 
ATOM     22  O3  UNL     1       5.420   1.792 -33.227  0.00  0.00    -0.495 OA
ATOM     23  C19 UNL     1       6.588   1.857 -34.037  0.00  0.00    +0.079 C 
ATOM     24  C20 UNL     1       6.015  -0.507 -32.580  0.00  0.00    -0.018 A 
ATOM     25  C21 UNL     1       5.668  -1.641 -31.837  0.00  0.00    -0.037 A 
ATOM     26  C22 UNL     1       4.821  -3.117 -29.094  0.00  0.00    +0.024 C 
ATOM     27  C23 UNL     1       4.439  -4.169 -28.334  0.00  0.00    +0.024 C 
ATOM     28  C24 UNL     1       5.233  -4.593 -27.144  0.00  0.00    +0.162 C 
ATOM     29  O4  UNL     1       4.982  -5.651 -26.568  0.00  0.00    -0.292 OA
ATOM     30  C25 UNL     1       6.415  -3.756 -26.712  0.00  0.00    +0.016 C 
ATOM     31  C26 UNL     1       6.295  -2.292 -27.141  0.00  0.00    -0.023 C 
ATOM     32  C27 UNL     1       7.632  -1.576 -26.877  0.00  0.00    -0.059 C 
ATOM     33  C28 UNL     1       5.202  -1.573 -26.321  0.00  0.00    -0.059 C 
ATOM     34  C29 UNL     1       5.981  -2.233 -28.651  0.00  0.00    -0.008 C 
ATOM     35  C30 UNL     1       1.640  -5.737 -26.801  0.00  0.00    -0.054 A 
ATOM     36  C31 UNL     1       0.625  -5.493 -25.872  0.00  0.00    -0.020 A 
ENDROOT
TORSDOF 0
ENDMDL
