MODEL 1
REMARK VINA RESULT:    -7.830      0.000      0.000
REMARK INTER + INTRA:          -7.830
REMARK INTER:                  -7.830
REMARK INTRA:                   0.000
REMARK UNBOUND:                 0.000
REMARK  Name = /home/vital/Documents/PhD_2021/Malaria_codes/scripts/../data/pdbqt_ligands/ligand_340_temp.pdb
REMARK                            x       y       z     vdW  Elec       q    Type
REMARK                         _______ _______ _______ _____ _____    ______ ____
ROOT
ATOM      1  C1  UNL     1       0.338  -3.773 -21.526  0.00  0.00    +0.079 C 
ATOM      2  O1  UNL     1      -1.070  -3.981 -21.574  0.00  0.00    -0.495 OA
ATOM      3  C2  UNL     1      -1.864  -2.971 -21.101  0.00  0.00    +0.122 A 
ATOM      4  C3  UNL     1      -3.208  -3.310 -20.943  0.00  0.00    -0.020 A 
ATOM      5  C4  UNL     1      -4.123  -2.368 -20.482  0.00  0.00    -0.056 A 
ATOM      6  C5  UNL     1      -3.698  -1.075 -20.172  0.00  0.00    -0.038 A 
ATOM      7  C6  UNL     1      -2.348  -0.717 -20.322  0.00  0.00    +0.052 A 
ATOM      8  N1  UNL     1      -1.941   0.619 -20.016  0.00  0.00    -0.294 N 
ATOM      9  C7  UNL     1      -2.777   1.724 -20.085  0.00  0.00    +0.030 A 
ATOM     10  C8  UNL     1      -2.012   2.822 -19.787  0.00  0.00    +0.047 A 
ATOM     11  N2  UNL     1      -0.736   2.452 -19.487  0.00  0.00    -0.230 NA
ATOM     12  C9  UNL     1      -0.708   1.140 -19.628  0.00  0.00    +0.174 A 
ATOM     13  S1  UNL     1       0.692   0.211 -19.178  0.00  0.00    -0.078 S 
ATOM     14  C10 UNL     1       2.012   1.428 -19.460  0.00  0.00    +0.078 C 
ATOM     15  C11 UNL     1       2.408   2.176 -18.196  0.00  0.00    +0.228 C 
ATOM     16  O2  UNL     1       3.601   2.324 -17.929  0.00  0.00    -0.275 OA
ATOM     17  N3  UNL     1       1.351   2.761 -17.522  0.00  0.00    -0.282 N 
ATOM     18  C12 UNL     1       1.417   3.425 -16.273  0.00  0.00    +0.079 A 
ATOM     19  C13 UNL     1       0.541   4.513 -16.045  0.00  0.00    -0.026 A 
ATOM     20  C14 UNL     1      -0.444   4.985 -17.081  0.00  0.00    -0.038 C 
ATOM     21  C15 UNL     1       0.577   5.186 -14.811  0.00  0.00    -0.057 A 
ATOM     22  C16 UNL     1       1.455   4.787 -13.804  0.00  0.00    -0.058 A 
ATOM     23  C17 UNL     1       2.291   3.694 -14.010  0.00  0.00    -0.018 A 
ATOM     24  C18 UNL     1       2.280   3.014 -15.235  0.00  0.00    +0.141 A 
ATOM     25  O3  UNL     1       2.973   1.833 -15.353  0.00  0.00    -0.493 OA
ATOM     26  C19 UNL     1       4.363   1.982 -15.066  0.00  0.00    +0.079 C 
ATOM     27  C20 UNL     1      -1.441  -1.671 -20.806  0.00  0.00    +0.004 A 
ATOM     28  H   UNL     1       0.466   2.711 -17.952  0.00  0.00    +0.000 HD
ENDROOT
TORSDOF 0
ENDMDL
MODEL 2
REMARK VINA RESULT:    -7.549      9.951     15.358
REMARK INTER + INTRA:          -7.549
REMARK INTER:                  -7.549
REMARK INTRA:                   0.000
REMARK UNBOUND:                 0.000
REMARK  Name = /home/vital/Documents/PhD_2021/Malaria_codes/scripts/../data/pdbqt_ligands/ligand_340_temp.pdb
REMARK                            x       y       z     vdW  Elec       q    Type
REMARK                         _______ _______ _______ _____ _____    ______ ____
ROOT
ATOM      1  C1  UNL     1       3.693  -4.040 -23.417  0.00  0.00    +0.079 C 
ATOM      2  O1  UNL     1       5.116  -3.997 -23.368  0.00  0.00    -0.495 OA
ATOM      3  C2  UNL     1       5.781  -4.057 -24.563  0.00  0.00    +0.122 A 
ATOM      4  C3  UNL     1       7.157  -4.254 -24.456  0.00  0.00    -0.020 A 
ATOM      5  C4  UNL     1       7.951  -4.321 -25.597  0.00  0.00    -0.056 A 
ATOM      6  C5  UNL     1       7.370  -4.189 -26.860  0.00  0.00    -0.038 A 
ATOM      7  C6  UNL     1       5.985  -3.993 -26.988  0.00  0.00    +0.052 A 
ATOM      8  N1  UNL     1       5.417  -3.843 -28.291  0.00  0.00    -0.294 N 
ATOM      9  C7  UNL     1       6.109  -3.359 -29.391  0.00  0.00    +0.030 A 
ATOM     10  C8  UNL     1       5.215  -3.300 -30.429  0.00  0.00    +0.047 A 
ATOM     11  N2  UNL     1       3.997  -3.772 -30.042  0.00  0.00    -0.230 NA
ATOM     12  C9  UNL     1       4.132  -4.089 -28.768  0.00  0.00    +0.174 A 
ATOM     13  S1  UNL     1       2.861  -4.898 -27.899  0.00  0.00    -0.078 S 
ATOM     14  C10 UNL     1       1.398  -4.282 -28.783  0.00  0.00    +0.078 C 
ATOM     15  C11 UNL     1       0.920  -5.231 -29.871  0.00  0.00    +0.228 C 
ATOM     16  O2  UNL     1      -0.280  -5.490 -29.964  0.00  0.00    -0.275 OA
ATOM     17  N3  UNL     1       1.901  -5.612 -30.771  0.00  0.00    -0.282 N 
ATOM     18  C12 UNL     1       1.761  -6.560 -31.813  0.00  0.00    +0.079 A 
ATOM     19  C13 UNL     1       2.496  -6.359 -33.005  0.00  0.00    -0.026 A 
ATOM     20  C14 UNL     1       3.408  -5.177 -33.200  0.00  0.00    -0.038 C 
ATOM     21  C15 UNL     1       2.385  -7.288 -34.054  0.00  0.00    -0.057 A 
ATOM     22  C16 UNL     1       1.569  -8.413 -33.930  0.00  0.00    -0.058 A 
ATOM     23  C17 UNL     1       0.875  -8.635 -32.745  0.00  0.00    -0.018 A 
ATOM     24  C18 UNL     1       0.963  -7.717 -31.690  0.00  0.00    +0.141 A 
ATOM     25  O3  UNL     1       0.421  -8.045 -30.470  0.00  0.00    -0.493 OA
ATOM     26  C19 UNL     1      -0.975  -8.331 -30.548  0.00  0.00    +0.079 C 
ATOM     27  C20 UNL     1       5.201  -3.910 -25.828  0.00  0.00    +0.004 A 
ATOM     28  H   UNL     1       2.782  -5.182 -30.677  0.00  0.00    +0.000 HD
ENDROOT
TORSDOF 0
ENDMDL
MODEL 3
REMARK VINA RESULT:    -7.512      9.307     14.891
REMARK INTER + INTRA:          -7.512
REMARK INTER:                  -7.512
REMARK INTRA:                   0.000
REMARK UNBOUND:                 0.000
REMARK  Name = /home/vital/Documents/PhD_2021/Malaria_codes/scripts/../data/pdbqt_ligands/ligand_340_temp.pdb
REMARK                            x       y       z     vdW  Elec       q    Type
REMARK                         _______ _______ _______ _____ _____    ______ ____
ROOT
ATOM      1  C1  UNL     1       2.437  -3.616 -22.973  0.00  0.00    +0.079 C 
ATOM      2  O1  UNL     1       3.803  -3.883 -22.670  0.00  0.00    -0.495 OA
ATOM      3  C2  UNL     1       4.614  -4.235 -23.715  0.00  0.00    +0.122 A 
ATOM      4  C3  UNL     1       5.868  -4.718 -23.343  0.00  0.00    -0.020 A 
ATOM      5  C4  UNL     1       6.793  -5.097 -24.312  0.00  0.00    -0.056 A 
ATOM      6  C5  UNL     1       6.467  -4.996 -25.666  0.00  0.00    -0.038 A 
ATOM      7  C6  UNL     1       5.207  -4.515 -26.059  0.00  0.00    +0.052 A 
ATOM      8  N1  UNL     1       4.904  -4.403 -27.452  0.00  0.00    -0.294 N 
ATOM      9  C7  UNL     1       5.857  -4.223 -28.444  0.00  0.00    +0.030 A 
ATOM     10  C8  UNL     1       5.178  -4.095 -29.629  0.00  0.00    +0.047 A 
ATOM     11  N2  UNL     1       3.837  -4.234 -29.432  0.00  0.00    -0.230 NA
ATOM     12  C9  UNL     1       3.689  -4.415 -28.133  0.00  0.00    +0.174 A 
ATOM     13  S1  UNL     1       2.142  -4.809 -27.445  0.00  0.00    -0.078 S 
ATOM     14  C10 UNL     1       1.027  -3.998 -28.628  0.00  0.00    +0.078 C 
ATOM     15  C11 UNL     1       0.513  -4.943 -29.703  0.00  0.00    +0.228 C 
ATOM     16  O2  UNL     1      -0.684  -4.939 -29.992  0.00  0.00    -0.275 OA
ATOM     17  N3  UNL     1       1.503  -5.639 -30.375  0.00  0.00    -0.282 N 
ATOM     18  C12 UNL     1       1.306  -6.653 -31.344  0.00  0.00    +0.079 A 
ATOM     19  C13 UNL     1       2.247  -6.767 -32.395  0.00  0.00    -0.026 A 
ATOM     20  C14 UNL     1       3.434  -5.849 -32.517  0.00  0.00    -0.038 C 
ATOM     21  C15 UNL     1       2.083  -7.770 -33.367  0.00  0.00    -0.057 A 
ATOM     22  C16 UNL     1       1.013  -8.662 -33.301  0.00  0.00    -0.058 A 
ATOM     23  C17 UNL     1       0.108  -8.578 -32.248  0.00  0.00    -0.018 A 
ATOM     24  C18 UNL     1       0.245  -7.581 -31.273  0.00  0.00    +0.141 A 
ATOM     25  O3  UNL     1      -0.544  -7.628 -30.149  0.00  0.00    -0.493 OA
ATOM     26  C19 UNL     1      -1.938  -7.605 -30.456  0.00  0.00    +0.079 C 
ATOM     27  C20 UNL     1       4.293  -4.119 -25.072  0.00  0.00    +0.004 A 
ATOM     28  H   UNL     1       2.435  -5.407 -30.158  0.00  0.00    +0.000 HD
ENDROOT
TORSDOF 0
ENDMDL
MODEL 4
REMARK VINA RESULT:    -7.041      5.889      8.173
REMARK INTER + INTRA:          -7.041
REMARK INTER:                  -7.041
REMARK INTRA:                   0.000
REMARK UNBOUND:                 0.000
REMARK  Name = /home/vital/Documents/PhD_2021/Malaria_codes/scripts/../data/pdbqt_ligands/ligand_340_temp.pdb
REMARK                            x       y       z     vdW  Elec       q    Type
REMARK                         _______ _______ _______ _____ _____    ______ ____
ROOT
ATOM      1  C1  UNL     1       5.885  -5.035 -25.079  0.00  0.00    +0.079 C 
ATOM      2  O1  UNL     1       7.080  -4.410 -25.537  0.00  0.00    -0.495 OA
ATOM      3  C2  UNL     1       7.629  -3.451 -24.729  0.00  0.00    +0.122 A 
ATOM      4  C3  UNL     1       8.647  -2.703 -25.319  0.00  0.00    -0.020 A 
ATOM      5  C4  UNL     1       9.296  -1.704 -24.600  0.00  0.00    -0.056 A 
ATOM      6  C5  UNL     1       8.928  -1.444 -23.279  0.00  0.00    -0.038 A 
ATOM      7  C6  UNL     1       7.902  -2.185 -22.668  0.00  0.00    +0.052 A 
ATOM      8  N1  UNL     1       7.557  -1.912 -21.308  0.00  0.00    -0.294 N 
ATOM      9  C7  UNL     1       8.432  -1.379 -20.374  0.00  0.00    +0.030 A 
ATOM     10  C8  UNL     1       7.759  -1.329 -19.180  0.00  0.00    +0.047 A 
ATOM     11  N2  UNL     1       6.477  -1.766 -19.332  0.00  0.00    -0.230 NA
ATOM     12  C9  UNL     1       6.372  -2.110 -20.602  0.00  0.00    +0.174 A 
ATOM     13  S1  UNL     1       4.843  -2.571 -21.290  0.00  0.00    -0.078 S 
ATOM     14  C10 UNL     1       4.012  -3.271 -19.835  0.00  0.00    +0.078 C 
ATOM     15  C11 UNL     1       3.111  -2.271 -19.127  0.00  0.00    +0.228 C 
ATOM     16  O2  UNL     1       1.980  -2.612 -18.784  0.00  0.00    -0.275 OA
ATOM     17  N3  UNL     1       3.729  -1.076 -18.798  0.00  0.00    -0.282 N 
ATOM     18  C12 UNL     1       3.107   0.062 -18.232  0.00  0.00    +0.079 A 
ATOM     19  C13 UNL     1       3.861   0.866 -17.344  0.00  0.00    -0.026 A 
ATOM     20  C14 UNL     1       5.287   0.547 -16.982  0.00  0.00    -0.038 C 
ATOM     21  C15 UNL     1       3.273   2.008 -16.774  0.00  0.00    -0.057 A 
ATOM     22  C16 UNL     1       1.961   2.367 -17.081  0.00  0.00    -0.058 A 
ATOM     23  C17 UNL     1       1.229   1.602 -17.984  0.00  0.00    -0.018 A 
ATOM     24  C18 UNL     1       1.791   0.454 -18.557  0.00  0.00    +0.141 A 
ATOM     25  O3  UNL     1       1.125  -0.180 -19.579  0.00  0.00    -0.493 OA
ATOM     26  C19 UNL     1      -0.185  -0.603 -19.201  0.00  0.00    +0.079 C 
ATOM     27  C20 UNL     1       7.270  -3.201 -23.400  0.00  0.00    +0.004 A 
ATOM     28  H   UNL     1       4.696  -1.012 -18.976  0.00  0.00    +0.000 HD
ENDROOT
TORSDOF 0
ENDMDL
MODEL 5
REMARK VINA RESULT:    -6.864      7.085      9.859
REMARK INTER + INTRA:          -6.864
REMARK INTER:                  -6.864
REMARK INTRA:                   0.000
REMARK UNBOUND:                 0.000
REMARK  Name = /home/vital/Documents/PhD_2021/Malaria_codes/scripts/../data/pdbqt_ligands/ligand_340_temp.pdb
REMARK                            x       y       z     vdW  Elec       q    Type
REMARK                         _______ _______ _______ _____ _____    ______ ____
ROOT
ATOM      1  C1  UNL     1       4.024  -5.607 -26.733  0.00  0.00    +0.079 C 
ATOM      2  O1  UNL     1       4.971  -4.689 -26.194  0.00  0.00    -0.495 OA
ATOM      3  C2  UNL     1       4.567  -3.938 -25.122  0.00  0.00    +0.122 A 
ATOM      4  C3  UNL     1       5.428  -2.894 -24.784  0.00  0.00    -0.020 A 
ATOM      5  C4  UNL     1       5.139  -2.064 -23.705  0.00  0.00    -0.056 A 
ATOM      6  C5  UNL     1       3.982  -2.273 -22.954  0.00  0.00    -0.038 A 
ATOM      7  C6  UNL     1       3.101  -3.317 -23.281  0.00  0.00    +0.052 A 
ATOM      8  N1  UNL     1       1.931  -3.522 -22.485  0.00  0.00    -0.294 N 
ATOM      9  C7  UNL     1       1.823  -3.158 -21.151  0.00  0.00    +0.030 A 
ATOM     10  C8  UNL     1       0.589  -3.575 -20.723  0.00  0.00    +0.047 A 
ATOM     11  N2  UNL     1      -0.106  -4.148 -21.746  0.00  0.00    -0.230 NA
ATOM     12  C9  UNL     1       0.705  -4.110 -22.786  0.00  0.00    +0.174 A 
ATOM     13  S1  UNL     1       0.166  -4.585 -24.370  0.00  0.00    -0.078 S 
ATOM     14  C10 UNL     1      -1.104  -5.813 -23.943  0.00  0.00    +0.078 C 
ATOM     15  C11 UNL     1      -2.507  -5.228 -23.912  0.00  0.00    +0.228 C 
ATOM     16  O2  UNL     1      -3.428  -5.834 -24.460  0.00  0.00    -0.275 OA
ATOM     17  N3  UNL     1      -2.641  -4.103 -23.117  0.00  0.00    -0.282 N 
ATOM     18  C12 UNL     1      -3.801  -3.301 -22.987  0.00  0.00    +0.079 A 
ATOM     19  C13 UNL     1      -4.055  -2.687 -21.737  0.00  0.00    -0.026 A 
ATOM     20  C14 UNL     1      -3.143  -2.865 -20.553  0.00  0.00    -0.038 C 
ATOM     21  C15 UNL     1      -5.193  -1.878 -21.581  0.00  0.00    -0.057 A 
ATOM     22  C16 UNL     1      -6.069  -1.661 -22.644  0.00  0.00    -0.058 A 
ATOM     23  C17 UNL     1      -5.802  -2.230 -23.885  0.00  0.00    -0.018 A 
ATOM     24  C18 UNL     1      -4.679  -3.048 -24.063  0.00  0.00    +0.141 A 
ATOM     25  O3  UNL     1      -4.334  -3.448 -25.332  0.00  0.00    -0.493 OA
ATOM     26  C19 UNL     1      -5.379  -4.170 -25.982  0.00  0.00    +0.079 C 
ATOM     27  C20 UNL     1       3.415  -4.157 -24.360  0.00  0.00    +0.004 A 
ATOM     28  H   UNL     1      -1.853  -3.833 -22.592  0.00  0.00    +0.000 HD
ENDROOT
TORSDOF 0
ENDMDL
MODEL 6
REMARK VINA RESULT:    -6.792      2.231      8.419
REMARK INTER + INTRA:          -6.792
REMARK INTER:                  -6.792
REMARK INTRA:                   0.000
REMARK UNBOUND:                 0.000
REMARK  Name = /home/vital/Documents/PhD_2021/Malaria_codes/scripts/../data/pdbqt_ligands/ligand_340_temp.pdb
REMARK                            x       y       z     vdW  Elec       q    Type
REMARK                         _______ _______ _______ _____ _____    ______ ____
ROOT
ATOM      1  C1  UNL     1      -1.835   5.737 -17.429  0.00  0.00    +0.079 C 
ATOM      2  O1  UNL     1      -0.879   5.717 -16.373  0.00  0.00    -0.495 OA
ATOM      3  C2  UNL     1       0.035   4.698 -16.382  0.00  0.00    +0.122 A 
ATOM      4  C3  UNL     1       0.787   4.579 -15.214  0.00  0.00    -0.020 A 
ATOM      5  C4  UNL     1       1.761   3.590 -15.100  0.00  0.00    -0.056 A 
ATOM      6  C5  UNL     1       1.988   2.710 -16.159  0.00  0.00    -0.038 A 
ATOM      7  C6  UNL     1       1.238   2.813 -17.342  0.00  0.00    +0.052 A 
ATOM      8  N1  UNL     1       1.503   1.911 -18.419  0.00  0.00    -0.294 N 
ATOM      9  C7  UNL     1       2.728   1.298 -18.638  0.00  0.00    +0.030 A 
ATOM     10  C8  UNL     1       2.607   0.568 -19.793  0.00  0.00    +0.047 A 
ATOM     11  N2  UNL     1       1.341   0.658 -20.289  0.00  0.00    -0.230 NA
ATOM     12  C9  UNL     1       0.697   1.461 -19.462  0.00  0.00    +0.174 A 
ATOM     13  S1  UNL     1      -1.015   1.728 -19.613  0.00  0.00    -0.078 S 
ATOM     14  C10 UNL     1      -1.240   1.495 -21.400  0.00  0.00    +0.078 C 
ATOM     15  C11 UNL     1      -1.679   0.085 -21.764  0.00  0.00    +0.228 C 
ATOM     16  O2  UNL     1      -2.598  -0.074 -22.567  0.00  0.00    -0.275 OA
ATOM     17  N3  UNL     1      -0.876  -0.916 -21.246  0.00  0.00    -0.282 N 
ATOM     18  C12 UNL     1      -1.107  -2.310 -21.340  0.00  0.00    +0.079 A 
ATOM     19  C13 UNL     1       0.012  -3.171 -21.426  0.00  0.00    -0.026 A 
ATOM     20  C14 UNL     1       1.426  -2.656 -21.428  0.00  0.00    -0.038 C 
ATOM     21  C15 UNL     1      -0.187  -4.560 -21.510  0.00  0.00    -0.057 A 
ATOM     22  C16 UNL     1      -1.472  -5.102 -21.496  0.00  0.00    -0.058 A 
ATOM     23  C17 UNL     1      -2.574  -4.261 -21.373  0.00  0.00    -0.018 A 
ATOM     24  C18 UNL     1      -2.401  -2.873 -21.297  0.00  0.00    +0.141 A 
ATOM     25  O3  UNL     1      -3.480  -2.078 -20.991  0.00  0.00    -0.493 OA
ATOM     26  C19 UNL     1      -4.554  -2.231 -21.919  0.00  0.00    +0.079 C 
ATOM     27  C20 UNL     1       0.274   3.825 -17.449  0.00  0.00    +0.004 A 
ATOM     28  H   UNL     1      -0.064  -0.632 -20.766  0.00  0.00    +0.000 HD
ENDROOT
TORSDOF 0
ENDMDL
MODEL 7
REMARK VINA RESULT:    -6.759      7.311     11.956
REMARK INTER + INTRA:          -6.759
REMARK INTER:                  -6.759
REMARK INTRA:                   0.000
REMARK UNBOUND:                 0.000
REMARK  Name = /home/vital/Documents/PhD_2021/Malaria_codes/scripts/../data/pdbqt_ligands/ligand_340_temp.pdb
REMARK                            x       y       z     vdW  Elec       q    Type
REMARK                         _______ _______ _______ _____ _____    ______ ____
ROOT
ATOM      1  C1  UNL     1      -2.581  -2.381 -20.720  0.00  0.00    +0.079 C 
ATOM      2  O1  UNL     1      -3.867  -1.849 -21.024  0.00  0.00    -0.495 OA
ATOM      3  C2  UNL     1      -4.437  -2.238 -22.206  0.00  0.00    +0.122 A 
ATOM      4  C3  UNL     1      -5.571  -1.515 -22.573  0.00  0.00    -0.020 A 
ATOM      5  C4  UNL     1      -6.253  -1.820 -23.748  0.00  0.00    -0.056 A 
ATOM      6  C5  UNL     1      -5.802  -2.855 -24.567  0.00  0.00    -0.038 A 
ATOM      7  C6  UNL     1      -4.659  -3.593 -24.216  0.00  0.00    +0.052 A 
ATOM      8  N1  UNL     1      -4.228  -4.661 -25.063  0.00  0.00    -0.294 N 
ATOM      9  C7  UNL     1      -5.069  -5.382 -25.897  0.00  0.00    +0.030 A 
ATOM     10  C8  UNL     1      -4.305  -6.355 -26.489  0.00  0.00    +0.047 A 
ATOM     11  N2  UNL     1      -3.004  -6.248 -26.099  0.00  0.00    -0.230 NA
ATOM     12  C9  UNL     1      -2.974  -5.238 -25.250  0.00  0.00    +0.174 A 
ATOM     13  S1  UNL     1      -1.470  -4.630 -24.622  0.00  0.00    -0.078 S 
ATOM     14  C10 UNL     1      -0.453  -6.134 -24.658  0.00  0.00    +0.078 C 
ATOM     15  C11 UNL     1       0.401  -6.244 -25.912  0.00  0.00    +0.228 C 
ATOM     16  O2  UNL     1       1.586  -6.560 -25.812  0.00  0.00    -0.275 OA
ATOM     17  N3  UNL     1      -0.303  -6.111 -27.097  0.00  0.00    -0.282 N 
ATOM     18  C12 UNL     1       0.249  -6.068 -28.400  0.00  0.00    +0.079 A 
ATOM     19  C13 UNL     1      -0.503  -6.620 -29.465  0.00  0.00    -0.026 A 
ATOM     20  C14 UNL     1      -1.854  -7.249 -29.256  0.00  0.00    -0.038 C 
ATOM     21  C15 UNL     1       0.016  -6.583 -30.771  0.00  0.00    -0.057 A 
ATOM     22  C16 UNL     1       1.255  -5.999 -31.033  0.00  0.00    -0.058 A 
ATOM     23  C17 UNL     1       1.979  -5.421 -29.996  0.00  0.00    -0.018 A 
ATOM     24  C18 UNL     1       1.488  -5.454 -28.684  0.00  0.00    +0.141 A 
ATOM     25  O3  UNL     1       2.124  -4.722 -27.710  0.00  0.00    -0.493 OA
ATOM     26  C19 UNL     1       3.497  -5.084 -27.562  0.00  0.00    +0.079 C 
ATOM     27  C20 UNL     1      -3.994  -3.287 -23.020  0.00  0.00    +0.004 A 
ATOM     28  H   UNL     1      -1.283  -6.039 -27.027  0.00  0.00    +0.000 HD
ENDROOT
TORSDOF 0
ENDMDL
MODEL 8
REMARK VINA RESULT:    -6.717      4.949      6.809
REMARK INTER + INTRA:          -6.717
REMARK INTER:                  -6.717
REMARK INTRA:                   0.000
REMARK UNBOUND:                 0.000
REMARK  Name = /home/vital/Documents/PhD_2021/Malaria_codes/scripts/../data/pdbqt_ligands/ligand_340_temp.pdb
REMARK                            x       y       z     vdW  Elec       q    Type
REMARK                         _______ _______ _______ _____ _____    ______ ____
ROOT
ATOM      1  C1  UNL     1      -4.156   0.633 -25.884  0.00  0.00    +0.079 C 
ATOM      2  O1  UNL     1      -5.333   0.170 -25.229  0.00  0.00    -0.495 OA
ATOM      3  C2  UNL     1      -5.176  -0.389 -23.989  0.00  0.00    +0.122 A 
ATOM      4  C3  UNL     1      -6.305  -1.040 -23.495  0.00  0.00    -0.020 A 
ATOM      5  C4  UNL     1      -6.280  -1.640 -22.239  0.00  0.00    -0.056 A 
ATOM      6  C5  UNL     1      -5.119  -1.593 -21.466  0.00  0.00    -0.038 A 
ATOM      7  C6  UNL     1      -3.970  -0.944 -21.949  0.00  0.00    +0.052 A 
ATOM      8  N1  UNL     1      -2.799  -0.893 -21.131  0.00  0.00    -0.294 N 
ATOM      9  C7  UNL     1      -2.815  -0.948 -19.745  0.00  0.00    +0.030 A 
ATOM     10  C8  UNL     1      -1.517  -0.804 -19.326  0.00  0.00    +0.047 A 
ATOM     11  N2  UNL     1      -0.675  -0.706 -20.393  0.00  0.00    -0.230 NA
ATOM     12  C9  UNL     1      -1.452  -0.759 -21.459  0.00  0.00    +0.174 A 
ATOM     13  S1  UNL     1      -0.783  -0.841 -23.062  0.00  0.00    -0.078 S 
ATOM     14  C10 UNL     1       0.784   0.047 -22.823  0.00  0.00    +0.078 C 
ATOM     15  C11 UNL     1       1.957  -0.882 -22.553  0.00  0.00    +0.228 C 
ATOM     16  O2  UNL     1       3.019  -0.705 -23.150  0.00  0.00    -0.275 OA
ATOM     17  N3  UNL     1       1.751  -1.781 -21.520  0.00  0.00    -0.282 N 
ATOM     18  C12 UNL     1       2.627  -2.821 -21.126  0.00  0.00    +0.079 A 
ATOM     19  C13 UNL     1       2.680  -3.168 -19.755  0.00  0.00    -0.026 A 
ATOM     20  C14 UNL     1       1.847  -2.469 -18.714  0.00  0.00    -0.038 C 
ATOM     21  C15 UNL     1       3.533  -4.204 -19.334  0.00  0.00    -0.057 A 
ATOM     22  C16 UNL     1       4.318  -4.901 -20.252  0.00  0.00    -0.058 A 
ATOM     23  C17 UNL     1       4.240  -4.589 -21.605  0.00  0.00    -0.018 A 
ATOM     24  C18 UNL     1       3.404  -3.554 -22.047  0.00  0.00    +0.141 A 
ATOM     25  O3  UNL     1       3.202  -3.385 -23.396  0.00  0.00    -0.493 OA
ATOM     26  C19 UNL     1       4.418  -3.158 -24.108  0.00  0.00    +0.079 C 
ATOM     27  C20 UNL     1      -4.016  -0.328 -23.208  0.00  0.00    +0.004 A 
ATOM     28  H   UNL     1       0.913  -1.688 -21.011  0.00  0.00    +0.000 HD
ENDROOT
TORSDOF 0
ENDMDL
MODEL 9
REMARK VINA RESULT:    -6.439      5.763      9.344
REMARK INTER + INTRA:          -6.439
REMARK INTER:                  -6.439
REMARK INTRA:                   0.000
REMARK UNBOUND:                 0.000
REMARK  Name = /home/vital/Documents/PhD_2021/Malaria_codes/scripts/../data/pdbqt_ligands/ligand_340_temp.pdb
REMARK                            x       y       z     vdW  Elec       q    Type
REMARK                         _______ _______ _______ _____ _____    ______ ____
ROOT
ATOM      1  C1  UNL     1       2.822   2.984 -18.644  0.00  0.00    +0.079 C 
ATOM      2  O1  UNL     1       1.453   2.599 -18.581  0.00  0.00    -0.495 OA
ATOM      3  C2  UNL     1       1.139   1.341 -19.019  0.00  0.00    +0.122 A 
ATOM      4  C3  UNL     1      -0.226   1.096 -19.165  0.00  0.00    -0.020 A 
ATOM      5  C4  UNL     1      -0.677  -0.149 -19.592  0.00  0.00    -0.056 A 
ATOM      6  C5  UNL     1       0.239  -1.163 -19.878  0.00  0.00    -0.038 A 
ATOM      7  C6  UNL     1       1.618  -0.934 -19.740  0.00  0.00    +0.052 A 
ATOM      8  N1  UNL     1       2.535  -1.995 -20.021  0.00  0.00    -0.294 N 
ATOM      9  C7  UNL     1       2.224  -3.342 -19.914  0.00  0.00    +0.030 A 
ATOM     10  C8  UNL     1       3.370  -4.039 -20.198  0.00  0.00    +0.047 A 
ATOM     11  N2  UNL     1       4.382  -3.188 -20.525  0.00  0.00    -0.230 NA
ATOM     12  C9  UNL     1       3.871  -1.976 -20.414  0.00  0.00    +0.174 A 
ATOM     13  S1  UNL     1       4.767  -0.569 -20.905  0.00  0.00    -0.078 S 
ATOM     14  C10 UNL     1       6.470  -1.131 -20.615  0.00  0.00    +0.078 C 
ATOM     15  C11 UNL     1       7.133  -1.685 -21.866  0.00  0.00    +0.228 C 
ATOM     16  O2  UNL     1       8.281  -1.339 -22.147  0.00  0.00    -0.275 OA
ATOM     17  N3  UNL     1       6.405  -2.670 -22.512  0.00  0.00    -0.282 N 
ATOM     18  C12 UNL     1       6.733  -3.282 -23.746  0.00  0.00    +0.079 A 
ATOM     19  C13 UNL     1       6.377  -4.638 -23.936  0.00  0.00    -0.026 A 
ATOM     20  C14 UNL     1       5.676  -5.444 -22.876  0.00  0.00    -0.038 C 
ATOM     21  C15 UNL     1       6.681  -5.270 -25.155  0.00  0.00    -0.057 A 
ATOM     22  C16 UNL     1       7.316  -4.574 -26.184  0.00  0.00    -0.058 A 
ATOM     23  C17 UNL     1       7.632  -3.230 -26.015  0.00  0.00    -0.018 A 
ATOM     24  C18 UNL     1       7.348  -2.582 -24.806  0.00  0.00    +0.141 A 
ATOM     25  O3  UNL     1       7.497  -1.217 -24.725  0.00  0.00    -0.493 OA
ATOM     26  C19 UNL     1       8.826  -0.793 -25.028  0.00  0.00    +0.079 C 
ATOM     27  C20 UNL     1       2.057   0.320 -19.291  0.00  0.00    +0.004 A 
ATOM     28  H   UNL     1       5.579  -2.974 -22.070  0.00  0.00    +0.000 HD
ENDROOT
TORSDOF 0
ENDMDL
