MODEL 1
REMARK VINA RESULT:    -7.268      0.000      0.000
REMARK INTER + INTRA:          -7.268
REMARK INTER:                  -7.268
REMARK INTRA:                   0.000
REMARK UNBOUND:                 0.000
REMARK  Name = /home/vital/Documents/PhD_2021/Malaria_codes/scripts/../data/pdbqt_ligands/ligand_430_temp.pdb
REMARK                            x       y       z     vdW  Elec       q    Type
REMARK                         _______ _______ _______ _____ _____    ______ ____
ROOT
ATOM      1  C   UNL     1      -0.941   0.268 -19.760  0.00  0.00    +0.079 C 
ATOM      2  O   UNL     1      -0.826  -0.628 -20.856  0.00  0.00    -0.491 OA
ATOM      3  C   UNL     1       0.267  -1.458 -20.891  0.00  0.00    +0.162 A 
ATOM      4  C   UNL     1       1.379  -1.336 -20.053  0.00  0.00    -0.013 A 
ATOM      5  C   UNL     1       2.482  -2.209 -20.154  0.00  0.00    -0.042 A 
ATOM      6  C   UNL     1       3.618  -1.995 -19.189  0.00  0.00    -0.039 C 
ATOM      7  C   UNL     1       2.452  -3.253 -21.104  0.00  0.00    -0.021 A 
ATOM      8  C   UNL     1       3.579  -4.258 -21.329  0.00  0.00    +0.046 C 
ATOM      9  C   UNL     1       3.919  -5.086 -20.087  0.00  0.00    -0.042 C 
ATOM     10  N   UNL     1       4.737  -3.578 -21.892  0.00  0.00    -0.305 N 
ATOM     11  C   UNL     1       5.736  -4.267 -22.543  0.00  0.00    +0.245 C 
ATOM     12  O   UNL     1       5.764  -5.488 -22.647  0.00  0.00    -0.270 OA
ATOM     13  C   UNL     1       6.801  -3.447 -23.187  0.00  0.00    +0.037 A 
ATOM     14  C   UNL     1       7.121  -2.155 -22.757  0.00  0.00    -0.049 A 
ATOM     15  C   UNL     1       8.135  -1.431 -23.394  0.00  0.00    -0.058 A 
ATOM     16  C   UNL     1       8.853  -1.995 -24.458  0.00  0.00    -0.049 A 
ATOM     17  C   UNL     1       9.934  -1.213 -25.157  0.00  0.00    -0.043 C 
ATOM     18  C   UNL     1       9.388  -0.511 -26.399  0.00  0.00    -0.092 C 
ATOM     19  N   UNL     1      10.478   0.231 -27.086  0.00  0.00    +0.378 N 
ATOM     20  C   UNL     1       8.540  -3.296 -24.875  0.00  0.00    -0.058 A 
ATOM     21  C   UNL     1       7.526  -4.016 -24.242  0.00  0.00    -0.049 A 
ATOM     22  C   UNL     1       1.324  -3.357 -21.949  0.00  0.00    -0.011 A 
ATOM     23  C   UNL     1       0.239  -2.480 -21.849  0.00  0.00    +0.162 A 
ATOM     24  O   UNL     1      -0.870  -2.530 -22.656  0.00  0.00    -0.491 OA
ATOM     25  C   UNL     1      -1.106  -3.738 -23.366  0.00  0.00    +0.079 C 
ATOM     26  H   UNL     1       4.808  -2.599 -21.804  0.00  0.00    +0.000 HD
ATOM     27  H   UNL     1      10.864   0.932 -26.453  0.00  0.00    +0.000 HD
ATOM     28  H   UNL     1      10.105   0.692 -27.916  0.00  0.00    +0.000 HD
ATOM     29  H   UNL     1      11.212  -0.421 -27.361  0.00  0.00    +0.000 HD
ENDROOT
TORSDOF 0
ENDMDL
MODEL 2
REMARK VINA RESULT:    -7.207      3.413      8.579
REMARK INTER + INTRA:          -7.207
REMARK INTER:                  -7.207
REMARK INTRA:                   0.000
REMARK UNBOUND:                 0.000
REMARK  Name = /home/vital/Documents/PhD_2021/Malaria_codes/scripts/../data/pdbqt_ligands/ligand_430_temp.pdb
REMARK                            x       y       z     vdW  Elec       q    Type
REMARK                         _______ _______ _______ _____ _____    ______ ____
ROOT
ATOM      1  C   UNL     1       7.654   1.645 -29.286  0.00  0.00    +0.079 C 
ATOM      2  O   UNL     1       8.392   1.175 -28.167  0.00  0.00    -0.491 OA
ATOM      3  C   UNL     1       8.041  -0.042 -27.637  0.00  0.00    +0.162 A 
ATOM      4  C   UNL     1       6.880  -0.745 -27.971  0.00  0.00    -0.013 A 
ATOM      5  C   UNL     1       6.564  -1.982 -27.373  0.00  0.00    -0.042 A 
ATOM      6  C   UNL     1       5.296  -2.659 -27.820  0.00  0.00    -0.039 C 
ATOM      7  C   UNL     1       7.457  -2.542 -26.433  0.00  0.00    -0.021 A 
ATOM      8  C   UNL     1       7.235  -3.863 -25.701  0.00  0.00    +0.046 C 
ATOM      9  C   UNL     1       7.099  -5.067 -26.637  0.00  0.00    -0.042 C 
ATOM     10  N   UNL     1       6.114  -3.731 -24.780  0.00  0.00    -0.305 N 
ATOM     11  C   UNL     1       5.929  -4.607 -23.734  0.00  0.00    +0.245 C 
ATOM     12  O   UNL     1       6.640  -5.585 -23.532  0.00  0.00    -0.270 OA
ATOM     13  C   UNL     1       4.823  -4.290 -22.787  0.00  0.00    +0.037 A 
ATOM     14  C   UNL     1       3.712  -3.523 -23.155  0.00  0.00    -0.049 A 
ATOM     15  C   UNL     1       2.698  -3.261 -22.227  0.00  0.00    -0.058 A 
ATOM     16  C   UNL     1       2.773  -3.775 -20.924  0.00  0.00    -0.049 A 
ATOM     17  C   UNL     1       1.692  -3.480 -19.919  0.00  0.00    -0.043 C 
ATOM     18  C   UNL     1       2.059  -2.275 -19.055  0.00  0.00    -0.092 C 
ATOM     19  N   UNL     1       0.990  -2.022 -18.052  0.00  0.00    +0.378 N 
ATOM     20  C   UNL     1       3.880  -4.556 -20.564  0.00  0.00    -0.058 A 
ATOM     21  C   UNL     1       4.893  -4.814 -21.490  0.00  0.00    -0.049 A 
ATOM     22  C   UNL     1       8.623  -1.815 -26.099  0.00  0.00    -0.011 A 
ATOM     23  C   UNL     1       8.922  -0.583 -26.691  0.00  0.00    +0.162 A 
ATOM     24  O   UNL     1      10.030   0.168 -26.389  0.00  0.00    -0.491 OA
ATOM     25  C   UNL     1      11.107  -0.491 -25.738  0.00  0.00    +0.079 C 
ATOM     26  H   UNL     1       5.472  -2.995 -24.909  0.00  0.00    +0.000 HD
ATOM     27  H   UNL     1       0.112  -1.829 -18.532  0.00  0.00    +0.000 HD
ATOM     28  H   UNL     1       1.246  -1.219 -17.478  0.00  0.00    +0.000 HD
ATOM     29  H   UNL     1       0.880  -2.843 -17.458  0.00  0.00    +0.000 HD
ENDROOT
TORSDOF 0
ENDMDL
MODEL 3
REMARK VINA RESULT:    -7.180     10.055     13.155
REMARK INTER + INTRA:          -7.180
REMARK INTER:                  -7.180
REMARK INTRA:                   0.000
REMARK UNBOUND:                 0.000
REMARK  Name = /home/vital/Documents/PhD_2021/Malaria_codes/scripts/../data/pdbqt_ligands/ligand_430_temp.pdb
REMARK                            x       y       z     vdW  Elec       q    Type
REMARK                         _______ _______ _______ _____ _____    ______ ____
ROOT
ATOM      1  C   UNL     1      10.083   6.329 -14.824  0.00  0.00    +0.079 C 
ATOM      2  O   UNL     1       9.007   6.940 -14.127  0.00  0.00    -0.491 OA
ATOM      3  C   UNL     1       7.859   6.208 -13.955  0.00  0.00    +0.162 A 
ATOM      4  C   UNL     1       7.589   4.998 -14.601  0.00  0.00    -0.013 A 
ATOM      5  C   UNL     1       6.378   4.304 -14.398  0.00  0.00    -0.042 A 
ATOM      6  C   UNL     1       6.202   3.002 -15.134  0.00  0.00    -0.039 C 
ATOM      7  C   UNL     1       5.425   4.827 -13.498  0.00  0.00    -0.021 A 
ATOM      8  C   UNL     1       4.072   4.189 -13.195  0.00  0.00    +0.046 C 
ATOM      9  C   UNL     1       4.176   2.772 -12.624  0.00  0.00    -0.042 C 
ATOM     10  N   UNL     1       3.220   4.264 -14.374  0.00  0.00    -0.305 N 
ATOM     11  C   UNL     1       1.852   4.126 -14.289  0.00  0.00    +0.245 C 
ATOM     12  O   UNL     1       1.258   3.872 -13.248  0.00  0.00    -0.270 OA
ATOM     13  C   UNL     1       1.080   4.352 -15.543  0.00  0.00    +0.037 A 
ATOM     14  C   UNL     1       1.641   4.183 -16.814  0.00  0.00    -0.049 A 
ATOM     15  C   UNL     1       0.868   4.402 -17.960  0.00  0.00    -0.058 A 
ATOM     16  C   UNL     1      -0.479   4.778 -17.851  0.00  0.00    -0.049 A 
ATOM     17  C   UNL     1      -1.308   5.031 -19.082  0.00  0.00    -0.043 C 
ATOM     18  C   UNL     1      -1.319   6.516 -19.440  0.00  0.00    -0.092 C 
ATOM     19  N   UNL     1      -2.167   6.745 -20.641  0.00  0.00    +0.378 N 
ATOM     20  C   UNL     1      -1.041   4.931 -16.576  0.00  0.00    -0.058 A 
ATOM     21  C   UNL     1      -0.268   4.715 -15.433  0.00  0.00    -0.049 A 
ATOM     22  C   UNL     1       5.709   6.055 -12.859  0.00  0.00    -0.011 A 
ATOM     23  C   UNL     1       6.909   6.742 -13.075  0.00  0.00    +0.162 A 
ATOM     24  O   UNL     1       7.225   7.944 -12.493  0.00  0.00    -0.491 OA
ATOM     25  C   UNL     1       6.483   8.326 -11.342  0.00  0.00    +0.079 C 
ATOM     26  H   UNL     1       3.632   4.417 -15.255  0.00  0.00    +0.000 HD
ATOM     27  H   UNL     1      -1.790   6.218 -21.429  0.00  0.00    +0.000 HD
ATOM     28  H   UNL     1      -2.171   7.739 -20.870  0.00  0.00    +0.000 HD
ATOM     29  H   UNL     1      -3.119   6.436 -20.449  0.00  0.00    +0.000 HD
ENDROOT
TORSDOF 0
ENDMDL
MODEL 4
REMARK VINA RESULT:    -7.132      3.678      8.203
REMARK INTER + INTRA:          -7.132
REMARK INTER:                  -7.132
REMARK INTRA:                   0.000
REMARK UNBOUND:                 0.000
REMARK  Name = /home/vital/Documents/PhD_2021/Malaria_codes/scripts/../data/pdbqt_ligands/ligand_430_temp.pdb
REMARK                            x       y       z     vdW  Elec       q    Type
REMARK                         _______ _______ _______ _____ _____    ______ ____
ROOT
ATOM      1  C   UNL     1       5.047  -4.187 -30.519  0.00  0.00    +0.079 C 
ATOM      2  O   UNL     1       5.353  -2.939 -29.914  0.00  0.00    -0.491 OA
ATOM      3  C   UNL     1       5.957  -2.959 -28.682  0.00  0.00    +0.162 A 
ATOM      4  C   UNL     1       6.094  -4.099 -27.886  0.00  0.00    -0.013 A 
ATOM      5  C   UNL     1       6.707  -4.049 -26.617  0.00  0.00    -0.042 A 
ATOM      6  C   UNL     1       6.813  -5.342 -25.853  0.00  0.00    -0.039 C 
ATOM      7  C   UNL     1       7.224  -2.821 -26.149  0.00  0.00    -0.021 A 
ATOM      8  C   UNL     1       7.898  -2.620 -24.794  0.00  0.00    +0.046 C 
ATOM      9  C   UNL     1       9.144  -3.488 -24.594  0.00  0.00    -0.042 C 
ATOM     10  N   UNL     1       6.917  -2.784 -23.729  0.00  0.00    -0.305 N 
ATOM     11  C   UNL     1       7.136  -2.294 -22.461  0.00  0.00    +0.245 C 
ATOM     12  O   UNL     1       8.177  -1.748 -22.114  0.00  0.00    -0.270 OA
ATOM     13  C   UNL     1       6.005  -2.409 -21.497  0.00  0.00    +0.037 A 
ATOM     14  C   UNL     1       5.006  -3.381 -21.621  0.00  0.00    -0.049 A 
ATOM     15  C   UNL     1       3.970  -3.448 -20.683  0.00  0.00    -0.058 A 
ATOM     16  C   UNL     1       3.927  -2.556 -19.602  0.00  0.00    -0.049 A 
ATOM     17  C   UNL     1       2.803  -2.616 -18.601  0.00  0.00    -0.043 C 
ATOM     18  C   UNL     1       1.693  -1.632 -18.962  0.00  0.00    -0.092 C 
ATOM     19  N   UNL     1       0.609  -1.688 -17.945  0.00  0.00    +0.378 N 
ATOM     20  C   UNL     1       4.938  -1.596 -19.473  0.00  0.00    -0.058 A 
ATOM     21  C   UNL     1       5.970  -1.526 -20.411  0.00  0.00    -0.049 A 
ATOM     22  C   UNL     1       7.071  -1.675 -26.962  0.00  0.00    -0.011 A 
ATOM     23  C   UNL     1       6.452  -1.734 -28.215  0.00  0.00    +0.162 A 
ATOM     24  O   UNL     1       6.265  -0.648 -29.034  0.00  0.00    -0.491 OA
ATOM     25  C   UNL     1       7.057   0.504 -28.781  0.00  0.00    +0.079 C 
ATOM     26  H   UNL     1       6.075  -3.257 -23.922  0.00  0.00    +0.000 HD
ATOM     27  H   UNL     1       0.220  -2.630 -17.915  0.00  0.00    +0.000 HD
ATOM     28  H   UNL     1      -0.125  -1.025 -18.193  0.00  0.00    +0.000 HD
ATOM     29  H   UNL     1       0.990  -1.448 -17.029  0.00  0.00    +0.000 HD
ENDROOT
TORSDOF 0
ENDMDL
MODEL 5
REMARK VINA RESULT:    -6.798      4.871     10.205
REMARK INTER + INTRA:          -6.798
REMARK INTER:                  -6.798
REMARK INTRA:                   0.000
REMARK UNBOUND:                 0.000
REMARK  Name = /home/vital/Documents/PhD_2021/Malaria_codes/scripts/../data/pdbqt_ligands/ligand_430_temp.pdb
REMARK                            x       y       z     vdW  Elec       q    Type
REMARK                         _______ _______ _______ _____ _____    ______ ____
ROOT
ATOM      1  C   UNL     1       3.843  -4.318 -27.027  0.00  0.00    +0.079 C 
ATOM      2  O   UNL     1       3.685  -3.685 -25.766  0.00  0.00    -0.491 OA
ATOM      3  C   UNL     1       2.583  -4.019 -25.017  0.00  0.00    +0.162 A 
ATOM      4  C   UNL     1       1.499  -4.762 -25.493  0.00  0.00    -0.013 A 
ATOM      5  C   UNL     1       0.385  -5.053 -24.679  0.00  0.00    -0.042 A 
ATOM      6  C   UNL     1      -0.718  -5.875 -25.292  0.00  0.00    -0.039 C 
ATOM      7  C   UNL     1       0.376  -4.610 -23.339  0.00  0.00    -0.021 A 
ATOM      8  C   UNL     1      -0.767  -4.842 -22.353  0.00  0.00    +0.046 C 
ATOM      9  C   UNL     1      -1.076  -6.322 -22.110  0.00  0.00    -0.042 C 
ATOM     10  N   UNL     1      -1.936  -4.080 -22.771  0.00  0.00    -0.305 N 
ATOM     11  C   UNL     1      -2.962  -3.791 -21.898  0.00  0.00    +0.245 C 
ATOM     12  O   UNL     1      -3.004  -4.195 -20.742  0.00  0.00    -0.270 OA
ATOM     13  C   UNL     1      -4.039  -2.896 -22.408  0.00  0.00    +0.037 A 
ATOM     14  C   UNL     1      -4.332  -2.770 -23.770  0.00  0.00    -0.049 A 
ATOM     15  C   UNL     1      -5.359  -1.919 -24.193  0.00  0.00    -0.058 A 
ATOM     16  C   UNL     1      -6.116  -1.195 -23.261  0.00  0.00    -0.049 A 
ATOM     17  C   UNL     1      -7.210  -0.266 -23.715  0.00  0.00    -0.043 C 
ATOM     18  C   UNL     1      -6.697   1.168 -23.838  0.00  0.00    -0.092 C 
ATOM     19  N   UNL     1      -7.802   2.071 -24.260  0.00  0.00    +0.378 N 
ATOM     20  C   UNL     1      -5.829  -1.336 -21.896  0.00  0.00    -0.058 A 
ATOM     21  C   UNL     1      -4.802  -2.183 -21.474  0.00  0.00    -0.049 A 
ATOM     22  C   UNL     1       1.475  -3.853 -22.875  0.00  0.00    -0.011 A 
ATOM     23  C   UNL     1       2.571  -3.560 -23.693  0.00  0.00    +0.162 A 
ATOM     24  O   UNL     1       3.654  -2.816 -23.296  0.00  0.00    -0.491 OA
ATOM     25  C   UNL     1       3.856  -2.654 -21.898  0.00  0.00    +0.079 C 
ATOM     26  H   UNL     1      -1.995  -3.764 -23.701  0.00  0.00    +0.000 HD
ATOM     27  H   UNL     1      -8.161   1.769 -25.166  0.00  0.00    +0.000 HD
ATOM     28  H   UNL     1      -7.450   3.025 -24.336  0.00  0.00    +0.000 HD
ATOM     29  H   UNL     1      -8.550   2.037 -23.568  0.00  0.00    +0.000 HD
ENDROOT
TORSDOF 0
ENDMDL
MODEL 6
REMARK VINA RESULT:    -6.739     10.572     12.479
REMARK INTER + INTRA:          -6.739
REMARK INTER:                  -6.739
REMARK INTRA:                   0.000
REMARK UNBOUND:                 0.000
REMARK  Name = /home/vital/Documents/PhD_2021/Malaria_codes/scripts/../data/pdbqt_ligands/ligand_430_temp.pdb
REMARK                            x       y       z     vdW  Elec       q    Type
REMARK                         _______ _______ _______ _____ _____    ______ ____
ROOT
ATOM      1  C   UNL     1      -7.286  -6.032 -31.477  0.00  0.00    +0.079 C 
ATOM      2  O   UNL     1      -6.582  -6.161 -32.703  0.00  0.00    -0.491 OA
ATOM      3  C   UNL     1      -5.376  -6.816 -32.681  0.00  0.00    +0.162 A 
ATOM      4  C   UNL     1      -4.689  -7.170 -31.516  0.00  0.00    -0.013 A 
ATOM      5  C   UNL     1      -3.441  -7.824 -31.561  0.00  0.00    -0.042 A 
ATOM      6  C   UNL     1      -2.799  -8.172 -30.244  0.00  0.00    -0.039 C 
ATOM      7  C   UNL     1      -2.882  -8.159 -32.814  0.00  0.00    -0.021 A 
ATOM      8  C   UNL     1      -1.536  -8.853 -33.009  0.00  0.00    +0.046 C 
ATOM      9  C   UNL     1      -1.454 -10.230 -32.344  0.00  0.00    -0.042 C 
ATOM     10  N   UNL     1      -0.460  -7.961 -32.599  0.00  0.00    -0.305 N 
ATOM     11  C   UNL     1       0.839  -8.156 -33.012  0.00  0.00    +0.245 C 
ATOM     12  O   UNL     1       1.201  -9.110 -33.690  0.00  0.00    -0.270 OA
ATOM     13  C   UNL     1       1.824  -7.104 -32.633  0.00  0.00    +0.037 A 
ATOM     14  C   UNL     1       1.646  -6.268 -31.525  0.00  0.00    -0.049 A 
ATOM     15  C   UNL     1       2.606  -5.300 -31.211  0.00  0.00    -0.058 A 
ATOM     16  C   UNL     1       3.764  -5.164 -31.991  0.00  0.00    -0.049 A 
ATOM     17  C   UNL     1       4.791  -4.112 -31.665  0.00  0.00    -0.043 C 
ATOM     18  C   UNL     1       4.553  -2.843 -32.481  0.00  0.00    -0.092 C 
ATOM     19  N   UNL     1       5.596  -1.830 -32.164  0.00  0.00    +0.378 N 
ATOM     20  C   UNL     1       3.946  -6.014 -33.090  0.00  0.00    -0.058 A 
ATOM     21  C   UNL     1       2.985  -6.977 -33.406  0.00  0.00    -0.049 A 
ATOM     22  C   UNL     1      -3.584  -7.787 -33.982  0.00  0.00    -0.011 A 
ATOM     23  C   UNL     1      -4.817  -7.129 -33.928  0.00  0.00    +0.162 A 
ATOM     24  O   UNL     1      -5.530  -6.733 -35.032  0.00  0.00    -0.491 OA
ATOM     25  C   UNL     1      -5.200  -7.340 -36.273  0.00  0.00    +0.079 C 
ATOM     26  H   UNL     1      -0.668  -7.198 -32.012  0.00  0.00    +0.000 HD
ATOM     27  H   UNL     1       5.553  -1.598 -31.172  0.00  0.00    +0.000 HD
ATOM     28  H   UNL     1       5.431  -0.989 -32.716  0.00  0.00    +0.000 HD
ATOM     29  H   UNL     1       6.516  -2.209 -32.386  0.00  0.00    +0.000 HD
ENDROOT
TORSDOF 0
ENDMDL
MODEL 7
REMARK VINA RESULT:    -6.509      7.211      8.974
REMARK INTER + INTRA:          -6.509
REMARK INTER:                  -6.509
REMARK INTRA:                   0.000
REMARK UNBOUND:                 0.000
REMARK  Name = /home/vital/Documents/PhD_2021/Malaria_codes/scripts/../data/pdbqt_ligands/ligand_430_temp.pdb
REMARK                            x       y       z     vdW  Elec       q    Type
REMARK                         _______ _______ _______ _____ _____    ______ ____
ROOT
ATOM      1  C   UNL     1       2.767  -2.269 -22.655  0.00  0.00    +0.079 C 
ATOM      2  O   UNL     1       3.846  -3.027 -23.182  0.00  0.00    -0.491 OA
ATOM      3  C   UNL     1       4.228  -2.779 -24.477  0.00  0.00    +0.162 A 
ATOM      4  C   UNL     1       3.500  -2.000 -25.381  0.00  0.00    -0.013 A 
ATOM      5  C   UNL     1       3.936  -1.801 -26.707  0.00  0.00    -0.042 A 
ATOM      6  C   UNL     1       3.081  -0.930 -27.589  0.00  0.00    -0.039 C 
ATOM      7  C   UNL     1       5.155  -2.377 -27.127  0.00  0.00    -0.021 A 
ATOM      8  C   UNL     1       5.738  -2.255 -28.533  0.00  0.00    +0.046 C 
ATOM      9  C   UNL     1       6.006  -0.809 -28.961  0.00  0.00    -0.042 C 
ATOM     10  N   UNL     1       4.897  -2.979 -29.477  0.00  0.00    -0.305 N 
ATOM     11  C   UNL     1       5.363  -3.362 -30.715  0.00  0.00    +0.245 C 
ATOM     12  O   UNL     1       6.476  -3.078 -31.140  0.00  0.00    -0.270 OA
ATOM     13  C   UNL     1       4.453  -4.210 -31.536  0.00  0.00    +0.037 A 
ATOM     14  C   UNL     1       3.063  -4.199 -31.374  0.00  0.00    -0.049 A 
ATOM     15  C   UNL     1       2.254  -5.010 -32.178  0.00  0.00    -0.058 A 
ATOM     16  C   UNL     1       2.822  -5.831 -33.164  0.00  0.00    -0.049 A 
ATOM     17  C   UNL     1       1.956  -6.718 -34.018  0.00  0.00    -0.043 C 
ATOM     18  C   UNL     1       1.871  -8.127 -33.436  0.00  0.00    -0.092 C 
ATOM     19  N   UNL     1       1.034  -8.991 -34.311  0.00  0.00    +0.378 N 
ATOM     20  C   UNL     1       4.213  -5.826 -33.333  0.00  0.00    -0.058 A 
ATOM     21  C   UNL     1       5.020  -5.019 -32.528  0.00  0.00    -0.049 A 
ATOM     22  C   UNL     1       5.875  -3.169 -26.204  0.00  0.00    -0.011 A 
ATOM     23  C   UNL     1       5.429  -3.370 -24.893  0.00  0.00    +0.162 A 
ATOM     24  O   UNL     1       6.082  -4.142 -23.966  0.00  0.00    -0.491 OA
ATOM     25  C   UNL     1       7.449  -4.443 -24.214  0.00  0.00    +0.079 C 
ATOM     26  H   UNL     1       3.972  -3.200 -29.223  0.00  0.00    +0.000 HD
ATOM     27  H   UNL     1       0.093  -8.602 -34.374  0.00  0.00    +0.000 HD
ATOM     28  H   UNL     1       0.987  -9.930 -33.917  0.00  0.00    +0.000 HD
ATOM     29  H   UNL     1       1.448  -9.034 -35.243  0.00  0.00    +0.000 HD
ENDROOT
TORSDOF 0
ENDMDL
MODEL 8
REMARK VINA RESULT:    -6.483     13.241     16.418
REMARK INTER + INTRA:          -6.483
REMARK INTER:                  -6.483
REMARK INTRA:                   0.000
REMARK UNBOUND:                 0.000
REMARK  Name = /home/vital/Documents/PhD_2021/Malaria_codes/scripts/../data/pdbqt_ligands/ligand_430_temp.pdb
REMARK                            x       y       z     vdW  Elec       q    Type
REMARK                         _______ _______ _______ _____ _____    ______ ____
ROOT
ATOM      1  C   UNL     1      -9.163 -14.210 -28.489  0.00  0.00    +0.079 C 
ATOM      2  O   UNL     1      -9.310 -12.862 -28.908  0.00  0.00    -0.491 OA
ATOM      3  C   UNL     1      -8.719 -12.494 -30.092  0.00  0.00    +0.162 A 
ATOM      4  C   UNL     1      -7.806 -13.281 -30.798  0.00  0.00    -0.013 A 
ATOM      5  C   UNL     1      -7.216 -12.836 -31.999  0.00  0.00    -0.042 A 
ATOM      6  C   UNL     1      -6.258 -13.774 -32.684  0.00  0.00    -0.039 C 
ATOM      7  C   UNL     1      -7.578 -11.574 -32.519  0.00  0.00    -0.021 A 
ATOM      8  C   UNL     1      -7.010 -10.964 -33.798  0.00  0.00    +0.046 C 
ATOM      9  C   UNL     1      -7.264 -11.811 -35.048  0.00  0.00    -0.042 C 
ATOM     10  N   UNL     1      -5.601 -10.646 -33.606  0.00  0.00    -0.305 N 
ATOM     11  C   UNL     1      -4.941  -9.757 -34.424  0.00  0.00    +0.245 C 
ATOM     12  O   UNL     1      -5.454  -9.219 -35.398  0.00  0.00    -0.270 OA
ATOM     13  C   UNL     1      -3.539  -9.417 -34.046  0.00  0.00    +0.037 A 
ATOM     14  C   UNL     1      -2.735 -10.274 -33.287  0.00  0.00    -0.049 A 
ATOM     15  C   UNL     1      -1.423  -9.908 -32.966  0.00  0.00    -0.058 A 
ATOM     16  C   UNL     1      -0.893  -8.689 -33.411  0.00  0.00    -0.049 A 
ATOM     17  C   UNL     1       0.512  -8.284 -33.053  0.00  0.00    -0.043 C 
ATOM     18  C   UNL     1       0.528  -7.398 -31.809  0.00  0.00    -0.092 C 
ATOM     19  N   UNL     1       1.923  -6.989 -31.492  0.00  0.00    +0.378 N 
ATOM     20  C   UNL     1      -1.697  -7.841 -34.185  0.00  0.00    -0.058 A 
ATOM     21  C   UNL     1      -3.008  -8.205 -34.502  0.00  0.00    -0.049 A 
ATOM     22  C   UNL     1      -8.497 -10.786 -31.789  0.00  0.00    -0.011 A 
ATOM     23  C   UNL     1      -9.068 -11.232 -30.593  0.00  0.00    +0.162 A 
ATOM     24  O   UNL     1      -9.951 -10.499 -29.839  0.00  0.00    -0.491 OA
ATOM     25  C   UNL     1     -10.603  -9.409 -30.476  0.00  0.00    +0.079 C 
ATOM     26  H   UNL     1      -5.108 -11.079 -32.871  0.00  0.00    +0.000 HD
ATOM     27  H   UNL     1       2.488  -7.819 -31.314  0.00  0.00    +0.000 HD
ATOM     28  H   UNL     1       1.922  -6.395 -30.663  0.00  0.00    +0.000 HD
ATOM     29  H   UNL     1       2.313  -6.473 -32.280  0.00  0.00    +0.000 HD
ENDROOT
TORSDOF 0
ENDMDL
MODEL 9
REMARK VINA RESULT:    -6.470      7.283      9.733
REMARK INTER + INTRA:          -6.470
REMARK INTER:                  -6.470
REMARK INTRA:                   0.000
REMARK UNBOUND:                 0.000
REMARK  Name = /home/vital/Documents/PhD_2021/Malaria_codes/scripts/../data/pdbqt_ligands/ligand_430_temp.pdb
REMARK                            x       y       z     vdW  Elec       q    Type
REMARK                         _______ _______ _______ _____ _____    ______ ____
ROOT
ATOM      1  C   UNL     1       0.793   2.410 -32.753  0.00  0.00    +0.079 C 
ATOM      2  O   UNL     1       2.202   2.366 -32.580  0.00  0.00    -0.491 OA
ATOM      3  C   UNL     1       2.781   1.138 -32.375  0.00  0.00    +0.162 A 
ATOM      4  C   UNL     1       2.072  -0.036 -32.105  0.00  0.00    -0.013 A 
ATOM      5  C   UNL     1       2.729  -1.263 -31.881  0.00  0.00    -0.042 A 
ATOM      6  C   UNL     1       1.864  -2.467 -31.614  0.00  0.00    -0.039 C 
ATOM      7  C   UNL     1       4.137  -1.317 -31.962  0.00  0.00    -0.021 A 
ATOM      8  C   UNL     1       4.975  -2.572 -31.730  0.00  0.00    +0.046 C 
ATOM      9  C   UNL     1       4.644  -3.717 -32.691  0.00  0.00    -0.042 C 
ATOM     10  N   UNL     1       4.891  -2.966 -30.330  0.00  0.00    -0.305 N 
ATOM     11  C   UNL     1       5.821  -3.805 -29.756  0.00  0.00    +0.245 C 
ATOM     12  O   UNL     1       6.739  -4.328 -30.377  0.00  0.00    -0.270 OA
ATOM     13  C   UNL     1       5.700  -4.028 -28.288  0.00  0.00    +0.037 A 
ATOM     14  C   UNL     1       4.490  -3.883 -27.600  0.00  0.00    -0.049 A 
ATOM     15  C   UNL     1       4.433  -4.112 -26.221  0.00  0.00    -0.058 A 
ATOM     16  C   UNL     1       5.579  -4.503 -25.514  0.00  0.00    -0.049 A 
ATOM     17  C   UNL     1       5.523  -4.734 -24.027  0.00  0.00    -0.043 C 
ATOM     18  C   UNL     1       5.945  -3.481 -23.261  0.00  0.00    -0.092 C 
ATOM     19  N   UNL     1       5.910  -3.742 -21.797  0.00  0.00    +0.378 N 
ATOM     20  C   UNL     1       6.785  -4.663 -26.209  0.00  0.00    -0.058 A 
ATOM     21  C   UNL     1       6.843  -4.431 -27.585  0.00  0.00    -0.049 A 
ATOM     22  C   UNL     1       4.840  -0.120 -32.228  0.00  0.00    -0.011 A 
ATOM     23  C   UNL     1       4.180   1.095 -32.438  0.00  0.00    +0.162 A 
ATOM     24  O   UNL     1       4.817   2.286 -32.683  0.00  0.00    -0.491 OA
ATOM     25  C   UNL     1       6.169   2.226 -33.116  0.00  0.00    +0.079 C 
ATOM     26  H   UNL     1       4.150  -2.623 -29.779  0.00  0.00    +0.000 HD
ATOM     27  H   UNL     1       4.962  -3.995 -21.520  0.00  0.00    +0.000 HD
ATOM     28  H   UNL     1       6.197  -2.901 -21.295  0.00  0.00    +0.000 HD
ATOM     29  H   UNL     1       6.546  -4.506 -21.572  0.00  0.00    +0.000 HD
ENDROOT
TORSDOF 0
ENDMDL
