MODEL 1
REMARK VINA RESULT:    -7.776      0.000      0.000
REMARK INTER + INTRA:          -7.776
REMARK INTER:                  -7.776
REMARK INTRA:                   0.000
REMARK UNBOUND:                 0.000
REMARK  Name = /home/vital/Documents/PhD_2021/Malaria_codes/scripts/../data/pdbqt_ligands/ligand_63_temp.pdb
REMARK                            x       y       z     vdW  Elec       q    Type
REMARK                         _______ _______ _______ _____ _____    ______ ____
ROOT
ATOM      1  C   UNL     1      -3.872  -0.907 -23.868  0.00  0.00    +0.079 C 
ATOM      2  O   UNL     1      -3.628  -0.099 -22.725  0.00  0.00    -0.494 OA
ATOM      3  C   UNL     1      -3.473  -0.727 -21.514  0.00  0.00    +0.131 A 
ATOM      4  C   UNL     1      -3.491  -2.117 -21.340  0.00  0.00    +0.022 A 
ATOM      5  C   UNL     1      -3.323  -2.658 -20.067  0.00  0.00    +0.120 A 
ATOM      6  O   UNL     1      -3.335  -4.006 -19.858  0.00  0.00    -0.507 OA
ATOM      7  C   UNL     1      -3.142  -1.841 -18.961  0.00  0.00    -0.019 A 
ATOM      8  C   UNL     1      -3.123  -0.457 -19.123  0.00  0.00    -0.048 A 
ATOM      9  C   UNL     1      -3.273   0.116 -20.397  0.00  0.00    +0.017 A 
ATOM     10  C   UNL     1      -3.277   1.583 -20.552  0.00  0.00    -0.047 C 
ATOM     11  C   UNL     1      -2.403   2.399 -19.946  0.00  0.00    -0.014 C 
ATOM     12  C   UNL     1      -2.471   3.865 -20.194  0.00  0.00    +0.186 C 
ATOM     13  O   UNL     1      -3.202   4.353 -21.050  0.00  0.00    -0.287 OA
ATOM     14  C   UNL     1      -1.590   4.754 -19.391  0.00  0.00    +0.024 A 
ATOM     15  C   UNL     1      -1.171   5.963 -19.972  0.00  0.00    -0.047 A 
ATOM     16  C   UNL     1      -0.343   6.849 -19.271  0.00  0.00    -0.017 A 
ATOM     17  C   UNL     1       0.061   6.539 -17.975  0.00  0.00    +0.147 A 
ATOM     18  O   UNL     1       0.897   7.381 -17.305  0.00  0.00    -0.504 OA
ATOM     19  C   UNL     1      -0.381   5.350 -17.392  0.00  0.00    +0.168 A 
ATOM     20  N   UNL     1       0.002   5.012 -16.035  0.00  0.00    +0.060 N 
ATOM     21  O   UNL     1      -0.337   5.787 -15.131  0.00  0.00    -0.126 OA
ATOM     22  O   UNL     1       0.583   3.929 -15.877  0.00  0.00    -0.126 OA
ATOM     23  C   UNL     1      -1.202   4.447 -18.084  0.00  0.00    -0.017 A 
ATOM     24  H   UNL     1      -3.455  -4.591 -20.581  0.00  0.00    +0.000 HD
ATOM     25  H   UNL     1       1.185   8.175 -17.710  0.00  0.00    +0.000 HD
ENDROOT
TORSDOF 0
ENDMDL
MODEL 2
REMARK VINA RESULT:    -7.677      5.405      7.775
REMARK INTER + INTRA:          -7.677
REMARK INTER:                  -7.677
REMARK INTRA:                   0.000
REMARK UNBOUND:                 0.000
REMARK  Name = /home/vital/Documents/PhD_2021/Malaria_codes/scripts/../data/pdbqt_ligands/ligand_63_temp.pdb
REMARK                            x       y       z     vdW  Elec       q    Type
REMARK                         _______ _______ _______ _____ _____    ______ ____
ROOT
ATOM      1  C   UNL     1      -2.782  -4.079 -22.376  0.00  0.00    +0.079 C 
ATOM      2  O   UNL     1      -3.678  -2.977 -22.426  0.00  0.00    -0.494 OA
ATOM      3  C   UNL     1      -3.692  -2.111 -21.360  0.00  0.00    +0.131 A 
ATOM      4  C   UNL     1      -2.845  -2.215 -20.249  0.00  0.00    +0.022 A 
ATOM      5  C   UNL     1      -2.938  -1.283 -19.218  0.00  0.00    +0.120 A 
ATOM      6  O   UNL     1      -2.130  -1.353 -18.120  0.00  0.00    -0.507 OA
ATOM      7  C   UNL     1      -3.862  -0.250 -19.268  0.00  0.00    -0.019 A 
ATOM      8  C   UNL     1      -4.708  -0.138 -20.368  0.00  0.00    -0.048 A 
ATOM      9  C   UNL     1      -4.627  -1.053 -21.431  0.00  0.00    +0.017 A 
ATOM     10  C   UNL     1      -5.547  -0.939 -22.578  0.00  0.00    -0.047 C 
ATOM     11  C   UNL     1      -5.838   0.220 -23.189  0.00  0.00    -0.014 C 
ATOM     12  C   UNL     1      -6.754   0.224 -24.360  0.00  0.00    +0.186 C 
ATOM     13  O   UNL     1      -7.146  -0.810 -24.892  0.00  0.00    -0.287 OA
ATOM     14  C   UNL     1      -7.176   1.537 -24.916  0.00  0.00    +0.024 A 
ATOM     15  C   UNL     1      -7.484   1.603 -26.286  0.00  0.00    -0.047 A 
ATOM     16  C   UNL     1      -7.890   2.806 -26.875  0.00  0.00    -0.017 A 
ATOM     17  C   UNL     1      -8.006   3.954 -26.095  0.00  0.00    +0.147 A 
ATOM     18  O   UNL     1      -8.365   5.134 -26.672  0.00  0.00    -0.504 OA
ATOM     19  C   UNL     1      -7.726   3.876 -24.729  0.00  0.00    +0.168 A 
ATOM     20  N   UNL     1      -7.863   5.048 -23.886  0.00  0.00    +0.060 N 
ATOM     21  O   UNL     1      -8.982   5.572 -23.805  0.00  0.00    -0.126 OA
ATOM     22  O   UNL     1      -6.857   5.393 -23.250  0.00  0.00    -0.126 OA
ATOM     23  C   UNL     1      -7.309   2.681 -24.125  0.00  0.00    -0.017 A 
ATOM     24  H   UNL     1      -1.493  -2.037 -18.050  0.00  0.00    +0.000 HD
ATOM     25  H   UNL     1      -8.550   5.170 -27.590  0.00  0.00    +0.000 HD
ENDROOT
TORSDOF 0
ENDMDL
MODEL 3
REMARK VINA RESULT:    -7.333     13.258     16.205
REMARK INTER + INTRA:          -7.333
REMARK INTER:                  -7.333
REMARK INTRA:                   0.000
REMARK UNBOUND:                 0.000
REMARK  Name = /home/vital/Documents/PhD_2021/Malaria_codes/scripts/../data/pdbqt_ligands/ligand_63_temp.pdb
REMARK                            x       y       z     vdW  Elec       q    Type
REMARK                         _______ _______ _______ _____ _____    ______ ____
ROOT
ATOM      1  C   UNL     1       7.444  -0.722 -27.085  0.00  0.00    +0.079 C 
ATOM      2  O   UNL     1       6.896  -1.772 -27.871  0.00  0.00    -0.494 OA
ATOM      3  C   UNL     1       6.677  -2.984 -27.262  0.00  0.00    +0.131 A 
ATOM      4  C   UNL     1       6.912  -3.236 -25.904  0.00  0.00    +0.022 A 
ATOM      5  C   UNL     1       6.656  -4.502 -25.381  0.00  0.00    +0.120 A 
ATOM      6  O   UNL     1       6.872  -4.786 -24.064  0.00  0.00    -0.507 OA
ATOM      7  C   UNL     1       6.175  -5.525 -26.185  0.00  0.00    -0.019 A 
ATOM      8  C   UNL     1       5.938  -5.283 -27.537  0.00  0.00    -0.048 A 
ATOM      9  C   UNL     1       6.171  -4.012 -28.089  0.00  0.00    +0.017 A 
ATOM     10  C   UNL     1       5.943  -3.777 -29.526  0.00  0.00    -0.047 C 
ATOM     11  C   UNL     1       4.859  -4.209 -30.190  0.00  0.00    -0.014 C 
ATOM     12  C   UNL     1       4.706  -3.890 -31.635  0.00  0.00    +0.186 C 
ATOM     13  O   UNL     1       5.459  -3.119 -32.221  0.00  0.00    -0.287 OA
ATOM     14  C   UNL     1       3.575  -4.512 -32.374  0.00  0.00    +0.024 A 
ATOM     15  C   UNL     1       3.042  -3.811 -33.469  0.00  0.00    -0.047 A 
ATOM     16  C   UNL     1       1.978  -4.339 -34.211  0.00  0.00    -0.017 A 
ATOM     17  C   UNL     1       1.448  -5.582 -33.873  0.00  0.00    +0.147 A 
ATOM     18  O   UNL     1       0.389  -6.081 -34.570  0.00  0.00    -0.504 OA
ATOM     19  C   UNL     1       2.001  -6.286 -32.802  0.00  0.00    +0.168 A 
ATOM     20  N   UNL     1       1.487  -7.594 -32.442  0.00  0.00    +0.060 N 
ATOM     21  O   UNL     1       1.550  -8.491 -33.293  0.00  0.00    -0.126 OA
ATOM     22  O   UNL     1       1.088  -7.730 -31.277  0.00  0.00    -0.126 OA
ATOM     23  C   UNL     1       3.060  -5.767 -32.042  0.00  0.00    -0.017 A 
ATOM     24  H   UNL     1       7.197  -4.121 -23.488  0.00  0.00    +0.000 HD
ATOM     25  H   UNL     1       0.029  -5.596 -35.287  0.00  0.00    +0.000 HD
ENDROOT
TORSDOF 0
ENDMDL
MODEL 4
REMARK VINA RESULT:    -7.222      1.255      1.452
REMARK INTER + INTRA:          -7.222
REMARK INTER:                  -7.222
REMARK INTRA:                   0.000
REMARK UNBOUND:                 0.000
REMARK  Name = /home/vital/Documents/PhD_2021/Malaria_codes/scripts/../data/pdbqt_ligands/ligand_63_temp.pdb
REMARK                            x       y       z     vdW  Elec       q    Type
REMARK                         _______ _______ _______ _____ _____    ______ ____
ROOT
ATOM      1  C   UNL     1      -4.550   1.242 -23.755  0.00  0.00    +0.079 C 
ATOM      2  O   UNL     1      -4.062   1.676 -22.493  0.00  0.00    -0.494 OA
ATOM      3  C   UNL     1      -3.843   0.725 -21.526  0.00  0.00    +0.131 A 
ATOM      4  C   UNL     1      -4.023  -0.651 -21.720  0.00  0.00    +0.022 A 
ATOM      5  C   UNL     1      -3.772  -1.535 -20.673  0.00  0.00    +0.120 A 
ATOM      6  O   UNL     1      -3.936  -2.882 -20.824  0.00  0.00    -0.507 OA
ATOM      7  C   UNL     1      -3.350  -1.077 -19.434  0.00  0.00    -0.019 A 
ATOM      8  C   UNL     1      -3.168   0.289 -19.232  0.00  0.00    -0.048 A 
ATOM      9  C   UNL     1      -3.397   1.204 -20.273  0.00  0.00    +0.017 A 
ATOM     10  C   UNL     1      -3.227   2.650 -20.039  0.00  0.00    -0.047 C 
ATOM     11  C   UNL     1      -2.185   3.182 -19.383  0.00  0.00    -0.014 C 
ATOM     12  C   UNL     1      -2.089   4.658 -19.227  0.00  0.00    +0.186 C 
ATOM     13  O   UNL     1      -2.849   5.430 -19.802  0.00  0.00    -0.287 OA
ATOM     14  C   UNL     1      -1.006   5.204 -18.366  0.00  0.00    +0.024 A 
ATOM     15  C   UNL     1      -0.506   6.482 -18.669  0.00  0.00    -0.047 A 
ATOM     16  C   UNL     1       0.512   7.057 -17.899  0.00  0.00    -0.017 A 
ATOM     17  C   UNL     1       1.029   6.365 -16.807  0.00  0.00    +0.147 A 
ATOM     18  O   UNL     1       2.044   6.906 -16.078  0.00  0.00    -0.504 OA
ATOM     19  C   UNL     1       0.508   5.108 -16.493  0.00  0.00    +0.168 A 
ATOM     20  N   UNL     1       1.008   4.373 -15.347  0.00  0.00    +0.060 N 
ATOM     21  O   UNL     1       0.888   4.896 -14.231  0.00  0.00    -0.126 OA
ATOM     22  O   UNL     1       1.456   3.240 -15.568  0.00  0.00    -0.126 OA
ATOM     23  C   UNL     1      -0.504   4.513 -17.260  0.00  0.00    -0.017 A 
ATOM     24  H   UNL     1      -4.220  -3.230 -21.647  0.00  0.00    +0.000 HD
ATOM     25  H   UNL     1       2.382   7.751 -16.301  0.00  0.00    +0.000 HD
ENDROOT
TORSDOF 0
ENDMDL
MODEL 5
REMARK VINA RESULT:    -7.179     13.924     14.571
REMARK INTER + INTRA:          -7.179
REMARK INTER:                  -7.179
REMARK INTRA:                   0.000
REMARK UNBOUND:                 0.000
REMARK  Name = /home/vital/Documents/PhD_2021/Malaria_codes/scripts/../data/pdbqt_ligands/ligand_63_temp.pdb
REMARK                            x       y       z     vdW  Elec       q    Type
REMARK                         _______ _______ _______ _____ _____    ______ ____
ROOT
ATOM      1  C   UNL     1       6.985  -2.372 -21.441  0.00  0.00    +0.079 C 
ATOM      2  O   UNL     1       7.700  -2.101 -22.639  0.00  0.00    -0.494 OA
ATOM      3  C   UNL     1       7.427  -2.876 -23.740  0.00  0.00    +0.131 A 
ATOM      4  C   UNL     1       6.455  -3.884 -23.772  0.00  0.00    +0.022 A 
ATOM      5  C   UNL     1       6.254  -4.615 -24.941  0.00  0.00    +0.120 A 
ATOM      6  O   UNL     1       5.317  -5.604 -25.011  0.00  0.00    -0.507 OA
ATOM      7  C   UNL     1       7.007  -4.365 -26.079  0.00  0.00    -0.019 A 
ATOM      8  C   UNL     1       7.976  -3.365 -26.057  0.00  0.00    -0.048 A 
ATOM      9  C   UNL     1       8.190  -2.600 -24.898  0.00  0.00    +0.017 A 
ATOM     10  C   UNL     1       9.237  -1.562 -24.879  0.00  0.00    -0.047 C 
ATOM     11  C   UNL     1       9.432  -0.681 -25.872  0.00  0.00    -0.014 C 
ATOM     12  C   UNL     1      10.496   0.350 -25.742  0.00  0.00    +0.186 C 
ATOM     13  O   UNL     1      11.114   0.528 -24.697  0.00  0.00    -0.287 OA
ATOM     14  C   UNL     1      10.787   1.210 -26.920  0.00  0.00    +0.024 A 
ATOM     15  C   UNL     1      11.276   2.507 -26.682  0.00  0.00    -0.047 A 
ATOM     16  C   UNL     1      11.573   3.369 -27.745  0.00  0.00    -0.017 A 
ATOM     17  C   UNL     1      11.398   2.936 -29.056  0.00  0.00    +0.147 A 
ATOM     18  O   UNL     1      11.651   3.785 -30.091  0.00  0.00    -0.504 OA
ATOM     19  C   UNL     1      10.940   1.637 -29.287  0.00  0.00    +0.168 A 
ATOM     20  N   UNL     1      10.772   1.149 -30.642  0.00  0.00    +0.060 N 
ATOM     21  O   UNL     1      11.774   1.112 -31.369  0.00  0.00    -0.126 OA
ATOM     22  O   UNL     1       9.644   0.737 -30.947  0.00  0.00    -0.126 OA
ATOM     23  C   UNL     1      10.628   0.765 -28.234  0.00  0.00    -0.017 A 
ATOM     24  H   UNL     1       4.789  -5.802 -24.262  0.00  0.00    +0.000 HD
ATOM     25  H   UNL     1      11.959   4.654 -29.920  0.00  0.00    +0.000 HD
ENDROOT
TORSDOF 0
ENDMDL
MODEL 6
REMARK VINA RESULT:    -7.096     18.508     19.574
REMARK INTER + INTRA:          -7.096
REMARK INTER:                  -7.096
REMARK INTRA:                   0.000
REMARK UNBOUND:                 0.000
REMARK  Name = /home/vital/Documents/PhD_2021/Malaria_codes/scripts/../data/pdbqt_ligands/ligand_63_temp.pdb
REMARK                            x       y       z     vdW  Elec       q    Type
REMARK                         _______ _______ _______ _____ _____    ______ ____
ROOT
ATOM      1  C   UNL     1     -11.162 -12.653 -33.447  0.00  0.00    +0.079 C 
ATOM      2  O   UNL     1      -9.899 -12.080 -33.135  0.00  0.00    -0.494 OA
ATOM      3  C   UNL     1      -9.363 -12.340 -31.898  0.00  0.00    +0.131 A 
ATOM      4  C   UNL     1      -9.957 -13.175 -30.941  0.00  0.00    +0.022 A 
ATOM      5  C   UNL     1      -9.330 -13.374 -29.713  0.00  0.00    +0.120 A 
ATOM      6  O   UNL     1      -9.878 -14.180 -28.757  0.00  0.00    -0.507 OA
ATOM      7  C   UNL     1      -8.125 -12.757 -29.415  0.00  0.00    -0.019 A 
ATOM      8  C   UNL     1      -7.526 -11.926 -30.360  0.00  0.00    -0.048 A 
ATOM      9  C   UNL     1      -8.126 -11.718 -31.613  0.00  0.00    +0.017 A 
ATOM     10  C   UNL     1      -7.496 -10.814 -32.594  0.00  0.00    -0.047 C 
ATOM     11  C   UNL     1      -6.184 -10.817 -32.875  0.00  0.00    -0.014 C 
ATOM     12  C   UNL     1      -5.651  -9.887 -33.906  0.00  0.00    +0.186 C 
ATOM     13  O   UNL     1      -6.383  -9.213 -34.625  0.00  0.00    -0.287 OA
ATOM     14  C   UNL     1      -4.177  -9.807 -34.084  0.00  0.00    +0.024 A 
ATOM     15  C   UNL     1      -3.685  -9.470 -35.357  0.00  0.00    -0.047 A 
ATOM     16  C   UNL     1      -2.309  -9.375 -35.593  0.00  0.00    -0.017 A 
ATOM     17  C   UNL     1      -1.411  -9.600 -34.554  0.00  0.00    +0.147 A 
ATOM     18  O   UNL     1      -0.070  -9.544 -34.790  0.00  0.00    -0.504 OA
ATOM     19  C   UNL     1      -1.905  -9.905 -33.284  0.00  0.00    +0.168 A 
ATOM     20  N   UNL     1      -0.996 -10.119 -32.175  0.00  0.00    +0.060 N 
ATOM     21  O   UNL     1      -0.251  -9.183 -31.853  0.00  0.00    -0.126 OA
ATOM     22  O   UNL     1      -1.085 -11.205 -31.587  0.00  0.00    -0.126 OA
ATOM     23  C   UNL     1      -3.281 -10.014 -33.032  0.00  0.00    -0.017 A 
ATOM     24  H   UNL     1     -10.692 -14.615 -28.921  0.00  0.00    +0.000 HD
ATOM     25  H   UNL     1       0.247  -9.337 -35.648  0.00  0.00    +0.000 HD
ENDROOT
TORSDOF 0
ENDMDL
MODEL 7
REMARK VINA RESULT:    -6.668     13.363     15.720
REMARK INTER + INTRA:          -6.668
REMARK INTER:                  -6.668
REMARK INTRA:                   0.000
REMARK UNBOUND:                 0.000
REMARK  Name = /home/vital/Documents/PhD_2021/Malaria_codes/scripts/../data/pdbqt_ligands/ligand_63_temp.pdb
REMARK                            x       y       z     vdW  Elec       q    Type
REMARK                         _______ _______ _______ _____ _____    ______ ____
ROOT
ATOM      1  C   UNL     1      12.806   2.560 -24.366  0.00  0.00    +0.079 C 
ATOM      2  O   UNL     1      11.682   1.844 -24.859  0.00  0.00    -0.494 OA
ATOM      3  C   UNL     1      11.305   2.057 -26.163  0.00  0.00    +0.131 A 
ATOM      4  C   UNL     1      11.988   2.897 -27.052  0.00  0.00    +0.022 A 
ATOM      5  C   UNL     1      11.524   3.045 -28.357  0.00  0.00    +0.120 A 
ATOM      6  O   UNL     1      12.161   3.855 -29.252  0.00  0.00    -0.507 OA
ATOM      7  C   UNL     1      10.390   2.376 -28.795  0.00  0.00    -0.019 A 
ATOM      8  C   UNL     1       9.706   1.538 -27.918  0.00  0.00    -0.048 A 
ATOM      9  C   UNL     1      10.159   1.356 -26.600  0.00  0.00    +0.017 A 
ATOM     10  C   UNL     1       9.409   0.487 -25.674  0.00  0.00    -0.047 C 
ATOM     11  C   UNL     1       8.931  -0.721 -26.007  0.00  0.00    -0.014 C 
ATOM     12  C   UNL     1       8.216  -1.536 -24.987  0.00  0.00    +0.186 C 
ATOM     13  O   UNL     1       8.170  -1.215 -23.804  0.00  0.00    -0.287 OA
ATOM     14  C   UNL     1       7.567  -2.799 -25.429  0.00  0.00    +0.024 A 
ATOM     15  C   UNL     1       7.448  -3.839 -24.491  0.00  0.00    -0.047 A 
ATOM     16  C   UNL     1       6.845  -5.054 -24.838  0.00  0.00    -0.017 A 
ATOM     17  C   UNL     1       6.342  -5.235 -26.123  0.00  0.00    +0.147 A 
ATOM     18  O   UNL     1       5.788  -6.429 -26.475  0.00  0.00    -0.504 OA
ATOM     19  C   UNL     1       6.437  -4.188 -27.042  0.00  0.00    +0.168 A 
ATOM     20  N   UNL     1       5.899  -4.336 -28.381  0.00  0.00    +0.060 N 
ATOM     21  O   UNL     1       4.686  -4.557 -28.492  0.00  0.00    -0.126 OA
ATOM     22  O   UNL     1       6.689  -4.159 -29.318  0.00  0.00    -0.126 OA
ATOM     23  C   UNL     1       7.046  -2.968 -26.714  0.00  0.00    -0.017 A 
ATOM     24  H   UNL     1      12.931   4.324 -28.994  0.00  0.00    +0.000 HD
ATOM     25  H   UNL     1       5.731  -7.122 -25.846  0.00  0.00    +0.000 HD
ENDROOT
TORSDOF 0
ENDMDL
MODEL 8
REMARK VINA RESULT:    -6.614     11.906     15.127
REMARK INTER + INTRA:          -6.614
REMARK INTER:                  -6.614
REMARK INTRA:                   0.000
REMARK UNBOUND:                 0.000
REMARK  Name = /home/vital/Documents/PhD_2021/Malaria_codes/scripts/../data/pdbqt_ligands/ligand_63_temp.pdb
REMARK                            x       y       z     vdW  Elec       q    Type
REMARK                         _______ _______ _______ _____ _____    ______ ____
ROOT
ATOM      1  C   UNL     1       9.070  -2.024 -25.347  0.00  0.00    +0.079 C 
ATOM      2  O   UNL     1       8.132  -2.712 -26.163  0.00  0.00    -0.494 OA
ATOM      3  C   UNL     1       7.109  -3.386 -25.540  0.00  0.00    +0.131 A 
ATOM      4  C   UNL     1       6.902  -3.396 -24.154  0.00  0.00    +0.022 A 
ATOM      5  C   UNL     1       5.833  -4.111 -23.620  0.00  0.00    +0.120 A 
ATOM      6  O   UNL     1       5.600  -4.144 -22.275  0.00  0.00    -0.507 OA
ATOM      7  C   UNL     1       4.966  -4.820 -24.437  0.00  0.00    -0.019 A 
ATOM      8  C   UNL     1       5.162  -4.815 -25.816  0.00  0.00    -0.048 A 
ATOM      9  C   UNL     1       6.223  -4.091 -26.386  0.00  0.00    +0.017 A 
ATOM     10  C   UNL     1       6.437  -4.116 -27.845  0.00  0.00    -0.047 C 
ATOM     11  C   UNL     1       5.451  -3.982 -28.745  0.00  0.00    -0.014 C 
ATOM     12  C   UNL     1       5.775  -3.988 -30.197  0.00  0.00    +0.186 C 
ATOM     13  O   UNL     1       6.930  -3.962 -30.612  0.00  0.00    -0.287 OA
ATOM     14  C   UNL     1       4.648  -3.993 -31.167  0.00  0.00    +0.024 A 
ATOM     15  C   UNL     1       4.860  -3.397 -32.423  0.00  0.00    -0.047 A 
ATOM     16  C   UNL     1       3.843  -3.368 -33.385  0.00  0.00    -0.017 A 
ATOM     17  C   UNL     1       2.609  -3.949 -33.105  0.00  0.00    +0.147 A 
ATOM     18  O   UNL     1       1.606  -3.890 -34.026  0.00  0.00    -0.504 OA
ATOM     19  C   UNL     1       2.414  -4.565 -31.868  0.00  0.00    +0.168 A 
ATOM     20  N   UNL     1       1.149  -5.201 -31.557  0.00  0.00    +0.060 N 
ATOM     21  O   UNL     1       0.783  -6.139 -32.278  0.00  0.00    -0.126 OA
ATOM     22  O   UNL     1       0.561  -4.799 -30.543  0.00  0.00    -0.126 OA
ATOM     23  C   UNL     1       3.418  -4.594 -30.889  0.00  0.00    -0.017 A 
ATOM     24  H   UNL     1       6.164  -3.678 -21.690  0.00  0.00    +0.000 HD
ATOM     25  H   UNL     1       1.753  -3.474 -34.852  0.00  0.00    +0.000 HD
ENDROOT
TORSDOF 0
ENDMDL
MODEL 9
REMARK VINA RESULT:    -6.325     15.388     17.545
REMARK INTER + INTRA:          -6.325
REMARK INTER:                  -6.325
REMARK INTRA:                   0.000
REMARK UNBOUND:                 0.000
REMARK  Name = /home/vital/Documents/PhD_2021/Malaria_codes/scripts/../data/pdbqt_ligands/ligand_63_temp.pdb
REMARK                            x       y       z     vdW  Elec       q    Type
REMARK                         _______ _______ _______ _____ _____    ______ ____
ROOT
ATOM      1  C   UNL     1       9.640   0.777 -31.342  0.00  0.00    +0.079 C 
ATOM      2  O   UNL     1       8.316   0.291 -31.513  0.00  0.00    -0.494 OA
ATOM      3  C   UNL     1       7.388   1.135 -32.072  0.00  0.00    +0.131 A 
ATOM      4  C   UNL     1       7.675   2.427 -32.532  0.00  0.00    +0.022 A 
ATOM      5  C   UNL     1       6.661   3.205 -33.086  0.00  0.00    +0.120 A 
ATOM      6  O   UNL     1       6.901   4.468 -33.544  0.00  0.00    -0.507 OA
ATOM      7  C   UNL     1       5.364   2.724 -33.188  0.00  0.00    -0.019 A 
ATOM      8  C   UNL     1       5.069   1.441 -32.734  0.00  0.00    -0.048 A 
ATOM      9  C   UNL     1       6.074   0.626 -32.185  0.00  0.00    +0.017 A 
ATOM     10  C   UNL     1       5.744  -0.720 -31.684  0.00  0.00    -0.047 C 
ATOM     11  C   UNL     1       4.965  -1.591 -32.343  0.00  0.00    -0.014 C 
ATOM     12  C   UNL     1       4.718  -2.940 -31.766  0.00  0.00    +0.186 C 
ATOM     13  O   UNL     1       5.317  -3.352 -30.778  0.00  0.00    -0.287 OA
ATOM     14  C   UNL     1       3.730  -3.823 -32.443  0.00  0.00    +0.024 A 
ATOM     15  C   UNL     1       3.913  -5.213 -32.342  0.00  0.00    -0.047 A 
ATOM     16  C   UNL     1       3.020  -6.101 -32.953  0.00  0.00    -0.017 A 
ATOM     17  C   UNL     1       1.926  -5.607 -33.658  0.00  0.00    +0.147 A 
ATOM     18  O   UNL     1       1.076  -6.468 -34.284  0.00  0.00    -0.504 OA
ATOM     19  C   UNL     1       1.733  -4.226 -33.730  0.00  0.00    +0.168 A 
ATOM     20  N   UNL     1       0.588  -3.682 -34.435  0.00  0.00    +0.060 N 
ATOM     21  O   UNL     1      -0.539  -3.996 -34.030  0.00  0.00    -0.126 OA
ATOM     22  O   UNL     1       0.830  -2.884 -35.350  0.00  0.00    -0.126 OA
ATOM     23  C   UNL     1       2.623  -3.322 -33.133  0.00  0.00    -0.017 A 
ATOM     24  H   UNL     1       7.765   4.828 -33.493  0.00  0.00    +0.000 HD
ATOM     25  H   UNL     1       1.219  -7.393 -34.225  0.00  0.00    +0.000 HD
ENDROOT
TORSDOF 0
ENDMDL
