MODEL 1
REMARK VINA RESULT:    -7.174      0.000      0.000
REMARK INTER + INTRA:          -7.174
REMARK INTER:                  -7.174
REMARK INTRA:                   0.000
REMARK UNBOUND:                 0.000
REMARK  Name = /home/vital/Documents/PhD_2021/Malaria_codes/scripts/../data/pdbqt_ligands/ligand_80_temp.pdb
REMARK                            x       y       z     vdW  Elec       q    Type
REMARK                         _______ _______ _______ _____ _____    ______ ____
ROOT
ATOM      1  C   UNL     1       7.235  -3.475 -23.700  0.00  0.00    -0.013 C 
ATOM      2  N   UNL     1       8.241  -3.090 -24.691  0.00  0.00    -0.304 N 
ATOM      3  C   UNL     1       9.567  -3.068 -24.073  0.00  0.00    -0.013 C 
ATOM      4  C   UNL     1       8.239  -4.010 -25.844  0.00  0.00    +0.023 C 
ATOM      5  C   UNL     1       6.991  -3.913 -26.696  0.00  0.00    -0.033 A 
ATOM      6  C   UNL     1       6.207  -5.047 -26.947  0.00  0.00    -0.057 A 
ATOM      7  C   UNL     1       5.067  -4.957 -27.748  0.00  0.00    -0.057 A 
ATOM      8  C   UNL     1       4.688  -3.735 -28.322  0.00  0.00    -0.034 A 
ATOM      9  C   UNL     1       3.446  -3.638 -29.176  0.00  0.00    +0.021 C 
ATOM     10  N   UNL     1       3.451  -4.541 -30.330  0.00  0.00    -0.309 N 
ATOM     11  C   UNL     1       4.422  -4.113 -31.356  0.00  0.00    +0.026 C 
ATOM     12  C   UNL     1       4.402  -5.007 -32.621  0.00  0.00    +0.093 C 
ATOM     13  O   UNL     1       5.432  -4.576 -33.518  0.00  0.00    -0.386 OA
ATOM     14  C   UNL     1       3.072  -4.989 -33.352  0.00  0.00    -0.018 A 
ATOM     15  C   UNL     1       2.643  -3.845 -34.046  0.00  0.00    -0.056 A 
ATOM     16  C   UNL     1       1.414  -3.836 -34.706  0.00  0.00    -0.061 A 
ATOM     17  C   UNL     1       0.599  -4.965 -34.680  0.00  0.00    -0.062 A 
ATOM     18  C   UNL     1       1.012  -6.106 -33.993  0.00  0.00    -0.061 A 
ATOM     19  C   UNL     1       2.242  -6.118 -33.332  0.00  0.00    -0.056 A 
ATOM     20  C   UNL     1       5.472  -2.602 -28.072  0.00  0.00    -0.057 A 
ATOM     21  C   UNL     1       6.613  -2.691 -27.270  0.00  0.00    -0.057 A 
ATOM     22  H   UNL     1       8.010  -2.156 -25.032  0.00  0.00    +0.000 HD
ATOM     23  H   UNL     1       2.519  -4.555 -30.743  0.00  0.00    +0.000 HD
ATOM     24  H   UNL     1       3.722  -5.470 -30.006  0.00  0.00    +0.000 HD
ATOM     25  H   UNL     1       5.256  -3.664 -33.798  0.00  0.00    +0.000 HD
ENDROOT
TORSDOF 0
ENDMDL
MODEL 2
REMARK VINA RESULT:    -6.989     12.553     14.004
REMARK INTER + INTRA:          -6.989
REMARK INTER:                  -6.989
REMARK INTRA:                   0.000
REMARK UNBOUND:                 0.000
REMARK  Name = /home/vital/Documents/PhD_2021/Malaria_codes/scripts/../data/pdbqt_ligands/ligand_80_temp.pdb
REMARK                            x       y       z     vdW  Elec       q    Type
REMARK                         _______ _______ _______ _____ _____    ______ ____
ROOT
ATOM      1  C   UNL     1       2.640   6.407 -17.368  0.00  0.00    -0.013 C 
ATOM      2  N   UNL     1       2.780   5.311 -16.406  0.00  0.00    -0.304 N 
ATOM      3  C   UNL     1       3.412   5.801 -15.181  0.00  0.00    -0.013 C 
ATOM      4  C   UNL     1       1.474   4.703 -16.091  0.00  0.00    +0.023 C 
ATOM      5  C   UNL     1       0.858   3.949 -17.251  0.00  0.00    -0.033 A 
ATOM      6  C   UNL     1      -0.424   4.271 -17.713  0.00  0.00    -0.057 A 
ATOM      7  C   UNL     1      -0.996   3.561 -18.771  0.00  0.00    -0.057 A 
ATOM      8  C   UNL     1      -0.302   2.509 -19.385  0.00  0.00    -0.034 A 
ATOM      9  C   UNL     1      -0.916   1.752 -20.539  0.00  0.00    +0.021 C 
ATOM     10  N   UNL     1      -2.207   1.135 -20.220  0.00  0.00    -0.309 N 
ATOM     11  C   UNL     1      -2.055  -0.009 -19.301  0.00  0.00    +0.026 C 
ATOM     12  C   UNL     1      -3.393  -0.727 -18.999  0.00  0.00    +0.093 C 
ATOM     13  O   UNL     1      -3.166  -1.760 -18.033  0.00  0.00    -0.386 OA
ATOM     14  C   UNL     1      -4.043  -1.335 -20.229  0.00  0.00    -0.018 A 
ATOM     15  C   UNL     1      -3.483  -2.456 -20.863  0.00  0.00    -0.056 A 
ATOM     16  C   UNL     1      -4.082  -3.002 -21.999  0.00  0.00    -0.061 A 
ATOM     17  C   UNL     1      -5.245  -2.433 -22.515  0.00  0.00    -0.062 A 
ATOM     18  C   UNL     1      -5.809  -1.319 -21.897  0.00  0.00    -0.061 A 
ATOM     19  C   UNL     1      -5.212  -0.773 -20.760  0.00  0.00    -0.056 A 
ATOM     20  C   UNL     1       0.980   2.186 -18.923  0.00  0.00    -0.057 A 
ATOM     21  C   UNL     1       1.553   2.897 -17.864  0.00  0.00    -0.057 A 
ATOM     22  H   UNL     1       3.369   4.592 -16.828  0.00  0.00    +0.000 HD
ATOM     23  H   UNL     1      -2.640   0.809 -21.084  0.00  0.00    +0.000 HD
ATOM     24  H   UNL     1      -2.789   1.836 -19.760  0.00  0.00    +0.000 HD
ATOM     25  H   UNL     1      -2.555  -2.418 -18.401  0.00  0.00    +0.000 HD
ENDROOT
TORSDOF 0
ENDMDL
MODEL 3
REMARK VINA RESULT:    -6.973      2.348      8.887
REMARK INTER + INTRA:          -6.973
REMARK INTER:                  -6.973
REMARK INTRA:                   0.000
REMARK UNBOUND:                 0.000
REMARK  Name = /home/vital/Documents/PhD_2021/Malaria_codes/scripts/../data/pdbqt_ligands/ligand_80_temp.pdb
REMARK                            x       y       z     vdW  Elec       q    Type
REMARK                         _______ _______ _______ _____ _____    ______ ____
ROOT
ATOM      1  C   UNL     1       0.676  -4.347 -33.931  0.00  0.00    -0.013 C 
ATOM      2  N   UNL     1       0.563  -5.660 -33.292  0.00  0.00    -0.304 N 
ATOM      3  C   UNL     1      -0.040  -6.616 -34.221  0.00  0.00    -0.013 C 
ATOM      4  C   UNL     1       1.879  -6.154 -32.846  0.00  0.00    +0.023 C 
ATOM      5  C   UNL     1       2.470  -5.361 -31.699  0.00  0.00    -0.033 A 
ATOM      6  C   UNL     1       3.739  -4.780 -31.810  0.00  0.00    -0.057 A 
ATOM      7  C   UNL     1       4.288  -4.065 -30.743  0.00  0.00    -0.057 A 
ATOM      8  C   UNL     1       3.583  -3.920 -29.540  0.00  0.00    -0.034 A 
ATOM      9  C   UNL     1       4.172  -3.133 -28.393  0.00  0.00    +0.021 C 
ATOM     10  N   UNL     1       5.472  -3.635 -27.940  0.00  0.00    -0.309 N 
ATOM     11  C   UNL     1       5.346  -4.928 -27.240  0.00  0.00    +0.026 C 
ATOM     12  C   UNL     1       6.695  -5.452 -26.685  0.00  0.00    +0.093 C 
ATOM     13  O   UNL     1       6.495  -6.746 -26.106  0.00  0.00    -0.386 OA
ATOM     14  C   UNL     1       7.316  -4.537 -25.646  0.00  0.00    -0.018 A 
ATOM     15  C   UNL     1       6.746  -4.397 -24.370  0.00  0.00    -0.056 A 
ATOM     16  C   UNL     1       7.319  -3.546 -23.425  0.00  0.00    -0.061 A 
ATOM     17  C   UNL     1       8.467  -2.823 -23.744  0.00  0.00    -0.062 A 
ATOM     18  C   UNL     1       9.042  -2.950 -25.007  0.00  0.00    -0.061 A 
ATOM     19  C   UNL     1       8.470  -3.802 -25.953  0.00  0.00    -0.056 A 
ATOM     20  C   UNL     1       2.314  -4.502 -29.428  0.00  0.00    -0.057 A 
ATOM     21  C   UNL     1       1.764  -5.217 -30.495  0.00  0.00    -0.057 A 
ATOM     22  H   UNL     1      -0.033  -5.562 -32.470  0.00  0.00    +0.000 HD
ATOM     23  H   UNL     1       5.885  -2.954 -27.303  0.00  0.00    +0.000 HD
ATOM     24  H   UNL     1       6.063  -3.775 -28.760  0.00  0.00    +0.000 HD
ATOM     25  H   UNL     1       5.877  -6.675 -25.361  0.00  0.00    +0.000 HD
ENDROOT
TORSDOF 0
ENDMDL
MODEL 4
REMARK VINA RESULT:    -6.622     12.555     14.146
REMARK INTER + INTRA:          -6.622
REMARK INTER:                  -6.622
REMARK INTRA:                   0.000
REMARK UNBOUND:                 0.000
REMARK  Name = /home/vital/Documents/PhD_2021/Malaria_codes/scripts/../data/pdbqt_ligands/ligand_80_temp.pdb
REMARK                            x       y       z     vdW  Elec       q    Type
REMARK                         _______ _______ _______ _____ _____    ______ ____
ROOT
ATOM      1  C   UNL     1       1.735   7.712 -18.389  0.00  0.00    -0.013 C 
ATOM      2  N   UNL     1       2.215   6.676 -17.471  0.00  0.00    -0.304 N 
ATOM      3  C   UNL     1       2.928   7.294 -16.353  0.00  0.00    -0.013 C 
ATOM      4  C   UNL     1       1.102   5.851 -16.964  0.00  0.00    +0.023 C 
ATOM      5  C   UNL     1       0.462   4.978 -18.022  0.00  0.00    -0.033 A 
ATOM      6  C   UNL     1      -0.913   5.058 -18.279  0.00  0.00    -0.057 A 
ATOM      7  C   UNL     1      -1.503   4.238 -19.243  0.00  0.00    -0.057 A 
ATOM      8  C   UNL     1      -0.734   3.316 -19.967  0.00  0.00    -0.034 A 
ATOM      9  C   UNL     1      -1.372   2.441 -21.020  0.00  0.00    +0.021 C 
ATOM     10  N   UNL     1      -2.468   1.609 -20.512  0.00  0.00    -0.309 N 
ATOM     11  C   UNL     1      -1.974   0.528 -19.638  0.00  0.00    +0.026 C 
ATOM     12  C   UNL     1      -3.100  -0.413 -19.141  0.00  0.00    +0.093 C 
ATOM     13  O   UNL     1      -2.546  -1.371 -18.232  0.00  0.00    -0.386 OA
ATOM     14  C   UNL     1      -3.810  -1.149 -20.262  0.00  0.00    -0.018 A 
ATOM     15  C   UNL     1      -3.163  -2.164 -20.986  0.00  0.00    -0.056 A 
ATOM     16  C   UNL     1      -3.821  -2.828 -22.021  0.00  0.00    -0.061 A 
ATOM     17  C   UNL     1      -5.132  -2.486 -22.347  0.00  0.00    -0.062 A 
ATOM     18  C   UNL     1      -5.785  -1.479 -21.638  0.00  0.00    -0.061 A 
ATOM     19  C   UNL     1      -5.128  -0.814 -20.601  0.00  0.00    -0.056 A 
ATOM     20  C   UNL     1       0.640   3.235 -19.710  0.00  0.00    -0.057 A 
ATOM     21  C   UNL     1       1.231   4.056 -18.746  0.00  0.00    -0.057 A 
ATOM     22  H   UNL     1       2.851   6.067 -17.985  0.00  0.00    +0.000 HD
ATOM     23  H   UNL     1      -2.962   1.196 -21.301  0.00  0.00    +0.000 HD
ATOM     24  H   UNL     1      -3.088   2.203 -19.961  0.00  0.00    +0.000 HD
ATOM     25  H   UNL     1      -1.891  -1.915 -18.696  0.00  0.00    +0.000 HD
ENDROOT
TORSDOF 0
ENDMDL
MODEL 5
REMARK VINA RESULT:    -6.583     12.779     16.468
REMARK INTER + INTRA:          -6.583
REMARK INTER:                  -6.583
REMARK INTRA:                   0.000
REMARK UNBOUND:                 0.000
REMARK  Name = /home/vital/Documents/PhD_2021/Malaria_codes/scripts/../data/pdbqt_ligands/ligand_80_temp.pdb
REMARK                            x       y       z     vdW  Elec       q    Type
REMARK                         _______ _______ _______ _____ _____    ______ ____
ROOT
ATOM      1  C   UNL     1      -3.728  -2.401 -22.379  0.00  0.00    -0.013 C 
ATOM      2  N   UNL     1      -4.816  -1.446 -22.154  0.00  0.00    -0.304 N 
ATOM      3  C   UNL     1      -6.106  -2.107 -22.349  0.00  0.00    -0.013 C 
ATOM      4  C   UNL     1      -4.748  -0.865 -20.800  0.00  0.00    +0.023 C 
ATOM      5  C   UNL     1      -3.558   0.048 -20.589  0.00  0.00    -0.033 A 
ATOM      6  C   UNL     1      -2.651  -0.188 -19.548  0.00  0.00    -0.057 A 
ATOM      7  C   UNL     1      -1.566   0.668 -19.346  0.00  0.00    -0.057 A 
ATOM      8  C   UNL     1      -1.366   1.780 -20.175  0.00  0.00    -0.034 A 
ATOM      9  C   UNL     1      -0.183   2.695 -19.964  0.00  0.00    +0.021 C 
ATOM     10  N   UNL     1      -0.125   3.285 -18.624  0.00  0.00    -0.309 N 
ATOM     11  C   UNL     1      -1.183   4.293 -18.423  0.00  0.00    +0.026 C 
ATOM     12  C   UNL     1      -1.107   4.987 -17.040  0.00  0.00    +0.093 C 
ATOM     13  O   UNL     1      -2.219   5.878 -16.897  0.00  0.00    -0.386 OA
ATOM     14  C   UNL     1       0.179   5.765 -16.826  0.00  0.00    -0.018 A 
ATOM     15  C   UNL     1       0.433   6.951 -17.533  0.00  0.00    -0.056 A 
ATOM     16  C   UNL     1       1.623   7.654 -17.337  0.00  0.00    -0.061 A 
ATOM     17  C   UNL     1       2.572   7.179 -16.434  0.00  0.00    -0.062 A 
ATOM     18  C   UNL     1       2.333   6.002 -15.727  0.00  0.00    -0.061 A 
ATOM     19  C   UNL     1       1.143   5.298 -15.922  0.00  0.00    -0.056 A 
ATOM     20  C   UNL     1      -2.273   2.017 -21.216  0.00  0.00    -0.057 A 
ATOM     21  C   UNL     1      -3.360   1.162 -21.419  0.00  0.00    -0.057 A 
ATOM     22  H   UNL     1      -4.716  -0.687 -22.828  0.00  0.00    +0.000 HD
ATOM     23  H   UNL     1       0.783   3.731 -18.498  0.00  0.00    +0.000 HD
ATOM     24  H   UNL     1      -0.264   2.539 -17.942  0.00  0.00    +0.000 HD
ATOM     25  H   UNL     1      -2.169   6.568 -17.577  0.00  0.00    +0.000 HD
ENDROOT
TORSDOF 0
ENDMDL
MODEL 6
REMARK VINA RESULT:    -6.392      3.216      8.999
REMARK INTER + INTRA:          -6.392
REMARK INTER:                  -6.392
REMARK INTRA:                   0.000
REMARK UNBOUND:                 0.000
REMARK  Name = /home/vital/Documents/PhD_2021/Malaria_codes/scripts/../data/pdbqt_ligands/ligand_80_temp.pdb
REMARK                            x       y       z     vdW  Elec       q    Type
REMARK                         _______ _______ _______ _____ _____    ______ ____
ROOT
ATOM      1  C   UNL     1      -1.663  -7.040 -32.535  0.00  0.00    -0.013 C 
ATOM      2  N   UNL     1      -1.231  -8.256 -31.842  0.00  0.00    -0.304 N 
ATOM      3  C   UNL     1      -1.711  -9.436 -32.561  0.00  0.00    -0.013 C 
ATOM      4  C   UNL     1       0.237  -8.307 -31.713  0.00  0.00    +0.023 C 
ATOM      5  C   UNL     1       0.802  -7.263 -30.773  0.00  0.00    -0.033 A 
ATOM      6  C   UNL     1       1.780  -6.361 -31.212  0.00  0.00    -0.057 A 
ATOM      7  C   UNL     1       2.312  -5.411 -30.337  0.00  0.00    -0.057 A 
ATOM      8  C   UNL     1       1.882  -5.345 -29.004  0.00  0.00    -0.034 A 
ATOM      9  C   UNL     1       2.448  -4.307 -28.064  0.00  0.00    +0.021 C 
ATOM     10  N   UNL     1       3.906  -4.369 -27.924  0.00  0.00    -0.309 N 
ATOM     11  C   UNL     1       4.333  -5.563 -27.169  0.00  0.00    +0.026 C 
ATOM     12  C   UNL     1       5.864  -5.622 -26.942  0.00  0.00    +0.093 C 
ATOM     13  O   UNL     1       6.196  -6.851 -26.286  0.00  0.00    -0.386 OA
ATOM     14  C   UNL     1       6.398  -4.464 -26.119  0.00  0.00    -0.018 A 
ATOM     15  C   UNL     1       6.110  -4.357 -24.748  0.00  0.00    -0.056 A 
ATOM     16  C   UNL     1       6.597  -3.283 -24.003  0.00  0.00    -0.061 A 
ATOM     17  C   UNL     1       7.374  -2.303 -24.617  0.00  0.00    -0.062 A 
ATOM     18  C   UNL     1       7.664  -2.395 -25.977  0.00  0.00    -0.061 A 
ATOM     19  C   UNL     1       7.179  -3.469 -26.724  0.00  0.00    -0.056 A 
ATOM     20  C   UNL     1       0.905  -6.247 -28.565  0.00  0.00    -0.057 A 
ATOM     21  C   UNL     1       0.372  -7.198 -29.440  0.00  0.00    -0.057 A 
ATOM     22  H   UNL     1      -1.630  -8.244 -30.903  0.00  0.00    +0.000 HD
ATOM     23  H   UNL     1       4.226  -3.536 -27.432  0.00  0.00    +0.000 HD
ATOM     24  H   UNL     1       4.313  -4.423 -28.858  0.00  0.00    +0.000 HD
ATOM     25  H   UNL     1       5.768  -6.879 -25.416  0.00  0.00    +0.000 HD
ENDROOT
TORSDOF 0
ENDMDL
MODEL 7
REMARK VINA RESULT:    -6.171     14.878     18.269
REMARK INTER + INTRA:          -6.171
REMARK INTER:                  -6.171
REMARK INTRA:                   0.000
REMARK UNBOUND:                 0.000
REMARK  Name = /home/vital/Documents/PhD_2021/Malaria_codes/scripts/../data/pdbqt_ligands/ligand_80_temp.pdb
REMARK                            x       y       z     vdW  Elec       q    Type
REMARK                         _______ _______ _______ _____ _____    ______ ____
ROOT
ATOM      1  C   UNL     1      -1.892   6.530 -22.794  0.00  0.00    -0.013 C 
ATOM      2  N   UNL     1      -2.856   6.489 -21.691  0.00  0.00    -0.304 N 
ATOM      3  C   UNL     1      -4.213   6.352 -22.221  0.00  0.00    -0.013 C 
ATOM      4  C   UNL     1      -2.563   5.380 -20.764  0.00  0.00    +0.023 C 
ATOM      5  C   UNL     1      -1.283   5.567 -19.978  0.00  0.00    -0.033 A 
ATOM      6  C   UNL     1      -0.272   4.598 -20.017  0.00  0.00    -0.057 A 
ATOM      7  C   UNL     1       0.900   4.766 -19.276  0.00  0.00    -0.057 A 
ATOM      8  C   UNL     1       1.085   5.901 -18.474  0.00  0.00    -0.034 A 
ATOM      9  C   UNL     1       2.359   6.087 -17.686  0.00  0.00    +0.021 C 
ATOM     10  N   UNL     1       2.641   4.992 -16.753  0.00  0.00    -0.309 N 
ATOM     11  C   UNL     1       1.708   4.993 -15.610  0.00  0.00    +0.026 C 
ATOM     12  C   UNL     1       2.023   3.890 -14.568  0.00  0.00    +0.093 C 
ATOM     13  O   UNL     1       1.019   3.906 -13.547  0.00  0.00    -0.386 OA
ATOM     14  C   UNL     1       3.387   4.043 -13.921  0.00  0.00    -0.018 A 
ATOM     15  C   UNL     1       3.649   5.090 -13.022  0.00  0.00    -0.056 A 
ATOM     16  C   UNL     1       4.909   5.228 -12.440  0.00  0.00    -0.061 A 
ATOM     17  C   UNL     1       5.923   4.324 -12.751  0.00  0.00    -0.062 A 
ATOM     18  C   UNL     1       5.678   3.282 -13.643  0.00  0.00    -0.061 A 
ATOM     19  C   UNL     1       4.417   3.142 -14.226  0.00  0.00    -0.056 A 
ATOM     20  C   UNL     1       0.074   6.869 -18.434  0.00  0.00    -0.057 A 
ATOM     21  C   UNL     1      -1.099   6.703 -19.176  0.00  0.00    -0.057 A 
ATOM     22  H   UNL     1      -2.780   7.364 -21.171  0.00  0.00    +0.000 HD
ATOM     23  H   UNL     1       3.593   5.094 -16.402  0.00  0.00    +0.000 HD
ATOM     24  H   UNL     1       2.528   4.111 -17.253  0.00  0.00    +0.000 HD
ATOM     25  H   UNL     1       1.039   4.760 -13.088  0.00  0.00    +0.000 HD
ENDROOT
TORSDOF 0
ENDMDL
MODEL 8
REMARK VINA RESULT:    -6.018      4.471      5.821
REMARK INTER + INTRA:          -6.018
REMARK INTER:                  -6.018
REMARK INTRA:                   0.000
REMARK UNBOUND:                 0.000
REMARK  Name = /home/vital/Documents/PhD_2021/Malaria_codes/scripts/../data/pdbqt_ligands/ligand_80_temp.pdb
REMARK                            x       y       z     vdW  Elec       q    Type
REMARK                         _______ _______ _______ _____ _____    ______ ____
ROOT
ATOM      1  C   UNL     1       5.180   1.124 -31.972  0.00  0.00    -0.013 C 
ATOM      2  N   UNL     1       5.975   0.067 -31.341  0.00  0.00    -0.304 N 
ATOM      3  C   UNL     1       6.962   0.659 -30.438  0.00  0.00    -0.013 C 
ATOM      4  C   UNL     1       5.118  -0.878 -30.600  0.00  0.00    +0.023 C 
ATOM      5  C   UNL     1       4.232  -1.722 -31.492  0.00  0.00    -0.033 A 
ATOM      6  C   UNL     1       2.843  -1.735 -31.313  0.00  0.00    -0.057 A 
ATOM      7  C   UNL     1       2.030  -2.529 -32.125  0.00  0.00    -0.057 A 
ATOM      8  C   UNL     1       2.589  -3.332 -33.129  0.00  0.00    -0.034 A 
ATOM      9  C   UNL     1       1.706  -4.179 -34.016  0.00  0.00    +0.021 C 
ATOM     10  N   UNL     1       0.867  -5.129 -33.280  0.00  0.00    -0.309 N 
ATOM     11  C   UNL     1       1.664  -6.227 -32.700  0.00  0.00    +0.026 C 
ATOM     12  C   UNL     1       0.798  -7.288 -31.975  0.00  0.00    +0.093 C 
ATOM     13  O   UNL     1       1.656  -8.261 -31.368  0.00  0.00    -0.386 OA
ATOM     14  C   UNL     1      -0.181  -7.997 -32.892  0.00  0.00    -0.018 A 
ATOM     15  C   UNL     1       0.267  -8.902 -33.868  0.00  0.00    -0.056 A 
ATOM     16  C   UNL     1      -0.641  -9.542 -34.713  0.00  0.00    -0.061 A 
ATOM     17  C   UNL     1      -2.005  -9.283 -34.595  0.00  0.00    -0.062 A 
ATOM     18  C   UNL     1      -2.462  -8.385 -33.633  0.00  0.00    -0.061 A 
ATOM     19  C   UNL     1      -1.556  -7.745 -32.786  0.00  0.00    -0.056 A 
ATOM     20  C   UNL     1       3.977  -3.321 -33.308  0.00  0.00    -0.057 A 
ATOM     21  C   UNL     1       4.791  -2.526 -32.496  0.00  0.00    -0.057 A 
ATOM     22  H   UNL     1       6.454  -0.452 -32.077  0.00  0.00    +0.000 HD
ATOM     23  H   UNL     1       0.178  -5.524 -33.919  0.00  0.00    +0.000 HD
ATOM     24  H   UNL     1       0.415  -4.628 -32.516  0.00  0.00    +0.000 HD
ATOM     25  H   UNL     1       2.165  -8.717 -32.056  0.00  0.00    +0.000 HD
ENDROOT
TORSDOF 0
ENDMDL
MODEL 9
REMARK VINA RESULT:    -5.979      5.677      6.901
REMARK INTER + INTRA:          -5.979
REMARK INTER:                  -5.979
REMARK INTRA:                   0.000
REMARK UNBOUND:                 0.000
REMARK  Name = /home/vital/Documents/PhD_2021/Malaria_codes/scripts/../data/pdbqt_ligands/ligand_80_temp.pdb
REMARK                            x       y       z     vdW  Elec       q    Type
REMARK                         _______ _______ _______ _____ _____    ______ ____
ROOT
ATOM      1  C   UNL     1       8.510   5.345 -32.717  0.00  0.00    -0.013 C 
ATOM      2  N   UNL     1       9.524   4.355 -33.088  0.00  0.00    -0.304 N 
ATOM      3  C   UNL     1      10.845   4.983 -33.118  0.00  0.00    -0.013 C 
ATOM      4  C   UNL     1       9.530   3.216 -32.152  0.00  0.00    +0.023 C 
ATOM      5  C   UNL     1       8.288   2.354 -32.236  0.00  0.00    -0.033 A 
ATOM      6  C   UNL     1       7.506   2.113 -31.099  0.00  0.00    -0.057 A 
ATOM      7  C   UNL     1       6.371   1.302 -31.178  0.00  0.00    -0.057 A 
ATOM      8  C   UNL     1       5.997   0.709 -32.392  0.00  0.00    -0.034 A 
ATOM      9  C   UNL     1       4.762  -0.155 -32.477  0.00  0.00    +0.021 C 
ATOM     10  N   UNL     1       4.775  -1.297 -31.557  0.00  0.00    -0.309 N 
ATOM     11  C   UNL     1       5.753  -2.321 -31.971  0.00  0.00    +0.026 C 
ATOM     12  C   UNL     1       5.742  -3.574 -31.059  0.00  0.00    +0.093 C 
ATOM     13  O   UNL     1       6.779  -4.470 -31.477  0.00  0.00    -0.386 OA
ATOM     14  C   UNL     1       4.418  -4.315 -31.067  0.00  0.00    -0.018 A 
ATOM     15  C   UNL     1       3.994  -5.028 -32.200  0.00  0.00    -0.056 A 
ATOM     16  C   UNL     1       2.769  -5.697 -32.201  0.00  0.00    -0.061 A 
ATOM     17  C   UNL     1       1.954  -5.661 -31.072  0.00  0.00    -0.062 A 
ATOM     18  C   UNL     1       2.362  -4.955 -29.941  0.00  0.00    -0.061 A 
ATOM     19  C   UNL     1       3.587  -4.285 -29.939  0.00  0.00    -0.056 A 
ATOM     20  C   UNL     1       6.780   0.948 -33.528  0.00  0.00    -0.057 A 
ATOM     21  C   UNL     1       7.915   1.759 -33.451  0.00  0.00    -0.057 A 
ATOM     22  H   UNL     1       9.295   4.000 -34.016  0.00  0.00    +0.000 HD
ATOM     23  H   UNL     1       3.846  -1.717 -31.538  0.00  0.00    +0.000 HD
ATOM     24  H   UNL     1       5.043  -0.958 -30.633  0.00  0.00    +0.000 HD
ATOM     25  H   UNL     1       6.605  -4.764 -32.385  0.00  0.00    +0.000 HD
ENDROOT
TORSDOF 0
ENDMDL
