MODEL 1
REMARK VINA RESULT:    -7.437      0.000      0.000
REMARK INTER + INTRA:          -7.437
REMARK INTER:                  -7.437
REMARK INTRA:                   0.000
REMARK UNBOUND:                 0.000
REMARK  Name = /home/vital/Documents/PhD_2021/Malaria_codes/scripts/../data/pdbqt_ligands/ligand_218_temp.pdb
REMARK                            x       y       z     vdW  Elec       q    Type
REMARK                         _______ _______ _______ _____ _____    ______ ____
ROOT
ATOM      1  C   UNL     1       4.253  -5.057 -19.986  0.00  0.00    -0.052 C 
ATOM      2  C   UNL     1       3.845  -3.818 -20.778  0.00  0.00    -0.004 C 
ATOM      3  N   UNL     1       4.119  -3.945 -22.217  0.00  0.00    -0.302 N 
ATOM      4  C   UNL     1       5.555  -4.078 -22.504  0.00  0.00    +0.000 C 
ATOM      5  C   UNL     1       5.951  -3.691 -23.940  0.00  0.00    -0.024 C 
ATOM      6  C   UNL     1       4.801  -3.958 -24.924  0.00  0.00    +0.013 C 
ATOM      7  N   UNL     1       5.130  -3.686 -26.352  0.00  0.00    -0.299 N 
ATOM      8  C   UNL     1       6.293  -4.427 -26.849  0.00  0.00    -0.000 C 
ATOM      9  C   UNL     1       6.741  -3.870 -28.208  0.00  0.00    -0.029 C 
ATOM     10  C   UNL     1       5.570  -3.479 -29.123  0.00  0.00    +0.038 C 
ATOM     11  C   UNL     1       5.867  -3.747 -30.595  0.00  0.00    +0.216 C 
ATOM     12  O   UNL     1       6.800  -4.436 -30.991  0.00  0.00    -0.276 OA
ATOM     13  N   UNL     1       4.966  -3.154 -31.454  0.00  0.00    -0.315 N 
ATOM     14  C   UNL     1       5.031  -3.350 -32.891  0.00  0.00    +0.016 C 
ATOM     15  C   UNL     1       4.538  -4.733 -33.334  0.00  0.00    -0.009 C 
ATOM     16  C   UNL     1       3.103  -5.000 -32.953  0.00  0.00    -0.008 A 
ATOM     17  C   UNL     1       2.792  -5.893 -31.918  0.00  0.00    -0.021 A 
ATOM     18  C   UNL     1       1.463  -6.113 -31.566  0.00  0.00    +0.124 A 
ATOM     19  F   UNL     1       1.177  -6.961 -30.569  0.00  0.00    -0.205 F 
ATOM     20  C   UNL     1       0.426  -5.465 -32.229  0.00  0.00    -0.024 A 
ATOM     21  C   UNL     1       0.725  -4.577 -33.262  0.00  0.00    -0.023 A 
ATOM     22  C   UNL     1       2.054  -4.352 -33.614  0.00  0.00    +0.127 A 
ATOM     23  F   UNL     1       2.323  -3.488 -34.602  0.00  0.00    -0.205 F 
ATOM     24  C   UNL     1       4.303  -4.216 -28.692  0.00  0.00    -0.029 C 
ATOM     25  C   UNL     1       3.960  -3.923 -27.227  0.00  0.00    -0.000 C 
ATOM     26  C   UNL     1       3.583  -3.111 -24.470  0.00  0.00    -0.024 C 
ATOM     27  C   UNL     1       3.546  -2.828 -22.964  0.00  0.00    +0.000 C 
ATOM     28  H   UNL     1       3.667  -4.806 -22.526  0.00  0.00    +0.000 HD
ATOM     29  H   UNL     1       5.383  -2.699 -26.384  0.00  0.00    +0.000 HD
ATOM     30  H   UNL     1       4.258  -2.580 -31.082  0.00  0.00    +0.000 HD
ENDROOT
TORSDOF 0
ENDMDL
MODEL 2
REMARK VINA RESULT:    -7.266      7.415     10.295
REMARK INTER + INTRA:          -7.266
REMARK INTER:                  -7.266
REMARK INTRA:                   0.000
REMARK UNBOUND:                 0.000
REMARK  Name = /home/vital/Documents/PhD_2021/Malaria_codes/scripts/../data/pdbqt_ligands/ligand_218_temp.pdb
REMARK                            x       y       z     vdW  Elec       q    Type
REMARK                         _______ _______ _______ _____ _____    ______ ____
ROOT
ATOM      1  C   UNL     1      12.499   7.504 -31.001  0.00  0.00    -0.052 C 
ATOM      2  C   UNL     1      13.097   6.109 -31.159  0.00  0.00    -0.004 C 
ATOM      3  N   UNL     1      12.516   5.129 -30.230  0.00  0.00    -0.302 N 
ATOM      4  C   UNL     1      12.788   5.462 -28.824  0.00  0.00    +0.000 C 
ATOM      5  C   UNL     1      12.686   4.266 -27.861  0.00  0.00    -0.024 C 
ATOM      6  C   UNL     1      11.670   3.230 -28.367  0.00  0.00    +0.013 C 
ATOM      7  N   UNL     1      11.450   2.076 -27.450  0.00  0.00    -0.299 N 
ATOM      8  C   UNL     1      11.028   2.458 -26.099  0.00  0.00    -0.000 C 
ATOM      9  C   UNL     1      11.119   1.254 -25.150  0.00  0.00    -0.029 C 
ATOM     10  C   UNL     1      10.683  -0.069 -25.799  0.00  0.00    +0.038 C 
ATOM     11  C   UNL     1       9.975  -0.994 -24.814  0.00  0.00    +0.216 C 
ATOM     12  O   UNL     1       9.557  -0.638 -23.718  0.00  0.00    -0.276 OA
ATOM     13  N   UNL     1       9.827  -2.283 -25.281  0.00  0.00    -0.315 N 
ATOM     14  C   UNL     1       9.114  -3.298 -24.525  0.00  0.00    +0.016 C 
ATOM     15  C   UNL     1       7.591  -3.114 -24.556  0.00  0.00    -0.009 C 
ATOM     16  C   UNL     1       7.016  -3.168 -25.950  0.00  0.00    -0.008 A 
ATOM     17  C   UNL     1       6.559  -2.003 -26.581  0.00  0.00    -0.021 A 
ATOM     18  C   UNL     1       6.049  -2.068 -27.875  0.00  0.00    +0.124 A 
ATOM     19  F   UNL     1       5.624  -0.948 -28.472  0.00  0.00    -0.205 F 
ATOM     20  C   UNL     1       5.977  -3.277 -28.560  0.00  0.00    -0.024 A 
ATOM     21  C   UNL     1       6.427  -4.441 -27.941  0.00  0.00    -0.023 A 
ATOM     22  C   UNL     1       6.941  -4.379 -26.647  0.00  0.00    +0.127 A 
ATOM     23  F   UNL     1       7.378  -5.506 -26.070  0.00  0.00    -0.205 F 
ATOM     24  C   UNL     1       9.786   0.212 -27.004  0.00  0.00    -0.029 C 
ATOM     25  C   UNL     1      10.496   1.104 -28.029  0.00  0.00    -0.000 C 
ATOM     26  C   UNL     1      12.146   2.742 -29.761  0.00  0.00    -0.024 C 
ATOM     27  C   UNL     1      12.970   3.775 -30.536  0.00  0.00    +0.000 C 
ATOM     28  H   UNL     1      11.505   5.168 -30.360  0.00  0.00    +0.000 HD
ATOM     29  H   UNL     1      12.365   1.636 -27.351  0.00  0.00    +0.000 HD
ATOM     30  H   UNL     1      10.215  -2.523 -26.153  0.00  0.00    +0.000 HD
ENDROOT
TORSDOF 0
ENDMDL
MODEL 3
REMARK VINA RESULT:    -7.200      4.853      7.756
REMARK INTER + INTRA:          -7.200
REMARK INTER:                  -7.200
REMARK INTRA:                   0.000
REMARK UNBOUND:                 0.000
REMARK  Name = /home/vital/Documents/PhD_2021/Malaria_codes/scripts/../data/pdbqt_ligands/ligand_218_temp.pdb
REMARK                            x       y       z     vdW  Elec       q    Type
REMARK                         _______ _______ _______ _____ _____    ______ ____
ROOT
ATOM      1  C   UNL     1      -6.046  -2.150 -22.344  0.00  0.00    -0.052 C 
ATOM      2  C   UNL     1      -4.967  -1.079 -22.471  0.00  0.00    -0.004 C 
ATOM      3  N   UNL     1      -3.609  -1.640 -22.525  0.00  0.00    -0.302 N 
ATOM      4  C   UNL     1      -3.246  -2.349 -21.289  0.00  0.00    +0.000 C 
ATOM      5  C   UNL     1      -1.730  -2.491 -21.064  0.00  0.00    -0.024 C 
ATOM      6  C   UNL     1      -0.974  -2.554 -22.401  0.00  0.00    +0.013 C 
ATOM      7  N   UNL     1       0.495  -2.774 -22.273  0.00  0.00    -0.299 N 
ATOM      8  C   UNL     1       0.855  -3.982 -21.525  0.00  0.00    -0.000 C 
ATOM      9  C   UNL     1       2.352  -3.972 -21.183  0.00  0.00    -0.029 C 
ATOM     10  C   UNL     1       3.233  -3.418 -22.314  0.00  0.00    +0.038 C 
ATOM     11  C   UNL     1       4.583  -4.123 -22.398  0.00  0.00    +0.216 C 
ATOM     12  O   UNL     1       4.842  -5.177 -21.829  0.00  0.00    -0.276 OA
ATOM     13  N   UNL     1       5.494  -3.472 -23.203  0.00  0.00    -0.315 N 
ATOM     14  C   UNL     1       6.811  -4.020 -23.473  0.00  0.00    +0.016 C 
ATOM     15  C   UNL     1       6.785  -5.194 -24.460  0.00  0.00    -0.009 C 
ATOM     16  C   UNL     1       6.215  -4.823 -25.807  0.00  0.00    -0.008 A 
ATOM     17  C   UNL     1       4.941  -5.264 -26.191  0.00  0.00    -0.021 A 
ATOM     18  C   UNL     1       4.423  -4.896 -27.430  0.00  0.00    +0.124 A 
ATOM     19  F   UNL     1       3.201  -5.315 -27.783  0.00  0.00    -0.205 F 
ATOM     20  C   UNL     1       5.151  -4.099 -28.306  0.00  0.00    -0.024 A 
ATOM     21  C   UNL     1       6.420  -3.657 -27.935  0.00  0.00    -0.023 A 
ATOM     22  C   UNL     1       6.940  -4.020 -26.694  0.00  0.00    +0.127 A 
ATOM     23  F   UNL     1       8.157  -3.579 -26.349  0.00  0.00    -0.205 F 
ATOM     24  C   UNL     1       2.495  -3.519 -23.647  0.00  0.00    -0.029 C 
ATOM     25  C   UNL     1       1.154  -2.777 -23.598  0.00  0.00    -0.000 C 
ATOM     26  C   UNL     1      -1.268  -1.241 -23.173  0.00  0.00    -0.024 C 
ATOM     27  C   UNL     1      -2.622  -0.608 -22.836  0.00  0.00    +0.000 C 
ATOM     28  H   UNL     1      -3.607  -2.327 -23.279  0.00  0.00    +0.000 HD
ATOM     29  H   UNL     1       0.836  -1.984 -21.725  0.00  0.00    +0.000 HD
ATOM     30  H   UNL     1       5.244  -2.609 -23.606  0.00  0.00    +0.000 HD
ENDROOT
TORSDOF 0
ENDMDL
MODEL 4
REMARK VINA RESULT:    -7.042     12.670     15.389
REMARK INTER + INTRA:          -7.042
REMARK INTER:                  -7.042
REMARK INTRA:                   0.000
REMARK UNBOUND:                 0.000
REMARK  Name = /home/vital/Documents/PhD_2021/Malaria_codes/scripts/../data/pdbqt_ligands/ligand_218_temp.pdb
REMARK                            x       y       z     vdW  Elec       q    Type
REMARK                         _______ _______ _______ _____ _____    ______ ____
ROOT
ATOM      1  C   UNL     1      -9.915   8.809 -27.749  0.00  0.00    -0.052 C 
ATOM      2  C   UNL     1     -10.609   7.882 -26.756  0.00  0.00    -0.004 C 
ATOM      3  N   UNL     1      -9.852   6.647 -26.503  0.00  0.00    -0.302 N 
ATOM      4  C   UNL     1      -9.714   5.818 -27.709  0.00  0.00    +0.000 C 
ATOM      5  C   UNL     1      -9.421   4.334 -27.425  0.00  0.00    -0.024 C 
ATOM      6  C   UNL     1      -8.639   4.164 -26.113  0.00  0.00    +0.013 C 
ATOM      7  N   UNL     1      -8.243   2.760 -25.804  0.00  0.00    -0.299 N 
ATOM      8  C   UNL     1      -7.450   2.117 -26.856  0.00  0.00    -0.000 C 
ATOM      9  C   UNL     1      -7.347   0.607 -26.600  0.00  0.00    -0.029 C 
ATOM     10  C   UNL     1      -7.176   0.250 -25.115  0.00  0.00    +0.038 C 
ATOM     11  C   UNL     1      -6.280  -0.968 -24.909  0.00  0.00    +0.216 C 
ATOM     12  O   UNL     1      -5.561  -1.445 -25.780  0.00  0.00    -0.276 OA
ATOM     13  N   UNL     1      -6.335  -1.480 -23.630  0.00  0.00    -0.315 N 
ATOM     14  C   UNL     1      -5.501  -2.592 -23.210  0.00  0.00    +0.016 C 
ATOM     15  C   UNL     1      -4.036  -2.196 -22.986  0.00  0.00    -0.009 C 
ATOM     16  C   UNL     1      -3.864  -1.137 -21.925  0.00  0.00    -0.008 A 
ATOM     17  C   UNL     1      -3.532   0.179 -22.274  0.00  0.00    -0.021 A 
ATOM     18  C   UNL     1      -3.396   1.148 -21.283  0.00  0.00    +0.124 A 
ATOM     19  F   UNL     1      -3.088   2.404 -21.629  0.00  0.00    -0.205 F 
ATOM     20  C   UNL     1      -3.580   0.834 -19.941  0.00  0.00    -0.024 A 
ATOM     21  C   UNL     1      -3.908  -0.472 -19.582  0.00  0.00    -0.023 A 
ATOM     22  C   UNL     1      -4.048  -1.443 -20.572  0.00  0.00    +0.127 A 
ATOM     23  F   UNL     1      -4.373  -2.691 -20.211  0.00  0.00    -0.205 F 
ATOM     24  C   UNL     1      -6.626   1.452 -24.349  0.00  0.00    -0.029 C 
ATOM     25  C   UNL     1      -7.537   2.675 -24.507  0.00  0.00    -0.000 C 
ATOM     26  C   UNL     1      -9.502   4.756 -24.967  0.00  0.00    -0.024 C 
ATOM     27  C   UNL     1     -10.447   5.877 -25.413  0.00  0.00    +0.000 C 
ATOM     28  H   UNL     1      -8.914   6.932 -26.223  0.00  0.00    +0.000 HD
ATOM     29  H   UNL     1      -9.120   2.242 -25.748  0.00  0.00    +0.000 HD
ATOM     30  H   UNL     1      -6.958  -1.079 -22.981  0.00  0.00    +0.000 HD
ENDROOT
TORSDOF 0
ENDMDL
MODEL 5
REMARK VINA RESULT:    -7.023     10.436     14.312
REMARK INTER + INTRA:          -7.023
REMARK INTER:                  -7.023
REMARK INTRA:                   0.000
REMARK UNBOUND:                 0.000
REMARK  Name = /home/vital/Documents/PhD_2021/Malaria_codes/scripts/../data/pdbqt_ligands/ligand_218_temp.pdb
REMARK                            x       y       z     vdW  Elec       q    Type
REMARK                         _______ _______ _______ _____ _____    ______ ____
ROOT
ATOM      1  C   UNL     1      -6.140  -1.883 -25.188  0.00  0.00    -0.052 C 
ATOM      2  C   UNL     1      -6.140  -2.270 -23.712  0.00  0.00    -0.004 C 
ATOM      3  N   UNL     1      -4.937  -1.811 -23.002  0.00  0.00    -0.302 N 
ATOM      4  C   UNL     1      -3.710  -2.435 -23.521  0.00  0.00    +0.000 C 
ATOM      5  C   UNL     1      -2.530  -2.425 -22.533  0.00  0.00    -0.024 C 
ATOM      6  C   UNL     1      -2.603  -1.210 -21.594  0.00  0.00    +0.013 C 
ATOM      7  N   UNL     1      -1.451  -1.080 -20.656  0.00  0.00    -0.299 N 
ATOM      8  C   UNL     1      -0.145  -1.025 -21.319  0.00  0.00    -0.000 C 
ATOM      9  C   UNL     1       0.983  -1.197 -20.292  0.00  0.00    -0.029 C 
ATOM     10  C   UNL     1       0.712  -0.478 -18.961  0.00  0.00    +0.038 C 
ATOM     11  C   UNL     1       1.983   0.082 -18.333  0.00  0.00    +0.216 C 
ATOM     12  O   UNL     1       3.049   0.196 -18.927  0.00  0.00    -0.276 OA
ATOM     13  N   UNL     1       1.820   0.477 -17.021  0.00  0.00    -0.315 N 
ATOM     14  C   UNL     1       2.891   1.106 -16.268  0.00  0.00    +0.016 C 
ATOM     15  C   UNL     1       3.137   2.564 -16.674  0.00  0.00    -0.009 C 
ATOM     16  C   UNL     1       1.929   3.447 -16.475  0.00  0.00    -0.008 A 
ATOM     17  C   UNL     1       1.189   3.904 -17.573  0.00  0.00    -0.021 A 
ATOM     18  C   UNL     1       0.066   4.701 -17.370  0.00  0.00    +0.124 A 
ATOM     19  F   UNL     1      -0.641   5.125 -18.426  0.00  0.00    -0.205 F 
ATOM     20  C   UNL     1      -0.338   5.063 -16.089  0.00  0.00    -0.024 A 
ATOM     21  C   UNL     1       0.393   4.615 -14.990  0.00  0.00    -0.023 A 
ATOM     22  C   UNL     1       1.515   3.814 -15.190  0.00  0.00    +0.127 A 
ATOM     23  F   UNL     1       2.201   3.385 -14.122  0.00  0.00    -0.205 F 
ATOM     24  C   UNL     1      -0.315   0.634 -19.169  0.00  0.00    -0.029 C 
ATOM     25  C   UNL     1      -1.619   0.084 -19.758  0.00  0.00    -0.000 C 
ATOM     26  C   UNL     1      -3.940  -1.296 -20.812  0.00  0.00    -0.024 C 
ATOM     27  C   UNL     1      -5.057  -2.030 -21.563  0.00  0.00    +0.000 C 
ATOM     28  H   UNL     1      -4.861  -0.808 -23.172  0.00  0.00    +0.000 HD
ATOM     29  H   UNL     1      -1.458  -1.938 -20.105  0.00  0.00    +0.000 HD
ATOM     30  H   UNL     1       0.952   0.328 -16.582  0.00  0.00    +0.000 HD
ENDROOT
TORSDOF 0
ENDMDL
MODEL 6
REMARK VINA RESULT:    -6.979      5.822      7.490
REMARK INTER + INTRA:          -6.979
REMARK INTER:                  -6.979
REMARK INTRA:                   0.000
REMARK UNBOUND:                 0.000
REMARK  Name = /home/vital/Documents/PhD_2021/Malaria_codes/scripts/../data/pdbqt_ligands/ligand_218_temp.pdb
REMARK                            x       y       z     vdW  Elec       q    Type
REMARK                         _______ _______ _______ _____ _____    ______ ____
ROOT
ATOM      1  C   UNL     1       5.766   1.076 -29.745  0.00  0.00    -0.052 C 
ATOM      2  C   UNL     1       4.805   0.997 -30.927  0.00  0.00    -0.004 C 
ATOM      3  N   UNL     1       4.314  -0.367 -31.174  0.00  0.00    -0.302 N 
ATOM      4  C   UNL     1       5.395  -1.291 -31.548  0.00  0.00    +0.000 C 
ATOM      5  C   UNL     1       4.922  -2.542 -32.310  0.00  0.00    -0.024 C 
ATOM      6  C   UNL     1       3.494  -2.935 -31.898  0.00  0.00    +0.013 C 
ATOM      7  N   UNL     1       2.988  -4.186 -32.531  0.00  0.00    -0.299 N 
ATOM      8  C   UNL     1       3.835  -5.359 -32.296  0.00  0.00    -0.000 C 
ATOM      9  C   UNL     1       3.415  -6.514 -33.217  0.00  0.00    -0.029 C 
ATOM     10  C   UNL     1       1.894  -6.628 -33.399  0.00  0.00    +0.038 C 
ATOM     11  C   UNL     1       1.430  -8.076 -33.527  0.00  0.00    +0.216 C 
ATOM     12  O   UNL     1       2.126  -9.046 -33.250  0.00  0.00    -0.276 OA
ATOM     13  N   UNL     1       0.130  -8.199 -33.970  0.00  0.00    -0.315 N 
ATOM     14  C   UNL     1      -0.524  -9.491 -34.087  0.00  0.00    +0.016 C 
ATOM     15  C   UNL     1      -0.931 -10.085 -32.733  0.00  0.00    -0.009 C 
ATOM     16  C   UNL     1      -1.895  -9.212 -31.968  0.00  0.00    -0.008 A 
ATOM     17  C   UNL     1      -1.470  -8.497 -30.840  0.00  0.00    -0.021 A 
ATOM     18  C   UNL     1      -2.368  -7.680 -30.157  0.00  0.00    +0.124 A 
ATOM     19  F   UNL     1      -1.950  -6.994 -29.086  0.00  0.00    -0.205 F 
ATOM     20  C   UNL     1      -3.690  -7.561 -30.571  0.00  0.00    -0.024 A 
ATOM     21  C   UNL     1      -4.123  -8.270 -31.690  0.00  0.00    -0.023 A 
ATOM     22  C   UNL     1      -3.226  -9.085 -32.378  0.00  0.00    +0.127 A 
ATOM     23  F   UNL     1      -3.656  -9.752 -33.458  0.00  0.00    -0.205 F 
ATOM     24  C   UNL     1       1.176  -5.940 -32.239  0.00  0.00    -0.029 C 
ATOM     25  C   UNL     1       1.595  -4.470 -32.121  0.00  0.00    -0.000 C 
ATOM     26  C   UNL     1       2.561  -1.739 -32.224  0.00  0.00    -0.024 C 
ATOM     27  C   UNL     1       3.258  -0.374 -32.183  0.00  0.00    +0.000 C 
ATOM     28  H   UNL     1       3.922  -0.700 -30.293  0.00  0.00    +0.000 HD
ATOM     29  H   UNL     1       3.016  -4.008 -33.535  0.00  0.00    +0.000 HD
ATOM     30  H   UNL     1      -0.371  -7.387 -34.214  0.00  0.00    +0.000 HD
ENDROOT
TORSDOF 0
ENDMDL
MODEL 7
REMARK VINA RESULT:    -6.966      3.171      9.044
REMARK INTER + INTRA:          -6.966
REMARK INTER:                  -6.966
REMARK INTRA:                   0.000
REMARK UNBOUND:                 0.000
REMARK  Name = /home/vital/Documents/PhD_2021/Malaria_codes/scripts/../data/pdbqt_ligands/ligand_218_temp.pdb
REMARK                            x       y       z     vdW  Elec       q    Type
REMARK                         _______ _______ _______ _____ _____    ______ ____
ROOT
ATOM      1  C   UNL     1       0.831  -2.701 -35.006  0.00  0.00    -0.052 C 
ATOM      2  C   UNL     1       0.768  -4.000 -34.208  0.00  0.00    -0.004 C 
ATOM      3  N   UNL     1       1.574  -3.954 -32.979  0.00  0.00    -0.302 N 
ATOM      4  C   UNL     1       3.009  -3.791 -33.257  0.00  0.00    +0.000 C 
ATOM      5  C   UNL     1       3.930  -4.253 -32.114  0.00  0.00    -0.024 C 
ATOM      6  C   UNL     1       3.246  -4.086 -30.748  0.00  0.00    +0.013 C 
ATOM      7  N   UNL     1       4.102  -4.436 -29.578  0.00  0.00    -0.299 N 
ATOM      8  C   UNL     1       5.362  -3.689 -29.515  0.00  0.00    -0.000 C 
ATOM      9  C   UNL     1       6.302  -4.314 -28.475  0.00  0.00    -0.029 C 
ATOM     10  C   UNL     1       5.577  -4.801 -27.211  0.00  0.00    +0.038 C 
ATOM     11  C   UNL     1       6.416  -4.615 -25.951  0.00  0.00    +0.216 C 
ATOM     12  O   UNL     1       7.425  -3.921 -25.895  0.00  0.00    -0.276 OA
ATOM     13  N   UNL     1       5.920  -5.291 -24.855  0.00  0.00    -0.315 N 
ATOM     14  C   UNL     1       6.532  -5.182 -23.543  0.00  0.00    +0.016 C 
ATOM     15  C   UNL     1       6.238  -3.847 -22.849  0.00  0.00    -0.009 C 
ATOM     16  C   UNL     1       4.765  -3.604 -22.630  0.00  0.00    -0.008 A 
ATOM     17  C   UNL     1       4.073  -2.660 -23.401  0.00  0.00    -0.021 A 
ATOM     18  C   UNL     1       2.710  -2.463 -23.199  0.00  0.00    +0.124 A 
ATOM     19  F   UNL     1       2.056  -1.565 -23.947  0.00  0.00    -0.205 F 
ATOM     20  C   UNL     1       2.013  -3.186 -22.236  0.00  0.00    -0.024 A 
ATOM     21  C   UNL     1       2.692  -4.125 -21.463  0.00  0.00    -0.023 A 
ATOM     22  C   UNL     1       4.056  -4.327 -21.665  0.00  0.00    +0.127 A 
ATOM     23  F   UNL     1       4.691  -5.242 -20.919  0.00  0.00    -0.205 F 
ATOM     24  C   UNL     1       4.236  -4.081 -27.068  0.00  0.00    -0.029 C 
ATOM     25  C   UNL     1       3.358  -4.293 -28.307  0.00  0.00    -0.000 C 
ATOM     26  C   UNL     1       1.953  -4.944 -30.758  0.00  0.00    -0.024 C 
ATOM     27  C   UNL     1       1.341  -5.134 -32.150  0.00  0.00    +0.000 C 
ATOM     28  H   UNL     1       1.271  -3.130 -32.461  0.00  0.00    +0.000 HD
ATOM     29  H   UNL     1       4.354  -5.415 -29.716  0.00  0.00    +0.000 HD
ATOM     30  H   UNL     1       5.127  -5.863 -24.966  0.00  0.00    +0.000 HD
ENDROOT
TORSDOF 0
ENDMDL
MODEL 8
REMARK VINA RESULT:    -6.809      8.770     11.073
REMARK INTER + INTRA:          -6.809
REMARK INTER:                  -6.809
REMARK INTRA:                   0.000
REMARK UNBOUND:                 0.000
REMARK  Name = /home/vital/Documents/PhD_2021/Malaria_codes/scripts/../data/pdbqt_ligands/ligand_218_temp.pdb
REMARK                            x       y       z     vdW  Elec       q    Type
REMARK                         _______ _______ _______ _____ _____    ______ ____
ROOT
ATOM      1  C   UNL     1       4.103   4.278 -13.978  0.00  0.00    -0.052 C 
ATOM      2  C   UNL     1       3.982   4.485 -15.485  0.00  0.00    -0.004 C 
ATOM      3  N   UNL     1       3.424   3.315 -16.179  0.00  0.00    -0.302 N 
ATOM      4  C   UNL     1       4.288   2.130 -16.063  0.00  0.00    +0.000 C 
ATOM      5  C   UNL     1       4.058   1.071 -17.155  0.00  0.00    -0.024 C 
ATOM      6  C   UNL     1       2.601   1.086 -17.645  0.00  0.00    +0.013 C 
ATOM      7  N   UNL     1       2.273   0.034 -18.648  0.00  0.00    -0.299 N 
ATOM      8  C   UNL     1       2.553  -1.332 -18.195  0.00  0.00    -0.000 C 
ATOM      9  C   UNL     1       2.476  -2.312 -19.374  0.00  0.00    -0.029 C 
ATOM     10  C   UNL     1       1.340  -1.995 -20.359  0.00  0.00    +0.038 C 
ATOM     11  C   UNL     1       0.718  -3.255 -20.954  0.00  0.00    +0.216 C 
ATOM     12  O   UNL     1       0.900  -4.383 -20.513  0.00  0.00    -0.276 OA
ATOM     13  N   UNL     1      -0.097  -3.005 -22.038  0.00  0.00    -0.315 N 
ATOM     14  C   UNL     1      -0.842  -4.061 -22.700  0.00  0.00    +0.016 C 
ATOM     15  C   UNL     1      -2.059  -4.536 -21.897  0.00  0.00    -0.009 C 
ATOM     16  C   UNL     1      -3.061  -3.438 -21.634  0.00  0.00    -0.008 A 
ATOM     17  C   UNL     1      -3.195  -2.884 -20.354  0.00  0.00    -0.021 A 
ATOM     18  C   UNL     1      -4.110  -1.858 -20.134  0.00  0.00    +0.124 A 
ATOM     19  F   UNL     1      -4.224  -1.328 -18.909  0.00  0.00    -0.205 F 
ATOM     20  C   UNL     1      -4.906  -1.370 -21.166  0.00  0.00    -0.024 A 
ATOM     21  C   UNL     1      -4.781  -1.916 -22.442  0.00  0.00    -0.023 A 
ATOM     22  C   UNL     1      -3.864  -2.940 -22.666  0.00  0.00    +0.127 A 
ATOM     23  F   UNL     1      -3.750  -3.447 -23.901  0.00  0.00    -0.205 F 
ATOM     24  C   UNL     1       0.272  -1.149 -19.669  0.00  0.00    -0.029 C 
ATOM     25  C   UNL     1       0.869   0.145 -19.102  0.00  0.00    -0.000 C 
ATOM     26  C   UNL     1       2.308   2.499 -18.216  0.00  0.00    -0.024 C 
ATOM     27  C   UNL     1       3.147   3.614 -17.581  0.00  0.00    +0.000 C 
ATOM     28  H   UNL     1       2.543   3.093 -15.715  0.00  0.00    +0.000 HD
ATOM     29  H   UNL     1       2.898   0.210 -19.434  0.00  0.00    +0.000 HD
ATOM     30  H   UNL     1      -0.178  -2.083 -22.373  0.00  0.00    +0.000 HD
ENDROOT
TORSDOF 0
ENDMDL
MODEL 9
REMARK VINA RESULT:    -6.776      3.062      4.797
REMARK INTER + INTRA:          -6.776
REMARK INTER:                  -6.776
REMARK INTRA:                   0.000
REMARK UNBOUND:                 0.000
REMARK  Name = /home/vital/Documents/PhD_2021/Malaria_codes/scripts/../data/pdbqt_ligands/ligand_218_temp.pdb
REMARK                            x       y       z     vdW  Elec       q    Type
REMARK                         _______ _______ _______ _____ _____    ______ ____
ROOT
ATOM      1  C   UNL     1       9.538  -0.913 -24.435  0.00  0.00    -0.052 C 
ATOM      2  C   UNL     1       9.257  -2.409 -24.326  0.00  0.00    -0.004 C 
ATOM      3  N   UNL     1       7.978  -2.796 -24.938  0.00  0.00    -0.302 N 
ATOM      4  C   UNL     1       6.826  -2.179 -24.263  0.00  0.00    +0.000 C 
ATOM      5  C   UNL     1       5.494  -2.918 -24.485  0.00  0.00    -0.024 C 
ATOM      6  C   UNL     1       5.473  -3.626 -25.849  0.00  0.00    +0.013 C 
ATOM      7  N   UNL     1       4.185  -4.300 -26.179  0.00  0.00    -0.299 N 
ATOM      8  C   UNL     1       3.020  -3.411 -26.146  0.00  0.00    -0.000 C 
ATOM      9  C   UNL     1       1.722  -4.228 -26.196  0.00  0.00    -0.029 C 
ATOM     10  C   UNL     1       1.799  -5.439 -27.139  0.00  0.00    +0.038 C 
ATOM     11  C   UNL     1       0.472  -5.716 -27.839  0.00  0.00    +0.216 C 
ATOM     12  O   UNL     1      -0.465  -4.927 -27.869  0.00  0.00    -0.276 OA
ATOM     13  N   UNL     1       0.426  -6.945 -28.463  0.00  0.00    -0.315 N 
ATOM     14  C   UNL     1      -0.721  -7.368 -29.247  0.00  0.00    +0.016 C 
ATOM     15  C   UNL     1      -0.806  -6.674 -30.613  0.00  0.00    -0.009 C 
ATOM     16  C   UNL     1       0.399  -6.932 -31.485  0.00  0.00    -0.008 A 
ATOM     17  C   UNL     1       1.346  -5.924 -31.712  0.00  0.00    -0.021 A 
ATOM     18  C   UNL     1       2.461  -6.186 -32.504  0.00  0.00    +0.124 A 
ATOM     19  F   UNL     1       3.365  -5.219 -32.707  0.00  0.00    -0.205 F 
ATOM     20  C   UNL     1       2.656  -7.435 -33.083  0.00  0.00    -0.024 A 
ATOM     21  C   UNL     1       1.718  -8.444 -32.865  0.00  0.00    -0.023 A 
ATOM     22  C   UNL     1       0.603  -8.186 -32.070  0.00  0.00    +0.127 A 
ATOM     23  F   UNL     1      -0.283  -9.169 -31.862  0.00  0.00    -0.205 F 
ATOM     24  C   UNL     1       2.909  -5.230 -28.167  0.00  0.00    -0.029 C 
ATOM     25  C   UNL     1       4.262  -4.995 -27.483  0.00  0.00    -0.000 C 
ATOM     26  C   UNL     1       6.646  -4.642 -25.873  0.00  0.00    -0.024 C 
ATOM     27  C   UNL     1       7.831  -4.248 -24.984  0.00  0.00    +0.000 C 
ATOM     28  H   UNL     1       7.992  -2.441 -25.895  0.00  0.00    +0.000 HD
ATOM     29  H   UNL     1       4.044  -4.985 -25.437  0.00  0.00    +0.000 HD
ATOM     30  H   UNL     1       1.194  -7.555 -28.375  0.00  0.00    +0.000 HD
ENDROOT
TORSDOF 0
ENDMDL
