MODEL 1
REMARK VINA RESULT:    -7.743      0.000      0.000
REMARK INTER + INTRA:          -7.743
REMARK INTER:                  -7.743
REMARK INTRA:                   0.000
REMARK UNBOUND:                 0.000
REMARK  Name = /home/vital/Documents/PhD_2021/Malaria_codes/scripts/../data/pdbqt_ligands/ligand_331_temp.pdb
REMARK                            x       y       z     vdW  Elec       q    Type
REMARK                         _______ _______ _______ _____ _____    ______ ____
ROOT
ATOM      1  C   UNL     1       7.375  -3.520 -24.667  0.00  0.00    -0.037 C 
ATOM      2  C   UNL     1       6.521  -4.140 -23.913  0.00  0.00    -0.016 C 
ATOM      3  N   UNL     1       5.760  -4.713 -23.226  0.00  0.00    -0.171 NA
ATOM      4  C   UNL     1       4.433  -4.410 -23.370  0.00  0.00    +0.224 C 
ATOM      5  N   UNL     1       3.697  -3.912 -22.433  0.00  0.00    -0.240 N 
ATOM      6  C   UNL     1       4.257  -3.667 -21.095  0.00  0.00    +0.091 C 
ATOM      7  C   UNL     1       5.096  -2.384 -21.061  0.00  0.00    -0.008 C 
ATOM      8  C   UNL     1       6.104  -2.331 -19.915  0.00  0.00    +0.012 C 
ATOM      9  N   UNL     1       6.758  -1.029 -19.900  0.00  0.00    -0.335 N 
ATOM     10  C   UNL     1       7.533  -0.624 -18.851  0.00  0.00    +0.078 C 
ATOM     11  N   UNL     1       7.609  -1.198 -17.705  0.00  0.00    -0.249 NA
ATOM     12  C   UNL     1       8.513  -0.516 -16.792  0.00  0.00    +0.137 C 
ATOM     13  O   UNL     1       8.623  -1.196 -15.560  0.00  0.00    -0.373 OA
ATOM     14  C   UNL     1       4.775  -4.933 -20.416  0.00  0.00    -0.060 C 
ATOM     15  C   UNL     1       3.867  -4.905 -19.423  0.00  0.00    -0.080 C 
ATOM     16  C   UNL     1       3.047  -3.803 -20.069  0.00  0.00    +0.003 C 
ATOM     17  C   UNL     1       2.642  -2.651 -19.163  0.00  0.00    -0.056 C 
ATOM     18  N   UNL     1       3.870  -4.707 -24.594  0.00  0.00    -0.284 N 
ATOM     19  C   UNL     1       2.574  -4.492 -24.951  0.00  0.00    +0.034 C 
ATOM     20  S   UNL     1       2.169  -5.016 -26.544  0.00  0.00    -0.090 S 
ATOM     21  C   UNL     1       1.300  -6.440 -26.065  0.00  0.00    -0.023 C 
ATOM     22  C   UNL     1      -0.163  -6.362 -25.988  0.00  0.00    -0.054 C 
ATOM     23  C   UNL     1      -0.996  -6.194 -27.026  0.00  0.00    -0.043 C 
ATOM     24  C   UNL     1      -0.711  -6.143 -28.446  0.00  0.00    +0.034 C 
ATOM     25  C   UNL     1      -1.474  -5.434 -29.290  0.00  0.00    -0.080 C 
ATOM     26 CL   UNL     1       0.528  -7.156 -29.112  0.00  0.00    -0.084 Cl
ATOM     27  H   UNL     1       2.754  -3.695 -22.615  0.00  0.00    +0.000 HD
ATOM     28  H   UNL     1       6.639  -0.425 -20.668  0.00  0.00    +0.000 HD
ATOM     29  H   UNL     1       7.753  -1.235 -15.134  0.00  0.00    +0.000 HD
ATOM     30  H   UNL     1       4.460  -5.112 -25.270  0.00  0.00    +0.000 HD
ATOM     31  H   UNL     1       3.266  -5.300 -27.297  0.00  0.00    +0.000 HD
ENDROOT
TORSDOF 0
ENDMDL
MODEL 2
REMARK VINA RESULT:    -7.120     10.713     13.612
REMARK INTER + INTRA:          -7.120
REMARK INTER:                  -7.120
REMARK INTRA:                   0.000
REMARK UNBOUND:                 0.000
REMARK  Name = /home/vital/Documents/PhD_2021/Malaria_codes/scripts/../data/pdbqt_ligands/ligand_331_temp.pdb
REMARK                            x       y       z     vdW  Elec       q    Type
REMARK                         _______ _______ _______ _____ _____    ______ ____
ROOT
ATOM      1  C   UNL     1       8.592   0.386 -32.319  0.00  0.00    -0.037 C 
ATOM      2  C   UNL     1       9.597   0.651 -31.543  0.00  0.00    -0.016 C 
ATOM      3  N   UNL     1      10.517   0.882 -30.852  0.00  0.00    -0.171 NA
ATOM      4  C   UNL     1      10.253   1.335 -29.587  0.00  0.00    +0.224 C 
ATOM      5  N   UNL     1      10.624   2.488 -29.137  0.00  0.00    -0.240 N 
ATOM      6  C   UNL     1      11.411   3.400 -29.980  0.00  0.00    +0.091 C 
ATOM      7  C   UNL     1      10.527   4.128 -31.001  0.00  0.00    -0.008 C 
ATOM      8  C   UNL     1      11.290   4.666 -32.210  0.00  0.00    +0.012 C 
ATOM      9  N   UNL     1      10.387   5.441 -33.051  0.00  0.00    -0.335 N 
ATOM     10  C   UNL     1      10.847   6.224 -34.071  0.00  0.00    +0.078 C 
ATOM     11  N   UNL     1      12.072   6.548 -34.279  0.00  0.00    -0.249 NA
ATOM     12  C   UNL     1      12.238   7.407 -35.440  0.00  0.00    +0.137 C 
ATOM     13  O   UNL     1      13.597   7.703 -35.682  0.00  0.00    -0.373 OA
ATOM     14  C   UNL     1      12.751   2.814 -30.416  0.00  0.00    -0.060 C 
ATOM     15  C   UNL     1      13.490   3.711 -29.736  0.00  0.00    -0.080 C 
ATOM     16  C   UNL     1      12.296   4.277 -28.990  0.00  0.00    +0.003 C 
ATOM     17  C   UNL     1      12.184   5.793 -28.957  0.00  0.00    -0.056 C 
ATOM     18  N   UNL     1       9.585   0.461 -28.755  0.00  0.00    -0.284 N 
ATOM     19  C   UNL     1       9.225   0.703 -27.465  0.00  0.00    +0.034 C 
ATOM     20  S   UNL     1       8.436  -0.614 -26.677  0.00  0.00    -0.090 S 
ATOM     21  C   UNL     1       9.791  -1.099 -25.706  0.00  0.00    -0.023 C 
ATOM     22  C   UNL     1       9.847  -0.628 -24.318  0.00  0.00    -0.054 C 
ATOM     23  C   UNL     1       9.006  -0.982 -23.334  0.00  0.00    -0.043 C 
ATOM     24  C   UNL     1       7.925  -1.947 -23.338  0.00  0.00    +0.034 C 
ATOM     25  C   UNL     1       6.854  -1.805 -22.547  0.00  0.00    -0.080 C 
ATOM     26 CL   UNL     1       8.087  -3.414 -24.247  0.00  0.00    -0.084 Cl
ATOM     27  H   UNL     1      10.377   2.758 -28.222  0.00  0.00    +0.000 HD
ATOM     28  H   UNL     1       9.419   5.398 -32.880  0.00  0.00    +0.000 HD
ATOM     29  H   UNL     1      13.966   8.172 -34.917  0.00  0.00    +0.000 HD
ATOM     30  H   UNL     1       9.347  -0.418 -29.129  0.00  0.00    +0.000 HD
ATOM     31  H   UNL     1       8.042  -1.583 -27.546  0.00  0.00    +0.000 HD
ENDROOT
TORSDOF 0
ENDMDL
MODEL 3
REMARK VINA RESULT:    -7.068      7.277      8.935
REMARK INTER + INTRA:          -7.068
REMARK INTER:                  -7.068
REMARK INTRA:                   0.000
REMARK UNBOUND:                 0.000
REMARK  Name = /home/vital/Documents/PhD_2021/Malaria_codes/scripts/../data/pdbqt_ligands/ligand_331_temp.pdb
REMARK                            x       y       z     vdW  Elec       q    Type
REMARK                         _______ _______ _______ _____ _____    ______ ____
ROOT
ATOM      1  C   UNL     1       4.281   0.099 -18.140  0.00  0.00    -0.037 C 
ATOM      2  C   UNL     1       3.259   0.642 -17.555  0.00  0.00    -0.016 C 
ATOM      3  N   UNL     1       2.339   1.127 -17.010  0.00  0.00    -0.171 NA
ATOM      4  C   UNL     1       1.288   1.529 -17.790  0.00  0.00    +0.224 C 
ATOM      5  N   UNL     1       0.879   2.750 -17.883  0.00  0.00    -0.240 N 
ATOM      6  C   UNL     1       1.523   3.815 -17.099  0.00  0.00    +0.091 C 
ATOM      7  C   UNL     1       2.851   4.254 -17.728  0.00  0.00    -0.008 C 
ATOM      8  C   UNL     1       3.803   4.942 -16.752  0.00  0.00    +0.012 C 
ATOM      9  N   UNL     1       4.974   5.426 -17.471  0.00  0.00    -0.335 N 
ATOM     10  C   UNL     1       5.874   6.275 -16.893  0.00  0.00    +0.078 C 
ATOM     11  N   UNL     1       5.713   6.905 -15.786  0.00  0.00    -0.249 NA
ATOM     12  C   UNL     1       6.850   7.746 -15.445  0.00  0.00    +0.137 C 
ATOM     13  O   UNL     1       6.673   8.384 -14.198  0.00  0.00    -0.373 OA
ATOM     14  C   UNL     1       1.433   3.593 -15.591  0.00  0.00    -0.060 C 
ATOM     15  C   UNL     1       0.659   4.672 -15.367  0.00  0.00    -0.080 C 
ATOM     16  C   UNL     1       0.409   4.922 -16.843  0.00  0.00    +0.003 C 
ATOM     17  C   UNL     1       0.589   6.355 -17.320  0.00  0.00    -0.056 C 
ATOM     18  N   UNL     1       0.621   0.533 -18.472  0.00  0.00    -0.284 N 
ATOM     19  C   UNL     1      -0.447   0.706 -19.298  0.00  0.00    +0.034 C 
ATOM     20  S   UNL     1      -1.086  -0.750 -19.967  0.00  0.00    -0.090 S 
ATOM     21  C   UNL     1      -2.491  -0.832 -18.951  0.00  0.00    -0.023 C 
ATOM     22  C   UNL     1      -3.759  -0.324 -19.486  0.00  0.00    -0.054 C 
ATOM     23  C   UNL     1      -4.453  -0.861 -20.502  0.00  0.00    -0.043 C 
ATOM     24  C   UNL     1      -4.212  -2.078 -21.251  0.00  0.00    +0.034 C 
ATOM     25  C   UNL     1      -4.594  -2.203 -22.529  0.00  0.00    -0.080 C 
ATOM     26 CL   UNL     1      -3.580  -3.475 -20.441  0.00  0.00    -0.084 Cl
ATOM     27  H   UNL     1       0.131   2.971 -18.484  0.00  0.00    +0.000 HD
ATOM     28  H   UNL     1       5.121   5.133 -18.399  0.00  0.00    +0.000 HD
ATOM     29  H   UNL     1       5.889   8.954 -14.236  0.00  0.00    +0.000 HD
ATOM     30  H   UNL     1       0.948  -0.388 -18.350  0.00  0.00    +0.000 HD
ATOM     31  H   UNL     1      -0.254  -1.813 -19.797  0.00  0.00    +0.000 HD
ENDROOT
TORSDOF 0
ENDMDL
MODEL 4
REMARK VINA RESULT:    -6.952      8.684      9.944
REMARK INTER + INTRA:          -6.952
REMARK INTER:                  -6.952
REMARK INTRA:                   0.000
REMARK UNBOUND:                 0.000
REMARK  Name = /home/vital/Documents/PhD_2021/Malaria_codes/scripts/../data/pdbqt_ligands/ligand_331_temp.pdb
REMARK                            x       y       z     vdW  Elec       q    Type
REMARK                         _______ _______ _______ _____ _____    ______ ____
ROOT
ATOM      1  C   UNL     1       1.714   5.347 -22.376  0.00  0.00    -0.037 C 
ATOM      2  C   UNL     1       1.675   4.624 -21.300  0.00  0.00    -0.016 C 
ATOM      3  N   UNL     1       1.656   3.967 -20.328  0.00  0.00    -0.171 NA
ATOM      4  C   UNL     1       0.430   3.625 -19.824  0.00  0.00    +0.224 C 
ATOM      5  N   UNL     1       0.005   3.970 -18.654  0.00  0.00    -0.240 N 
ATOM      6  C   UNL     1       0.862   4.749 -17.748  0.00  0.00    +0.091 C 
ATOM      7  C   UNL     1       0.886   6.234 -18.132  0.00  0.00    -0.008 C 
ATOM      8  C   UNL     1       2.103   6.992 -17.606  0.00  0.00    +0.012 C 
ATOM      9  N   UNL     1       1.968   8.409 -17.919  0.00  0.00    -0.335 N 
ATOM     10  C   UNL     1       2.793   9.349 -17.370  0.00  0.00    +0.078 C 
ATOM     11  N   UNL     1       3.605   9.161 -16.393  0.00  0.00    -0.249 NA
ATOM     12  C   UNL     1       4.336  10.365 -16.029  0.00  0.00    +0.137 C 
ATOM     13  O   UNL     1       5.262  10.120 -14.992  0.00  0.00    -0.373 OA
ATOM     14  C   UNL     1       2.163   4.037 -17.386  0.00  0.00    -0.060 C 
ATOM     15  C   UNL     1       1.860   3.912 -16.080  0.00  0.00    -0.080 C 
ATOM     16  C   UNL     1       0.423   4.361 -16.269  0.00  0.00    +0.003 C 
ATOM     17  C   UNL     1      -0.085   5.409 -15.291  0.00  0.00    -0.056 C 
ATOM     18  N   UNL     1      -0.357   2.828 -20.628  0.00  0.00    -0.284 N 
ATOM     19  C   UNL     1      -1.604   2.371 -20.326  0.00  0.00    +0.034 C 
ATOM     20  S   UNL     1      -2.310   1.354 -21.528  0.00  0.00    -0.090 S 
ATOM     21  C   UNL     1      -2.077  -0.142 -20.678  0.00  0.00    -0.023 C 
ATOM     22  C   UNL     1      -3.205  -0.683 -19.912  0.00  0.00    -0.054 C 
ATOM     23  C   UNL     1      -4.353  -1.148 -20.430  0.00  0.00    -0.043 C 
ATOM     24  C   UNL     1      -4.743  -1.326 -21.814  0.00  0.00    +0.034 C 
ATOM     25  C   UNL     1      -6.023  -1.243 -22.199  0.00  0.00    -0.080 C 
ATOM     26 CL   UNL     1      -3.566  -1.837 -22.979  0.00  0.00    -0.084 Cl
ATOM     27  H   UNL     1      -0.900   3.709 -18.367  0.00  0.00    +0.000 HD
ATOM     28  H   UNL     1       1.263   8.696 -18.543  0.00  0.00    +0.000 HD
ATOM     29  H   UNL     1       4.789   9.817 -14.202  0.00  0.00    +0.000 HD
ATOM     30  H   UNL     1       0.017   2.564 -21.500  0.00  0.00    +0.000 HD
ATOM     31  H   UNL     1      -1.637   1.395 -22.709  0.00  0.00    +0.000 HD
ENDROOT
TORSDOF 0
ENDMDL
MODEL 5
REMARK VINA RESULT:    -6.914      8.907     12.433
REMARK INTER + INTRA:          -6.914
REMARK INTER:                  -6.914
REMARK INTRA:                   0.000
REMARK UNBOUND:                 0.000
REMARK  Name = /home/vital/Documents/PhD_2021/Malaria_codes/scripts/../data/pdbqt_ligands/ligand_331_temp.pdb
REMARK                            x       y       z     vdW  Elec       q    Type
REMARK                         _______ _______ _______ _____ _____    ______ ____
ROOT
ATOM      1  C   UNL     1      -5.471   1.661 -24.236  0.00  0.00    -0.037 C 
ATOM      2  C   UNL     1      -5.103   1.060 -23.147  0.00  0.00    -0.016 C 
ATOM      3  N   UNL     1      -4.787   0.513 -22.157  0.00  0.00    -0.171 NA
ATOM      4  C   UNL     1      -3.477   0.617 -21.774  0.00  0.00    +0.224 C 
ATOM      5  N   UNL     1      -2.674  -0.388 -21.657  0.00  0.00    -0.240 N 
ATOM      6  C   UNL     1      -3.150  -1.758 -21.905  0.00  0.00    +0.091 C 
ATOM      7  C   UNL     1      -3.244  -2.059 -23.406  0.00  0.00    -0.008 C 
ATOM      8  C   UNL     1      -4.187  -3.210 -23.750  0.00  0.00    +0.012 C 
ATOM      9  N   UNL     1      -4.111  -3.494 -25.177  0.00  0.00    -0.335 N 
ATOM     10  C   UNL     1      -4.670  -4.616 -25.719  0.00  0.00    +0.078 C 
ATOM     11  N   UNL     1      -5.117  -5.627 -25.065  0.00  0.00    -0.249 NA
ATOM     12  C   UNL     1      -5.639  -6.672 -25.932  0.00  0.00    +0.137 C 
ATOM     13  O   UNL     1      -6.176  -7.746 -25.189  0.00  0.00    -0.373 OA
ATOM     14  C   UNL     1      -4.282  -2.180 -20.972  0.00  0.00    -0.060 C 
ATOM     15  C   UNL     1      -3.567  -3.144 -20.361  0.00  0.00    -0.080 C 
ATOM     16  C   UNL     1      -2.259  -2.715 -20.999  0.00  0.00    +0.003 C 
ATOM     17  C   UNL     1      -1.415  -3.824 -21.607  0.00  0.00    -0.056 C 
ATOM     18  N   UNL     1      -3.033   1.884 -21.461  0.00  0.00    -0.284 N 
ATOM     19  C   UNL     1      -1.775   2.214 -21.058  0.00  0.00    +0.034 C 
ATOM     20  S   UNL     1      -1.548   3.886 -20.697  0.00  0.00    -0.090 S 
ATOM     21  C   UNL     1      -1.541   3.714 -18.970  0.00  0.00    -0.023 C 
ATOM     22  C   UNL     1      -0.244   3.647 -18.289  0.00  0.00    -0.054 C 
ATOM     23  C   UNL     1       0.648   4.646 -18.200  0.00  0.00    -0.043 C 
ATOM     24  C   UNL     1       0.548   6.022 -18.642  0.00  0.00    +0.034 C 
ATOM     25  C   UNL     1       1.630   6.721 -19.011  0.00  0.00    -0.080 C 
ATOM     26 CL   UNL     1      -0.968   6.854 -18.525  0.00  0.00    -0.084 Cl
ATOM     27  H   UNL     1      -1.735  -0.236 -21.401  0.00  0.00    +0.000 HD
ATOM     28  H   UNL     1      -3.643  -2.860 -25.767  0.00  0.00    +0.000 HD
ATOM     29  H   UNL     1      -5.478  -8.142 -24.644  0.00  0.00    +0.000 HD
ATOM     30  H   UNL     1      -3.686   2.618 -21.536  0.00  0.00    +0.000 HD
ATOM     31  H   UNL     1      -2.573   4.661 -21.143  0.00  0.00    +0.000 HD
ENDROOT
TORSDOF 0
ENDMDL
MODEL 6
REMARK VINA RESULT:    -6.893      4.338      5.718
REMARK INTER + INTRA:          -6.893
REMARK INTER:                  -6.893
REMARK INTRA:                   0.000
REMARK UNBOUND:                 0.000
REMARK  Name = /home/vital/Documents/PhD_2021/Malaria_codes/scripts/../data/pdbqt_ligands/ligand_331_temp.pdb
REMARK                            x       y       z     vdW  Elec       q    Type
REMARK                         _______ _______ _______ _____ _____    ______ ____
ROOT
ATOM      1  C   UNL     1       7.442   0.014 -19.141  0.00  0.00    -0.037 C 
ATOM      2  C   UNL     1       6.368  -0.712 -19.184  0.00  0.00    -0.016 C 
ATOM      3  N   UNL     1       5.401  -1.377 -19.208  0.00  0.00    -0.171 NA
ATOM      4  C   UNL     1       4.675  -1.386 -20.368  0.00  0.00    +0.224 C 
ATOM      5  N   UNL     1       3.451  -0.985 -20.461  0.00  0.00    -0.240 N 
ATOM      6  C   UNL     1       2.729  -0.509 -19.271  0.00  0.00    +0.091 C 
ATOM      7  C   UNL     1       3.129   0.925 -18.904  0.00  0.00    -0.008 C 
ATOM      8  C   UNL     1       2.847   1.295 -17.449  0.00  0.00    +0.012 C 
ATOM      9  N   UNL     1       3.147   2.706 -17.238  0.00  0.00    -0.335 N 
ATOM     10  C   UNL     1       2.773   3.358 -16.098  0.00  0.00    +0.078 C 
ATOM     11  N   UNL     1       1.961   2.915 -15.208  0.00  0.00    -0.249 NA
ATOM     12  C   UNL     1       1.754   3.854 -14.117  0.00  0.00    +0.137 C 
ATOM     13  O   UNL     1       0.903   3.322 -13.124  0.00  0.00    -0.373 OA
ATOM     14  C   UNL     1       2.606  -1.568 -18.178  0.00  0.00    -0.060 C 
ATOM     15  C   UNL     1       1.265  -1.656 -18.261  0.00  0.00    -0.080 C 
ATOM     16  C   UNL     1       1.189  -0.820 -19.525  0.00  0.00    +0.003 C 
ATOM     17  C   UNL     1       0.147   0.288 -19.534  0.00  0.00    -0.056 C 
ATOM     18  N   UNL     1       5.309  -1.902 -21.479  0.00  0.00    -0.284 N 
ATOM     19  C   UNL     1       4.776  -2.008 -22.727  0.00  0.00    +0.034 C 
ATOM     20  S   UNL     1       5.812  -2.742 -23.895  0.00  0.00    -0.090 S 
ATOM     21  C   UNL     1       5.002  -4.277 -23.938  0.00  0.00    -0.023 C 
ATOM     22  C   UNL     1       4.034  -4.515 -25.014  0.00  0.00    -0.054 C 
ATOM     23  C   UNL     1       4.324  -4.623 -26.320  0.00  0.00    -0.043 C 
ATOM     24  C   UNL     1       5.609  -4.632 -26.989  0.00  0.00    +0.034 C 
ATOM     25  C   UNL     1       5.751  -4.182 -28.243  0.00  0.00    -0.080 C 
ATOM     26 CL   UNL     1       6.966  -5.401 -26.233  0.00  0.00    -0.084 Cl
ATOM     27  H   UNL     1       2.998  -0.996 -21.336  0.00  0.00    +0.000 HD
ATOM     28  H   UNL     1       3.633   3.201 -17.936  0.00  0.00    +0.000 HD
ATOM     29  H   UNL     1       0.035   3.130 -13.511  0.00  0.00    +0.000 HD
ATOM     30  H   UNL     1       6.232  -2.224 -21.358  0.00  0.00    +0.000 HD
ATOM     31  H   UNL     1       7.099  -2.841 -23.464  0.00  0.00    +0.000 HD
ENDROOT
TORSDOF 0
ENDMDL
MODEL 7
REMARK VINA RESULT:    -6.772      3.601      4.362
REMARK INTER + INTRA:          -6.772
REMARK INTER:                  -6.772
REMARK INTRA:                   0.000
REMARK UNBOUND:                 0.000
REMARK  Name = /home/vital/Documents/PhD_2021/Malaria_codes/scripts/../data/pdbqt_ligands/ligand_331_temp.pdb
REMARK                            x       y       z     vdW  Elec       q    Type
REMARK                         _______ _______ _______ _____ _____    ______ ____
ROOT
ATOM      1  C   UNL     1       8.652  -0.279 -26.696  0.00  0.00    -0.037 C 
ATOM      2  C   UNL     1       8.185  -1.476 -26.521  0.00  0.00    -0.016 C 
ATOM      3  N   UNL     1       7.779  -2.566 -26.361  0.00  0.00    -0.171 NA
ATOM      4  C   UNL     1       6.451  -2.784 -26.610  0.00  0.00    +0.224 C 
ATOM      5  N   UNL     1       5.601  -3.180 -25.721  0.00  0.00    -0.240 N 
ATOM      6  C   UNL     1       6.038  -3.465 -24.346  0.00  0.00    +0.091 C 
ATOM      7  C   UNL     1       6.224  -2.176 -23.535  0.00  0.00    -0.008 C 
ATOM      8  C   UNL     1       7.141  -2.332 -22.324  0.00  0.00    +0.012 C 
ATOM      9  N   UNL     1       7.152  -1.092 -21.558  0.00  0.00    -0.335 N 
ATOM     10  C   UNL     1       7.702  -1.022 -20.310  0.00  0.00    +0.078 C 
ATOM     11  N   UNL     1       8.061  -2.021 -19.587  0.00  0.00    -0.249 NA
ATOM     12  C   UNL     1       8.599  -1.618 -18.297  0.00  0.00    +0.137 C 
ATOM     13  O   UNL     1       9.039  -2.729 -17.545  0.00  0.00    -0.373 OA
ATOM     14  C   UNL     1       7.084  -4.573 -24.262  0.00  0.00    -0.060 C 
ATOM     15  C   UNL     1       6.290  -5.424 -23.585  0.00  0.00    -0.080 C 
ATOM     16  C   UNL     1       5.048  -4.575 -23.780  0.00  0.00    +0.003 C 
ATOM     17  C   UNL     1       4.204  -4.327 -22.539  0.00  0.00    -0.056 C 
ATOM     18  N   UNL     1       6.038  -2.599 -27.913  0.00  0.00    -0.284 N 
ATOM     19  C   UNL     1       4.769  -2.761 -28.380  0.00  0.00    +0.034 C 
ATOM     20  S   UNL     1       4.586  -2.495 -30.075  0.00  0.00    -0.090 S 
ATOM     21  C   UNL     1       4.453  -4.167 -30.521  0.00  0.00    -0.023 C 
ATOM     22  C   UNL     1       3.109  -4.724 -30.715  0.00  0.00    -0.054 C 
ATOM     23  C   UNL     1       2.255  -4.388 -31.694  0.00  0.00    -0.043 C 
ATOM     24  C   UNL     1       2.441  -3.503 -32.826  0.00  0.00    +0.034 C 
ATOM     25  C   UNL     1       1.417  -2.828 -33.366  0.00  0.00    -0.080 C 
ATOM     26 CL   UNL     1       3.978  -3.441 -33.625  0.00  0.00    -0.084 Cl
ATOM     27  H   UNL     1       4.654  -3.292 -25.967  0.00  0.00    +0.000 HD
ATOM     28  H   UNL     1       6.753  -0.283 -21.952  0.00  0.00    +0.000 HD
ATOM     29  H   UNL     1       8.290  -3.321 -17.376  0.00  0.00    +0.000 HD
ATOM     30  H   UNL     1       6.724  -2.324 -28.564  0.00  0.00    +0.000 HD
ATOM     31  H   UNL     1       5.670  -1.890 -30.631  0.00  0.00    +0.000 HD
ENDROOT
TORSDOF 0
ENDMDL
MODEL 8
REMARK VINA RESULT:    -6.727      5.450      6.803
REMARK INTER + INTRA:          -6.727
REMARK INTER:                  -6.727
REMARK INTRA:                   0.000
REMARK UNBOUND:                 0.000
REMARK  Name = /home/vital/Documents/PhD_2021/Malaria_codes/scripts/../data/pdbqt_ligands/ligand_331_temp.pdb
REMARK                            x       y       z     vdW  Elec       q    Type
REMARK                         _______ _______ _______ _____ _____    ______ ____
ROOT
ATOM      1  C   UNL     1       5.463  -1.081 -31.953  0.00  0.00    -0.037 C 
ATOM      2  C   UNL     1       5.621  -2.170 -31.268  0.00  0.00    -0.016 C 
ATOM      3  N   UNL     1       5.780  -3.159 -30.655  0.00  0.00    -0.171 NA
ATOM      4  C   UNL     1       4.682  -3.703 -30.046  0.00  0.00    +0.224 C 
ATOM      5  N   UNL     1       4.563  -3.860 -28.769  0.00  0.00    -0.240 N 
ATOM      6  C   UNL     1       5.659  -3.480 -27.865  0.00  0.00    +0.091 C 
ATOM      7  C   UNL     1       5.699  -1.964 -27.635  0.00  0.00    -0.008 C 
ATOM      8  C   UNL     1       7.056  -1.444 -27.163  0.00  0.00    +0.012 C 
ATOM      9  N   UNL     1       6.954  -0.023 -26.857  0.00  0.00    -0.335 N 
ATOM     10  C   UNL     1       7.948   0.646 -26.201  0.00  0.00    +0.078 C 
ATOM     11  N   UNL     1       8.947   0.109 -25.599  0.00  0.00    -0.249 NA
ATOM     12  C   UNL     1       9.826   1.090 -24.982  0.00  0.00    +0.137 C 
ATOM     13  O   UNL     1      10.946   0.480 -24.377  0.00  0.00    -0.373 OA
ATOM     14  C   UNL     1       6.954  -4.243 -28.132  0.00  0.00    -0.060 C 
ATOM     15  C   UNL     1       6.952  -4.881 -26.947  0.00  0.00    -0.080 C 
ATOM     16  C   UNL     1       5.545  -4.432 -26.595  0.00  0.00    +0.003 C 
ATOM     17  C   UNL     1       5.352  -3.869 -25.196  0.00  0.00    -0.056 C 
ATOM     18  N   UNL     1       3.676  -4.139 -30.883  0.00  0.00    -0.284 N 
ATOM     19  C   UNL     1       2.503  -4.710 -30.494  0.00  0.00    +0.034 C 
ATOM     20  S   UNL     1       1.469  -5.189 -31.789  0.00  0.00    -0.090 S 
ATOM     21  C   UNL     1       1.784  -6.891 -31.671  0.00  0.00    -0.023 C 
ATOM     22  C   UNL     1       0.827  -7.720 -30.931  0.00  0.00    -0.054 C 
ATOM     23  C   UNL     1      -0.440  -7.973 -31.297  0.00  0.00    -0.043 C 
ATOM     24  C   UNL     1      -1.149  -7.601 -32.505  0.00  0.00    +0.034 C 
ATOM     25  C   UNL     1      -2.475  -7.406 -32.508  0.00  0.00    -0.080 C 
ATOM     26 CL   UNL     1      -0.311  -7.579 -34.022  0.00  0.00    -0.084 Cl
ATOM     27  H   UNL     1       3.732  -4.237 -28.399  0.00  0.00    +0.000 HD
ATOM     28  H   UNL     1       6.146   0.469 -27.132  0.00  0.00    +0.000 HD
ATOM     29  H   UNL     1      10.647  -0.123 -23.679  0.00  0.00    +0.000 HD
ATOM     30  H   UNL     1       3.820  -4.027 -31.851  0.00  0.00    +0.000 HD
ATOM     31  H   UNL     1       1.853  -4.667 -32.985  0.00  0.00    +0.000 HD
ENDROOT
TORSDOF 0
ENDMDL
MODEL 9
REMARK VINA RESULT:    -6.581      3.109      3.473
REMARK INTER + INTRA:          -6.581
REMARK INTER:                  -6.581
REMARK INTRA:                   0.000
REMARK UNBOUND:                 0.000
REMARK  Name = /home/vital/Documents/PhD_2021/Malaria_codes/scripts/../data/pdbqt_ligands/ligand_331_temp.pdb
REMARK                            x       y       z     vdW  Elec       q    Type
REMARK                         _______ _______ _______ _____ _____    ______ ____
ROOT
ATOM      1  C   UNL     1       9.932  -1.984 -24.646  0.00  0.00    -0.037 C 
ATOM      2  C   UNL     1       8.893  -2.707 -24.362  0.00  0.00    -0.016 C 
ATOM      3  N   UNL     1       7.964  -3.374 -24.098  0.00  0.00    -0.171 NA
ATOM      4  C   UNL     1       6.759  -3.015 -24.640  0.00  0.00    +0.224 C 
ATOM      5  N   UNL     1       5.724  -2.675 -23.947  0.00  0.00    -0.240 N 
ATOM      6  C   UNL     1       5.772  -2.691 -22.477  0.00  0.00    +0.091 C 
ATOM      7  C   UNL     1       6.497  -1.458 -21.923  0.00  0.00    -0.008 C 
ATOM      8  C   UNL     1       7.039  -1.640 -20.507  0.00  0.00    +0.012 C 
ATOM      9  N   UNL     1       7.597  -0.380 -20.033  0.00  0.00    -0.335 N 
ATOM     10  C   UNL     1       7.940  -0.192 -18.724  0.00  0.00    +0.078 C 
ATOM     11  N   UNL     1       7.635  -0.966 -17.746  0.00  0.00    -0.249 NA
ATOM     12  C   UNL     1       8.136  -0.484 -16.469  0.00  0.00    +0.137 C 
ATOM     13  O   UNL     1       7.836  -1.378 -15.419  0.00  0.00    -0.373 OA
ATOM     14  C   UNL     1       6.070  -4.071 -21.897  0.00  0.00    -0.060 C 
ATOM     15  C   UNL     1       4.872  -4.200 -21.297  0.00  0.00    -0.080 C 
ATOM     16  C   UNL     1       4.287  -2.977 -21.981  0.00  0.00    +0.003 C 
ATOM     17  C   UNL     1       3.548  -1.998 -21.084  0.00  0.00    -0.056 C 
ATOM     18  N   UNL     1       6.670  -3.071 -26.016  0.00  0.00    -0.284 N 
ATOM     19  C   UNL     1       5.573  -2.760 -26.759  0.00  0.00    +0.034 C 
ATOM     20  S   UNL     1       5.769  -2.976 -28.459  0.00  0.00    -0.090 S 
ATOM     21  C   UNL     1       4.843  -4.440 -28.577  0.00  0.00    -0.023 C 
ATOM     22  C   UNL     1       3.443  -4.338 -29.003  0.00  0.00    -0.054 C 
ATOM     23  C   UNL     1       3.019  -3.963 -30.220  0.00  0.00    -0.043 C 
ATOM     24  C   UNL     1       3.778  -3.663 -31.417  0.00  0.00    +0.034 C 
ATOM     25  C   UNL     1       3.331  -2.794 -32.333  0.00  0.00    -0.080 C 
ATOM     26 CL   UNL     1       5.209  -4.573 -31.777  0.00  0.00    -0.084 Cl
ATOM     27  H   UNL     1       4.896  -2.404 -24.406  0.00  0.00    +0.000 HD
ATOM     28  H   UNL     1       7.729   0.356 -20.672  0.00  0.00    +0.000 HD
ATOM     29  H   UNL     1       6.874  -1.470 -15.337  0.00  0.00    +0.000 HD
ATOM     30  H   UNL     1       7.474  -3.362 -26.504  0.00  0.00    +0.000 HD
ATOM     31  H   UNL     1       7.069  -3.149 -28.819  0.00  0.00    +0.000 HD
ENDROOT
TORSDOF 0
ENDMDL
