MODEL 1
REMARK VINA RESULT:    -7.256      0.000      0.000
REMARK INTER + INTRA:          -7.256
REMARK INTER:                  -7.256
REMARK INTRA:                   0.000
REMARK UNBOUND:                 0.000
REMARK  Name = /home/vital/Documents/PhD_2021/Malaria_codes/scripts/../data/pdbqt_ligands/ligand_19_temp.pdb
REMARK                            x       y       z     vdW  Elec       q    Type
REMARK                         _______ _______ _______ _____ _____    ______ ____
ROOT
ATOM      1  N   UNL     1       1.716  -0.355 -20.127  0.00  0.00    -0.345 N 
ATOM      2  C   UNL     1       0.358  -0.272 -20.022  0.00  0.00    +0.115 C 
ATOM      3  N   UNL     1      -0.405  -1.290 -19.734  0.00  0.00    -0.235 N 
ATOM      4  C   UNL     1      -1.716  -0.793 -19.697  0.00  0.00    +0.071 A 
ATOM      5  C   UNL     1      -2.851  -1.536 -19.428  0.00  0.00    -0.036 A 
ATOM      6  C   UNL     1      -4.090  -0.892 -19.452  0.00  0.00    -0.060 A 
ATOM      7  C   UNL     1      -4.177   0.476 -19.752  0.00  0.00    -0.061 A 
ATOM      8  C   UNL     1      -3.026   1.222 -20.025  0.00  0.00    -0.055 A 
ATOM      9  C   UNL     1      -1.800   0.577 -19.977  0.00  0.00    +0.002 A 
ATOM     10  C   UNL     1      -0.414   1.075 -20.244  0.00  0.00    +0.091 C 
ATOM     11  N   UNL     1       0.132   2.048 -19.296  0.00  0.00    -0.301 N 
ATOM     12  C   UNL     1      -0.334   3.417 -19.514  0.00  0.00    +0.023 C 
ATOM     13  C   UNL     1       0.328   4.384 -18.521  0.00  0.00    +0.088 C 
ATOM     14  O   UNL     1      -0.137   4.079 -17.198  0.00  0.00    -0.273 OA
ATOM     15  N   UNL     1       0.562   4.917 -16.320  0.00  0.00    -0.266 N 
ATOM     16  C   UNL     1       1.427   4.331 -15.367  0.00  0.00    +0.063 A 
ATOM     17  C   UNL     1       1.930   3.036 -15.532  0.00  0.00    -0.035 A 
ATOM     18  C   UNL     1       2.841   2.497 -14.618  0.00  0.00    -0.040 A 
ATOM     19  C   UNL     1       3.282   3.261 -13.537  0.00  0.00    +0.059 A 
ATOM     20 CL   UNL     1       4.408   2.539 -12.445  0.00  0.00    -0.082 Cl
ATOM     21  C   UNL     1       2.814   4.570 -13.380  0.00  0.00    +0.061 A 
ATOM     22 CL   UNL     1       3.328   5.586 -12.080  0.00  0.00    -0.082 Cl
ATOM     23  C   UNL     1       1.901   5.102 -14.298  0.00  0.00    -0.017 A 
ATOM     24  H   UNL     1       2.170  -1.216 -19.982  0.00  0.00    +0.000 HD
ATOM     25  H   UNL     1       2.242   0.448 -20.347  0.00  0.00    +0.000 HD
ATOM     26  H   UNL     1      -0.119  -2.218 -19.574  0.00  0.00    +0.000 HD
ATOM     27  H   UNL     1       1.149   2.038 -19.377  0.00  0.00    +0.000 HD
ATOM     28  H   UNL     1      -0.190   1.770 -18.369  0.00  0.00    +0.000 HD
ATOM     29  H   UNL     1       0.453   5.895 -16.365  0.00  0.00    +0.000 HD
ENDROOT
TORSDOF 0
ENDMDL
MODEL 2
REMARK VINA RESULT:    -6.927      5.559      7.066
REMARK INTER + INTRA:          -6.927
REMARK INTER:                  -6.927
REMARK INTRA:                   0.000
REMARK UNBOUND:                 0.000
REMARK  Name = /home/vital/Documents/PhD_2021/Malaria_codes/scripts/../data/pdbqt_ligands/ligand_19_temp.pdb
REMARK                            x       y       z     vdW  Elec       q    Type
REMARK                         _______ _______ _______ _____ _____    ______ ____
ROOT
ATOM      1  N   UNL     1      -3.006  -1.608 -18.002  0.00  0.00    -0.345 N 
ATOM      2  C   UNL     1      -3.357  -1.371 -19.300  0.00  0.00    +0.115 C 
ATOM      3  N   UNL     1      -3.834  -0.232 -19.720  0.00  0.00    -0.235 N 
ATOM      4  C   UNL     1      -4.041  -0.385 -21.099  0.00  0.00    +0.071 A 
ATOM      5  C   UNL     1      -4.543   0.584 -21.949  0.00  0.00    -0.036 A 
ATOM      6  C   UNL     1      -4.711   0.264 -23.298  0.00  0.00    -0.060 A 
ATOM      7  C   UNL     1      -4.386  -1.016 -23.773  0.00  0.00    -0.061 A 
ATOM      8  C   UNL     1      -3.881  -1.991 -22.908  0.00  0.00    -0.055 A 
ATOM      9  C   UNL     1      -3.698  -1.657 -21.576  0.00  0.00    +0.002 A 
ATOM     10  C   UNL     1      -3.215  -2.466 -20.414  0.00  0.00    +0.091 C 
ATOM     11  N   UNL     1      -1.812  -2.882 -20.436  0.00  0.00    -0.301 N 
ATOM     12  C   UNL     1      -1.551  -4.050 -21.277  0.00  0.00    +0.023 C 
ATOM     13  C   UNL     1      -0.073  -4.458 -21.200  0.00  0.00    +0.088 C 
ATOM     14  O   UNL     1       0.724  -3.429 -21.802  0.00  0.00    -0.273 OA
ATOM     15  N   UNL     1       2.064  -3.797 -21.624  0.00  0.00    -0.266 N 
ATOM     16  C   UNL     1       2.896  -2.971 -20.832  0.00  0.00    +0.063 A 
ATOM     17  C   UNL     1       2.363  -2.072 -19.902  0.00  0.00    -0.035 A 
ATOM     18  C   UNL     1       3.199  -1.315 -19.075  0.00  0.00    -0.040 A 
ATOM     19  C   UNL     1       4.584  -1.468 -19.152  0.00  0.00    +0.059 A 
ATOM     20 CL   UNL     1       5.562  -0.504 -18.104  0.00  0.00    -0.082 Cl
ATOM     21  C   UNL     1       5.128  -2.389 -20.053  0.00  0.00    +0.061 A 
ATOM     22 CL   UNL     1       6.830  -2.651 -20.193  0.00  0.00    -0.082 Cl
ATOM     23  C   UNL     1       4.285  -3.143 -20.879  0.00  0.00    -0.017 A 
ATOM     24  H   UNL     1      -3.108  -0.899 -17.327  0.00  0.00    +0.000 HD
ATOM     25  H   UNL     1      -2.651  -2.488 -17.741  0.00  0.00    +0.000 HD
ATOM     26  H   UNL     1      -4.011   0.571 -19.180  0.00  0.00    +0.000 HD
ATOM     27  H   UNL     1      -1.528  -3.104 -19.482  0.00  0.00    +0.000 HD
ATOM     28  H   UNL     1      -1.281  -2.108 -20.833  0.00  0.00    +0.000 HD
ATOM     29  H   UNL     1       2.420  -4.614 -22.042  0.00  0.00    +0.000 HD
ENDROOT
TORSDOF 0
ENDMDL
MODEL 3
REMARK VINA RESULT:    -6.556     12.075     14.214
REMARK INTER + INTRA:          -6.556
REMARK INTER:                  -6.556
REMARK INTRA:                   0.000
REMARK UNBOUND:                 0.000
REMARK  Name = /home/vital/Documents/PhD_2021/Malaria_codes/scripts/../data/pdbqt_ligands/ligand_19_temp.pdb
REMARK                            x       y       z     vdW  Elec       q    Type
REMARK                         _______ _______ _______ _____ _____    ______ ____
ROOT
ATOM      1  N   UNL     1       4.679  -2.947 -32.841  0.00  0.00    -0.345 N 
ATOM      2  C   UNL     1       3.866  -4.042 -32.771  0.00  0.00    +0.115 C 
ATOM      3  N   UNL     1       4.134  -5.175 -33.357  0.00  0.00    -0.235 N 
ATOM      4  C   UNL     1       3.080  -6.040 -33.027  0.00  0.00    +0.071 A 
ATOM      5  C   UNL     1       2.957  -7.354 -33.443  0.00  0.00    -0.036 A 
ATOM      6  C   UNL     1       1.830  -8.076 -33.042  0.00  0.00    -0.060 A 
ATOM      7  C   UNL     1       0.844  -7.475 -32.245  0.00  0.00    -0.061 A 
ATOM      8  C   UNL     1       0.973  -6.146 -31.830  0.00  0.00    -0.055 A 
ATOM      9  C   UNL     1       2.105  -5.445 -32.215  0.00  0.00    +0.002 A 
ATOM     10  C   UNL     1       2.519  -4.029 -31.967  0.00  0.00    +0.091 C 
ATOM     11  N   UNL     1       2.843  -3.667 -30.586  0.00  0.00    -0.301 N 
ATOM     12  C   UNL     1       1.672  -3.404 -29.749  0.00  0.00    +0.023 C 
ATOM     13  C   UNL     1       2.095  -2.975 -28.337  0.00  0.00    +0.088 C 
ATOM     14  O   UNL     1       2.729  -4.085 -27.686  0.00  0.00    -0.273 OA
ATOM     15  N   UNL     1       3.181  -3.622 -26.444  0.00  0.00    -0.266 N 
ATOM     16  C   UNL     1       4.572  -3.612 -26.189  0.00  0.00    +0.063 A 
ATOM     17  C   UNL     1       5.508  -3.635 -27.229  0.00  0.00    -0.035 A 
ATOM     18  C   UNL     1       6.878  -3.552 -26.964  0.00  0.00    -0.040 A 
ATOM     19  C   UNL     1       7.330  -3.417 -25.650  0.00  0.00    +0.059 A 
ATOM     20 CL   UNL     1       9.034  -3.319 -25.389  0.00  0.00    -0.082 Cl
ATOM     21  C   UNL     1       6.403  -3.357 -24.604  0.00  0.00    +0.061 A 
ATOM     22 CL   UNL     1       6.882  -3.170 -22.954  0.00  0.00    -0.082 Cl
ATOM     23  C   UNL     1       5.032  -3.442 -24.877  0.00  0.00    -0.017 A 
ATOM     24  H   UNL     1       5.518  -2.989 -33.354  0.00  0.00    +0.000 HD
ATOM     25  H   UNL     1       4.426  -2.116 -32.377  0.00  0.00    +0.000 HD
ATOM     26  H   UNL     1       4.916  -5.382 -33.918  0.00  0.00    +0.000 HD
ATOM     27  H   UNL     1       3.421  -2.827 -30.601  0.00  0.00    +0.000 HD
ATOM     28  H   UNL     1       3.325  -4.467 -30.177  0.00  0.00    +0.000 HD
ATOM     29  H   UNL     1       2.543  -3.310 -25.762  0.00  0.00    +0.000 HD
ENDROOT
TORSDOF 0
ENDMDL
MODEL 4
REMARK VINA RESULT:    -6.555     13.653     15.859
REMARK INTER + INTRA:          -6.555
REMARK INTER:                  -6.555
REMARK INTRA:                   0.000
REMARK UNBOUND:                 0.000
REMARK  Name = /home/vital/Documents/PhD_2021/Malaria_codes/scripts/../data/pdbqt_ligands/ligand_19_temp.pdb
REMARK                            x       y       z     vdW  Elec       q    Type
REMARK                         _______ _______ _______ _____ _____    ______ ____
ROOT
ATOM      1  N   UNL     1       1.741  -8.635 -32.350  0.00  0.00    -0.345 N 
ATOM      2  C   UNL     1       1.360  -7.571 -33.116  0.00  0.00    +0.115 C 
ATOM      3  N   UNL     1       0.115  -7.284 -33.379  0.00  0.00    -0.235 N 
ATOM      4  C   UNL     1       0.144  -6.121 -34.164  0.00  0.00    +0.071 A 
ATOM      5  C   UNL     1      -0.963  -5.466 -34.672  0.00  0.00    -0.036 A 
ATOM      6  C   UNL     1      -0.761  -4.328 -35.457  0.00  0.00    -0.060 A 
ATOM      7  C   UNL     1       0.538  -3.872 -35.730  0.00  0.00    -0.061 A 
ATOM      8  C   UNL     1       1.653  -4.540 -35.215  0.00  0.00    -0.055 A 
ATOM      9  C   UNL     1       1.440  -5.655 -34.419  0.00  0.00    +0.002 A 
ATOM     10  C   UNL     1       2.402  -6.589 -33.756  0.00  0.00    +0.091 C 
ATOM     11  N   UNL     1       3.209  -6.042 -32.663  0.00  0.00    -0.301 N 
ATOM     12  C   UNL     1       4.367  -5.267 -33.109  0.00  0.00    +0.023 C 
ATOM     13  C   UNL     1       5.191  -4.779 -31.909  0.00  0.00    +0.088 C 
ATOM     14  O   UNL     1       4.415  -3.826 -31.170  0.00  0.00    -0.273 OA
ATOM     15  N   UNL     1       5.165  -3.482 -30.039  0.00  0.00    -0.266 N 
ATOM     16  C   UNL     1       4.651  -3.803 -28.761  0.00  0.00    +0.063 A 
ATOM     17  C   UNL     1       3.674  -4.790 -28.590  0.00  0.00    -0.035 A 
ATOM     18  C   UNL     1       3.228  -5.146 -27.314  0.00  0.00    -0.040 A 
ATOM     19  C   UNL     1       3.776  -4.535 -26.185  0.00  0.00    +0.059 A 
ATOM     20 CL   UNL     1       3.183  -5.019 -24.637  0.00  0.00    -0.082 Cl
ATOM     21  C   UNL     1       4.778  -3.571 -26.340  0.00  0.00    +0.061 A 
ATOM     22 CL   UNL     1       5.520  -2.784 -24.993  0.00  0.00    -0.082 Cl
ATOM     23  C   UNL     1       5.219  -3.219 -27.622  0.00  0.00    -0.017 A 
ATOM     24  H   UNL     1       1.061  -9.232 -31.963  0.00  0.00    +0.000 HD
ATOM     25  H   UNL     1       2.697  -8.804 -32.184  0.00  0.00    +0.000 HD
ATOM     26  H   UNL     1      -0.682  -7.781 -33.086  0.00  0.00    +0.000 HD
ATOM     27  H   UNL     1       3.542  -6.818 -32.091  0.00  0.00    +0.000 HD
ATOM     28  H   UNL     1       2.607  -5.402 -32.145  0.00  0.00    +0.000 HD
ATOM     29  H   UNL     1       6.033  -3.026 -30.131  0.00  0.00    +0.000 HD
ENDROOT
TORSDOF 0
ENDMDL
MODEL 5
REMARK VINA RESULT:    -6.482     12.401     14.581
REMARK INTER + INTRA:          -6.482
REMARK INTER:                  -6.482
REMARK INTRA:                   0.000
REMARK UNBOUND:                 0.000
REMARK  Name = /home/vital/Documents/PhD_2021/Malaria_codes/scripts/../data/pdbqt_ligands/ligand_19_temp.pdb
REMARK                            x       y       z     vdW  Elec       q    Type
REMARK                         _______ _______ _______ _____ _____    ______ ____
ROOT
ATOM      1  N   UNL     1       3.794  -3.914 -33.048  0.00  0.00    -0.345 N 
ATOM      2  C   UNL     1       2.977  -4.998 -32.910  0.00  0.00    +0.115 C 
ATOM      3  N   UNL     1       3.203  -6.147 -33.483  0.00  0.00    -0.235 N 
ATOM      4  C   UNL     1       2.161  -6.995 -33.077  0.00  0.00    +0.071 A 
ATOM      5  C   UNL     1       2.004  -8.316 -33.455  0.00  0.00    -0.036 A 
ATOM      6  C   UNL     1       0.894  -9.018 -32.978  0.00  0.00    -0.060 A 
ATOM      7  C   UNL     1      -0.042  -8.389 -32.143  0.00  0.00    -0.061 A 
ATOM      8  C   UNL     1       0.121  -7.052 -31.767  0.00  0.00    -0.055 A 
ATOM      9  C   UNL     1       1.236  -6.371 -32.228  0.00  0.00    +0.002 A 
ATOM     10  C   UNL     1       1.675  -4.954 -32.035  0.00  0.00    +0.091 C 
ATOM     11  N   UNL     1       2.076  -4.564 -30.682  0.00  0.00    -0.301 N 
ATOM     12  C   UNL     1       0.954  -4.272 -29.790  0.00  0.00    +0.023 C 
ATOM     13  C   UNL     1       1.456  -3.815 -28.413  0.00  0.00    +0.088 C 
ATOM     14  O   UNL     1       2.114  -4.916 -27.771  0.00  0.00    -0.273 OA
ATOM     15  N   UNL     1       2.637  -4.430 -26.566  0.00  0.00    -0.266 N 
ATOM     16  C   UNL     1       4.040  -4.428 -26.387  0.00  0.00    +0.063 A 
ATOM     17  C   UNL     1       4.918  -4.484 -27.474  0.00  0.00    -0.035 A 
ATOM     18  C   UNL     1       6.301  -4.408 -27.285  0.00  0.00    -0.040 A 
ATOM     19  C   UNL     1       6.824  -4.248 -26.001  0.00  0.00    +0.059 A 
ATOM     20 CL   UNL     1       8.541  -4.160 -25.834  0.00  0.00    -0.082 Cl
ATOM     21  C   UNL     1       5.955  -4.155 -24.909  0.00  0.00    +0.061 A 
ATOM     22 CL   UNL     1       6.523  -3.936 -23.291  0.00  0.00    -0.082 Cl
ATOM     23  C   UNL     1       4.571  -4.233 -25.106  0.00  0.00    -0.017 A 
ATOM     24  H   UNL     1       4.604  -3.975 -33.604  0.00  0.00    +0.000 HD
ATOM     25  H   UNL     1       3.574  -3.070 -32.591  0.00  0.00    +0.000 HD
ATOM     26  H   UNL     1       3.952  -6.375 -34.080  0.00  0.00    +0.000 HD
ATOM     27  H   UNL     1       2.659  -3.730 -30.748  0.00  0.00    +0.000 HD
ATOM     28  H   UNL     1       2.572  -5.360 -30.281  0.00  0.00    +0.000 HD
ATOM     29  H   UNL     1       2.039  -4.096 -25.858  0.00  0.00    +0.000 HD
ENDROOT
TORSDOF 0
ENDMDL
MODEL 6
REMARK VINA RESULT:    -6.463     12.366     14.360
REMARK INTER + INTRA:          -6.463
REMARK INTER:                  -6.463
REMARK INTRA:                   0.000
REMARK UNBOUND:                 0.000
REMARK  Name = /home/vital/Documents/PhD_2021/Malaria_codes/scripts/../data/pdbqt_ligands/ligand_19_temp.pdb
REMARK                            x       y       z     vdW  Elec       q    Type
REMARK                         _______ _______ _______ _____ _____    ______ ____
ROOT
ATOM      1  N   UNL     1       5.848  -5.324 -32.910  0.00  0.00    -0.345 N 
ATOM      2  C   UNL     1       4.615  -4.769 -33.101  0.00  0.00    +0.115 C 
ATOM      3  N   UNL     1       3.542  -5.468 -33.345  0.00  0.00    -0.235 N 
ATOM      4  C   UNL     1       2.493  -4.543 -33.452  0.00  0.00    +0.071 A 
ATOM      5  C   UNL     1       1.170  -4.852 -33.711  0.00  0.00    -0.036 A 
ATOM      6  C   UNL     1       0.248  -3.807 -33.809  0.00  0.00    -0.060 A 
ATOM      7  C   UNL     1       0.663  -2.475 -33.658  0.00  0.00    -0.061 A 
ATOM      8  C   UNL     1       2.002  -2.168 -33.399  0.00  0.00    -0.055 A 
ATOM      9  C   UNL     1       2.904  -3.214 -33.282  0.00  0.00    +0.002 A 
ATOM     10  C   UNL     1       4.381  -3.219 -33.044  0.00  0.00    +0.091 C 
ATOM     11  N   UNL     1       4.841  -2.760 -31.732  0.00  0.00    -0.301 N 
ATOM     12  C   UNL     1       4.887  -1.305 -31.593  0.00  0.00    +0.023 C 
ATOM     13  C   UNL     1       5.433  -0.905 -30.215  0.00  0.00    +0.088 C 
ATOM     14  O   UNL     1       4.493  -1.307 -29.209  0.00  0.00    -0.273 OA
ATOM     15  N   UNL     1       5.073  -1.011 -27.969  0.00  0.00    -0.266 N 
ATOM     16  C   UNL     1       5.369  -2.075 -27.086  0.00  0.00    +0.063 A 
ATOM     17  C   UNL     1       5.503  -3.391 -27.544  0.00  0.00    -0.035 A 
ATOM     18  C   UNL     1       5.867  -4.421 -26.671  0.00  0.00    -0.040 A 
ATOM     19  C   UNL     1       6.127  -4.142 -25.329  0.00  0.00    +0.059 A 
ATOM     20 CL   UNL     1       6.573  -5.457 -24.302  0.00  0.00    -0.082 Cl
ATOM     21  C   UNL     1       6.031  -2.825 -24.866  0.00  0.00    +0.061 A 
ATOM     22 CL   UNL     1       6.358  -2.395 -23.225  0.00  0.00    -0.082 Cl
ATOM     23  C   UNL     1       5.665  -1.798 -25.746  0.00  0.00    -0.017 A 
ATOM     24  H   UNL     1       5.960  -6.301 -32.953  0.00  0.00    +0.000 HD
ATOM     25  H   UNL     1       6.624  -4.746 -32.729  0.00  0.00    +0.000 HD
ATOM     26  H   UNL     1       3.479  -6.446 -33.435  0.00  0.00    +0.000 HD
ATOM     27  H   UNL     1       5.779  -3.128 -31.574  0.00  0.00    +0.000 HD
ATOM     28  H   UNL     1       4.165  -3.101 -31.047  0.00  0.00    +0.000 HD
ATOM     29  H   UNL     1       5.270  -0.079 -27.717  0.00  0.00    +0.000 HD
ENDROOT
TORSDOF 0
ENDMDL
MODEL 7
REMARK VINA RESULT:    -6.406     12.889     15.195
REMARK INTER + INTRA:          -6.406
REMARK INTER:                  -6.406
REMARK INTRA:                   0.000
REMARK UNBOUND:                 0.000
REMARK  Name = /home/vital/Documents/PhD_2021/Malaria_codes/scripts/../data/pdbqt_ligands/ligand_19_temp.pdb
REMARK                            x       y       z     vdW  Elec       q    Type
REMARK                         _______ _______ _______ _____ _____    ______ ____
ROOT
ATOM      1  N   UNL     1       1.884  -8.341 -32.362  0.00  0.00    -0.345 N 
ATOM      2  C   UNL     1       1.605  -7.199 -33.055  0.00  0.00    +0.115 C 
ATOM      3  N   UNL     1       0.529  -7.038 -33.774  0.00  0.00    -0.235 N 
ATOM      4  C   UNL     1       0.602  -5.738 -34.296  0.00  0.00    +0.071 A 
ATOM      5  C   UNL     1      -0.336  -5.148 -35.123  0.00  0.00    -0.036 A 
ATOM      6  C   UNL     1      -0.102  -3.848 -35.577  0.00  0.00    -0.060 A 
ATOM      7  C   UNL     1       1.067  -3.164 -35.207  0.00  0.00    -0.061 A 
ATOM      8  C   UNL     1       2.013  -3.767 -34.372  0.00  0.00    -0.055 A 
ATOM      9  C   UNL     1       1.760  -5.049 -33.911  0.00  0.00    +0.002 A 
ATOM     10  C   UNL     1       2.570  -5.963 -33.046  0.00  0.00    +0.091 C 
ATOM     11  N   UNL     1       2.750  -5.564 -31.649  0.00  0.00    -0.301 N 
ATOM     12  C   UNL     1       3.789  -4.555 -31.447  0.00  0.00    +0.023 C 
ATOM     13  C   UNL     1       3.956  -4.234 -29.955  0.00  0.00    +0.088 C 
ATOM     14  O   UNL     1       2.766  -3.587 -29.483  0.00  0.00    -0.273 OA
ATOM     15  N   UNL     1       2.925  -3.402 -28.104  0.00  0.00    -0.266 N 
ATOM     16  C   UNL     1       2.040  -4.067 -27.224  0.00  0.00    +0.063 A 
ATOM     17  C   UNL     1       1.316  -5.195 -27.626  0.00  0.00    -0.035 A 
ATOM     18  C   UNL     1       0.502  -5.885 -26.724  0.00  0.00    -0.040 A 
ATOM     19  C   UNL     1       0.421  -5.469 -25.394  0.00  0.00    +0.059 A 
ATOM     20 CL   UNL     1      -0.602  -6.363 -24.328  0.00  0.00    -0.082 Cl
ATOM     21  C   UNL     1       1.167  -4.364 -24.970  0.00  0.00    +0.061 A 
ATOM     22 CL   UNL     1       1.138  -3.799 -23.337  0.00  0.00    -0.082 Cl
ATOM     23  C   UNL     1       1.980  -3.677 -25.880  0.00  0.00    -0.017 A 
ATOM     24  H   UNL     1       1.256  -9.099 -32.389  0.00  0.00    +0.000 HD
ATOM     25  H   UNL     1       2.713  -8.407 -31.835  0.00  0.00    +0.000 HD
ATOM     26  H   UNL     1      -0.190  -7.695 -33.921  0.00  0.00    +0.000 HD
ATOM     27  H   UNL     1       2.998  -6.392 -31.108  0.00  0.00    +0.000 HD
ATOM     28  H   UNL     1       1.870  -5.147 -31.346  0.00  0.00    +0.000 HD
ATOM     29  H   UNL     1       3.638  -2.819 -27.754  0.00  0.00    +0.000 HD
ENDROOT
TORSDOF 0
ENDMDL
MODEL 8
REMARK VINA RESULT:    -6.359      4.793      8.588
REMARK INTER + INTRA:          -6.359
REMARK INTER:                  -6.359
REMARK INTRA:                   0.000
REMARK UNBOUND:                 0.000
REMARK  Name = /home/vital/Documents/PhD_2021/Malaria_codes/scripts/../data/pdbqt_ligands/ligand_19_temp.pdb
REMARK                            x       y       z     vdW  Elec       q    Type
REMARK                         _______ _______ _______ _____ _____    ______ ____
ROOT
ATOM      1  N   UNL     1      -3.218   5.903 -17.708  0.00  0.00    -0.345 N 
ATOM      2  C   UNL     1      -1.947   5.639 -17.288  0.00  0.00    +0.115 C 
ATOM      3  N   UNL     1      -1.643   5.342 -16.055  0.00  0.00    -0.235 N 
ATOM      4  C   UNL     1      -0.258   5.120 -16.040  0.00  0.00    +0.071 A 
ATOM      5  C   UNL     1       0.490   4.781 -14.927  0.00  0.00    -0.036 A 
ATOM      6  C   UNL     1       1.869   4.616 -15.077  0.00  0.00    -0.060 A 
ATOM      7  C   UNL     1       2.478   4.802 -16.328  0.00  0.00    -0.061 A 
ATOM      8  C   UNL     1       1.716   5.148 -17.448  0.00  0.00    -0.055 A 
ATOM      9  C   UNL     1       0.346   5.287 -17.293  0.00  0.00    +0.002 A 
ATOM     10  C   UNL     1      -0.722   5.671 -18.268  0.00  0.00    +0.091 C 
ATOM     11  N   UNL     1      -1.005   4.722 -19.346  0.00  0.00    -0.301 N 
ATOM     12  C   UNL     1      -0.056   4.784 -20.458  0.00  0.00    +0.023 C 
ATOM     13  C   UNL     1      -0.454   3.804 -21.570  0.00  0.00    +0.088 C 
ATOM     14  O   UNL     1      -0.309   2.463 -21.081  0.00  0.00    -0.273 OA
ATOM     15  N   UNL     1      -0.772   1.610 -22.090  0.00  0.00    -0.266 N 
ATOM     16  C   UNL     1      -1.907   0.807 -21.833  0.00  0.00    +0.063 A 
ATOM     17  C   UNL     1      -2.813   1.124 -20.815  0.00  0.00    -0.035 A 
ATOM     18  C   UNL     1      -3.968   0.362 -20.619  0.00  0.00    -0.040 A 
ATOM     19  C   UNL     1      -4.247  -0.716 -21.461  0.00  0.00    +0.059 A 
ATOM     20 CL   UNL     1      -5.690  -1.618 -21.168  0.00  0.00    -0.082 Cl
ATOM     21  C   UNL     1      -3.367  -1.022 -22.505  0.00  0.00    +0.061 A 
ATOM     22 CL   UNL     1      -3.651  -2.327 -23.601  0.00  0.00    -0.082 Cl
ATOM     23  C   UNL     1      -2.211  -0.255 -22.694  0.00  0.00    -0.017 A 
ATOM     24  H   UNL     1      -3.965   5.874 -17.067  0.00  0.00    +0.000 HD
ATOM     25  H   UNL     1      -3.389   6.122 -18.653  0.00  0.00    +0.000 HD
ATOM     26  H   UNL     1      -2.260   5.285 -15.291  0.00  0.00    +0.000 HD
ATOM     27  H   UNL     1      -1.938   4.918 -19.709  0.00  0.00    +0.000 HD
ATOM     28  H   UNL     1      -0.929   3.788 -18.944  0.00  0.00    +0.000 HD
ATOM     29  H   UNL     1      -0.315   1.570 -22.962  0.00  0.00    +0.000 HD
ENDROOT
TORSDOF 0
ENDMDL
MODEL 9
REMARK VINA RESULT:    -6.298      4.328      8.287
REMARK INTER + INTRA:          -6.298
REMARK INTER:                  -6.298
REMARK INTRA:                   0.000
REMARK UNBOUND:                 0.000
REMARK  Name = /home/vital/Documents/PhD_2021/Malaria_codes/scripts/../data/pdbqt_ligands/ligand_19_temp.pdb
REMARK                            x       y       z     vdW  Elec       q    Type
REMARK                         _______ _______ _______ _____ _____    ______ ____
ROOT
ATOM      1  N   UNL     1      -0.895   5.914 -18.683  0.00  0.00    -0.345 N 
ATOM      2  C   UNL     1      -0.113   5.463 -17.660  0.00  0.00    +0.115 C 
ATOM      3  N   UNL     1      -0.387   5.667 -16.401  0.00  0.00    -0.235 N 
ATOM      4  C   UNL     1       0.633   5.031 -15.676  0.00  0.00    +0.071 A 
ATOM      5  C   UNL     1       0.739   4.999 -14.297  0.00  0.00    -0.036 A 
ATOM      6  C   UNL     1       1.831   4.340 -13.729  0.00  0.00    -0.060 A 
ATOM      7  C   UNL     1       2.801   3.735 -14.543  0.00  0.00    -0.061 A 
ATOM      8  C   UNL     1       2.690   3.774 -15.936  0.00  0.00    -0.055 A 
ATOM      9  C   UNL     1       1.590   4.411 -16.489  0.00  0.00    +0.002 A 
ATOM     10  C   UNL     1       1.203   4.648 -17.915  0.00  0.00    +0.091 C 
ATOM     11  N   UNL     1       0.837   3.470 -18.704  0.00  0.00    -0.301 N 
ATOM     12  C   UNL     1       1.982   2.712 -19.207  0.00  0.00    +0.023 C 
ATOM     13  C   UNL     1       1.518   1.531 -20.071  0.00  0.00    +0.088 C 
ATOM     14  O   UNL     1       0.832   0.587 -19.237  0.00  0.00    -0.273 OA
ATOM     15  N   UNL     1       0.345  -0.421 -20.079  0.00  0.00    -0.266 N 
ATOM     16  C   UNL     1      -1.054  -0.599 -20.186  0.00  0.00    +0.063 A 
ATOM     17  C   UNL     1      -1.950   0.419 -19.841  0.00  0.00    -0.035 A 
ATOM     18  C   UNL     1      -3.327   0.254 -20.021  0.00  0.00    -0.040 A 
ATOM     19  C   UNL     1      -3.824  -0.927 -20.575  0.00  0.00    +0.059 A 
ATOM     20 CL   UNL     1      -5.534  -1.069 -20.772  0.00  0.00    -0.082 Cl
ATOM     21  C   UNL     1      -2.936  -1.938 -20.957  0.00  0.00    +0.061 A 
ATOM     22 CL   UNL     1      -3.470  -3.419 -21.668  0.00  0.00    -0.082 Cl
ATOM     23  C   UNL     1      -1.558  -1.766 -20.773  0.00  0.00    -0.017 A 
ATOM     24  H   UNL     1      -1.715   6.423 -18.489  0.00  0.00    +0.000 HD
ATOM     25  H   UNL     1      -0.639   5.730 -19.616  0.00  0.00    +0.000 HD
ATOM     26  H   UNL     1      -1.152   6.164 -16.035  0.00  0.00    +0.000 HD
ATOM     27  H   UNL     1       0.281   3.779 -19.502  0.00  0.00    +0.000 HD
ATOM     28  H   UNL     1       0.320   2.848 -18.083  0.00  0.00    +0.000 HD
ATOM     29  H   UNL     1       0.965  -0.994 -20.586  0.00  0.00    +0.000 HD
ENDROOT
TORSDOF 0
ENDMDL
