MODEL 1
REMARK VINA RESULT:    -8.685      0.000      0.000
REMARK INTER + INTRA:         -11.493
REMARK INTER:                 -11.223
REMARK INTRA:                  -0.270
REMARK UNBOUND:                -0.270
REMARK SMILES O=C(NCc1cccc(NC(=O)C2CC2)c1)c1n[nH]c2ccccc12
REMARK SMILES IDX 4 1 3 2 1 3 2 4 17 6 18 7 25 8 19 9 24 10 20 11 23 12 21 13
REMARK SMILES IDX 22 14 5 16 6 17 16 18 7 19 9 20 8 21 10 22 11 23 12 24 13 26
REMARK SMILES IDX 14 27 15 28
REMARK H PARENT 3 5 19 15 10 25
ROOT
ATOM      1  C   UNL     1      15.921 -22.636 -46.812  1.00  0.00     0.152 C 
ENDROOT
BRANCH   1   2
ATOM      2  N   UNL     1      15.684 -22.932 -45.425  1.00  0.00    -0.347 N 
ATOM      3  O   UNL     1      17.268 -21.505 -44.572  1.00  0.00    -0.267 OA
ATOM      4  C   UNL     1      16.432 -22.388 -44.404  1.00  0.00     0.272 C 
ATOM      5  H   UNL     1      15.125 -23.739 -45.165  1.00  0.00     0.164 HD
BRANCH   4   6
ATOM      6  C   UNL     1      16.135 -22.988 -43.093  1.00  0.00     0.157 A 
ATOM      7  N   UNL     1      17.043 -22.971 -42.090  1.00  0.00    -0.169 NA
ATOM      8  C   UNL     1      14.928 -23.631 -42.688  1.00  0.00     0.033 A 
ATOM      9  N   UNL     1      16.412 -23.589 -41.078  1.00  0.00    -0.277 N 
ATOM     10  C   UNL     1      13.687 -23.930 -43.284  1.00  0.00     0.013 A 
ATOM     11  C   UNL     1      15.145 -24.010 -41.369  1.00  0.00     0.066 A 
ATOM     12  C   UNL     1      12.715 -24.601 -42.532  1.00  0.00     0.001 A 
ATOM     13  C   UNL     1      14.189 -24.679 -40.598  1.00  0.00     0.028 A 
ATOM     14  C   UNL     1      12.965 -24.968 -41.210  1.00  0.00     0.002 A 
ATOM     15  H   UNL     1      16.906 -23.696 -40.198  1.00  0.00     0.190 HD
ENDBRANCH   4   6
ENDBRANCH   1   2
BRANCH   1  16
ATOM     16  C   UNL     1      14.666 -22.144 -47.483  1.00  0.00    -0.027 A 
ATOM     17  C   UNL     1      13.427 -22.232 -46.840  1.00  0.00     0.006 A 
ATOM     18  C   UNL     1      14.718 -21.623 -48.787  1.00  0.00     0.031 A 
ATOM     19  C   UNL     1      12.270 -21.792 -47.483  1.00  0.00     0.002 A 
ATOM     20  C   UNL     1      13.560 -21.184 -49.441  1.00  0.00     0.041 A 
ATOM     21  C   UNL     1      12.337 -21.269 -48.777  1.00  0.00     0.026 A 
BRANCH  20  22
ATOM     22  N   UNL     1      13.713 -20.684 -50.749  1.00  0.00    -0.326 N 
ATOM     23  C   UNL     1      13.788 -19.368 -51.143  1.00  0.00     0.227 C 
ATOM     24  O   UNL     1      13.767 -18.367 -50.444  1.00  0.00    -0.274 OA
ATOM     25  H   UNL     1      13.768 -21.374 -51.488  1.00  0.00     0.169 HD
BRANCH  23  26
ATOM     26  C   UNL     1      13.944 -19.216 -52.618  1.00  0.00     0.079 C 
ATOM     27  C   UNL     1      14.933 -18.236 -53.207  1.00  0.00     0.014 C 
ATOM     28  C   UNL     1      15.207 -19.708 -53.287  1.00  0.00     0.014 C 
ENDBRANCH  23  26
ENDBRANCH  20  22
ENDBRANCH   1  16
TORSDOF 5
ENDMDL
MODEL 2
REMARK VINA RESULT:    -8.567      1.833      2.192
REMARK INTER + INTRA:         -11.341
REMARK INTER:                 -11.164
REMARK INTRA:                  -0.177
REMARK UNBOUND:                -0.270
REMARK SMILES O=C(NCc1cccc(NC(=O)C2CC2)c1)c1n[nH]c2ccccc12
REMARK SMILES IDX 4 1 3 2 1 3 2 4 17 6 18 7 25 8 19 9 24 10 20 11 23 12 21 13
REMARK SMILES IDX 22 14 5 16 6 17 16 18 7 19 9 20 8 21 10 22 11 23 12 24 13 26
REMARK SMILES IDX 14 27 15 28
REMARK H PARENT 3 5 19 15 10 25
ROOT
ATOM      1  C   UNL     1      14.898 -22.871 -47.200  1.00  0.00     0.152 C 
ENDROOT
BRANCH   1   2
ATOM      2  N   UNL     1      14.221 -23.177 -45.969  1.00  0.00    -0.347 N 
ATOM      3  O   UNL     1      15.949 -22.614 -44.565  1.00  0.00    -0.267 OA
ATOM      4  C   UNL     1      14.830 -23.089 -44.736  1.00  0.00     0.272 C 
ATOM      5  H   UNL     1      13.353 -23.705 -45.982  1.00  0.00     0.164 HD
BRANCH   4   6
ATOM      6  C   UNL     1      14.004 -23.639 -43.648  1.00  0.00     0.157 A 
ATOM      7  N   UNL     1      12.697 -23.932 -43.837  1.00  0.00    -0.169 NA
ATOM      8  C   UNL     1      14.416 -23.940 -42.317  1.00  0.00     0.033 A 
ATOM      9  N   UNL     1      12.301 -24.410 -42.645  1.00  0.00    -0.277 N 
ATOM     10  C   UNL     1      15.611 -23.848 -41.577  1.00  0.00     0.013 A 
ATOM     11  C   UNL     1      13.280 -24.441 -41.691  1.00  0.00     0.066 A 
ATOM     12  C   UNL     1      15.617 -24.260 -40.239  1.00  0.00     0.001 A 
ATOM     13  C   UNL     1      13.262 -24.860 -40.357  1.00  0.00     0.028 A 
ATOM     14  C   UNL     1      14.460 -24.758 -39.641  1.00  0.00     0.002 A 
ATOM     15  H   UNL     1      11.337 -24.705 -42.541  1.00  0.00     0.190 HD
ENDBRANCH   4   6
ENDBRANCH   1   2
BRANCH   1  16
ATOM     16  C   UNL     1      13.939 -22.323 -48.223  1.00  0.00    -0.027 A 
ATOM     17  C   UNL     1      12.745 -22.991 -48.518  1.00  0.00     0.006 A 
ATOM     18  C   UNL     1      14.251 -21.148 -48.929  1.00  0.00     0.031 A 
ATOM     19  C   UNL     1      11.878 -22.483 -49.485  1.00  0.00     0.002 A 
ATOM     20  C   UNL     1      13.388 -20.635 -49.905  1.00  0.00     0.041 A 
ATOM     21  C   UNL     1      12.198 -21.310 -50.174  1.00  0.00     0.026 A 
BRANCH  20  22
ATOM     22  N   UNL     1      13.791 -19.456 -50.561  1.00  0.00    -0.326 N 
ATOM     23  C   UNL     1      13.793 -19.205 -51.914  1.00  0.00     0.227 C 
ATOM     24  O   UNL     1      13.422 -19.935 -52.819  1.00  0.00    -0.274 OA
ATOM     25  H   UNL     1      14.125 -18.707 -49.968  1.00  0.00     0.169 HD
BRANCH  23  26
ATOM     26  C   UNL     1      14.296 -17.841 -52.245  1.00  0.00     0.079 C 
ATOM     27  C   UNL     1      15.774 -17.566 -52.409  1.00  0.00     0.014 C 
ATOM     28  C   UNL     1      14.880 -17.576 -53.614  1.00  0.00     0.014 C 
ENDBRANCH  23  26
ENDBRANCH  20  22
ENDBRANCH   1  16
TORSDOF 5
ENDMDL
MODEL 3
REMARK VINA RESULT:    -8.249      2.230      3.077
REMARK INTER + INTRA:         -10.930
REMARK INTER:                 -10.104
REMARK INTRA:                  -0.826
REMARK UNBOUND:                -0.270
REMARK SMILES O=C(NCc1cccc(NC(=O)C2CC2)c1)c1n[nH]c2ccccc12
REMARK SMILES IDX 4 1 3 2 1 3 2 4 17 6 18 7 25 8 19 9 24 10 20 11 23 12 21 13
REMARK SMILES IDX 22 14 5 16 6 17 16 18 7 19 9 20 8 21 10 22 11 23 12 24 13 26
REMARK SMILES IDX 14 27 15 28
REMARK H PARENT 3 5 19 15 10 25
ROOT
ATOM      1  C   UNL     1      12.816 -24.744 -46.408  1.00  0.00     0.152 C 
ENDROOT
BRANCH   1   2
ATOM      2  N   UNL     1      13.030 -25.019 -45.012  1.00  0.00    -0.347 N 
ATOM      3  O   UNL     1      11.556 -23.456 -44.201  1.00  0.00    -0.267 OA
ATOM      4  C   UNL     1      12.428 -24.298 -44.005  1.00  0.00     0.272 C 
ATOM      5  H   UNL     1      13.820 -25.586 -44.721  1.00  0.00     0.164 HD
BRANCH   4   6
ATOM      6  C   UNL     1      12.951 -24.632 -42.670  1.00  0.00     0.157 A 
ATOM      7  N   UNL     1      12.249 -25.410 -41.814  1.00  0.00    -0.169 NA
ATOM      8  C   UNL     1      14.195 -24.228 -42.101  1.00  0.00     0.033 A 
ATOM      9  N   UNL     1      13.042 -25.492 -40.733  1.00  0.00    -0.277 N 
ATOM     10  C   UNL     1      15.292 -23.446 -42.510  1.00  0.00     0.013 A 
ATOM     11  C   UNL     1      14.220 -24.807 -40.838  1.00  0.00     0.066 A 
ATOM     12  C   UNL     1      16.371 -23.275 -41.634  1.00  0.00     0.001 A 
ATOM     13  C   UNL     1      15.286 -24.652 -39.946  1.00  0.00     0.028 A 
ATOM     14  C   UNL     1      16.365 -23.871 -40.372  1.00  0.00     0.002 A 
ATOM     15  H   UNL     1      12.721 -26.039 -39.941  1.00  0.00     0.190 HD
ENDBRANCH   4   6
ENDBRANCH   1   2
BRANCH   1  16
ATOM     16  C   UNL     1      13.830 -23.761 -46.929  1.00  0.00    -0.027 A 
ATOM     17  C   UNL     1      15.064 -23.597 -46.290  1.00  0.00     0.006 A 
ATOM     18  C   UNL     1      13.532 -22.962 -48.046  1.00  0.00     0.031 A 
ATOM     19  C   UNL     1      15.984 -22.666 -46.771  1.00  0.00     0.002 A 
ATOM     20  C   UNL     1      14.449 -22.022 -48.532  1.00  0.00     0.041 A 
ATOM     21  C   UNL     1      15.678 -21.883 -47.889  1.00  0.00     0.026 A 
BRANCH  20  22
ATOM     22  N   UNL     1      14.057 -21.265 -49.654  1.00  0.00    -0.326 N 
ATOM     23  C   UNL     1      13.399 -20.057 -49.665  1.00  0.00     0.227 C 
ATOM     24  O   UNL     1      13.046 -19.380 -48.713  1.00  0.00    -0.274 OA
ATOM     25  H   UNL     1      14.281 -21.660 -50.559  1.00  0.00     0.169 HD
BRANCH  23  26
ATOM     26  C   UNL     1      13.143 -19.554 -51.045  1.00  0.00     0.079 C 
ATOM     27  C   UNL     1      14.118 -18.629 -51.738  1.00  0.00     0.014 C 
ATOM     28  C   UNL     1      13.995 -20.054 -52.189  1.00  0.00     0.014 C 
ENDBRANCH  23  26
ENDBRANCH  20  22
ENDBRANCH   1  16
TORSDOF 5
ENDMDL
MODEL 4
REMARK VINA RESULT:    -8.140      1.507      1.878
REMARK INTER + INTRA:         -10.790
REMARK INTER:                 -10.242
REMARK INTRA:                  -0.548
REMARK UNBOUND:                -0.270
REMARK SMILES O=C(NCc1cccc(NC(=O)C2CC2)c1)c1n[nH]c2ccccc12
REMARK SMILES IDX 4 1 3 2 1 3 2 4 17 6 18 7 25 8 19 9 24 10 20 11 23 12 21 13
REMARK SMILES IDX 22 14 5 16 6 17 16 18 7 19 9 20 8 21 10 22 11 23 12 24 13 26
REMARK SMILES IDX 14 27 15 28
REMARK H PARENT 3 5 19 15 10 25
ROOT
ATOM      1  C   UNL     1      16.448 -22.754 -45.868  1.00  0.00     0.152 C 
ENDROOT
BRANCH   1   2
ATOM      2  N   UNL     1      16.402 -23.577 -44.691  1.00  0.00    -0.347 N 
ATOM      3  O   UNL     1      15.749 -21.927 -43.234  1.00  0.00    -0.267 OA
ATOM      4  C   UNL     1      16.119 -23.080 -43.438  1.00  0.00     0.272 C 
ATOM      5  H   UNL     1      16.818 -24.504 -44.700  1.00  0.00     0.164 HD
BRANCH   4   6
ATOM      6  C   UNL     1      16.323 -24.070 -42.368  1.00  0.00     0.157 A 
ATOM      7  N   UNL     1      17.494 -24.734 -42.239  1.00  0.00    -0.169 NA
ATOM      8  C   UNL     1      15.393 -24.459 -41.359  1.00  0.00     0.033 A 
ATOM      9  N   UNL     1      17.299 -25.521 -41.167  1.00  0.00    -0.277 N 
ATOM     10  C   UNL     1      14.072 -24.118 -41.010  1.00  0.00     0.013 A 
ATOM     11  C   UNL     1      16.063 -25.406 -40.594  1.00  0.00     0.066 A 
ATOM     12  C   UNL     1      13.476 -24.743 -39.907  1.00  0.00     0.001 A 
ATOM     13  C   UNL     1      15.490 -26.043 -39.489  1.00  0.00     0.028 A 
ATOM     14  C   UNL     1      14.177 -25.690 -39.161  1.00  0.00     0.002 A 
ATOM     15  H   UNL     1      18.058 -26.124 -40.869  1.00  0.00     0.190 HD
ENDBRANCH   4   6
ENDBRANCH   1   2
BRANCH   1  16
ATOM     16  C   UNL     1      15.230 -22.967 -46.727  1.00  0.00    -0.027 A 
ATOM     17  C   UNL     1      14.364 -24.040 -46.490  1.00  0.00     0.006 A 
ATOM     18  C   UNL     1      14.969 -22.110 -47.810  1.00  0.00     0.031 A 
ATOM     19  C   UNL     1      13.252 -24.237 -47.309  1.00  0.00     0.002 A 
ATOM     20  C   UNL     1      13.857 -22.306 -48.640  1.00  0.00     0.041 A 
ATOM     21  C   UNL     1      13.000 -23.373 -48.378  1.00  0.00     0.026 A 
BRANCH  20  22
ATOM     22  N   UNL     1      13.683 -21.397 -49.702  1.00  0.00    -0.326 N 
ATOM     23  C   UNL     1      13.282 -20.084 -49.629  1.00  0.00     0.227 C 
ATOM     24  O   UNL     1      13.024 -19.426 -48.633  1.00  0.00    -0.274 OA
ATOM     25  H   UNL     1      13.869 -21.756 -50.631  1.00  0.00     0.169 HD
BRANCH  23  26
ATOM     26  C   UNL     1      13.203 -19.430 -50.967  1.00  0.00     0.079 C 
ATOM     27  C   UNL     1      14.269 -18.466 -51.435  1.00  0.00     0.014 C 
ATOM     28  C   UNL     1      14.179 -19.831 -52.050  1.00  0.00     0.014 C 
ENDBRANCH  23  26
ENDBRANCH  20  22
ENDBRANCH   1  16
TORSDOF 5
ENDMDL
MODEL 5
REMARK VINA RESULT:    -8.067      1.754      9.431
REMARK INTER + INTRA:         -10.695
REMARK INTER:                 -10.448
REMARK INTRA:                  -0.247
REMARK UNBOUND:                -0.270
REMARK SMILES O=C(NCc1cccc(NC(=O)C2CC2)c1)c1n[nH]c2ccccc12
REMARK SMILES IDX 4 1 3 2 1 3 2 4 17 6 18 7 25 8 19 9 24 10 20 11 23 12 21 13
REMARK SMILES IDX 22 14 5 16 6 17 16 18 7 19 9 20 8 21 10 22 11 23 12 24 13 26
REMARK SMILES IDX 14 27 15 28
REMARK H PARENT 3 5 19 15 10 25
ROOT
ATOM      1  C   UNL     1      12.850 -22.335 -46.489  1.00  0.00     0.152 C 
ENDROOT
BRANCH   1   2
ATOM      2  N   UNL     1      13.033 -22.051 -47.887  1.00  0.00    -0.347 N 
ATOM      3  O   UNL     1      12.617 -19.796 -47.759  1.00  0.00    -0.267 OA
ATOM      4  C   UNL     1      12.833 -20.801 -48.430  1.00  0.00     0.272 C 
ATOM      5  H   UNL     1      13.073 -22.810 -48.560  1.00  0.00     0.164 HD
BRANCH   4   6
ATOM      6  C   UNL     1      12.888 -20.800 -49.902  1.00  0.00     0.157 A 
ATOM      7  N   UNL     1      12.367 -21.817 -50.625  1.00  0.00    -0.169 NA
ATOM      8  C   UNL     1      13.449 -19.797 -50.746  1.00  0.00     0.033 A 
ATOM      9  N   UNL     1      12.597 -21.454 -51.899  1.00  0.00    -0.277 N 
ATOM     10  C   UNL     1      14.102 -18.563 -50.563  1.00  0.00     0.013 A 
ATOM     11  C   UNL     1      13.242 -20.257 -52.041  1.00  0.00     0.066 A 
ATOM     12  C   UNL     1      14.522 -17.841 -51.686  1.00  0.00     0.001 A 
ATOM     13  C   UNL     1      13.651 -19.554 -53.179  1.00  0.00     0.028 A 
ATOM     14  C   UNL     1      14.298 -18.332 -52.973  1.00  0.00     0.002 A 
ATOM     15  H   UNL     1      12.286 -22.074 -52.639  1.00  0.00     0.190 HD
ENDBRANCH   4   6
ENDBRANCH   1   2
BRANCH   1  16
ATOM     16  C   UNL     1      14.165 -22.635 -45.821  1.00  0.00    -0.027 A 
ATOM     17  C   UNL     1      15.375 -22.448 -46.499  1.00  0.00     0.006 A 
ATOM     18  C   UNL     1      14.193 -23.149 -44.513  1.00  0.00     0.031 A 
ATOM     19  C   UNL     1      16.584 -22.752 -45.875  1.00  0.00     0.002 A 
ATOM     20  C   UNL     1      15.404 -23.461 -43.881  1.00  0.00     0.041 A 
ATOM     21  C   UNL     1      16.598 -23.255 -44.570  1.00  0.00     0.026 A 
BRANCH  20  22
ATOM     22  N   UNL     1      15.329 -23.976 -42.572  1.00  0.00    -0.326 N 
ATOM     23  C   UNL     1      16.075 -23.605 -41.478  1.00  0.00     0.227 C 
ATOM     24  O   UNL     1      16.932 -22.738 -41.406  1.00  0.00    -0.274 OA
ATOM     25  H   UNL     1      14.649 -24.711 -42.419  1.00  0.00     0.169 HD
BRANCH  23  26
ATOM     26  C   UNL     1      15.723 -24.376 -40.252  1.00  0.00     0.079 C 
ATOM     27  C   UNL     1      14.354 -24.266 -39.620  1.00  0.00     0.014 C 
ATOM     28  C   UNL     1      14.739 -25.519 -40.348  1.00  0.00     0.014 C 
ENDBRANCH  23  26
ENDBRANCH  20  22
ENDBRANCH   1  16
TORSDOF 5
ENDMDL
MODEL 6
REMARK VINA RESULT:    -7.957      2.547      3.750
REMARK INTER + INTRA:         -10.553
REMARK INTER:                 -10.043
REMARK INTRA:                  -0.511
REMARK UNBOUND:                -0.270
REMARK SMILES O=C(NCc1cccc(NC(=O)C2CC2)c1)c1n[nH]c2ccccc12
REMARK SMILES IDX 4 1 3 2 1 3 2 4 17 6 18 7 25 8 19 9 24 10 20 11 23 12 21 13
REMARK SMILES IDX 22 14 5 16 6 17 16 18 7 19 9 20 8 21 10 22 11 23 12 24 13 26
REMARK SMILES IDX 14 27 15 28
REMARK H PARENT 3 5 19 15 10 25
ROOT
ATOM      1  C   UNL     1      10.746 -24.646 -46.873  1.00  0.00     0.152 C 
ENDROOT
BRANCH   1   2
ATOM      2  N   UNL     1      12.054 -24.258 -46.419  1.00  0.00    -0.347 N 
ATOM      3  O   UNL     1      11.399 -23.454 -44.371  1.00  0.00    -0.267 OA
ATOM      4  C   UNL     1      12.272 -23.622 -45.217  1.00  0.00     0.272 C 
ATOM      5  H   UNL     1      12.828 -24.214 -47.075  1.00  0.00     0.164 HD
BRANCH   4   6
ATOM      6  C   UNL     1      13.658 -23.150 -45.062  1.00  0.00     0.157 A 
ATOM      7  N   UNL     1      14.275 -22.447 -46.039  1.00  0.00    -0.169 NA
ATOM      8  C   UNL     1      14.514 -23.333 -43.936  1.00  0.00     0.033 A 
ATOM      9  N   UNL     1      15.493 -22.194 -45.530  1.00  0.00    -0.277 N 
ATOM     10  C   UNL     1      14.417 -23.959 -42.678  1.00  0.00     0.013 A 
ATOM     11  C   UNL     1      15.701 -22.697 -44.276  1.00  0.00     0.066 A 
ATOM     12  C   UNL     1      15.518 -23.922 -41.813  1.00  0.00     0.001 A 
ATOM     13  C   UNL     1      16.813 -22.646 -43.430  1.00  0.00     0.028 A 
ATOM     14  C   UNL     1      16.696 -23.275 -42.186  1.00  0.00     0.002 A 
ATOM     15  H   UNL     1      16.149 -21.665 -46.094  1.00  0.00     0.190 HD
ENDBRANCH   4   6
ENDBRANCH   1   2
BRANCH   1  16
ATOM     16  C   UNL     1      10.403 -23.975 -48.177  1.00  0.00    -0.027 A 
ATOM     17  C   UNL     1       9.144 -24.145 -48.763  1.00  0.00     0.006 A 
ATOM     18  C   UNL     1      11.364 -23.197 -48.846  1.00  0.00     0.031 A 
ATOM     19  C   UNL     1       8.850 -23.535 -49.982  1.00  0.00     0.002 A 
ATOM     20  C   UNL     1      11.077 -22.585 -50.073  1.00  0.00     0.041 A 
ATOM     21  C   UNL     1       9.812 -22.757 -50.633  1.00  0.00     0.026 A 
BRANCH  20  22
ATOM     22  N   UNL     1      12.106 -21.830 -50.668  1.00  0.00    -0.326 N 
ATOM     23  C   UNL     1      12.722 -20.707 -50.168  1.00  0.00     0.227 C 
ATOM     24  O   UNL     1      12.529 -20.151 -49.098  1.00  0.00    -0.274 OA
ATOM     25  H   UNL     1      12.425 -22.147 -51.575  1.00  0.00     0.169 HD
BRANCH  23  26
ATOM     26  C   UNL     1      13.769 -20.169 -51.083  1.00  0.00     0.079 C 
ATOM     27  C   UNL     1      13.407 -19.317 -52.279  1.00  0.00     0.014 C 
ATOM     28  C   UNL     1      14.063 -18.686 -51.087  1.00  0.00     0.014 C 
ENDBRANCH  23  26
ENDBRANCH  20  22
ENDBRANCH   1  16
TORSDOF 5
ENDMDL
MODEL 7
REMARK VINA RESULT:    -7.860      3.193      8.914
REMARK INTER + INTRA:         -10.427
REMARK INTER:                  -9.911
REMARK INTRA:                  -0.516
REMARK UNBOUND:                -0.270
REMARK SMILES O=C(NCc1cccc(NC(=O)C2CC2)c1)c1n[nH]c2ccccc12
REMARK SMILES IDX 4 1 3 2 1 3 2 4 17 6 18 7 25 8 19 9 24 10 20 11 23 12 21 13
REMARK SMILES IDX 22 14 5 16 6 17 16 18 7 19 9 20 8 21 10 22 11 23 12 24 13 26
REMARK SMILES IDX 14 27 15 28
REMARK H PARENT 3 5 19 15 10 25
ROOT
ATOM      1  C   UNL     1      15.116 -22.335 -46.131  1.00  0.00     0.152 C 
ENDROOT
BRANCH   1   2
ATOM      2  N   UNL     1      14.239 -22.210 -47.263  1.00  0.00    -0.347 N 
ATOM      3  O   UNL     1      12.290 -21.979 -46.071  1.00  0.00    -0.267 OA
ATOM      4  C   UNL     1      12.870 -22.109 -47.145  1.00  0.00     0.272 C 
ATOM      5  H   UNL     1      14.573 -22.441 -48.194  1.00  0.00     0.164 HD
BRANCH   4   6
ATOM      6  C   UNL     1      12.175 -22.191 -48.440  1.00  0.00     0.157 A 
ATOM      7  N   UNL     1      11.734 -21.079 -49.073  1.00  0.00    -0.169 NA
ATOM      8  C   UNL     1      11.880 -23.366 -49.192  1.00  0.00     0.033 A 
ATOM      9  N   UNL     1      11.177 -21.553 -50.200  1.00  0.00    -0.277 N 
ATOM     10  C   UNL     1      12.089 -24.751 -49.037  1.00  0.00     0.013 A 
ATOM     11  C   UNL     1      11.229 -22.913 -50.333  1.00  0.00     0.066 A 
ATOM     12  C   UNL     1      11.635 -25.624 -50.033  1.00  0.00     0.001 A 
ATOM     13  C   UNL     1      10.768 -23.764 -51.341  1.00  0.00     0.028 A 
ATOM     14  C   UNL     1      10.985 -25.135 -51.166  1.00  0.00     0.002 A 
ATOM     15  H   UNL     1      10.771 -20.890 -50.851  1.00  0.00     0.190 HD
ENDBRANCH   4   6
ENDBRANCH   1   2
BRANCH   1  16
ATOM     16  C   UNL     1      14.926 -23.660 -45.442  1.00  0.00    -0.027 A 
ATOM     17  C   UNL     1      15.231 -24.859 -46.096  1.00  0.00     0.006 A 
ATOM     18  C   UNL     1      14.399 -23.712 -44.140  1.00  0.00     0.031 A 
ATOM     19  C   UNL     1      15.028 -26.080 -45.453  1.00  0.00     0.002 A 
ATOM     20  C   UNL     1      14.188 -24.935 -43.490  1.00  0.00     0.041 A 
ATOM     21  C   UNL     1      14.510 -26.117 -44.155  1.00  0.00     0.026 A 
BRANCH  20  22
ATOM     22  N   UNL     1      13.650 -24.884 -42.189  1.00  0.00    -0.326 N 
ATOM     23  C   UNL     1      14.295 -24.533 -41.026  1.00  0.00     0.227 C 
ATOM     24  O   UNL     1      15.450 -24.165 -40.883  1.00  0.00    -0.274 OA
ATOM     25  H   UNL     1      12.676 -25.144 -42.098  1.00  0.00     0.169 HD
BRANCH  23  26
ATOM     26  C   UNL     1      13.405 -24.601 -39.831  1.00  0.00     0.079 C 
ATOM     27  C   UNL     1      13.754 -25.463 -38.639  1.00  0.00     0.014 C 
ATOM     28  C   UNL     1      13.853 -23.970 -38.533  1.00  0.00     0.014 C 
ENDBRANCH  23  26
ENDBRANCH  20  22
ENDBRANCH   1  16
TORSDOF 5
ENDMDL
MODEL 8
REMARK VINA RESULT:    -7.843      2.048      2.706
REMARK INTER + INTRA:         -10.406
REMARK INTER:                 -10.102
REMARK INTRA:                  -0.304
REMARK UNBOUND:                -0.270
REMARK SMILES O=C(NCc1cccc(NC(=O)C2CC2)c1)c1n[nH]c2ccccc12
REMARK SMILES IDX 4 1 3 2 1 3 2 4 17 6 18 7 25 8 19 9 24 10 20 11 23 12 21 13
REMARK SMILES IDX 22 14 5 16 6 17 16 18 7 19 9 20 8 21 10 22 11 23 12 24 13 26
REMARK SMILES IDX 14 27 15 28
REMARK H PARENT 3 5 19 15 10 25
ROOT
ATOM      1  C   UNL     1      12.655 -20.696 -47.133  1.00  0.00     0.152 C 
ENDROOT
BRANCH   1   2
ATOM      2  N   UNL     1      13.522 -21.620 -46.454  1.00  0.00    -0.347 N 
ATOM      3  O   UNL     1      11.869 -22.981 -45.625  1.00  0.00    -0.267 OA
ATOM      4  C   UNL     1      13.053 -22.663 -45.687  1.00  0.00     0.272 C 
ATOM      5  H   UNL     1      14.501 -21.389 -46.312  1.00  0.00     0.164 HD
BRANCH   4   6
ATOM      6  C   UNL     1      14.119 -23.348 -44.936  1.00  0.00     0.157 A 
ATOM      7  N   UNL     1      15.358 -23.502 -45.456  1.00  0.00    -0.169 NA
ATOM      8  C   UNL     1      14.032 -23.911 -43.629  1.00  0.00     0.033 A 
ATOM      9  N   UNL     1      16.032 -24.148 -44.490  1.00  0.00    -0.277 N 
ATOM     10  C   UNL     1      13.034 -24.043 -42.644  1.00  0.00     0.013 A 
ATOM     11  C   UNL     1      15.298 -24.424 -43.371  1.00  0.00     0.066 A 
ATOM     12  C   UNL     1      13.347 -24.686 -41.440  1.00  0.00     0.001 A 
ATOM     13  C   UNL     1      15.634 -25.069 -42.176  1.00  0.00     0.028 A 
ATOM     14  C   UNL     1      14.628 -25.190 -41.213  1.00  0.00     0.002 A 
ATOM     15  H   UNL     1      17.006 -24.377 -44.655  1.00  0.00     0.190 HD
ENDBRANCH   4   6
ENDBRANCH   1   2
BRANCH   1  16
ATOM     16  C   UNL     1      12.634 -20.962 -48.615  1.00  0.00    -0.027 A 
ATOM     17  C   UNL     1      11.839 -21.982 -49.150  1.00  0.00     0.006 A 
ATOM     18  C   UNL     1      13.448 -20.212 -49.481  1.00  0.00     0.031 A 
ATOM     19  C   UNL     1      11.848 -22.232 -50.522  1.00  0.00     0.002 A 
ATOM     20  C   UNL     1      13.466 -20.460 -50.859  1.00  0.00     0.041 A 
ATOM     21  C   UNL     1      12.657 -21.473 -51.372  1.00  0.00     0.026 A 
BRANCH  20  22
ATOM     22  N   UNL     1      14.319 -19.659 -51.644  1.00  0.00    -0.326 N 
ATOM     23  C   UNL     1      14.028 -19.041 -52.837  1.00  0.00     0.227 C 
ATOM     24  O   UNL     1      12.971 -19.031 -53.447  1.00  0.00    -0.274 OA
ATOM     25  H   UNL     1      15.258 -19.529 -51.290  1.00  0.00     0.169 HD
BRANCH  23  26
ATOM     26  C   UNL     1      15.185 -18.277 -53.386  1.00  0.00     0.079 C 
ATOM     27  C   UNL     1      15.094 -16.790 -53.648  1.00  0.00     0.014 C 
ATOM     28  C   UNL     1      15.916 -17.294 -52.499  1.00  0.00     0.014 C 
ENDBRANCH  23  26
ENDBRANCH  20  22
ENDBRANCH   1  16
TORSDOF 5
ENDMDL
MODEL 9
REMARK VINA RESULT:    -7.783      2.738      4.170
REMARK INTER + INTRA:         -10.328
REMARK INTER:                  -9.552
REMARK INTRA:                  -0.776
REMARK UNBOUND:                -0.270
REMARK SMILES O=C(NCc1cccc(NC(=O)C2CC2)c1)c1n[nH]c2ccccc12
REMARK SMILES IDX 4 1 3 2 1 3 2 4 17 6 18 7 25 8 19 9 24 10 20 11 23 12 21 13
REMARK SMILES IDX 22 14 5 16 6 17 16 18 7 19 9 20 8 21 10 22 11 23 12 24 13 26
REMARK SMILES IDX 14 27 15 28
REMARK H PARENT 3 5 19 15 10 25
ROOT
ATOM      1  C   UNL     1      11.184 -25.820 -45.677  1.00  0.00     0.152 C 
ENDROOT
BRANCH   1   2
ATOM      2  N   UNL     1      12.372 -25.275 -45.076  1.00  0.00    -0.347 N 
ATOM      3  O   UNL     1      11.348 -23.523 -44.001  1.00  0.00    -0.267 OA
ATOM      4  C   UNL     1      12.371 -24.115 -44.333  1.00  0.00     0.272 C 
ATOM      5  H   UNL     1      13.288 -25.586 -45.385  1.00  0.00     0.164 HD
BRANCH   4   6
ATOM      6  C   UNL     1      13.726 -23.652 -43.991  1.00  0.00     0.157 A 
ATOM      7  N   UNL     1      14.159 -23.631 -42.710  1.00  0.00    -0.169 NA
ATOM      8  C   UNL     1      14.736 -23.192 -44.887  1.00  0.00     0.033 A 
ATOM      9  N   UNL     1      15.418 -23.168 -42.805  1.00  0.00    -0.277 N 
ATOM     10  C   UNL     1      14.850 -23.004 -46.278  1.00  0.00     0.013 A 
ATOM     11  C   UNL     1      15.824 -22.886 -44.079  1.00  0.00     0.066 A 
ATOM     12  C   UNL     1      16.052 -22.513 -46.802  1.00  0.00     0.001 A 
ATOM     13  C   UNL     1      17.035 -22.396 -44.579  1.00  0.00     0.028 A 
ATOM     14  C   UNL     1      17.126 -22.215 -45.963  1.00  0.00     0.002 A 
ATOM     15  H   UNL     1      15.958 -23.066 -41.953  1.00  0.00     0.190 HD
ENDBRANCH   4   6
ENDBRANCH   1   2
BRANCH   1  16
ATOM     16  C   UNL     1      10.725 -24.974 -46.834  1.00  0.00    -0.027 A 
ATOM     17  C   UNL     1       9.399 -25.026 -47.279  1.00  0.00     0.006 A 
ATOM     18  C   UNL     1      11.636 -24.147 -47.512  1.00  0.00     0.031 A 
ATOM     19  C   UNL     1       8.994 -24.254 -48.367  1.00  0.00     0.002 A 
ATOM     20  C   UNL     1      11.238 -23.372 -48.609  1.00  0.00     0.041 A 
ATOM     21  C   UNL     1       9.909 -23.429 -49.028  1.00  0.00     0.026 A 
BRANCH  20  22
ATOM     22  N   UNL     1      12.225 -22.579 -49.226  1.00  0.00    -0.326 N 
ATOM     23  C   UNL     1      12.567 -21.280 -48.929  1.00  0.00     0.227 C 
ATOM     24  O   UNL     1      12.111 -20.558 -48.057  1.00  0.00    -0.274 OA
ATOM     25  H   UNL     1      12.739 -23.014 -49.981  1.00  0.00     0.169 HD
BRANCH  23  26
ATOM     26  C   UNL     1      13.660 -20.760 -49.800  1.00  0.00     0.079 C 
ATOM     27  C   UNL     1      13.406 -20.386 -51.243  1.00  0.00     0.014 C 
ATOM     28  C   UNL     1      13.645 -19.310 -50.227  1.00  0.00     0.014 C 
ENDBRANCH  23  26
ENDBRANCH  20  22
ENDBRANCH   1  16
TORSDOF 5
ENDMDL
