REMARK SMILES CC(C)c1cc(C(=O)N2CCc3ccc(S(=O)(=O)NCCc4ccccc4)cc3C2)c(O)c(O)c1O
REMARK SMILES IDX 9 1 10 2 11 3 12 4 13 5 14 6 15 7 28 8 29 9 30 10 7 11 8 12
REMARK SMILES IDX 6 13 4 14 5 15 35 16 33 17 31 18 2 19 1 20 3 21 36 22 34 24
REMARK SMILES IDX 32 26 16 28 17 29 18 30 19 31 20 33 21 34 22 35 23 36 27 37
REMARK SMILES IDX 24 38 26 39 25 40
REMARK H PARENT 36 23 34 25 32 27 19 32
ROOT
ATOM      1  N   UNL     1       0.649   0.540   2.264  1.00  0.00    -0.334 N 
ATOM      2  C   UNL     1      -0.007   1.155   3.413  1.00  0.00     0.125 C 
ATOM      3  C   UNL     1      -1.464   1.485   3.087  1.00  0.00     0.057 C 
ATOM      4  C   UNL     1      -2.175   0.371   2.354  1.00  0.00    -0.041 A 
ATOM      5  C   UNL     1      -3.572   0.411   2.226  1.00  0.00     0.005 A 
ATOM      6  C   UNL     1      -4.242  -0.570   1.497  1.00  0.00     0.022 A 
ATOM      7  C   UNL     1      -3.513  -1.592   0.887  1.00  0.00     0.082 A 
ATOM      8  C   UNL     1      -2.124  -1.659   1.023  1.00  0.00     0.027 A 
ATOM      9  C   UNL     1      -1.442  -0.663   1.737  1.00  0.00    -0.024 A 
ATOM     10  C   UNL     1       0.060  -0.741   1.870  1.00  0.00     0.155 C 
ENDROOT
BRANCH   1  11
ATOM     11  C   UNL     1       2.001   0.807   2.065  1.00  0.00     0.258 C 
ATOM     12  O   UNL     1       2.713   1.370   2.897  1.00  0.00    -0.269 OA
BRANCH  11  13
ATOM     13  C   UNL     1       2.637   0.425   0.780  1.00  0.00     0.086 A 
ATOM     14  C   UNL     1       2.509   0.119  -1.655  1.00  0.00     0.001 A 
ATOM     15  C   UNL     1       1.922   0.498  -0.430  1.00  0.00     0.025 A 
ATOM     16  C   UNL     1       3.842  -0.305  -1.631  1.00  0.00     0.164 A 
ATOM     17  C   UNL     1       4.568  -0.329  -0.440  1.00  0.00     0.201 A 
ATOM     18  C   UNL     1       3.982   0.049   0.761  1.00  0.00     0.174 A 
BRANCH  14  19
ATOM     19  C   UNL     1       1.712   0.156  -2.948  1.00  0.00     0.017 C 
ATOM     20  C   UNL     1       0.581  -0.877  -2.923  1.00  0.00     0.012 C 
ATOM     21  C   UNL     1       1.164   1.556  -3.243  1.00  0.00     0.012 C 
ENDBRANCH  14  19
BRANCH  16  22
ATOM     22  O   UNL     1       4.470  -0.696  -2.781  1.00  0.00    -0.504 OA
ATOM     23  H   UNL     1       5.381  -0.924  -2.503  1.00  0.00     0.293 HD
ENDBRANCH  16  22
BRANCH  17  24
ATOM     24  O   UNL     1       5.879  -0.726  -0.475  1.00  0.00    -0.502 OA
ATOM     25  H   UNL     1       6.178  -0.650   0.456  1.00  0.00     0.293 HD
ENDBRANCH  17  24
BRANCH  18  26
ATOM     26  O   UNL     1       4.783   0.035   1.875  1.00  0.00    -0.504 OA
ATOM     27  H   UNL     1       4.315   0.549   2.574  1.00  0.00     0.293 HD
ENDBRANCH  18  26
ENDBRANCH  11  13
ENDBRANCH   1  11
BRANCH   7  28
ATOM     28  S   UNL     1      -4.376  -2.822  -0.065  1.00  0.00     0.240 S 
ATOM     29  O   UNL     1      -3.453  -3.894  -0.364  1.00  0.00    -0.207 OA
ATOM     30  O   UNL     1      -5.647  -3.055   0.583  1.00  0.00    -0.207 OA
BRANCH  28  31
ATOM     31  N   UNL     1      -4.699  -1.994  -1.498  1.00  0.00    -0.211 NA
ATOM     32  H   UNL     1      -5.390  -1.258  -1.347  1.00  0.00     0.141 HD
BRANCH  31  33
ATOM     33  C   UNL     1      -3.559  -1.655  -2.372  1.00  0.00     0.103 C 
BRANCH  33  34
ATOM     34  C   UNL     1      -3.878  -0.429  -3.234  1.00  0.00     0.052 C 
BRANCH  34  35
ATOM     35  C   UNL     1      -4.074   0.829  -2.416  1.00  0.00    -0.047 A 
ATOM     36  C   UNL     1      -5.340   1.424  -2.322  1.00  0.00     0.004 A 
ATOM     37  C   UNL     1      -2.999   1.410  -1.729  1.00  0.00     0.004 A 
ATOM     38  C   UNL     1      -5.528   2.567  -1.544  1.00  0.00     0.000 A 
ATOM     39  C   UNL     1      -3.189   2.553  -0.951  1.00  0.00     0.000 A 
ATOM     40  C   UNL     1      -4.454   3.130  -0.857  1.00  0.00     0.000 A 
ENDBRANCH  34  35
ENDBRANCH  33  34
ENDBRANCH  31  33
ENDBRANCH  28  31
ENDBRANCH   7  28
TORSDOF 11
