REMARK SMILES CO[C@@H]1CN(c2c(F)cc3c(=O)c(C(=O)[O-])cn(C4CC4)c3c2Cl)C[C@@H]1[NH3+]
REMARK SMILES IDX 6 1 7 2 8 3 9 4 10 5 11 6 12 7 13 8 17 9 18 10 22 11 23 12
REMARK SMILES IDX 24 13 5 14 3 15 4 16 26 17 25 18 2 19 1 20 27 21 19 25 20 26
REMARK SMILES IDX 21 27 14 28 15 29 16 30
REMARK H PARENT 27 22 27 23 27 24
ROOT
ATOM      1  C   UNL     1       0.367   0.978   1.366  1.00  0.00     0.094 A 
ATOM      2  C   UNL     1      -0.596   1.732   2.074  1.00  0.00     0.148 A 
ATOM      3  F   UNL     1      -0.348   3.002   2.435  1.00  0.00    -0.205 F 
ATOM      4  C   UNL     1      -1.830   1.223   2.440  1.00  0.00     0.056 A 
ATOM      5  C   UNL     1      -2.172  -0.081   2.092  1.00  0.00     0.051 A 
ATOM      6  C   UNL     1      -3.512  -0.573   2.507  1.00  0.00     0.198 C 
ATOM      7  O   UNL     1      -4.324   0.229   2.955  1.00  0.00    -0.288 OA
ATOM      8  C   UNL     1      -3.780  -2.000   2.312  1.00  0.00     0.062 C 
ATOM      9  C   UNL     1      -2.909  -2.704   1.582  1.00  0.00     0.100 C 
ATOM     10  N   UNL     1      -1.740  -2.221   1.022  1.00  0.00    -0.342 N 
ATOM     11  C   UNL     1      -1.279  -0.915   1.384  1.00  0.00     0.073 A 
ATOM     12  C   UNL     1       0.016  -0.389   1.109  1.00  0.00     0.091 A 
ATOM     13  Cl  UNL     1       1.308  -1.491   0.677  1.00  0.00    -0.080 Cl
ENDROOT
BRANCH   1  14
ATOM     14  N   UNL     1       1.602   1.538   0.983  1.00  0.00    -0.359 N 
ATOM     15  C   UNL     1       2.928   2.556  -0.753  1.00  0.00     0.196 C 
ATOM     16  C   UNL     1       2.107   1.297  -0.387  1.00  0.00     0.155 C 
ATOM     17  C   UNL     1       3.285   3.135   0.625  1.00  0.00     0.231 C 
ATOM     18  C   UNL     1       2.005   2.867   1.427  1.00  0.00     0.184 C 
BRANCH  15  19
ATOM     19  O   UNL     1       2.190   3.584  -1.448  1.00  0.00    -0.373 OA
ATOM     20  C   UNL     1       1.875   3.231  -2.796  1.00  0.00     0.195 C 
ENDBRANCH  15  19
BRANCH  17  21
ATOM     21  N   UNL     1       3.548   4.600   0.496  1.00  0.00    -0.351 N 
ATOM     22  H   UNL     1       4.464   4.792   0.077  1.00  0.00     0.344 HD
ATOM     23  H   UNL     1       3.465   5.107   1.384  1.00  0.00     0.344 HD
ATOM     24  H   UNL     1       2.838   4.970  -0.163  1.00  0.00     0.344 HD
ENDBRANCH  17  21
ENDBRANCH   1  14
BRANCH  10  25
ATOM     25  C   UNL     1      -1.183  -3.013  -0.093  1.00  0.00     0.087 C 
ATOM     26  C   UNL     1      -1.028  -2.448  -1.486  1.00  0.00     0.027 C 
ATOM     27  C   UNL     1      -2.055  -3.502  -1.229  1.00  0.00     0.027 C 
ENDBRANCH  10  25
BRANCH   8  28
ATOM     28  C   UNL     1      -4.997  -2.693   2.875  1.00  0.00     0.077 C 
ATOM     29  O   UNL     1      -5.715  -3.289   2.018  1.00  0.00    -0.545 OA
ATOM     30  O   UNL     1      -5.096  -2.677   4.133  1.00  0.00    -0.545 OA
ENDBRANCH   8  28
TORSDOF 5
