REMARK SMILES CCCCc1cc(=O)oc2cc(OCC(=O)NCC(=O)NCC(=O)[O-])ccc12
REMARK SMILES IDX 14 1 13 2 12 3 5 4 6 5 28 6 7 7 27 8 10 9 8 10 9 11 26 12
REMARK SMILES IDX 11 13 4 14 3 15 2 16 1 17 15 18 16 19 17 20 18 22 19 23
REMARK SMILES IDX 20 24 21 25 22 27 23 28 24 29 25 30
REMARK H PARENT 17 21 21 26
ROOT
ATOM      1  C   UNL     1      -0.760   0.487  -1.777  1.00  0.00     0.329 C 
ENDROOT
BRANCH   1   2
ATOM      2  O   UNL     1      -0.360   1.233  -0.632  1.00  0.00    -0.484 OA
BRANCH   2   3
ATOM      3  C   UNL     1      -0.220   0.549   0.541  1.00  0.00     0.123 A 
ATOM      4  C   UNL     1       0.349  -1.251   4.409  1.00  0.00    -0.030 C 
ATOM      5  C   UNL     1       0.054  -2.558   4.497  1.00  0.00     0.098 C 
ATOM      6  C   UNL     1       0.164  -0.590   3.108  1.00  0.00     0.021 A 
ATOM      7  C   UNL     1      -0.395  -3.374   3.360  1.00  0.00     0.336 C 
ATOM      8  C   UNL     1       0.373   0.776   2.892  1.00  0.00     0.016 A 
ATOM      9  C   UNL     1      -0.251  -1.355   2.014  1.00  0.00     0.142 A 
ATOM     10  O   UNL     1      -0.638  -4.566   3.513  1.00  0.00    -0.246 OA
ATOM     11  O   UNL     1      -0.512  -2.735   2.141  1.00  0.00    -0.423 OA
ATOM     12  C   UNL     1       0.185   1.335   1.622  1.00  0.00     0.047 A 
ATOM     13  C   UNL     1      -0.444  -0.809   0.739  1.00  0.00     0.094 A 
BRANCH   4  14
ATOM     14  C   UNL     1       0.813  -0.485   5.623  1.00  0.00     0.036 C 
BRANCH  14  15
ATOM     15  C   UNL     1       2.306  -0.116   5.657  1.00  0.00     0.004 C 
BRANCH  15  16
ATOM     16  C   UNL     1       3.266  -1.307   5.752  1.00  0.00    -0.003 C 
ATOM     17  C   UNL     1       3.711  -1.842   4.399  1.00  0.00     0.004 C 
ENDBRANCH  15  16
ENDBRANCH  14  15
ENDBRANCH   4  14
ENDBRANCH   2   3
ENDBRANCH   1   2
BRANCH   1  18
ATOM     18  C   UNL     1      -0.855   1.397  -3.007  1.00  0.00     0.258 C 
ATOM     19  O   UNL     1      -0.669   2.611  -2.992  1.00  0.00    -0.271 OA
ATOM     20  N   UNL     1      -1.164   0.706  -4.154  1.00  0.00    -0.344 N 
ATOM     21  H   UNL     1      -1.519  -0.264  -4.039  1.00  0.00     0.164 HD
BRANCH  20  22
ATOM     22  C   UNL     1      -1.471   1.370  -5.410  1.00  0.00     0.216 C 
BRANCH  22  23
ATOM     23  C   UNL     1      -1.622   0.334  -6.529  1.00  0.00     0.239 C 
ATOM     24  O   UNL     1      -2.352   0.510  -7.502  1.00  0.00    -0.273 OA
ATOM     25  N   UNL     1      -0.773  -0.755  -6.392  1.00  0.00    -0.349 N 
ATOM     26  H   UNL     1      -0.245  -0.712  -5.525  1.00  0.00     0.163 HD
BRANCH  25  27
ATOM     27  C   UNL     1      -1.374  -2.093  -6.524  1.00  0.00     0.168 C 
BRANCH  27  28
ATOM     28  C   UNL     1      -1.954  -2.617  -5.173  1.00  0.00     0.061 C 
ATOM     29  O   UNL     1      -2.532  -3.735  -5.216  1.00  0.00    -0.548 OA
ATOM     30  O   UNL     1      -1.749  -1.845  -4.177  1.00  0.00    -0.548 OA
ENDBRANCH  27  28
ENDBRANCH  25  27
ENDBRANCH  22  23
ENDBRANCH  20  22
ENDBRANCH   1  18
TORSDOF 10
