REMARK SMILES Cc1[nH]c2ccc(C(=O)OCC(=O)NC(=O)c3ccc[nH]3)cc2c1C
REMARK SMILES IDX 10 1 8 2 9 3 7 4 2 5 3 6 24 7 4 8 23 9 5 10 22 11 6 12 1 13
REMARK SMILES IDX 25 15 11 16 12 17 13 18 14 19 15 20 16 21 17 23 18 24 21 25
REMARK SMILES IDX 19 26 20 27
REMARK H PARENT 3 14 14 22 21 28
ROOT
ATOM      1  O   UNL     1       2.100   1.453  -2.248  1.00  0.00    -0.452 OA
ENDROOT
BRANCH   1   2
ATOM      2  C   UNL     1       1.549   0.653  -1.304  1.00  0.00     0.338 C 
ATOM      3  O   UNL     1       2.179  -0.087  -0.558  1.00  0.00    -0.246 OA
BRANCH   2   4
ATOM      4  C   UNL     1       0.069   0.792  -1.278  1.00  0.00     0.060 A 
ATOM      5  C   UNL     1      -4.293  -0.142  -0.040  1.00  0.00     0.016 A 
ATOM      6  N   UNL     1      -4.041   0.879  -0.922  1.00  0.00    -0.358 N 
ATOM      7  C   UNL     1      -3.078  -0.706   0.312  1.00  0.00    -0.023 A 
ATOM      8  C   UNL     1      -2.691   0.991  -1.159  1.00  0.00     0.046 A 
ATOM      9  C   UNL     1      -2.061   0.010  -0.398  1.00  0.00     0.003 A 
ATOM     10  C   UNL     1      -1.993   1.883  -1.981  1.00  0.00     0.027 A 
ATOM     11  C   UNL     1      -0.655  -0.091  -0.459  1.00  0.00     0.026 A 
ATOM     12  C   UNL     1      -0.599   1.767  -2.028  1.00  0.00     0.018 A 
ATOM     13  C   UNL     1      -5.678  -0.476   0.384  1.00  0.00     0.064 C 
ATOM     14  H   UNL     1      -4.744   1.470  -1.344  1.00  0.00     0.166 HD
ATOM     15  C   UNL     1      -2.853  -1.843   1.246  1.00  0.00     0.047 C 
ENDBRANCH   2   4
ENDBRANCH   1   2
BRANCH   1  16
ATOM     16  C   UNL     1       3.520   1.376  -2.386  1.00  0.00     0.333 C 
BRANCH  16  17
ATOM     17  C   UNL     1       4.297   1.984  -1.213  1.00  0.00     0.264 C 
ATOM     18  O   UNL     1       4.637   3.162  -1.221  1.00  0.00    -0.271 OA
ATOM     19  N   UNL     1       4.541   1.067  -0.208  1.00  0.00    -0.288 N 
ATOM     20  C   UNL     1       5.009   1.433   1.036  1.00  0.00     0.274 C 
ATOM     21  O   UNL     1       5.922   2.237   1.196  1.00  0.00    -0.267 OA
ATOM     22  H   UNL     1       3.934   0.258  -0.240  1.00  0.00     0.173 HD
BRANCH  20  23
ATOM     23  C   UNL     1       4.441   0.678   2.145  1.00  0.00     0.104 A 
ATOM     24  C   UNL     1       4.925   0.612   3.444  1.00  0.00     0.033 A 
ATOM     25  N   UNL     1       3.289  -0.085   2.126  1.00  0.00    -0.357 N 
ATOM     26  C   UNL     1       4.070  -0.222   4.201  1.00  0.00     0.020 A 
ATOM     27  C   UNL     1       3.067  -0.640   3.360  1.00  0.00     0.083 A 
ATOM     28  H   UNL     1       2.677  -0.208   1.326  1.00  0.00     0.166 HD
ENDBRANCH  20  23
ENDBRANCH  16  17
ENDBRANCH   1  16
TORSDOF 5
