REMARK SMILES O=C(CN1C(=O)[C@@H]2CC=CC[C@H]2C1=O)NNC(=O)c1n[nH]c(=O)c2ccccc12
REMARK SMILES IDX 1 1 2 2 15 3 3 5 4 6 5 7 13 8 6 9 7 10 12 11 14 12 8 13
REMARK SMILES IDX 11 14 9 15 10 16 16 17 17 18 18 19 19 21 20 22 29 23 21 24
REMARK SMILES IDX 28 25 24 26 22 27 27 28 25 29 23 30 26 31
REMARK H PARENT 15 4 16 20 21 32
ROOT
ATOM      1  O   UNL     1      -2.743  -2.239   0.411  1.00  0.00    -0.271 OA
ATOM      2  C   UNL     1      -2.437  -1.317   1.164  1.00  0.00     0.258 C 
ATOM      3  N   UNL     1      -2.625   0.019   0.830  1.00  0.00    -0.266 N 
ATOM      4  H   UNL     1      -2.149   0.731   1.396  1.00  0.00     0.191 HD
ENDROOT
BRANCH   2   5
ATOM      5  C   UNL     1      -1.822  -1.535   2.542  1.00  0.00     0.230 C 
BRANCH   5   6
ATOM      6  N   UNL     1      -0.453  -1.057   2.516  1.00  0.00    -0.272 N 
ATOM      7  C   UNL     1      -0.102   0.262   2.681  1.00  0.00     0.233 C 
ATOM      8  C   UNL     1       0.636  -1.849   2.234  1.00  0.00     0.233 C 
ATOM      9  O   UNL     1      -0.872   1.205   2.761  1.00  0.00    -0.274 OA
ATOM     10  C   UNL     1       1.391   0.290   2.801  1.00  0.00     0.095 C 
ATOM     11  C   UNL     1       1.768  -0.907   1.939  1.00  0.00     0.095 C 
ATOM     12  O   UNL     1       0.674  -3.064   2.167  1.00  0.00    -0.274 OA
ATOM     13  C   UNL     1       2.160   1.515   2.352  1.00  0.00     0.041 C 
ATOM     14  C   UNL     1       3.194  -1.327   2.229  1.00  0.00     0.041 C 
ATOM     15  C   UNL     1       3.628   1.162   2.226  1.00  0.00    -0.030 C 
ATOM     16  C   UNL     1       4.091  -0.105   2.203  1.00  0.00    -0.030 C 
ENDBRANCH   5   6
ENDBRANCH   2   5
BRANCH   3  17
ATOM     17  N   UNL     1      -2.666   0.309  -0.555  1.00  0.00    -0.262 N 
ATOM     18  C   UNL     1      -1.456   0.628  -1.150  1.00  0.00     0.290 C 
ATOM     19  O   UNL     1      -0.418   0.887  -0.556  1.00  0.00    -0.266 OA
ATOM     20  H   UNL     1      -3.285  -0.287  -1.110  1.00  0.00     0.191 HD
BRANCH  18  21
ATOM     21  C   UNL     1      -1.515   0.596  -2.672  1.00  0.00     0.158 C 
ATOM     22  N   UNL     1      -2.162  -0.409  -3.191  1.00  0.00    -0.166 NA
ATOM     23  C   UNL     1      -0.885   1.665  -3.472  1.00  0.00     0.021 A 
ATOM     24  N   UNL     1      -2.237  -0.488  -4.549  1.00  0.00    -0.242 N 
ATOM     25  C   UNL     1      -0.239   2.774  -2.914  1.00  0.00     0.011 A 
ATOM     26  C   UNL     1      -0.971   1.547  -4.858  1.00  0.00     0.051 A 
ATOM     27  C   UNL     1      -1.680   0.395  -5.442  1.00  0.00     0.272 C 
ATOM     28  C   UNL     1       0.327   3.745  -3.747  1.00  0.00     0.001 A 
ATOM     29  C   UNL     1      -0.404   2.518  -5.693  1.00  0.00     0.014 A 
ATOM     30  O   UNL     1      -1.769   0.247  -6.655  1.00  0.00    -0.267 OA
ATOM     31  C   UNL     1       0.247   3.617  -5.133  1.00  0.00     0.001 A 
ATOM     32  H   UNL     1      -2.720  -1.295  -4.934  1.00  0.00     0.194 HD
ENDBRANCH  18  21
ENDBRANCH   3  17
TORSDOF 4
