REMARK SMILES CC1=CC(=O)CC(C)(C)[C@@H]1CC[C@H](C)O[C@@H]1O[C@H](CO)[C@@H](O)[C@H](O)[C@H]1O
REMARK SMILES IDX 13 1 14 2 12 3 11 4 10 5 2 6 3 7 4 8 7 9 5 10 6 11 1 12 8 13
REMARK SMILES IDX 9 14 15 15 16 16 17 17 25 18 18 19 23 20 21 21 26 22 19 24
REMARK SMILES IDX 20 25 24 27 22 29
REMARK H PARENT 26 23 20 26 24 28 22 30
ROOT
ATOM      1  C   UNL     1      -1.082   1.031   0.563  1.00  0.00     0.118 C 
ATOM      2  C   UNL     1      -2.012   1.755   1.534  1.00  0.00     0.038 C 
ENDROOT
BRANCH   1   3
ATOM      3  C   UNL     1       0.069   1.961   0.141  1.00  0.00     0.032 C 
BRANCH   3   4
ATOM      4  C   UNL     1       0.983   1.298  -0.906  1.00  0.00     0.011 C 
BRANCH   4   5
ATOM      5  C   UNL     1       2.168   2.204  -1.355  1.00  0.00     0.021 C 
ATOM      6  C   UNL     1       1.833   3.090  -2.569  1.00  0.00    -0.066 C 
ATOM      7  C   UNL     1       2.731   3.387  -3.525  1.00  0.00     0.046 C 
ATOM      8  C   UNL     1       4.139   2.946  -3.439  1.00  0.00     0.156 C 
ATOM      9  C   UNL     1       3.482   1.360  -1.584  1.00  0.00    -0.022 C 
ATOM     10  O   UNL     1       4.913   3.211  -4.355  1.00  0.00    -0.295 OA
ATOM     11  C   UNL     1       4.586   2.262  -2.175  1.00  0.00     0.087 C 
ATOM     12  C   UNL     1       0.464   3.709  -2.668  1.00  0.00     0.040 C 
ATOM     13  C   UNL     1       4.020   0.819  -0.238  1.00  0.00     0.012 C 
ATOM     14  C   UNL     1       3.252   0.156  -2.528  1.00  0.00     0.012 C 
ENDBRANCH   4   5
ENDBRANCH   3   4
ENDBRANCH   1   3
BRANCH   1  15
ATOM     15  O   UNL     1      -0.499  -0.122   1.172  1.00  0.00    -0.347 OA
BRANCH  15  16
ATOM     16  C   UNL     1      -1.396  -1.222   1.343  1.00  0.00     0.282 C 
ATOM     17  O   UNL     1      -1.983  -1.126   2.644  1.00  0.00    -0.341 OA
ATOM     18  C   UNL     1      -0.580  -2.523   1.201  1.00  0.00     0.202 C 
ATOM     19  C   UNL     1      -2.869  -2.215   2.943  1.00  0.00     0.178 C 
ATOM     20  C   UNL     1      -1.441  -3.729   1.575  1.00  0.00     0.179 C 
ATOM     21  C   UNL     1      -2.102  -3.543   2.942  1.00  0.00     0.177 C 
BRANCH  18  22
ATOM     22  O   UNL     1      -0.114  -2.704  -0.148  1.00  0.00    -0.385 OA
ATOM     23  H   UNL     1       0.308  -3.586  -0.152  1.00  0.00     0.211 HD
ENDBRANCH  18  22
BRANCH  19  24
ATOM     24  C   UNL     1      -3.490  -1.920   4.311  1.00  0.00     0.191 C 
BRANCH  24  25
ATOM     25  O   UNL     1      -4.168  -0.664   4.270  1.00  0.00    -0.394 OA
ATOM     26  H   UNL     1      -3.522  -0.031   3.899  1.00  0.00     0.210 HD
ENDBRANCH  24  25
ENDBRANCH  19  24
BRANCH  20  27
ATOM     27  O   UNL     1      -0.623  -4.911   1.583  1.00  0.00    -0.387 OA
ATOM     28  H   UNL     1      -1.205  -5.622   1.917  1.00  0.00     0.211 HD
ENDBRANCH  20  27
BRANCH  21  29
ATOM     29  O   UNL     1      -2.955  -4.668   3.170  1.00  0.00    -0.387 OA
ATOM     30  H   UNL     1      -3.151  -4.713   4.123  1.00  0.00     0.211 HD
ENDBRANCH  21  29
ENDBRANCH  15  16
ENDBRANCH   1  15
TORSDOF 10
