MODEL 1
REMARK VINA RESULT:    -7.989      0.000      0.000
REMARK INTER + INTRA:         -10.263
REMARK INTER:                 -10.091
REMARK INTRA:                  -0.172
REMARK UNBOUND:                -0.172
REMARK SMILES NS(=O)(=O)c1ccc(Nc2nc(-c3ccccn3)cs2)cc1
REMARK SMILES IDX 5 1 6 2 7 3 8 4 21 5 22 6 2 7 3 8 4 9 1 10 9 13 10 15 11 16
REMARK SMILES IDX 20 17 12 18 19 19 13 20 14 21 18 22 15 23 17 24 16 25
REMARK H PARENT 1 11 1 12 9 14
ROOT
ATOM      1  C   UNL     1      16.019 -23.053 -44.259  1.00  0.00     0.082 A 
ATOM      2  C   UNL     1      14.752 -23.331 -43.747  1.00  0.00     0.024 A 
ATOM      3  C   UNL     1      13.627 -23.119 -44.549  1.00  0.00     0.027 A 
ATOM      4  C   UNL     1      13.741 -22.621 -45.861  1.00  0.00     0.040 A 
ATOM      5  C   UNL     1      15.027 -22.347 -46.344  1.00  0.00     0.027 A 
ATOM      6  C   UNL     1      16.163 -22.550 -45.550  1.00  0.00     0.024 A 
ENDROOT
BRANCH   1   7
ATOM      7  S   UNL     1      17.448 -23.319 -43.247  1.00  0.00     0.238 S 
ATOM      8  O   UNL     1      17.203 -22.745 -41.943  1.00  0.00    -0.207 OA
ATOM      9  O   UNL     1      17.891 -24.680 -43.427  1.00  0.00    -0.207 OA
BRANCH   7  10
ATOM     10  N   UNL     1      18.573 -22.305 -43.984  1.00  0.00    -0.225 NA
ATOM     11  H   UNL     1      18.807 -21.549 -43.338  1.00  0.00     0.137 HD
ATOM     12  H   UNL     1      18.262 -21.949 -44.887  1.00  0.00     0.137 HD
ENDBRANCH   7  10
ENDBRANCH   1   7
BRANCH   4  13
ATOM     13  N   UNL     1      12.564 -22.464 -46.616  1.00  0.00    -0.332 N 
ATOM     14  H   UNL     1      11.710 -22.543 -46.079  1.00  0.00     0.169 HD
BRANCH  13  15
ATOM     15  C   UNL     1      12.413 -22.154 -47.925  1.00  0.00     0.187 A 
ATOM     16  N   UNL     1      13.097 -21.280 -48.630  1.00  0.00    -0.218 NA
ATOM     17  S   UNL     1      11.198 -22.995 -48.829  1.00  0.00    -0.105 S 
ATOM     18  C   UNL     1      12.657 -21.246 -49.948  1.00  0.00     0.102 A 
ATOM     19  C   UNL     1      11.625 -22.118 -50.232  1.00  0.00     0.099 A 
BRANCH  18  20
ATOM     20  C   UNL     1      13.247 -20.353 -50.944  1.00  0.00     0.090 A 
ATOM     21  C   UNL     1      13.700 -19.088 -50.578  1.00  0.00     0.031 A 
ATOM     22  N   UNL     1      13.328 -20.818 -52.219  1.00  0.00    -0.255 NA
ATOM     23  C   UNL     1      14.256 -18.264 -51.553  1.00  0.00     0.004 A 
ATOM     24  C   UNL     1      13.873 -19.995 -53.141  1.00  0.00     0.112 A 
ATOM     25  C   UNL     1      14.346 -18.724 -52.861  1.00  0.00     0.020 A 
ENDBRANCH  18  20
ENDBRANCH  13  15
ENDBRANCH   4  13
TORSDOF 5
ENDMDL
MODEL 2
REMARK VINA RESULT:    -7.591      4.077      8.900
REMARK INTER + INTRA:          -9.760
REMARK INTER:                  -9.331
REMARK INTRA:                  -0.429
REMARK UNBOUND:                -0.172
REMARK SMILES NS(=O)(=O)c1ccc(Nc2nc(-c3ccccn3)cs2)cc1
REMARK SMILES IDX 5 1 6 2 7 3 8 4 21 5 22 6 2 7 3 8 4 9 1 10 9 13 10 15 11 16
REMARK SMILES IDX 20 17 12 18 19 19 13 20 14 21 18 22 15 23 17 24 16 25
REMARK H PARENT 1 11 1 12 9 14
ROOT
ATOM      1  C   UNL     1      13.632 -21.799 -48.646  1.00  0.00     0.082 A 
ATOM      2  C   UNL     1      14.876 -21.674 -48.028  1.00  0.00     0.024 A 
ATOM      3  C   UNL     1      15.329 -22.695 -47.187  1.00  0.00     0.027 A 
ATOM      4  C   UNL     1      14.553 -23.844 -46.939  1.00  0.00     0.040 A 
ATOM      5  C   UNL     1      13.306 -23.936 -47.571  1.00  0.00     0.027 A 
ATOM      6  C   UNL     1      12.838 -22.919 -48.413  1.00  0.00     0.024 A 
ENDROOT
BRANCH   1   7
ATOM      7  S   UNL     1      13.053 -20.508 -49.712  1.00  0.00     0.238 S 
ATOM      8  O   UNL     1      11.729 -20.854 -50.178  1.00  0.00    -0.207 OA
ATOM      9  O   UNL     1      13.355 -19.237 -49.100  1.00  0.00    -0.207 OA
BRANCH   7  10
ATOM     10  N   UNL     1      14.066 -20.696 -51.045  1.00  0.00    -0.225 NA
ATOM     11  H   UNL     1      13.592 -21.279 -51.737  1.00  0.00     0.137 HD
ATOM     12  H   UNL     1      14.984 -21.066 -50.802  1.00  0.00     0.137 HD
ENDBRANCH   7  10
ENDBRANCH   1   7
BRANCH   4  13
ATOM     13  N   UNL     1      15.091 -24.840 -46.105  1.00  0.00    -0.332 N 
ATOM     14  H   UNL     1      15.224 -25.736 -46.557  1.00  0.00     0.169 HD
BRANCH  13  15
ATOM     15  C   UNL     1      15.516 -24.756 -44.822  1.00  0.00     0.187 A 
ATOM     16  N   UNL     1      14.782 -24.701 -43.732  1.00  0.00    -0.218 NA
ATOM     17  S   UNL     1      17.223 -24.732 -44.527  1.00  0.00    -0.105 S 
ATOM     18  C   UNL     1      15.579 -24.628 -42.596  1.00  0.00     0.102 A 
ATOM     19  C   UNL     1      16.937 -24.633 -42.845  1.00  0.00     0.099 A 
BRANCH  18  20
ATOM     20  C   UNL     1      15.012 -24.551 -41.250  1.00  0.00     0.090 A 
ATOM     21  C   UNL     1      13.648 -24.340 -41.070  1.00  0.00     0.031 A 
ATOM     22  N   UNL     1      15.873 -24.695 -40.209  1.00  0.00    -0.255 NA
ATOM     23  C   UNL     1      13.142 -24.271 -39.775  1.00  0.00     0.004 A 
ATOM     24  C   UNL     1      15.352 -24.624 -38.964  1.00  0.00     0.112 A 
ATOM     25  C   UNL     1      14.009 -24.416 -38.699  1.00  0.00     0.020 A 
ENDBRANCH  18  20
ENDBRANCH  13  15
ENDBRANCH   4  13
TORSDOF 5
ENDMDL
MODEL 3
REMARK VINA RESULT:    -7.547      4.685      7.883
REMARK INTER + INTRA:          -9.704
REMARK INTER:                  -9.320
REMARK INTRA:                  -0.385
REMARK UNBOUND:                -0.172
REMARK SMILES NS(=O)(=O)c1ccc(Nc2nc(-c3ccccn3)cs2)cc1
REMARK SMILES IDX 5 1 6 2 7 3 8 4 21 5 22 6 2 7 3 8 4 9 1 10 9 13 10 15 11 16
REMARK SMILES IDX 20 17 12 18 19 19 13 20 14 21 18 22 15 23 17 24 16 25
REMARK H PARENT 1 11 1 12 9 14
ROOT
ATOM      1  C   UNL     1      15.367 -18.152 -52.633  1.00  0.00     0.082 A 
ATOM      2  C   UNL     1      14.726 -17.808 -51.444  1.00  0.00     0.024 A 
ATOM      3  C   UNL     1      13.771 -18.674 -50.903  1.00  0.00     0.027 A 
ATOM      4  C   UNL     1      13.433 -19.885 -51.537  1.00  0.00     0.040 A 
ATOM      5  C   UNL     1      14.091 -20.199 -52.733  1.00  0.00     0.027 A 
ATOM      6  C   UNL     1      15.047 -19.339 -53.288  1.00  0.00     0.024 A 
ENDROOT
BRANCH   1   7
ATOM      7  S   UNL     1      16.578 -17.058 -53.322  1.00  0.00     0.238 S 
ATOM      8  O   UNL     1      17.597 -17.849 -53.973  1.00  0.00    -0.207 OA
ATOM      9  O   UNL     1      15.893 -15.974 -53.984  1.00  0.00    -0.207 OA
BRANCH   7  10
ATOM     10  N   UNL     1      17.302 -16.442 -51.932  1.00  0.00    -0.225 NA
ATOM     11  H   UNL     1      16.648 -15.802 -51.477  1.00  0.00     0.137 HD
ATOM     12  H   UNL     1      18.203 -15.999 -52.111  1.00  0.00     0.137 HD
ENDBRANCH   7  10
ENDBRANCH   1   7
BRANCH   4  13
ATOM     13  N   UNL     1      12.485 -20.717 -50.916  1.00  0.00    -0.332 N 
ATOM     14  H   UNL     1      11.628 -20.839 -51.442  1.00  0.00     0.169 HD
BRANCH  13  15
ATOM     15  C   UNL     1      12.580 -21.426 -49.766  1.00  0.00     0.187 A 
ATOM     16  N   UNL     1      13.579 -21.445 -48.912  1.00  0.00    -0.218 NA
ATOM     17  S   UNL     1      11.242 -22.430 -49.312  1.00  0.00    -0.105 S 
ATOM     18  C   UNL     1      13.307 -22.290 -47.842  1.00  0.00     0.102 A 
ATOM     19  C   UNL     1      12.075 -22.911 -47.900  1.00  0.00     0.099 A 
BRANCH  18  20
ATOM     20  C   UNL     1      14.258 -22.498 -46.751  1.00  0.00     0.090 A 
ATOM     21  C   UNL     1      15.623 -22.329 -46.964  1.00  0.00     0.031 A 
ATOM     22  N   UNL     1      13.745 -22.855 -45.545  1.00  0.00    -0.255 NA
ATOM     23  C   UNL     1      16.500 -22.536 -45.903  1.00  0.00     0.004 A 
ATOM     24  C   UNL     1      14.621 -23.047 -44.535  1.00  0.00     0.112 A 
ATOM     25  C   UNL     1      15.992 -22.902 -44.663  1.00  0.00     0.020 A 
ENDBRANCH  18  20
ENDBRANCH  13  15
ENDBRANCH   4  13
TORSDOF 5
ENDMDL
MODEL 4
REMARK VINA RESULT:    -7.349      4.355      8.940
REMARK INTER + INTRA:          -9.454
REMARK INTER:                  -9.016
REMARK INTRA:                  -0.438
REMARK UNBOUND:                -0.172
REMARK SMILES NS(=O)(=O)c1ccc(Nc2nc(-c3ccccn3)cs2)cc1
REMARK SMILES IDX 5 1 6 2 7 3 8 4 21 5 22 6 2 7 3 8 4 9 1 10 9 13 10 15 11 16
REMARK SMILES IDX 20 17 12 18 19 19 13 20 14 21 18 22 15 23 17 24 16 25
REMARK H PARENT 1 11 1 12 9 14
ROOT
ATOM      1  C   UNL     1      12.056 -22.989 -48.470  1.00  0.00     0.082 A 
ATOM      2  C   UNL     1      12.174 -21.684 -47.992  1.00  0.00     0.024 A 
ATOM      3  C   UNL     1      13.222 -21.363 -47.124  1.00  0.00     0.027 A 
ATOM      4  C   UNL     1      14.157 -22.331 -46.710  1.00  0.00     0.040 A 
ATOM      5  C   UNL     1      14.008 -23.633 -47.204  1.00  0.00     0.027 A 
ATOM      6  C   UNL     1      12.962 -23.970 -48.071  1.00  0.00     0.024 A 
ENDROOT
BRANCH   1   7
ATOM      7  S   UNL     1      10.731 -23.401 -49.570  1.00  0.00     0.238 S 
ATOM      8  O   UNL     1      10.547 -22.309 -50.500  1.00  0.00    -0.207 OA
ATOM      9  O   UNL     1      10.899 -24.768 -49.999  1.00  0.00    -0.207 OA
BRANCH   7  10
ATOM     10  N   UNL     1       9.405 -23.341 -48.533  1.00  0.00    -0.225 NA
ATOM     11  H   UNL     1       8.782 -22.592 -48.840  1.00  0.00     0.137 HD
ATOM     12  H   UNL     1       9.666 -23.241 -47.553  1.00  0.00     0.137 HD
ENDBRANCH   7  10
ENDBRANCH   1   7
BRANCH   4  13
ATOM     13  N   UNL     1      15.200 -21.923 -45.859  1.00  0.00    -0.332 N 
ATOM     14  H   UNL     1      15.637 -21.049 -46.122  1.00  0.00     0.169 HD
BRANCH  13  15
ATOM     15  C   UNL     1      15.650 -22.488 -44.713  1.00  0.00     0.187 A 
ATOM     16  N   UNL     1      14.943 -22.875 -43.674  1.00  0.00    -0.218 NA
ATOM     17  S   UNL     1      17.351 -22.773 -44.555  1.00  0.00    -0.105 S 
ATOM     18  C   UNL     1      15.758 -23.417 -42.688  1.00  0.00     0.102 A 
ATOM     19  C   UNL     1      17.102 -23.440 -43.002  1.00  0.00     0.099 A 
BRANCH  18  20
ATOM     20  C   UNL     1      15.223 -23.920 -41.424  1.00  0.00     0.090 A 
ATOM     21  C   UNL     1      13.865 -24.199 -41.294  1.00  0.00     0.031 A 
ATOM     22  N   UNL     1      16.106 -24.097 -40.406  1.00  0.00    -0.255 NA
ATOM     23  C   UNL     1      13.389 -24.675 -40.075  1.00  0.00     0.004 A 
ATOM     24  C   UNL     1      15.614 -24.561 -39.237  1.00  0.00     0.112 A 
ATOM     25  C   UNL     1      14.279 -24.861 -39.024  1.00  0.00     0.020 A 
ENDBRANCH  18  20
ENDBRANCH  13  15
ENDBRANCH   4  13
TORSDOF 5
ENDMDL
MODEL 5
REMARK VINA RESULT:    -6.917      6.050      8.169
REMARK INTER + INTRA:          -8.909
REMARK INTER:                  -8.494
REMARK INTRA:                  -0.415
REMARK UNBOUND:                -0.172
REMARK SMILES NS(=O)(=O)c1ccc(Nc2nc(-c3ccccn3)cs2)cc1
REMARK SMILES IDX 5 1 6 2 7 3 8 4 21 5 22 6 2 7 3 8 4 9 1 10 9 13 10 15 11 16
REMARK SMILES IDX 20 17 12 18 19 19 13 20 14 21 18 22 15 23 17 24 16 25
REMARK H PARENT 1 11 1 12 9 14
ROOT
ATOM      1  C   UNL     1       6.065 -23.917 -49.735  1.00  0.00     0.082 A 
ATOM      2  C   UNL     1       6.843 -24.567 -48.778  1.00  0.00     0.024 A 
ATOM      3  C   UNL     1       8.235 -24.558 -48.905  1.00  0.00     0.027 A 
ATOM      4  C   UNL     1       8.873 -23.917 -49.984  1.00  0.00     0.040 A 
ATOM      5  C   UNL     1       8.062 -23.277 -50.931  1.00  0.00     0.027 A 
ATOM      6  C   UNL     1       6.666 -23.281 -50.819  1.00  0.00     0.024 A 
ENDROOT
BRANCH   1   7
ATOM      7  S   UNL     1       4.300 -23.924 -49.579  1.00  0.00     0.238 S 
ATOM      8  O   UNL     1       3.742 -23.090 -50.618  1.00  0.00    -0.207 OA
ATOM      9  O   UNL     1       3.866 -25.281 -49.352  1.00  0.00    -0.207 OA
BRANCH   7  10
ATOM     10  N   UNL     1       4.088 -23.065 -48.145  1.00  0.00    -0.225 NA
ATOM     11  H   UNL     1       3.181 -23.313 -47.746  1.00  0.00     0.137 HD
ATOM     12  H   UNL     1       4.188 -22.058 -48.263  1.00  0.00     0.137 HD
ENDBRANCH   7  10
ENDBRANCH   1   7
BRANCH   4  13
ATOM     13  N   UNL     1      10.278 -23.927 -50.026  1.00  0.00    -0.332 N 
ATOM     14  H   UNL     1      10.683 -24.829 -50.241  1.00  0.00     0.169 HD
BRANCH  13  15
ATOM     15  C   UNL     1      11.153 -22.902 -49.893  1.00  0.00     0.187 A 
ATOM     16  N   UNL     1      11.684 -22.166 -50.845  1.00  0.00    -0.218 NA
ATOM     17  S   UNL     1      11.652 -22.456 -48.295  1.00  0.00    -0.105 S 
ATOM     18  C   UNL     1      12.534 -21.202 -50.317  1.00  0.00     0.102 A 
ATOM     19  C   UNL     1      12.636 -21.217 -48.941  1.00  0.00     0.099 A 
BRANCH  18  20
ATOM     20  C   UNL     1      13.258 -20.254 -51.163  1.00  0.00     0.090 A 
ATOM     21  C   UNL     1      13.683 -19.032 -50.649  1.00  0.00     0.031 A 
ATOM     22  N   UNL     1      13.488 -20.626 -52.450  1.00  0.00    -0.255 NA
ATOM     23  C   UNL     1      14.369 -18.153 -51.483  1.00  0.00     0.004 A 
ATOM     24  C   UNL     1      14.156 -19.752 -53.234  1.00  0.00     0.112 A 
ATOM     25  C   UNL     1      14.612 -18.517 -52.802  1.00  0.00     0.020 A 
ENDBRANCH  18  20
ENDBRANCH  13  15
ENDBRANCH   4  13
TORSDOF 5
ENDMDL
MODEL 6
REMARK VINA RESULT:    -6.855      3.975      5.018
REMARK INTER + INTRA:          -8.830
REMARK INTER:                  -8.430
REMARK INTRA:                  -0.400
REMARK UNBOUND:                -0.172
REMARK SMILES NS(=O)(=O)c1ccc(Nc2nc(-c3ccccn3)cs2)cc1
REMARK SMILES IDX 5 1 6 2 7 3 8 4 21 5 22 6 2 7 3 8 4 9 1 10 9 13 10 15 11 16
REMARK SMILES IDX 20 17 12 18 19 19 13 20 14 21 18 22 15 23 17 24 16 25
REMARK H PARENT 1 11 1 12 9 14
ROOT
ATOM      1  C   UNL     1      14.817 -24.438 -41.016  1.00  0.00     0.082 A 
ATOM      2  C   UNL     1      15.708 -23.728 -41.821  1.00  0.00     0.024 A 
ATOM      3  C   UNL     1      15.265 -23.208 -43.041  1.00  0.00     0.027 A 
ATOM      4  C   UNL     1      13.941 -23.392 -43.483  1.00  0.00     0.040 A 
ATOM      5  C   UNL     1      13.073 -24.114 -42.654  1.00  0.00     0.027 A 
ATOM      6  C   UNL     1      13.503 -24.644 -41.432  1.00  0.00     0.024 A 
ENDROOT
BRANCH   1   7
ATOM      7  S   UNL     1      15.372 -25.099 -39.470  1.00  0.00     0.238 S 
ATOM      8  O   UNL     1      14.815 -26.423 -39.308  1.00  0.00    -0.207 OA
ATOM      9  O   UNL     1      16.782 -24.827 -39.334  1.00  0.00    -0.207 OA
BRANCH   7  10
ATOM     10  N   UNL     1      14.547 -24.123 -38.373  1.00  0.00    -0.225 NA
ATOM     11  H   UNL     1      13.931 -24.711 -37.810  1.00  0.00     0.137 HD
ATOM     12  H   UNL     1      14.040 -23.359 -38.818  1.00  0.00     0.137 HD
ENDBRANCH   7  10
ENDBRANCH   1   7
BRANCH   4  13
ATOM     13  N   UNL     1      13.564 -22.813 -44.708  1.00  0.00    -0.332 N 
ATOM     14  H   UNL     1      13.766 -21.824 -44.782  1.00  0.00     0.169 HD
BRANCH  13  15
ATOM     15  C   UNL     1      13.042 -23.394 -45.814  1.00  0.00     0.187 A 
ATOM     16  N   UNL     1      11.896 -23.126 -46.401  1.00  0.00    -0.218 NA
ATOM     17  S   UNL     1      13.964 -24.634 -46.598  1.00  0.00    -0.105 S 
ATOM     18  C   UNL     1      11.707 -23.928 -47.520  1.00  0.00     0.102 A 
ATOM     19  C   UNL     1      12.738 -24.810 -47.775  1.00  0.00     0.099 A 
BRANCH  18  20
ATOM     20  C   UNL     1      10.509 -23.835 -48.351  1.00  0.00     0.090 A 
ATOM     21  C   UNL     1      10.592 -23.365 -49.659  1.00  0.00     0.031 A 
ATOM     22  N   UNL     1       9.335 -24.227 -47.789  1.00  0.00    -0.255 NA
ATOM     23  C   UNL     1       9.430 -23.289 -50.423  1.00  0.00     0.004 A 
ATOM     24  C   UNL     1       8.226 -24.142 -48.555  1.00  0.00     0.112 A 
ATOM     25  C   UNL     1       8.222 -23.685 -49.862  1.00  0.00     0.020 A 
ENDBRANCH  18  20
ENDBRANCH  13  15
ENDBRANCH   4  13
TORSDOF 5
ENDMDL
MODEL 7
REMARK VINA RESULT:    -6.832      4.419      9.097
REMARK INTER + INTRA:          -8.801
REMARK INTER:                  -8.421
REMARK INTRA:                  -0.380
REMARK UNBOUND:                -0.172
REMARK SMILES NS(=O)(=O)c1ccc(Nc2nc(-c3ccccn3)cs2)cc1
REMARK SMILES IDX 5 1 6 2 7 3 8 4 21 5 22 6 2 7 3 8 4 9 1 10 9 13 10 15 11 16
REMARK SMILES IDX 20 17 12 18 19 19 13 20 14 21 18 22 15 23 17 24 16 25
REMARK H PARENT 1 11 1 12 9 14
ROOT
ATOM      1  C   UNL     1      11.321 -23.110 -49.436  1.00  0.00     0.082 A 
ATOM      2  C   UNL     1      12.247 -22.068 -49.466  1.00  0.00     0.024 A 
ATOM      3  C   UNL     1      13.024 -21.807 -48.334  1.00  0.00     0.027 A 
ATOM      4  C   UNL     1      12.887 -22.566 -47.156  1.00  0.00     0.040 A 
ATOM      5  C   UNL     1      11.944 -23.602 -47.156  1.00  0.00     0.027 A 
ATOM      6  C   UNL     1      11.156 -23.872 -48.282  1.00  0.00     0.024 A 
ENDROOT
BRANCH   1   7
ATOM      7  S   UNL     1      10.333 -23.444 -50.868  1.00  0.00     0.238 S 
ATOM      8  O   UNL     1      11.099 -23.104 -52.045  1.00  0.00    -0.207 OA
ATOM      9  O   UNL     1       9.697 -24.728 -50.697  1.00  0.00    -0.207 OA
BRANCH   7  10
ATOM     10  N   UNL     1       9.146 -22.256 -50.741  1.00  0.00    -0.225 NA
ATOM     11  H   UNL     1       9.324 -21.703 -49.900  1.00  0.00     0.137 HD
ATOM     12  H   UNL     1       8.199 -22.632 -50.754  1.00  0.00     0.137 HD
ENDBRANCH   7  10
ENDBRANCH   1   7
BRANCH   4  13
ATOM     13  N   UNL     1      13.726 -22.262 -46.069  1.00  0.00    -0.332 N 
ATOM     14  H   UNL     1      13.940 -21.278 -45.969  1.00  0.00     0.169 HD
BRANCH  13  15
ATOM     15  C   UNL     1      14.223 -23.076 -45.108  1.00  0.00     0.187 A 
ATOM     16  N   UNL     1      14.001 -23.023 -43.813  1.00  0.00    -0.218 NA
ATOM     17  S   UNL     1      15.267 -24.371 -45.593  1.00  0.00    -0.105 S 
ATOM     18  C   UNL     1      14.682 -24.035 -43.146  1.00  0.00     0.102 A 
ATOM     19  C   UNL     1      15.424 -24.863 -43.964  1.00  0.00     0.099 A 
BRANCH  18  20
ATOM     20  C   UNL     1      14.611 -24.197 -41.695  1.00  0.00     0.090 A 
ATOM     21  C   UNL     1      13.381 -24.359 -41.063  1.00  0.00     0.031 A 
ATOM     22  N   UNL     1      15.786 -24.183 -41.014  1.00  0.00    -0.255 NA
ATOM     23  C   UNL     1      13.350 -24.510 -39.679  1.00  0.00     0.004 A 
ATOM     24  C   UNL     1      15.723 -24.332 -39.673  1.00  0.00     0.112 A 
ATOM     25  C   UNL     1      14.543 -24.497 -38.967  1.00  0.00     0.020 A 
ENDBRANCH  18  20
ENDBRANCH  13  15
ENDBRANCH   4  13
TORSDOF 5
ENDMDL
MODEL 8
REMARK VINA RESULT:    -6.608      5.518      7.288
REMARK INTER + INTRA:          -8.519
REMARK INTER:                  -8.107
REMARK INTRA:                  -0.412
REMARK UNBOUND:                -0.172
REMARK SMILES NS(=O)(=O)c1ccc(Nc2nc(-c3ccccn3)cs2)cc1
REMARK SMILES IDX 5 1 6 2 7 3 8 4 21 5 22 6 2 7 3 8 4 9 1 10 9 13 10 15 11 16
REMARK SMILES IDX 20 17 12 18 19 19 13 20 14 21 18 22 15 23 17 24 16 25
REMARK H PARENT 1 11 1 12 9 14
ROOT
ATOM      1  C   UNL     1      11.692 -23.364 -47.133  1.00  0.00     0.082 A 
ATOM      2  C   UNL     1      12.177 -22.345 -47.952  1.00  0.00     0.024 A 
ATOM      3  C   UNL     1      11.546 -22.086 -49.172  1.00  0.00     0.027 A 
ATOM      4  C   UNL     1      10.436 -22.838 -49.601  1.00  0.00     0.040 A 
ATOM      5  C   UNL     1       9.976 -23.858 -48.758  1.00  0.00     0.027 A 
ATOM      6  C   UNL     1      10.601 -24.131 -47.534  1.00  0.00     0.024 A 
ENDROOT
BRANCH   1   7
ATOM      7  S   UNL     1      12.488 -23.696 -45.586  1.00  0.00     0.238 S 
ATOM      8  O   UNL     1      11.503 -23.608 -44.532  1.00  0.00    -0.207 OA
ATOM      9  O   UNL     1      13.351 -24.840 -45.750  1.00  0.00    -0.207 OA
BRANCH   7  10
ATOM     10  N   UNL     1      13.462 -22.333 -45.411  1.00  0.00    -0.225 NA
ATOM     11  H   UNL     1      14.432 -22.634 -45.303  1.00  0.00     0.137 HD
ATOM     12  H   UNL     1      13.166 -21.723 -44.649  1.00  0.00     0.137 HD
ENDBRANCH   7  10
ENDBRANCH   1   7
BRANCH   4  13
ATOM     13  N   UNL     1       9.837 -22.498 -50.827  1.00  0.00    -0.332 N 
ATOM     14  H   UNL     1      10.445 -21.998 -51.464  1.00  0.00     0.169 HD
BRANCH  13  15
ATOM     15  C   UNL     1       8.605 -22.802 -51.300  1.00  0.00     0.187 A 
ATOM     16  N   UNL     1       7.455 -22.267 -50.954  1.00  0.00    -0.218 NA
ATOM     17  S   UNL     1       8.478 -24.022 -52.524  1.00  0.00    -0.105 S 
ATOM     18  C   UNL     1       6.405 -22.835 -51.666  1.00  0.00     0.102 A 
ATOM     19  C   UNL     1       6.783 -23.810 -52.566  1.00  0.00     0.099 A 
BRANCH  18  20
ATOM     20  C   UNL     1       5.016 -22.423 -51.467  1.00  0.00     0.090 A 
ATOM     21  C   UNL     1       4.198 -22.152 -52.560  1.00  0.00     0.031 A 
ATOM     22  N   UNL     1       4.579 -22.323 -50.184  1.00  0.00    -0.255 NA
ATOM     23  C   UNL     1       2.880 -21.762 -52.334  1.00  0.00     0.004 A 
ATOM     24  C   UNL     1       3.297 -21.942 -49.998  1.00  0.00     0.112 A 
ATOM     25  C   UNL     1       2.418 -21.654 -51.029  1.00  0.00     0.020 A 
ENDBRANCH  18  20
ENDBRANCH  13  15
ENDBRANCH   4  13
TORSDOF 5
ENDMDL
MODEL 9
REMARK VINA RESULT:    -6.519      3.351      4.006
REMARK INTER + INTRA:          -8.406
REMARK INTER:                  -8.101
REMARK INTRA:                  -0.305
REMARK UNBOUND:                -0.172
REMARK SMILES NS(=O)(=O)c1ccc(Nc2nc(-c3ccccn3)cs2)cc1
REMARK SMILES IDX 5 1 6 2 7 3 8 4 21 5 22 6 2 7 3 8 4 9 1 10 9 13 10 15 11 16
REMARK SMILES IDX 20 17 12 18 19 19 13 20 14 21 18 22 15 23 17 24 16 25
REMARK H PARENT 1 11 1 12 9 14
ROOT
ATOM      1  C   UNL     1      16.116 -22.771 -44.649  1.00  0.00     0.082 A 
ATOM      2  C   UNL     1      15.002 -23.164 -43.908  1.00  0.00     0.024 A 
ATOM      3  C   UNL     1      13.736 -23.125 -44.500  1.00  0.00     0.027 A 
ATOM      4  C   UNL     1      13.556 -22.687 -45.826  1.00  0.00     0.040 A 
ATOM      5  C   UNL     1      14.695 -22.295 -46.542  1.00  0.00     0.027 A 
ATOM      6  C   UNL     1      15.968 -22.325 -45.961  1.00  0.00     0.024 A 
ENDROOT
BRANCH   1   7
ATOM      7  S   UNL     1      17.722 -22.818 -43.904  1.00  0.00     0.238 S 
ATOM      8  O   UNL     1      18.564 -21.844 -44.561  1.00  0.00    -0.207 OA
ATOM      9  O   UNL     1      17.562 -22.868 -42.472  1.00  0.00    -0.207 OA
BRANCH   7  10
ATOM     10  N   UNL     1      18.284 -24.321 -44.416  1.00  0.00    -0.225 NA
ATOM     11  H   UNL     1      17.837 -24.553 -45.305  1.00  0.00     0.137 HD
ATOM     12  H   UNL     1      18.153 -25.057 -43.723  1.00  0.00     0.137 HD
ENDBRANCH   7  10
ENDBRANCH   1   7
BRANCH   4  13
ATOM     13  N   UNL     1      12.255 -22.705 -46.360  1.00  0.00    -0.332 N 
ATOM     14  H   UNL     1      11.600 -22.098 -45.884  1.00  0.00     0.169 HD
BRANCH  13  15
ATOM     15  C   UNL     1      11.778 -23.353 -47.449  1.00  0.00     0.187 A 
ATOM     16  N   UNL     1      10.773 -23.000 -48.220  1.00  0.00    -0.218 NA
ATOM     17  S   UNL     1      12.562 -24.819 -47.937  1.00  0.00    -0.105 S 
ATOM     18  C   UNL     1      10.585 -23.917 -49.248  1.00  0.00     0.102 A 
ATOM     19  C   UNL     1      11.473 -24.974 -49.245  1.00  0.00     0.099 A 
BRANCH  18  20
ATOM     20  C   UNL     1       9.527 -23.763 -50.246  1.00  0.00     0.090 A 
ATOM     21  C   UNL     1       9.798 -23.965 -51.597  1.00  0.00     0.031 A 
ATOM     22  N   UNL     1       8.294 -23.421 -49.790  1.00  0.00    -0.255 NA
ATOM     23  C   UNL     1       8.767 -23.809 -52.520  1.00  0.00     0.004 A 
ATOM     24  C   UNL     1       7.315 -23.278 -50.710  1.00  0.00     0.112 A 
ATOM     25  C   UNL     1       7.500 -23.459 -52.071  1.00  0.00     0.020 A 
ENDBRANCH  18  20
ENDBRANCH  13  15
ENDBRANCH   4  13
TORSDOF 5
ENDMDL
