REMARK SMILES C[C@H]1Oc2ccc(NC(=O)Cc3cs/c(=N\S(C)(=O)=O)[nH]3)cc2NC1=O
REMARK SMILES IDX 11 1 9 2 8 3 10 4 7 6 2 7 3 8 25 9 4 10 24 11 26 12 5 13
REMARK SMILES IDX 23 14 6 15 22 16 1 17 12 19 13 20 21 21 14 22 15 23 16 24
REMARK SMILES IDX 17 26 19 27 20 28 18 29
REMARK H PARENT 8 5 24 18 21 25
ROOT
ATOM      1  C   UNL     1       2.693  -0.128   2.609  1.00  0.00     0.155 C 
ENDROOT
BRANCH   1   2
ATOM      2  C   UNL     1       1.283  -0.253   2.036  1.00  0.00     0.230 C 
ATOM      3  N   UNL     1       0.915  -1.559   1.760  1.00  0.00    -0.326 N 
ATOM      4  O   UNL     1       0.594   0.750   1.857  1.00  0.00    -0.274 OA
ATOM      5  H   UNL     1       1.596  -2.283   1.952  1.00  0.00     0.169 HD
BRANCH   3   6
ATOM      6  C   UNL     1      -0.312  -2.010   1.225  1.00  0.00     0.043 A 
ATOM      7  C   UNL     1      -4.783  -2.804  -0.879  1.00  0.00     0.259 C 
ATOM      8  O   UNL     1      -3.811  -3.683  -0.318  1.00  0.00    -0.479 OA
ATOM      9  C   UNL     1      -4.784  -1.321  -0.480  1.00  0.00     0.265 C 
ATOM     10  C   UNL     1      -2.684  -3.081   0.165  1.00  0.00     0.144 A 
ATOM     11  N   UNL     1      -3.622  -0.857   0.069  1.00  0.00    -0.320 N 
ATOM     12  O   UNL     1      -5.735  -0.569  -0.686  1.00  0.00    -0.270 OA
ATOM     13  C   UNL     1      -1.629  -3.923   0.499  1.00  0.00     0.051 A 
ATOM     14  C   UNL     1      -2.559  -1.708   0.367  1.00  0.00     0.086 A 
ATOM     15  C   UNL     1      -0.447  -3.391   1.022  1.00  0.00     0.030 A 
ATOM     16  C   UNL     1      -1.380  -1.172   0.896  1.00  0.00     0.056 A 
ATOM     17  C   UNL     1      -4.683  -2.906  -2.399  1.00  0.00     0.064 C 
ATOM     18  H   UNL     1      -3.577   0.130   0.284  1.00  0.00     0.170 HD
ENDBRANCH   3   6
ENDBRANCH   1   2
BRANCH   1  19
ATOM     19  C   UNL     1       3.546   0.716   1.712  1.00  0.00     0.037 C 
ATOM     20  C   UNL     1       4.701   0.336   1.137  1.00  0.00     0.090 C 
ATOM     21  N   UNL     1       3.199   2.020   1.406  1.00  0.00    -0.333 N 
ATOM     22  S   UNL     1       5.383   1.623   0.165  1.00  0.00    -0.104 SA
ATOM     23  C   UNL     1       4.022   2.709   0.549  1.00  0.00     0.199 C 
ATOM     24  N   UNL     1       3.778   3.894   0.117  1.00  0.00    -0.135 NA
ATOM     25  H   UNL     1       2.278   2.375   1.647  1.00  0.00     0.169 HD
BRANCH  24  26
ATOM     26  S   UNL     1       4.739   4.732  -0.868  1.00  0.00     0.252 S 
ATOM     27  O   UNL     1       4.207   6.078  -0.967  1.00  0.00    -0.205 OA
ATOM     28  O   UNL     1       6.134   4.544  -0.529  1.00  0.00    -0.205 OA
ATOM     29  C   UNL     1       4.437   3.966  -2.442  1.00  0.00     0.185 C 
ENDBRANCH  24  26
ENDBRANCH   1  19
TORSDOF 4
