REMARK SMILES CCCNC(=O)NC(=O)[C@H](C)Sc1ncnc2c1cnn2-c1ccccc1
REMARK SMILES IDX 4 1 5 2 6 3 7 4 8 5 9 6 3 9 2 10 1 11 10 12 11 13 12 14
REMARK SMILES IDX 13 15 14 16 18 17 15 18 17 19 19 20 16 21 21 22 20 23 22 24
REMARK SMILES IDX 23 25 27 26 24 27 26 28 25 29
REMARK H PARENT 4 7 7 8
ROOT
ATOM      1  N   UNL     1       0.350   3.368  -1.758  1.00  0.00    -0.338 N 
ATOM      2  C   UNL     1       0.524   3.061  -0.417  1.00  0.00     0.321 C 
ATOM      3  O   UNL     1       1.602   2.736   0.057  1.00  0.00    -0.248 OA
ATOM      4  N   UNL     1      -0.674   3.173   0.253  1.00  0.00    -0.277 N 
ATOM      5  C   UNL     1      -0.798   2.771   1.571  1.00  0.00     0.241 C 
ATOM      6  O   UNL     1       0.025   3.036   2.447  1.00  0.00    -0.273 OA
ATOM      7  H   UNL     1      -0.326   4.100  -1.927  1.00  0.00     0.165 HD
ATOM      8  H   UNL     1      -1.435   2.868  -0.338  1.00  0.00     0.174 HD
ENDROOT
BRANCH   1   9
ATOM      9  C   UNL     1       1.487   3.341  -2.661  1.00  0.00     0.117 C 
BRANCH   9  10
ATOM     10  C   UNL     1       1.861   1.916  -3.063  1.00  0.00     0.018 C 
ATOM     11  C   UNL     1       3.021   1.903  -4.045  1.00  0.00     0.006 C 
ENDBRANCH   9  10
ENDBRANCH   1   9
BRANCH   5  12
ATOM     12  C   UNL     1      -2.181   2.207   1.933  1.00  0.00     0.139 C 
ATOM     13  C   UNL     1      -2.177   1.489   3.279  1.00  0.00     0.030 C 
BRANCH  12  14
ATOM     14  S   UNL     1      -2.917   1.148   0.618  1.00  0.00    -0.092 SA
BRANCH  14  15
ATOM     15  C   UNL     1      -1.753  -0.175   0.568  1.00  0.00     0.111 A 
ATOM     16  N   UNL     1      -0.457   0.113   0.371  1.00  0.00    -0.229 NA
ATOM     17  C   UNL     1      -2.161  -1.497   0.696  1.00  0.00     0.072 A 
ATOM     18  C   UNL     1       0.417  -0.905   0.339  1.00  0.00     0.225 A 
ATOM     19  C   UNL     1      -1.168  -2.465   0.635  1.00  0.00     0.167 A 
ATOM     20  C   UNL     1      -3.351  -2.212   0.884  1.00  0.00     0.149 A 
ATOM     21  N   UNL     1       0.148  -2.214   0.459  1.00  0.00    -0.216 NA
ATOM     22  N   UNL     1      -1.809  -3.697   0.791  1.00  0.00    -0.215 N 
ATOM     23  N   UNL     1      -3.162  -3.529   0.942  1.00  0.00    -0.174 NA
BRANCH  22  24
ATOM     24  C   UNL     1      -1.256  -5.014   0.808  1.00  0.00     0.067 A 
ATOM     25  C   UNL     1      -2.115  -6.115   0.976  1.00  0.00     0.028 A 
ATOM     26  C   UNL     1       0.118  -5.246   0.665  1.00  0.00     0.028 A 
ATOM     27  C   UNL     1      -1.608  -7.416   0.998  1.00  0.00     0.002 A 
ATOM     28  C   UNL     1       0.619  -6.552   0.688  1.00  0.00     0.002 A 
ATOM     29  C   UNL     1      -0.241  -7.634   0.854  1.00  0.00     0.000 A 
ENDBRANCH  22  24
ENDBRANCH  14  15
ENDBRANCH  12  14
ENDBRANCH   5  12
TORSDOF 6
