MODEL 1
REMARK VINA RESULT:    -7.836      0.000      0.000
REMARK INTER + INTRA:         -10.049
REMARK INTER:                  -9.669
REMARK INTRA:                  -0.380
REMARK UNBOUND:                -0.380
REMARK SMILES Cn1cc(C(=O)N/N=C/c2ccc(O)c(O)c2)c2ccccc21
REMARK SMILES IDX 8 1 9 2 7 3 5 4 6 5 4 7 2 8 3 9 23 10 22 11 18 12 21 13
REMARK SMILES IDX 19 14 20 15 1 16 10 17 11 18 17 19 12 20 15 21 13 22 16 23
REMARK SMILES IDX 14 25
REMARK H PARENT 7 6 16 24 14 26
ROOT
ATOM      1  N   UNL     1      13.970 -22.792 -45.149  1.00  0.00    -0.180 NA
ATOM      2  C   UNL     1      14.263 -23.223 -46.333  1.00  0.00     0.141 C 
ENDROOT
BRANCH   1   3
ATOM      3  N   UNL     1      14.406 -23.565 -44.112  1.00  0.00    -0.243 N 
ATOM      4  C   UNL     1      15.421 -23.112 -43.275  1.00  0.00     0.273 C 
ATOM      5  O   UNL     1      15.976 -22.024 -43.401  1.00  0.00    -0.267 OA
ATOM      6  H   UNL     1      13.942 -24.440 -43.914  1.00  0.00     0.194 HD
BRANCH   4   7
ATOM      7  C   UNL     1      15.778 -24.045 -42.196  1.00  0.00     0.067 A 
ATOM      8  N   UNL     1      16.862 -25.543 -40.927  1.00  0.00    -0.350 N 
ATOM      9  C   UNL     1      16.923 -24.823 -42.094  1.00  0.00     0.100 A 
ATOM     10  C   UNL     1      15.699 -25.259 -40.249  1.00  0.00     0.049 A 
ATOM     11  C   UNL     1      15.206 -25.745 -39.027  1.00  0.00     0.027 A 
ATOM     12  C   UNL     1      15.002 -24.319 -41.015  1.00  0.00     0.012 A 
ATOM     13  C   UNL     1      13.974 -25.264 -38.575  1.00  0.00     0.002 A 
ATOM     14  C   UNL     1      13.760 -23.852 -40.530  1.00  0.00     0.011 A 
ATOM     15  C   UNL     1      13.259 -24.330 -39.314  1.00  0.00     0.001 A 
ATOM     16  C   UNL     1      17.880 -26.462 -40.472  1.00  0.00     0.149 C 
ENDBRANCH   4   7
ENDBRANCH   1   3
BRANCH   2  17
ATOM     17  C   UNL     1      13.854 -22.489 -47.548  1.00  0.00    -0.002 A 
ATOM     18  C   UNL     1      14.815 -21.898 -48.381  1.00  0.00     0.014 A 
ATOM     19  C   UNL     1      12.490 -22.396 -47.853  1.00  0.00     0.060 A 
ATOM     20  C   UNL     1      14.415 -21.208 -49.527  1.00  0.00     0.051 A 
ATOM     21  C   UNL     1      12.106 -21.706 -48.998  1.00  0.00     0.158 A 
ATOM     22  C   UNL     1      13.063 -21.119 -49.825  1.00  0.00     0.157 A 
BRANCH  21  23
ATOM     23  O   UNL     1      10.794 -21.574 -49.358  1.00  0.00    -0.504 OA
ATOM     24  H   UNL     1      10.262 -22.203 -48.842  1.00  0.00     0.293 HD
ENDBRANCH  21  23
BRANCH  22  25
ATOM     25  O   UNL     1      12.673 -20.444 -50.945  1.00  0.00    -0.504 OA
ATOM     26  H   UNL     1      11.856 -20.896 -51.236  1.00  0.00     0.293 HD
ENDBRANCH  22  25
ENDBRANCH   2  17
TORSDOF 5
ENDMDL
MODEL 2
REMARK VINA RESULT:    -7.448      0.694      1.403
REMARK INTER + INTRA:          -9.569
REMARK INTER:                  -9.198
REMARK INTRA:                  -0.371
REMARK UNBOUND:                -0.380
REMARK SMILES Cn1cc(C(=O)N/N=C/c2ccc(O)c(O)c2)c2ccccc21
REMARK SMILES IDX 8 1 9 2 7 3 5 4 6 5 4 7 2 8 3 9 23 10 22 11 18 12 21 13
REMARK SMILES IDX 19 14 20 15 1 16 10 17 11 18 17 19 12 20 15 21 13 22 16 23
REMARK SMILES IDX 14 25
REMARK H PARENT 7 6 16 24 14 26
ROOT
ATOM      1  N   UNL     1      13.483 -22.936 -44.795  1.00  0.00    -0.180 NA
ATOM      2  C   UNL     1      13.754 -23.364 -45.985  1.00  0.00     0.141 C 
ENDROOT
BRANCH   1   3
ATOM      3  N   UNL     1      13.998 -23.672 -43.768  1.00  0.00    -0.243 N 
ATOM      4  C   UNL     1      15.122 -23.228 -43.079  1.00  0.00     0.273 C 
ATOM      5  O   UNL     1      15.708 -22.179 -43.332  1.00  0.00    -0.267 OA
ATOM      6  H   UNL     1      13.520 -24.509 -43.467  1.00  0.00     0.194 HD
BRANCH   4   7
ATOM      7  C   UNL     1      15.556 -24.117 -41.991  1.00  0.00     0.067 A 
ATOM      8  N   UNL     1      16.731 -25.562 -40.743  1.00  0.00    -0.350 N 
ATOM      9  C   UNL     1      16.709 -24.889 -41.939  1.00  0.00     0.100 A 
ATOM     10  C   UNL     1      15.617 -25.252 -39.997  1.00  0.00     0.049 A 
ATOM     11  C   UNL     1      15.213 -25.690 -38.725  1.00  0.00     0.027 A 
ATOM     12  C   UNL     1      14.866 -24.344 -40.749  1.00  0.00     0.012 A 
ATOM     13  C   UNL     1      14.014 -25.191 -38.207  1.00  0.00     0.002 A 
ATOM     14  C   UNL     1      13.660 -23.859 -40.197  1.00  0.00     0.011 A 
ATOM     15  C   UNL     1      13.246 -24.288 -38.931  1.00  0.00     0.001 A 
ATOM     16  C   UNL     1      17.782 -26.462 -40.324  1.00  0.00     0.149 C 
ENDBRANCH   4   7
ENDBRANCH   1   3
BRANCH   2  17
ATOM     17  C   UNL     1      13.261 -22.668 -47.192  1.00  0.00    -0.002 A 
ATOM     18  C   UNL     1      11.921 -22.792 -47.588  1.00  0.00     0.014 A 
ATOM     19  C   UNL     1      14.154 -21.882 -47.930  1.00  0.00     0.060 A 
ATOM     20  C   UNL     1      11.467 -22.128 -48.729  1.00  0.00     0.051 A 
ATOM     21  C   UNL     1      13.688 -21.227 -49.064  1.00  0.00     0.158 A 
ATOM     22  C   UNL     1      12.356 -21.351 -49.457  1.00  0.00     0.157 A 
BRANCH  21  23
ATOM     23  O   UNL     1      14.503 -20.444 -49.834  1.00  0.00    -0.504 OA
ATOM     24  H   UNL     1      14.143 -19.541 -49.855  1.00  0.00     0.293 HD
ENDBRANCH  21  23
BRANCH  22  25
ATOM     25  O   UNL     1      11.912 -20.703 -50.573  1.00  0.00    -0.504 OA
ATOM     26  H   UNL     1      11.615 -21.414 -51.174  1.00  0.00     0.293 HD
ENDBRANCH  22  25
ENDBRANCH   2  17
TORSDOF 5
ENDMDL
MODEL 3
REMARK VINA RESULT:    -7.296      2.549      9.043
REMARK INTER + INTRA:          -9.383
REMARK INTER:                  -9.352
REMARK INTRA:                  -0.030
REMARK UNBOUND:                -0.380
REMARK SMILES Cn1cc(C(=O)N/N=C/c2ccc(O)c(O)c2)c2ccccc21
REMARK SMILES IDX 8 1 9 2 7 3 5 4 6 5 4 7 2 8 3 9 23 10 22 11 18 12 21 13
REMARK SMILES IDX 19 14 20 15 1 16 10 17 11 18 17 19 12 20 15 21 13 22 16 23
REMARK SMILES IDX 14 25
REMARK H PARENT 7 6 16 24 14 26
ROOT
ATOM      1  N   UNL     1      14.139 -23.123 -43.962  1.00  0.00    -0.180 NA
ATOM      2  C   UNL     1      13.813 -24.182 -43.294  1.00  0.00     0.141 C 
ENDROOT
BRANCH   1   3
ATOM      3  N   UNL     1      13.817 -23.137 -45.289  1.00  0.00    -0.243 N 
ATOM      4  C   UNL     1      12.484 -23.172 -45.688  1.00  0.00     0.273 C 
ATOM      5  O   UNL     1      11.537 -23.189 -44.906  1.00  0.00    -0.267 OA
ATOM      6  H   UNL     1      14.548 -23.054 -45.979  1.00  0.00     0.194 HD
BRANCH   4   7
ATOM      7  C   UNL     1      12.289 -23.170 -47.145  1.00  0.00     0.067 A 
ATOM      8  N   UNL     1      11.755 -23.774 -49.238  1.00  0.00    -0.350 N 
ATOM      9  C   UNL     1      11.773 -24.192 -47.931  1.00  0.00     0.100 A 
ATOM     10  C   UNL     1      12.248 -22.493 -49.338  1.00  0.00     0.049 A 
ATOM     11  C   UNL     1      12.421 -21.660 -50.456  1.00  0.00     0.027 A 
ATOM     12  C   UNL     1      12.584 -22.085 -48.044  1.00  0.00     0.012 A 
ATOM     13  C   UNL     1      12.949 -20.382 -50.251  1.00  0.00     0.002 A 
ATOM     14  C   UNL     1      13.115 -20.788 -47.870  1.00  0.00     0.011 A 
ATOM     15  C   UNL     1      13.292 -19.950 -48.976  1.00  0.00     0.001 A 
ATOM     16  C   UNL     1      11.278 -24.565 -50.350  1.00  0.00     0.149 C 
ENDBRANCH   4   7
ENDBRANCH   1   3
BRANCH   2  17
ATOM     17  C   UNL     1      14.101 -24.307 -41.850  1.00  0.00    -0.002 A 
ATOM     18  C   UNL     1      13.063 -24.256 -40.909  1.00  0.00     0.014 A 
ATOM     19  C   UNL     1      15.429 -24.478 -41.440  1.00  0.00     0.060 A 
ATOM     20  C   UNL     1      13.349 -24.377 -39.548  1.00  0.00     0.051 A 
ATOM     21  C   UNL     1      15.700 -24.598 -40.082  1.00  0.00     0.158 A 
ATOM     22  C   UNL     1      14.666 -24.547 -39.147  1.00  0.00     0.157 A 
BRANCH  21  23
ATOM     23  O   UNL     1      16.971 -24.767 -39.608  1.00  0.00    -0.504 OA
ATOM     24  H   UNL     1      17.002 -24.479 -38.680  1.00  0.00     0.293 HD
ENDBRANCH  21  23
BRANCH  22  25
ATOM     25  O   UNL     1      14.946 -24.665 -37.816  1.00  0.00    -0.504 OA
ATOM     26  H   UNL     1      14.374 -25.393 -37.504  1.00  0.00     0.293 HD
ENDBRANCH  22  25
ENDBRANCH   2  17
TORSDOF 5
ENDMDL
MODEL 4
REMARK VINA RESULT:    -7.165      2.775      3.653
REMARK INTER + INTRA:          -9.221
REMARK INTER:                  -9.105
REMARK INTRA:                  -0.116
REMARK UNBOUND:                -0.380
REMARK SMILES Cn1cc(C(=O)N/N=C/c2ccc(O)c(O)c2)c2ccccc21
REMARK SMILES IDX 8 1 9 2 7 3 5 4 6 5 4 7 2 8 3 9 23 10 22 11 18 12 21 13
REMARK SMILES IDX 19 14 20 15 1 16 10 17 11 18 17 19 12 20 15 21 13 22 16 23
REMARK SMILES IDX 14 25
REMARK H PARENT 7 6 16 24 14 26
ROOT
ATOM      1  N   UNL     1      11.905 -22.626 -47.003  1.00  0.00    -0.180 NA
ATOM      2  C   UNL     1      11.594 -23.635 -47.750  1.00  0.00     0.141 C 
ENDROOT
BRANCH   1   3
ATOM      3  N   UNL     1      12.937 -22.829 -46.132  1.00  0.00    -0.243 N 
ATOM      4  C   UNL     1      12.685 -23.256 -44.831  1.00  0.00     0.273 C 
ATOM      5  O   UNL     1      11.561 -23.476 -44.390  1.00  0.00    -0.267 OA
ATOM      6  H   UNL     1      13.888 -22.732 -46.456  1.00  0.00     0.194 HD
BRANCH   4   7
ATOM      7  C   UNL     1      13.892 -23.444 -44.012  1.00  0.00     0.067 A 
ATOM      8  N   UNL     1      16.022 -23.505 -43.315  1.00  0.00    -0.350 N 
ATOM      9  C   UNL     1      15.210 -23.210 -44.380  1.00  0.00     0.100 A 
ATOM     10  C   UNL     1      15.271 -23.931 -42.243  1.00  0.00     0.049 A 
ATOM     11  C   UNL     1      15.657 -24.337 -40.954  1.00  0.00     0.027 A 
ATOM     12  C   UNL     1      13.933 -23.896 -42.646  1.00  0.00     0.012 A 
ATOM     13  C   UNL     1      14.656 -24.716 -40.056  1.00  0.00     0.002 A 
ATOM     14  C   UNL     1      12.946 -24.286 -41.715  1.00  0.00     0.011 A 
ATOM     15  C   UNL     1      13.317 -24.693 -40.429  1.00  0.00     0.001 A 
ATOM     16  C   UNL     1      17.462 -23.379 -43.316  1.00  0.00     0.149 C 
ENDBRANCH   4   7
ENDBRANCH   1   3
BRANCH   2  17
ATOM     17  C   UNL     1      10.497 -23.560 -48.737  1.00  0.00    -0.002 A 
ATOM     18  C   UNL     1      10.756 -23.178 -50.061  1.00  0.00     0.014 A 
ATOM     19  C   UNL     1       9.196 -23.877 -48.325  1.00  0.00     0.060 A 
ATOM     20  C   UNL     1       9.711 -23.112 -50.985  1.00  0.00     0.051 A 
ATOM     21  C   UNL     1       8.166 -23.807 -49.256  1.00  0.00     0.158 A 
ATOM     22  C   UNL     1       8.424 -23.428 -50.572  1.00  0.00     0.157 A 
BRANCH  21  23
ATOM     23  O   UNL     1       6.871 -24.102 -48.926  1.00  0.00    -0.504 OA
ATOM     24  H   UNL     1       6.859 -24.925 -48.408  1.00  0.00     0.293 HD
ENDBRANCH  21  23
BRANCH  22  25
ATOM     25  O   UNL     1       7.402 -23.363 -51.475  1.00  0.00    -0.504 OA
ATOM     26  H   UNL     1       6.589 -23.379 -50.933  1.00  0.00     0.293 HD
ENDBRANCH  22  25
ENDBRANCH   2  17
TORSDOF 5
ENDMDL
MODEL 5
REMARK VINA RESULT:    -7.150      2.505      8.956
REMARK INTER + INTRA:          -9.203
REMARK INTER:                  -8.787
REMARK INTRA:                  -0.415
REMARK UNBOUND:                -0.380
REMARK SMILES Cn1cc(C(=O)N/N=C/c2ccc(O)c(O)c2)c2ccccc21
REMARK SMILES IDX 8 1 9 2 7 3 5 4 6 5 4 7 2 8 3 9 23 10 22 11 18 12 21 13
REMARK SMILES IDX 19 14 20 15 1 16 10 17 11 18 17 19 12 20 15 21 13 22 16 23
REMARK SMILES IDX 14 25
REMARK H PARENT 7 6 16 24 14 26
ROOT
ATOM      1  N   UNL     1      14.396 -23.111 -43.862  1.00  0.00    -0.180 NA
ATOM      2  C   UNL     1      13.542 -23.800 -43.176  1.00  0.00     0.141 C 
ENDROOT
BRANCH   1   3
ATOM      3  N   UNL     1      13.941 -22.618 -45.052  1.00  0.00    -0.243 N 
ATOM      4  C   UNL     1      14.462 -23.089 -46.253  1.00  0.00     0.273 C 
ATOM      5  O   UNL     1      15.334 -23.950 -46.329  1.00  0.00    -0.267 OA
ATOM      6  H   UNL     1      13.176 -21.960 -45.057  1.00  0.00     0.194 HD
BRANCH   4   7
ATOM      7  C   UNL     1      13.869 -22.477 -47.451  1.00  0.00     0.067 A 
ATOM      8  N   UNL     1      13.373 -21.051 -49.109  1.00  0.00    -0.350 N 
ATOM      9  C   UNL     1      14.137 -21.223 -47.982  1.00  0.00     0.100 A 
ATOM     10  C   UNL     1      12.601 -22.166 -49.340  1.00  0.00     0.049 A 
ATOM     11  C   UNL     1      11.676 -22.449 -50.359  1.00  0.00     0.027 A 
ATOM     12  C   UNL     1      12.895 -23.080 -48.323  1.00  0.00     0.012 A 
ATOM     13  C   UNL     1      11.035 -23.691 -50.341  1.00  0.00     0.002 A 
ATOM     14  C   UNL     1      12.229 -24.326 -48.333  1.00  0.00     0.011 A 
ATOM     15  C   UNL     1      11.306 -24.619 -49.342  1.00  0.00     0.001 A 
ATOM     16  C   UNL     1      13.385 -19.868 -49.940  1.00  0.00     0.149 C 
ENDBRANCH   4   7
ENDBRANCH   1   3
BRANCH   2  17
ATOM     17  C   UNL     1      13.897 -24.395 -41.871  1.00  0.00    -0.002 A 
ATOM     18  C   UNL     1      13.065 -25.356 -41.277  1.00  0.00     0.014 A 
ATOM     19  C   UNL     1      15.077 -23.983 -41.240  1.00  0.00     0.060 A 
ATOM     20  C   UNL     1      13.412 -25.912 -40.044  1.00  0.00     0.051 A 
ATOM     21  C   UNL     1      15.410 -24.545 -40.012  1.00  0.00     0.158 A 
ATOM     22  C   UNL     1      14.582 -25.500 -39.423  1.00  0.00     0.157 A 
BRANCH  21  23
ATOM     23  O   UNL     1      16.546 -24.191 -39.338  1.00  0.00    -0.504 OA
ATOM     24  H   UNL     1      16.302 -23.898 -38.444  1.00  0.00     0.293 HD
ENDBRANCH  21  23
BRANCH  22  25
ATOM     25  O   UNL     1      14.921 -26.043 -38.218  1.00  0.00    -0.504 OA
ATOM     26  H   UNL     1      14.067 -26.246 -37.786  1.00  0.00     0.293 HD
ENDBRANCH  22  25
ENDBRANCH   2  17
TORSDOF 5
ENDMDL
MODEL 6
REMARK VINA RESULT:    -7.059      2.549      4.000
REMARK INTER + INTRA:          -9.090
REMARK INTER:                  -8.804
REMARK INTRA:                  -0.286
REMARK UNBOUND:                -0.380
REMARK SMILES Cn1cc(C(=O)N/N=C/c2ccc(O)c(O)c2)c2ccccc21
REMARK SMILES IDX 8 1 9 2 7 3 5 4 6 5 4 7 2 8 3 9 23 10 22 11 18 12 21 13
REMARK SMILES IDX 19 14 20 15 1 16 10 17 11 18 17 19 12 20 15 21 13 22 16 23
REMARK SMILES IDX 14 25
REMARK H PARENT 7 6 16 24 14 26
ROOT
ATOM      1  N   UNL     1      13.667 -20.770 -47.904  1.00  0.00    -0.180 NA
ATOM      2  C   UNL     1      13.493 -21.258 -49.089  1.00  0.00     0.141 C 
ENDROOT
BRANCH   1   3
ATOM      3  N   UNL     1      13.496 -21.646 -46.871  1.00  0.00    -0.243 N 
ATOM      4  C   UNL     1      14.573 -22.386 -46.392  1.00  0.00     0.273 C 
ATOM      5  O   UNL     1      15.712 -22.306 -46.844  1.00  0.00    -0.267 OA
ATOM      6  H   UNL     1      12.600 -21.705 -46.412  1.00  0.00     0.194 HD
BRANCH   4   7
ATOM      7  C   UNL     1      14.243 -23.278 -45.270  1.00  0.00     0.067 A 
ATOM      8  N   UNL     1      13.282 -24.849 -43.992  1.00  0.00    -0.350 N 
ATOM      9  C   UNL     1      13.238 -24.235 -45.218  1.00  0.00     0.100 A 
ATOM     10  C   UNL     1      14.296 -24.322 -43.226  1.00  0.00     0.049 A 
ATOM     11  C   UNL     1      14.719 -24.629 -41.922  1.00  0.00     0.027 A 
ATOM     12  C   UNL     1      14.921 -23.341 -44.003  1.00  0.00     0.012 A 
ATOM     13  C   UNL     1      15.803 -23.920 -41.397  1.00  0.00     0.002 A 
ATOM     14  C   UNL     1      16.014 -22.643 -43.442  1.00  0.00     0.011 A 
ATOM     15  C   UNL     1      16.443 -22.939 -42.144  1.00  0.00     0.001 A 
ATOM     16  C   UNL     1      12.392 -25.907 -43.568  1.00  0.00     0.149 C 
ENDBRANCH   4   7
ENDBRANCH   1   3
BRANCH   2  17
ATOM     17  C   UNL     1      13.643 -20.426 -50.301  1.00  0.00    -0.002 A 
ATOM     18  C   UNL     1      13.807 -19.037 -50.194  1.00  0.00     0.014 A 
ATOM     19  C   UNL     1      13.619 -21.049 -51.554  1.00  0.00     0.060 A 
ATOM     20  C   UNL     1      13.948 -18.262 -51.347  1.00  0.00     0.051 A 
ATOM     21  C   UNL     1      13.761 -20.264 -52.693  1.00  0.00     0.158 A 
ATOM     22  C   UNL     1      13.924 -18.883 -52.587  1.00  0.00     0.157 A 
BRANCH  21  23
ATOM     23  O   UNL     1      13.747 -20.803 -53.950  1.00  0.00    -0.504 OA
ATOM     24  H   UNL     1      13.732 -21.773 -53.876  1.00  0.00     0.293 HD
ENDBRANCH  21  23
BRANCH  22  25
ATOM     25  O   UNL     1      14.062 -18.126 -53.713  1.00  0.00    -0.504 OA
ATOM     26  H   UNL     1      14.536 -17.323 -53.418  1.00  0.00     0.293 HD
ENDBRANCH  22  25
ENDBRANCH   2  17
TORSDOF 5
ENDMDL
MODEL 7
REMARK VINA RESULT:    -6.704      4.022      6.022
REMARK INTER + INTRA:          -8.652
REMARK INTER:                  -8.319
REMARK INTRA:                  -0.333
REMARK UNBOUND:                -0.380
REMARK SMILES Cn1cc(C(=O)N/N=C/c2ccc(O)c(O)c2)c2ccccc21
REMARK SMILES IDX 8 1 9 2 7 3 5 4 6 5 4 7 2 8 3 9 23 10 22 11 18 12 21 13
REMARK SMILES IDX 19 14 20 15 1 16 10 17 11 18 17 19 12 20 15 21 13 22 16 23
REMARK SMILES IDX 14 25
REMARK H PARENT 7 6 16 24 14 26
ROOT
ATOM      1  N   UNL     1      10.461 -23.345 -48.875  1.00  0.00    -0.180 NA
ATOM      2  C   UNL     1       9.345 -23.838 -48.447  1.00  0.00     0.141 C 
ENDROOT
BRANCH   1   3
ATOM      3  N   UNL     1      11.509 -23.403 -48.002  1.00  0.00    -0.243 N 
ATOM      4  C   UNL     1      12.165 -22.239 -47.612  1.00  0.00     0.273 C 
ATOM      5  O   UNL     1      11.859 -21.118 -48.007  1.00  0.00    -0.267 OA
ATOM      6  H   UNL     1      11.763 -24.288 -47.589  1.00  0.00     0.194 HD
BRANCH   4   7
ATOM      7  C   UNL     1      13.265 -22.455 -46.660  1.00  0.00     0.067 A 
ATOM      8  N   UNL     1      15.284 -22.476 -45.685  1.00  0.00    -0.350 N 
ATOM      9  C   UNL     1      14.598 -22.100 -46.813  1.00  0.00     0.100 A 
ATOM     10  C   UNL     1      14.433 -23.073 -44.783  1.00  0.00     0.049 A 
ATOM     11  C   UNL     1      14.676 -23.609 -43.507  1.00  0.00     0.027 A 
ATOM     12  C   UNL     1      13.160 -23.067 -45.362  1.00  0.00     0.012 A 
ATOM     13  C   UNL     1      13.597 -24.154 -42.806  1.00  0.00     0.002 A 
ATOM     14  C   UNL     1      12.091 -23.626 -44.626  1.00  0.00     0.011 A 
ATOM     15  C   UNL     1      12.320 -24.163 -43.356  1.00  0.00     0.001 A 
ATOM     16  C   UNL     1      16.699 -22.266 -45.472  1.00  0.00     0.149 C 
ENDBRANCH   4   7
ENDBRANCH   1   3
BRANCH   2  17
ATOM     17  C   UNL     1       8.127 -23.841 -49.283  1.00  0.00    -0.002 A 
ATOM     18  C   UNL     1       6.986 -24.549 -48.877  1.00  0.00     0.014 A 
ATOM     19  C   UNL     1       8.132 -23.125 -50.486  1.00  0.00     0.060 A 
ATOM     20  C   UNL     1       5.841 -24.542 -49.675  1.00  0.00     0.051 A 
ATOM     21  C   UNL     1       6.985 -23.127 -51.271  1.00  0.00     0.158 A 
ATOM     22  C   UNL     1       5.851 -23.831 -50.866  1.00  0.00     0.157 A 
BRANCH  21  23
ATOM     23  O   UNL     1       6.918 -22.451 -52.458  1.00  0.00    -0.504 OA
ATOM     24  H   UNL     1       6.936 -21.496 -52.277  1.00  0.00     0.293 HD
ENDBRANCH  21  23
BRANCH  22  25
ATOM     25  O   UNL     1       4.732 -23.826 -51.647  1.00  0.00    -0.504 OA
ATOM     26  H   UNL     1       4.307 -22.964 -51.468  1.00  0.00     0.293 HD
ENDBRANCH  22  25
ENDBRANCH   2  17
TORSDOF 5
ENDMDL
MODEL 8
REMARK VINA RESULT:    -6.470      2.946      4.458
REMARK INTER + INTRA:          -8.363
REMARK INTER:                  -7.981
REMARK INTRA:                  -0.382
REMARK UNBOUND:                -0.380
REMARK SMILES Cn1cc(C(=O)N/N=C/c2ccc(O)c(O)c2)c2ccccc21
REMARK SMILES IDX 8 1 9 2 7 3 5 4 6 5 4 7 2 8 3 9 23 10 22 11 18 12 21 13
REMARK SMILES IDX 19 14 20 15 1 16 10 17 11 18 17 19 12 20 15 21 13 22 16 23
REMARK SMILES IDX 14 25
REMARK H PARENT 7 6 16 24 14 26
ROOT
ATOM      1  N   UNL     1      12.430 -23.546 -47.860  1.00  0.00    -0.180 NA
ATOM      2  C   UNL     1      12.162 -24.512 -48.677  1.00  0.00     0.141 C 
ENDROOT
BRANCH   1   3
ATOM      3  N   UNL     1      13.316 -23.841 -46.863  1.00  0.00    -0.243 N 
ATOM      4  C   UNL     1      13.117 -23.349 -45.577  1.00  0.00     0.273 C 
ATOM      5  O   UNL     1      12.165 -22.643 -45.255  1.00  0.00    -0.267 OA
ATOM      6  H   UNL     1      14.081 -24.473 -47.049  1.00  0.00     0.194 HD
BRANCH   4   7
ATOM      7  C   UNL     1      14.144 -23.758 -44.607  1.00  0.00     0.067 A 
ATOM      8  N   UNL     1      15.216 -24.775 -42.922  1.00  0.00    -0.350 N 
ATOM      9  C   UNL     1      14.018 -24.689 -43.585  1.00  0.00     0.100 A 
ATOM     10  C   UNL     1      16.138 -23.921 -43.483  1.00  0.00     0.049 A 
ATOM     11  C   UNL     1      17.479 -23.668 -43.149  1.00  0.00     0.027 A 
ATOM     12  C   UNL     1      15.498 -23.276 -44.545  1.00  0.00     0.012 A 
ATOM     13  C   UNL     1      18.184 -22.735 -43.914  1.00  0.00     0.002 A 
ATOM     14  C   UNL     1      16.239 -22.338 -45.299  1.00  0.00     0.011 A 
ATOM     15  C   UNL     1      17.574 -22.078 -44.976  1.00  0.00     0.001 A 
ATOM     16  C   UNL     1      15.476 -25.647 -41.798  1.00  0.00     0.149 C 
ENDBRANCH   4   7
ENDBRANCH   1   3
BRANCH   2  17
ATOM     17  C   UNL     1      11.220 -24.338 -49.801  1.00  0.00    -0.002 A 
ATOM     18  C   UNL     1      11.178 -25.272 -50.847  1.00  0.00     0.014 A 
ATOM     19  C   UNL     1      10.370 -23.225 -49.803  1.00  0.00     0.060 A 
ATOM     20  C   UNL     1      10.282 -25.096 -51.903  1.00  0.00     0.051 A 
ATOM     21  C   UNL     1       9.483 -23.062 -50.861  1.00  0.00     0.158 A 
ATOM     22  C   UNL     1       9.442 -23.991 -51.901  1.00  0.00     0.157 A 
BRANCH  21  23
ATOM     23  O   UNL     1       8.624 -22.000 -50.930  1.00  0.00    -0.504 OA
ATOM     24  H   UNL     1       8.979 -21.349 -51.559  1.00  0.00     0.293 HD
ENDBRANCH  21  23
BRANCH  22  25
ATOM     25  O   UNL     1       8.567 -23.819 -52.933  1.00  0.00    -0.504 OA
ATOM     26  H   UNL     1       7.708 -23.635 -52.504  1.00  0.00     0.293 HD
ENDBRANCH  22  25
ENDBRANCH   2  17
TORSDOF 5
ENDMDL
MODEL 9
REMARK VINA RESULT:    -6.438      3.841      9.325
REMARK INTER + INTRA:          -8.324
REMARK INTER:                  -8.064
REMARK INTRA:                  -0.260
REMARK UNBOUND:                -0.380
REMARK SMILES Cn1cc(C(=O)N/N=C/c2ccc(O)c(O)c2)c2ccccc21
REMARK SMILES IDX 8 1 9 2 7 3 5 4 6 5 4 7 2 8 3 9 23 10 22 11 18 12 21 13
REMARK SMILES IDX 19 14 20 15 1 16 10 17 11 18 17 19 12 20 15 21 13 22 16 23
REMARK SMILES IDX 14 25
REMARK H PARENT 7 6 16 24 14 26
ROOT
ATOM      1  N   UNL     1      12.574 -22.723 -46.676  1.00  0.00    -0.180 NA
ATOM      2  C   UNL     1      13.768 -23.218 -46.612  1.00  0.00     0.141 C 
ENDROOT
BRANCH   1   3
ATOM      3  N   UNL     1      11.907 -22.931 -47.849  1.00  0.00    -0.243 N 
ATOM      4  C   UNL     1      10.838 -23.820 -47.902  1.00  0.00     0.273 C 
ATOM      5  O   UNL     1      10.430 -24.456 -46.933  1.00  0.00    -0.267 OA
ATOM      6  H   UNL     1      12.151 -22.386 -48.663  1.00  0.00     0.194 HD
BRANCH   4   7
ATOM      7  C   UNL     1      10.210 -23.933 -49.226  1.00  0.00     0.067 A 
ATOM      8  N   UNL     1       9.883 -24.047 -51.441  1.00  0.00    -0.350 N 
ATOM      9  C   UNL     1      10.836 -23.898 -50.465  1.00  0.00     0.100 A 
ATOM     10  C   UNL     1       8.635 -24.182 -50.878  1.00  0.00     0.049 A 
ATOM     11  C   UNL     1       7.373 -24.357 -51.470  1.00  0.00     0.027 A 
ATOM     12  C   UNL     1       8.808 -24.122 -49.491  1.00  0.00     0.012 A 
ATOM     13  C   UNL     1       6.262 -24.472 -50.630  1.00  0.00     0.002 A 
ATOM     14  C   UNL     1       7.664 -24.241 -48.671  1.00  0.00     0.011 A 
ATOM     15  C   UNL     1       6.403 -24.415 -49.249  1.00  0.00     0.001 A 
ATOM     16  C   UNL     1      10.154 -24.068 -52.861  1.00  0.00     0.149 C 
ENDBRANCH   4   7
ENDBRANCH   1   3
BRANCH   2  17
ATOM     17  C   UNL     1      14.606 -23.068 -45.405  1.00  0.00    -0.002 A 
ATOM     18  C   UNL     1      14.151 -23.526 -44.160  1.00  0.00     0.014 A 
ATOM     19  C   UNL     1      15.863 -22.462 -45.528  1.00  0.00     0.060 A 
ATOM     20  C   UNL     1      14.954 -23.379 -43.027  1.00  0.00     0.051 A 
ATOM     21  C   UNL     1      16.651 -22.323 -44.391  1.00  0.00     0.158 A 
ATOM     22  C   UNL     1      16.198 -22.778 -43.154  1.00  0.00     0.157 A 
BRANCH  21  23
ATOM     23  O   UNL     1      17.888 -21.741 -44.435  1.00  0.00    -0.504 OA
ATOM     24  H   UNL     1      17.794 -20.825 -44.746  1.00  0.00     0.293 HD
ENDBRANCH  21  23
BRANCH  22  25
ATOM     25  O   UNL     1      16.982 -22.635 -42.046  1.00  0.00    -0.504 OA
ATOM     26  H   UNL     1      17.494 -21.817 -42.207  1.00  0.00     0.293 HD
ENDBRANCH  22  25
ENDBRANCH   2  17
TORSDOF 5
ENDMDL
