REMARK SMILES N#Cc1nc(=O)n(-c2ccccc2)c(N)c1/N=C\c1cccs1
REMARK SMILES IDX 1 1 2 2 3 3 4 4 5 5 6 6 7 7 14 8 16 9 17 10 18 11 19 12
REMARK SMILES IDX 20 13 23 14 21 15 22 16 15 17 8 20 9 21 13 22 10 23 12 24
REMARK SMILES IDX 11 25
REMARK H PARENT 15 18 15 19
ROOT
ATOM      1  N   UNL     1       1.992  -3.174   2.257  1.00  0.00    -0.191 NA
ATOM      2  C   UNL     1       1.245  -2.322   1.996  1.00  0.00     0.122 C 
ATOM      3  C   UNL     1       0.305  -1.277   1.642  1.00  0.00     0.175 C 
ATOM      4  N   UNL     1       0.505  -0.213   2.332  1.00  0.00    -0.179 NA
ATOM      5  C   UNL     1      -0.293   0.876   2.091  1.00  0.00     0.355 C 
ATOM      6  O   UNL     1      -0.024   1.925   2.671  1.00  0.00    -0.245 OA
ATOM      7  N   UNL     1      -1.372   0.755   1.169  1.00  0.00    -0.245 N 
ATOM      8  C   UNL     1      -1.588  -0.445   0.466  1.00  0.00     0.141 C 
ATOM      9  C   UNL     1      -0.730  -1.481   0.615  1.00  0.00     0.140 C 
ENDROOT
BRANCH   9  10
ATOM     10  N   UNL     1      -0.874  -2.699  -0.005  1.00  0.00    -0.248 NA
ATOM     11  C   UNL     1      -0.438  -2.866  -1.224  1.00  0.00     0.131 C 
BRANCH  11  12
ATOM     12  C   UNL     1       0.261  -1.980  -2.135  1.00  0.00     0.045 A 
ATOM     13  C   UNL     1       0.159  -2.001  -3.515  1.00  0.00     0.021 A 
ATOM     14  S   UNL     1       1.425  -0.834  -1.628  1.00  0.00    -0.143 S 
ATOM     15  C   UNL     1       0.997  -1.035  -4.144  1.00  0.00     0.012 A 
ATOM     16  C   UNL     1       1.736  -0.325  -3.227  1.00  0.00     0.065 A 
ENDBRANCH  11  12
ENDBRANCH   9  10
BRANCH   8  17
ATOM     17  N   UNL     1      -2.710  -0.637  -0.353  1.00  0.00    -0.383 N 
ATOM     18  H   UNL     1      -3.522  -0.151   0.024  1.00  0.00     0.158 HD
ATOM     19  H   UNL     1      -2.903  -1.633  -0.471  1.00  0.00     0.158 HD
ENDBRANCH   8  17
BRANCH   7  20
ATOM     20  C   UNL     1      -2.181   1.932   0.932  1.00  0.00     0.052 A 
ATOM     21  C   UNL     1      -2.605   2.749   1.991  1.00  0.00     0.027 A 
ATOM     22  C   UNL     1      -2.569   2.290  -0.370  1.00  0.00     0.027 A 
ATOM     23  C   UNL     1      -3.398   3.877   1.759  1.00  0.00     0.002 A 
ATOM     24  C   UNL     1      -3.361   3.419  -0.604  1.00  0.00     0.002 A 
ATOM     25  C   UNL     1      -3.778   4.210   0.462  1.00  0.00     0.000 A 
ENDBRANCH   7  20
TORSDOF 4
