MODEL 1
REMARK VINA RESULT:    -9.541      0.000      0.000
REMARK INTER + INTRA:         -14.736
REMARK INTER:                 -14.004
REMARK INTRA:                  -0.732
REMARK UNBOUND:                -0.732
REMARK SMILES CCc1ccc(OCC(=O)Nc2ccc(SCc3nc4ccccc4[nH]c3=O)cc2)cc1
REMARK SMILES IDX 9 1 10 2 11 3 8 5 7 6 6 7 3 8 4 9 32 10 5 11 31 12 2 13 1 14
REMARK SMILES IDX 12 15 13 16 30 17 14 18 29 19 15 20 16 21 17 22 18 23 19 24
REMARK SMILES IDX 27 25 20 26 26 27 28 28 21 29 25 30 22 31 24 32 23 33
REMARK H PARENT 11 4 26 34
ROOT
ATOM      1  C   UNL     1      13.469 -20.321 -51.501  1.00  0.00     0.262 C 
ATOM      2  O   UNL     1      12.667 -21.207 -51.784  1.00  0.00    -0.271 OA
ATOM      3  N   UNL     1      14.105 -20.136 -50.287  1.00  0.00    -0.323 N 
ATOM      4  H   UNL     1      14.703 -19.317 -50.236  1.00  0.00     0.170 HD
ENDROOT
BRANCH   1   5
ATOM      5  C   UNL     1      13.892 -19.288 -52.554  1.00  0.00     0.329 C 
BRANCH   5   6
ATOM      6  O   UNL     1      14.987 -19.675 -53.376  1.00  0.00    -0.484 OA
BRANCH   6   7
ATOM      7  C   UNL     1      16.030 -18.799 -53.504  1.00  0.00     0.120 A 
ATOM      8  C   UNL     1      17.978 -16.778 -53.717  1.00  0.00    -0.048 A 
ATOM      9  C   UNL     1      18.272 -18.094 -54.089  1.00  0.00     0.007 A 
ATOM     10  C   UNL     1      16.701 -16.482 -53.232  1.00  0.00     0.007 A 
ATOM     11  C   UNL     1      17.303 -19.100 -53.987  1.00  0.00     0.047 A 
ATOM     12  C   UNL     1      15.735 -17.486 -53.133  1.00  0.00     0.047 A 
BRANCH   8  13
ATOM     13  C   UNL     1      19.030 -15.702 -53.812  1.00  0.00     0.032 C 
ATOM     14  C   UNL     1      18.715 -14.521 -52.906  1.00  0.00     0.009 C 
ENDBRANCH   8  13
ENDBRANCH   6   7
ENDBRANCH   5   6
ENDBRANCH   1   5
BRANCH   3  15
ATOM     15  C   UNL     1      13.973 -20.896 -49.111  1.00  0.00     0.041 A 
ATOM     16  C   UNL     1      12.833 -20.670 -48.330  1.00  0.00     0.027 A 
ATOM     17  C   UNL     1      14.899 -21.850 -48.690  1.00  0.00     0.027 A 
ATOM     18  C   UNL     1      12.630 -21.381 -47.144  1.00  0.00     0.017 A 
ATOM     19  C   UNL     1      14.694 -22.563 -47.501  1.00  0.00     0.017 A 
ATOM     20  C   UNL     1      13.567 -22.322 -46.715  1.00  0.00     0.008 A 
BRANCH  20  21
ATOM     21  S   UNL     1      13.277 -23.204 -45.193  1.00  0.00    -0.119 SA
BRANCH  21  22
ATOM     22  C   UNL     1      14.961 -23.807 -44.818  1.00  0.00     0.137 C 
BRANCH  22  23
ATOM     23  C   UNL     1      15.128 -24.043 -43.339  1.00  0.00     0.116 C 
ATOM     24  N   UNL     1      14.103 -23.946 -42.539  1.00  0.00    -0.245 NA
ATOM     25  C   UNL     1      16.531 -24.399 -42.853  1.00  0.00     0.271 C 
ATOM     26  C   UNL     1      14.296 -24.231 -41.177  1.00  0.00     0.087 A 
ATOM     27  N   UNL     1      16.645 -24.676 -41.513  1.00  0.00    -0.319 N 
ATOM     28  O   UNL     1      17.483 -24.412 -43.619  1.00  0.00    -0.267 OA
ATOM     29  C   UNL     1      13.201 -24.157 -40.316  1.00  0.00     0.030 A 
ATOM     30  C   UNL     1      15.546 -24.598 -40.654  1.00  0.00     0.067 A 
ATOM     31  C   UNL     1      13.351 -24.438 -38.955  1.00  0.00     0.002 A 
ATOM     32  C   UNL     1      15.703 -24.880 -39.297  1.00  0.00     0.028 A 
ATOM     33  C   UNL     1      14.600 -24.799 -38.447  1.00  0.00     0.002 A 
ATOM     34  H   UNL     1      17.563 -24.918 -41.169  1.00  0.00     0.170 HD
ENDBRANCH  22  23
ENDBRANCH  21  22
ENDBRANCH  20  21
ENDBRANCH   3  15
TORSDOF 8
ENDMDL
MODEL 2
REMARK VINA RESULT:    -8.480      2.074      3.465
REMARK INTER + INTRA:         -13.178
REMARK INTER:                 -12.275
REMARK INTRA:                  -0.903
REMARK UNBOUND:                -0.732
REMARK SMILES CCc1ccc(OCC(=O)Nc2ccc(SCc3nc4ccccc4[nH]c3=O)cc2)cc1
REMARK SMILES IDX 9 1 10 2 11 3 8 5 7 6 6 7 3 8 4 9 32 10 5 11 31 12 2 13 1 14
REMARK SMILES IDX 12 15 13 16 30 17 14 18 29 19 15 20 16 21 17 22 18 23 19 24
REMARK SMILES IDX 27 25 20 26 26 27 28 28 21 29 25 30 22 31 24 32 23 33
REMARK H PARENT 11 4 26 34
ROOT
ATOM      1  C   UNL     1      12.703 -21.734 -47.907  1.00  0.00     0.262 C 
ATOM      2  O   UNL     1      12.550 -21.247 -46.790  1.00  0.00    -0.271 OA
ATOM      3  N   UNL     1      13.513 -22.805 -48.240  1.00  0.00    -0.323 N 
ATOM      4  H   UNL     1      13.537 -23.034 -49.229  1.00  0.00     0.170 HD
ENDROOT
BRANCH   1   5
ATOM      5  C   UNL     1      11.927 -21.183 -49.110  1.00  0.00     0.329 C 
BRANCH   5   6
ATOM      6  O   UNL     1      12.533 -21.411 -50.378  1.00  0.00    -0.484 OA
BRANCH   6   7
ATOM      7  C   UNL     1      13.162 -20.359 -50.984  1.00  0.00     0.120 A 
ATOM      8  C   UNL     1      14.490 -18.372 -52.472  1.00  0.00    -0.048 A 
ATOM      9  C   UNL     1      14.239 -18.193 -51.107  1.00  0.00     0.007 A 
ATOM     10  C   UNL     1      14.065 -19.553 -53.088  1.00  0.00     0.007 A 
ATOM     11  C   UNL     1      13.581 -19.182 -50.365  1.00  0.00     0.047 A 
ATOM     12  C   UNL     1      13.412 -20.539 -52.346  1.00  0.00     0.047 A 
BRANCH   8  13
ATOM     13  C   UNL     1      15.183 -17.297 -53.270  1.00  0.00     0.032 C 
ATOM     14  C   UNL     1      16.489 -16.864 -52.623  1.00  0.00     0.009 C 
ENDBRANCH   8  13
ENDBRANCH   6   7
ENDBRANCH   5   6
ENDBRANCH   1   5
BRANCH   3  15
ATOM     15  C   UNL     1      14.347 -23.560 -47.395  1.00  0.00     0.041 A 
ATOM     16  C   UNL     1      15.540 -22.960 -46.974  1.00  0.00     0.027 A 
ATOM     17  C   UNL     1      14.052 -24.851 -46.959  1.00  0.00     0.027 A 
ATOM     18  C   UNL     1      16.426 -23.645 -46.138  1.00  0.00     0.017 A 
ATOM     19  C   UNL     1      14.941 -25.538 -46.122  1.00  0.00     0.017 A 
ATOM     20  C   UNL     1      16.138 -24.945 -45.718  1.00  0.00     0.008 A 
BRANCH  20  21
ATOM     21  S   UNL     1      17.295 -25.790 -44.658  1.00  0.00    -0.119 SA
BRANCH  21  22
ATOM     22  C   UNL     1      17.660 -24.483 -43.435  1.00  0.00     0.137 C 
BRANCH  22  23
ATOM     23  C   UNL     1      16.935 -24.744 -42.140  1.00  0.00     0.116 C 
ATOM     24  N   UNL     1      15.770 -24.203 -41.919  1.00  0.00    -0.245 NA
ATOM     25  C   UNL     1      17.629 -25.663 -41.136  1.00  0.00     0.271 C 
ATOM     26  C   UNL     1      15.107 -24.521 -40.722  1.00  0.00     0.087 A 
ATOM     27  N   UNL     1      16.919 -25.940 -39.994  1.00  0.00    -0.319 N 
ATOM     28  O   UNL     1      18.752 -26.097 -41.345  1.00  0.00    -0.267 OA
ATOM     29  C   UNL     1      13.848 -23.969 -40.487  1.00  0.00     0.030 A 
ATOM     30  C   UNL     1      15.659 -25.383 -39.762  1.00  0.00     0.067 A 
ATOM     31  C   UNL     1      13.154 -24.266 -39.311  1.00  0.00     0.002 A 
ATOM     32  C   UNL     1      14.973 -25.684 -38.585  1.00  0.00     0.028 A 
ATOM     33  C   UNL     1      13.715 -25.121 -38.362  1.00  0.00     0.002 A 
ATOM     34  H   UNL     1      17.356 -26.549 -39.316  1.00  0.00     0.170 HD
ENDBRANCH  22  23
ENDBRANCH  21  22
ENDBRANCH  20  21
ENDBRANCH   3  15
TORSDOF 8
ENDMDL
MODEL 3
REMARK VINA RESULT:    -8.271      2.067      3.056
REMARK INTER + INTRA:         -12.871
REMARK INTER:                 -12.582
REMARK INTRA:                  -0.289
REMARK UNBOUND:                -0.732
REMARK SMILES CCc1ccc(OCC(=O)Nc2ccc(SCc3nc4ccccc4[nH]c3=O)cc2)cc1
REMARK SMILES IDX 9 1 10 2 11 3 8 5 7 6 6 7 3 8 4 9 32 10 5 11 31 12 2 13 1 14
REMARK SMILES IDX 12 15 13 16 30 17 14 18 29 19 15 20 16 21 17 22 18 23 19 24
REMARK SMILES IDX 27 25 20 26 26 27 28 28 21 29 25 30 22 31 24 32 23 33
REMARK H PARENT 11 4 26 34
ROOT
ATOM      1  C   UNL     1      13.604 -19.579 -51.415  1.00  0.00     0.262 C 
ATOM      2  O   UNL     1      13.134 -20.370 -52.229  1.00  0.00    -0.271 OA
ATOM      3  N   UNL     1      13.716 -19.765 -50.049  1.00  0.00    -0.323 N 
ATOM      4  H   UNL     1      14.096 -18.974 -49.538  1.00  0.00     0.170 HD
ENDROOT
BRANCH   1   5
ATOM      5  C   UNL     1      14.181 -18.236 -51.879  1.00  0.00     0.329 C 
BRANCH   5   6
ATOM      6  O   UNL     1      14.703 -18.225 -53.203  1.00  0.00    -0.484 OA
BRANCH   6   7
ATOM      7  C   UNL     1      16.053 -18.068 -53.358  1.00  0.00     0.120 A 
ATOM      8  C   UNL     1      18.790 -17.455 -53.599  1.00  0.00    -0.048 A 
ATOM      9  C   UNL     1      18.290 -18.680 -54.053  1.00  0.00     0.007 A 
ATOM     10  C   UNL     1      17.908 -16.539 -53.018  1.00  0.00     0.007 A 
ATOM     11  C   UNL     1      16.929 -18.985 -53.936  1.00  0.00     0.047 A 
ATOM     12  C   UNL     1      16.549 -16.844 -52.904  1.00  0.00     0.047 A 
BRANCH   8  13
ATOM     13  C   UNL     1      20.259 -17.139 -53.711  1.00  0.00     0.032 C 
ATOM     14  C   UNL     1      20.498 -15.690 -54.108  1.00  0.00     0.009 C 
ENDBRANCH   8  13
ENDBRANCH   6   7
ENDBRANCH   5   6
ENDBRANCH   1   5
BRANCH   3  15
ATOM     15  C   UNL     1      13.311 -20.874 -49.286  1.00  0.00     0.041 A 
ATOM     16  C   UNL     1      14.315 -21.740 -48.837  1.00  0.00     0.027 A 
ATOM     17  C   UNL     1      11.985 -21.153 -48.956  1.00  0.00     0.027 A 
ATOM     18  C   UNL     1      13.995 -22.869 -48.077  1.00  0.00     0.017 A 
ATOM     19  C   UNL     1      11.665 -22.284 -48.195  1.00  0.00     0.017 A 
ATOM     20  C   UNL     1      12.666 -23.156 -47.764  1.00  0.00     0.008 A 
BRANCH  20  21
ATOM     21  S   UNL     1      12.295 -24.608 -46.799  1.00  0.00    -0.119 SA
BRANCH  21  22
ATOM     22  C   UNL     1      12.207 -23.893 -45.120  1.00  0.00     0.137 C 
BRANCH  22  23
ATOM     23  C   UNL     1      13.582 -23.775 -44.515  1.00  0.00     0.116 C 
ATOM     24  N   UNL     1      14.607 -23.489 -45.267  1.00  0.00    -0.245 NA
ATOM     25  C   UNL     1      13.693 -23.996 -43.008  1.00  0.00     0.271 C 
ATOM     26  C   UNL     1      15.859 -23.332 -44.650  1.00  0.00     0.087 A 
ATOM     27  N   UNL     1      14.943 -23.815 -42.470  1.00  0.00    -0.319 N 
ATOM     28  O   UNL     1      12.724 -24.331 -42.344  1.00  0.00    -0.267 OA
ATOM     29  C   UNL     1      16.959 -22.999 -45.441  1.00  0.00     0.030 A 
ATOM     30  C   UNL     1      16.042 -23.485 -43.267  1.00  0.00     0.067 A 
ATOM     31  C   UNL     1      18.221 -22.828 -44.865  1.00  0.00     0.002 A 
ATOM     32  C   UNL     1      17.298 -23.316 -42.684  1.00  0.00     0.028 A 
ATOM     33  C   UNL     1      18.389 -22.987 -43.488  1.00  0.00     0.002 A 
ATOM     34  H   UNL     1      15.041 -23.952 -41.474  1.00  0.00     0.170 HD
ENDBRANCH  22  23
ENDBRANCH  21  22
ENDBRANCH  20  21
ENDBRANCH   3  15
TORSDOF 8
ENDMDL
MODEL 4
REMARK VINA RESULT:    -8.181      4.875     11.344
REMARK INTER + INTRA:         -12.739
REMARK INTER:                 -11.861
REMARK INTRA:                  -0.878
REMARK UNBOUND:                -0.732
REMARK SMILES CCc1ccc(OCC(=O)Nc2ccc(SCc3nc4ccccc4[nH]c3=O)cc2)cc1
REMARK SMILES IDX 9 1 10 2 11 3 8 5 7 6 6 7 3 8 4 9 32 10 5 11 31 12 2 13 1 14
REMARK SMILES IDX 12 15 13 16 30 17 14 18 29 19 15 20 16 21 17 22 18 23 19 24
REMARK SMILES IDX 27 25 20 26 26 27 28 28 21 29 25 30 22 31 24 32 23 33
REMARK H PARENT 11 4 26 34
ROOT
ATOM      1  C   UNL     1      16.594 -22.781 -44.486  1.00  0.00     0.262 C 
ATOM      2  O   UNL     1      16.397 -21.591 -44.256  1.00  0.00    -0.271 OA
ATOM      3  N   UNL     1      16.030 -23.534 -45.501  1.00  0.00    -0.323 N 
ATOM      4  H   UNL     1      16.288 -24.516 -45.501  1.00  0.00     0.170 HD
ENDROOT
BRANCH   1   5
ATOM      5  C   UNL     1      17.580 -23.587 -43.630  1.00  0.00     0.329 C 
BRANCH   5   6
ATOM      6  O   UNL     1      17.055 -24.785 -43.068  1.00  0.00    -0.484 OA
BRANCH   6   7
ATOM      7  C   UNL     1      16.024 -24.673 -42.176  1.00  0.00     0.120 A 
ATOM      8  C   UNL     1      14.110 -24.428 -40.126  1.00  0.00    -0.048 A 
ATOM      9  C   UNL     1      13.723 -24.769 -41.426  1.00  0.00     0.007 A 
ATOM     10  C   UNL     1      15.465 -24.206 -39.861  1.00  0.00     0.007 A 
ATOM     11  C   UNL     1      14.674 -24.894 -42.446  1.00  0.00     0.047 A 
ATOM     12  C   UNL     1      16.413 -24.334 -40.879  1.00  0.00     0.047 A 
BRANCH   8  13
ATOM     13  C   UNL     1      13.081 -24.276 -39.035  1.00  0.00     0.032 C 
ATOM     14  C   UNL     1      13.711 -23.847 -37.718  1.00  0.00     0.009 C 
ENDBRANCH   8  13
ENDBRANCH   6   7
ENDBRANCH   5   6
ENDBRANCH   1   5
BRANCH   3  15
ATOM     15  C   UNL     1      15.105 -23.122 -46.477  1.00  0.00     0.041 A 
ATOM     16  C   UNL     1      13.827 -23.692 -46.425  1.00  0.00     0.027 A 
ATOM     17  C   UNL     1      15.386 -22.190 -47.475  1.00  0.00     0.027 A 
ATOM     18  C   UNL     1      12.851 -23.341 -47.362  1.00  0.00     0.017 A 
ATOM     19  C   UNL     1      14.407 -21.838 -48.414  1.00  0.00     0.017 A 
ATOM     20  C   UNL     1      13.140 -22.421 -48.372  1.00  0.00     0.008 A 
BRANCH  20  21
ATOM     21  S   UNL     1      11.873 -22.003 -49.553  1.00  0.00    -0.119 SA
BRANCH  21  22
ATOM     22  C   UNL     1      11.177 -23.654 -49.912  1.00  0.00     0.137 C 
BRANCH  22  23
ATOM     23  C   UNL     1       9.671 -23.609 -49.925  1.00  0.00     0.116 C 
ATOM     24  N   UNL     1       9.035 -23.221 -50.995  1.00  0.00    -0.245 NA
ATOM     25  C   UNL     1       8.958 -24.041 -48.645  1.00  0.00     0.271 C 
ATOM     26  C   UNL     1       7.631 -23.251 -50.978  1.00  0.00     0.087 A 
ATOM     27  N   UNL     1       7.586 -24.057 -48.704  1.00  0.00    -0.319 N 
ATOM     28  O   UNL     1       9.585 -24.331 -47.638  1.00  0.00    -0.267 OA
ATOM     29  C   UNL     1       6.939 -22.864 -52.127  1.00  0.00     0.030 A 
ATOM     30  C   UNL     1       6.899 -23.666 -49.856  1.00  0.00     0.067 A 
ATOM     31  C   UNL     1       5.542 -22.885 -52.153  1.00  0.00     0.002 A 
ATOM     32  C   UNL     1       5.504 -23.690 -49.873  1.00  0.00     0.028 A 
ATOM     33  C   UNL     1       4.827 -23.297 -51.028  1.00  0.00     0.002 A 
ATOM     34  H   UNL     1       7.093 -24.344 -47.871  1.00  0.00     0.170 HD
ENDBRANCH  22  23
ENDBRANCH  21  22
ENDBRANCH  20  21
ENDBRANCH   3  15
TORSDOF 8
ENDMDL
MODEL 5
REMARK VINA RESULT:    -8.000      5.261     11.996
REMARK INTER + INTRA:         -12.473
REMARK INTER:                 -12.184
REMARK INTRA:                  -0.289
REMARK UNBOUND:                -0.732
REMARK SMILES CCc1ccc(OCC(=O)Nc2ccc(SCc3nc4ccccc4[nH]c3=O)cc2)cc1
REMARK SMILES IDX 9 1 10 2 11 3 8 5 7 6 6 7 3 8 4 9 32 10 5 11 31 12 2 13 1 14
REMARK SMILES IDX 12 15 13 16 30 17 14 18 29 19 15 20 16 21 17 22 18 23 19 24
REMARK SMILES IDX 27 25 20 26 26 27 28 28 21 29 25 30 22 31 24 32 23 33
REMARK H PARENT 11 4 26 34
ROOT
ATOM      1  C   UNL     1      15.287 -22.368 -45.783  1.00  0.00     0.262 C 
ATOM      2  O   UNL     1      16.064 -22.348 -46.735  1.00  0.00    -0.271 OA
ATOM      3  N   UNL     1      13.906 -22.406 -45.841  1.00  0.00    -0.323 N 
ATOM      4  H   UNL     1      13.437 -22.376 -44.941  1.00  0.00     0.170 HD
ENDROOT
BRANCH   1   5
ATOM      5  C   UNL     1      15.819 -22.391 -44.344  1.00  0.00     0.329 C 
BRANCH   5   6
ATOM      6  O   UNL     1      15.929 -23.684 -43.759  1.00  0.00    -0.484 OA
BRANCH   6   7
ATOM      7  C   UNL     1      15.184 -23.946 -42.643  1.00  0.00     0.120 A 
ATOM      8  C   UNL     1      13.910 -24.512 -40.197  1.00  0.00    -0.048 A 
ATOM      9  C   UNL     1      13.182 -24.487 -41.392  1.00  0.00     0.007 A 
ATOM     10  C   UNL     1      15.282 -24.246 -40.236  1.00  0.00     0.007 A 
ATOM     11  C   UNL     1      13.815 -24.209 -42.609  1.00  0.00     0.047 A 
ATOM     12  C   UNL     1      15.912 -23.970 -41.452  1.00  0.00     0.047 A 
BRANCH   8  13
ATOM     13  C   UNL     1      13.221 -24.795 -38.886  1.00  0.00     0.032 C 
ATOM     14  C   UNL     1      13.640 -23.813 -37.803  1.00  0.00     0.009 C 
ENDBRANCH   8  13
ENDBRANCH   6   7
ENDBRANCH   5   6
ENDBRANCH   1   5
BRANCH   3  15
ATOM     15  C   UNL     1      13.084 -22.414 -46.983  1.00  0.00     0.041 A 
ATOM     16  C   UNL     1      12.674 -23.663 -47.465  1.00  0.00     0.027 A 
ATOM     17  C   UNL     1      12.660 -21.263 -47.647  1.00  0.00     0.027 A 
ATOM     18  C   UNL     1      11.860 -23.757 -48.598  1.00  0.00     0.017 A 
ATOM     19  C   UNL     1      11.845 -21.359 -48.782  1.00  0.00     0.017 A 
ATOM     20  C   UNL     1      11.452 -22.605 -49.272  1.00  0.00     0.008 A 
BRANCH  20  21
ATOM     21  S   UNL     1      10.421 -22.765 -50.717  1.00  0.00    -0.119 SA
BRANCH  21  22
ATOM     22  C   UNL     1       9.039 -23.755 -50.046  1.00  0.00     0.137 C 
BRANCH  22  23
ATOM     23  C   UNL     1       7.755 -23.439 -50.767  1.00  0.00     0.116 C 
ATOM     24  N   UNL     1       6.692 -23.096 -50.095  1.00  0.00    -0.245 NA
ATOM     25  C   UNL     1       7.779 -23.535 -52.292  1.00  0.00     0.271 C 
ATOM     26  C   UNL     1       5.534 -22.754 -50.814  1.00  0.00     0.087 A 
ATOM     27  N   UNL     1       6.617 -23.176 -52.930  1.00  0.00    -0.319 N 
ATOM     28  O   UNL     1       8.772 -23.927 -52.886  1.00  0.00    -0.267 OA
ATOM     29  C   UNL     1       4.398 -22.360 -50.106  1.00  0.00     0.030 A 
ATOM     30  C   UNL     1       5.482 -22.784 -52.216  1.00  0.00     0.067 A 
ATOM     31  C   UNL     1       3.229 -22.007 -50.785  1.00  0.00     0.002 A 
ATOM     32  C   UNL     1       4.318 -22.434 -52.901  1.00  0.00     0.028 A 
ATOM     33  C   UNL     1       3.189 -22.044 -52.179  1.00  0.00     0.002 A 
ATOM     34  H   UNL     1       6.610 -23.228 -53.938  1.00  0.00     0.170 HD
ENDBRANCH  22  23
ENDBRANCH  21  22
ENDBRANCH  20  21
ENDBRANCH   3  15
TORSDOF 8
ENDMDL
MODEL 6
REMARK VINA RESULT:    -7.999      7.300     13.157
REMARK INTER + INTRA:         -12.471
REMARK INTER:                 -11.767
REMARK INTRA:                  -0.704
REMARK UNBOUND:                -0.732
REMARK SMILES CCc1ccc(OCC(=O)Nc2ccc(SCc3nc4ccccc4[nH]c3=O)cc2)cc1
REMARK SMILES IDX 9 1 10 2 11 3 8 5 7 6 6 7 3 8 4 9 32 10 5 11 31 12 2 13 1 14
REMARK SMILES IDX 12 15 13 16 30 17 14 18 29 19 15 20 16 21 17 22 18 23 19 24
REMARK SMILES IDX 27 25 20 26 26 27 28 28 21 29 25 30 22 31 24 32 23 33
REMARK H PARENT 11 4 26 34
ROOT
ATOM      1  C   UNL     1      12.179 -23.858 -46.190  1.00  0.00     0.262 C 
ATOM      2  O   UNL     1      11.946 -22.682 -45.920  1.00  0.00    -0.271 OA
ATOM      3  N   UNL     1      11.612 -24.603 -47.207  1.00  0.00    -0.323 N 
ATOM      4  H   UNL     1      11.904 -25.575 -47.243  1.00  0.00     0.170 HD
ENDROOT
BRANCH   1   5
ATOM      5  C   UNL     1      13.220 -24.649 -45.387  1.00  0.00     0.329 C 
BRANCH   5   6
ATOM      6  O   UNL     1      14.089 -23.862 -44.580  1.00  0.00    -0.484 OA
BRANCH   6   7
ATOM      7  C   UNL     1      14.072 -24.074 -43.229  1.00  0.00     0.120 A 
ATOM      8  C   UNL     1      14.339 -24.496 -40.458  1.00  0.00    -0.048 A 
ATOM      9  C   UNL     1      13.103 -24.667 -41.090  1.00  0.00     0.007 A 
ATOM     10  C   UNL     1      15.441 -24.106 -41.224  1.00  0.00     0.007 A 
ATOM     11  C   UNL     1      12.969 -24.460 -42.469  1.00  0.00     0.047 A 
ATOM     12  C   UNL     1      15.307 -23.903 -42.600  1.00  0.00     0.047 A 
BRANCH   8  13
ATOM     13  C   UNL     1      14.474 -24.703 -38.971  1.00  0.00     0.032 C 
ATOM     14  C   UNL     1      13.513 -23.821 -38.188  1.00  0.00     0.009 C 
ENDBRANCH   8  13
ENDBRANCH   6   7
ENDBRANCH   5   6
ENDBRANCH   1   5
BRANCH   3  15
ATOM     15  C   UNL     1      10.642 -24.200 -48.143  1.00  0.00     0.041 A 
ATOM     16  C   UNL     1       9.310 -24.531 -47.864  1.00  0.00     0.027 A 
ATOM     17  C   UNL     1      10.930 -23.497 -49.313  1.00  0.00     0.027 A 
ATOM     18  C   UNL     1       8.287 -24.172 -48.746  1.00  0.00     0.017 A 
ATOM     19  C   UNL     1       9.904 -23.138 -50.196  1.00  0.00     0.017 A 
ATOM     20  C   UNL     1       8.579 -23.485 -49.925  1.00  0.00     0.008 A 
BRANCH  20  21
ATOM     21  S   UNL     1       7.249 -23.050 -51.029  1.00  0.00    -0.119 SA
BRANCH  21  22
ATOM     22  C   UNL     1       5.814 -23.723 -50.121  1.00  0.00     0.137 C 
BRANCH  22  23
ATOM     23  C   UNL     1       4.532 -23.093 -50.602  1.00  0.00     0.116 C 
ATOM     24  N   UNL     1       4.195 -23.168 -51.859  1.00  0.00    -0.245 NA
ATOM     25  C   UNL     1       3.675 -22.388 -49.552  1.00  0.00     0.271 C 
ATOM     26  C   UNL     1       2.964 -22.615 -52.249  1.00  0.00     0.087 A 
ATOM     27  N   UNL     1       2.481 -21.881 -50.001  1.00  0.00    -0.319 N 
ATOM     28  O   UNL     1       4.055 -22.275 -48.396  1.00  0.00    -0.267 OA
ATOM     29  C   UNL     1       2.580 -22.713 -53.587  1.00  0.00     0.030 A 
ATOM     30  C   UNL     1       2.102 -21.980 -51.342  1.00  0.00     0.067 A 
ATOM     31  C   UNL     1       1.360 -22.181 -54.014  1.00  0.00     0.002 A 
ATOM     32  C   UNL     1       0.883 -21.446 -51.761  1.00  0.00     0.028 A 
ATOM     33  C   UNL     1       0.514 -21.549 -53.102  1.00  0.00     0.002 A 
ATOM     34  H   UNL     1       1.895 -21.414 -49.324  1.00  0.00     0.170 HD
ENDBRANCH  22  23
ENDBRANCH  21  22
ENDBRANCH  20  21
ENDBRANCH   3  15
TORSDOF 8
ENDMDL
MODEL 7
REMARK VINA RESULT:    -7.937      4.739      7.421
REMARK INTER + INTRA:         -12.381
REMARK INTER:                 -11.615
REMARK INTRA:                  -0.765
REMARK UNBOUND:                -0.732
REMARK SMILES CCc1ccc(OCC(=O)Nc2ccc(SCc3nc4ccccc4[nH]c3=O)cc2)cc1
REMARK SMILES IDX 9 1 10 2 11 3 8 5 7 6 6 7 3 8 4 9 32 10 5 11 31 12 2 13 1 14
REMARK SMILES IDX 12 15 13 16 30 17 14 18 29 19 15 20 16 21 17 22 18 23 19 24
REMARK SMILES IDX 27 25 20 26 26 27 28 28 21 29 25 30 22 31 24 32 23 33
REMARK H PARENT 11 4 26 34
ROOT
ATOM      1  C   UNL     1      11.356 -22.277 -49.617  1.00  0.00     0.262 C 
ATOM      2  O   UNL     1      11.560 -21.066 -49.602  1.00  0.00    -0.271 OA
ATOM      3  N   UNL     1      11.926 -23.224 -48.786  1.00  0.00    -0.323 N 
ATOM      4  H   UNL     1      11.660 -24.185 -48.983  1.00  0.00     0.170 HD
ENDROOT
BRANCH   1   5
ATOM      5  C   UNL     1      10.352 -22.885 -50.606  1.00  0.00     0.329 C 
BRANCH   5   6
ATOM      6  O   UNL     1       9.458 -23.842 -50.050  1.00  0.00    -0.484 OA
BRANCH   6   7
ATOM      7  C   UNL     1       8.116 -23.602 -50.159  1.00  0.00     0.120 A 
ATOM      8  C   UNL     1       5.312 -23.346 -50.209  1.00  0.00    -0.048 A 
ATOM      9  C   UNL     1       6.113 -22.587 -51.069  1.00  0.00     0.007 A 
ATOM     10  C   UNL     1       5.927 -24.232 -49.319  1.00  0.00     0.007 A 
ATOM     11  C   UNL     1       7.507 -22.715 -51.047  1.00  0.00     0.047 A 
ATOM     12  C   UNL     1       7.318 -24.361 -49.300  1.00  0.00     0.047 A 
BRANCH   8  13
ATOM     13  C   UNL     1       3.813 -23.192 -50.223  1.00  0.00     0.032 C 
ATOM     14  C   UNL     1       3.177 -23.728 -48.949  1.00  0.00     0.009 C 
ENDBRANCH   8  13
ENDBRANCH   6   7
ENDBRANCH   5   6
ENDBRANCH   1   5
BRANCH   3  15
ATOM     15  C   UNL     1      12.867 -23.027 -47.759  1.00  0.00     0.041 A 
ATOM     16  C   UNL     1      14.162 -22.661 -48.144  1.00  0.00     0.027 A 
ATOM     17  C   UNL     1      12.583 -23.170 -46.402  1.00  0.00     0.027 A 
ATOM     18  C   UNL     1      15.158 -22.450 -47.185  1.00  0.00     0.017 A 
ATOM     19  C   UNL     1      13.580 -22.959 -45.441  1.00  0.00     0.017 A 
ATOM     20  C   UNL     1      14.876 -22.613 -45.827  1.00  0.00     0.008 A 
BRANCH  20  21
ATOM     21  S   UNL     1      16.172 -22.343 -44.634  1.00  0.00    -0.119 SA
BRANCH  21  22
ATOM     22  C   UNL     1      16.604 -24.064 -44.200  1.00  0.00     0.137 C 
BRANCH  22  23
ATOM     23  C   UNL     1      16.228 -24.367 -42.772  1.00  0.00     0.116 C 
ATOM     24  N   UNL     1      15.058 -24.022 -42.314  1.00  0.00    -0.245 NA
ATOM     25  C   UNL     1      17.273 -25.090 -41.923  1.00  0.00     0.271 C 
ATOM     26  C   UNL     1      14.731 -24.377 -40.995  1.00  0.00     0.087 A 
ATOM     27  N   UNL     1      16.882 -25.415 -40.648  1.00  0.00    -0.319 N 
ATOM     28  O   UNL     1      18.386 -25.336 -42.363  1.00  0.00    -0.267 OA
ATOM     29  C   UNL     1      13.471 -24.037 -40.503  1.00  0.00     0.030 A 
ATOM     30  C   UNL     1      15.619 -25.070 -40.159  1.00  0.00     0.067 A 
ATOM     31  C   UNL     1      13.105 -24.377 -39.197  1.00  0.00     0.002 A 
ATOM     32  C   UNL     1      15.262 -25.413 -38.855  1.00  0.00     0.028 A 
ATOM     33  C   UNL     1      14.000 -25.063 -38.375  1.00  0.00     0.002 A 
ATOM     34  H   UNL     1      17.554 -25.898 -40.069  1.00  0.00     0.170 HD
ENDBRANCH  22  23
ENDBRANCH  21  22
ENDBRANCH  20  21
ENDBRANCH   3  15
TORSDOF 8
ENDMDL
MODEL 8
REMARK VINA RESULT:    -7.782      5.044      7.778
REMARK INTER + INTRA:         -12.153
REMARK INTER:                 -11.362
REMARK INTRA:                  -0.792
REMARK UNBOUND:                -0.732
REMARK SMILES CCc1ccc(OCC(=O)Nc2ccc(SCc3nc4ccccc4[nH]c3=O)cc2)cc1
REMARK SMILES IDX 9 1 10 2 11 3 8 5 7 6 6 7 3 8 4 9 32 10 5 11 31 12 2 13 1 14
REMARK SMILES IDX 12 15 13 16 30 17 14 18 29 19 15 20 16 21 17 22 18 23 19 24
REMARK SMILES IDX 27 25 20 26 26 27 28 28 21 29 25 30 22 31 24 32 23 33
REMARK H PARENT 11 4 26 34
ROOT
ATOM      1  C   UNL     1      10.617 -23.202 -50.616  1.00  0.00     0.262 C 
ATOM      2  O   UNL     1      11.369 -22.466 -51.251  1.00  0.00    -0.271 OA
ATOM      3  N   UNL     1      10.776 -23.621 -49.308  1.00  0.00    -0.323 N 
ATOM      4  H   UNL     1      10.065 -24.264 -48.973  1.00  0.00     0.170 HD
ENDROOT
BRANCH   1   5
ATOM      5  C   UNL     1       9.325 -23.731 -51.253  1.00  0.00     0.329 C 
BRANCH   5   6
ATOM      6  O   UNL     1       8.308 -22.756 -51.460  1.00  0.00    -0.484 OA
BRANCH   6   7
ATOM      7  C   UNL     1       7.080 -22.986 -50.904  1.00  0.00     0.120 A 
ATOM      8  C   UNL     1       4.676 -23.695 -49.620  1.00  0.00    -0.048 A 
ATOM      9  C   UNL     1       4.686 -22.735 -50.638  1.00  0.00     0.007 A 
ATOM     10  C   UNL     1       5.883 -24.294 -49.246  1.00  0.00     0.007 A 
ATOM     11  C   UNL     1       5.880 -22.384 -51.280  1.00  0.00     0.047 A 
ATOM     12  C   UNL     1       7.073 -23.945 -49.888  1.00  0.00     0.047 A 
BRANCH   8  13
ATOM     13  C   UNL     1       3.391 -24.057 -48.921  1.00  0.00     0.032 C 
ATOM     14  C   UNL     1       2.173 -23.542 -49.672  1.00  0.00     0.009 C 
ENDBRANCH   8  13
ENDBRANCH   6   7
ENDBRANCH   5   6
ENDBRANCH   1   5
BRANCH   3  15
ATOM     15  C   UNL     1      11.825 -23.320 -48.421  1.00  0.00     0.041 A 
ATOM     16  C   UNL     1      12.648 -24.380 -48.022  1.00  0.00     0.027 A 
ATOM     17  C   UNL     1      12.087 -22.042 -47.927  1.00  0.00     0.027 A 
ATOM     18  C   UNL     1      13.709 -24.166 -47.139  1.00  0.00     0.017 A 
ATOM     19  C   UNL     1      13.151 -21.828 -47.040  1.00  0.00     0.017 A 
ATOM     20  C   UNL     1      13.958 -22.890 -46.630  1.00  0.00     0.008 A 
BRANCH  20  21
ATOM     21  S   UNL     1      15.316 -22.656 -45.500  1.00  0.00    -0.119 SA
BRANCH  21  22
ATOM     22  C   UNL     1      15.578 -24.368 -44.917  1.00  0.00     0.137 C 
BRANCH  22  23
ATOM     23  C   UNL     1      15.544 -24.432 -43.412  1.00  0.00     0.116 C 
ATOM     24  N   UNL     1      14.432 -24.205 -42.770  1.00  0.00    -0.245 NA
ATOM     25  C   UNL     1      16.855 -24.778 -42.707  1.00  0.00     0.271 C 
ATOM     26  C   UNL     1      14.436 -24.333 -41.371  1.00  0.00     0.087 A 
ATOM     27  N   UNL     1      16.783 -24.897 -41.342  1.00  0.00    -0.319 N 
ATOM     28  O   UNL     1      17.894 -24.915 -43.335  1.00  0.00    -0.267 OA
ATOM     29  C   UNL     1      13.246 -24.119 -40.676  1.00  0.00     0.030 A 
ATOM     30  C   UNL     1      15.589 -24.679 -40.650  1.00  0.00     0.067 A 
ATOM     31  C   UNL     1      13.207 -24.242 -39.284  1.00  0.00     0.002 A 
ATOM     32  C   UNL     1      15.559 -24.804 -39.261  1.00  0.00     0.028 A 
ATOM     33  C   UNL     1      14.362 -24.584 -38.579  1.00  0.00     0.002 A 
ATOM     34  H   UNL     1      17.636 -25.129 -40.854  1.00  0.00     0.170 HD
ENDBRANCH  22  23
ENDBRANCH  21  22
ENDBRANCH  20  21
ENDBRANCH   3  15
TORSDOF 8
ENDMDL
MODEL 9
REMARK VINA RESULT:    -7.736      5.783     11.995
REMARK INTER + INTRA:         -12.086
REMARK INTER:                 -11.301
REMARK INTRA:                  -0.785
REMARK UNBOUND:                -0.732
REMARK SMILES CCc1ccc(OCC(=O)Nc2ccc(SCc3nc4ccccc4[nH]c3=O)cc2)cc1
REMARK SMILES IDX 9 1 10 2 11 3 8 5 7 6 6 7 3 8 4 9 32 10 5 11 31 12 2 13 1 14
REMARK SMILES IDX 12 15 13 16 30 17 14 18 29 19 15 20 16 21 17 22 18 23 19 24
REMARK SMILES IDX 27 25 20 26 26 27 28 28 21 29 25 30 22 31 24 32 23 33
REMARK H PARENT 11 4 26 34
ROOT
ATOM      1  C   UNL     1      13.310 -23.050 -45.674  1.00  0.00     0.262 C 
ATOM      2  O   UNL     1      12.211 -22.700 -45.252  1.00  0.00    -0.271 OA
ATOM      3  N   UNL     1      13.612 -23.461 -46.959  1.00  0.00    -0.323 N 
ATOM      4  H   UNL     1      14.575 -23.751 -47.102  1.00  0.00     0.170 HD
ENDROOT
BRANCH   1   5
ATOM      5  C   UNL     1      14.540 -23.025 -44.756  1.00  0.00     0.329 C 
BRANCH   5   6
ATOM      6  O   UNL     1      14.863 -24.268 -44.143  1.00  0.00    -0.484 OA
BRANCH   6   7
ATOM      7  C   UNL     1      14.568 -24.422 -42.816  1.00  0.00     0.120 A 
ATOM      8  C   UNL     1      14.256 -24.766 -40.040  1.00  0.00    -0.048 A 
ATOM      9  C   UNL     1      13.147 -24.801 -40.892  1.00  0.00     0.007 A 
ATOM     10  C   UNL     1      15.524 -24.551 -40.589  1.00  0.00     0.007 A 
ATOM     11  C   UNL     1      13.301 -24.634 -42.274  1.00  0.00     0.047 A 
ATOM     12  C   UNL     1      15.676 -24.387 -41.968  1.00  0.00     0.047 A 
BRANCH   8  13
ATOM     13  C   UNL     1      14.083 -24.929 -38.551  1.00  0.00     0.032 C 
ATOM     14  C   UNL     1      13.447 -23.701 -37.917  1.00  0.00     0.009 C 
ENDBRANCH   8  13
ENDBRANCH   6   7
ENDBRANCH   5   6
ENDBRANCH   1   5
BRANCH   3  15
ATOM     15  C   UNL     1      12.744 -23.588 -48.058  1.00  0.00     0.041 A 
ATOM     16  C   UNL     1      12.348 -22.407 -48.697  1.00  0.00     0.027 A 
ATOM     17  C   UNL     1      12.266 -24.806 -48.539  1.00  0.00     0.027 A 
ATOM     18  C   UNL     1      11.482 -22.446 -49.794  1.00  0.00     0.017 A 
ATOM     19  C   UNL     1      11.398 -24.845 -49.637  1.00  0.00     0.017 A 
ATOM     20  C   UNL     1      10.989 -23.666 -50.262  1.00  0.00     0.008 A 
BRANCH  20  21
ATOM     21  S   UNL     1       9.882 -23.676 -51.658  1.00  0.00    -0.119 SA
BRANCH  21  22
ATOM     22  C   UNL     1       8.663 -24.927 -51.122  1.00  0.00     0.137 C 
BRANCH  22  23
ATOM     23  C   UNL     1       7.324 -24.289 -50.853  1.00  0.00     0.116 C 
ATOM     24  N   UNL     1       6.717 -23.618 -51.791  1.00  0.00    -0.245 NA
ATOM     25  C   UNL     1       6.738 -24.481 -49.456  1.00  0.00     0.271 C 
ATOM     26  C   UNL     1       5.445 -23.090 -51.512  1.00  0.00     0.087 A 
ATOM     27  N   UNL     1       5.488 -23.949 -49.256  1.00  0.00    -0.319 N 
ATOM     28  O   UNL     1       7.365 -25.056 -48.579  1.00  0.00    -0.267 OA
ATOM     29  C   UNL     1       4.774 -22.393 -52.516  1.00  0.00     0.030 A 
ATOM     30  C   UNL     1       4.821 -23.250 -50.265  1.00  0.00     0.067 A 
ATOM     31  C   UNL     1       3.504 -21.858 -52.280  1.00  0.00     0.002 A 
ATOM     32  C   UNL     1       3.554 -22.718 -50.021  1.00  0.00     0.028 A 
ATOM     33  C   UNL     1       2.897 -22.020 -51.034  1.00  0.00     0.002 A 
ATOM     34  H   UNL     1       5.077 -24.067 -48.341  1.00  0.00     0.170 HD
ENDBRANCH  22  23
ENDBRANCH  21  22
ENDBRANCH  20  21
ENDBRANCH   3  15
TORSDOF 8
ENDMDL
