REMARK SMILES CN(C)c1ccc([C@H]2C3C(=O)CC(C)(C)CC3=Nc3ccccc3N2[C@H]2OC(=O)c3ccccc32)cc1
REMARK SMILES IDX 8 1 7 3 4 4 5 5 37 6 6 7 36 8 2 9 1 10 3 11 25 12 24 13
REMARK SMILES IDX 23 14 19 15 22 16 20 17 21 18 18 19 17 20 16 21 9 22 13 23
REMARK SMILES IDX 10 24 12 25 11 26 14 27 15 28 26 30 27 31 35 32 28 33 34 34
REMARK SMILES IDX 30 35 29 36 33 37 31 38 32 39
REMARK H PARENT
REMARK Flexibility Score:   91.900
ROOT
ATOM      1  C   UNL     1       0.760   0.235   0.183  1.00  0.00     0.133 CG0
ATOM      2  G   UNL     1      -0.390   0.714  -0.703  1.00  0.00     0.000 G0
ENDROOT
BRANCH   1   3
ATOM      3  C   UNL     1       0.828  -1.231   0.620  1.00  0.00    -0.024 A 
ATOM      4  C   UNL     1       1.108  -3.980   1.451  1.00  0.00     0.036 A 
ATOM      5  C   UNL     1       2.218  -3.159   1.204  1.00  0.00     0.026 A 
ATOM      6  C   UNL     1      -0.144  -3.362   1.302  1.00  0.00     0.026 A 
ATOM      7  C   UNL     1       2.086  -1.821   0.799  1.00  0.00     0.008 A 
ATOM      8  C   UNL     1      -0.286  -2.024   0.894  1.00  0.00     0.008 A 
BRANCH   4   9
ATOM      9  N   UNL     1       1.239  -5.313   1.867  1.00  0.00    -0.378 N 
ATOM     10  C   UNL     1       2.534  -5.971   1.706  1.00  0.00     0.143 C 
ATOM     11  C   UNL     1       0.073  -6.190   1.784  1.00  0.00     0.143 C 
ENDBRANCH   4   9
ENDBRANCH   1   3
BRANCH   1  12
ATOM     12  N   UNL     1       0.954   1.126   1.335  1.00  0.00    -0.322 N 
BRANCH  12  13
ATOM     13  C   UNL     1       0.111   0.992   2.434  1.00  0.00     0.066 A 
ATOM     14  C   UNL     1       0.688   0.916   3.722  1.00  0.00     0.028 A 
ATOM     15  C   UNL     1      -1.291   0.873   2.329  1.00  0.00     0.086 A 
ATOM     16  C   UNL     1      -0.080   0.743   4.873  1.00  0.00     0.002 A 
ATOM     17  C   UNL     1      -2.046   0.703   3.506  1.00  0.00     0.030 A 
ATOM     18  C   UNL     1      -1.455   0.637   4.766  1.00  0.00     0.002 A 
BRANCH  15  19
ATOM     19  N   UNL     1      -2.079   0.990   1.177  1.00  0.00    -0.255 NA
ATOM     20  C   UNL     1      -1.743   0.918  -0.068  1.00  0.00     0.032 C 
ATOM     21  C   UNL     1      -2.891   1.218  -1.033  1.00  0.00     0.059 C 
ATOM     22  C   UNL     1      -0.390   0.714  -0.703  1.00  0.00     0.128 CG0
ATOM     23  C   UNL     1      -2.972   0.216  -2.191  1.00  0.00    -0.023 C 
ATOM     24  C   UNL     1      -0.453  -0.085  -1.999  1.00  0.00     0.144 C 
ATOM     25  C   UNL     1      -1.626   0.169  -2.924  1.00  0.00     0.083 C 
ATOM     26  O   UNL     1       0.478  -0.789  -2.394  1.00  0.00    -0.299 OA
ATOM     27  C   UNL     1      -4.055   0.692  -3.178  1.00  0.00     0.012 C 
ATOM     28  C   UNL     1      -3.370  -1.183  -1.688  1.00  0.00     0.012 C 
ATOM     29  G   UNL     1       0.760   0.235   0.183  1.00  0.00     0.000 G0
ENDBRANCH  15  19
ENDBRANCH  12  13
BRANCH  12  30
ATOM     30  C   UNL     1       1.923   2.209   1.317  1.00  0.00     0.308 C 
ATOM     31  O   UNL     1       3.152   1.822   0.669  1.00  0.00    -0.433 OA
ATOM     32  C   UNL     1       1.461   3.374   0.521  1.00  0.00     0.028 A 
ATOM     33  C   UNL     1       3.483   2.681  -0.338  1.00  0.00     0.340 C 
ATOM     34  C   UNL     1       0.323   4.157   0.637  1.00  0.00     0.010 A 
ATOM     35  C   UNL     1       2.402   3.650  -0.448  1.00  0.00     0.069 A 
ATOM     36  O   UNL     1       4.482   2.640  -1.027  1.00  0.00    -0.246 OA
ATOM     37  C   UNL     1       0.153   5.216  -0.261  1.00  0.00     0.001 A 
ATOM     38  C   UNL     1       2.263   4.691  -1.349  1.00  0.00     0.016 A 
ATOM     39  C   UNL     1       1.117   5.481  -1.249  1.00  0.00     0.001 A 
ENDBRANCH  12  30
ENDBRANCH   1  12
TORSDOF 3
