REMARK SMILES CCOC(=O)c1nnn(CC(=O)Nc2ccccc2C(N)=O)c1C(=O)OCC
REMARK SMILES IDX 6 1 7 2 8 3 9 4 23 5 4 6 5 7 3 8 2 9 1 10 24 11 25 12 26 13
REMARK SMILES IDX 27 14 28 15 10 16 11 17 12 18 13 19 14 21 15 22 19 23 16 24
REMARK SMILES IDX 18 25 17 26 20 27 21 28 22 29
REMARK H PARENT 13 20 21 30 21 31
ROOT
ATOM      1  C   UNL     1       1.761  -1.306  -2.059  1.00  0.00     0.205 A 
ATOM      2  N   UNL     1       2.976  -0.782  -1.675  1.00  0.00    -0.122 NA
ATOM      3  N   UNL     1       2.899  -0.436  -0.401  1.00  0.00    -0.065 NA
ATOM      4  N   UNL     1       1.646  -0.695   0.013  1.00  0.00    -0.228 N 
ATOM      5  C   UNL     1       0.921  -1.352  -0.953  1.00  0.00     0.182 A 
ENDROOT
BRANCH   1   6
ATOM      6  C   UNL     1       1.491  -1.691  -3.438  1.00  0.00     0.361 C 
ATOM      7  O   UNL     1       0.367  -1.821  -3.909  1.00  0.00    -0.244 OA
BRANCH   6   8
ATOM      8  O   UNL     1       2.641  -1.866  -4.155  1.00  0.00    -0.461 OA
BRANCH   8   9
ATOM      9  C   UNL     1       2.478  -2.214  -5.536  1.00  0.00     0.230 C 
ATOM     10  C   UNL     1       2.327  -3.716  -5.685  1.00  0.00     0.049 C 
ENDBRANCH   8   9
ENDBRANCH   6   8
ENDBRANCH   1   6
BRANCH   5  11
ATOM     11  C   UNL     1      -0.387  -1.897  -0.748  1.00  0.00     0.359 C 
ATOM     12  O   UNL     1      -1.129  -1.599   0.178  1.00  0.00    -0.244 OA
BRANCH  11  13
ATOM     13  O   UNL     1      -0.646  -2.864  -1.664  1.00  0.00    -0.461 OA
BRANCH  13  14
ATOM     14  C   UNL     1      -1.935  -3.488  -1.586  1.00  0.00     0.230 C 
ATOM     15  C   UNL     1      -2.963  -2.664  -2.339  1.00  0.00     0.049 C 
ENDBRANCH  13  14
ENDBRANCH  11  13
ENDBRANCH   5  11
BRANCH   4  16
ATOM     16  C   UNL     1       1.276  -0.391   1.382  1.00  0.00     0.247 C 
BRANCH  16  17
ATOM     17  C   UNL     1       0.327   0.789   1.472  1.00  0.00     0.246 C 
ATOM     18  O   UNL     1       0.152   1.567   0.539  1.00  0.00    -0.273 OA
ATOM     19  N   UNL     1      -0.272   0.872   2.719  1.00  0.00    -0.324 N 
ATOM     20  H   UNL     1      -0.039   0.144   3.399  1.00  0.00     0.170 HD
BRANCH  19  21
ATOM     21  C   UNL     1      -1.176   1.849   3.209  1.00  0.00     0.054 A 
ATOM     22  C   UNL     1      -1.550   2.967   2.455  1.00  0.00     0.027 A 
ATOM     23  C   UNL     1      -1.715   1.699   4.511  1.00  0.00     0.063 A 
ATOM     24  C   UNL     1      -2.419   3.929   2.979  1.00  0.00     0.002 A 
ATOM     25  C   UNL     1      -2.570   2.684   5.035  1.00  0.00     0.016 A 
ATOM     26  C   UNL     1      -2.922   3.794   4.268  1.00  0.00     0.001 A 
BRANCH  23  27
ATOM     27  C   UNL     1      -1.369   0.501   5.338  1.00  0.00     0.250 C 
ATOM     28  N   UNL     1      -2.215   0.152   6.354  1.00  0.00    -0.366 N 
ATOM     29  O   UNL     1      -0.383  -0.189   5.091  1.00  0.00    -0.269 OA
ATOM     30  H   UNL     1      -3.167   0.488   6.401  1.00  0.00     0.159 HD
ATOM     31  H   UNL     1      -2.023  -0.733   6.807  1.00  0.00     0.159 HD
ENDBRANCH  23  27
ENDBRANCH  19  21
ENDBRANCH  16  17
ENDBRANCH   4  16
TORSDOF 10
