REMARK SMILES Cc1cccc([C@@H]2Cc3cccc(C(F)(F)F)c3N2)c1
REMARK SMILES IDX 7 1 8 2 9 3 10 4 11 5 12 6 13 7 18 8 19 9 6 11 2 12 3 13
REMARK SMILES IDX 20 14 4 15 5 16 1 17 14 18 15 19 16 20 17 21
REMARK H PARENT 19 10
ROOT
ATOM      1  C   UNL     1       1.092  -1.835  -0.288  1.00  0.00     0.114 C 
ATOM      2  C   UNL     1       0.962  -1.385  -1.766  1.00  0.00     0.067 C 
ATOM      3  C   UNL     1      -0.517  -1.231  -1.900  1.00  0.00    -0.022 A 
ATOM      4  C   UNL     1      -1.228  -0.695  -2.961  1.00  0.00     0.006 A 
ATOM      5  C   UNL     1      -2.618  -0.684  -2.879  1.00  0.00     0.001 A 
ATOM      6  C   UNL     1      -3.267  -1.214  -1.753  1.00  0.00     0.015 A 
ATOM      7  C   UNL     1      -2.539  -1.759  -0.676  1.00  0.00     0.079 A 
ATOM      8  C   UNL     1      -1.153  -1.747  -0.766  1.00  0.00     0.050 A 
ATOM      9  N   UNL     1      -0.241  -2.300   0.162  1.00  0.00    -0.377 N 
ATOM     10  H   UNL     1      -0.462  -2.043   1.125  1.00  0.00     0.161 HD
ENDROOT
BRANCH   1  11
ATOM     11  C   UNL     1       1.615  -0.774   0.670  1.00  0.00    -0.025 A 
ATOM     12  C   UNL     1       1.613   1.501   1.571  1.00  0.00    -0.051 A 
ATOM     13  C   UNL     1       2.581   1.125   2.507  1.00  0.00     0.003 A 
ATOM     14  C   UNL     1       1.125   0.544   0.670  1.00  0.00     0.009 A 
ATOM     15  C   UNL     1       3.067  -0.181   2.530  1.00  0.00     0.001 A 
ATOM     16  C   UNL     1       2.586  -1.124   1.621  1.00  0.00     0.006 A 
ATOM     17  C   UNL     1       1.053   2.893   1.574  1.00  0.00     0.044 C 
ENDBRANCH   1  11
BRANCH   7  18
ATOM     18  C   UNL     1      -3.254  -2.359   0.500  1.00  0.00     0.418 C 
ATOM     19  F   UNL     1      -4.525  -1.880   0.647  1.00  0.00    -0.166 F 
ATOM     20  F   UNL     1      -2.642  -2.112   1.696  1.00  0.00    -0.166 F 
ATOM     21  F   UNL     1      -3.385  -3.712   0.414  1.00  0.00    -0.166 F 
ENDBRANCH   7  18
TORSDOF 2
