MODEL 1
REMARK VINA RESULT:    -7.379      0.000      0.000
REMARK INTER + INTRA:          -8.661
REMARK INTER:                  -8.242
REMARK INTRA:                  -0.419
REMARK UNBOUND:                -0.419
REMARK SMILES Cc1ccccc1C1=N[C@@H](c2ccccc2C)ON1
REMARK SMILES IDX 8 1 9 2 10 3 18 4 19 5 7 7 2 8 3 9 4 10 6 11 5 12 1 13 11 14
REMARK SMILES IDX 12 15 16 16 13 17 15 18 14 19 17 20
REMARK H PARENT 19 6
ROOT
ATOM      1  C   UNL     1      14.629 -24.150 -44.332  1.00  0.00     0.155 C 
ATOM      2  N   UNL     1      15.200 -23.653 -43.263  1.00  0.00    -0.227 NA
ATOM      3  C   UNL     1      15.332 -24.885 -42.453  1.00  0.00     0.297 C 
ATOM      4  O   UNL     1      14.760 -26.033 -43.113  1.00  0.00    -0.243 OA
ATOM      5  N   UNL     1      14.290 -25.485 -44.315  1.00  0.00    -0.246 N 
ATOM      6  H   UNL     1      14.537 -26.021 -45.141  1.00  0.00     0.197 HD
ENDROOT
BRANCH   1   7
ATOM      7  C   UNL     1      14.382 -23.296 -45.527  1.00  0.00     0.022 A 
ATOM      8  C   UNL     1      15.386 -22.957 -46.455  1.00  0.00    -0.040 A 
ATOM      9  C   UNL     1      15.055 -22.095 -47.517  1.00  0.00     0.004 A 
ATOM     10  C   UNL     1      13.754 -21.608 -47.672  1.00  0.00     0.000 A 
ATOM     11  C   UNL     1      13.073 -22.818 -45.703  1.00  0.00     0.012 A 
ATOM     12  C   UNL     1      12.762 -21.976 -46.770  1.00  0.00     0.001 A 
ATOM     13  C   UNL     1      16.793 -23.481 -46.378  1.00  0.00     0.045 C 
ENDBRANCH   1   7
BRANCH   3  14
ATOM     14  C   UNL     1      14.808 -24.742 -41.032  1.00  0.00     0.008 A 
ATOM     15  C   UNL     1      13.533 -24.161 -40.858  1.00  0.00     0.009 A 
ATOM     16  C   UNL     1      15.515 -25.163 -39.882  1.00  0.00    -0.043 A 
ATOM     17  C   UNL     1      12.976 -23.988 -39.591  1.00  0.00     0.000 A 
ATOM     18  C   UNL     1      14.938 -24.979 -38.611  1.00  0.00     0.004 A 
ATOM     19  C   UNL     1      13.681 -24.396 -38.466  1.00  0.00     0.000 A 
ATOM     20  C   UNL     1      16.871 -25.808 -39.958  1.00  0.00     0.045 C 
ENDBRANCH   3  14
TORSDOF 2
ENDMDL
MODEL 2
REMARK VINA RESULT:    -7.195      1.469      6.465
REMARK INTER + INTRA:          -8.456
REMARK INTER:                  -8.308
REMARK INTRA:                  -0.147
REMARK UNBOUND:                -0.419
REMARK SMILES Cc1ccccc1C1=N[C@@H](c2ccccc2C)ON1
REMARK SMILES IDX 8 1 9 2 10 3 18 4 19 5 7 7 2 8 3 9 4 10 6 11 5 12 1 13 11 14
REMARK SMILES IDX 12 15 16 16 13 17 15 18 14 19 17 20
REMARK H PARENT 19 6
ROOT
ATOM      1  C   UNL     1      13.553 -24.142 -43.730  1.00  0.00     0.155 C 
ATOM      2  N   UNL     1      13.116 -23.029 -44.265  1.00  0.00    -0.227 NA
ATOM      3  C   UNL     1      12.702 -23.534 -45.594  1.00  0.00     0.297 C 
ATOM      4  O   UNL     1      12.991 -24.938 -45.755  1.00  0.00    -0.243 OA
ATOM      5  N   UNL     1      13.573 -25.268 -44.523  1.00  0.00    -0.246 N 
ATOM      6  H   UNL     1      13.206 -26.118 -44.104  1.00  0.00     0.197 HD
ENDROOT
BRANCH   1   7
ATOM      7  C   UNL     1      13.989 -24.180 -42.307  1.00  0.00     0.022 A 
ATOM      8  C   UNL     1      15.320 -23.960 -41.900  1.00  0.00    -0.040 A 
ATOM      9  C   UNL     1      15.632 -24.079 -40.533  1.00  0.00     0.004 A 
ATOM     10  C   UNL     1      14.645 -24.377 -39.591  1.00  0.00     0.000 A 
ATOM     11  C   UNL     1      13.000 -24.460 -41.350  1.00  0.00     0.012 A 
ATOM     12  C   UNL     1      13.328 -24.560 -39.999  1.00  0.00     0.001 A 
ATOM     13  C   UNL     1      16.423 -23.589 -42.851  1.00  0.00     0.045 C 
ENDBRANCH   1   7
BRANCH   3  14
ATOM     14  C   UNL     1      13.249 -22.717 -46.756  1.00  0.00     0.008 A 
ATOM     15  C   UNL     1      12.345 -21.894 -47.461  1.00  0.00     0.009 A 
ATOM     16  C   UNL     1      14.603 -22.728 -47.162  1.00  0.00    -0.043 A 
ATOM     17  C   UNL     1      12.759 -21.114 -48.541  1.00  0.00     0.000 A 
ATOM     18  C   UNL     1      15.002 -21.935 -48.255  1.00  0.00     0.004 A 
ATOM     19  C   UNL     1      14.089 -21.136 -48.939  1.00  0.00     0.000 A 
ATOM     20  C   UNL     1      15.648 -23.556 -46.468  1.00  0.00     0.045 C 
ENDBRANCH   3  14
TORSDOF 2
ENDMDL
MODEL 3
REMARK VINA RESULT:    -6.984      2.147      7.048
REMARK INTER + INTRA:          -8.220
REMARK INTER:                  -7.756
REMARK INTRA:                  -0.464
REMARK UNBOUND:                -0.419
REMARK SMILES Cc1ccccc1C1=N[C@@H](c2ccccc2C)ON1
REMARK SMILES IDX 8 1 9 2 10 3 18 4 19 5 7 7 2 8 3 9 4 10 6 11 5 12 1 13 11 14
REMARK SMILES IDX 12 15 16 16 13 17 15 18 14 19 17 20
REMARK H PARENT 19 6
ROOT
ATOM      1  C   UNL     1      13.737 -23.713 -44.877  1.00  0.00     0.155 C 
ATOM      2  N   UNL     1      13.005 -22.697 -45.259  1.00  0.00    -0.227 NA
ATOM      3  C   UNL     1      12.374 -23.280 -46.464  1.00  0.00     0.297 C 
ATOM      4  O   UNL     1      12.845 -24.617 -46.731  1.00  0.00    -0.243 OA
ATOM      5  N   UNL     1      13.753 -24.829 -45.684  1.00  0.00    -0.246 N 
ATOM      6  H   UNL     1      13.645 -25.724 -45.214  1.00  0.00     0.197 HD
ENDROOT
BRANCH   1   7
ATOM      7  C   UNL     1      14.503 -23.660 -43.601  1.00  0.00     0.022 A 
ATOM      8  C   UNL     1      15.751 -23.018 -43.475  1.00  0.00    -0.040 A 
ATOM      9  C   UNL     1      16.415 -23.080 -42.236  1.00  0.00     0.004 A 
ATOM     10  C   UNL     1      15.843 -23.735 -41.143  1.00  0.00     0.000 A 
ATOM     11  C   UNL     1      13.928 -24.299 -42.491  1.00  0.00     0.012 A 
ATOM     12  C   UNL     1      14.596 -24.338 -41.268  1.00  0.00     0.001 A 
ATOM     13  C   UNL     1      16.403 -22.254 -44.593  1.00  0.00     0.045 C 
ENDBRANCH   1   7
BRANCH   3  14
ATOM     14  C   UNL     1      12.480 -22.397 -47.699  1.00  0.00     0.008 A 
ATOM     15  C   UNL     1      13.608 -21.555 -47.808  1.00  0.00     0.009 A 
ATOM     16  C   UNL     1      11.526 -22.377 -48.741  1.00  0.00    -0.043 A 
ATOM     17  C   UNL     1      13.785 -20.710 -48.903  1.00  0.00     0.000 A 
ATOM     18  C   UNL     1      11.720 -21.516 -49.839  1.00  0.00     0.004 A 
ATOM     19  C   UNL     1      12.839 -20.690 -49.919  1.00  0.00     0.000 A 
ATOM     20  C   UNL     1      10.299 -23.246 -48.730  1.00  0.00     0.045 C 
ENDBRANCH   3  14
TORSDOF 2
ENDMDL
MODEL 4
REMARK VINA RESULT:    -6.975      0.711      1.631
REMARK INTER + INTRA:          -8.209
REMARK INTER:                  -8.177
REMARK INTRA:                  -0.033
REMARK UNBOUND:                -0.419
REMARK SMILES Cc1ccccc1C1=N[C@@H](c2ccccc2C)ON1
REMARK SMILES IDX 8 1 9 2 10 3 18 4 19 5 7 7 2 8 3 9 4 10 6 11 5 12 1 13 11 14
REMARK SMILES IDX 12 15 16 16 13 17 15 18 14 19 17 20
REMARK H PARENT 19 6
ROOT
ATOM      1  C   UNL     1      14.966 -23.774 -44.384  1.00  0.00     0.155 C 
ATOM      2  N   UNL     1      15.168 -23.104 -43.277  1.00  0.00    -0.227 NA
ATOM      3  C   UNL     1      15.680 -24.193 -42.415  1.00  0.00     0.297 C 
ATOM      4  O   UNL     1      15.685 -25.466 -43.092  1.00  0.00    -0.243 OA
ATOM      5  N   UNL     1      15.179 -25.134 -44.357  1.00  0.00    -0.246 N 
ATOM      6  H   UNL     1      15.711 -25.520 -45.132  1.00  0.00     0.197 HD
ENDROOT
BRANCH   1   7
ATOM      7  C   UNL     1      14.543 -23.074 -45.629  1.00  0.00     0.022 A 
ATOM      8  C   UNL     1      15.431 -22.755 -46.676  1.00  0.00    -0.040 A 
ATOM      9  C   UNL     1      14.936 -22.039 -47.781  1.00  0.00     0.004 A 
ATOM     10  C   UNL     1      13.589 -21.677 -47.861  1.00  0.00     0.000 A 
ATOM     11  C   UNL     1      13.187 -22.722 -45.728  1.00  0.00     0.012 A 
ATOM     12  C   UNL     1      12.714 -22.025 -46.838  1.00  0.00     0.001 A 
ATOM     13  C   UNL     1      16.880 -23.154 -46.679  1.00  0.00     0.045 C 
ENDBRANCH   1   7
BRANCH   3  14
ATOM     14  C   UNL     1      14.981 -24.285 -41.066  1.00  0.00     0.008 A 
ATOM     15  C   UNL     1      15.783 -24.226 -39.906  1.00  0.00     0.009 A 
ATOM     16  C   UNL     1      13.582 -24.415 -40.907  1.00  0.00    -0.043 A 
ATOM     17  C   UNL     1      15.227 -24.306 -38.629  1.00  0.00     0.000 A 
ATOM     18  C   UNL     1      13.038 -24.496 -39.611  1.00  0.00     0.004 A 
ATOM     19  C   UNL     1      13.853 -24.442 -38.482  1.00  0.00     0.000 A 
ATOM     20  C   UNL     1      12.638 -24.470 -42.076  1.00  0.00     0.045 C 
ENDBRANCH   3  14
TORSDOF 2
ENDMDL
MODEL 5
REMARK VINA RESULT:    -6.671      1.860      6.720
REMARK INTER + INTRA:          -7.870
REMARK INTER:                  -8.148
REMARK INTRA:                   0.278
REMARK UNBOUND:                -0.419
REMARK SMILES Cc1ccccc1C1=N[C@@H](c2ccccc2C)ON1
REMARK SMILES IDX 8 1 9 2 10 3 18 4 19 5 7 7 2 8 3 9 4 10 6 11 5 12 1 13 11 14
REMARK SMILES IDX 12 15 16 16 13 17 15 18 14 19 17 20
REMARK H PARENT 19 6
ROOT
ATOM      1  C   UNL     1      15.121 -23.348 -43.596  1.00  0.00     0.155 C 
ATOM      2  N   UNL     1      14.851 -24.134 -44.608  1.00  0.00    -0.227 NA
ATOM      3  C   UNL     1      15.379 -23.307 -45.717  1.00  0.00     0.297 C 
ATOM      4  O   UNL     1      15.883 -22.038 -45.256  1.00  0.00    -0.243 OA
ATOM      5  N   UNL     1      15.657 -22.109 -43.873  1.00  0.00    -0.246 N 
ATOM      6  H   UNL     1      16.452 -21.828 -43.307  1.00  0.00     0.197 HD
ENDROOT
BRANCH   1   7
ATOM      7  C   UNL     1      14.874 -23.797 -42.198  1.00  0.00     0.022 A 
ATOM      8  C   UNL     1      13.610 -24.208 -41.730  1.00  0.00    -0.040 A 
ATOM      9  C   UNL     1      13.478 -24.556 -40.373  1.00  0.00     0.004 A 
ATOM     10  C   UNL     1      14.577 -24.529 -39.511  1.00  0.00     0.000 A 
ATOM     11  C   UNL     1      15.977 -23.792 -41.328  1.00  0.00     0.012 A 
ATOM     12  C   UNL     1      15.827 -24.155 -39.990  1.00  0.00     0.001 A 
ATOM     13  C   UNL     1      12.397 -24.307 -42.611  1.00  0.00     0.045 C 
ENDBRANCH   1   7
BRANCH   3  14
ATOM     14  C   UNL     1      14.399 -23.131 -46.869  1.00  0.00     0.008 A 
ATOM     15  C   UNL     1      14.330 -21.862 -47.482  1.00  0.00     0.009 A 
ATOM     16  C   UNL     1      13.566 -24.161 -47.362  1.00  0.00    -0.043 A 
ATOM     17  C   UNL     1      13.458 -21.611 -48.542  1.00  0.00     0.000 A 
ATOM     18  C   UNL     1      12.691 -23.890 -48.431  1.00  0.00     0.004 A 
ATOM     19  C   UNL     1      12.637 -22.626 -49.016  1.00  0.00     0.000 A 
ATOM     20  C   UNL     1      13.575 -25.552 -46.790  1.00  0.00     0.045 C 
ENDBRANCH   3  14
TORSDOF 2
ENDMDL
MODEL 6
REMARK VINA RESULT:    -6.491      5.212      7.891
REMARK INTER + INTRA:          -7.669
REMARK INTER:                  -7.203
REMARK INTRA:                  -0.466
REMARK UNBOUND:                -0.419
REMARK SMILES Cc1ccccc1C1=N[C@@H](c2ccccc2C)ON1
REMARK SMILES IDX 8 1 9 2 10 3 18 4 19 5 7 7 2 8 3 9 4 10 6 11 5 12 1 13 11 14
REMARK SMILES IDX 12 15 16 16 13 17 15 18 14 19 17 20
REMARK H PARENT 19 6
ROOT
ATOM      1  C   UNL     1      10.924 -22.822 -50.267  1.00  0.00     0.155 C 
ATOM      2  N   UNL     1      11.329 -23.577 -49.276  1.00  0.00    -0.227 NA
ATOM      3  C   UNL     1      11.708 -22.530 -48.301  1.00  0.00     0.297 C 
ATOM      4  O   UNL     1      11.541 -21.202 -48.837  1.00  0.00    -0.243 OA
ATOM      5  N   UNL     1      11.060 -21.459 -50.129  1.00  0.00    -0.246 N 
ATOM      6  H   UNL     1      10.254 -20.899 -50.392  1.00  0.00     0.197 HD
ENDROOT
BRANCH   1   7
ATOM      7  C   UNL     1      10.318 -23.428 -51.485  1.00  0.00     0.022 A 
ATOM      8  C   UNL     1       8.936 -23.666 -51.624  1.00  0.00    -0.040 A 
ATOM      9  C   UNL     1       8.479 -24.299 -52.795  1.00  0.00     0.004 A 
ATOM     10  C   UNL     1       9.365 -24.656 -53.814  1.00  0.00     0.000 A 
ATOM     11  C   UNL     1      11.197 -23.773 -52.524  1.00  0.00     0.012 A 
ATOM     12  C   UNL     1      10.722 -24.386 -53.682  1.00  0.00     0.001 A 
ATOM     13  C   UNL     1       7.922 -23.266 -50.590  1.00  0.00     0.045 C 
ENDBRANCH   1   7
BRANCH   3  14
ATOM     14  C   UNL     1      13.098 -22.720 -47.709  1.00  0.00     0.008 A 
ATOM     15  C   UNL     1      14.167 -22.021 -48.309  1.00  0.00     0.009 A 
ATOM     16  C   UNL     1      13.377 -23.544 -46.595  1.00  0.00    -0.043 A 
ATOM     17  C   UNL     1      15.473 -22.138 -47.835  1.00  0.00     0.000 A 
ATOM     18  C   UNL     1      14.701 -23.652 -46.130  1.00  0.00     0.004 A 
ATOM     19  C   UNL     1      15.741 -22.956 -46.745  1.00  0.00     0.000 A 
ATOM     20  C   UNL     1      12.308 -24.318 -45.874  1.00  0.00     0.045 C 
ENDBRANCH   3  14
TORSDOF 2
ENDMDL
MODEL 7
REMARK VINA RESULT:    -6.368      1.795      6.678
REMARK INTER + INTRA:          -7.532
REMARK INTER:                  -7.329
REMARK INTRA:                  -0.203
REMARK UNBOUND:                -0.419
REMARK SMILES Cc1ccccc1C1=N[C@@H](c2ccccc2C)ON1
REMARK SMILES IDX 8 1 9 2 10 3 18 4 19 5 7 7 2 8 3 9 4 10 6 11 5 12 1 13 11 14
REMARK SMILES IDX 12 15 16 16 13 17 15 18 14 19 17 20
REMARK H PARENT 19 6
ROOT
ATOM      1  C   UNL     1      14.634 -23.607 -43.821  1.00  0.00     0.155 C 
ATOM      2  N   UNL     1      14.308 -24.398 -44.813  1.00  0.00    -0.227 NA
ATOM      3  C   UNL     1      14.633 -23.514 -45.955  1.00  0.00     0.297 C 
ATOM      4  O   UNL     1      15.086 -22.215 -45.526  1.00  0.00    -0.243 OA
ATOM      5  N   UNL     1      15.033 -22.325 -44.129  1.00  0.00    -0.246 N 
ATOM      6  H   UNL     1      15.865 -21.988 -43.653  1.00  0.00     0.197 HD
ENDROOT
BRANCH   1   7
ATOM      7  C   UNL     1      14.592 -24.096 -42.414  1.00  0.00     0.022 A 
ATOM      8  C   UNL     1      15.732 -24.542 -41.718  1.00  0.00    -0.040 A 
ATOM      9  C   UNL     1      15.568 -25.039 -40.411  1.00  0.00     0.004 A 
ATOM     10  C   UNL     1      14.312 -25.062 -39.801  1.00  0.00     0.000 A 
ATOM     11  C   UNL     1      13.337 -24.104 -41.785  1.00  0.00     0.012 A 
ATOM     12  C   UNL     1      13.198 -24.587 -40.485  1.00  0.00     0.001 A 
ATOM     13  C   UNL     1      17.120 -24.502 -42.293  1.00  0.00     0.045 C 
ENDBRANCH   1   7
BRANCH   3  14
ATOM     14  C   UNL     1      13.512 -23.402 -46.979  1.00  0.00     0.008 A 
ATOM     15  C   UNL     1      12.290 -24.045 -46.687  1.00  0.00     0.009 A 
ATOM     16  C   UNL     1      13.620 -22.689 -48.195  1.00  0.00    -0.043 A 
ATOM     17  C   UNL     1      11.210 -23.997 -47.569  1.00  0.00     0.000 A 
ATOM     18  C   UNL     1      12.521 -22.652 -49.074  1.00  0.00     0.004 A 
ATOM     19  C   UNL     1      11.327 -23.301 -48.765  1.00  0.00     0.000 A 
ATOM     20  C   UNL     1      14.871 -21.956 -48.593  1.00  0.00     0.045 C 
ENDBRANCH   3  14
TORSDOF 2
ENDMDL
MODEL 8
REMARK VINA RESULT:    -6.336      3.039      4.613
REMARK INTER + INTRA:          -7.495
REMARK INTER:                  -7.038
REMARK INTRA:                  -0.458
REMARK UNBOUND:                -0.419
REMARK SMILES Cc1ccccc1C1=N[C@@H](c2ccccc2C)ON1
REMARK SMILES IDX 8 1 9 2 10 3 18 4 19 5 7 7 2 8 3 9 4 10 6 11 5 12 1 13 11 14
REMARK SMILES IDX 12 15 16 16 13 17 15 18 14 19 17 20
REMARK H PARENT 19 6
ROOT
ATOM      1  C   UNL     1      13.844 -22.590 -46.940  1.00  0.00     0.155 C 
ATOM      2  N   UNL     1      14.904 -23.360 -46.935  1.00  0.00    -0.227 NA
ATOM      3  C   UNL     1      14.950 -23.714 -45.498  1.00  0.00     0.297 C 
ATOM      4  O   UNL     1      13.912 -23.058 -44.743  1.00  0.00    -0.243 OA
ATOM      5  N   UNL     1      13.246 -22.316 -45.730  1.00  0.00    -0.246 N 
ATOM      6  H   UNL     1      12.234 -22.398 -45.700  1.00  0.00     0.197 HD
ENDROOT
BRANCH   1   7
ATOM      7  C   UNL     1      13.300 -22.055 -48.219  1.00  0.00     0.022 A 
ATOM      8  C   UNL     1      12.337 -22.733 -48.992  1.00  0.00    -0.040 A 
ATOM      9  C   UNL     1      11.936 -22.163 -50.215  1.00  0.00     0.004 A 
ATOM     10  C   UNL     1      12.453 -20.938 -50.644  1.00  0.00     0.000 A 
ATOM     11  C   UNL     1      13.799 -20.815 -48.649  1.00  0.00     0.012 A 
ATOM     12  C   UNL     1      13.378 -20.261 -49.857  1.00  0.00     0.001 A 
ATOM     13  C   UNL     1      11.703 -24.028 -48.571  1.00  0.00     0.045 C 
ENDBRANCH   1   7
BRANCH   3  14
ATOM     14  C   UNL     1      16.317 -23.506 -44.861  1.00  0.00     0.008 A 
ATOM     15  C   UNL     1      17.089 -22.412 -45.307  1.00  0.00     0.009 A 
ATOM     16  C   UNL     1      16.851 -24.335 -43.848  1.00  0.00    -0.043 A 
ATOM     17  C   UNL     1      18.354 -22.148 -44.781  1.00  0.00     0.000 A 
ATOM     18  C   UNL     1      18.129 -24.055 -43.329  1.00  0.00     0.004 A 
ATOM     19  C   UNL     1      18.875 -22.972 -43.792  1.00  0.00     0.000 A 
ATOM     20  C   UNL     1      16.103 -25.515 -43.292  1.00  0.00     0.045 C 
ENDBRANCH   3  14
TORSDOF 2
ENDMDL
MODEL 9
REMARK VINA RESULT:    -6.334      3.174      7.087
REMARK INTER + INTRA:          -7.494
REMARK INTER:                  -7.042
REMARK INTRA:                  -0.452
REMARK UNBOUND:                -0.419
REMARK SMILES Cc1ccccc1C1=N[C@@H](c2ccccc2C)ON1
REMARK SMILES IDX 8 1 9 2 10 3 18 4 19 5 7 7 2 8 3 9 4 10 6 11 5 12 1 13 11 14
REMARK SMILES IDX 12 15 16 16 13 17 15 18 14 19 17 20
REMARK H PARENT 19 6
ROOT
ATOM      1  C   UNL     1      14.133 -23.129 -45.164  1.00  0.00     0.155 C 
ATOM      2  N   UNL     1      14.216 -22.406 -46.253  1.00  0.00    -0.227 NA
ATOM      3  C   UNL     1      12.783 -22.091 -46.454  1.00  0.00     0.297 C 
ATOM      4  O   UNL     1      11.944 -22.721 -45.465  1.00  0.00    -0.243 OA
ATOM      5  N   UNL     1      12.876 -23.409 -44.675  1.00  0.00    -0.246 N 
ATOM      6  H   UNL     1      12.747 -23.284 -43.675  1.00  0.00     0.197 HD
ENDROOT
BRANCH   1   7
ATOM      7  C   UNL     1      15.364 -23.608 -44.475  1.00  0.00     0.022 A 
ATOM      8  C   UNL     1      16.028 -24.801 -44.821  1.00  0.00    -0.040 A 
ATOM      9  C   UNL     1      17.150 -25.188 -44.064  1.00  0.00     0.004 A 
ATOM     10  C   UNL     1      17.619 -24.396 -43.013  1.00  0.00     0.000 A 
ATOM     11  C   UNL     1      15.855 -22.809 -43.430  1.00  0.00     0.012 A 
ATOM     12  C   UNL     1      16.976 -23.203 -42.701  1.00  0.00     0.001 A 
ATOM     13  C   UNL     1      15.609 -25.677 -45.968  1.00  0.00     0.045 C 
ENDBRANCH   1   7
BRANCH   3  14
ATOM     14  C   UNL     1      12.287 -22.373 -47.865  1.00  0.00     0.008 A 
ATOM     15  C   UNL     1      11.560 -23.564 -48.079  1.00  0.00     0.009 A 
ATOM     16  C   UNL     1      12.504 -21.513 -48.966  1.00  0.00    -0.043 A 
ATOM     17  C   UNL     1      11.071 -23.904 -49.340  1.00  0.00     0.000 A 
ATOM     18  C   UNL     1      12.004 -21.872 -50.232  1.00  0.00     0.004 A 
ATOM     19  C   UNL     1      11.295 -23.057 -50.418  1.00  0.00     0.000 A 
ATOM     20  C   UNL     1      13.251 -20.214 -48.842  1.00  0.00     0.045 C 
ENDBRANCH   3  14
TORSDOF 2
ENDMDL
