MODEL 1
REMARK VINA RESULT:    -7.672      0.000      0.000
REMARK INTER + INTRA:          -9.517
REMARK INTER:                  -8.794
REMARK INTRA:                  -0.723
REMARK UNBOUND:                -0.723
REMARK SMILES Cc1ccc(C)c([C@H]([NH3+])c2ccc3c(c2)CCC(=O)N3)c1
REMARK SMILES IDX 8 1 7 2 2 3 3 4 21 5 4 6 5 7 1 8 6 9 9 10 10 14 11 15 15 16
REMARK SMILES IDX 12 17 14 18 13 19 16 20 20 21 17 22 18 23 19 24
REMARK H PARENT 9 11 9 12 9 13 20 25
ROOT
ATOM      1  C   UNL     1       2.700  -4.715 -32.977  1.00  0.00     0.243 C 
ENDROOT
BRANCH   1   2
ATOM      2  C   UNL     1       1.893  -3.630 -33.677  1.00  0.00     0.017 A 
ATOM      3  C   UNL     1       0.650  -3.009 -35.708  1.00  0.00    -0.051 A 
ATOM      4  C   UNL     1       0.327  -1.786 -35.124  1.00  0.00     0.004 A 
ATOM      5  C   UNL     1       1.437  -3.913 -34.988  1.00  0.00     0.014 A 
ATOM      6  C   UNL     1       0.761  -1.486 -33.834  1.00  0.00     0.004 A 
ATOM      7  C   UNL     1       1.530  -2.396 -33.088  1.00  0.00    -0.042 A 
ATOM      8  C   UNL     1       0.219  -3.314 -37.113  1.00  0.00     0.044 C 
ATOM      9  C   UNL     1       1.977  -1.949 -31.720  1.00  0.00     0.045 C 
ENDBRANCH   1   2
BRANCH   1  10
ATOM     10  N   UNL     1       4.066  -4.762 -33.561  1.00  0.00    -0.348 N 
ATOM     11  H   UNL     1       4.209  -5.633 -34.080  1.00  0.00     0.345 HD
ATOM     12  H   UNL     1       4.178  -3.993 -34.232  1.00  0.00     0.345 HD
ATOM     13  H   UNL     1       4.784  -4.669 -32.837  1.00  0.00     0.345 HD
ENDBRANCH   1  10
BRANCH   1  14
ATOM     14  C   UNL     1       2.014  -6.065 -32.831  1.00  0.00     0.014 A 
ATOM     15  C   UNL     1       2.378  -7.103 -33.712  1.00  0.00     0.012 A 
ATOM     16  C   UNL     1       1.021  -6.332 -31.869  1.00  0.00     0.016 A 
ATOM     17  C   UNL     1       1.780  -8.364 -33.633  1.00  0.00     0.027 A 
ATOM     18  C   UNL     1       0.408  -7.593 -31.797  1.00  0.00    -0.023 A 
ATOM     19  C   UNL     1       0.794  -8.601 -32.684  1.00  0.00     0.044 A 
ATOM     20  C   UNL     1      -0.575  -7.924 -30.705  1.00  0.00     0.047 C 
ATOM     21  N   UNL     1       0.203  -9.863 -32.598  1.00  0.00    -0.326 N 
ATOM     22  C   UNL     1      -1.566  -8.985 -31.151  1.00  0.00     0.105 C 
ATOM     23  C   UNL     1      -0.878 -10.157 -31.812  1.00  0.00     0.224 C 
ATOM     24  O   UNL     1      -1.312 -11.303 -31.735  1.00  0.00    -0.275 OA
ATOM     25  H   UNL     1       0.568 -10.640 -33.137  1.00  0.00     0.169 HD
ENDBRANCH   1  14
TORSDOF 3
ENDMDL
MODEL 2
REMARK VINA RESULT:    -7.246     23.192     25.577
REMARK INTER + INTRA:          -9.028
REMARK INTER:                  -8.766
REMARK INTRA:                  -0.263
REMARK UNBOUND:                -0.723
REMARK SMILES Cc1ccc(C)c([C@H]([NH3+])c2ccc3c(c2)CCC(=O)N3)c1
REMARK SMILES IDX 8 1 7 2 2 3 3 4 21 5 4 6 5 7 1 8 6 9 9 10 10 14 11 15 15 16
REMARK SMILES IDX 12 17 14 18 13 19 16 20 20 21 17 22 18 23 19 24
REMARK H PARENT 9 11 9 12 9 13 20 25
ROOT
ATOM      1  C   UNL     1      12.911 -24.879 -41.836  1.00  0.00     0.243 C 
ENDROOT
BRANCH   1   2
ATOM      2  C   UNL     1      14.132 -25.010 -40.936  1.00  0.00     0.017 A 
ATOM      3  C   UNL     1      16.469 -25.761 -40.772  1.00  0.00    -0.051 A 
ATOM      4  C   UNL     1      16.518 -25.292 -39.462  1.00  0.00     0.004 A 
ATOM      5  C   UNL     1      15.278 -25.629 -41.493  1.00  0.00     0.014 A 
ATOM      6  C   UNL     1      15.405 -24.677 -38.893  1.00  0.00     0.004 A 
ATOM      7  C   UNL     1      14.208 -24.512 -39.614  1.00  0.00    -0.042 A 
ATOM      8  C   UNL     1      17.655 -26.462 -41.370  1.00  0.00     0.044 C 
ATOM      9  C   UNL     1      13.057 -23.869 -38.885  1.00  0.00     0.045 C 
ENDBRANCH   1   2
BRANCH   1  10
ATOM     10  N   UNL     1      12.190 -26.178 -41.873  1.00  0.00    -0.348 N 
ATOM     11  H   UNL     1      12.689 -26.886 -41.328  1.00  0.00     0.345 HD
ATOM     12  H   UNL     1      11.264 -26.068 -41.443  1.00  0.00     0.345 HD
ATOM     13  H   UNL     1      12.065 -26.507 -42.835  1.00  0.00     0.345 HD
ENDBRANCH   1  10
BRANCH   1  14
ATOM     14  C   UNL     1      13.151 -24.236 -43.194  1.00  0.00     0.014 A 
ATOM     15  C   UNL     1      12.085 -24.186 -44.114  1.00  0.00     0.012 A 
ATOM     16  C   UNL     1      14.392 -23.699 -43.590  1.00  0.00     0.016 A 
ATOM     17  C   UNL     1      12.244 -23.614 -45.379  1.00  0.00     0.027 A 
ATOM     18  C   UNL     1      14.559 -23.137 -44.866  1.00  0.00    -0.023 A 
ATOM     19  C   UNL     1      13.481 -23.101 -45.752  1.00  0.00     0.044 A 
ATOM     20  C   UNL     1      15.847 -22.463 -45.260  1.00  0.00     0.047 C 
ATOM     21  N   UNL     1      13.638 -22.521 -47.012  1.00  0.00    -0.326 N 
ATOM     22  C   UNL     1      16.073 -22.531 -46.761  1.00  0.00     0.105 C 
ATOM     23  C   UNL     1      14.841 -22.130 -47.537  1.00  0.00     0.224 C 
ATOM     24  O   UNL     1      14.903 -21.569 -48.627  1.00  0.00    -0.275 OA
ATOM     25  H   UNL     1      12.835 -22.361 -47.610  1.00  0.00     0.169 HD
ENDBRANCH   1  14
TORSDOF 3
ENDMDL
MODEL 3
REMARK VINA RESULT:    -7.181     23.689     25.429
REMARK INTER + INTRA:          -8.954
REMARK INTER:                  -8.210
REMARK INTRA:                  -0.743
REMARK UNBOUND:                -0.723
REMARK SMILES Cc1ccc(C)c([C@H]([NH3+])c2ccc3c(c2)CCC(=O)N3)c1
REMARK SMILES IDX 8 1 7 2 2 3 3 4 21 5 4 6 5 7 1 8 6 9 9 10 10 14 11 15 15 16
REMARK SMILES IDX 12 17 14 18 13 19 16 20 20 21 17 22 18 23 19 24
REMARK H PARENT 9 11 9 12 9 13 20 25
ROOT
ATOM      1  C   UNL     1      14.505 -25.457 -45.442  1.00  0.00     0.243 C 
ENDROOT
BRANCH   1   2
ATOM      2  C   UNL     1      14.595 -24.232 -46.341  1.00  0.00     0.017 A 
ATOM      3  C   UNL     1      13.421 -22.815 -47.974  1.00  0.00    -0.051 A 
ATOM      4  C   UNL     1      14.529 -21.973 -48.025  1.00  0.00     0.004 A 
ATOM      5  C   UNL     1      13.467 -23.940 -47.145  1.00  0.00     0.014 A 
ATOM      6  C   UNL     1      15.650 -22.237 -47.240  1.00  0.00     0.004 A 
ATOM      7  C   UNL     1      15.700 -23.349 -46.382  1.00  0.00    -0.042 A 
ATOM      8  C   UNL     1      12.231 -22.554 -48.852  1.00  0.00     0.044 C 
ATOM      9  C   UNL     1      16.978 -23.558 -45.611  1.00  0.00     0.045 C 
ENDBRANCH   1   2
BRANCH   1  10
ATOM     10  N   UNL     1      13.612 -26.462 -46.075  1.00  0.00    -0.348 N 
ATOM     11  H   UNL     1      12.955 -26.011 -46.718  1.00  0.00     0.345 HD
ATOM     12  H   UNL     1      14.173 -27.117 -46.632  1.00  0.00     0.345 HD
ATOM     13  H   UNL     1      13.094 -26.996 -45.370  1.00  0.00     0.345 HD
ENDBRANCH   1  10
BRANCH   1  14
ATOM     14  C   UNL     1      14.228 -25.185 -43.971  1.00  0.00     0.014 A 
ATOM     15  C   UNL     1      12.986 -24.624 -43.611  1.00  0.00     0.012 A 
ATOM     16  C   UNL     1      15.155 -25.450 -42.944  1.00  0.00     0.016 A 
ATOM     17  C   UNL     1      12.674 -24.345 -42.278  1.00  0.00     0.027 A 
ATOM     18  C   UNL     1      14.851 -25.157 -41.605  1.00  0.00    -0.023 A 
ATOM     19  C   UNL     1      13.609 -24.604 -41.284  1.00  0.00     0.044 A 
ATOM     20  C   UNL     1      15.788 -25.536 -40.489  1.00  0.00     0.047 C 
ATOM     21  N   UNL     1      13.295 -24.334 -39.950  1.00  0.00    -0.326 N 
ATOM     22  C   UNL     1      15.639 -24.605 -39.297  1.00  0.00     0.105 C 
ATOM     23  C   UNL     1      14.191 -24.403 -38.917  1.00  0.00     0.224 C 
ATOM     24  O   UNL     1      13.835 -24.213 -37.758  1.00  0.00    -0.275 OA
ATOM     25  H   UNL     1      12.353 -24.066 -39.687  1.00  0.00     0.169 HD
ENDBRANCH   1  14
TORSDOF 3
ENDMDL
MODEL 4
REMARK VINA RESULT:    -7.161     23.413     25.734
REMARK INTER + INTRA:          -8.931
REMARK INTER:                  -8.424
REMARK INTRA:                  -0.506
REMARK UNBOUND:                -0.723
REMARK SMILES Cc1ccc(C)c([C@H]([NH3+])c2ccc3c(c2)CCC(=O)N3)c1
REMARK SMILES IDX 8 1 7 2 2 3 3 4 21 5 4 6 5 7 1 8 6 9 9 10 10 14 11 15 15 16
REMARK SMILES IDX 12 17 14 18 13 19 16 20 20 21 17 22 18 23 19 24
REMARK H PARENT 9 11 9 12 9 13 20 25
ROOT
ATOM      1  C   UNL     1      15.949 -24.022 -43.408  1.00  0.00     0.243 C 
ENDROOT
BRANCH   1   2
ATOM      2  C   UNL     1      14.811 -24.674 -42.634  1.00  0.00     0.017 A 
ATOM      3  C   UNL     1      13.437 -24.608 -40.594  1.00  0.00    -0.051 A 
ATOM      4  C   UNL     1      12.698 -25.688 -41.068  1.00  0.00     0.004 A 
ATOM      5  C   UNL     1      14.492 -24.118 -41.371  1.00  0.00     0.014 A 
ATOM      6  C   UNL     1      12.991 -26.249 -42.310  1.00  0.00     0.004 A 
ATOM      7  C   UNL     1      14.031 -25.751 -43.114  1.00  0.00    -0.042 A 
ATOM      8  C   UNL     1      13.149 -24.031 -39.238  1.00  0.00     0.044 C 
ATOM      9  C   UNL     1      14.283 -26.462 -44.419  1.00  0.00     0.045 C 
ENDBRANCH   1   2
BRANCH   1  10
ATOM     10  N   UNL     1      16.695 -23.108 -42.503  1.00  0.00    -0.348 N 
ATOM     11  H   UNL     1      16.700 -22.154 -42.874  1.00  0.00     0.345 HD
ATOM     12  H   UNL     1      16.226 -23.072 -41.591  1.00  0.00     0.345 HD
ATOM     13  H   UNL     1      17.657 -23.428 -42.362  1.00  0.00     0.345 HD
ENDBRANCH   1  10
BRANCH   1  14
ATOM     14  C   UNL     1      15.580 -23.430 -44.760  1.00  0.00     0.014 A 
ATOM     15  C   UNL     1      16.577 -23.345 -45.753  1.00  0.00     0.012 A 
ATOM     16  C   UNL     1      14.294 -22.947 -45.072  1.00  0.00     0.016 A 
ATOM     17  C   UNL     1      16.302 -22.807 -47.013  1.00  0.00     0.027 A 
ATOM     18  C   UNL     1      14.018 -22.392 -46.331  1.00  0.00    -0.023 A 
ATOM     19  C   UNL     1      15.029 -22.326 -47.294  1.00  0.00     0.044 A 
ATOM     20  C   UNL     1      12.623 -21.973 -46.713  1.00  0.00     0.047 C 
ATOM     21  N   UNL     1      14.751 -21.796 -48.555  1.00  0.00    -0.326 N 
ATOM     22  C   UNL     1      12.640 -20.858 -47.745  1.00  0.00     0.105 C 
ATOM     23  C   UNL     1      13.586 -21.157 -48.884  1.00  0.00     0.224 C 
ATOM     24  O   UNL     1      13.379 -20.769 -50.030  1.00  0.00    -0.275 OA
ATOM     25  H   UNL     1      15.429 -21.869 -49.305  1.00  0.00     0.169 HD
ENDBRANCH   1  14
TORSDOF 3
ENDMDL
MODEL 5
REMARK VINA RESULT:    -7.135     24.503     26.210
REMARK INTER + INTRA:          -8.900
REMARK INTER:                  -8.248
REMARK INTRA:                  -0.653
REMARK UNBOUND:                -0.723
REMARK SMILES Cc1ccc(C)c([C@H]([NH3+])c2ccc3c(c2)CCC(=O)N3)c1
REMARK SMILES IDX 8 1 7 2 2 3 3 4 21 5 4 6 5 7 1 8 6 9 9 10 10 14 11 15 15 16
REMARK SMILES IDX 12 17 14 18 13 19 16 20 20 21 17 22 18 23 19 24
REMARK H PARENT 9 11 9 12 9 13 20 25
ROOT
ATOM      1  C   UNL     1      14.871 -25.129 -45.692  1.00  0.00     0.243 C 
ENDROOT
BRANCH   1   2
ATOM      2  C   UNL     1      14.377 -24.853 -44.278  1.00  0.00     0.017 A 
ATOM      3  C   UNL     1      15.007 -24.177 -41.997  1.00  0.00    -0.051 A 
ATOM      4  C   UNL     1      13.668 -24.237 -41.620  1.00  0.00     0.004 A 
ATOM      5  C   UNL     1      15.352 -24.496 -43.314  1.00  0.00     0.014 A 
ATOM      6  C   UNL     1      12.690 -24.583 -42.551  1.00  0.00     0.004 A 
ATOM      7  C   UNL     1      13.018 -24.880 -43.886  1.00  0.00    -0.042 A 
ATOM      8  C   UNL     1      16.064 -23.846 -40.984  1.00  0.00     0.044 C 
ATOM      9  C   UNL     1      11.884 -25.280 -44.793  1.00  0.00     0.045 C 
ENDBRANCH   1   2
BRANCH   1  10
ATOM     10  N   UNL     1      16.265 -25.642 -45.631  1.00  0.00    -0.348 N 
ATOM     11  H   UNL     1      16.871 -24.988 -45.128  1.00  0.00     0.345 HD
ATOM     12  H   UNL     1      16.281 -26.526 -45.109  1.00  0.00     0.345 HD
ATOM     13  H   UNL     1      16.640 -25.811 -46.568  1.00  0.00     0.345 HD
ENDBRANCH   1  10
BRANCH   1  14
ATOM     14  C   UNL     1      14.637 -24.019 -46.706  1.00  0.00     0.014 A 
ATOM     15  C   UNL     1      15.602 -22.999 -46.824  1.00  0.00     0.012 A 
ATOM     16  C   UNL     1      13.495 -23.948 -47.529  1.00  0.00     0.016 A 
ATOM     17  C   UNL     1      15.442 -21.950 -47.734  1.00  0.00     0.027 A 
ATOM     18  C   UNL     1      13.324 -22.887 -48.432  1.00  0.00    -0.023 A 
ATOM     19  C   UNL     1      14.302 -21.894 -48.526  1.00  0.00     0.044 A 
ATOM     20  C   UNL     1      12.164 -22.857 -49.392  1.00  0.00     0.047 C 
ATOM     21  N   UNL     1      14.145 -20.851 -49.441  1.00  0.00    -0.326 N 
ATOM     22  C   UNL     1      11.790 -21.433 -49.768  1.00  0.00     0.105 C 
ATOM     23  C   UNL     1      13.000 -20.614 -50.153  1.00  0.00     0.224 C 
ATOM     24  O   UNL     1      12.949 -19.717 -50.988  1.00  0.00    -0.275 OA
ATOM     25  H   UNL     1      14.906 -20.204 -49.620  1.00  0.00     0.169 HD
ENDBRANCH   1  14
TORSDOF 3
ENDMDL
MODEL 6
REMARK VINA RESULT:    -6.943     23.973     26.167
REMARK INTER + INTRA:          -8.681
REMARK INTER:                  -7.981
REMARK INTRA:                  -0.699
REMARK UNBOUND:                -0.723
REMARK SMILES Cc1ccc(C)c([C@H]([NH3+])c2ccc3c(c2)CCC(=O)N3)c1
REMARK SMILES IDX 8 1 7 2 2 3 3 4 21 5 4 6 5 7 1 8 6 9 9 10 10 14 11 15 15 16
REMARK SMILES IDX 12 17 14 18 13 19 16 20 20 21 17 22 18 23 19 24
REMARK H PARENT 9 11 9 12 9 13 20 25
ROOT
ATOM      1  C   UNL     1      15.787 -23.002 -44.992  1.00  0.00     0.243 C 
ENDROOT
BRANCH   1   2
ATOM      2  C   UNL     1      15.566 -24.036 -43.896  1.00  0.00     0.017 A 
ATOM      3  C   UNL     1      14.302 -24.610 -41.865  1.00  0.00    -0.051 A 
ATOM      4  C   UNL     1      14.958 -25.837 -41.815  1.00  0.00     0.004 A 
ATOM      5  C   UNL     1      14.618 -23.717 -42.893  1.00  0.00     0.014 A 
ATOM      6  C   UNL     1      15.893 -26.175 -42.792  1.00  0.00     0.004 A 
ATOM      7  C   UNL     1      16.201 -25.299 -43.848  1.00  0.00    -0.042 A 
ATOM      8  C   UNL     1      13.327 -24.229 -40.788  1.00  0.00     0.044 C 
ATOM      9  C   UNL     1      17.256 -25.753 -44.823  1.00  0.00     0.045 C 
ENDBRANCH   1   2
BRANCH   1  10
ATOM     10  N   UNL     1      16.024 -21.674 -44.370  1.00  0.00    -0.348 N 
ATOM     11  H   UNL     1      16.389 -21.778 -43.419  1.00  0.00     0.345 HD
ATOM     12  H   UNL     1      16.736 -21.166 -44.909  1.00  0.00     0.345 HD
ATOM     13  H   UNL     1      15.168 -21.113 -44.352  1.00  0.00     0.345 HD
ENDBRANCH   1  10
BRANCH   1  14
ATOM     14  C   UNL     1      14.774 -23.010 -46.128  1.00  0.00     0.014 A 
ATOM     15  C   UNL     1      14.098 -24.212 -46.419  1.00  0.00     0.012 A 
ATOM     16  C   UNL     1      14.484 -21.881 -46.918  1.00  0.00     0.016 A 
ATOM     17  C   UNL     1      13.161 -24.286 -47.453  1.00  0.00     0.027 A 
ATOM     18  C   UNL     1      13.555 -21.955 -47.968  1.00  0.00    -0.023 A 
ATOM     19  C   UNL     1      12.900 -23.162 -48.227  1.00  0.00     0.044 A 
ATOM     20  C   UNL     1      13.156 -20.730 -48.748  1.00  0.00     0.047 C 
ATOM     21  N   UNL     1      11.957 -23.231 -49.255  1.00  0.00    -0.326 N 
ATOM     22  C   UNL     1      12.718 -21.087 -50.158  1.00  0.00     0.105 C 
ATOM     23  C   UNL     1      11.739 -22.238 -50.171  1.00  0.00     0.224 C 
ATOM     24  O   UNL     1      10.851 -22.337 -51.012  1.00  0.00    -0.275 OA
ATOM     25  H   UNL     1      11.375 -24.055 -49.364  1.00  0.00     0.169 HD
ENDBRANCH   1  14
TORSDOF 3
ENDMDL
MODEL 7
REMARK VINA RESULT:    -6.917     24.793     26.264
REMARK INTER + INTRA:          -8.651
REMARK INTER:                  -8.508
REMARK INTRA:                  -0.143
REMARK UNBOUND:                -0.723
REMARK SMILES Cc1ccc(C)c([C@H]([NH3+])c2ccc3c(c2)CCC(=O)N3)c1
REMARK SMILES IDX 8 1 7 2 2 3 3 4 21 5 4 6 5 7 1 8 6 9 9 10 10 14 11 15 15 16
REMARK SMILES IDX 12 17 14 18 13 19 16 20 20 21 17 22 18 23 19 24
REMARK H PARENT 9 11 9 12 9 13 20 25
ROOT
ATOM      1  C   UNL     1      16.098 -24.820 -45.402  1.00  0.00     0.243 C 
ENDROOT
BRANCH   1   2
ATOM      2  C   UNL     1      15.996 -24.393 -43.943  1.00  0.00     0.017 A 
ATOM      3  C   UNL     1      14.762 -24.647 -41.830  1.00  0.00    -0.051 A 
ATOM      4  C   UNL     1      15.663 -23.786 -41.211  1.00  0.00     0.004 A 
ATOM      5  C   UNL     1      14.926 -24.933 -43.189  1.00  0.00     0.014 A 
ATOM      6  C   UNL     1      16.726 -23.244 -41.931  1.00  0.00     0.004 A 
ATOM      7  C   UNL     1      16.921 -23.544 -43.291  1.00  0.00    -0.042 A 
ATOM      8  C   UNL     1      13.593 -25.196 -41.065  1.00  0.00     0.044 C 
ATOM      9  C   UNL     1      18.080 -22.869 -43.979  1.00  0.00     0.045 C 
ENDBRANCH   1   2
BRANCH   1  10
ATOM     10  N   UNL     1      17.528 -25.031 -45.750  1.00  0.00    -0.348 N 
ATOM     11  H   UNL     1      17.697 -24.815 -46.736  1.00  0.00     0.345 HD
ATOM     12  H   UNL     1      18.112 -24.392 -45.199  1.00  0.00     0.345 HD
ATOM     13  H   UNL     1      17.820 -25.992 -45.551  1.00  0.00     0.345 HD
ENDBRANCH   1  10
BRANCH   1  14
ATOM     14  C   UNL     1      15.310 -23.981 -46.397  1.00  0.00     0.014 A 
ATOM     15  C   UNL     1      15.894 -22.799 -46.894  1.00  0.00     0.012 A 
ATOM     16  C   UNL     1      14.015 -24.316 -46.840  1.00  0.00     0.016 A 
ATOM     17  C   UNL     1      15.219 -21.984 -47.806  1.00  0.00     0.027 A 
ATOM     18  C   UNL     1      13.328 -23.491 -47.745  1.00  0.00    -0.023 A 
ATOM     19  C   UNL     1      13.938 -22.328 -48.220  1.00  0.00     0.044 A 
ATOM     20  C   UNL     1      11.991 -23.893 -48.309  1.00  0.00     0.047 C 
ATOM     21  N   UNL     1      13.265 -21.518 -49.138  1.00  0.00    -0.326 N 
ATOM     22  C   UNL     1      11.158 -22.679 -48.685  1.00  0.00     0.105 C 
ATOM     23  C   UNL     1      11.952 -21.677 -49.490  1.00  0.00     0.224 C 
ATOM     24  O   UNL     1      11.438 -20.969 -50.351  1.00  0.00    -0.275 OA
ATOM     25  H   UNL     1      13.745 -20.752 -49.597  1.00  0.00     0.169 HD
ENDBRANCH   1  14
TORSDOF 3
ENDMDL
MODEL 8
REMARK VINA RESULT:    -6.898     23.727     25.108
REMARK INTER + INTRA:          -8.630
REMARK INTER:                  -8.128
REMARK INTRA:                  -0.501
REMARK UNBOUND:                -0.723
REMARK SMILES Cc1ccc(C)c([C@H]([NH3+])c2ccc3c(c2)CCC(=O)N3)c1
REMARK SMILES IDX 8 1 7 2 2 3 3 4 21 5 4 6 5 7 1 8 6 9 9 10 10 14 11 15 15 16
REMARK SMILES IDX 12 17 14 18 13 19 16 20 20 21 17 22 18 23 19 24
REMARK H PARENT 9 11 9 12 9 13 20 25
ROOT
ATOM      1  C   UNL     1      14.952 -22.394 -46.103  1.00  0.00     0.243 C 
ENDROOT
BRANCH   1   2
ATOM      2  C   UNL     1      13.799 -22.855 -46.985  1.00  0.00     0.017 A 
ATOM      3  C   UNL     1      12.635 -24.787 -47.968  1.00  0.00    -0.051 A 
ATOM      4  C   UNL     1      11.699 -23.924 -48.531  1.00  0.00     0.004 A 
ATOM      5  C   UNL     1      13.681 -24.248 -47.212  1.00  0.00     0.014 A 
ATOM      6  C   UNL     1      11.792 -22.550 -48.319  1.00  0.00     0.004 A 
ATOM      7  C   UNL     1      12.822 -21.995 -47.539  1.00  0.00    -0.042 A 
ATOM      8  C   UNL     1      12.559 -26.263 -48.232  1.00  0.00     0.044 C 
ATOM      9  C   UNL     1      12.847 -20.494 -47.411  1.00  0.00     0.045 C 
ENDBRANCH   1   2
BRANCH   1  10
ATOM     10  N   UNL     1      16.234 -22.608 -46.824  1.00  0.00    -0.348 N 
ATOM     11  H   UNL     1      16.308 -21.978 -47.628  1.00  0.00     0.345 HD
ATOM     12  H   UNL     1      17.018 -22.388 -46.199  1.00  0.00     0.345 HD
ATOM     13  H   UNL     1      16.328 -23.579 -47.135  1.00  0.00     0.345 HD
ENDBRANCH   1  10
BRANCH   1  14
ATOM     14  C   UNL     1      14.930 -22.891 -44.665  1.00  0.00     0.014 A 
ATOM     15  C   UNL     1      16.084 -22.718 -43.875  1.00  0.00     0.012 A 
ATOM     16  C   UNL     1      13.818 -23.531 -44.082  1.00  0.00     0.016 A 
ATOM     17  C   UNL     1      16.128 -23.158 -42.549  1.00  0.00     0.027 A 
ATOM     18  C   UNL     1      13.865 -23.987 -42.755  1.00  0.00    -0.023 A 
ATOM     19  C   UNL     1      15.024 -23.797 -41.999  1.00  0.00     0.044 A 
ATOM     20  C   UNL     1      12.650 -24.573 -42.087  1.00  0.00     0.047 C 
ATOM     21  N   UNL     1      15.064 -24.229 -40.671  1.00  0.00    -0.326 N 
ATOM     22  C   UNL     1      13.035 -25.560 -40.997  1.00  0.00     0.105 C 
ATOM     23  C   UNL     1      14.100 -25.002 -40.082  1.00  0.00     0.224 C 
ATOM     24  O   UNL     1      14.165 -25.296 -38.892  1.00  0.00    -0.275 OA
ATOM     25  H   UNL     1      15.840 -23.975 -40.070  1.00  0.00     0.169 HD
ENDBRANCH   1  14
TORSDOF 3
ENDMDL
MODEL 9
REMARK VINA RESULT:    -6.877     24.075     25.807
REMARK INTER + INTRA:          -8.605
REMARK INTER:                  -8.079
REMARK INTRA:                  -0.526
REMARK UNBOUND:                -0.723
REMARK SMILES Cc1ccc(C)c([C@H]([NH3+])c2ccc3c(c2)CCC(=O)N3)c1
REMARK SMILES IDX 8 1 7 2 2 3 3 4 21 5 4 6 5 7 1 8 6 9 9 10 10 14 11 15 15 16
REMARK SMILES IDX 12 17 14 18 13 19 16 20 20 21 17 22 18 23 19 24
REMARK H PARENT 9 11 9 12 9 13 20 25
ROOT
ATOM      1  C   UNL     1      16.509 -23.589 -45.325  1.00  0.00     0.243 C 
ENDROOT
BRANCH   1   2
ATOM      2  C   UNL     1      15.288 -23.561 -46.235  1.00  0.00     0.017 A 
ATOM      3  C   UNL     1      13.816 -22.161 -47.623  1.00  0.00    -0.051 A 
ATOM      4  C   UNL     1      13.098 -23.296 -47.990  1.00  0.00     0.004 A 
ATOM      5  C   UNL     1      14.894 -22.299 -46.742  1.00  0.00     0.014 A 
ATOM      6  C   UNL     1      13.469 -24.550 -47.506  1.00  0.00     0.004 A 
ATOM      7  C   UNL     1      14.567 -24.708 -46.642  1.00  0.00    -0.042 A 
ATOM      8  C   UNL     1      13.389 -20.806 -48.110  1.00  0.00     0.044 C 
ATOM      9  C   UNL     1      14.851 -26.104 -46.151  1.00  0.00     0.045 C 
ENDBRANCH   1   2
BRANCH   1  10
ATOM     10  N   UNL     1      17.640 -24.230 -46.044  1.00  0.00    -0.348 N 
ATOM     11  H   UNL     1      17.775 -23.802 -46.965  1.00  0.00     0.345 HD
ATOM     12  H   UNL     1      18.508 -24.084 -45.517  1.00  0.00     0.345 HD
ATOM     13  H   UNL     1      17.490 -25.238 -46.151  1.00  0.00     0.345 HD
ENDBRANCH   1  10
BRANCH   1  14
ATOM     14  C   UNL     1      16.272 -24.099 -43.911  1.00  0.00     0.014 A 
ATOM     15  C   UNL     1      17.312 -24.797 -43.264  1.00  0.00     0.012 A 
ATOM     16  C   UNL     1      15.061 -23.922 -43.214  1.00  0.00     0.016 A 
ATOM     17  C   UNL     1      17.154 -25.295 -41.968  1.00  0.00     0.027 A 
ATOM     18  C   UNL     1      14.894 -24.434 -41.918  1.00  0.00    -0.023 A 
ATOM     19  C   UNL     1      15.946 -25.119 -41.305  1.00  0.00     0.044 A 
ATOM     20  C   UNL     1      13.646 -24.159 -41.122  1.00  0.00     0.047 C 
ATOM     21  N   UNL     1      15.791 -25.608 -40.006  1.00  0.00    -0.326 N 
ATOM     22  C   UNL     1      13.370 -25.265 -40.118  1.00  0.00     0.105 C 
ATOM     23  C   UNL     1      14.603 -25.629 -39.326  1.00  0.00     0.224 C 
ATOM     24  O   UNL     1      14.547 -26.015 -38.162  1.00  0.00    -0.275 OA
ATOM     25  H   UNL     1      16.585 -25.982 -39.498  1.00  0.00     0.169 HD
ENDBRANCH   1  14
TORSDOF 3
ENDMDL
